FOO
138240
    1MOL0     O    1   0.499   3.607   3.084  0.5516  0.1458  0.4817
    1MOL0     C    2   0.389   3.550   3.080 -0.0897  0.0116  1.0181
    1MOL0     O    3   0.278   3.595   3.013  0.3364 -0.2099 -0.1055
    1MOL0     C    4   0.283   3.702   2.930  0.2444 -0.3047  0.2809
    1MOL0     C    5   0.340   3.823   2.965 -0.0357 -0.2415 -0.1513
    1MOL0     C    6   0.313   3.945   2.885 -0.1451  1.3357  1.0070
    1MOL0     C    7   0.244   3.936   2.762  0.1550  0.9581  0.1743
    1MOL0     O    8   0.218   4.052   2.690  0.4790 -0.8165  0.1324
    1MOL0     C    9   0.205   4.037   2.551 -0.6742  0.9162  0.3953
    1MOL0     C   10   0.083   4.111   2.506  0.1673 -0.4335  0.0584
    1MOL0     C   11   0.113   4.266   2.490  0.0087  0.5419  0.0786
    1MOL0     C   12  -0.004   4.353   2.457 -0.1969 -0.6034  0.5902
    1MOL0     C   13   0.039   4.470   2.364 -0.3575  0.6503  0.5065
    1MOL0     C   14  -0.082   4.561   2.370 -0.0047  0.5310  0.1879
    1MOL0     C   15  -0.065   4.659   2.484  0.4457  0.1157 -0.0105
    1MOL0     C   16   0.034   4.786   2.472  0.4480  0.0065  0.3136
    1MOL0     N   17   0.027   4.869   2.598  0.2742 -0.5748  0.7504
    1MOL0     C   18  -0.086   4.949   2.635 -0.0063  0.2716  0.7654
    1MOL0     C   19  -0.049   5.013   2.746  0.2845  0.5275  0.3425
    1MOL0     C   20  -0.147   5.082   2.843  0.3777  0.6150  0.7622
    1MOL0     C   21  -0.133   5.226   2.794  0.7022  0.1045 -0.3257
    1MOL0     C   22  -0.217   5.325   2.878 -0.4271  1.0584 -0.9800
    1MOL0     C   23  -0.176   5.472   2.854  0.7021  0.2914  0.1098
    1MOL0     O   24  -0.041   5.504   2.886  0.0295 -0.2645  0.4904
    1MOL0     C   25  -0.009   5.500   3.015 -0.6213 -0.4926 -0.3758
    1MOL0     C   26  -0.078   5.577   3.115  0.0041 -0.2976 -0.1405
    1MOL0     C   27  -0.048   5.548   3.249 -0.1548 -0.0574  0.1592
    1MOL0     C   28  -0.133   5.620   3.345  0.7429 -0.1733  0.6594
    1MOL0     C   29   0.074   5.477   3.274  0.1348 -0.1763  0.1187
    1MOL0     C   30   0.126   5.467   3.418  0.0442 -0.1575 -0.0144
    1MOL0     O   31   0.133   5.579   3.497  0.2387  0.4134  0.6710
    1MOL0     C   32   0.197   5.548   3.613 -0.3766  0.7230 -1.3789
    1MOL0     C   33   0.332   5.596   3.628  0.2850 -0.7391  0.5020
    1MOL0     C   34   0.411   5.576   3.744 -0.8361  0.9110 -0.0796
    1MOL0     C   35   0.372   5.487   3.838 -0.0577 -0.2549  0.1732
    1MOL0     O   36   0.438   5.432   3.942 -0.8628 -0.8027  0.0271
    1MOL0     C   37   0.560   5.499   3.987 -0.6665 -0.6963  0.4359
    1MOL0     C   38   0.601   5.440   4.115 -0.6822  0.4416 -0.6753
    1MOL0     C   39   0.742   5.479   4.172 -0.2504  0.6429 -0.3698
    1MOL0     C   40   0.788   5.617   4.137 -0.8963 -1.4426  0.1737
    1MOL0     C   41   0.883   5.674   4.244  0.8026  0.3567  0.6470
    1MOL0     C   42   1.010   5.599   4.262  0.4439 -0.5689 -0.2815
    1MOL0     C   43   1.123   5.620   4.159 -0.1999 -0.3983 -0.9157
    1MOL0     C   44   1.234   5.512   4.188 -0.4152 -0.4530 -0.2074
    1MOL0    Cl   45   1.332   5.533   4.051 -0.3444 -0.0016  0.2101
    1MOL0     C   46   0.234   5.455   3.833 -0.8503  0.2366  0.1787
    1MOL0     C   47   0.146   5.486   3.735  0.3910  0.8614  0.1034
    1MOL0     O   48   0.155   5.354   3.449 -1.0393  0.4728  0.3146
    1MOL0     C   49   0.144   5.405   3.174 -0.6217 -0.3740  0.2691
    1MOL0     C   50   0.099   5.415   3.042 -0.7419 -0.3480  0.3111
    1MOL0     N   51   0.091   4.994   2.767  0.1658  0.7665 -0.0287
    1MOL0     N   52   0.126   4.898   2.690 -0.0860 -0.5441  0.2343
    1MOL0     C   53   0.192   3.809   2.724  0.5465  0.5868  1.0270
    1MOL0     C   54   0.213   3.697   2.807  0.5892 -0.7760  0.8420
    1MOL0     C   55   0.381   3.426   3.161 -0.5706 -0.2137  0.0919
    1MOL0     C   56   0.485   3.331   3.172  0.5317 -0.3650 -0.8993
    1MOL0     C   57   0.464   3.216   3.246  0.3693 -0.4311 -0.2540
    1MOL0     C   58   0.354   3.193   3.318 -0.3731 -0.7062  0.0380
    1MOL0     O   59   0.346   3.076   3.381  0.0441 -0.0869  0.8210
    1MOL0     C   60   0.335   2.972   3.280  0.2372  0.3922  0.1063
    1MOL0     C   61   0.286   2.850   3.354 -0.3151 -0.1159  0.0083
    1MOL0     C   62   0.280   2.728   3.261 -0.3700 -0.2841 -0.0403
    1MOL0     C   63   0.298   2.598   3.331  0.5030  0.5829  0.1411
    1MOL0     C   64   0.176   2.568   3.415  0.6922  0.3358 -1.2928
    1MOL0     C   65   0.080   2.549   3.487 -0.2453 -1.2464 -0.8052
    1MOL0     C   66   0.242   3.283   3.301  0.2706  0.3968  0.0632
    1MOL0     C   67   0.254   3.400   3.223 -0.5008 -0.0744  0.9629
    1MOL0     H   68   0.403   3.825   3.054  2.2081  1.4938 -1.6509
    1MOL0     H   69   0.329   4.045   2.923 -2.4710  1.1526  2.6843
    1MOL0     H   70   0.292   4.086   2.508 -1.8049  3.9728  1.2886
    1MOL0     H   71   0.215   3.933   2.518 -0.2014  0.7211  1.1269
    1MOL0     H   72   0.042   4.065   2.416 -0.8181  0.7385 -0.1180
    1MOL0     H   73  -0.002   4.109   2.574 -0.4123 -0.0703 -0.6386
    1MOL0     H   74   0.150   4.300   2.587 -2.5338  3.5035  0.1627
    1MOL0     H   75   0.183   4.280   2.408 -1.1659 -2.5161 -1.6402
    1MOL0     H   76  -0.075   4.295   2.398  2.1968 -0.3710 -2.7896
    1MOL0     H   77  -0.047   4.386   2.552  1.8483 -2.6640  2.3675
    1MOL0     H   78   0.134   4.511   2.397  0.6565 -1.4000  0.2973
    1MOL0     H   79   0.044   4.426   2.264 -3.4051  0.5210  0.3247
    1MOL0     H   80  -0.092   4.625   2.282 -0.7356  1.1827  0.7338
    1MOL0     H   81  -0.173   4.500   2.359 -0.6265  1.3975  0.4573
    1MOL0     H   82  -0.160   4.706   2.510 -0.5088 -2.5710  1.8022
    1MOL0     H   83  -0.049   4.607   2.579  0.9898  2.6371  1.3854
    1MOL0     H   84   0.001   4.853   2.392  1.9564 -0.6970 -0.9427
    1MOL0     H   85   0.135   4.748   2.451  0.4130  1.1850 -2.4504
    1MOL0     H   86  -0.183   4.951   2.586  0.2355  3.6216  0.2069
    1MOL0     H   87  -0.250   5.047   2.831  0.7798 -0.5814  0.7246
    1MOL0     H   88  -0.128   5.072   2.950  0.2813 -3.0213  0.5436
    1MOL0     H   89  -0.180   5.245   2.697 -0.3235 -1.2108 -0.1174
    1MOL0     H   90  -0.025   5.242   2.804  1.0081 -1.1089 -1.4121
    1MOL0     H   91  -0.193   5.295   2.980  0.0974 -0.7730 -1.5988
    1MOL0     H   92  -0.323   5.306   2.859 -0.3842 -0.8398  0.3689
    1MOL0     H   93  -0.253   5.538   2.897 -4.5226 -3.4551 -2.3984
    1MOL0     H   94  -0.169   5.490   2.746  2.0295 -0.8077 -0.0097
    1MOL0     H   95  -0.164   5.640   3.096  0.5832  1.3582  2.2435
    1MOL0     H   96  -0.141   5.728   3.326 -0.0047 -0.6624 -2.2104
    1MOL0     H   97  -0.237   5.591   3.335  0.0633  2.0222  0.7488
    1MOL0     H   98  -0.111   5.595   3.449 -1.6826 -6.0390  0.1266
    1MOL0     H   99   0.384   5.644   3.545 -1.5469  2.9272  1.2542
    1MOL0     H  100   0.516   5.602   3.742 -0.0956 -1.8001 -1.8779
    1MOL0     H  101   0.639   5.492   3.911  0.7743  1.1150  1.6844
    1MOL0     H  102   0.542   5.607   3.984 -2.1865 -0.9140  1.0272
    1MOL0     H  103   0.526   5.448   4.194  1.8177 -0.1298  1.9151
    1MOL0     H  104   0.597   5.332   4.105  1.2920  0.2955 -0.3070
    1MOL0     H  105   0.819   5.418   4.124 -1.0839  0.1149 -1.0575
    1MOL0     H  106   0.745   5.459   4.280  0.8923  1.0652 -0.3143
    1MOL0     H  107   0.823   5.622   4.033 -4.1886  5.2110 -1.1631
    1MOL0     H  108   0.709   5.692   4.146  0.1013 -0.6298  3.4192
    1MOL0     H  109   0.830   5.669   4.340 -0.5881  0.0722 -0.1141
    1MOL0     H  110   0.908   5.777   4.218 -1.3301  0.9153  0.5966
    1MOL0     H  111   1.047   5.625   4.362 -1.6959 -2.9756  1.2887
    1MOL0     H  112   0.988   5.492   4.272  1.1643 -0.5667  2.0627
    1MOL0     H  113   1.182   5.712   4.170 -1.0677 -0.1263  2.8108
    1MOL0     H  114   1.077   5.606   4.061  1.6506  0.5745 -1.9727
    1MOL0     H  115   1.202   5.411   4.216 -0.8034 -0.7297 -1.5969
    1MOL0     H  116   1.297   5.532   4.276  0.6507  0.5408 -1.1735
    1MOL0     H  117   0.203   5.396   3.919 -1.9425  0.3712 -0.1144
    1MOL0     H  118   0.040   5.463   3.740  0.1321  0.9422 -3.0214
    1MOL0     H  119   0.229   5.343   3.202  3.4998  4.3463 -0.3436
    1MOL0     H  120   0.147   5.364   2.959 -2.0364 -2.4269  0.7498
    1MOL0     H  121   0.127   3.794   2.639  2.0787 -0.6541  0.0272
    1MOL0     H  122   0.155   3.610   2.779 -1.9044  1.2748 -0.9330
    1MOL0     H  123   0.577   3.347   3.116  1.3494 -6.1082 -1.7883
    1MOL0     H  124   0.551   3.151   3.249  2.2784  1.9810  0.1638
    1MOL0     H  125   0.260   2.995   3.204 -3.2250 -1.8565  2.5426
    1MOL0     H  126   0.437   2.963   3.243  0.3561 -0.1960  0.5517
    1MOL0     H  127   0.192   2.882   3.400 -2.4315 -0.0285 -3.9071
    1MOL0     H  128   0.360   2.830   3.431 -2.4123  0.4716  2.2967
    1MOL0     H  129   0.375   2.739   3.207  2.3004  1.8827  4.4437
    1MOL0     H  130   0.195   2.736   3.193 -0.3315  0.2075 -0.0361
    1MOL0     H  131   0.387   2.597   3.395  2.7958 -5.0257 -2.4504
    1MOL0     H  132   0.310   2.517   3.259  0.0312  2.2508 -1.8838
    1MOL0     H  133   0.003   2.519   3.554  0.9612 -1.7984  0.3911
    1MOL0     H  134   0.152   3.252   3.353  1.9454 -1.1595  2.2710
    1MOL0     H  135   0.173   3.471   3.215 -0.1376  0.2958  0.5290
    2MOL0     O  136   0.643   4.668   7.804 -0.0884 -0.4657  0.0460
    2MOL0     C  137   0.620   4.602   7.906 -0.4013 -0.1358 -0.1758
    2MOL0     O  138   0.678   4.616   8.023 -0.1366  0.2412  0.0703
    2MOL0     C  139   0.778   4.705   8.044  1.3605 -1.2005 -0.2478
    2MOL0     C  140   0.804   4.740   8.179 -0.2627 -0.0896  0.8454
    2MOL0     C  141   0.905   4.829   8.213 -1.4401  0.1348  0.8689
    2MOL0     C  142   0.985   4.888   8.113 -0.4692 -0.5498 -0.7847
    2MOL0     O  143   1.092   4.957   8.152 -0.9215 -0.0492 -0.6323
    2MOL0     C  144   1.187   5.010   8.055  0.9076  0.9968 -0.7905
    2MOL0     C  145   1.298   5.076   8.122  0.3838  1.3518 -0.4411
    2MOL0     C  146   1.413   5.101   8.012 -0.0076  0.4297 -0.4790
    2MOL0     C  147   1.527   5.173   8.085 -0.0173 -0.0514  0.4327
    2MOL0     C  148   1.643   5.224   7.990  0.5669  0.0439 -0.2109
    2MOL0     C  149   1.759   5.287   8.070  1.2503 -0.3738  0.2614
    2MOL0     C  150   1.893   5.287   8.000 -1.1326 -0.2224  0.4863
    2MOL0     C  151   1.922   5.424   7.929 -0.4604 -0.1319  0.1174
    2MOL0     N  152   1.884   5.423   7.793 -0.6670 -0.2199  1.2236
    2MOL0     C  153   1.976   5.434   7.694  0.2421 -0.2963 -0.2431
    2MOL0     C  154   1.906   5.420   7.582 -0.9679  0.7655 -0.2323
    2MOL0     C  155   1.969   5.416   7.446  0.4336  0.0695 -0.4277
    2MOL0     C  156   2.072   5.306   7.415 -0.1478  0.3328  0.0453
    2MOL0     C  157   2.010   5.172   7.414  1.2330  0.1290  0.0610
    2MOL0     C  158   2.109   5.059   7.402  0.5822 -0.0012 -0.6147
    2MOL0     O  159   2.193   5.070   7.285 -0.3293  1.1624 -0.2612
    2MOL0     C  160   2.291   4.977   7.270 -0.0692  0.5792  0.1754
    2MOL0     C  161   2.332   4.891   7.379  0.0374 -1.1163 -0.0407
    2MOL0     C  162   2.455   4.807   7.369 -0.6145  0.5330  0.2375
    2MOL0     C  163   2.473   4.685   7.468  0.7119  0.5870 -0.2272
    2MOL0     C  164   2.541   4.830   7.257  0.2330 -0.0150 -0.4917
    2MOL0     C  165   2.654   4.733   7.219  0.1984 -0.3159 -0.8480
    2MOL0     O  166   2.684   4.629   7.300 -0.0468  0.1753  0.1258
    2MOL0     C  167   2.789   4.541   7.288 -0.2394 -0.6954 -0.4247
    2MOL0     C  168   2.917   4.594   7.260 -0.9170 -0.3451  0.6307
    2MOL0     C  169   3.035   4.510   7.277 -0.1450  0.5202 -0.4657
    2MOL0     C  170   3.021   4.375   7.324  0.5686  0.2466  0.2275
    2MOL0     O  171   3.132   4.294   7.340 -1.1625  0.0389  0.1548
    2MOL0     C  172   3.094   4.157   7.346  0.8463 -0.1055  1.1357
    2MOL0     C  173   3.216   4.078   7.291 -0.3502  0.5334  0.2959
    2MOL0     C  174   3.296   4.138   7.168 -0.1460 -0.6641 -0.5246
    2MOL0     C  175   3.404   4.042   7.109 -0.9733 -0.3289 -0.5910
    2MOL0     C  176   3.505   4.131   7.029 -0.7641 -0.3641 -0.9799
    2MOL0     C  177   3.452   4.172   6.886 -0.0827  0.0290  0.1462
    2MOL0     C  178   3.534   4.292   6.828  0.1695 -0.4335  0.3819
    2MOL0     C  179   3.507   4.305   6.681  1.0241  0.3215  0.6357
    2MOL0    Cl  180   3.533   4.471   6.637 -0.4332 -0.3475  0.1295
    2MOL0     C  181   2.883   4.331   7.340 -0.9019 -0.8495 -1.1651
    2MOL0     C  182   2.778   4.415   7.319  0.5994  0.2871  0.4708
    2MOL0     O  183   2.719   4.764   7.121  0.9194  0.0290  0.3288
    2MOL0     C  184   2.502   4.925   7.168  0.7755 -0.6776 -0.1096
    2MOL0     C  185   2.383   5.002   7.171 -0.0277 -0.0458  0.4116
    2MOL0     N  186   1.779   5.381   7.610  0.1557 -0.5011 -0.3537
    2MOL0     N  187   1.779   5.379   7.731  0.7705 -0.2084 -0.5369
    2MOL0     C  188   0.965   4.857   7.975  0.0344  0.4376 -0.4337
    2MOL0     C  189   0.859   4.770   7.947  0.6416 -0.5361  0.0647
    2MOL0     C  190   0.550   4.472   7.876 -0.0927  0.0187  0.0439
    2MOL0     C  191   0.444   4.456   7.786  0.1043  0.5279 -0.3950
    2MOL0     C  192   0.370   4.335   7.784  0.0075  0.0105  0.0989
    2MOL0     C  193   0.420   4.214   7.846  0.5882 -0.5200  0.4073
    2MOL0     O  194   0.362   4.091   7.845  0.0763  0.2119  0.1687
    2MOL0     C  195   0.248   4.060   7.760 -0.7901 -0.3469 -0.3566
    2MOL0     C  196   0.201   3.925   7.799  0.6716  0.2039  0.1821
    2MOL0     C  197   0.104   3.876   7.685 -0.3207  0.2182 -0.1518
    2MOL0     C  198   0.038   3.738   7.709 -0.5997 -0.2726 -0.0514
    2MOL0     C  199  -0.078   3.716   7.612 -0.3634  0.0702  0.2423
    2MOL0     C  200  -0.169   3.691   7.529 -0.2989  0.8910 -0.3776
    2MOL0     C  201   0.543   4.228   7.907  0.8676 -0.3363  0.4371
    2MOL0     C  202   0.599   4.350   7.935  0.3334 -0.4102 -1.0692
    2MOL0     H  203   0.736   4.703   8.255 -2.2679  1.1455 -0.2665
    2MOL0     H  204   0.929   4.848   8.317 -0.8874  4.3826  0.1269
    2MOL0     H  205   1.227   4.936   7.986 -0.6752 -0.7424  0.0612
    2MOL0     H  206   1.137   5.090   8.000 -0.9020  1.1032  0.8782
    2MOL0     H  207   1.266   5.161   8.183 -2.4591  1.0938 -1.4408
    2MOL0     H  208   1.331   4.985   8.173  0.3314 -0.0840 -2.8315
    2MOL0     H  209   1.454   5.010   7.967  0.8674  1.8760 -2.7669
    2MOL0     H  210   1.382   5.156   7.923  0.1579  0.6183 -0.4217
    2MOL0     H  211   1.494   5.260   8.144  0.1153  1.1872 -1.2316
    2MOL0     H  212   1.562   5.091   8.147  0.0505 -1.7229 -1.7135
    2MOL0     H  213   1.669   5.129   7.943  1.7272 -0.2712  1.0064
    2MOL0     H  214   1.613   5.290   7.908  1.9922  0.8449 -0.1149
    2MOL0     H  215   1.718   5.385   8.093 -2.4251 -1.2315 -1.7117
    2MOL0     H  216   1.763   5.238   8.167  1.4445 -0.8071  0.0402
    2MOL0     H  217   1.970   5.278   8.077  0.4857 -2.0615 -1.2389
    2MOL0     H  218   1.897   5.203   7.929 -0.4077  0.4777 -0.3210
    2MOL0     H  219   2.028   5.449   7.938 -0.1518 -1.1072 -0.6004
    2MOL0     H  220   1.879   5.507   7.985 -0.4633  1.0914 -1.6408
    2MOL0     H  221   2.083   5.445   7.705  0.5884 -2.3683 -1.0221
    2MOL0     H  222   1.893   5.412   7.367 -0.7644  1.9260  0.5302
    2MOL0     H  223   2.019   5.513   7.441  0.0737  0.2329 -1.0904
    2MOL0     H  224   2.147   5.319   7.494  1.1916  0.5367 -1.2135
    2MOL0     H  225   2.114   5.323   7.315  5.6636  0.7888  2.1764
    2MOL0     H  226   1.936   5.173   7.334  0.6112  2.1733  0.5880
    2MOL0     H  227   1.953   5.155   7.506 -2.3490 -2.3588 -2.3831
    2MOL0     H  228   2.053   4.967   7.416 -1.5217  1.0844 -1.4439
    2MOL0     H  229   2.174   5.064   7.490  0.8825  2.5844 -0.8929
    2MOL0     H  230   2.267   4.868   7.463 -2.7075 -1.2838 -2.0562
    2MOL0     H  231   2.555   4.690   7.539  1.4514  1.9786 -1.1325
    2MOL0     H  232   2.378   4.659   7.516 -1.6794  0.7572 -4.3037
    2MOL0     H  233   2.498   4.598   7.406  0.5484  0.8204 -0.6248
    2MOL0     H  234   2.928   4.687   7.205  1.9586  0.1317  1.8563
    2MOL0     H  235   3.132   4.550   7.250  0.0311  0.3349 -0.1054
    2MOL0     H  236   3.063   4.118   7.443 -0.7681  0.8942  1.0562
    2MOL0     H  237   3.015   4.135   7.273  0.1988  2.3455  0.9982
    2MOL0     H  238   3.288   4.055   7.371 -1.8446 -4.6623  0.4469
    2MOL0     H  239   3.175   3.982   7.259  2.2927  0.7096 -4.5932
    2MOL0     H  240   3.344   4.232   7.196  1.2383 -1.6709  0.6616
    2MOL0     H  241   3.235   4.191   7.094 -1.4490  1.0112  1.6621
    2MOL0     H  242   3.453   3.988   7.191 -1.1014 -0.1799 -0.4142
    2MOL0     H  243   3.372   3.957   7.048  1.4685 -0.1796 -2.1841
    2MOL0     H  244   3.600   4.077   7.024 -0.8335 -0.8748  1.6453
    2MOL0     H  245   3.527   4.216   7.095  0.9515 -0.4630 -1.3781
    2MOL0     H  246   3.466   4.090   6.814 -1.4182 -0.6004  0.5802
    2MOL0     H  247   3.346   4.197   6.889 -0.9670 -2.5507 -3.1776
    2MOL0     H  248   3.639   4.279   6.857  0.3491 -0.6504 -0.3330
    2MOL0     H  249   3.487   4.380   6.873 -3.5085 -0.4837 -2.8036
    2MOL0     H  250   3.410   4.263   6.655  1.8409 -0.1662 -1.9289
    2MOL0     H  251   3.580   4.234   6.640  1.6589 -0.1185  2.4402
    2MOL0     H  252   2.878   4.232   7.384  1.4159  0.7775  3.3705
    2MOL0     H  253   2.689   4.361   7.348  0.8161 -0.9574 -1.0383
    2MOL0     H  254   2.558   4.947   7.078  1.0743 -0.0312  0.2223
    2MOL0     H  255   2.364   5.078   7.096 -0.5446 -2.2570 -1.8218
    2MOL0     H  256   1.021   4.897   7.892 -2.4744  1.5773 -1.6985
    2MOL0     H  257   0.848   4.753   7.841  1.8480 -2.3916  0.1793
    2MOL0     H  258   0.400   4.540   7.733  1.8604  2.0177  0.3758
    2MOL0     H  259   0.284   4.330   7.718  1.8875 -0.9216 -2.3995
    2MOL0     H  260   0.164   4.128   7.773 -1.0373  0.3609 -4.4220
    2MOL0     H  261   0.282   4.072   7.657  2.3660 -0.6639  0.5165
    2MOL0     H  262   0.156   3.927   7.899  0.5528  1.6293  0.1157
    2MOL0     H  263   0.280   3.850   7.805 -0.9583 -1.6341 -0.0932
    2MOL0     H  264   0.161   3.874   7.591  0.4940 -0.3359  0.3397
    2MOL0     H  265   0.022   3.947   7.676  1.4350  2.3020 -0.5639
    2MOL0     H  266   0.002   3.739   7.813  0.8365  1.0378  0.4703
    2MOL0     H  267   0.110   3.656   7.702 -1.4793 -1.0733  0.0249
    2MOL0     H  268  -0.247   3.651   7.468 -0.1741  2.0481 -1.3157
    2MOL0     H  269   0.589   4.143   7.956  1.2685 -0.7283 -0.5932
    2MOL0     H  270   0.682   4.357   8.004 -0.7191  3.7216  0.0584
    3MOL0     O  271   9.084   1.413   0.886 -0.2944 -0.1486 -0.8984
    3MOL0     C  272   9.155   1.365   0.974 -0.4713  0.8293  0.3560
    3MOL0     O  273   9.144   1.244   1.035  0.1208 -0.4789 -0.3382
    3MOL0     C  274   9.070   1.132   0.997  0.0372 -0.3140  0.2057
    3MOL0     C  275   8.995   1.129   0.873 -0.0537  1.0231  1.0333
    3MOL0     C  276   8.939   1.010   0.836 -0.8666 -0.7535  0.6566
    3MOL0     C  277   8.933   0.902   0.927  0.6831 -0.5670  0.0962
    3MOL0     O  278   8.865   0.793   0.884 -0.5810 -0.2937 -0.7424
    3MOL0     C  279   8.843   0.682   0.974 -0.2829 -0.1735 -0.2846
    3MOL0     C  280   8.807   0.556   0.895 -0.3130  0.3727  0.6362
    3MOL0     C  281   8.931   0.504   0.812  0.9961 -1.2657 -0.6623
    3MOL0     C  282   8.946   0.576   0.681 -0.8121  0.5648  0.1494
    3MOL0     C  283   9.067   0.522   0.601  0.4939  0.1548 -0.4647
    3MOL0     C  284   9.066   0.613   0.478 -1.7497  0.4527  0.9221
    3MOL0     C  285   9.183   0.591   0.378  0.3809 -0.0020  0.3697
    3MOL0     C  286   9.320   0.628   0.438  0.3343 -0.2638 -0.0261
    3MOL0     N  287   9.433   0.648   0.342 -0.2404 -0.6700  0.6604
    3MOL0     C  288   9.474   0.762   0.269 -0.0997 -0.3359  0.2902
    3MOL0     C  289   9.576   0.718   0.192 -0.0566 -0.1638  0.3489
    3MOL0     C  290   9.645   0.791   0.085  1.0813 -0.9371  0.6091
    3MOL0     C  291   9.581   0.776  -0.050  1.0191 -0.5991 -0.0782
    3MOL0     C  292   9.651   0.663  -0.131  0.5455 -0.8947 -0.6493
    3MOL0     C  293   9.603   0.665  -0.272  0.7997 -0.2444 -1.4859
    3MOL0     O  294   9.473   0.607  -0.272 -0.5694  0.7466 -0.2780
    3MOL0     C  295   9.426   0.547  -0.386 -0.0920  0.1391  0.1341
    3MOL0     C  296   9.475   0.564  -0.507  0.1607  0.1586 -1.3385
    3MOL0     C  297   9.409   0.517  -0.621  0.8111  0.3911  0.6817
    3MOL0     C  298   9.476   0.551  -0.754  0.1024 -0.0556 -0.0950
    3MOL0     C  299   9.291   0.434  -0.603 -0.4139  0.4795 -0.1472
    3MOL0     C  300   9.223   0.380  -0.720  0.1080 -0.4828  0.3686
    3MOL0     O  301   9.241   0.449  -0.835 -0.2833 -0.0827 -0.0327
    3MOL0     C  302   9.156   0.417  -0.942  0.2518  0.3941 -0.1770
    3MOL0     C  303   9.015   0.435  -0.936  0.0733 -0.0227 -0.6851
    3MOL0     C  304   8.937   0.431  -1.045 -0.2782  0.7039  0.3579
    3MOL0     C  305   8.980   0.381  -1.170  0.0986  0.1241  0.3715
    3MOL0     O  306   8.899   0.355  -1.289 -0.6161  0.1726  0.0715
    3MOL0     C  307   8.829   0.462  -1.352 -0.0227  0.1935 -0.3982
    3MOL0     C  308   8.691   0.482  -1.303 -0.6235  0.2957  1.1984
    3MOL0     C  309   8.613   0.344  -1.281  0.1271 -0.4051  0.4379
    3MOL0     C  310   8.519   0.360  -1.163  0.1594  0.0430  0.1158
    3MOL0     C  311   8.386   0.423  -1.192  0.3818  0.8834  0.9236
    3MOL0     C  312   8.283   0.333  -1.266  0.1929  0.8629  0.3298
    3MOL0     C  313   8.135   0.374  -1.262  0.5489 -0.1896  1.2458
    3MOL0     C  314   8.125   0.485  -1.369 -0.3632  0.2350 -0.1797
    3MOL0    Cl  315   7.975   0.571  -1.340  0.2784 -0.3700 -0.3720
    3MOL0     C  316   9.119   0.345  -1.177  0.2894 -0.7504 -0.3607
    3MOL0     C  317   9.208   0.370  -1.066  0.4800 -0.1607 -0.8934
    3MOL0     O  318   9.134   0.296  -0.707  0.3487  0.6877 -0.3552
    3MOL0     C  319   9.249   0.402  -0.473 -0.2199  0.8925  0.4094
    3MOL0     C  320   9.315   0.472  -0.364  1.3196  0.5073 -1.1275
    3MOL0     N  321   9.600   0.587   0.210 -0.4208  0.8373  0.9738
    3MOL0     N  322   9.523   0.542   0.300 -0.0262 -0.0220  0.5312
    3MOL0     C  323   9.001   0.918   1.058  0.1676  0.1697  0.3516
    3MOL0     C  324   9.077   1.025   1.085  0.4594 -0.5916 -0.0368
    3MOL0     C  325   9.281   1.429   0.994 -0.0400 -0.5614 -0.1611
    3MOL0     C  326   9.327   1.440   1.122 -0.1043  0.8177  0.5705
    3MOL0     C  327   9.436   1.518   1.152  0.4011  0.0841  1.0500
    3MOL0     C  328   9.503   1.582   1.046 -0.2455 -0.5041  0.0940
    3MOL0     O  329   9.623   1.657   1.062 -0.2038 -0.6073  0.5756
    3MOL0     C  330   9.676   1.664   1.192  0.9657 -0.4109 -0.0876
    3MOL0     C  331   9.778   1.553   1.216 -0.0175 -0.2011  0.8139
    3MOL0     C  332   9.880   1.556   1.108 -0.3737 -0.7851 -0.3183
    3MOL0     C  333  10.028   1.511   1.150 -0.0720  0.0140 -0.2825
    3MOL0     C  334  10.029   1.397   1.238  0.0148  0.3400 -0.3632
    3MOL0     C  335  10.027   1.295   1.304  0.2642  0.0783 -0.3298
    3MOL0     C  336   9.455   1.574   0.917  0.4691 -0.5722 -0.2200
    3MOL0     C  337   9.346   1.498   0.893 -1.2912 -0.9145  0.3854
    3MOL0     H  338   8.990   1.218   0.810  0.8622 -1.8426 -3.5830
    3MOL0     H  339   8.877   1.012   0.747  1.0915 -0.4945 -0.7550
    3MOL0     H  340   8.929   0.657   1.037 -1.4099 -2.1783  0.5713
    3MOL0     H  341   8.757   0.705   1.038 -1.7214  0.5715 -2.3785
    3MOL0     H  342   8.773   0.473   0.958 -4.7447  0.7339 -0.8912
    3MOL0     H  343   8.726   0.569   0.823 -0.6074 -2.9794  0.2002
    3MOL0     H  344   9.015   0.524   0.879  1.0508  0.8250 -1.2770
    3MOL0     H  345   8.914   0.396   0.800  0.1376 -1.3400  0.9054
    3MOL0     H  346   8.864   0.552   0.613 -1.7262  2.6031  0.4688
    3MOL0     H  347   8.939   0.685   0.693 -1.1487  0.6881 -1.0546
    3MOL0     H  348   9.152   0.537   0.668 -2.3337  0.2074  3.4514
    3MOL0     H  349   9.056   0.415   0.584 -1.1550 -0.1743  2.0737
    3MOL0     H  350   8.971   0.593   0.428 -0.5271 -4.0863 -0.0698
    3MOL0     H  351   9.068   0.718   0.508 -2.8306  0.3817  1.2896
    3MOL0     H  352   9.186   0.484   0.357  1.7545  0.0500  0.2177
    3MOL0     H  353   9.165   0.655   0.291 -3.7715  2.1249  2.4889
    3MOL0     H  354   9.358   0.556   0.511  1.1029  0.3160  0.1658
    3MOL0     H  355   9.294   0.727   0.476  0.5812 -1.4929  3.7527
    3MOL0     H  356   9.429   0.860   0.260  2.0879  0.6138 -1.5688
    3MOL0     H  357   9.646   0.899   0.102  3.0193 -0.2326 -3.0088
    3MOL0     H  358   9.753   0.772   0.078  0.5765 -3.9777 -0.4051
    3MOL0     H  359   9.590   0.873  -0.100  0.2333  0.0916  1.0713
    3MOL0     H  360   9.476   0.745  -0.043  0.8566 -0.1163 -0.3483
    3MOL0     H  361   9.633   0.571  -0.075 -0.0688  1.0042  2.4964
    3MOL0     H  362   9.759   0.681  -0.132  0.5967 -1.1845 -0.3600
    3MOL0     H  363   9.671   0.600  -0.328 -1.4865 -3.4791 -0.8154
    3MOL0     H  364   9.588   0.764  -0.316 -0.7159 -0.5226 -1.6508
    3MOL0     H  365   9.563   0.626  -0.521 -0.8504  1.9893 -0.0045
    3MOL0     H  366   9.488   0.468  -0.825  2.5991  2.3358 -2.7638
    3MOL0     H  367   9.421   0.625  -0.813  1.8542  0.2192 -1.4777
    3MOL0     H  368   9.577   0.591  -0.741  0.4351 -1.2414  1.1581
    3MOL0     H  369   8.971   0.454  -0.838 -2.8453  3.1841 -2.4050
    3MOL0     H  370   8.835   0.467  -1.034  0.0444  0.8533  3.7682
    3MOL0     H  371   8.877   0.557  -1.327 -3.0085  1.3121  1.6291
    3MOL0     H  372   8.820   0.463  -1.461 -0.8836 -0.7505 -0.3528
    3MOL0     H  373   8.713   0.530  -1.208  1.6103 -0.4009  1.0798
    3MOL0     H  374   8.628   0.555  -1.357  0.3611 -0.0458 -0.4898
    3MOL0     H  375   8.676   0.256  -1.263 -2.3994 -2.0889  1.5910
    3MOL0     H  376   8.565   0.316  -1.375  3.1485 -1.9247 -0.8135
    3MOL0     H  377   8.513   0.258  -1.124  3.1076 -0.7982 -1.2880
    3MOL0     H  378   8.569   0.421  -1.087 -4.3796 -1.0915  4.4912
    3MOL0     H  379   8.396   0.516  -1.249 -4.1509 -0.6644 -3.0412
    3MOL0     H  380   8.345   0.453  -1.095  1.9041 -0.0666  1.9196
    3MOL0     H  381   8.316   0.335  -1.371  0.0500 -3.5181 -0.0015
    3MOL0     H  382   8.289   0.229  -1.231 -0.1081  0.4296 -0.8299
    3MOL0     H  383   8.100   0.400  -1.162  2.4044  0.2136  1.8340
    3MOL0     H  384   8.080   0.283  -1.287  3.5911 -2.0721  0.9874
    3MOL0     H  385   8.136   0.450  -1.472 -0.1542 -5.4657  1.4543
    3MOL0     H  386   8.198   0.566  -1.361 -0.6190  0.4762 -0.2349
    3MOL0     H  387   9.176   0.304  -1.260  0.3418  2.0392 -1.8170
    3MOL0     H  388   9.311   0.350  -1.094 -0.3405 -1.3717 -3.3247
    3MOL0     H  389   9.158   0.348  -0.450  2.1014 -3.0750  1.3670
    3MOL0     H  390   9.283   0.463  -0.261 -5.0617  4.3464 -2.3057
    3MOL0     H  391   9.009   0.841   1.134  1.4415  1.9717  2.1821
    3MOL0     H  392   9.129   1.021   1.181  1.8068 -2.0263 -0.7938
    3MOL0     H  393   9.265   1.398   1.200 -0.3028 -0.1112 -0.0746
    3MOL0     H  394   9.447   1.541   1.257 -3.4251  3.4361  0.9759
    3MOL0     H  395   9.738   1.755   1.191 -0.4191  0.7220  3.2944
    3MOL0     H  396   9.605   1.682   1.274  0.6543 -1.2850 -0.1558
    3MOL0     H  397   9.729   1.456   1.220 -1.2955  0.4210  1.0119
    3MOL0     H  398   9.817   1.568   1.317  2.8045  2.2248 -0.4813
    3MOL0     H  399   9.895   1.655   1.065  0.4263 -0.0713  1.4939
    3MOL0     H  400   9.834   1.494   1.030 -3.7974  2.0654 -0.7907
    3MOL0     H  401  10.079   1.593   1.201 -0.6235  0.8159 -0.9942
    3MOL0     H  402  10.082   1.495   1.056 -0.9391 -1.2697 -0.5797
    3MOL0     H  403  10.030   1.203   1.358 -1.5864 -0.4971 -1.1281
    3MOL0     H  404   9.498   1.633   0.838 -0.2163  0.6658  0.3013
    3MOL0     H  405   9.305   1.497   0.793 -2.7847  0.7436  0.9329
    4MOL0     O  406   3.502   8.694   3.687  0.6991 -0.2688 -0.4563
    4MOL0     C  407   3.620   8.664   3.693  1.1019 -0.5266 -0.2467
    4MOL0     O  408   3.711   8.685   3.593  0.0114 -0.6304  0.4278
    4MOL0     C  409   3.672   8.757   3.475 -0.1759  0.1603 -0.5645
    4MOL0     C  410   3.609   8.883   3.470  0.3856  0.0397  0.4841
    4MOL0     C  411   3.574   8.942   3.350  0.7555 -0.6080 -0.6749
    4MOL0     C  412   3.604   8.885   3.222  0.9181  0.1450 -0.6197
    4MOL0     O  413   3.575   8.942   3.098  0.4030  1.4996 -0.6488
    4MOL0     C  414   3.515   9.073   3.091  0.6436  0.8422 -0.1868
    4MOL0     C  415   3.495   9.106   2.950 -0.0409 -0.5503  0.8169
    4MOL0     C  416   3.461   9.262   2.927 -0.1923  0.0284  0.8954
    4MOL0     C  417   3.436   9.296   2.779  0.6262  0.2594  0.1225
    4MOL0     C  418   3.383   9.441   2.771  1.0217  0.5215 -0.4825
    4MOL0     C  419   3.240   9.455   2.831  0.0757  1.0467  0.5126
    4MOL0     C  420   3.189   9.593   2.827 -0.7603  0.2390 -0.5949
    4MOL0     C  421   3.052   9.611   2.869  0.1390 -0.1998 -0.1899
    4MOL0     N  422   2.964   9.530   2.789  0.0060 -0.5208 -0.9022
    4MOL0     C  423   2.940   9.538   2.650  0.5758 -0.0134 -0.3354
    4MOL0     C  424   2.850   9.437   2.630  0.3698 -0.5323  0.2135
    4MOL0     C  425   2.787   9.407   2.496  0.5466 -0.1194  0.0222
    4MOL0     C  426   2.628   9.369   2.497  0.4201 -0.1096 -0.2537
    4MOL0     C  427   2.545   9.452   2.596 -0.6276  1.0177  0.1787
    4MOL0     C  428   2.549   9.600   2.567 -0.7661  0.3093  0.2126
    4MOL0     O  429   2.475   9.670   2.674  0.4927  0.1165  0.5883
    4MOL0     C  430   2.547   9.732   2.764  0.4353 -0.5115 -0.0669
    4MOL0     C  431   2.623   9.663   2.861 -0.1409 -0.0943  0.6992
    4MOL0     C  432   2.673   9.731   2.972  0.7436  0.5020  0.3959
    4MOL0     C  433   2.713   9.637   3.087 -0.6401 -0.4178 -0.3090
    4MOL0     C  434   2.682   9.878   2.973 -0.0773  0.0874 -0.1687
    4MOL0     C  435   2.720   9.962   3.085 -1.6325  0.2461 -0.3721
    4MOL0     O  436   2.663  10.080   3.104 -0.1726  0.8429  0.0853
    4MOL0     C  437   2.728  10.162   3.195  0.1119  1.3118 -0.3732
    4MOL0     C  438   2.818  10.262   3.161  0.0614 -0.0596 -0.0588
    4MOL0     C  439   2.886  10.335   3.265  0.4709  0.7801  0.0643
    4MOL0     C  440   2.865  10.306   3.404 -0.5823  0.0623 -0.1861
    4MOL0     O  441   2.939  10.374   3.493 -0.0115 -0.6377 -0.2281
    4MOL0     C  442   2.894  10.412   3.627 -0.0836  0.8043  0.0335
    4MOL0     C  443   2.973  10.362   3.744  0.0752  0.2244  0.2388
    4MOL0     C  444   2.907  10.421   3.871 -1.0761 -0.4331 -0.0254
    4MOL0     C  445   2.902  10.307   3.989 -1.1148  0.3211 -0.0740
    4MOL0     C  446   2.847  10.357   4.124 -0.3569  0.6267 -0.1325
    4MOL0     C  447   2.884  10.494   4.165  1.3435 -0.4264  0.7221
    4MOL0     C  448   2.902  10.511   4.314  0.0111 -0.7508  0.0430
    4MOL0     C  449   2.773  10.515   4.401  0.0755  0.2895 -0.2645
    4MOL0    Cl  450   2.724  10.352   4.464  0.1930 -0.1720  0.3702
    4MOL0     C  451   2.767  10.205   3.438  0.5301 -0.8705  0.3342
    4MOL0     C  452   2.696  10.138   3.330  0.4007  0.0771 -0.2519
    4MOL0     O  453   2.802   9.915   3.160 -0.2552 -0.1566  0.3369
    4MOL0     C  454   2.607   9.939   2.868 -0.2578  0.0262  0.6917
    4MOL0     C  455   2.535   9.873   2.774 -0.5366  0.6021 -0.5887
    4MOL0     N  456   2.819   9.376   2.746  0.4246 -0.5503  0.7791
    4MOL0     N  457   2.898   9.426   2.837  0.9557 -0.1142 -0.2781
    4MOL0     C  458   3.673   8.763   3.225  0.4120 -0.3146 -0.3402
    4MOL0     C  459   3.710   8.702   3.351 -0.3498  0.2955 -0.3228
    4MOL0     C  460   3.664   8.597   3.819  0.7200 -0.8205 -0.7393
    4MOL0     C  461   3.570   8.521   3.905 -0.8293  0.7352  1.1667
    4MOL0     C  462   3.619   8.441   4.004  0.0460  0.1776 -0.3499
    4MOL0     C  463   3.755   8.410   4.016 -0.5335 -0.7686  1.2411
    4MOL0     O  464   3.790   8.322   4.106  0.3990 -0.3146 -0.3651
    4MOL0     C  465   3.914   8.350   4.174  0.7230  0.1640 -0.0850
    4MOL0     C  466   3.958   8.501   4.210  0.1561 -0.1379 -0.7043
    4MOL0     C  467   3.888   8.567   4.330  0.4555 -0.2122 -0.5823
    4MOL0     C  468   3.881   8.719   4.327  0.1597  1.2402 -0.0939
    4MOL0     C  469   3.791   8.766   4.439  0.0231 -0.9279  0.6508
    4MOL0     C  470   3.722   8.807   4.524  0.2228 -1.4188  0.1503
    4MOL0     C  471   3.844   8.478   3.921  0.3849 -1.0886  0.1558
    4MOL0     C  472   3.795   8.569   3.827  0.6642 -0.8519 -0.3845
    4MOL0     H  473   3.572   8.929   3.562  0.0571  0.3904  0.1845
    4MOL0     H  474   3.520   9.036   3.342  3.0592  0.6611 -2.6182
    4MOL0     H  475   3.417   9.081   3.139  0.5242  1.8841 -0.5657
    4MOL0     H  476   3.586   9.152   3.120  0.5376  1.5637 -1.7838
    4MOL0     H  477   3.592   9.076   2.909  1.4388  2.6076  1.6661
    4MOL0     H  478   3.420   9.042   2.902  1.7522 -2.0110 -0.1736
    4MOL0     H  479   3.378   9.275   2.998 -2.4281 -3.0877 -0.8500
    4MOL0     H  480   3.556   9.306   2.959  0.6376 -2.3902  1.9988
    4MOL0     H  481   3.525   9.308   2.716  0.4668 -1.1850 -0.3998
    4MOL0     H  482   3.361   9.231   2.733  0.5077 -0.0546  0.7521
    4MOL0     H  483   3.447   9.520   2.812 -0.0045  1.0809  0.0708
    4MOL0     H  484   3.379   9.462   2.664  2.4918  1.9812 -0.2992
    4MOL0     H  485   3.173   9.389   2.776  0.2228 -1.5440  3.2375
    4MOL0     H  486   3.238   9.426   2.936  0.9536 -0.2135  0.1989
    4MOL0     H  487   3.254   9.664   2.878 -0.1198  0.7509 -2.0594
    4MOL0     H  488   3.198   9.634   2.726 -0.8729  3.1098  0.4646
    4MOL0     H  489   3.025   9.716   2.858  3.2937  0.7636  0.3049
    4MOL0     H  490   3.032   9.575   2.971 -0.5249  0.2299 -0.1645
    4MOL0     H  491   2.995   9.611   2.592  2.0758  0.1394  1.1817
    4MOL0     H  492   2.805   9.484   2.420 -1.3614 -0.3899 -0.7446
    4MOL0     H  493   2.841   9.319   2.459 -1.6631 -1.7817  0.5581
    4MOL0     H  494   2.630   9.261   2.512  2.1838 -0.0468  0.1816
    4MOL0     H  495   2.576   9.373   2.401 -4.1530 -2.0395  1.8465
    4MOL0     H  496   2.579   9.438   2.699 -0.3667 -2.4374 -0.2569
    4MOL0     H  497   2.441   9.417   2.596  0.4649 -2.7744  0.9179
    4MOL0     H  498   2.505   9.623   2.470  0.1567 -1.3519 -0.6250
    4MOL0     H  499   2.654   9.630   2.560  0.1758 -2.5617  0.8510
    4MOL0     H  500   2.632   9.555   2.863 -0.5438 -0.2352 -1.6840
    4MOL0     H  501   2.718   9.534   3.053  0.6926 -0.5700  0.2779
    4MOL0     H  502   2.817   9.666   3.106 -0.7204  1.5650 -2.3526
    4MOL0     H  503   2.645   9.647   3.172 -0.3263  2.7251 -0.3088
    4MOL0     H  504   2.832  10.286   3.056 -2.0141  1.2238 -0.1066
    4MOL0     H  505   2.961  10.407   3.233  1.1287  1.2311  2.4170
    4MOL0     H  506   2.909  10.520   3.639  2.5393  0.3061  2.3993
    4MOL0     H  507   2.791  10.375   3.634  0.3228 -0.3105  0.2758
    4MOL0     H  508   2.974  10.253   3.735  1.0602  0.2001  0.6164
    4MOL0     H  509   3.073  10.405   3.739 -0.0631  0.4627 -0.8912
    4MOL0     H  510   2.804  10.454   3.856 -0.6393  1.8216  1.4430
    4MOL0     H  511   2.954  10.518   3.891 -3.0451  0.0905  2.5389
    4MOL0     H  512   2.850  10.218   3.953 -0.5718 -0.5542  1.2424
    4MOL0     H  513   3.007  10.279   3.998 -1.3478 -0.8971 -0.9233
    4MOL0     H  514   2.877  10.284   4.199 -0.1459  1.7280  0.8806
    4MOL0     H  515   2.739  10.338   4.121 -0.0839 -1.0359  0.0318
    4MOL0     H  516   2.972  10.526   4.109 -0.2222  0.1988 -1.4984
    4MOL0     H  517   2.811  10.569   4.131  0.9103 -1.4674 -0.7564
    4MOL0     H  518   2.949  10.607   4.335  0.3769 -0.0363 -3.4366
    4MOL0     H  519   2.968  10.430   4.350 -0.6783 -1.3238  0.0313
    4MOL0     H  520   2.692  10.563   4.345  1.4115  1.2216 -1.4876
    4MOL0     H  521   2.788  10.572   4.493 -0.6887 -2.6816  1.8670
    4MOL0     H  522   2.718  10.203   3.535  2.1423 -0.3856  1.1977
    4MOL0     H  523   2.628  10.057   3.353  2.1293 -1.9630 -2.0136
    4MOL0     H  524   2.593  10.046   2.879  2.8960  0.5820  0.3585
    4MOL0     H  525   2.477   9.939   2.710 -0.4434  1.8634  0.5770
    4MOL0     H  526   3.693   8.708   3.134 -1.5059 -1.6366 -0.0139
    4MOL0     H  527   3.765   8.608   3.354 -3.1950 -1.4951 -0.9792
    4MOL0     H  528   3.464   8.526   3.883 -1.0482 -0.9908  1.6860
    4MOL0     H  529   3.541   8.397   4.066  1.7614 -1.3135  0.8438
    4MOL0     H  530   3.926   8.288   4.264  0.1238 -1.0487 -0.8067
    4MOL0     H  531   3.994   8.310   4.111 -1.0730 -4.3009  0.0319
    4MOL0     H  532   3.946   8.572   4.127 -2.4302 -1.2838 -1.4012
    4MOL0     H  533   4.066   8.498   4.230 -0.2938 -2.4245  1.8550
    4MOL0     H  534   3.939   8.521   4.415 -0.5930  2.4523  1.6579
    4MOL0     H  535   3.783   8.538   4.341  0.2237  0.7263 -0.1841
    4MOL0     H  536   3.847   8.744   4.226 -0.6916  1.5534  0.2626
    4MOL0     H  537   3.983   8.760   4.330  1.0335 -0.8067 -0.4598
    4MOL0     H  538   3.661   8.855   4.598  4.9794 -0.3187  3.8817
    4MOL0     H  539   3.951   8.458   3.924  0.0941 -3.1015 -1.3744
    4MOL0     H  540   3.867   8.609   3.756 -0.4267 -0.7997 -1.4913
    5MOL0     O  541   1.659   8.347   3.420  0.3268 -0.5917 -0.2826
    5MOL0     C  542   1.604   8.430   3.349  0.3781  0.1100  0.9768
    5MOL0     O  543   1.592   8.567   3.380  0.3287  0.1381 -0.0683
    5MOL0     C  544   1.668   8.598   3.488 -0.3315  0.4101  0.3949
    5MOL0     C  545   1.601   8.680   3.583  0.6369  0.5019  0.3172
    5MOL0     C  546   1.668   8.727   3.698 -0.0920 -0.5436  1.0534
    5MOL0     C  547   1.805   8.690   3.720  0.4452  0.2178  0.0220
    5MOL0     O  548   1.863   8.735   3.842  0.2297  0.3025 -0.2412
    5MOL0     C  549   1.990   8.684   3.895  1.0376 -0.5848  0.1585
    5MOL0     C  550   2.082   8.792   3.945 -0.8513  0.2314 -0.8195
    5MOL0     C  551   2.199   8.759   4.029 -0.5849  0.4665 -1.3178
    5MOL0     C  552   2.290   8.644   3.968  0.1440 -0.1811  0.1615
    5MOL0     C  553   2.372   8.575   4.070  0.6650  0.3498 -0.4837
    5MOL0     C  554   2.485   8.493   4.022 -2.1168  0.2344 -0.1349
    5MOL0     C  555   2.545   8.419   4.139 -0.9463 -0.3668 -0.0006
    5MOL0     C  556   2.463   8.292   4.186  0.6571 -0.4523 -1.0022
    5MOL0     N  557   2.512   8.227   4.314  1.2419  0.0509  0.3753
    5MOL0     C  558   2.518   8.291   4.438  0.5391 -0.1490 -0.4112
    5MOL0     C  559   2.574   8.201   4.525 -0.2910  1.0627  1.2677
    5MOL0     C  560   2.626   8.203   4.667 -0.5981  0.5332 -0.0323
    5MOL0     C  561   2.784   8.208   4.677 -0.4469  0.6051 -0.2726
    5MOL0     C  562   2.846   8.335   4.615 -0.4978  0.5560  0.0439
    5MOL0     C  563   2.801   8.468   4.676 -0.0181 -0.5410 -0.1262
    5MOL0     O  564   2.850   8.491   4.813 -0.3158 -0.0563 -0.2355
    5MOL0     C  565   2.951   8.585   4.830  0.0513  0.1647  0.4471
    5MOL0     C  566   3.030   8.632   4.725 -0.1106  0.5273  0.1083
    5MOL0     C  567   3.133   8.733   4.749  0.5674 -0.4052  0.6638
    5MOL0     C  568   3.213   8.773   4.630 -0.3735  0.9125 -0.2847
    5MOL0     C  569   3.154   8.776   4.888 -0.4317  0.6920  0.6864
    5MOL0     C  570   3.258   8.872   4.930 -1.7391 -0.5686 -0.3141
    5MOL0     O  571   3.372   8.884   4.846 -0.4092  0.4135 -0.3350
    5MOL0     C  572   3.454   8.998   4.872 -0.4147  0.3710  1.0188
    5MOL0     C  573   3.566   8.984   4.959  1.1279  0.2249  0.5604
    5MOL0     C  574   3.647   9.080   4.995 -0.5826 -0.6825 -0.0030
    5MOL0     C  575   3.628   9.217   4.959 -0.2418  0.5956  0.0200
    5MOL0     O  576   3.720   9.305   5.006  0.1529  0.4030  0.4478
    5MOL0     C  577   3.700   9.445   4.979  0.5763  0.5091  0.6646
    5MOL0     C  578   3.756   9.529   5.085 -0.5266  0.4978  0.3010
    5MOL0     C  579   3.776   9.675   5.038  0.1827  0.9631 -0.1518
    5MOL0     C  580   3.758   9.785   5.142 -0.1053 -0.2045 -0.2161
    5MOL0     C  581   3.814   9.915   5.118 -0.2413 -0.9972 -0.0651
    5MOL0     C  582   3.789   9.973   4.976  0.8610 -0.1044  0.1626
    5MOL0     C  583   3.881  10.096   4.953 -0.4190  0.5003 -0.4975
    5MOL0     C  584   3.836  10.209   4.862 -0.0270  0.2066 -1.3659
    5MOL0    Cl  585   3.799  10.136   4.709 -0.4046  0.1766  0.1223
    5MOL0     C  586   3.521   9.240   4.865 -0.7695 -0.5159 -0.8300
    5MOL0     C  587   3.438   9.135   4.827 -0.9288 -1.4138  0.3546
    5MOL0     O  588   3.245   8.925   5.038  1.3869 -0.3155  0.2241
    5MOL0     C  589   3.071   8.720   4.991 -1.0882  0.1848  0.3286
    5MOL0     C  590   2.968   8.630   4.959 -0.2493  0.8272 -0.9499
    5MOL0     N  591   2.589   8.090   4.445 -0.1363 -0.1416 -0.2122
    5MOL0     N  592   2.559   8.105   4.322  0.8755  0.6875 -0.0529
    5MOL0     C  593   1.874   8.616   3.615 -0.0352  0.8650 -0.7033
    5MOL0     C  594   1.804   8.574   3.507 -0.0343 -0.3120  0.7572
    5MOL0     C  595   1.535   8.390   3.226 -1.1298 -0.9156 -1.2124
    5MOL0     C  596   1.549   8.261   3.183 -0.7251  1.1747  0.3845
    5MOL0     C  597   1.478   8.229   3.069  0.2162 -0.0474 -0.2331
    5MOL0     C  598   1.391   8.313   3.001 -0.6753  1.2338 -0.0702
    5MOL0     O  599   1.314   8.254   2.895 -0.4443  0.4494  0.0075
    5MOL0     C  600   1.215   8.332   2.836 -0.0657  0.0776 -0.0803
    5MOL0     C  601   1.160   8.249   2.714 -0.8322 -0.2135 -0.0774
    5MOL0     C  602   1.088   8.123   2.762  0.1621  0.3396  1.2773
    5MOL0     C  603   1.017   8.067   2.636 -1.2238  0.0056  0.0502
    5MOL0     C  604   0.947   7.937   2.648  1.2379 -0.5249 -0.7872
    5MOL0     C  605   0.879   7.840   2.679  0.2809  0.1306 -0.1895
    5MOL0     C  606   1.365   8.442   3.058 -0.9230  0.8498  0.7330
    5MOL0     C  607   1.439   8.483   3.170 -1.1037  0.9800 -1.4180
    5MOL0     H  608   1.497   8.705   3.566 -0.4134 -2.4175  1.7706
    5MOL0     H  609   1.610   8.781   3.771 -0.1893 -1.3731  1.6034
    5MOL0     H  610   1.972   8.613   3.976  0.1265  1.4522  1.8258
    5MOL0     H  611   2.033   8.633   3.808 -2.1753 -0.4948 -1.6507
    5MOL0     H  612   2.118   8.856   3.863  0.8071  0.4308  0.0347
    5MOL0     H  613   2.030   8.857   4.016 -1.1678  1.7890 -2.3918
    5MOL0     H  614   2.263   8.841   4.065  0.8071  0.1518 -2.9320
    5MOL0     H  615   2.161   8.719   4.123 -0.0070 -0.6222 -1.5322
    5MOL0     H  616   2.238   8.576   3.901  1.1778  0.7348 -1.6566
    5MOL0     H  617   2.359   8.691   3.897  1.2638 -0.5768  0.9462
    5MOL0     H  618   2.415   8.657   4.128  1.8811  0.7877 -1.9622
    5MOL0     H  619   2.301   8.507   4.119 -0.6876 -1.2332 -4.2754
    5MOL0     H  620   2.446   8.422   3.950 -0.3352 -1.6768  0.6732
    5MOL0     H  621   2.551   8.558   3.963 -2.6900  0.7861 -0.1790
    5MOL0     H  622   2.642   8.386   4.099 -0.9896 -0.0327 -0.3865
    5MOL0     H  623   2.566   8.486   4.222  2.2787  2.3762 -2.6743
    5MOL0     H  624   2.471   8.215   4.109  1.7773 -1.7273  0.3357
    5MOL0     H  625   2.359   8.322   4.202  0.4147 -1.0895 -1.3873
    5MOL0     H  626   2.498   8.396   4.456 -0.4556  0.2217 -3.2194
    5MOL0     H  627   2.575   8.280   4.725  0.9270  0.7290  1.0916
    5MOL0     H  628   2.591   8.111   4.714 -3.9294  0.2003 -2.7338
    5MOL0     H  629   2.827   8.120   4.628  0.6230 -1.0770  3.3429
    5MOL0     H  630   2.827   8.199   4.777  3.3834  2.0609 -1.6172
    5MOL0     H  631   2.820   8.323   4.510  0.0742 -0.9533  0.0485
    5MOL0     H  632   2.955   8.328   4.604 -0.7522  0.1553 -3.0166
    5MOL0     H  633   2.693   8.486   4.678  0.0569 -0.0879 -0.1172
    5MOL0     H  634   2.825   8.554   4.613  0.6919  1.9048  3.2251
    5MOL0     H  635   3.019   8.598   4.622  2.7951  0.4784 -0.2530
    5MOL0     H  636   3.317   8.744   4.648 -1.3003 -1.5500  1.7008
    5MOL0     H  637   3.171   8.726   4.540 -3.5330 -1.2418  2.0798
    5MOL0     H  638   3.225   8.880   4.617  1.7535  0.8574  0.8018
    5MOL0     H  639   3.583   8.885   4.999  1.3390  1.2165  3.0991
    5MOL0     H  640   3.732   9.061   5.059 -0.0843  2.0671  0.3133
    5MOL0     H  641   3.753   9.464   4.885  0.9175  0.8628  0.9250
    5MOL0     H  642   3.595   9.474   4.971  0.2921 -0.5145  0.5419
    5MOL0     H  643   3.676   9.545   5.159 -0.1682  2.7913  0.2580
    5MOL0     H  644   3.841   9.486   5.139 -0.3930  2.1575  1.4964
    5MOL0     H  645   3.704   9.695   4.957  1.5345  1.0371 -1.3875
    5MOL0     H  646   3.875   9.679   4.992  0.9700 -1.4911  1.1622
    5MOL0     H  647   3.650   9.805   5.146 -0.1315  2.0579 -5.0441
    5MOL0     H  648   3.804   9.756   5.237 -1.6112  2.8923  1.6651
    5MOL0     H  649   3.921   9.908   5.142 -0.2740 -2.6601 -0.3045
    5MOL0     H  650   3.770   9.985   5.190 -1.2340 -2.0434  0.3854
    5MOL0     H  651   3.815   9.898   4.901 -2.2305  2.8412 -4.3511
    5MOL0     H  652   3.686  10.004   4.957  0.6714 -0.1794  1.0091
    5MOL0     H  653   3.976  10.065   4.907 -0.4195 -2.3313  1.1810
    5MOL0     H  654   3.907  10.141   5.049  0.9981 -2.9195  0.8925
    5MOL0     H  655   3.908  10.292   4.857  2.0875 -1.4852 -0.3659
    5MOL0     H  656   3.742  10.257   4.893  0.6825 -0.6708  2.7944
    5MOL0     H  657   3.509   9.337   4.818  2.7421  0.4338 -0.0666
    5MOL0     H  658   3.353   9.151   4.761 -1.1401 -0.1490  0.9063
    5MOL0     H  659   3.082   8.744   5.097 -0.0624 -1.7700  0.7222
    5MOL0     H  660   2.898   8.589   5.031  0.0361  2.5330  0.3680
    5MOL0     H  661   1.979   8.593   3.633 -0.7917 -2.6398  0.0439
    5MOL0     H  662   1.859   8.519   3.432 -1.6395 -2.3293  0.9552
    5MOL0     H  663   1.624   8.191   3.219 -0.6866  1.2666  0.4828
    5MOL0     H  664   1.518   8.137   3.025  1.3892  0.8074 -1.0173
    5MOL0     H  665   1.130   8.351   2.903 -0.1117 -0.8090  0.1219
    5MOL0     H  666   1.243   8.432   2.803  2.3859  0.0023  1.4880
    5MOL0     H  667   1.252   8.232   2.657  2.0141  4.0330  2.6477
    5MOL0     H  668   1.100   8.320   2.656  0.4239 -0.1782 -1.3827
    5MOL0     H  669   1.021   8.146   2.846  0.3259 -0.5551  1.6635
    5MOL0     H  670   1.165   8.053   2.794 -1.5055 -1.8728  0.7032
    5MOL0     H  671   1.097   8.041   2.566 -0.3203 -2.1684  1.7764
    5MOL0     H  672   0.964   8.148   2.585  2.2708  2.0351 -0.7135
    5MOL0     H  673   0.822   7.761   2.724  0.9218 -0.4056 -0.2860
    5MOL0     H  674   1.282   8.497   3.014  0.3178  4.7040  2.7733
    5MOL0     H  675   1.423   8.576   3.222  1.0428  1.3487 -1.3373
    6MOL0     O  676   3.398   7.380   5.761  0.0930 -0.3385  0.3590
    6MOL0     C  677   3.457   7.485   5.751 -1.8040  0.6652 -0.3381
    6MOL0     O  678   3.395   7.614   5.743 -0.1650  0.5382 -0.4184
    6MOL0     C  679   3.264   7.612   5.764 -0.8153 -0.8169  0.0651
    6MOL0     C  680   3.194   7.544   5.866 -0.1630 -0.4835  0.0998
    6MOL0     C  681   3.053   7.547   5.881 -0.8401  0.5785 -0.4136
    6MOL0     C  682   2.982   7.633   5.803 -0.3255  0.1195 -0.4566
    6MOL0     O  683   2.845   7.631   5.799  0.8934 -0.0147  0.5697
    6MOL0     C  684   2.765   7.542   5.881  0.1144  0.2952 -0.1476
    6MOL0     C  685   2.760   7.575   6.028  0.3849  0.3478 -0.6485
    6MOL0     C  686   2.693   7.704   6.064  0.6907 -0.6656 -0.2024
    6MOL0     C  687   2.678   7.711   6.219  0.5482 -0.1223 -0.1642
    6MOL0     C  688   2.653   7.856   6.268  0.2256 -0.4029 -0.4565
    6MOL0     C  689   2.616   7.857   6.419  0.5243 -0.4384 -0.6896
    6MOL0     C  690   2.544   7.990   6.457 -1.2401 -0.0770 -0.0242
    6MOL0     C  691   2.516   8.017   6.601 -0.2130  0.0624 -0.1512
    6MOL0     N  692   2.634   8.046   6.688  0.7532 -0.2016 -0.0739
    6MOL0     C  693   2.696   8.173   6.720 -0.4251 -0.5555  0.8737
    6MOL0     C  694   2.807   8.135   6.800  0.1739 -1.1447  0.1935
    6MOL0     C  695   2.901   8.225   6.875 -0.1394  1.1045 -0.5610
    6MOL0     C  696   3.049   8.183   6.852  0.2724 -1.1360 -0.0152
    6MOL0     C  697   3.099   8.206   6.705 -1.0113 -0.0371 -0.4301
    6MOL0     C  698   3.244   8.140   6.697 -0.2154 -1.0843  0.3797
    6MOL0     O  699   3.328   8.212   6.788  0.3987 -0.1178 -0.2158
    6MOL0     C  700   3.468   8.205   6.762  0.1644 -0.5452 -1.5581
    6MOL0     C  701   3.533   8.113   6.671  0.1777 -0.2565 -0.9626
    6MOL0     C  702   3.672   8.111   6.669 -0.4415 -0.3182  0.2392
    6MOL0     C  703   3.735   8.018   6.570  1.1827  1.0237 -0.5893
    6MOL0     C  704   3.745   8.201   6.752 -1.1415 -0.1790 -0.2255
    6MOL0     C  705   3.900   8.188   6.760 -0.5332  0.1027 -0.4413
    6MOL0     O  706   3.959   8.294   6.830 -0.9580  0.3019 -0.1783
    6MOL0     C  707   4.096   8.319   6.807 -0.0747 -2.1053  0.2757
    6MOL0     C  708   4.168   8.317   6.687 -0.3300 -0.5536 -0.8235
    6MOL0     C  709   4.300   8.356   6.693  0.6259  0.0004  0.5612
    6MOL0     C  710   4.362   8.373   6.818  0.6385  0.7202  0.0847
    6MOL0     O  711   4.490   8.412   6.811 -0.4846  0.6881 -0.2135
    6MOL0     C  712   4.578   8.375   6.912  0.2152 -0.6184 -0.8116
    6MOL0     C  713   4.726   8.354   6.862  0.7577  0.1833 -0.9141
    6MOL0     C  714   4.746   8.212   6.803 -0.5657 -0.8039  0.9959
    6MOL0     C  715   4.889   8.199   6.742 -0.3314  0.2801 -0.4274
    6MOL0     C  716   4.913   8.071   6.667  0.4540  0.4899 -0.1969
    6MOL0     C  717   5.067   8.051   6.627 -0.0268 -0.9807 -0.0876
    6MOL0     C  718   5.080   7.951   6.515 -0.2853  0.3401  0.5935
    6MOL0     C  719   5.225   7.900   6.505  0.1622 -0.7003  0.0883
    6MOL0    Cl  720   5.272   7.777   6.627  0.1591 -0.5145  0.0734
    6MOL0     C  721   4.293   8.361   6.943  0.6624 -0.2814  0.0748
    6MOL0     C  722   4.156   8.344   6.936  0.0262  0.0231  0.7442
    6MOL0     O  723   3.962   8.098   6.701  0.1169 -0.3178 -0.5204
    6MOL0     C  724   3.680   8.296   6.835 -1.3281 -0.3460  1.0833
    6MOL0     C  725   3.540   8.300   6.840 -1.1967  0.3158 -0.5031
    6MOL0     N  726   2.808   7.998   6.810 -0.4095 -0.5313  0.4611
    6MOL0     N  727   2.704   7.946   6.748 -0.0206 -0.0364 -0.4067
    6MOL0     C  728   3.050   7.718   5.718  0.1577 -0.4056  0.6280
    6MOL0     C  729   3.190   7.711   5.700  0.6949  0.1138  0.2065
    6MOL0     C  730   3.604   7.469   5.723 -0.0130 -0.2314 -0.4155
    6MOL0     C  731   3.691   7.572   5.728  0.2393 -0.4618 -0.0854
    6MOL0     C  732   3.828   7.560   5.697  0.1287 -0.6160  0.6128
    6MOL0     C  733   3.879   7.434   5.669 -1.4674 -0.4479  1.2491
    6MOL0     O  734   4.021   7.426   5.636 -0.6348 -0.6732 -0.0600
    6MOL0     C  735   4.054   7.359   5.508  0.3344  0.2558 -0.7314
    6MOL0     C  736   3.999   7.443   5.390 -0.0648 -0.6816 -0.5091
    6MOL0     C  737   4.021   7.598   5.399  0.1883 -0.0180 -0.9540
    6MOL0     C  738   4.031   7.671   5.268 -0.2148 -0.7544 -0.2359
    6MOL0     C  739   3.911   7.656   5.184 -0.1004  0.2602  0.0422
    6MOL0     C  740   3.798   7.633   5.138 -0.9456 -0.1664 -0.3616
    6MOL0     C  741   3.796   7.326   5.673 -0.8865 -0.5116 -0.5051
    6MOL0     C  742   3.663   7.341   5.709 -1.0210 -0.2731 -0.4331
    6MOL0     H  743   3.253   7.480   5.930  0.9249 -1.1701 -1.5215
    6MOL0     H  744   3.017   7.466   5.944  3.3733 -1.0159  0.2540
    6MOL0     H  745   2.660   7.546   5.853  0.3179  0.5595 -0.9001
    6MOL0     H  746   2.771   7.436   5.855 -1.2112 -0.3821  2.0485
    6MOL0     H  747   2.711   7.494   6.083 -1.0543  1.1045 -0.7760
    6MOL0     H  748   2.863   7.580   6.065 -0.1328  1.1358  0.7371
    6MOL0     H  749   2.749   7.787   6.021  0.0975 -0.6801 -1.0161
    6MOL0     H  750   2.598   7.708   6.009  1.0997 -3.1210 -1.1915
    6MOL0     H  751   2.590   7.652   6.247  0.7445 -0.5204 -0.3751
    6MOL0     H  752   2.763   7.675   6.278  1.3312  1.0265 -0.5629
    6MOL0     H  753   2.734   7.925   6.240  0.9630  0.3399  2.9453
    6MOL0     H  754   2.575   7.893   6.201 -0.2064 -2.7242 -1.3379
    6MOL0     H  755   2.543   7.778   6.438 -2.0033  2.0051  0.4256
    6MOL0     H  756   2.699   7.841   6.489 -0.7295 -0.4165  0.8495
    6MOL0     H  757   2.610   8.072   6.426 -0.9773 -0.3643 -0.2274
    6MOL0     H  758   2.446   7.981   6.409 -0.4068 -3.3136 -1.3586
    6MOL0     H  759   2.461   7.930   6.638  1.8403 -1.8775 -1.3937
    6MOL0     H  760   2.449   8.103   6.594 -1.7222 -0.9671  0.9670
    6MOL0     H  761   2.657   8.273   6.707 -1.6689 -1.4117 -3.5773
    6MOL0     H  762   2.880   8.322   6.828  0.2916  0.9052 -1.1862
    6MOL0     H  763   2.890   8.220   6.983  1.9776  0.7365 -0.3198
    6MOL0     H  764   3.066   8.081   6.886 -0.7656 -0.9149  1.2578
    6MOL0     H  765   3.116   8.251   6.904  1.7137 -1.2051 -1.6969
    6MOL0     H  766   3.100   8.312   6.678  2.7190  0.1693  0.0194
    6MOL0     H  767   3.037   8.158   6.629 -0.6983 -1.4564  0.1724
    6MOL0     H  768   3.285   8.141   6.595  1.6982 -1.0951  1.0982
    6MOL0     H  769   3.247   8.034   6.723 -1.1119 -1.2819 -0.3035
    6MOL0     H  770   3.469   8.051   6.609  0.4440  1.2145 -2.7670
    6MOL0     H  771   3.660   7.987   6.497  1.9231  0.4917 -1.1512
    6MOL0     H  772   3.818   8.069   6.520  2.1261  1.1754  1.0607
    6MOL0     H  773   3.770   7.930   6.626 -0.1458  1.8061  1.5833
    6MOL0     H  774   4.107   8.296   6.600 -0.7430  1.4814 -1.0911
    6MOL0     H  775   4.346   8.358   6.595 -2.0618  1.5205 -0.7805
    6MOL0     H  776   4.575   8.451   6.991  0.5743  0.6868 -2.0137
    6MOL0     H  777   4.541   8.277   6.943  2.0567 -1.7693 -2.0343
    6MOL0     H  778   4.745   8.426   6.782 -1.1462  2.1341  0.2839
    6MOL0     H  779   4.798   8.376   6.942  0.7697 -2.5082 -0.0663
    6MOL0     H  780   4.667   8.209   6.727 -1.7323  2.5396  1.8886
    6MOL0     H  781   4.729   8.123   6.863  0.5839 -1.6225  0.1434
    6MOL0     H  782   4.916   8.278   6.671  1.3584  1.5376  1.4672
    6MOL0     H  783   4.956   8.205   6.829 -1.5996  3.4270  0.4641
    6MOL0     H  784   4.847   8.084   6.580 -1.8429  0.8426  1.5044
    6MOL0     H  785   4.879   7.988   6.729  3.0424  0.9529  2.0101
    6MOL0     H  786   5.103   8.147   6.590  2.7381 -2.8180 -2.6762
    6MOL0     H  787   5.124   8.009   6.710 -1.5980 -1.1012  0.9695
    6MOL0     H  788   5.050   7.993   6.418  2.3151 -0.9381 -0.8560
    6MOL0     H  789   5.011   7.866   6.525  0.8651 -0.4815  1.8532
    6MOL0     H  790   5.289   7.988   6.511  1.8478 -1.9055  0.7288
    6MOL0     H  791   5.242   7.850   6.408  0.7475 -0.1362 -0.1054
    6MOL0     H  792   4.344   8.378   7.037 -0.8093 -0.4825  0.9290
    6MOL0     H  793   4.087   8.330   7.019 -1.7241  2.1006 -0.2712
    6MOL0     H  794   3.730   8.368   6.898 -0.7382  0.3756 -0.1746
    6MOL0     H  795   3.489   8.345   6.925 -1.1396  0.1710 -0.3911
    6MOL0     H  796   2.980   7.779   5.661  1.4064 -0.4365 -1.0133
    6MOL0     H  797   3.248   7.785   5.646  2.2746 -1.4312 -0.3114
    6MOL0     H  798   3.651   7.671   5.751 -1.6005 -1.7648  3.0118
    6MOL0     H  799   3.891   7.648   5.699  2.4004 -2.1531  0.5693
    6MOL0     H  800   4.163   7.360   5.500  0.3728 -0.4073 -0.3440
    6MOL0     H  801   4.012   7.259   5.510 -3.4984  1.6976  1.2405
    6MOL0     H  802   3.893   7.424   5.374 -0.5973 -1.4724  3.0667
    6MOL0     H  803   4.058   7.418   5.302 -3.8668 -0.2213 -3.4138
    6MOL0     H  804   4.118   7.599   5.450  0.2168  0.1998 -1.0109
    6MOL0     H  805   3.945   7.643   5.464  2.2928 -0.2320  1.8607
    6MOL0     H  806   4.108   7.625   5.205 -2.1904 -2.4791 -1.5268
    6MOL0     H  807   4.056   7.776   5.287 -0.6661 -0.8527  0.9861
    6MOL0     H  808   3.708   7.618   5.081 -1.6963  1.1745  0.4322
    6MOL0     H  809   3.849   7.232   5.655  1.4786  0.6067  0.1842
    6MOL0     H  810   3.599   7.255   5.728 -0.1155 -0.7677  0.5199
    7MOL0     O  811   2.994  11.294   1.862 -0.1521 -0.6800  0.5572
    7MOL0     C  812   3.114  11.294   1.825 -0.4610  0.2154 -0.1091
    7MOL0     O  813   3.188  11.386   1.744  0.1795 -0.0601  0.6936
    7MOL0     C  814   3.148  11.512   1.712 -0.2793 -0.4365  0.6839
    7MOL0     C  815   3.176  11.552   1.584  0.6155  0.7584 -0.1029
    7MOL0     C  816   3.128  11.673   1.541  0.0275 -0.4121 -0.0064
    7MOL0     C  817   3.046  11.750   1.620  0.0758 -0.4146 -0.2756
    7MOL0     O  818   2.986  11.860   1.563  0.1083  0.3139  0.3927
    7MOL0     C  819   2.871  11.836   1.487  0.0347  0.5333  0.1467
    7MOL0     C  820   2.856  11.938   1.381 -0.6592  1.0165  0.1794
    7MOL0     C  821   2.990  11.971   1.312 -0.4556 -0.3872 -0.3214
    7MOL0     C  822   2.968  12.082   1.204  0.5321 -0.1672  0.2953
    7MOL0     C  823   3.105  12.143   1.173  0.5415 -0.0674  0.3552
    7MOL0     C  824   3.121  12.204   1.040  0.5415  0.7216  0.1078
    7MOL0     C  825   3.253  12.281   1.035  0.8933 -0.1450 -0.3243
    7MOL0     C  826   3.241  12.423   1.086 -0.2531  0.0905  0.1668
    7MOL0     N  827   3.157  12.516   1.007  0.2343  0.2977 -0.1897
    7MOL0     C  828   3.072  12.624   1.052 -0.1292  0.6174  0.5245
    7MOL0     C  829   3.017  12.683   0.947 -1.4141 -0.1669  0.1486
    7MOL0     C  830   2.923  12.796   0.954  0.2170 -0.0760  0.5589
    7MOL0     C  831   2.844  12.820   0.820  0.1399 -0.3080 -0.6986
    7MOL0     C  832   2.772  12.955   0.811 -0.2852  0.1046  0.2611
    7MOL0     C  833   2.669  12.963   0.702  0.2070  0.0991  0.1806
    7MOL0     O  834   2.596  13.079   0.709 -0.4698  0.0806  0.1957
    7MOL0     C  835   2.481  13.076   0.642 -0.4202 -0.6836 -0.4581
    7MOL0     C  836   2.459  13.000   0.530 -0.0485  0.6823 -0.8795
    7MOL0     C  837   2.335  13.016   0.470 -0.6239 -0.4948  0.0387
    7MOL0     C  838   2.322  12.947   0.336  0.3644 -0.2018  0.8524
    7MOL0     C  839   2.233  13.095   0.533  1.3654 -0.4533 -0.1467
    7MOL0     C  840   2.097  13.123   0.469 -0.6103  0.2790 -0.1425
    7MOL0     O  841   2.037  13.238   0.528  0.2583  0.1941  0.4635
    7MOL0     C  842   1.920  13.272   0.466 -0.0772 -0.2571 -0.5899
    7MOL0     C  843   1.908  13.358   0.364  0.0432 -0.2304  0.8779
    7MOL0     C  844   1.787  13.392   0.304  0.0350 -0.2149 -0.6228
    7MOL0     C  845   1.670  13.356   0.373 -0.0599 -0.4587 -0.0929
    7MOL0     O  846   1.544  13.384   0.325  0.2900  0.3274 -1.0676
    7MOL0     C  847   1.491  13.287   0.241  0.3256 -0.0932 -0.6019
    7MOL0     C  848   1.341  13.304   0.225  0.5543  0.3553 -0.6524
    7MOL0     C  849   1.259  13.301   0.362  0.0903 -0.0573 -0.1932
    7MOL0     C  850   1.260  13.158   0.415 -1.3507  0.3287  0.7537
    7MOL0     C  851   1.168  13.157   0.532 -0.3762  0.3702 -0.0968
    7MOL0     C  852   1.149  13.023   0.599  0.0977 -0.6481  0.1365
    7MOL0     C  853   1.066  13.026   0.731 -0.3697  0.1913  0.0434
    7MOL0     C  854   1.111  13.100   0.853 -0.5612 -0.1982  0.9698
    7MOL0    Cl  855   1.015  13.056   1.007 -0.2846 -0.2371  0.4781
    7MOL0     C  856   1.674  13.263   0.478 -1.2714  0.0645  0.5568
    7MOL0     C  857   1.806  13.217   0.527 -0.2525 -0.4278  0.5251
    7MOL0     O  858   2.059  13.055   0.375 -0.1267  0.1642  0.0360
    7MOL0     C  859   2.264  13.161   0.646 -0.9132 -0.0076 -0.3904
    7MOL0     C  860   2.397  13.163   0.698  0.1874 -0.2113 -0.7484
    7MOL0     N  861   3.050  12.600   0.835 -0.4499  0.4999  0.3732
    7MOL0     N  862   3.135  12.505   0.867  0.1963  0.4002 -0.6974
    7MOL0     C  863   3.036  11.717   1.750 -0.4696 -0.1624 -0.8586
    7MOL0     C  864   3.078  11.597   1.797  0.0744 -0.0306  0.0931
    7MOL0     C  865   3.185  11.172   1.860 -0.4955 -0.7893  0.4831
    7MOL0     C  866   3.119  11.051   1.874 -0.6397 -0.1005  0.0238
    7MOL0     C  867   3.183  10.927   1.915  0.0661  0.0503  0.2174
    7MOL0     C  868   3.317  10.921   1.917  0.7030  0.1382  0.7348
    7MOL0     O  869   3.393  10.816   1.955 -0.3878 -0.2537  0.4318
    7MOL0     C  870   3.333  10.689   1.966  0.4101  0.1383 -0.3376
    7MOL0     C  871   3.410  10.585   2.033 -0.6614 -0.2604 -0.3522
    7MOL0     C  872   3.537  10.536   1.962  0.2678 -0.0786 -0.5616
    7MOL0     C  873   3.651  10.539   2.058 -0.2789  0.6914 -0.1622
    7MOL0     C  874   3.649  10.427   2.154  0.2993 -0.6279  0.5811
    7MOL0     C  875   3.656  10.343   2.240  0.1515  0.7888  0.6611
    7MOL0     C  876   3.384  11.039   1.892 -0.9542 -1.0814 -0.0225
    7MOL0     C  877   3.326  11.166   1.867 -0.1496 -0.5620  0.2067
    7MOL0     H  878   3.237  11.486   1.524  1.0031  1.9877 -1.0971
    7MOL0     H  879   3.144  11.704   1.438 -1.6828  0.0641 -0.1515
    7MOL0     H  880   2.874  11.738   1.437 -1.9444  0.6449 -0.2880
    7MOL0     H  881   2.783  11.847   1.552  0.9837  1.8795  1.2590
    7MOL0     H  882   2.781  11.894   1.314 -1.0840 -0.8787  1.8141
    7MOL0     H  883   2.801  12.018   1.432 -2.0072  1.8092 -2.3227
    7MOL0     H  884   3.060  12.022   1.379  0.4722  0.2385 -1.7059
    7MOL0     H  885   3.035  11.880   1.271  1.8348  0.6792 -0.3156
    7MOL0     H  886   2.933  12.028   1.116  0.4275 -0.6987  0.6595
    7MOL0     H  887   2.893  12.157   1.233 -0.1705 -1.0473  0.8094
    7MOL0     H  888   3.127  12.214   1.253 -2.0877 -0.0975  1.1688
    7MOL0     H  889   3.169  12.054   1.164 -0.3097 -0.6005 -0.6358
    7MOL0     H  890   3.123  12.132   0.958  2.5734 -2.6289  2.8305
    7MOL0     H  891   3.040  12.275   1.023  1.5285  2.7969  3.1582
    7MOL0     H  892   3.335  12.229   1.085  2.4120  1.6375 -0.8355
    7MOL0     H  893   3.290  12.293   0.932  0.3740  0.6569 -0.4254
    7MOL0     H  894   3.339  12.466   1.109  0.3231  0.2410 -2.2631
    7MOL0     H  895   3.187  12.427   1.181  1.3409 -0.5229  1.1296
    7MOL0     H  896   3.060  12.653   1.155 -1.1806 -2.4173  1.3733
    7MOL0     H  897   2.847  12.777   1.030  0.4415 -2.9090  0.1802
    7MOL0     H  898   2.978  12.889   0.971  0.0666  0.6373 -2.2819
    7MOL0     H  899   2.768  12.744   0.803  0.0383  0.0518 -1.9853
    7MOL0     H  900   2.913  12.801   0.737 -0.5477 -2.1707 -0.8767
    7MOL0     H  901   2.850  13.031   0.802  2.1540 -2.1398  0.9836
    7MOL0     H  902   2.722  12.970   0.907  1.4742 -0.3372  1.2859
    7MOL0     H  903   2.615  12.871   0.726  1.3282 -0.0436  2.3716
    7MOL0     H  904   2.728  12.961   0.609  0.3770  3.1160  0.1541
    7MOL0     H  905   2.528  12.929   0.487  0.0353  0.1590  0.1055
    7MOL0     H  906   2.317  13.028   0.263 -0.3329 -1.5536 -0.6522
    7MOL0     H  907   2.405  12.877   0.323  2.0069  1.8239 -0.0891
    7MOL0     H  908   2.225  12.896   0.333  0.3561 -0.2182 -2.8367
    7MOL0     H  909   2.004  13.382   0.320  0.9408  1.6383  3.5331
    7MOL0     H  910   1.802  13.451   0.214  0.9738 -0.8823 -0.9201
    7MOL0     H  911   1.532  13.288   0.139  2.2528 -0.1889  0.1214
    7MOL0     H  912   1.509  13.195   0.298  1.7311  1.5633  1.8144
    7MOL0     H  913   1.325  13.399   0.174  0.1816 -0.1545 -1.5178
    7MOL0     H  914   1.300  13.227   0.158  0.5678  0.7423 -1.1155
    7MOL0     H  915   1.160  13.331   0.325  1.8933  0.5105 -5.4697
    7MOL0     H  916   1.307  13.369   0.434 -0.2017 -1.1469  1.0609
    7MOL0     H  917   1.219  13.094   0.336 -0.6644  1.0265 -0.1801
    7MOL0     H  918   1.355  13.127   0.461 -1.0596 -2.5820 -1.4864
    7MOL0     H  919   1.070  13.189   0.496  0.0856  3.8448  1.3255
    7MOL0     H  920   1.192  13.242   0.596 -2.0014  0.3135  0.6356
    7MOL0     H  921   1.107  12.949   0.531  3.0128 -0.3428 -2.1835
    7MOL0     H  922   1.247  12.986   0.629  1.1606  1.1104 -0.9581
    7MOL0     H  923   1.039  12.927   0.769 -1.9467  0.0217 -1.3730
    7MOL0     H  924   0.966  13.069   0.717 -0.8804 -0.9310  0.1827
    7MOL0     H  925   1.116  13.208   0.838  0.5469  0.2546  4.0607
    7MOL0     H  926   1.215  13.070   0.866 -0.3461  0.3550  0.5712
    7MOL0     H  927   1.578  13.239   0.522 -1.7296  1.5644  0.4413
    7MOL0     H  928   1.807  13.161   0.620 -2.7285  1.9628  2.1750
    7MOL0     H  929   2.204  13.228   0.707  0.3734 -1.7900  3.1683
    7MOL0     H  930   2.414  13.224   0.785 -1.5487 -2.5190  1.3461
    7MOL0     H  931   2.958  11.768   1.806 -1.2482 -2.1315 -0.0727
    7MOL0     H  932   3.047  11.564   1.896 -0.3959 -2.2890 -0.7562
    7MOL0     H  933   3.013  11.043   1.854 -0.2681 -1.7203 -1.5678
    7MOL0     H  934   3.124  10.837   1.929  1.1055 -0.8784 -1.0818
    7MOL0     H  935   3.246  10.707   2.031  0.3972  1.3118 -0.6628
    7MOL0     H  936   3.304  10.652   1.868  0.3516  0.5368 -0.4724
    7MOL0     H  937   3.346  10.500   2.059  0.5110 -0.9133  0.5021
    7MOL0     H  938   3.440  10.640   2.123  0.7725 -2.3828  0.5643
    7MOL0     H  939   3.559  10.605   1.881 -1.6405  1.4627  0.1530
    7MOL0     H  940   3.522  10.438   1.915 -0.0628  0.6462 -2.0151
    7MOL0     H  941   3.645  10.642   2.095 -0.5281  1.9511 -3.3393
    7MOL0     H  942   3.742  10.534   1.996  1.1037  1.0203  1.7586
    7MOL0     H  943   3.668  10.274   2.321 -1.8632  0.3201  0.6105
    7MOL0     H  944   3.492  11.035   1.893 -0.8530  0.2686 -1.5794
    7MOL0     H  945   3.388  11.253   1.849 -0.4132  0.3330  3.1179
    8MOL0     O  946   4.842   3.670  10.189  0.3775 -0.1491  0.0231
    8MOL0     C  947   4.862   3.657  10.307  0.1630 -0.3415  0.7101
    8MOL0     O  948   4.969   3.583  10.364 -0.9838  0.4710  0.2157
    8MOL0     C  949   5.071   3.547  10.279 -0.0716 -0.1016 -0.2636
    8MOL0     C  950   5.174   3.630  10.263  0.0802  0.6763 -0.7920
    8MOL0     C  951   5.293   3.587  10.199  0.2017 -0.4123  0.3372
    8MOL0     C  952   5.298   3.465  10.137 -0.2528  0.2780  0.5271
    8MOL0     O  953   5.412   3.412  10.086 -0.7524  0.2769 -0.7994
    8MOL0     C  954   5.521   3.502  10.054 -0.4832  1.0254 -0.2291
    8MOL0     C  955   5.615   3.436   9.959  0.6890 -0.6088 -0.2331
    8MOL0     C  956   5.663   3.292   9.994 -0.9176  0.9276 -1.0559
    8MOL0     C  957   5.797   3.261   9.915  0.8652  0.6985  0.2256
    8MOL0     C  958   5.812   3.119   9.885 -0.5629 -0.3204  0.0659
    8MOL0     C  959   5.943   3.096   9.801 -0.1387 -0.0780  0.9028
    8MOL0     C  960   5.946   2.949   9.751  0.0950  1.1870  0.5092
    8MOL0     C  961   6.058   2.927   9.646 -0.0335 -0.1368  0.0605
    8MOL0     N  962   6.072   2.785   9.608  0.2382 -0.4401  0.7705
    8MOL0     C  963   6.070   2.729   9.483 -0.2012 -0.0853 -0.1106
    8MOL0     C  964   6.068   2.594   9.508 -0.4739 -0.0605 -0.6069
    8MOL0     C  965   6.083   2.494   9.404 -0.7930 -0.3131  0.0010
    8MOL0     C  966   5.970   2.392   9.399 -0.1733  0.3833  0.5253
    8MOL0     C  967   5.857   2.437   9.306  0.7936  0.4678  0.6010
    8MOL0     C  968   5.827   2.320   9.207 -0.6101 -0.2454 -0.2436
    8MOL0     O  969   5.788   2.207   9.282  0.3346  0.5099 -0.7672
    8MOL0     C  970   5.703   2.119   9.230  0.1832 -0.5108  0.6393
    8MOL0     C  971   5.688   2.102   9.093  0.2593  0.1374 -0.3631
    8MOL0     C  972   5.594   2.008   9.026 -0.8443  0.7813 -0.6764
    8MOL0     C  973   5.612   2.008   8.881 -0.5637  0.6130  0.4492
    8MOL0     C  974   5.509   1.924   9.105  0.3986 -0.5860 -1.2056
    8MOL0     C  975   5.414   1.828   9.061  0.1503 -0.8324 -0.2318
    8MOL0     O  976   5.390   1.715   9.142  0.8596 -0.5112 -0.0351
    8MOL0     C  977   5.273   1.642   9.122 -1.3900  0.3457  0.4876
    8MOL0     C  978   5.256   1.576   8.995  0.0327 -0.1388  0.0713
    8MOL0     C  979   5.141   1.493   8.986 -0.3946  0.7103 -0.5388
    8MOL0     C  980   5.055   1.468   9.098 -0.0842 -0.0212 -0.2802
    8MOL0     O  981   4.964   1.375   9.074 -0.2517 -0.1767 -0.0833
    8MOL0     C  982   4.896   1.322   9.185 -0.5599  0.0876  0.8978
    8MOL0     C  983   4.768   1.263   9.129  0.0712 -0.2002  0.5673
    8MOL0     C  984   4.799   1.132   9.076 -0.7662  0.4788 -0.8002
    8MOL0     C  985   4.787   1.036   9.196 -0.6661 -0.2518 -0.0384
    8MOL0     C  986   4.813   0.885   9.162 -1.2508  0.0961  0.4510
    8MOL0     C  987   4.963   0.840   9.137 -0.3222 -0.1164  0.8565
    8MOL0     C  988   4.978   0.679   9.134 -0.6356  0.8133  0.8335
    8MOL0     C  989   5.096   0.618   9.070 -0.4330 -0.5808  0.3752
    8MOL0    Cl  990   5.214   0.592   9.192  0.2770 -0.3357 -0.4843
    8MOL0     C  991   5.078   1.534   9.225 -0.2197  0.6386  0.1489
    8MOL0     C  992   5.191   1.617   9.234  0.4920  0.1117 -0.2132
    8MOL0     O  993   5.357   1.857   8.954  0.1976  0.0758  0.1480
    8MOL0     C  994   5.524   1.942   9.250 -0.1500 -0.6231  0.1619
    8MOL0     C  995   5.616   2.040   9.309 -0.2991 -0.1522 -0.2851
    8MOL0     N  996   6.072   2.572   9.648  0.3185 -0.1231 -0.4919
    8MOL0     N  997   6.062   2.686   9.701  0.4095 -0.1986 -0.6306
    8MOL0     C  998   5.194   3.375  10.156 -0.0259  0.0323 -1.7344
    8MOL0     C  999   5.084   3.414  10.237  0.6757 -0.5333  0.2999
    8MOL0     C 1000   4.772   3.728  10.394 -0.0212 -0.4847  0.2793
    8MOL0     C 1001   4.803   3.737  10.529 -1.0986  0.5296 -0.1248
    8MOL0     C 1002   4.723   3.803  10.616  0.2729  1.0582 -0.1229
    8MOL0     C 1003   4.600   3.847  10.579 -0.4141 -1.3265  0.7527
    8MOL0     O 1004   4.536   3.924  10.667 -0.2561 -0.3605  0.4502
    8MOL0     C 1005   4.396   3.961  10.649  0.3294  0.1734  0.1512
    8MOL0     C 1006   4.329   3.995  10.778 -0.0278 -0.7940 -0.3305
    8MOL0     C 1007   4.353   4.132  10.839 -0.2061  0.3181  0.5428
    8MOL0     C 1008   4.300   4.155  10.982 -0.3157 -0.6663 -0.8434
    8MOL0     C 1009   4.150   4.163  10.978 -0.6500  0.4896  1.1726
    8MOL0     C 1010   4.032   4.162  10.961 -0.2241  0.5149  1.0307
    8MOL0     C 1011   4.566   3.837  10.444  1.3786  0.5190  0.2965
    8MOL0     C 1012   4.654   3.788  10.348  0.5848  0.6464 -0.3109
    8MOL0     H 1013   5.161   3.726  10.312  2.3993  0.4412  0.4346
    8MOL0     H 1014   5.382   3.650  10.202  0.2904 -0.5685  1.4137
    8MOL0     H 1015   5.490   3.603  10.025 -2.6639  0.9588  1.6083
    8MOL0     H 1016   5.583   3.518  10.142  0.6668 -2.7333 -0.1794
    8MOL0     H 1017   5.574   3.429   9.858  1.3593 -2.8921 -0.3945
    8MOL0     H 1018   5.690   3.515   9.945 -3.2648  3.2165 -2.1862
    8MOL0     H 1019   5.694   3.291  10.099  2.1212 -0.6211 -1.8667
    8MOL0     H 1020   5.585   3.221   9.965  0.3960 -0.3329 -1.6176
    8MOL0     H 1021   5.810   3.319   9.823  3.8711 -1.9391 -1.2210
    8MOL0     H 1022   5.875   3.300   9.982 -0.0942  1.4810  0.9203
    8MOL0     H 1023   5.804   3.053   9.972 -1.5502  0.8007  0.8610
    8MOL0     H 1024   5.726   3.094   9.822 -1.2071  1.8705 -0.0355
    8MOL0     H 1025   5.962   3.165   9.717  0.3790 -2.9761 -1.5206
    8MOL0     H 1026   6.032   3.112   9.863  1.1321  2.8494 -1.3976
    8MOL0     H 1027   5.957   2.881   9.836  0.3427  1.2494  0.5278
    8MOL0     H 1028   5.846   2.942   9.707 -0.1609  2.4190  0.8401
    8MOL0     H 1029   6.156   2.952   9.687 -0.1850 -0.2350  0.4931
    8MOL0     H 1030   6.039   2.996   9.563 -0.4075  0.8133  0.9231
    8MOL0     H 1031   6.083   2.783   9.389  2.7659  1.4333  1.0399
    8MOL0     H 1032   6.097   2.538   9.305  0.6367 -0.3165  0.1766
    8MOL0     H 1033   6.173   2.435   9.427 -2.0120 -1.7543  1.3622
    8MOL0     H 1034   5.921   2.371   9.495 -2.1805  2.0593 -0.0599
    8MOL0     H 1035   6.004   2.298   9.355 -0.8944 -0.3453  1.4736
    8MOL0     H 1036   5.881   2.529   9.252  2.2783 -0.2970 -0.0817
    8MOL0     H 1037   5.763   2.445   9.362  1.4581 -2.6072  2.3755
    8MOL0     H 1038   5.917   2.301   9.147 -1.0842  0.6090 -1.2615
    8MOL0     H 1039   5.757   2.370   9.139 -0.3431  0.5181  0.0306
    8MOL0     H 1040   5.739   2.176   9.032 -0.2939 -0.2645 -1.3261
    8MOL0     H 1041   5.708   2.045   8.844 -1.6038  0.1752 -3.0028
    8MOL0     H 1042   5.605   1.902   8.855  0.2173  0.7238 -0.2563
    8MOL0     H 1043   5.536   2.062   8.825  1.6833  0.0871 -3.4826
    8MOL0     H 1044   5.326   1.581   8.913 -0.0420 -2.0751 -0.1660
    8MOL0     H 1045   5.135   1.414   8.911  0.9306 -0.0740  0.1569
    8MOL0     H 1046   4.966   1.256   9.238  0.5044 -0.3766 -0.9884
    8MOL0     H 1047   4.854   1.386   9.263 -0.8654  2.5710 -1.1659
    8MOL0     H 1048   4.695   1.258   9.210  2.2494 -0.0194  2.6545
    8MOL0     H 1049   4.733   1.324   9.045  0.9648 -2.0182 -1.2326
    8MOL0     H 1050   4.893   1.132   9.020 -0.5092  1.6302 -0.3994
    8MOL0     H 1051   4.721   1.103   9.004  0.1771  1.9073 -2.4746
    8MOL0     H 1052   4.835   1.071   9.287 -2.3049  1.6182  0.1824
    8MOL0     H 1053   4.680   1.041   9.220 -0.1114  3.2104  2.4200
    8MOL0     H 1054   4.757   0.868   9.070 -2.8176 -0.3647  1.4587
    8MOL0     H 1055   4.763   0.826   9.240 -1.5030  4.0188  3.6120
    8MOL0     H 1056   5.000   0.875   9.040 -3.5285  0.7703 -0.1672
    8MOL0     H 1057   5.022   0.876   9.222  3.6935 -0.1032 -1.6404
    8MOL0     H 1058   4.898   0.642   9.069  0.7320 -2.8075  1.0170
    8MOL0     H 1059   4.962   0.623   9.227 -0.3804  0.4881  0.6848
    8MOL0     H 1060   5.141   0.675   8.988  2.1386 -2.4278  0.3826
    8MOL0     H 1061   5.079   0.517   9.031  0.2701  0.0042 -1.5243
    8MOL0     H 1062   5.028   1.515   9.319  1.9095  0.2940  1.2711
    8MOL0     H 1063   5.205   1.667   9.330 -0.7281 -0.9494  0.5348
    8MOL0     H 1064   5.470   1.879   9.320 -0.3968  0.3557  0.8780
    8MOL0     H 1065   5.634   2.034   9.416 -2.5603 -1.5029  0.0721
    8MOL0     H 1066   5.231   3.275  10.140  4.2017  0.9177  0.9143
    8MOL0     H 1067   5.020   3.333  10.271 -0.4677 -0.9179 -2.4529
    8MOL0     H 1068   4.889   3.685  10.570 -0.3292 -0.1691 -2.4489
    8MOL0     H 1069   4.754   3.818  10.719  3.7547 -0.2807 -0.8416
    8MOL0     H 1070   4.396   4.049  10.584  1.9580 -0.4674 -0.7722
    8MOL0     H 1071   4.335   3.884  10.601  2.1461 -1.7973  0.8648
    8MOL0     H 1072   4.344   3.919  10.856  2.5086  0.6964  0.7693
    8MOL0     H 1073   4.224   3.998  10.750  0.4819 -1.0820 -2.5015
    8MOL0     H 1074   4.326   4.214  10.772  2.3049 -0.0673 -1.0736
    8MOL0     H 1075   4.462   4.121  10.843 -0.4469 -2.5676  2.7859
    8MOL0     H 1076   4.348   4.245  11.021  0.2791 -2.3752  2.8477
    8MOL0     H 1077   4.330   4.067  11.040 -1.8575 -0.3267  0.5514
    8MOL0     H 1078   3.925   4.159  10.951 -0.1488  0.9228 -0.0491
    8MOL0     H 1079   4.473   3.881  10.411  1.4774  1.3060  1.0228
    8MOL0     H 1080   4.633   3.772  10.243  3.4344 -2.5164 -0.5713
    9MOL0     O 1081   9.744   8.585   1.970  0.2655  0.3701  0.4569
    9MOL0     C 1082   9.800   8.561   1.862 -0.4371  0.1590  0.1626
    9MOL0     O 1083   9.755   8.480   1.761 -0.3029  0.4551 -0.1587
    9MOL0     C 1084   9.635   8.423   1.788  0.1108 -0.9136 -1.3478
    9MOL0     C 1085   9.612   8.328   1.892  0.6924 -0.1143  0.2116
    9MOL0     C 1086   9.479   8.272   1.908  0.1766 -0.6628 -0.2893
    9MOL0     C 1087   9.377   8.300   1.821 -0.0695 -0.5086 -0.2377
    9MOL0     O 1088   9.258   8.236   1.819  0.3339 -0.1888  0.1270
    9MOL0     C 1089   9.233   8.136   1.917  0.9515  0.2347  0.3497
    9MOL0     C 1090   9.085   8.094   1.889 -0.1943 -0.1346 -0.4977
    9MOL0     C 1091   9.058   7.965   1.973  0.9447 -0.5633  0.1318
    9MOL0     C 1092   9.055   7.991   2.132 -0.3902  0.2078  0.5108
    9MOL0     C 1093   9.096   7.868   2.210 -0.2235 -0.2672 -0.0949
    9MOL0     C 1094   9.108   7.891   2.362  0.0795  0.3322 -0.3462
    9MOL0     C 1095   9.154   7.765   2.436  0.0500  0.6188  0.4294
    9MOL0     C 1096   9.166   7.779   2.584 -0.1315  0.6008 -0.8885
    9MOL0     N 1097   9.233   7.664   2.649  0.1622  1.3550 -0.6744
    9MOL0     C 1098   9.344   7.665   2.728  0.1602 -0.3603  0.2116
    9MOL0     C 1099   9.372   7.531   2.754 -0.1726  1.1581  0.1438
    9MOL0     C 1100   9.486   7.480   2.840  0.3953  0.9116  0.8150
    9MOL0     C 1101   9.600   7.580   2.834 -0.0034  0.3773 -0.4976
    9MOL0     C 1102   9.732   7.494   2.818 -0.0943 -0.5646 -0.1716
    9MOL0     C 1103   9.863   7.585   2.833  0.2895  1.0515 -0.1492
    9MOL0     O 1104   9.879   7.686   2.731  0.2547 -0.3140  0.1805
    9MOL0     C 1105   9.992   7.761   2.742 -0.2167 -0.1213 -0.1313
    9MOL0     C 1106  10.015   7.863   2.654  0.1270 -0.2730 -0.1541
    9MOL0     C 1107  10.137   7.934   2.650 -0.7448  0.5130  0.4556
    9MOL0     C 1108  10.152   8.048   2.550 -0.0106  0.1748  0.2514
    9MOL0     C 1109  10.236   7.904   2.745 -1.3001 -0.1990 -1.0497
    9MOL0     C 1110  10.362   7.983   2.757 -0.3940 -1.0892 -0.9804
    9MOL0     O 1111  10.426   7.980   2.887  0.2960  0.0073  0.4356
    9MOL0     C 1112  10.537   8.049   2.909  0.8211  0.1716 -1.0752
    9MOL0     C 1113  10.529   8.174   2.973  1.0344 -0.7396  0.2924
    9MOL0     C 1114  10.647   8.230   3.002  0.5371 -1.1299 -0.2855
    9MOL0     C 1115  10.771   8.181   2.976  0.5775 -0.3246  0.9208
    9MOL0     O 1116  10.867   8.262   3.034  0.5181  0.1921 -0.3116
    9MOL0     C 1117  11.001   8.216   2.998 -0.0947 -0.0485  0.6357
    9MOL0     C 1118  11.078   8.331   3.063  0.6718  0.2526 -0.5309
    9MOL0     C 1119  11.235   8.304   3.063  0.6903  0.2753 -0.1350
    9MOL0     C 1120  11.309   8.391   3.155 -0.1966  0.2730  0.9907
    9MOL0     C 1121  11.461   8.405   3.116  0.3589  0.8468 -0.3944
    9MOL0     C 1122  11.536   8.455   3.231  0.8133 -0.0020  0.3353
    9MOL0     C 1123  11.666   8.539   3.190 -0.0159  0.8704 -0.7348
    9MOL0     C 1124  11.645   8.681   3.176 -0.1526 -0.0651 -0.2819
    9MOL0    Cl 1125  11.796   8.769   3.140  0.0895 -0.3636  0.0449
    9MOL0     C 1126  10.787   8.073   2.886  1.0874  0.4395  0.4974
    9MOL0     C 1127  10.660   8.002   2.859 -0.0976 -0.9231 -0.1582
    9MOL0     O 1128  10.420   8.030   2.660 -0.1124  0.0092  0.0402
    9MOL0     C 1129  10.200   7.827   2.853  0.1028  0.5805  0.3390
    9MOL0     C 1130  10.083   7.750   2.850  0.5961  0.3779 -0.8861
    9MOL0     N 1131   9.274   7.454   2.688 -0.4243  0.2288 -0.2795
    9MOL0     N 1132   9.192   7.531   2.631  0.9352  0.0685 -0.2091
    9MOL0     C 1133   9.402   8.400   1.725  0.1014  1.2856  0.8420
    9MOL0     C 1134   9.529   8.459   1.708  0.3648 -0.3713  0.0686
    9MOL0     C 1135   9.927   8.631   1.845 -0.2068 -0.3608  0.1600
    9MOL0     C 1136   9.950   8.690   1.722  0.1965 -0.0329  0.2184
    9MOL0     C 1137  10.060   8.764   1.700 -0.8087  1.0572 -0.4889
    9MOL0     C 1138  10.162   8.786   1.800  0.0166  0.5398 -0.5421
    9MOL0     O 1139  10.285   8.841   1.781 -0.5801  0.4384  0.5657
    9MOL0     C 1140  10.357   8.809   1.661 -0.4203  0.7445  0.1468
    9MOL0     C 1141  10.488   8.743   1.693 -0.7031 -0.6398  0.7753
    9MOL0     C 1142  10.472   8.618   1.774 -0.8477  0.0272 -0.5287
    9MOL0     C 1143  10.613   8.555   1.788  0.6538  0.0372 -0.8043
    9MOL0     C 1144  10.672   8.519   1.659 -0.5334  0.2233 -0.1186
    9MOL0     C 1145  10.689   8.469   1.550  1.4440  0.2577 -0.1314
    9MOL0     C 1146  10.136   8.729   1.927  0.8701 -0.0282  0.4481
    9MOL0     C 1147  10.018   8.650   1.950 -1.2058  0.5697  0.6228
    9MOL0     H 1148   9.690   8.302   1.963 -0.7941  1.2736  2.4926
    9MOL0     H 1149   9.471   8.194   1.983  0.4583 -0.7104 -0.3069
    9MOL0     H 1150   9.306   8.056   1.900  0.6269 -0.0594  0.3326
    9MOL0     H 1151   9.228   8.178   2.017 -1.1996  3.5636 -0.9809
    9MOL0     H 1152   9.011   8.167   1.922  0.9003  0.7698  0.0000
    9MOL0     H 1153   9.078   8.078   1.781 -0.3135 -0.4442 -0.4448
    9MOL0     H 1154   8.958   7.925   1.956  0.8647 -0.8347  1.1614
    9MOL0     H 1155   9.138   7.896   1.945  0.8046 -2.3476  3.6368
    9MOL0     H 1156   9.130   8.062   2.165  2.3221 -2.1185 -0.2538
    9MOL0     H 1157   8.959   8.034   2.163  0.2129  2.3645 -0.4564
    9MOL0     H 1158   9.030   7.785   2.186  2.3307 -2.1403 -1.1688
    9MOL0     H 1159   9.195   7.837   2.174 -0.6971 -1.4221 -0.4631
    9MOL0     H 1160   9.185   7.966   2.383  0.3957 -0.6720  2.4816
    9MOL0     H 1161   9.020   7.937   2.408 -0.3150  1.2113 -1.9046
    9MOL0     H 1162   9.077   7.690   2.414 -1.8073  1.8098  2.4158
    9MOL0     H 1163   9.246   7.727   2.391 -0.2967  2.0753 -1.6279
    9MOL0     H 1164   9.070   7.790   2.635  0.0739  0.9742 -0.5719
    9MOL0     H 1165   9.220   7.874   2.594 -0.0260  0.8813 -3.4780
    9MOL0     H 1166   9.399   7.754   2.756  0.3680 -0.6059  0.5913
    9MOL0     H 1167   9.441   7.455   2.936 -1.6866 -0.7552 -0.5153
    9MOL0     H 1168   9.514   7.387   2.789 -0.5835  2.0432 -2.0207
    9MOL0     H 1169   9.604   7.627   2.933 -1.5897 -1.3065  0.4447
    9MOL0     H 1170   9.585   7.658   2.759 -0.3174  0.2921 -0.5273
    9MOL0     H 1171   9.738   7.459   2.715  0.2356 -0.5625 -0.1531
    9MOL0     H 1172   9.730   7.413   2.892 -2.6884 -1.6783 -1.3460
    9MOL0     H 1173   9.946   7.514   2.835  1.9207  2.9084  1.3158
    9MOL0     H 1174   9.864   7.628   2.933 -2.3812 -0.9267  0.8308
    9MOL0     H 1175   9.943   7.907   2.585  1.7966 -0.0671 -1.8255
    9MOL0     H 1176  10.083   8.064   2.467  2.0074  3.4612 -0.9965
    9MOL0     H 1177  10.153   8.138   2.612 -1.5911 -0.2060  0.8710
    9MOL0     H 1178  10.251   8.042   2.502  0.5653  0.3377  1.3874
    9MOL0     H 1179  10.433   8.192   3.020  2.7970 -1.3658  4.5812
    9MOL0     H 1180  10.639   8.324   3.055 -0.6627 -2.3586  1.8291
    9MOL0     H 1181  11.030   8.120   3.042  2.3621  1.1378  1.8265
    9MOL0     H 1182  11.026   8.214   2.892  0.2526 -1.6926  0.7202
    9MOL0     H 1183  11.061   8.431   3.022  0.0822  1.6564  2.7914
    9MOL0     H 1184  11.047   8.342   3.167  0.2831  1.9316 -0.7912
    9MOL0     H 1185  11.260   8.337   2.962 -0.3998 -0.8698 -0.7948
    9MOL0     H 1186  11.254   8.198   3.079 -1.8879  0.2886  5.5889
    9MOL0     H 1187  11.264   8.491   3.142  0.9650  0.5414 -1.8293
    9MOL0     H 1188  11.307   8.353   3.257 -1.9112 -4.5450 -0.5693
    9MOL0     H 1189  11.482   8.461   3.024  2.8225 -0.5924 -0.8000
    9MOL0     H 1190  11.500   8.306   3.090  0.5836  0.2279  2.0505
    9MOL0     H 1191  11.469   8.520   3.289  1.2457  1.5437 -0.8268
    9MOL0     H 1192  11.559   8.373   3.299  2.1423 -0.6908 -0.8977
    9MOL0     H 1193  11.702   8.499   3.095 -0.5394  1.5259 -1.2167
    9MOL0     H 1194  11.736   8.517   3.272 -2.3476  1.9788  1.7134
    9MOL0     H 1195  11.608   8.715   3.273  0.6276 -2.8465  1.1005
    9MOL0     H 1196  11.572   8.700   3.097  0.5785 -1.9780 -1.4904
    9MOL0     H 1197  10.876   8.028   2.844  1.0524 -0.2767  1.1859
    9MOL0     H 1198  10.652   7.920   2.789  0.4722 -0.0932 -1.2169
    9MOL0     H 1199  10.256   7.818   2.946  3.1848  2.3774 -1.2135
    9MOL0     H 1200  10.071   7.680   2.932  2.8620 -1.9506 -2.3794
    9MOL0     H 1201   9.317   8.410   1.658 -0.8682  1.5176  2.0631
    9MOL0     H 1202   9.536   8.526   1.624 -0.6065  0.9516  1.0129
    9MOL0     H 1203   9.877   8.696   1.642  1.8743  0.6091 -1.3514
    9MOL0     H 1204  10.066   8.805   1.599 -1.4562 -0.7015 -1.2774
    9MOL0     H 1205  10.297   8.752   1.590  2.9552 -1.2379 -1.3433
    9MOL0     H 1206  10.388   8.898   1.606  2.1015 -1.0858 -1.5494
    9MOL0     H 1207  10.572   8.801   1.734  1.9427 -3.9573  0.5662
    9MOL0     H 1208  10.525   8.720   1.593 -0.1660 -0.0685  0.8373
    9MOL0     H 1209  10.409   8.545   1.724  1.1076  0.3349 -3.6848
    9MOL0     H 1210  10.431   8.641   1.873 -0.8414  1.2473 -0.7869
    9MOL0     H 1211  10.601   8.461   1.842  0.7305 -0.1364 -1.0881
    9MOL0     H 1212  10.686   8.613   1.846 -0.2366 -0.5233  0.9800
    9MOL0     H 1213  10.703   8.435   1.449  1.9290  0.7688 -0.2426
    9MOL0     H 1214  10.208   8.745   2.006  0.2728  1.0739  0.7857
    9MOL0     H 1215  10.019   8.610   2.051 -0.8565 -1.1624 -0.0334
   10MOL0     O 1216   0.831  10.725   4.427 -0.0101  0.1830 -0.1351
   10MOL0     C 1217   0.914  10.650   4.372  0.1296 -0.5858  0.0588
   10MOL0     O 1218   0.902  10.522   4.334 -0.6139 -0.2187  0.5267
   10MOL0     C 1219   0.789  10.478   4.280 -0.1252  0.2811  0.4946
   10MOL0     C 1220   0.696  10.560   4.222  0.2248 -0.3389  0.2058
   10MOL0     C 1221   0.591  10.506   4.147 -0.7916  0.4841 -0.5309
   10MOL0     C 1222   0.574  10.366   4.150  0.1113  0.3742  0.4711
   10MOL0     O 1223   0.473  10.301   4.085 -0.7902  0.6101 -0.1374
   10MOL0     C 1224   0.467  10.332   3.946  0.2415  0.2696  0.0930
   10MOL0     C 1225   0.322  10.367   3.905 -0.3307 -0.2993  0.3772
   10MOL0     C 1226   0.222  10.263   3.952 -0.1187  0.5288 -0.1974
   10MOL0     C 1227   0.081  10.309   3.905 -0.7417  0.4541 -0.8588
   10MOL0     C 1228  -0.027  10.204   3.929 -0.5785 -0.1275  1.0696
   10MOL0     C 1229  -0.042  10.109   3.799  0.0810 -0.1953  0.0669
   10MOL0     C 1230  -0.181  10.054   3.764  0.0759  0.6436  0.0336
   10MOL0     C 1231  -0.272  10.170   3.718 -0.1057  0.7131 -0.0971
   10MOL0     N 1232  -0.403  10.118   3.657 -0.3463 -0.0773  0.3139
   10MOL0     C 1233  -0.421  10.102   3.525  0.3878 -0.7067 -0.7132
   10MOL0     C 1234  -0.537  10.032   3.511  0.1797 -1.1734 -0.7857
   10MOL0     C 1235  -0.587  10.006   3.371  0.1919 -0.0356  0.5329
   10MOL0     C 1236  -0.581   9.857   3.322 -0.4551 -0.3410  1.2331
   10MOL0     C 1237  -0.432   9.814   3.283  0.3742 -0.7579  0.0867
   10MOL0     C 1238  -0.401   9.671   3.270  0.4791  0.1100 -0.1045
   10MOL0     O 1239  -0.516   9.598   3.206 -0.5932  0.7902 -0.3581
   10MOL0     C 1240  -0.551   9.634   3.074 -1.1499  0.4518  0.3194
   10MOL0     C 1241  -0.465   9.634   2.965  0.1900 -1.0023 -0.5946
   10MOL0     C 1242  -0.500   9.677   2.832  0.7521 -0.1547  0.0854
   10MOL0     C 1243  -0.392   9.679   2.727 -0.6923  0.1925 -0.5868
   10MOL0     C 1244  -0.632   9.725   2.815  0.2647 -0.7361 -0.2575
   10MOL0     C 1245  -0.683   9.794   2.690 -0.2161 -0.2799  0.5079
   10MOL0     O 1246  -0.603   9.794   2.586  0.3940 -0.4292 -0.4510
   10MOL0     C 1247  -0.638   9.869   2.480  0.2306 -0.2060 -0.3196
   10MOL0     C 1248  -0.656   9.802   2.353 -0.1615  0.2790 -0.6029
   10MOL0     C 1249  -0.659   9.868   2.231  0.1964  0.1918 -0.3677
   10MOL0     C 1250  -0.648  10.011   2.228  0.0752 -0.2259  0.4481
   10MOL0     O 1251  -0.662  10.079   2.112  0.3364  0.1504 -0.1589
   10MOL0     C 1252  -0.579  10.046   2.003 -0.3538  0.0097  0.9170
   10MOL0     C 1253  -0.647  10.061   1.865 -0.3803  0.3962  0.4641
   10MOL0     C 1254  -0.586   9.982   1.741 -0.2215  0.5777 -0.2570
   10MOL0     C 1255  -0.559  10.072   1.621  0.5249 -0.3500  0.1365
   10MOL0     C 1256  -0.540  10.001   1.483 -0.1478  0.0351 -0.1908
   10MOL0     C 1257  -0.559  10.098   1.354  0.2028 -1.0379 -0.6050
   10MOL0     C 1258  -0.586  10.011   1.221  0.4580 -0.9933  0.2787
   10MOL0     C 1259  -0.455   9.968   1.170 -0.1457  0.1919  0.3134
   10MOL0    Cl 1260  -0.368  10.117   1.118  0.1782  0.1436 -0.0346
   10MOL0     C 1261  -0.654  10.074   2.352 -0.6223  0.7114 -0.5437
   10MOL0     C 1262  -0.644  10.011   2.478  0.4877  0.2377  0.1862
   10MOL0     O 1263  -0.790   9.847   2.693 -0.1750 -0.5692  0.0988
   10MOL0     C 1264  -0.727   9.695   2.913 -0.6442 -0.1139 -0.9062
   10MOL0     C 1265  -0.682   9.646   3.036  0.4375 -0.4421 -1.2805
   10MOL0     N 1266  -0.591  10.026   3.638 -0.2789 -0.8721  0.2958
   10MOL0     N 1267  -0.509  10.071   3.719  0.5360 -0.1033 -0.1438
   10MOL0     C 1268   0.663  10.286   4.210  0.2161 -0.0396  0.5984
   10MOL0     C 1269   0.764  10.342   4.278  0.4133 -0.0246 -0.1345
   10MOL0     C 1270   1.053  10.699   4.371  0.0788  0.0011  0.2597
   10MOL0     C 1271   1.090  10.817   4.438 -1.1901 -0.9990  0.4808
   10MOL0     C 1272   1.223  10.867   4.437  1.0946  0.1160  1.3444
   10MOL0     C 1273   1.325  10.791   4.372 -0.7752  0.7862  0.4277
   10MOL0     O 1274   1.458  10.823   4.375  0.3526  0.1524 -0.3404
   10MOL0     C 1275   1.494  10.930   4.475  0.0540 -0.2153 -0.5142
   10MOL0     C 1276   1.650  10.933   4.468 -1.0827  0.1633 -0.1329
   10MOL0     C 1277   1.709  10.836   4.569  0.5010  0.5781 -0.7306
   10MOL0     C 1278   1.847  10.890   4.604  0.3019  0.1382 -0.2703
   10MOL0     C 1279   1.940  10.901   4.494 -0.4807 -0.6048  1.0462
   10MOL0     C 1280   2.005  10.911   4.386  0.2568  0.4181  0.2667
   10MOL0     C 1281   1.292  10.673   4.303  0.0754  0.9390 -0.3867
   10MOL0     C 1282   1.160  10.631   4.301 -0.3266  0.1148 -0.9918
   10MOL0     H 1283   0.714  10.666   4.214  2.7698 -0.7125  0.2818
   10MOL0     H 1284   0.522  10.572   4.095 -3.3831 -1.1608  0.6289
   10MOL0     H 1285   0.519  10.426   3.923  0.8515 -0.1452 -0.2524
   10MOL0     H 1286   0.499  10.247   3.885  3.2251  0.8092  0.7803
   10MOL0     H 1287   0.290  10.460   3.953 -0.6322  1.0878 -2.3183
   10MOL0     H 1288   0.312  10.395   3.800 -0.3593 -1.7312 -0.0179
   10MOL0     H 1289   0.239  10.163   3.911  3.7377  1.5477 -1.4734
   10MOL0     H 1290   0.218  10.258   4.061 -0.1629 -2.1936 -0.2422
   10MOL0     H 1291   0.055  10.399   3.961 -5.7875 -0.7482 -0.7337
   10MOL0     H 1292   0.080  10.323   3.797 -3.1441 -0.5834 -1.0416
   10MOL0     H 1293  -0.002  10.148   4.020 -0.3084 -0.0822  1.0249
   10MOL0     H 1294  -0.122  10.256   3.946  0.6813  2.9296 -0.4911
   10MOL0     H 1295  -0.015  10.165   3.709 -0.0765 -2.8384 -1.7326
   10MOL0     H 1296   0.018  10.018   3.808 -0.7125 -0.9152 -1.4322
   10MOL0     H 1297  -0.188   9.981   3.682 -2.1001 -1.4648  1.9468
   10MOL0     H 1298  -0.233  10.008   3.848 -0.6442  0.9458 -0.2344
   10MOL0     H 1299  -0.219  10.216   3.634 -0.5545 -1.4209 -1.6503
   10MOL0     H 1300  -0.290  10.261   3.776 -2.1324  1.8439 -2.2986
   10MOL0     H 1301  -0.359  10.127   3.439  2.5006 -1.6823  0.4307
   10MOL0     H 1302  -0.694  10.031   3.375 -0.3644 -1.8477 -1.3881
   10MOL0     H 1303  -0.537  10.074   3.301 -1.5862 -0.3536 -1.1375
   10MOL0     H 1304  -0.646   9.858   3.234 -1.2967 -0.1393  1.8568
   10MOL0     H 1305  -0.626   9.793   3.398 -3.6765 -0.0800 -0.2682
   10MOL0     H 1306  -0.363   9.855   3.357 -1.4464  1.0115  0.9203
   10MOL0     H 1307  -0.403   9.860   3.187  1.1744 -1.5725 -0.0747
   10MOL0     H 1308  -0.383   9.644   3.375  1.8759  3.1172  0.5318
   10MOL0     H 1309  -0.303   9.659   3.223  0.6065  1.6993 -0.2974
   10MOL0     H 1310  -0.361   9.611   2.984  0.6181 -1.4501 -3.1792
   10MOL0     H 1311  -0.352   9.781   2.730  0.9260 -0.4202  0.4552
   10MOL0     H 1312  -0.314   9.607   2.754 -1.7283  0.1915  2.8420
   10MOL0     H 1313  -0.432   9.651   2.629  0.5685 -1.2269 -0.7348
   10MOL0     H 1314  -0.659   9.694   2.344 -3.1671 -0.5581  5.1262
   10MOL0     H 1315  -0.702   9.812   2.148 -3.0148 -1.1924  2.0058
   10MOL0     H 1316  -0.489  10.107   2.010  0.3910 -1.0339  0.6616
   10MOL0     H 1317  -0.548   9.942   2.013  0.1979 -0.0446 -0.9524
   10MOL0     H 1318  -0.755  10.049   1.877 -1.1576  3.3160 -2.1819
   10MOL0     H 1319  -0.625  10.167   1.845 -0.8923  0.1271 -1.7457
   10MOL0     H 1320  -0.657   9.907   1.707  1.1273 -0.5380 -0.7287
   10MOL0     H 1321  -0.504   9.921   1.780 -0.0962  1.1017  0.3229
   10MOL0     H 1322  -0.647  10.136   1.604  2.9168  2.4780 -2.7997
   10MOL0     H 1323  -0.471  10.132   1.642  2.4793 -2.6294 -1.0521
   10MOL0     H 1324  -0.613   9.920   1.491 -0.8838  0.8776  3.4338
   10MOL0     H 1325  -0.439   9.958   1.480  0.4375  1.2163  1.1492
   10MOL0     H 1326  -0.641  10.165   1.383 -2.1075 -4.1391  0.6675
   10MOL0     H 1327  -0.469  10.157   1.340  0.9351 -0.9849  3.1770
   10MOL0     H 1328  -0.648  10.064   1.149  2.0677 -1.3997 -1.4744
   10MOL0     H 1329  -0.636   9.916   1.246  1.2240 -1.6250 -0.5582
   10MOL0     H 1330  -0.481   9.898   1.089  1.3932 -1.5314  1.2207
   10MOL0     H 1331  -0.399   9.912   1.245 -1.3946 -1.1227  0.3161
   10MOL0     H 1332  -0.657  10.182   2.358 -0.6816  0.6322  1.2760
   10MOL0     H 1333  -0.614  10.065   2.567  1.0644 -1.4403  1.0579
   10MOL0     H 1334  -0.831   9.726   2.905 -1.2594 -1.8904 -0.3652
   10MOL0     H 1335  -0.761   9.629   3.108 -2.2878  1.3166 -3.6355
   10MOL0     H 1336   0.659  10.177   4.212  0.6676 -0.0930 -0.5388
   10MOL0     H 1337   0.841  10.289   4.332 -0.4611  0.4013  1.5948
   10MOL0     H 1338   1.013  10.878   4.484 -2.2054 -2.4410  0.7648
   10MOL0     H 1339   1.249  10.954   4.497  0.0339 -0.1686  2.2615
   10MOL0     H 1340   1.451  11.029   4.457 -1.9655 -0.5695  1.7939
   10MOL0     H 1341   1.461  10.905   4.576  0.8243 -1.4948 -0.5554
   10MOL0     H 1342   1.680  11.031   4.507 -2.2686 -0.8291  3.7364
   10MOL0     H 1343   1.692  10.900   4.372  0.2481  3.6818 -0.9536
   10MOL0     H 1344   1.708  10.732   4.534  1.1134  1.4367 -3.5670
   10MOL0     H 1345   1.656  10.844   4.665 -0.2847  0.2922 -1.1367
   10MOL0     H 1346   1.905  10.826   4.670 -1.0173  0.5089  1.3095
   10MOL0     H 1347   1.832  10.981   4.663  0.8357 -1.2489  2.0857
   10MOL0     H 1348   2.054  10.915   4.291  1.4921 -1.4641  0.7709
   10MOL0     H 1349   1.369  10.604   4.271  2.0216  2.9558 -0.3423
   10MOL0     H 1350   1.124  10.550   4.239  1.2239  0.1485 -2.0132
   11MOL0     O 1351  10.892   3.452   8.665 -0.2322  0.3742  0.3917
   11MOL0     C 1352  10.978   3.371   8.699  0.7546 -0.2927 -0.3591
   11MOL0     O 1353  11.024   3.268   8.622  0.6158 -0.5878  0.0078
   11MOL0     C 1354  10.945   3.233   8.512  0.6835 -0.9368  0.3299
   11MOL0     C 1355  10.832   3.162   8.530 -0.0317 -0.5649 -0.0983
   11MOL0     C 1356  10.763   3.134   8.414  0.3204  0.1627 -0.7978
   11MOL0     C 1357  10.800   3.167   8.288 -0.4059  0.0866  0.5939
   11MOL0     O 1358  10.708   3.146   8.186 -0.6023  0.1097 -0.2481
   11MOL0     C 1359  10.763   3.107   8.058  0.6009 -0.2514 -0.0785
   11MOL0     C 1360  10.662   3.043   7.960  0.4911  0.0646  0.1034
   11MOL0     C 1361  10.610   2.907   8.006 -0.7355 -0.0634  0.1221
   11MOL0     C 1362  10.501   2.847   7.906 -0.4470 -0.2402 -0.4741
   11MOL0     C 1363  10.436   2.719   7.956  0.4822  0.4599 -0.1968
   11MOL0     C 1364  10.368   2.629   7.846 -0.2832 -0.9451 -0.6906
   11MOL0     C 1365  10.240   2.684   7.792  0.2322 -1.2176 -0.1973
   11MOL0     C 1366  10.119   2.658   7.881  0.6802  0.2754  0.9402
   11MOL0     N 1367  10.105   2.762   7.983 -0.2614 -0.1742  0.5577
   11MOL0     C 1368  10.099   2.899   7.950  0.5919 -0.3499  1.4639
   11MOL0     C 1369  10.117   2.964   8.064 -0.1866 -1.1547 -0.1475
   11MOL0     C 1370  10.136   3.111   8.099 -0.1916  0.1285  0.0694
   11MOL0     C 1371  10.286   3.144   8.071  0.5055  0.9173  0.2535
   11MOL0     C 1372  10.321   3.281   8.144  0.4624 -0.2108  0.4490
   11MOL0     C 1373  10.340   3.406   8.054 -0.7516  0.1349 -0.1754
   11MOL0     O 1374  10.468   3.408   7.990 -0.7664 -0.2248 -0.9398
   11MOL0     C 1375  10.574   3.467   8.056  0.9095  1.0929 -0.3345
   11MOL0     C 1376  10.585   3.507   8.190  0.6817  0.4698 -0.5579
   11MOL0     C 1377  10.709   3.531   8.254  0.4879  0.1579 -0.6397
   11MOL0     C 1378  10.705   3.559   8.401  0.6648  1.0369  0.4775
   11MOL0     C 1379  10.832   3.534   8.175 -0.3916 -0.6128 -0.4485
   11MOL0     C 1380  10.965   3.573   8.226  1.1080 -0.3223 -0.0885
   11MOL0     O 1381  11.071   3.501   8.166 -0.1778  0.2489  0.7597
   11MOL0     C 1382  11.199   3.557   8.155  1.0119  0.4344 -0.2146
   11MOL0     C 1383  11.226   3.696   8.136 -0.3808  0.4534  0.6183
   11MOL0     C 1384  11.354   3.742   8.137  0.3920 -0.6552 -0.6113
   11MOL0     C 1385  11.458   3.660   8.167  0.7356  1.0870  0.6242
   11MOL0     O 1386  11.587   3.712   8.160 -0.1414 -0.2998 -1.1071
   11MOL0     C 1387  11.674   3.671   8.272 -0.0568 -0.0629 -0.3702
   11MOL0     C 1388  11.809   3.746   8.281 -1.0727  0.6538 -0.3176
   11MOL0     C 1389  11.886   3.678   8.162  0.7182  0.3788 -0.5900
   11MOL0     C 1390  12.016   3.755   8.156  0.9004  0.8393  0.2113
   11MOL0     C 1391  12.119   3.685   8.072 -0.2843 -0.2117 -0.1261
   11MOL0     C 1392  12.255   3.756   8.069  0.7766 -0.9423  0.2360
   11MOL0     C 1393  12.260   3.895   7.992 -0.2239 -0.6252  0.9246
   11MOL0     C 1394  12.400   3.945   7.969  0.7398 -0.4579  0.3142
   11MOL0    Cl 1395  12.386   4.088   7.866 -0.3794 -0.3143 -0.3866
   11MOL0     C 1396  11.427   3.521   8.176 -0.4193  0.3182  0.4395
   11MOL0     C 1397  11.305   3.472   8.186 -0.3488 -0.5850  0.1557
   11MOL0     O 1398  10.979   3.643   8.324 -0.6974 -0.2982 -0.2873
   11MOL0     C 1399  10.818   3.500   8.039 -0.2208 -0.3203  0.3586
   11MOL0     C 1400  10.695   3.460   7.982 -0.4601  1.0268 -0.8058
   11MOL0     N 1401  10.136   2.862   8.166 -0.1297 -0.1066 -0.1292
   11MOL0     N 1402  10.130   2.742   8.114  0.7633 -0.1731 -0.1884
   11MOL0     C 1403  10.917   3.236   8.268 -0.2907  0.9662  0.3047
   11MOL0     C 1404  10.993   3.271   8.383  0.3655 -0.5541 -0.8027
   11MOL0     C 1405  11.035   3.391   8.843  0.3372 -0.7213 -0.5027
   11MOL0     C 1406  11.023   3.516   8.905  0.5479  0.2116  1.2578
   11MOL0     C 1407  11.066   3.529   9.031  0.8664  0.7667  0.0447
   11MOL0     C 1408  11.127   3.422   9.104 -0.0518 -0.4690 -0.5124
   11MOL0     O 1409  11.179   3.438   9.230  0.2732  0.3011  0.5285
   11MOL0     C 1410  11.142   3.545   9.325  0.3917  0.8462 -0.4566
   11MOL0     C 1411  11.209   3.516   9.470  0.5634 -0.2518  0.0736
   11MOL0     C 1412  11.202   3.629   9.582 -0.0885 -0.3284 -0.0411
   11MOL0     C 1413  11.144   3.771   9.522 -0.2973  0.0338 -0.4556
   11MOL0     C 1414  11.239   3.850   9.442 -0.2927  0.0277 -0.3512
   11MOL0     C 1415  11.312   3.898   9.365 -0.6367  0.5597  0.6546
   11MOL0     C 1416  11.164   3.314   9.026  0.2446  0.5230  0.1786
   11MOL0     C 1417  11.112   3.292   8.897  0.1283 -0.3149  0.3761
   11MOL0     H 1418  10.797   3.145   8.632 -0.2493  4.1665  0.8438
   11MOL0     H 1419  10.671   3.079   8.432  0.4430  0.5054  1.0135
   11MOL0     H 1420  10.786   3.201   8.006  0.5965 -0.1478  0.1057
   11MOL0     H 1421  10.850   3.041   8.060  1.2971  0.6319  2.2287
   11MOL0     H 1422  10.574   3.108   7.955 -1.6264 -2.4550  1.8198
   11MOL0     H 1423  10.709   3.026   7.863  3.9189 -4.3391  2.1792
   11MOL0     H 1424  10.691   2.834   8.010 -1.1080 -0.5042 -0.2672
   11MOL0     H 1425  10.572   2.914   8.109  0.0482 -2.3715  0.6248
   11MOL0     H 1426  10.428   2.928   7.895 -1.4886  0.7391  7.5105
   11MOL0     H 1427  10.549   2.832   7.809  3.0475  0.3451  1.0388
   11MOL0     H 1428  10.516   2.663   8.007 -0.6775 -1.5397 -0.4644
   11MOL0     H 1429  10.365   2.747   8.034 -0.2521  0.2006 -0.7610
   11MOL0     H 1430  10.441   2.607   7.768  0.4341 -1.1361  0.0204
   11MOL0     H 1431  10.343   2.529   7.884  0.0977  0.2061  2.9388
   11MOL0     H 1432  10.248   2.793   7.789  0.8940 -1.1831  1.7451
   11MOL0     H 1433  10.212   2.650   7.691  2.2076 -5.7158  0.5079
   11MOL0     H 1434  10.140   2.559   7.923  2.6327 -0.0904 -0.7632
   11MOL0     H 1435  10.027   2.650   7.823  0.8362  1.8007  0.4532
   11MOL0     H 1436  10.079   2.939   7.851 -1.9527  1.2517  2.5187
   11MOL0     H 1437  10.084   3.176   8.027  2.5003 -0.4611 -2.6010
   11MOL0     H 1438  10.125   3.130   8.206 -0.1188  0.2458  0.0552
   11MOL0     H 1439  10.301   3.140   7.963 -1.2243  1.1841 -0.0157
   11MOL0     H 1440  10.350   3.062   8.106  1.2382 -0.4029 -3.6503
   11MOL0     H 1441  10.412   3.260   8.200  0.2699 -3.0540 -0.1602
   11MOL0     H 1442  10.238   3.313   8.207  0.4867 -0.6865  0.7253
   11MOL0     H 1443  10.328   3.502   8.105 -0.5340  0.0123  0.1044
   11MOL0     H 1444  10.270   3.404   7.970  1.6185  2.9773 -2.4429
   11MOL0     H 1445  10.513   3.486   8.269  5.6139  2.4409  5.2994
   11MOL0     H 1446  10.607   3.546   8.449  1.9414  1.2566  3.3969
   11MOL0     H 1447  10.771   3.494   8.459 -3.3592 -3.8875  0.2365
   11MOL0     H 1448  10.726   3.666   8.408  1.3149  1.0084 -0.8793
   11MOL0     H 1449  11.145   3.765   8.109  0.9115  1.0952 -1.9877
   11MOL0     H 1450  11.368   3.849   8.121 -4.2956  0.2871  0.2374
   11MOL0     H 1451  11.618   3.697   8.362  0.1618  0.4259 -0.3724
   11MOL0     H 1452  11.694   3.563   8.264 -0.4251 -0.2356  0.7777
   11MOL0     H 1453  11.802   3.854   8.269  0.6270  0.6798 -1.5024
   11MOL0     H 1454  11.853   3.726   8.379 -0.5475  0.8978 -0.5015
   11MOL0     H 1455  11.825   3.690   8.072  0.9043  1.9250 -0.5478
   11MOL0     H 1456  11.909   3.573   8.182 -3.5059 -0.3321  1.7242
   11MOL0     H 1457  11.996   3.850   8.105 -0.4697 -0.0467 -0.9754
   11MOL0     H 1458  12.053   3.785   8.254 -0.6433 -2.1198  1.8449
   11MOL0     H 1459  12.076   3.654   7.977  0.2924 -2.6366  0.3170
   11MOL0     H 1460  12.125   3.592   8.130 -1.2298 -0.9616 -1.1984
   11MOL0     H 1461  12.297   3.774   8.169  0.0086  0.6554  0.2982
   11MOL0     H 1462  12.328   3.691   8.019  1.9518  1.6016 -1.5917
   11MOL0     H 1463  12.200   3.966   8.050 -0.8741 -0.7648  0.4414
   11MOL0     H 1464  12.205   3.883   7.897 -3.1902  2.1128  2.1084
   11MOL0     H 1465  12.458   3.870   7.912  3.0046  2.1767 -1.1130
   11MOL0     H 1466  12.462   3.982   8.051  2.6771  0.7713 -1.5876
   11MOL0     H 1467  11.517   3.460   8.177 -0.6013 -0.0060 -0.9845
   11MOL0     H 1468  11.281   3.366   8.180 -0.0069 -0.5968 -1.5575
   11MOL0     H 1469  10.903   3.502   7.973  0.6322 -0.7008  1.4213
   11MOL0     H 1470  10.704   3.435   7.877 -1.1564  1.0151 -0.8647
   11MOL0     H 1471  10.942   3.256   8.164 -1.6311 -0.0737 -0.2526
   11MOL0     H 1472  11.091   3.318   8.382  1.6948 -3.0880  0.0550
   11MOL0     H 1473  10.965   3.597   8.863 -2.6311 -1.7314  1.5691
   11MOL0     H 1474  11.074   3.626   9.079 -0.9446  1.8494 -1.6454
   11MOL0     H 1475  11.182   3.642   9.293  0.4804 -0.0515 -3.2921
   11MOL0     H 1476  11.033   3.549   9.324  0.3838  1.4374  0.7995
   11MOL0     H 1477  11.311   3.504   9.431 -0.6177 -1.1174 -3.1342
   11MOL0     H 1478  11.172   3.421   9.511 -1.0344  0.4021  0.2222
   11MOL0     H 1479  11.301   3.660   9.619  0.2417  1.3335 -2.1610
   11MOL0     H 1480  11.133   3.594   9.660  0.3059 -0.9305  0.0496
   11MOL0     H 1481  11.105   3.831   9.604 -0.4256  0.6713 -0.9766
   11MOL0     H 1482  11.058   3.743   9.460 -1.3176  1.3389  0.3295
   11MOL0     H 1483  11.376   3.944   9.292 -2.9038 -3.0754 -4.1982
   11MOL0     H 1484  11.225   3.231   9.060  2.1068  1.8630  0.2910
   11MOL0     H 1485  11.136   3.201   8.842 -0.5777 -1.9770  2.6374
   12MOL0     O 1486   5.874   8.287   0.808  0.9186  0.0345 -0.5120
   12MOL0     C 1487   5.979   8.306   0.750 -0.5895 -1.0210 -0.4984
   12MOL0     O 1488   6.110   8.295   0.804  0.1946  0.0495  0.7110
   12MOL0     C 1489   6.139   8.204   0.907  0.1416 -0.7263  0.1531
   12MOL0     C 1490   6.277   8.221   0.962  0.0629 -0.1166 -0.9216
   12MOL0     C 1491   6.318   8.131   1.057 -0.0441  0.0132 -0.2871
   12MOL0     C 1492   6.232   8.022   1.110 -0.4065 -0.5833  0.1226
   12MOL0     O 1493   6.283   7.944   1.205 -0.2623  0.1686  0.2288
   12MOL0     C 1494   6.197   7.876   1.295 -0.1191  0.6356  0.3506
   12MOL0     C 1495   6.227   7.912   1.443 -0.2866 -0.7692  0.0195
   12MOL0     C 1496   6.376   7.900   1.468  0.2511 -0.0564 -0.1347
   12MOL0     C 1497   6.467   8.027   1.453  0.5782  0.9881 -0.0837
   12MOL0     C 1498   6.614   7.989   1.442 -0.4584 -0.8192  0.0207
   12MOL0     C 1499   6.663   7.900   1.558  0.5788  0.6448 -0.1260
   12MOL0     C 1500   6.818   7.908   1.570  1.1871  0.2759 -0.9761
   12MOL0     C 1501   6.895   7.838   1.462 -1.4197  1.0439 -0.2362
   12MOL0     N 1502   7.033   7.847   1.504 -0.0072  1.1580 -0.3872
   12MOL0     C 1503   7.129   7.940   1.471  0.4699  0.0403 -0.0654
   12MOL0     C 1504   7.248   7.895   1.512 -0.5939 -0.1722 -0.3598
   12MOL0     C 1505   7.377   7.964   1.502 -0.2006  0.7077 -0.5895
   12MOL0     C 1506   7.502   7.876   1.525 -0.4474  0.3719  0.3526
   12MOL0     C 1507   7.630   7.958   1.489 -0.2554 -0.2495 -0.5943
   12MOL0     C 1508   7.757   7.863   1.504 -0.2968  1.0159 -0.5487
   12MOL0     O 1509   7.789   7.845   1.644  0.3060 -0.9999 -0.6672
   12MOL0     C 1510   7.848   7.955   1.699 -0.0245  0.1871  0.3488
   12MOL0     C 1511   7.987   7.963   1.692  0.4063  0.0931 -1.2806
   12MOL0     C 1512   8.056   8.073   1.747 -0.7810 -0.6279  1.1758
   12MOL0     C 1513   8.204   8.056   1.751 -0.5411 -0.1381  0.7337
   12MOL0     C 1514   7.987   8.182   1.809 -0.8093  0.0872  0.3104
   12MOL0     C 1515   8.049   8.311   1.854  0.0836  0.8840  0.2979
   12MOL0     O 1516   8.177   8.319   1.880 -0.0838  0.1367  0.2188
   12MOL0     C 1517   8.244   8.427   1.923 -0.5913  0.1864  0.0991
   12MOL0     C 1518   8.260   8.441   2.058 -0.6049  0.3486  0.5485
   12MOL0     C 1519   8.332   8.554   2.107  0.4038  0.7240  0.4469
   12MOL0     C 1520   8.401   8.636   2.012  0.1024 -0.0416 -0.0406
   12MOL0     O 1521   8.485   8.731   2.049 -0.6288 -0.7993 -0.2615
   12MOL0     C 1522   8.470   8.805   2.175  0.3708  0.0604 -0.0205
   12MOL0     C 1523   8.613   8.852   2.212  0.3474  0.1665  0.0302
   12MOL0     C 1524   8.645   8.967   2.119 -0.1367  0.1200  0.9282
   12MOL0     C 1525   8.790   9.008   2.136 -0.5157  0.6092  0.9924
   12MOL0     C 1526   8.826   9.140   2.073  0.3424  0.2350 -0.4702
   12MOL0     C 1527   8.964   9.149   2.004  0.3403 -0.7282  0.2557
   12MOL0     C 1528   9.014   9.297   2.001 -0.1564  0.0319  0.7956
   12MOL0     C 1529   9.159   9.301   1.946 -0.1108  0.4447 -0.8954
   12MOL0    Cl 1530   9.278   9.211   2.058  0.2002  0.1574 -0.2899
   12MOL0     C 1531   8.386   8.613   1.873  0.1757  1.3441  0.3692
   12MOL0     C 1532   8.306   8.510   1.830  0.0266 -1.4584 -0.1858
   12MOL0     O 1533   7.982   8.403   1.859 -0.1372 -0.7076  0.1901
   12MOL0     C 1534   7.848   8.159   1.820  0.0764 -0.1709  0.2264
   12MOL0     C 1535   7.788   8.050   1.770 -0.1083 -0.4239 -0.6511
   12MOL0     N 1536   7.226   7.768   1.560 -0.1344 -0.6016  0.0128
   12MOL0     N 1537   7.102   7.742   1.562  0.5849  0.1866 -0.4423
   12MOL0     C 1538   6.100   8.023   1.058 -0.0970  0.4055 -0.7773
   12MOL0     C 1539   6.057   8.110   0.956 -0.2663 -0.3388 -0.8791
   12MOL0     C 1540   5.967   8.372   0.623  0.3683 -0.1189 -0.8485
   12MOL0     C 1541   5.863   8.466   0.597 -0.9276  0.1249 -0.7829
   12MOL0     C 1542   5.890   8.547   0.485  0.3482  0.1502 -0.3322
   12MOL0     C 1543   5.999   8.537   0.409  0.0160  0.1393  0.1288
   12MOL0     O 1544   6.019   8.633   0.315 -0.5175 -0.2123  0.2905
   12MOL0     C 1545   6.148   8.710   0.317 -0.7474  0.2239  0.0059
   12MOL0     C 1546   6.176   8.773   0.181 -0.1418 -0.3147 -0.4817
   12MOL0     C 1547   6.199   8.662   0.069  0.4790 -0.1125 -0.6381
   12MOL0     C 1548   6.161   8.692  -0.082 -0.4597  0.0860  0.2649
   12MOL0     C 1549   6.208   8.577  -0.172  0.2534  0.0906  0.3732
   12MOL0     C 1550   6.235   8.482  -0.243  0.1794  0.5172 -0.2405
   12MOL0     C 1551   6.097   8.437   0.431 -0.4675 -0.0109 -0.2017
   12MOL0     C 1552   6.084   8.358   0.545  0.8918  1.6097 -0.2890
   12MOL0     H 1553   6.349   8.286   0.913  1.8762 -2.7392 -1.9396
   12MOL0     H 1554   6.418   8.129   1.100 -1.5254 -1.7443  3.5628
   12MOL0     H 1555   6.091   7.896   1.279  0.1470  1.6623 -0.1852
   12MOL0     H 1556   6.207   7.769   1.273 -1.5242  0.3944  0.7428
   12MOL0     H 1557   6.195   8.017   1.436  2.2663 -0.0338 -2.2621
   12MOL0     H 1558   6.165   7.848   1.506  0.4687 -2.0425 -0.4940
   12MOL0     H 1559   6.407   7.857   1.564  3.1569 -1.6914 -1.6872
   12MOL0     H 1560   6.419   7.829   1.397 -0.7929 -0.4117 -0.4411
   12MOL0     H 1561   6.432   8.085   1.367  1.4694  2.0071  0.2147
   12MOL0     H 1562   6.448   8.081   1.546  0.9101  1.0239 -0.0345
   12MOL0     H 1563   6.660   7.942   1.355  0.2673  1.4193 -0.8726
   12MOL0     H 1564   6.658   8.089   1.447 -1.4080 -0.4317  1.3012
   12MOL0     H 1565   6.619   7.928   1.654  3.7869  0.1805  1.6219
   12MOL0     H 1566   6.632   7.795   1.546  2.8839 -0.6233  3.4216
   12MOL0     H 1567   6.860   8.009   1.579  3.0496 -0.5048 -0.5962
   12MOL0     H 1568   6.838   7.868   1.670  0.1930 -2.8980 -1.9375
   12MOL0     H 1569   6.877   7.892   1.368 -2.7799 -1.9744 -1.8647
   12MOL0     H 1570   6.867   7.734   1.440 -1.1640  0.7828  0.6603
   12MOL0     H 1571   7.109   8.032   1.417 -0.3469  0.8443  1.5151
   12MOL0     H 1572   7.386   8.008   1.403 -0.2573 -0.0485 -0.9431
   12MOL0     H 1573   7.368   8.040   1.580  2.2052 -0.0678  0.5441
   12MOL0     H 1574   7.506   7.796   1.450  2.4785  2.4720 -1.9661
   12MOL0     H 1575   7.504   7.841   1.629 -1.1962 -0.2214  0.1744
   12MOL0     H 1576   7.642   8.041   1.559  1.7182  0.5854 -1.8385
   12MOL0     H 1577   7.636   7.997   1.387  3.7413 -1.8920 -1.1869
   12MOL0     H 1578   7.844   7.905   1.453  2.0148 -1.0898  1.3811
   12MOL0     H 1579   7.729   7.762   1.470 -0.0783  1.0209 -0.7427
   12MOL0     H 1580   8.048   7.882   1.653  1.6229 -0.7528  2.0891
   12MOL0     H 1581   8.247   8.132   1.685 -0.2863  1.0023  2.1466
   12MOL0     H 1582   8.250   8.056   1.850 -0.5781 -2.3072  0.8044
   12MOL0     H 1583   8.231   7.955   1.720  1.2917  1.0456 -1.9221
   12MOL0     H 1584   8.228   8.358   2.120 -1.5661  0.9862  0.9411
   12MOL0     H 1585   8.352   8.571   2.212  0.6934  1.7020  0.2495
   12MOL0     H 1586   8.407   8.892   2.154 -3.0136 -1.9513  0.9881
   12MOL0     H 1587   8.426   8.741   2.252 -2.6179 -0.2390 -1.8060
   12MOL0     H 1588   8.619   8.876   2.318  0.7014  1.7291 -0.3215
   12MOL0     H 1589   8.680   8.768   2.194 -3.1603 -2.5586 -1.6700
   12MOL0     H 1590   8.585   9.052   2.153  0.9544  1.8940 -1.3548
   12MOL0     H 1591   8.631   8.942   2.014  2.3018  1.6121  0.1664
   12MOL0     H 1592   8.815   9.010   2.242 -0.6437  0.1512  1.0333
   12MOL0     H 1593   8.860   8.943   2.082  0.7891  1.5520  1.5042
   12MOL0     H 1594   8.806   9.213   2.152 -1.7618 -0.5005 -0.2562
   12MOL0     H 1595   8.765   9.167   1.986  2.5141  1.2923 -1.7687
   12MOL0     H 1596   9.043   9.117   2.073  0.1999 -1.7260 -0.0301
   12MOL0     H 1597   8.964   9.100   1.906 -2.4660 -0.1660 -0.1224
   12MOL0     H 1598   9.003   9.330   2.105 -0.4554 -0.1835  0.8327
   12MOL0     H 1599   8.941   9.353   1.941 -1.2437 -0.0120  2.0382
   12MOL0     H 1600   9.207   9.399   1.935  1.2274 -0.1494 -0.6117
   12MOL0     H 1601   9.169   9.248   1.851  0.1146 -0.0266 -0.6122
   12MOL0     H 1602   8.444   8.670   1.801  3.7430 -1.2088  1.0068
   12MOL0     H 1603   8.310   8.487   1.724  1.7548  1.5318 -0.8650
   12MOL0     H 1604   7.795   8.243   1.864  2.1025  0.2634  2.0080
   12MOL0     H 1605   7.681   8.039   1.778 -0.2388 -1.4512 -2.9686
   12MOL0     H 1606   6.023   7.955   1.094  0.6270 -0.5540 -0.9786
   12MOL0     H 1607   5.961   8.089   0.910 -0.8038 -1.7432  0.7909
   12MOL0     H 1608   5.772   8.472   0.655  0.6052  1.1522  1.6921
   12MOL0     H 1609   5.818   8.619   0.448  1.0680  0.2658 -1.5777
   12MOL0     H 1610   6.142   8.787   0.394  0.5861  1.4182 -1.0401
   12MOL0     H 1611   6.237   8.646   0.322  1.1749  2.1040 -4.4041
   12MOL0     H 1612   6.247   8.854   0.196 -2.4617  1.5097  1.3759
   12MOL0     H 1613   6.092   8.834   0.148  0.1478  1.3952  1.6901
   12MOL0     H 1614   6.139   8.574   0.094  1.5585 -1.0773 -1.3722
   12MOL0     H 1615   6.305   8.636   0.066  1.0346  1.7947  0.2312
   12MOL0     H 1616   6.206   8.789  -0.107 -1.3151  0.0815 -1.4612
   12MOL0     H 1617   6.055   8.711  -0.101 -0.4288  0.9606  0.8826
   12MOL0     H 1618   6.290   8.409  -0.300 -0.9572 -0.9282  0.4452
   12MOL0     H 1619   6.186   8.430   0.369  1.3447 -0.2952  2.3042
   12MOL0     H 1620   6.160   8.284   0.570 -2.2161 -1.9932 -0.5620
   13MOL0     O 1621  11.282   4.578   3.715  0.2778 -0.2951  0.2024
   13MOL0     C 1622  11.313   4.683   3.647  1.0057  0.3254  0.3184
   13MOL0     O 1623  11.412   4.697   3.562  0.9542  0.1915  0.4695
   13MOL0     C 1624  11.513   4.606   3.562  0.5838  0.4412  0.0590
   13MOL0     C 1625  11.566   4.546   3.449 -0.4273 -0.5438 -0.4576
   13MOL0     C 1626  11.673   4.466   3.455 -0.4208  1.3611 -0.0515
   13MOL0     C 1627  11.753   4.457   3.578 -0.2950  0.3728  0.6351
   13MOL0     O 1628  11.880   4.389   3.571  0.1368  0.1988  0.5086
   13MOL0     C 1629  11.977   4.450   3.647  0.3741  0.1089 -0.0292
   13MOL0     C 1630  12.102   4.358   3.667 -0.6121 -0.0379 -0.7655
   13MOL0     C 1631  12.214   4.443   3.741  1.4624  0.5268  0.2330
   13MOL0     C 1632  12.358   4.383   3.730  0.5077 -0.1513 -0.2501
   13MOL0     C 1633  12.454   4.498   3.759 -1.4543 -0.0276  0.0630
   13MOL0     C 1634  12.588   4.487   3.698 -0.5761 -0.1893 -0.7596
   13MOL0     C 1635  12.677   4.374   3.768 -0.6366 -0.4419  0.9619
   13MOL0     C 1636  12.819   4.402   3.736 -0.5533 -0.9030 -0.0466
   13MOL0     N 1637  12.917   4.290   3.761 -0.0256  0.3399 -0.0934
   13MOL0     C 1638  13.053   4.306   3.798  0.1188  0.1200 -0.0538
   13MOL0     C 1639  13.102   4.183   3.787 -0.6758 -0.6531  0.0546
   13MOL0     C 1640  13.240   4.152   3.837 -0.4065  0.3215 -0.2250
   13MOL0     C 1641  13.340   4.157   3.729  0.8745 -1.1262  0.3958
   13MOL0     C 1642  13.488   4.137   3.791  1.2010 -1.2640  0.1198
   13MOL0     C 1643  13.528   4.248   3.880  0.4562 -0.0627  0.2901
   13MOL0     O 1644  13.674   4.262   3.877  0.8221  0.9139 -0.1780
   13MOL0     C 1645  13.729   4.369   3.938 -1.3398  0.1046 -0.3081
   13MOL0     C 1646  13.663   4.463   4.014  0.5402  0.6153  0.2984
   13MOL0     C 1647  13.721   4.581   4.051  1.0005  0.2459 -0.5926
   13MOL0     C 1648  13.633   4.689   4.113  0.3664  0.2285  0.4240
   13MOL0     C 1649  13.861   4.604   4.037  0.2937  0.4338 -0.9903
   13MOL0     C 1650  13.935   4.729   4.064 -0.0166 -1.2964  0.0619
   13MOL0     O 1651  14.063   4.743   4.022 -0.1889 -1.1287 -0.2568
   13MOL0     C 1652  14.133   4.852   4.037 -0.1569 -0.0355  1.3706
   13MOL0     C 1653  14.121   4.971   3.959  0.1837  0.1455  0.0897
   13MOL0     C 1654  14.199   5.077   3.982 -0.4672 -0.3504 -0.5057
   13MOL0     C 1655  14.292   5.082   4.088 -0.0629  0.2776  0.6335
   13MOL0     O 1656  14.366   5.194   4.093  0.2438 -0.0336  0.6543
   13MOL0     C 1657  14.423   5.234   4.215  0.5191  0.3648 -0.0558
   13MOL0     C 1658  14.450   5.386   4.210  0.8178  0.0286  0.9199
   13MOL0     C 1659  14.572   5.414   4.127 -0.1281  0.5829 -0.0011
   13MOL0     C 1660  14.613   5.558   4.121 -0.2765  0.1847 -0.0469
   13MOL0     C 1661  14.744   5.584   4.045 -0.8065  0.4727 -0.5967
   13MOL0     C 1662  14.792   5.727   4.035 -0.1384 -0.2320  0.5364
   13MOL0     C 1663  14.893   5.744   3.928 -0.4862  0.1226 -0.7199
   13MOL0     C 1664  14.972   5.872   3.934 -0.5918  0.1554 -0.1928
   13MOL0    Cl 1665  15.066   5.891   4.080  0.3826  0.2416 -0.3457
   13MOL0     C 1666  14.293   4.969   4.176  0.2761 -0.2072  0.5473
   13MOL0     C 1667  14.214   4.857   4.150  0.8524 -0.4369  0.0314
   13MOL0     O 1668  13.874   4.822   4.108 -0.9178  0.5751 -0.9271
   13MOL0     C 1669  13.921   4.511   3.955 -0.6972 -1.0849 -0.0234
   13MOL0     C 1670  13.856   4.401   3.903  0.5144  0.2228 -0.5344
   13MOL0     N 1671  13.007   4.100   3.731 -0.0883  1.8680  0.1104
   13MOL0     N 1672  12.900   4.159   3.725  0.2352  0.1857 -1.3403
   13MOL0     C 1673  11.705   4.537   3.690 -0.4419  0.2364  0.9679
   13MOL0     C 1674  11.582   4.594   3.685  0.0593 -0.7113  1.2961
   13MOL0     C 1675  11.210   4.787   3.645  0.4587 -0.0265  0.7481
   13MOL0     C 1676  11.110   4.785   3.737 -0.8439 -0.5188  0.5508
   13MOL0     C 1677  11.013   4.885   3.754 -0.6363  0.1362 -0.0346
   13MOL0     C 1678  11.014   5.005   3.677  0.0898  0.5401 -0.5669
   13MOL0     O 1679  10.928   5.103   3.694  1.1013  0.0796  0.6064
   13MOL0     C 1680  10.849   5.112   3.812  0.3330  0.0095  0.5305
   13MOL0     C 1681  10.760   5.227   3.799 -0.6794 -0.3701  0.2245
   13MOL0     C 1682  10.835   5.359   3.806  0.8718 -0.6813 -0.8710
   13MOL0     C 1683  10.747   5.479   3.792 -0.5691 -0.6067 -0.1167
   13MOL0     C 1684  10.691   5.511   3.924  0.0238 -0.5578 -0.4613
   13MOL0     C 1685  10.637   5.547   4.029 -1.2292 -1.6552 -0.4408
   13MOL0     C 1686  11.109   5.007   3.572 -0.9520 -0.0718 -0.9307
   13MOL0     C 1687  11.213   4.908   3.558 -0.7320 -0.6192 -0.2664
   13MOL0     H 1688  11.527   4.573   3.352 -0.2228 -2.1605 -1.0115
   13MOL0     H 1689  11.706   4.424   3.360 -0.2716  3.6194 -1.0558
   13MOL0     H 1690  12.005   4.540   3.592 -2.1213  1.1972  0.3168
   13MOL0     H 1691  11.949   4.485   3.747 -0.6061  0.8535 -0.5406
   13MOL0     H 1692  12.080   4.266   3.722  2.8634 -0.2404  0.5615
   13MOL0     H 1693  12.134   4.311   3.573 -0.9301 -0.4715 -0.6600
   13MOL0     H 1694  12.219   4.541   3.694  0.8786  1.0343  1.2008
   13MOL0     H 1695  12.192   4.445   3.848 -2.0634 -0.8797 -0.3388
   13MOL0     H 1696  12.381   4.289   3.780  2.2267  0.1863 -0.3481
   13MOL0     H 1697  12.374   4.362   3.624  1.1228  1.1615 -0.4410
   13MOL0     H 1698  12.415   4.598   3.736  3.5284  1.9869 -0.9146
   13MOL0     H 1699  12.474   4.492   3.866  3.2886  2.4336 -0.4583
   13MOL0     H 1700  12.592   4.478   3.589  1.2323 -3.1764 -0.5505
   13MOL0     H 1701  12.642   4.579   3.723 -0.4120 -0.8969  1.7636
   13MOL0     H 1702  12.681   4.363   3.877 -0.9111 -1.2098  0.9014
   13MOL0     H 1703  12.649   4.275   3.732 -0.1332 -1.0640  2.2061
   13MOL0     H 1704  12.847   4.489   3.796 -1.2506  1.3231 -2.7655
   13MOL0     H 1705  12.829   4.440   3.634  4.4072  0.9589  0.8196
   13MOL0     H 1706  13.103   4.393   3.838 -1.3157 -0.1132  2.4930
   13MOL0     H 1707  13.268   4.222   3.917  1.8282 -1.7240  0.9222
   13MOL0     H 1708  13.229   4.051   3.879 -1.0978  0.2429 -0.5927
   13MOL0     H 1709  13.332   4.251   3.674  0.9384 -2.3223 -1.7687
   13MOL0     H 1710  13.302   4.097   3.646 -2.4720 -1.0779  1.7083
   13MOL0     H 1711  13.544   4.141   3.697  2.1330 -0.3956  0.6890
   13MOL0     H 1712  13.499   4.041   3.842 -0.3029 -1.6610 -0.2471
   13MOL0     H 1713  13.502   4.220   3.982 -3.5685  0.2443 -0.5124
   13MOL0     H 1714  13.477   4.341   3.854 -2.5634 -2.2040 -2.2510
   13MOL0     H 1715  13.558   4.453   4.038  1.1471 -3.5293  1.9337
   13MOL0     H 1716  13.660   4.709   4.217 -3.0553 -0.2195  1.5478
   13MOL0     H 1717  13.629   4.777   4.048 -0.5671 -0.4408 -0.4622
   13MOL0     H 1718  13.529   4.655   4.111  0.2046  0.7273 -1.0157
   13MOL0     H 1719  14.067   4.973   3.865 -0.4290 -1.1896  0.3892
   13MOL0     H 1720  14.194   5.162   3.914 -3.4065  0.9364  1.1492
   13MOL0     H 1721  14.360   5.220   4.304 -0.6512  1.0151 -0.7700
   13MOL0     H 1722  14.517   5.179   4.223 -0.3727 -1.5598 -2.0555
   13MOL0     H 1723  14.363   5.427   4.158  2.0681 -3.0376 -4.3302
   13MOL0     H 1724  14.453   5.426   4.312 -0.4666  1.4902  0.4213
   13MOL0     H 1725  14.565   5.374   4.026  3.9085 -2.1856  0.5393
   13MOL0     H 1726  14.658   5.364   4.174 -2.5945 -2.9063  1.1678
   13MOL0     H 1727  14.544   5.606   4.052 -0.5527  1.9617  1.3760
   13MOL0     H 1728  14.599   5.606   4.219 -0.8086 -0.8346  0.3879
   13MOL0     H 1729  14.731   5.553   3.941 -0.0835  2.6831 -1.4148
   13MOL0     H 1730  14.816   5.513   4.087 -1.6702  0.8760  1.7055
   13MOL0     H 1731  14.708   5.795   4.023  0.3241  0.4926  1.2586
   13MOL0     H 1732  14.824   5.748   4.138 -0.2912  2.3891  0.1164
   13MOL0     H 1733  14.846   5.728   3.830 -1.2770 -1.8488 -0.0685
   13MOL0     H 1734  14.961   5.658   3.934  0.5333  1.0129  1.4579
   13MOL0     H 1735  14.915   5.963   3.916  2.2987  2.6945  2.4045
   13MOL0     H 1736  15.046   5.878   3.852 -0.0243  0.1824  0.3121
   13MOL0     H 1737  14.368   4.958   4.254  2.6650 -0.9866 -1.7029
   13MOL0     H 1738  14.216   4.782   4.228 -2.0836  0.5827  1.2179
   13MOL0     H 1739  14.025   4.529   3.929  0.5045 -2.2770  3.4167
   13MOL0     H 1740  13.907   4.329   3.839  0.7247 -0.4122  0.3426
   13MOL0     H 1741  11.746   4.550   3.790  0.3790  3.0706  0.3500
   13MOL0     H 1742  11.531   4.633   3.772 -0.1506 -2.1895  1.8692
   13MOL0     H 1743  11.110   4.718   3.822  0.8678  1.8406  2.5420
   13MOL0     H 1744  10.958   4.887   3.847  3.0742  0.8159  2.3205
   13MOL0     H 1745  10.788   5.021   3.819  1.1955 -0.5591  0.9457
   13MOL0     H 1746  10.917   5.123   3.897  0.1469  0.4848  0.6142
   13MOL0     H 1747  10.674   5.233   3.867 -2.2897  0.1271 -1.7431
   13MOL0     H 1748  10.728   5.233   3.694  4.5165  1.9310 -1.5502
   13MOL0     H 1749  10.902   5.354   3.720  1.7012 -0.3981 -0.2607
   13MOL0     H 1750  10.895   5.364   3.898 -2.8118 -1.6958  1.8452
   13MOL0     H 1751  10.666   5.474   3.718  3.0260 -0.9753 -4.4591
   13MOL0     H 1752  10.821   5.556   3.765 -0.7739 -0.2663  0.2741
   13MOL0     H 1753  10.580   5.582   4.112  0.4013 -0.3451  0.1920
   13MOL0     H 1754  11.100   5.090   3.501  0.1760  0.2054 -0.7608
   13MOL0     H 1755  11.287   4.923   3.481 -0.1099 -1.2109  0.2089
   14MOL0     O 1756   0.137   4.644   7.970 -0.4725  0.6892 -0.0539
   14MOL0     C 1757   0.017   4.647   7.974  0.7144  0.9238  0.6194
   14MOL0     O 1758  -0.062   4.608   8.072 -0.1320  0.0290 -0.4005
   14MOL0     C 1759  -0.011   4.546   8.186  0.0456  0.2015 -0.5204
   14MOL0     C 1760   0.085   4.440   8.183 -0.6740 -0.4614 -0.0068
   14MOL0     C 1761   0.111   4.373   8.306  0.5451  0.2579  0.0597
   14MOL0     C 1762   0.027   4.393   8.422  0.1342 -0.1765  0.0933
   14MOL0     O 1763   0.046   4.329   8.537 -0.2214  0.6195  0.1538
   14MOL0     C 1764  -0.074   4.257   8.587 -0.2828  0.4454  0.9506
   14MOL0     C 1765  -0.107   4.306   8.733 -0.2523 -0.0610 -0.3071
   14MOL0     C 1766  -0.207   4.213   8.799 -0.7188 -0.0841  0.0907
   14MOL0     C 1767  -0.237   4.279   8.936 -0.2057  0.6124  0.3995
   14MOL0     C 1768  -0.309   4.167   9.020 -1.2073  0.6328 -0.0923
   14MOL0     C 1769  -0.442   4.114   8.961  0.4152 -0.3936 -0.1566
   14MOL0     C 1770  -0.504   4.002   9.053  0.1553  0.4568  0.2838
   14MOL0     C 1771  -0.588   3.908   8.966  0.7270  0.3272 -0.5783
   14MOL0     N 1772  -0.697   3.980   8.891 -0.0426 -0.7476  0.4058
   14MOL0     C 1773  -0.681   4.036   8.761 -0.0243  0.0296 -0.4133
   14MOL0     C 1774  -0.795   4.089   8.725  0.6487 -0.2955  0.9051
   14MOL0     C 1775  -0.806   4.156   8.588 -0.0450  0.1743 -0.0684
   14MOL0     C 1776  -0.917   4.091   8.502  0.3107 -0.9456  0.1371
   14MOL0     C 1777  -0.931   4.188   8.387 -0.4613  0.4223  0.2998
   14MOL0     C 1778  -1.032   4.149   8.282 -0.4933  0.3086  0.3263
   14MOL0     O 1779  -0.973   4.049   8.187  0.0769 -0.4732 -0.0775
   14MOL0     C 1780  -1.069   3.970   8.129  0.0161 -0.0642 -0.0275
   14MOL0     C 1781  -1.199   4.001   8.102  0.2080  0.1103 -0.5586
   14MOL0     C 1782  -1.284   3.917   8.030  1.1062 -0.4152  0.3986
   14MOL0     C 1783  -1.426   3.972   8.003 -0.0671  0.0901  0.1301
   14MOL0     C 1784  -1.251   3.794   7.979  0.1919  0.6323 -0.5796
   14MOL0     C 1785  -1.333   3.698   7.899 -0.2743  1.0101  0.4124
   14MOL0     O 1786  -1.300   3.692   7.774 -0.3565 -0.1230  0.3973
   14MOL0     C 1787  -1.391   3.655   7.672  0.0579  0.1056  0.5017
   14MOL0     C 1788  -1.534   3.660   7.681 -0.4435  0.1296 -0.7105
   14MOL0     C 1789  -1.618   3.611   7.575 -0.3009 -0.0153 -0.0741
   14MOL0     C 1790  -1.561   3.580   7.452  0.6716  0.5498  0.4384
   14MOL0     O 1791  -1.644   3.542   7.350  0.5048 -0.1448 -0.7550
   14MOL0     C 1792  -1.608   3.416   7.296 -0.4360 -0.4425 -0.5757
   14MOL0     C 1793  -1.695   3.378   7.175 -1.1629  0.7584  0.2652
   14MOL0     C 1794  -1.847   3.355   7.200 -0.2138  0.6882  0.7597
   14MOL0     C 1795  -1.937   3.403   7.089  0.0164  0.2552  0.4962
   14MOL0     C 1796  -2.083   3.348   7.102  0.3013  0.5018 -0.0361
   14MOL0     C 1797  -2.182   3.392   6.995 -0.2657 -0.0507 -0.8198
   14MOL0     C 1798  -2.307   3.296   6.992 -0.2799 -0.4271 -0.4072
   14MOL0     C 1799  -2.416   3.352   6.912  0.2197 -0.0542  0.5680
   14MOL0    Cl 1800  -2.560   3.254   6.944 -0.6338 -0.4526  0.3833
   14MOL0     C 1801  -1.428   3.601   7.432 -0.8583 -0.2618  1.0136
   14MOL0     C 1802  -1.341   3.628   7.545 -0.5407  0.1400  0.7057
   14MOL0     O 1803  -1.428   3.646   7.954 -0.2302  0.6485  0.1391
   14MOL0     C 1804  -1.123   3.754   8.011 -0.1352  0.6335 -0.3137
   14MOL0     C 1805  -1.033   3.842   8.076  0.5784  0.0083  0.3891
   14MOL0     N 1806  -0.888   4.063   8.828 -0.6535 -0.8104  0.1592
   14MOL0     N 1807  -0.830   3.989   8.916 -0.3444 -0.1869  0.2483
   14MOL0     C 1808  -0.050   4.507   8.421  0.5754  0.1752 -0.3505
   14MOL0     C 1809  -0.074   4.579   8.304 -0.5966 -0.1315 -0.3313
   14MOL0     C 1810  -0.058   4.707   7.858 -0.9733  0.1514 -0.4641
   14MOL0     C 1811  -0.204   4.695   7.855 -1.3858 -0.5022  0.0661
   14MOL0     C 1812  -0.279   4.744   7.740  0.1063 -0.0022 -0.4332
   14MOL0     C 1813  -0.220   4.809   7.637  0.4216  0.4316  1.5676
   14MOL0     O 1814  -0.293   4.875   7.537 -0.2189  0.5215 -0.6529
   14MOL0     C 1815  -0.233   4.960   7.438  0.3518  0.2515  0.2515
   14MOL0     C 1816  -0.337   5.024   7.349  0.2723 -0.1580 -0.2125
   14MOL0     C 1817  -0.273   5.139   7.264  0.3405 -0.1483  0.8329
   14MOL0     C 1818  -0.366   5.185   7.167 -0.2169 -0.5380 -0.1131
   14MOL0     C 1819  -0.485   5.258   7.225  0.2706  0.0715  0.2873
   14MOL0     C 1820  -0.593   5.293   7.269 -0.3515  0.6255 -0.3849
   14MOL0     C 1821  -0.082   4.823   7.643  0.8654  0.1053  0.7822
   14MOL0     C 1822  -0.002   4.764   7.746 -0.1147 -0.7960  0.3196
   14MOL0     H 1823   0.142   4.422   8.092 -1.7081  0.4336 -0.8700
   14MOL0     H 1824   0.184   4.294   8.320  0.0588  0.1004  1.9388
   14MOL0     H 1825  -0.154   4.265   8.512 -1.8283 -3.4380  1.9517
   14MOL0     H 1826  -0.055   4.150   8.598 -1.8595  0.2580  2.3512
   14MOL0     H 1827  -0.021   4.310   8.801 -0.6085  0.2023  0.1306
   14MOL0     H 1828  -0.171   4.394   8.729 -1.6221 -0.7381  2.8997
   14MOL0     H 1829  -0.294   4.210   8.732  1.2133  0.4612 -2.5788
   14MOL0     H 1830  -0.168   4.112   8.804  3.0577  1.2906  2.3682
   14MOL0     H 1831  -0.155   4.320   8.995 -0.7541  0.2790  1.4298
   14MOL0     H 1832  -0.318   4.351   8.920  1.0396  2.2767  1.3449
   14MOL0     H 1833  -0.245   4.078   9.024 -0.2241  1.3117 -0.3589
   14MOL0     H 1834  -0.316   4.201   9.123 -1.0846  1.2568 -0.2893
   14MOL0     H 1835  -0.510   4.200   8.971 -1.1842 -1.3705 -1.9848
   14MOL0     H 1836  -0.435   4.087   8.855 -2.2288 -4.3682  0.4824
   14MOL0     H 1837  -0.425   3.943   9.102 -0.4073  0.5334  1.3160
   14MOL0     H 1838  -0.556   4.043   9.140  2.7481  0.1938  2.1000
   14MOL0     H 1839  -0.627   3.823   9.023  2.3916  1.0762  1.8408
   14MOL0     H 1840  -0.519   3.865   8.892  0.5636  0.9431 -1.1020
   14MOL0     H 1841  -0.590   4.040   8.701  1.4015  4.2722  1.6125
   14MOL0     H 1842  -0.829   4.257   8.623  0.8635  0.5726 -0.5866
   14MOL0     H 1843  -0.711   4.154   8.535 -0.6164 -2.5414 -1.1643
   14MOL0     H 1844  -1.015   4.094   8.551  0.6172  1.3692  0.7005
   14MOL0     H 1845  -0.887   3.988   8.478  0.5152 -1.4613  2.3961
   14MOL0     H 1846  -0.839   4.222   8.339  0.1838  1.7793  2.4048
   14MOL0     H 1847  -0.966   4.285   8.421  3.1585  2.0694 -0.2152
   14MOL0     H 1848  -1.065   4.238   8.226 -1.1734 -0.2815 -0.2427
   14MOL0     H 1849  -1.109   4.098   8.341  1.7965 -5.1513 -0.7629
   14MOL0     H 1850  -1.237   4.098   8.134  0.2938  0.0938 -0.4072
   14MOL0     H 1851  -1.470   3.982   8.103  2.2520 -0.7909  1.3119
   14MOL0     H 1852  -1.435   4.067   7.949 -4.5137  0.0912  0.4919
   14MOL0     H 1853  -1.480   3.901   7.940  4.1438 -3.6406  0.2252
   14MOL0     H 1854  -1.583   3.697   7.770  3.8392  1.3919  1.4038
   14MOL0     H 1855  -1.727   3.610   7.581 -0.3214  0.8626 -0.1340
   14MOL0     H 1856  -1.505   3.420   7.262 -0.7278  1.7427 -1.3378
   14MOL0     H 1857  -1.624   3.331   7.362 -1.5931  0.8822  0.9279
   14MOL0     H 1858  -1.675   3.445   7.091  2.0282  0.3209  0.5193
   14MOL0     H 1859  -1.651   3.281   7.152  0.7606  1.7150 -0.3967
   14MOL0     H 1860  -1.878   3.408   7.291 -0.4363  0.4685  0.8112
   14MOL0     H 1861  -1.870   3.252   7.228 -1.4370  0.8663  0.4724
   14MOL0     H 1862  -1.937   3.512   7.081 -0.7347  0.1846 -0.8053
   14MOL0     H 1863  -1.896   3.356   6.999  0.3734  2.1584 -0.3863
   14MOL0     H 1864  -2.121   3.383   7.198  0.6821 -3.3314  1.7039
   14MOL0     H 1865  -2.078   3.239   7.101  0.4635  0.4767 -2.1022
   14MOL0     H 1866  -2.215   3.492   7.025 -0.9011 -0.6560  0.6120
   14MOL0     H 1867  -2.133   3.395   6.897  1.1005 -2.2401 -0.2628
   14MOL0     H 1868  -2.334   3.281   7.096  2.0532 -2.4815 -0.0058
   14MOL0     H 1869  -2.283   3.199   6.948 -0.4332 -0.8547  0.4469
   14MOL0     H 1870  -2.399   3.348   6.804 -4.9413 -2.4317 -0.4781
   14MOL0     H 1871  -2.437   3.456   6.937 -2.8744 -0.1762 -0.9306
   14MOL0     H 1872  -1.387   3.573   7.336  2.3558 -0.6115  2.3832
   14MOL0     H 1873  -1.234   3.633   7.531 -0.8714 -0.0192 -2.7832
   14MOL0     H 1874  -1.100   3.658   7.966 -5.1070  0.1630 -2.5685
   14MOL0     H 1875  -0.928   3.821   8.096  0.6965 -0.0259 -0.2478
   14MOL0     H 1876  -0.092   4.544   8.514  2.8559 -0.0095  0.8142
   14MOL0     H 1877  -0.144   4.662   8.315 -1.1934 -0.2107 -2.8470
   14MOL0     H 1878  -0.254   4.640   7.934 -0.5927 -1.1468  0.1258
   14MOL0     H 1879  -0.386   4.742   7.727 -0.2992  2.2715  1.7975
   14MOL0     H 1880  -0.176   5.037   7.492 -1.4147  1.0457  1.0398
   14MOL0     H 1881  -0.163   4.898   7.381 -0.9088 -3.4744  2.4017
   14MOL0     H 1882  -0.416   5.065   7.412 -1.3301  0.4505 -2.4655
   14MOL0     H 1883  -0.380   4.943   7.290 -0.9800  0.6946 -0.5227
   14MOL0     H 1884  -0.183   5.109   7.209  1.1974  0.4177  1.8981
   14MOL0     H 1885  -0.240   5.227   7.319  2.1414 -0.3328  0.1115
   14MOL0     H 1886  -0.410   5.108   7.103 -3.0358 -0.0016  1.0239
   14MOL0     H 1887  -0.323   5.260   7.100 -0.8676  1.1805  1.2902
   14MOL0     H 1888  -0.687   5.329   7.306  1.8624  6.8760  0.3061
   14MOL0     H 1889  -0.040   4.888   7.567 -0.9160  1.3855  0.8297
   14MOL0     H 1890   0.104   4.787   7.756 -0.8408  2.9529  0.6763
   15MOL0     O 1891   0.734   1.987   6.804 -0.5366 -0.0458  0.3820
   15MOL0     C 1892   0.802   1.940   6.715 -0.2803  0.3878  0.4634
   15MOL0     O 1893   0.860   1.997   6.613  0.3822 -0.0318  0.5572
   15MOL0     C 1894   0.857   2.138   6.607  0.4206  0.2368 -0.8599
   15MOL0     C 1895   0.963   2.203   6.660  0.2998 -0.0511  1.0720
   15MOL0     C 1896   0.969   2.342   6.644 -0.7404 -0.1448 -0.5609
   15MOL0     C 1897   0.866   2.411   6.584 -0.3950  0.0430 -1.4526
   15MOL0     O 1898   0.885   2.546   6.582 -0.0091 -0.1808 -0.3404
   15MOL0     C 1899   0.819   2.623   6.484 -0.3083  0.1586  0.3691
   15MOL0     C 1900   0.902   2.750   6.491 -0.3813 -0.6272  0.7841
   15MOL0     C 1901   0.870   2.847   6.602  0.2754  1.0173 -0.3493
   15MOL0     C 1902   0.737   2.934   6.580  0.5230  0.2596  0.6945
   15MOL0     C 1903   0.670   2.991   6.711 -0.3766 -0.7287 -0.3963
   15MOL0     C 1904   0.766   3.078   6.793  0.1525 -0.6982  0.2736
   15MOL0     C 1905   0.728   3.078   6.935  0.2139 -0.4144 -0.2436
   15MOL0     C 1906   0.834   3.106   7.038 -0.2575 -1.0756  0.0872
   15MOL0     N 1907   0.913   3.231   7.028 -0.0946 -0.2912  0.3629
   15MOL0     C 1908   0.881   3.357   7.074  0.7571 -1.3617  0.7000
   15MOL0     C 1909   0.989   3.436   7.047 -0.2390  0.5339  0.1903
   15MOL0     C 1910   1.020   3.584   7.068  0.3898  0.4715  0.0323
   15MOL0     C 1911   1.009   3.652   6.935 -0.8519 -0.4062 -0.2504
   15MOL0     C 1912   1.142   3.654   6.852 -0.7833 -0.5966  0.0386
   15MOL0     C 1913   1.243   3.762   6.905  0.2120  0.2328  0.2661
   15MOL0     O 1914   1.319   3.722   7.022  0.7532 -0.3132 -0.5607
   15MOL0     C 1915   1.404   3.613   7.023 -0.3001  1.2705  0.1261
   15MOL0     C 1916   1.479   3.572   6.910 -0.4949 -0.1462 -0.6118
   15MOL0     C 1917   1.574   3.464   6.913  0.5018  0.4788  0.7892
   15MOL0     C 1918   1.659   3.445   6.794 -0.1411 -0.5864  0.3878
   15MOL0     C 1919   1.578   3.377   7.028  0.2806 -0.2168  0.3974
   15MOL0     C 1920   1.657   3.258   7.036 -0.6498  0.4841 -0.7595
   15MOL0     O 1921   1.660   3.172   6.928  0.1283  0.0312  0.3537
   15MOL0     C 1922   1.741   3.061   6.926 -0.3883 -0.5789 -0.2620
   15MOL0     C 1923   1.843   3.076   6.832 -0.5185 -0.4846 -0.1106
   15MOL0     C 1924   1.939   2.983   6.809  0.4426  0.1065 -0.1341
   15MOL0     C 1925   1.938   2.862   6.880  0.0371  0.3609  0.5796
   15MOL0     O 1926   2.031   2.771   6.830 -0.3248 -0.0054  0.5515
   15MOL0     C 1927   2.038   2.652   6.904  0.0111 -0.1207  0.1422
   15MOL0     C 1928   2.147   2.572   6.845  0.4986 -0.0665 -0.6282
   15MOL0     C 1929   2.285   2.621   6.889  0.1737 -0.5658  0.6227
   15MOL0     C 1930   2.331   2.614   7.035 -0.0514 -0.7181 -0.6649
   15MOL0     C 1931   2.471   2.681   7.054  0.0573  0.7130  0.1786
   15MOL0     C 1932   2.585   2.600   6.975 -0.7904  0.4287 -0.4995
   15MOL0     C 1933   2.713   2.670   7.029  0.6910 -0.6342 -0.6282
   15MOL0     C 1934   2.821   2.677   6.924  0.4140 -1.1264 -0.5176
   15MOL0    Cl 1935   2.863   2.526   6.828  0.4646  0.9221  0.0317
   15MOL0     C 1936   1.832   2.843   6.981 -0.4551 -0.0961  0.4744
   15MOL0     C 1937   1.740   2.948   7.007  0.8541 -0.7931 -0.4439
   15MOL0     O 1938   1.726   3.240   7.139  0.6162 -0.2924  0.9121
   15MOL0     C 1939   1.490   3.411   7.138  0.4079  0.0136  0.2972
   15MOL0     C 1940   1.420   3.530   7.138  0.8757  0.9851 -0.0603
   15MOL0     N 1941   1.086   3.349   6.999 -0.0304  0.3888  0.0283
   15MOL0     N 1942   1.042   3.221   6.990  0.2540 -0.7504  0.9573
   15MOL0     C 1943   0.751   2.341   6.536 -0.1374 -0.1421 -0.3039
   15MOL0     C 1944   0.756   2.203   6.540 -0.2758 -0.0553  0.2217
   15MOL0     C 1945   0.822   1.787   6.721 -0.0822 -0.4251 -0.2567
   15MOL0     C 1946   0.847   1.711   6.612  0.1150 -0.5355 -0.3620
   15MOL0     C 1947   0.868   1.582   6.617  0.3750  0.9079 -0.7738
   15MOL0     C 1948   0.862   1.513   6.736 -0.2824  0.3560  0.6754
   15MOL0     O 1949   0.886   1.378   6.738  0.0874  0.1753  0.2753
   15MOL0     C 1950   0.854   1.308   6.864 -0.8627  0.6715  0.9606
   15MOL0     C 1951   0.918   1.170   6.834  0.1418 -0.2390  0.0739
   15MOL0     C 1952   1.073   1.173   6.827 -0.4898 -0.7976 -0.4562
   15MOL0     C 1953   1.142   1.045   6.813  0.7298 -0.3821  0.1762
   15MOL0     C 1954   1.141   0.989   6.672  0.3703  1.0080  0.8875
   15MOL0     C 1955   1.160   0.955   6.557 -0.3062 -0.2952 -0.2269
   15MOL0     C 1956   0.809   1.586   6.842  0.1123 -0.5077 -0.2807
   15MOL0     C 1957   0.807   1.726   6.845  0.0838 -0.0147 -0.0795
   15MOL0     H 1958   1.044   2.150   6.708  0.7830  1.2490  1.7152
   15MOL0     H 1959   1.056   2.390   6.689 -0.5070 -0.1323 -1.0121
   15MOL0     H 1960   0.816   2.574   6.387 -0.9147  1.2609 -0.1811
   15MOL0     H 1961   0.711   2.636   6.499 -0.5609  0.5917 -1.6321
   15MOL0     H 1962   1.000   2.717   6.527  2.5186  2.7104 -3.1242
   15MOL0     H 1963   0.901   2.789   6.389 -0.8964 -0.9959  0.6413
   15MOL0     H 1964   0.861   2.791   6.695  0.2162  1.7236  0.0806
   15MOL0     H 1965   0.958   2.910   6.614 -0.2481  1.4125  1.8637
   15MOL0     H 1966   0.754   3.014   6.507 -0.8168 -2.4060 -2.8464
   15MOL0     H 1967   0.658   2.874   6.533 -0.1884  0.8233  1.1418
   15MOL0     H 1968   0.574   3.035   6.684  0.6845  2.8991  1.2368
   15MOL0     H 1969   0.645   2.907   6.776 -0.9446 -1.4864 -1.5512
   15MOL0     H 1970   0.862   3.028   6.780 -0.5887 -1.8096 -1.2679
   15MOL0     H 1971   0.760   3.174   6.740  0.4904 -2.4459 -3.2198
   15MOL0     H 1972   0.637   3.136   6.952  0.5465 -0.0001  0.1471
   15MOL0     H 1973   0.707   2.974   6.962  2.4611 -0.7934  0.2130
   15MOL0     H 1974   0.912   3.031   7.018  1.2250  0.3324  0.4284
   15MOL0     H 1975   0.804   3.082   7.140  3.0998  1.8594  1.9945
   15MOL0     H 1976   0.785   3.380   7.118  1.3394  1.6581  0.6303
   15MOL0     H 1977   0.942   3.629   7.130  2.1008 -1.9853  4.3815
   15MOL0     H 1978   1.114   3.614   7.114  1.0734  1.6389 -1.9785
   15MOL0     H 1979   0.970   3.753   6.950 -4.7890 -1.7206 -0.2647
   15MOL0     H 1980   0.939   3.593   6.874  1.0229 -1.5128 -1.4237
   15MOL0     H 1981   1.104   3.697   6.759 -1.4459  0.2451  0.6774
   15MOL0     H 1982   1.200   3.566   6.826  2.9874  2.0281 -1.2902
   15MOL0     H 1983   1.193   3.855   6.934  0.3980 -0.1098  1.7661
   15MOL0     H 1984   1.312   3.792   6.826  1.0956  2.2432  1.7463
   15MOL0     H 1985   1.460   3.635   6.824 -4.9809  0.4161  0.5677
   15MOL0     H 1986   1.613   3.469   6.698  2.0485 -1.2744 -0.9339
   15MOL0     H 1987   1.743   3.515   6.803 -0.9450  0.2262  1.9862
   15MOL0     H 1988   1.720   3.354   6.799 -1.2269 -1.2604  2.6600
   15MOL0     H 1989   1.843   3.162   6.766  1.0593  0.0018  0.4910
   15MOL0     H 1990   2.012   2.995   6.729 -0.2824  1.2724 -0.6485
   15MOL0     H 1991   2.072   2.675   7.006 -0.7220 -1.4242  0.7040
   15MOL0     H 1992   1.950   2.588   6.902  0.6585 -1.1105  1.4901
   15MOL0     H 1993   2.127   2.468   6.870 -2.4166  0.7010  0.6484
   15MOL0     H 1994   2.138   2.586   6.736  1.6730  0.5162 -0.6659
   15MOL0     H 1995   2.292   2.726   6.862  1.0389 -0.9185 -0.6090
   15MOL0     H 1996   2.349   2.570   6.817  0.4956 -0.8106  1.0788
   15MOL0     H 1997   2.254   2.651   7.104  1.3790 -0.8588  1.0559
   15MOL0     H 1998   2.354   2.511   7.062  1.4208  0.4551  3.1901
   15MOL0     H 1999   2.494   2.672   7.161  3.5061  0.6220 -0.4632
   15MOL0     H 2000   2.482   2.786   7.028 -0.2659  0.1034 -2.7939
   15MOL0     H 2001   2.572   2.495   7.004 -0.2438  0.1384 -1.2491
   15MOL0     H 2002   2.559   2.611   6.870 -0.9396  2.1457 -0.3076
   15MOL0     H 2003   2.768   2.618   7.109  4.1814  0.3444 -2.1715
   15MOL0     H 2004   2.688   2.770   7.065 -1.7696 -0.0137 -3.6845
   15MOL0     H 2005   2.918   2.713   6.959 -1.1138  2.1661  0.7469
   15MOL0     H 2006   2.779   2.751   6.856 -2.0899  0.8670  2.8873
   15MOL0     H 2007   1.820   2.749   7.035 -0.4355  1.0799  2.6368
   15MOL0     H 2008   1.669   2.936   7.089  0.9933  1.8205  0.1279
   15MOL0     H 2009   1.474   3.360   7.233 -0.1879  1.4041  0.9682
   15MOL0     H 2010   1.366   3.554   7.230  0.1882  1.7105 -0.6425
   15MOL0     H 2011   0.660   2.390   6.506 -0.4176  0.3770  1.3100
   15MOL0     H 2012   0.677   2.141   6.498  3.8857 -4.8487 -1.7378
   15MOL0     H 2013   0.847   1.749   6.510 -0.1786 -0.4782 -0.3407
   15MOL0     H 2014   0.902   1.533   6.526 -1.6810 -0.6992 -0.7448
   15MOL0     H 2015   0.905   1.355   6.948  0.3603 -0.8854  1.1324
   15MOL0     H 2016   0.749   1.297   6.894 -1.2280  2.8201  0.6693
   15MOL0     H 2017   0.887   1.128   6.738 -1.5457 -1.9773  1.3335
   15MOL0     H 2018   0.880   1.100   6.908  1.0901 -0.2137  0.6033
   15MOL0     H 2019   1.112   1.219   6.919 -1.1630  0.1254 -0.6225
   15MOL0     H 2020   1.097   1.239   6.744 -1.4340  2.4579  1.6681
   15MOL0     H 2021   1.093   0.976   6.881 -0.8997 -0.3122 -0.8813
   15MOL0     H 2022   1.250   1.043   6.833  1.4118 -1.5590 -2.9192
   15MOL0     H 2023   1.174   0.934   6.453 -0.3394  2.5817 -0.8932
   15MOL0     H 2024   0.797   1.537   6.938  2.7864 -0.1754  0.3223
   15MOL0     H 2025   0.788   1.781   6.937  1.5545 -0.5493  0.5732
   16MOL0     O 2026   0.353  10.800   1.159 -0.4841  0.0895 -0.5072
   16MOL0     C 2027   0.280  10.873   1.216 -0.6253 -0.7723 -0.5302
   16MOL0     O 2028   0.274  11.003   1.196 -0.0015 -0.7150 -0.4245
   16MOL0     C 2029   0.331  11.066   1.093  0.1676  0.2226  0.1359
   16MOL0     C 2030   0.458  11.115   1.107  0.4333 -1.1947 -0.0479
   16MOL0     C 2031   0.525  11.161   0.998 -0.7655  1.2591 -0.9188
   16MOL0     C 2032   0.460  11.180   0.872 -0.1255  0.7186 -0.6501
   16MOL0     O 2033   0.518  11.245   0.765 -0.3281 -0.7667  0.5286
   16MOL0     C 2034   0.653  11.218   0.735  0.4266  0.0622  0.3384
   16MOL0     C 2035   0.676  11.239   0.590  0.6531  0.0223  0.7206
   16MOL0     C 2036   0.576  11.161   0.502 -0.4804  0.2898 -0.7966
   16MOL0     C 2037   0.605  11.185   0.359  0.4148 -0.4808 -0.2330
   16MOL0     C 2038   0.516  11.092   0.264  0.3768 -0.0643 -1.0204
   16MOL0     C 2039   0.561  11.097   0.123 -0.2373 -0.7502  0.5849
   16MOL0     C 2040   0.505  11.217   0.043 -0.7719 -0.2155  0.3891
   16MOL0     C 2041   0.564  11.205  -0.100  0.4160  1.3172  0.7081
   16MOL0     N 2042   0.475  11.294  -0.182  0.7125 -0.0085  0.4249
   16MOL0     C 2043   0.499  11.420  -0.224 -0.1193 -0.6828  0.1465
   16MOL0     C 2044   0.392  11.461  -0.293 -0.1410 -0.2051  0.2393
   16MOL0     C 2045   0.369  11.586  -0.364  0.5083  0.4718  0.5777
   16MOL0     C 2046   0.503  11.635  -0.430 -0.7093  0.0050  0.8485
   16MOL0     C 2047   0.494  11.762  -0.508 -0.6695 -0.6599 -0.2439
   16MOL0     C 2048   0.616  11.781  -0.607  1.3148  0.6628 -1.4536
   16MOL0     O 2049   0.570  11.824  -0.735 -0.6078 -1.2307  0.9062
   16MOL0     C 2050   0.664  11.859  -0.831 -0.4553 -0.6345  0.3511
   16MOL0     C 2051   0.793  11.901  -0.797  0.4113  0.3075  0.2794
   16MOL0     C 2052   0.882  11.948  -0.906 -0.1919 -0.6167 -0.6359
   16MOL0     C 2053   1.023  12.002  -0.879  0.0156 -0.1152 -0.5810
   16MOL0     C 2054   0.838  11.931  -1.042 -0.2302  0.7183  0.6529
   16MOL0     C 2055   0.926  11.944  -1.158 -0.7881 -0.4521 -0.2630
   16MOL0     O 2056   0.873  12.009  -1.273  0.1468 -0.3480 -0.7297
   16MOL0     C 2057   0.954  12.006  -1.388  0.3997  0.0645 -0.4311
   16MOL0     C 2058   1.059  12.092  -1.422 -0.2910  0.5424  0.1810
   16MOL0     C 2059   1.126  12.080  -1.543 -0.2566 -0.4218 -0.2533
   16MOL0     C 2060   1.091  11.976  -1.636 -0.1367  0.3642 -0.4178
   16MOL0     O 2061   1.173  11.956  -1.743  0.4237 -0.0047 -0.1094
   16MOL0     C 2062   1.241  12.073  -1.799  0.1454  0.1726  0.4728
   16MOL0     C 2063   1.163  12.195  -1.836  1.0512 -0.3254  0.0962
   16MOL0     C 2064   1.240  12.298  -1.911  0.3261 -0.6118 -0.4408
   16MOL0     C 2065   1.162  12.396  -1.995  1.1471 -0.0695 -0.4100
   16MOL0     C 2066   1.257  12.507  -2.044  0.7565  0.6200 -0.1223
   16MOL0     C 2067   1.382  12.452  -2.110 -0.1906 -0.4003  0.1020
   16MOL0     C 2068   1.356  12.360  -2.238 -0.1879 -0.9796 -0.5783
   16MOL0     C 2069   1.490  12.306  -2.283 -0.6861  0.3246  0.6323
   16MOL0    Cl 2070   1.592  12.420  -2.386 -0.0420 -0.2411  0.3107
   16MOL0     C 2071   0.989  11.888  -1.607  0.7491  0.0581  0.4482
   16MOL0     C 2072   0.921  11.906  -1.484  0.3332  0.2939 -0.9263
   16MOL0     O 2073   1.035  11.892  -1.154  0.6210 -0.5412  0.3128
   16MOL0     C 2074   0.712  11.885  -1.068  0.7766  0.0572 -0.5018
   16MOL0     C 2075   0.622  11.866  -0.961 -1.1925  1.0352 -0.5332
   16MOL0     N 2076   0.299  11.356  -0.303  0.7441 -0.2123 -0.6149
   16MOL0     N 2077   0.345  11.256  -0.225 -0.1272 -0.2897 -0.5456
   16MOL0     C 2078   0.323  11.145   0.867 -0.0476  0.2863  0.2961
   16MOL0     C 2079   0.257  11.077   0.973 -0.0649 -0.2530 -0.5640
   16MOL0     C 2080   0.188  10.818   1.317  0.7015 -1.0636  0.4185
   16MOL0     C 2081   0.183  10.680   1.342 -0.3568 -1.0660  0.2875
   16MOL0     C 2082   0.088  10.631   1.440  0.5902 -0.7917 -0.9410
   16MOL0     C 2083   0.006  10.725   1.519 -0.0363 -0.2223 -0.0491
   16MOL0     O 2084  -0.061  10.706   1.633 -0.2971  0.9147  0.1872
   16MOL0     C 2085  -0.063  10.565   1.680 -0.0704  0.4774 -0.4802
   16MOL0     C 2086  -0.214  10.533   1.648  0.0048 -0.8492 -0.0634
   16MOL0     C 2087  -0.314  10.592   1.754 -0.2837 -0.4255 -0.9020
   16MOL0     C 2088  -0.347  10.738   1.723  0.1907  0.3705 -0.4932
   16MOL0     C 2089  -0.443  10.801   1.817  0.0046 -0.4198  0.9378
   16MOL0     C 2090  -0.531  10.839   1.883 -0.4442 -0.5406 -0.1346
   16MOL0     C 2091   0.012  10.857   1.477  0.7993 -0.6523  0.1468
   16MOL0     C 2092   0.104  10.907   1.379  0.8050 -0.4265 -1.1627
   16MOL0     H 2093   0.519  11.107   1.196  2.2563  0.0433 -1.1162
   16MOL0     H 2094   0.621  11.211   1.006 -1.5290  2.6407  0.1525
   16MOL0     H 2095   0.725  11.282   0.786  1.8878 -1.6556  0.5213
   16MOL0     H 2096   0.683  11.116   0.760  4.0562  1.3293  1.8560
   16MOL0     H 2097   0.668  11.348   0.582 -0.3307  0.2438  3.5379
   16MOL0     H 2098   0.777  11.203   0.568  0.6508  0.9867 -0.9962
   16MOL0     H 2099   0.581  11.053   0.515  1.7305  0.1423 -2.2841
   16MOL0     H 2100   0.477  11.194   0.535  1.2971  3.6349  1.8480
   16MOL0     H 2101   0.592  11.292   0.344  2.4582  0.1227  1.6735
   16MOL0     H 2102   0.712  11.169   0.339  1.5379  3.5375  1.5042
   16MOL0     H 2103   0.514  10.991   0.306 -2.4618 -0.5047 -1.9901
   16MOL0     H 2104   0.408  11.110   0.268  0.2238 -1.0733 -0.1956
   16MOL0     H 2105   0.670  11.094   0.121 -0.2488 -1.7563 -1.6548
   16MOL0     H 2106   0.522  11.006   0.077 -1.3467 -0.7920  1.5609
   16MOL0     H 2107   0.395  11.217   0.042 -0.8413  2.6665  0.3306
   16MOL0     H 2108   0.536  11.311   0.090 -2.3317  1.3068 -1.4582
   16MOL0     H 2109   0.561  11.103  -0.138  0.6542  1.4515  0.3208
   16MOL0     H 2110   0.670  11.233  -0.097  1.0318 -0.4205 -1.8640
   16MOL0     H 2111   0.595  11.467  -0.208 -0.1723 -0.5460  0.0587
   16MOL0     H 2112   0.293  11.573  -0.441  3.4219  1.3184 -2.6970
   16MOL0     H 2113   0.336  11.659  -0.290 -1.9390  1.2410 -1.1620
   16MOL0     H 2114   0.544  11.560  -0.497  3.6654 -0.2539  3.4444
   16MOL0     H 2115   0.585  11.652  -0.359  0.3961  2.5754 -0.8700
   16MOL0     H 2116   0.476  11.848  -0.442 -3.0336 -0.7322 -0.6969
   16MOL0     H 2117   0.408  11.761  -0.575  0.9666 -0.1503 -2.4676
   16MOL0     H 2118   0.673  11.687  -0.615  0.7590  0.2592 -0.7993
   16MOL0     H 2119   0.682  11.855  -0.560  0.6340 -0.0424  0.7266
   16MOL0     H 2120   0.823  11.924  -0.695  0.5046  1.6696 -0.0248
   16MOL0     H 2121   1.025  12.028  -0.773  0.2739 -0.3588 -0.5253
   16MOL0     H 2122   1.094  11.925  -0.910 -0.6600 -0.3625 -1.5857
   16MOL0     H 2123   1.034  12.104  -0.918 -4.7356  1.5921  1.7187
   16MOL0     H 2124   1.086  12.166  -1.347 -1.6260 -0.4147  1.6688
   16MOL0     H 2125   1.203  12.155  -1.556 -2.0603  1.0856 -3.2558
   16MOL0     H 2126   1.319  12.107  -1.730 -1.5997  2.4604  1.4795
   16MOL0     H 2127   1.300  12.053  -1.889  0.0756  1.1743  0.1954
   16MOL0     H 2128   1.071  12.164  -1.887  0.8236 -0.7485  0.7609
   16MOL0     H 2129   1.117  12.237  -1.746 -2.6292 -0.3733 -1.5691
   16MOL0     H 2130   1.305  12.243  -1.980 -2.6279 -2.9157 -1.6088
   16MOL0     H 2131   1.303  12.352  -1.839 -0.0938  0.3938 -0.8117
   16MOL0     H 2132   1.123  12.345  -2.083  1.2012  0.0652 -0.5114
   16MOL0     H 2133   1.071  12.435  -1.947  0.3284 -2.1501 -0.1826
   16MOL0     H 2134   1.291  12.567  -1.960  2.1252 -0.4154  0.1126
   16MOL0     H 2135   1.198  12.577  -2.104  1.6814  2.6108  1.1884
   16MOL0     H 2136   1.413  12.541  -2.165 -1.1953 -1.2345 -1.9479
   16MOL0     H 2137   1.447  12.400  -2.039 -2.4781 -3.0271  0.4600
   16MOL0     H 2138   1.321  12.428  -2.316 -0.5105 -0.3726  0.0984
   16MOL0     H 2139   1.287  12.278  -2.215 -1.2461  0.2943  0.9620
   16MOL0     H 2140   1.472  12.219  -2.347  0.4615 -0.1028  0.8560
   16MOL0     H 2141   1.547  12.253  -2.206 -1.4509 -1.8243 -0.1949
   16MOL0     H 2142   0.946  11.817  -1.677 -2.7689  2.6315 -0.2951
   16MOL0     H 2143   0.842  11.836  -1.458 -1.1659  2.4096  0.5664
   16MOL0     H 2144   0.681  11.861  -1.170 -3.4502 -2.5345  1.1076
   16MOL0     H 2145   0.518  11.835  -0.965 -1.3622  1.0734  2.0803
   16MOL0     H 2146   0.270  11.168   0.775 -1.2932 -0.2266  0.8546
   16MOL0     H 2147   0.155  11.041   0.971  0.2699 -1.5806  2.0796
   16MOL0     H 2148   0.239  10.609   1.283 -1.7701  0.6544 -3.4341
   16MOL0     H 2149   0.083  10.523   1.445 -3.0315 -0.7203 -0.7438
   16MOL0     H 2150   0.004  10.495   1.629 -3.9582 -2.4468 -2.0491
   16MOL0     H 2151  -0.049  10.543   1.786  0.4647 -1.0901 -0.8502
   16MOL0     H 2152  -0.228  10.424   1.645 -1.5328 -0.6543 -1.3015
   16MOL0     H 2153  -0.255  10.566   1.552 -3.1448  3.8459  2.4952
   16MOL0     H 2154  -0.270  10.583   1.854 -0.3151  1.9095 -0.6185
   16MOL0     H 2155  -0.408  10.535   1.754  0.7269 -2.1789 -2.5754
   16MOL0     H 2156  -0.385  10.738   1.621 -2.1129 -3.7078  0.1463
   16MOL0     H 2157  -0.255  10.795   1.739  0.0852  0.7285 -1.1399
   16MOL0     H 2158  -0.609  10.893   1.933 -0.7114 -0.0628 -1.0416
   16MOL0     H 2159  -0.049  10.929   1.530 -0.1392  0.4281 -2.2693
   16MOL0     H 2160   0.101  11.015   1.376 -3.5717 -0.3285 -0.6533
   17MOL0     O 2161   1.371   9.151   6.065  0.6414  0.1861 -0.0449
   17MOL0     C 2162   1.365   9.167   6.192 -1.4126 -0.1494 -0.3879
   17MOL0     O 2163   1.260   9.144   6.275 -0.0210 -0.0155 -0.3250
   17MOL0     C 2164   1.143   9.114   6.206  0.2678 -1.0800 -0.5950
   17MOL0     C 2165   1.056   9.205   6.126  0.2175  0.6206  0.4211
   17MOL0     C 2166   0.935   9.149   6.064 -0.8902  0.2684 -0.6107
   17MOL0     C 2167   0.910   9.017   6.085  1.1580  0.1382 -0.4150
   17MOL0     O 2168   0.791   8.972   6.023  0.2953  0.1680  0.0026
   17MOL0     C 2169   0.719   8.860   6.080 -1.4738  0.0079 -0.0936
   17MOL0     C 2170   0.680   8.860   6.223  0.6882 -0.1900 -0.1393
   17MOL0     C 2171   0.595   8.985   6.242  0.4724  0.2221 -0.0803
   17MOL0     C 2172   0.558   9.004   6.388 -0.0138 -0.2222 -0.2464
   17MOL0     C 2173   0.420   9.085   6.396  0.3462 -0.1907  0.7853
   17MOL0     C 2174   0.382   9.124   6.539  0.0922  1.1968 -0.7146
   17MOL0     C 2175   0.252   9.197   6.536 -0.0076 -0.6395  0.0399
   17MOL0     C 2176   0.224   9.287   6.658  0.1344  0.8385 -0.2317
   17MOL0     N 2177   0.184   9.190   6.769 -0.6596 -0.6601  0.6609
   17MOL0     C 2178   0.064   9.136   6.791  0.1534  0.7584 -0.2851
   17MOL0     C 2179   0.087   9.034   6.880 -0.9431  0.6569  0.1445
   17MOL0     C 2180  -0.018   8.925   6.923 -0.3776  0.5322  0.4421
   17MOL0     C 2181   0.037   8.783   6.875 -0.2917  0.8746  0.0136
   17MOL0     C 2182  -0.078   8.688   6.920 -0.4677 -1.4792 -0.6952
   17MOL0     C 2183  -0.065   8.546   6.863 -0.0174 -0.5476 -0.1761
   17MOL0     O 2184  -0.185   8.485   6.910  0.5123  0.4526 -0.1737
   17MOL0     C 2185  -0.198   8.354   6.867 -0.2704  1.0352  0.0251
   17MOL0     C 2186  -0.118   8.273   6.783 -0.5972 -0.1737 -1.1440
   17MOL0     C 2187  -0.136   8.140   6.744  1.0468  0.4714  0.5542
   17MOL0     C 2188  -0.042   8.075   6.649  0.2952  0.8977 -0.6580
   17MOL0     C 2189  -0.260   8.083   6.790 -0.9456  0.6635 -0.1504
   17MOL0     C 2190  -0.297   7.953   6.758  0.1014 -0.0989  0.5747
   17MOL0     O 2191  -0.379   7.893   6.851 -0.1041  0.1649 -0.1083
   17MOL0     C 2192  -0.400   7.759   6.844  0.9228  0.1457 -0.3495
   17MOL0     C 2193  -0.460   7.700   6.726 -0.4668  0.9496 -0.5717
   17MOL0     C 2194  -0.482   7.559   6.728 -0.3136 -1.0899  1.1067
   17MOL0     C 2195  -0.467   7.475   6.834 -1.0439 -0.2585  0.4423
   17MOL0     O 2196  -0.516   7.351   6.820  0.3596  0.4537  0.2078
   17MOL0     C 2197  -0.434   7.257   6.879 -0.3440  0.1977  0.4477
   17MOL0     C 2198  -0.502   7.117   6.885 -0.7756 -0.2614  0.2980
   17MOL0     C 2199  -0.411   7.000   6.930  0.5296 -0.0633  0.2616
   17MOL0     C 2200  -0.499   6.886   6.987  0.2149 -0.3151 -0.4961
   17MOL0     C 2201  -0.406   6.789   7.060  0.1811  0.4519 -0.1664
   17MOL0     C 2202  -0.484   6.680   7.122  0.3766 -0.7515  0.3963
   17MOL0     C 2203  -0.400   6.586   7.210  0.9904 -0.7541  0.7666
   17MOL0     C 2204  -0.292   6.512   7.133  0.8519  0.5204 -0.1316
   17MOL0    Cl 2205  -0.184   6.411   7.240 -0.3719  0.1102  0.0273
   17MOL0     C 2206  -0.420   7.534   6.955 -0.1934 -0.6971 -1.1576
   17MOL0     C 2207  -0.376   7.672   6.951  1.4443  1.0304 -0.4558
   17MOL0     O 2208  -0.265   7.912   6.650 -0.4071  1.2500 -0.1717
   17MOL0     C 2209  -0.336   8.160   6.880  0.4231 -0.6169 -0.2451
   17MOL0     C 2210  -0.304   8.291   6.920  0.1003  0.4194 -0.3105
   17MOL0     N 2211   0.224   9.042   6.911  0.1269 -0.3474 -0.7621
   17MOL0     N 2212   0.275   9.137   6.851  0.0690 -0.9955 -0.2391
   17MOL0     C 2213   0.994   8.937   6.157  0.2522 -0.0167 -0.7136
   17MOL0     C 2214   1.103   8.987   6.212  0.3419  1.1023 -0.3682
   17MOL0     C 2215   1.496   9.211   6.249  0.1310 -0.2065  0.2410
   17MOL0     C 2216   1.512   9.213   6.387  0.8767 -0.1379 -0.4009
   17MOL0     C 2217   1.632   9.253   6.438  0.1211  0.8328  0.1668
   17MOL0     C 2218   1.734   9.297   6.357  0.2672 -0.7907 -0.3735
   17MOL0     O 2219   1.840   9.340   6.419 -0.0210 -0.1425 -0.1507
   17MOL0     C 2220   1.949   9.385   6.352 -0.2790  0.0840 -0.7140
   17MOL0     C 2221   2.044   9.458   6.438  0.2456 -0.7360 -0.5229
   17MOL0     C 2222   2.083   9.371   6.555 -0.8481  0.6138  0.0658
   17MOL0     C 2223   2.222   9.412   6.608  1.4746 -0.7743 -0.6667
   17MOL0     C 2224   2.258   9.299   6.697 -0.3765  0.3966 -0.3645
   17MOL0     C 2225   2.279   9.203   6.765  0.8094 -0.9474  0.1490
   17MOL0     C 2226   1.720   9.294   6.220 -0.5332 -0.9608  0.2401
   17MOL0     C 2227   1.598   9.259   6.166 -0.4732  0.1608 -0.1024
   17MOL0     H 2228   1.085   9.308   6.112 -0.8385  0.8911  0.0956
   17MOL0     H 2229   0.859   9.212   6.017 -3.7655  0.5204  3.7871
   17MOL0     H 2230   0.630   8.846   6.018 -0.6387 -2.1496 -0.9256
   17MOL0     H 2231   0.779   8.772   6.055  3.4390  2.7530  0.7227
   17MOL0     H 2232   0.629   8.764   6.227 -0.5167  0.3339 -1.7140
   17MOL0     H 2233   0.769   8.855   6.286  1.8441  2.0242 -1.4604
   17MOL0     H 2234   0.649   9.070   6.199 -1.1599  1.1602 -0.3560
   17MOL0     H 2235   0.511   8.963   6.176  2.4244 -1.0649 -2.3173
   17MOL0     H 2236   0.549   8.903   6.429  1.6133  0.0759  0.9601
   17MOL0     H 2237   0.638   9.048   6.449  0.1047  2.2778 -2.0704
   17MOL0     H 2238   0.433   9.172   6.332  3.9701 -1.1280  0.0314
   17MOL0     H 2239   0.342   9.024   6.349 -1.2883  1.1467  1.6653
   17MOL0     H 2240   0.362   9.035   6.600 -4.0673  1.1947 -1.7878
   17MOL0     H 2241   0.464   9.172   6.594  0.1248  0.1254  0.1977
   17MOL0     H 2242   0.251   9.267   6.451  0.3500 -2.4401 -1.5166
   17MOL0     H 2243   0.167   9.130   6.522  0.0296 -0.6749 -0.0192
   17MOL0     H 2244   0.131   9.342   6.643 -0.6114 -0.3171  0.0120
   17MOL0     H 2245   0.300   9.362   6.681 -1.2969  2.3733 -0.3278
   17MOL0     H 2246  -0.030   9.152   6.740 -0.1211 -0.1359 -0.0910
   17MOL0     H 2247  -0.038   8.928   7.030  2.3338  0.4491  1.0223
   17MOL0     H 2248  -0.107   8.943   6.863 -1.4047 -0.0095  1.7726
   17MOL0     H 2249   0.138   8.756   6.908 -1.1680 -0.7792  1.5185
   17MOL0     H 2250   0.047   8.788   6.766  1.2016  0.1369  0.0897
   17MOL0     H 2251  -0.175   8.735   6.906  0.3444  1.2020  1.8236
   17MOL0     H 2252  -0.076   8.664   7.026  1.9345  2.0257  0.2084
   17MOL0     H 2253   0.028   8.504   6.902  0.0490 -0.4638 -0.2424
   17MOL0     H 2254  -0.068   8.558   6.755 -0.6181 -1.9170 -0.3248
   17MOL0     H 2255  -0.036   8.333   6.747 -3.6294  2.1154 -5.0271
   17MOL0     H 2256  -0.018   7.980   6.698 -3.2758  0.0745 -0.1952
   17MOL0     H 2257  -0.085   8.061   6.549 -0.5629 -2.9452  0.0756
   17MOL0     H 2258   0.045   8.137   6.628  2.4967 -1.9740 -0.6072
   17MOL0     H 2259  -0.487   7.753   6.635 -1.0133  0.6552 -0.5836
   17MOL0     H 2260  -0.516   7.519   6.632  0.0405 -0.6669  0.8033
   17MOL0     H 2261  -0.338   7.248   6.829  1.2418 -1.4783  3.4880
   17MOL0     H 2262  -0.394   7.276   6.979 -0.9317 -2.6491  1.3221
   17MOL0     H 2263  -0.579   7.124   6.961  1.3424 -0.6730  2.6218
   17MOL0     H 2264  -0.540   7.078   6.790 -2.8578 -2.9209  2.0906
   17MOL0     H 2265  -0.332   7.019   7.004  3.7091 -1.9247 -2.3556
   17MOL0     H 2266  -0.359   6.970   6.838  3.1347  2.3701  0.7968
   17MOL0     H 2267  -0.572   6.924   7.059 -0.8001  0.0633 -1.6841
   17MOL0     H 2268  -0.558   6.831   6.913  0.9196  1.9061 -2.8700
   17MOL0     H 2269  -0.347   6.838   7.138  3.5014 -0.9345 -1.6106
   17MOL0     H 2270  -0.332   6.750   6.989 -0.5317  0.1071 -0.7303
   17MOL0     H 2271  -0.542   6.729   7.201 -1.3915 -0.5140 -0.9798
   17MOL0     H 2272  -0.547   6.621   7.055  0.3817  0.1614 -0.4265
   17MOL0     H 2273  -0.471   6.518   7.258 -1.1451  2.9942  3.4482
   17MOL0     H 2274  -0.344   6.644   7.284  1.7988 -3.3313  2.2721
   17MOL0     H 2275  -0.230   6.581   7.075 -1.0221  1.4897 -1.0617
   17MOL0     H 2276  -0.340   6.445   7.060 -0.6872  0.5562  0.8017
   17MOL0     H 2277  -0.430   7.474   7.045 -0.9808 -0.6472 -1.2049
   17MOL0     H 2278  -0.315   7.707   7.034  5.3717 -1.3498 -2.0285
   17MOL0     H 2279  -0.435   8.129   6.910 -0.0962  1.6846  0.5746
   17MOL0     H 2280  -0.373   8.335   6.991 -0.0410 -0.7170  0.2801
   17MOL0     H 2281   0.977   8.830   6.167 -2.6353  0.3853 -0.3990
   17MOL0     H 2282   1.170   8.922   6.268  0.0573  0.8725 -0.2854
   17MOL0     H 2283   1.433   9.183   6.455 -0.9715 -0.1684 -2.4763
   17MOL0     H 2284   1.651   9.266   6.544 -0.6475  0.4316  0.3593
   17MOL0     H 2285   2.004   9.302   6.306 -0.4817 -0.9234  0.7895
   17MOL0     H 2286   1.922   9.454   6.272  0.6291  1.9630  0.5368
   17MOL0     H 2287   1.992   9.546   6.478  2.1439  0.6301 -0.9394
   17MOL0     H 2288   2.130   9.504   6.389 -1.1970  1.2610 -1.2881
   17MOL0     H 2289   2.075   9.264   6.530 -0.1187  0.4421  0.5412
   17MOL0     H 2290   2.004   9.377   6.630 -0.2016  0.2020  0.7942
   17MOL0     H 2291   2.214   9.504   6.666  1.8194  0.9994 -3.2932
   17MOL0     H 2292   2.291   9.442   6.529 -1.2580  2.5899 -2.0464
   17MOL0     H 2293   2.304   9.112   6.816  1.1368  0.0266  1.8106
   17MOL0     H 2294   1.800   9.300   6.148 -1.7082 -0.1584 -1.0580
   17MOL0     H 2295   1.569   9.274   6.062 -2.0945  3.0440  0.6247
   18MOL0     O 2296   1.638   9.276  10.015 -0.9556  0.3491  0.0108
   18MOL0     C 2297   1.595   9.192  10.091 -0.2036 -0.0454  0.0924
   18MOL0     O 2298   1.678   9.110  10.164  0.2681 -0.4584  0.1622
   18MOL0     C 2299   1.811   9.110  10.144 -1.4369 -0.5154  0.5088
   18MOL0     C 2300   1.893   9.226  10.162  0.5057 -0.3846 -0.6424
   18MOL0     C 2301   2.028   9.225  10.128  0.5930 -0.1900  0.5431
   18MOL0     C 2302   2.084   9.113  10.058 -0.9552  0.3544 -0.2485
   18MOL0     O 2303   2.213   9.124  10.011  0.2533  0.5729  0.1240
   18MOL0     C 2304   2.300   9.243  10.019  0.7335  0.4761  0.6127
   18MOL0     C 2305   2.427   9.198   9.940  0.3746 -0.5364  0.4734
   18MOL0     C 2306   2.540   9.305   9.929 -0.4991  0.2061 -0.4148
   18MOL0     C 2307   2.620   9.313  10.056  0.2653 -0.6559  0.8266
   18MOL0     C 2308   2.636   9.455  10.125  0.8959  0.4071 -0.8677
   18MOL0     C 2309   2.726   9.445  10.249 -0.5885  0.3849 -0.7554
   18MOL0     C 2310   2.756   9.592  10.271  1.3166 -0.0149 -0.4646
   18MOL0     C 2311   2.627   9.683  10.290  0.4296  0.4684  0.0897
   18MOL0     N 2312   2.651   9.814  10.351  0.7977 -0.2170 -0.5026
   18MOL0     C 2313   2.776   9.863  10.391 -0.0569 -0.7620 -0.1608
   18MOL0     C 2314   2.736   9.997  10.408  0.0067  0.4718 -0.3639
   18MOL0     C 2315   2.843  10.109  10.439  0.7627  0.8491 -0.2268
   18MOL0     C 2316   2.776  10.241  10.468  0.0232  0.3438 -0.0655
   18MOL0     C 2317   2.893  10.347  10.491 -0.0769  0.9141  0.9003
   18MOL0     C 2318   2.845  10.473  10.564  0.9784  0.7628  0.7083
   18MOL0     O 2319   2.965  10.546  10.607  0.2074  0.1699  1.5606
   18MOL0     C 2320   2.937  10.675  10.621 -1.1500 -0.1645  0.0676
   18MOL0     C 2321   2.875  10.722  10.739  0.7529  0.2575  0.1185
   18MOL0     C 2322   2.851  10.860  10.758 -0.2397 -0.5205 -0.1668
   18MOL0     C 2323   2.797  10.913  10.892 -0.1158 -0.1594 -0.6584
   18MOL0     C 2324   2.891  10.949  10.658 -0.0769  0.6628  1.3212
   18MOL0     C 2325   2.876  11.088  10.681 -0.0227 -0.3423 -0.4928
   18MOL0     O 2326   2.750  11.145  10.662 -0.0749 -0.0630  0.1883
   18MOL0     C 2327   2.727  11.279  10.686 -0.1848  0.7091  0.6960
   18MOL0     C 2328   2.604  11.324  10.634 -0.6642  0.8123 -0.1498
   18MOL0     C 2329   2.570  11.459  10.657 -0.6579 -0.1122 -0.0261
   18MOL0     C 2330   2.652  11.546  10.731 -0.0331  0.6472  0.1778
   18MOL0     O 2331   2.618  11.678  10.753  0.0676  0.5255  0.1015
   18MOL0     C 2332   2.720  11.773  10.711 -0.0931  0.3930 -0.1939
   18MOL0     C 2333   2.670  11.913  10.722  0.6205  0.1411  0.0013
   18MOL0     C 2334   2.587  11.966  10.601 -1.1403  0.2606 -1.2270
   18MOL0     C 2335   2.643  11.955  10.460  0.6109 -0.3251  0.1539
   18MOL0     C 2336   2.567  12.036  10.358 -0.4050  0.9271  0.4807
   18MOL0     C 2337   2.637  12.007  10.223 -0.5279  0.7185  0.9052
   18MOL0     C 2338   2.582  12.101  10.123 -0.8612 -0.0071  0.7104
   18MOL0     C 2339   2.574  12.030   9.977  0.6154 -0.8865  1.4374
   18MOL0    Cl 2340   2.732  11.962   9.933 -0.3055  0.0670  0.0036
   18MOL0     C 2341   2.773  11.499  10.778  0.2092  0.3564 -0.0203
   18MOL0     C 2342   2.799  11.364  10.769 -0.4896  0.8657  0.8059
   18MOL0     O 2343   2.977  11.153  10.709  0.8104 -1.3748 -0.3585
   18MOL0     C 2344   2.963  10.904  10.543 -0.1532 -0.0670  0.2558
   18MOL0     C 2345   2.996  10.762  10.532 -1.2103 -0.0240  0.3224
   18MOL0     N 2346   2.603  10.013  10.403 -0.0728  0.5233 -0.7671
   18MOL0     N 2347   2.555   9.905  10.352 -0.1071  0.0350 -0.0057
   18MOL0     C 2348   2.009   8.999  10.055  0.3052  0.9725  0.5791
   18MOL0     C 2349   1.877   8.991  10.101 -0.1256  0.2527 -1.0919
   18MOL0     C 2350   1.445   9.184  10.106 -0.0128 -0.5351 -0.2893
   18MOL0     C 2351   1.363   9.236  10.007 -0.4913  0.5193  0.0631
   18MOL0     C 2352   1.228   9.236  10.024 -0.0515  0.8112 -0.5161
   18MOL0     C 2353   1.170   9.188  10.142 -0.4145 -1.1750  0.0136
   18MOL0     O 2354   1.034   9.183  10.164  0.1154  0.4109 -0.6352
   18MOL0     C 2355   0.937   9.191  10.061  0.2288  0.3949 -0.3483
   18MOL0     C 2356   0.921   9.063   9.978 -0.4481 -0.3667  0.0909
   18MOL0     C 2357   0.943   8.933  10.057 -0.1229  0.6623 -1.1476
   18MOL0     C 2358   0.949   8.810   9.966  0.2121 -1.2865 -0.8482
   18MOL0     C 2359   1.082   8.782   9.907 -0.4567 -1.1492  0.0355
   18MOL0     C 2360   1.178   8.757   9.838  0.8667  0.7190  0.0835
   18MOL0     C 2361   1.253   9.129  10.236 -0.2713 -0.7586  0.2646
   18MOL0     C 2362   1.389   9.126  10.219  0.5240 -1.5059 -0.0874
   18MOL0     H 2363   1.859   9.322  10.201  3.4504  0.2221  0.6369
   18MOL0     H 2364   2.086   9.313  10.156 -1.7833  0.7875  2.8363
   18MOL0     H 2365   2.253   9.331   9.972  0.2637 -0.3829 -0.5661
   18MOL0     H 2366   2.328   9.267  10.122  0.8426  2.6579  0.1340
   18MOL0     H 2367   2.462   9.105   9.985 -1.9682 -0.4158  2.7987
   18MOL0     H 2368   2.393   9.180   9.838 -0.4170 -1.3293  0.8654
   18MOL0     H 2369   2.605   9.274   9.847  2.6291  0.3800  1.8325
   18MOL0     H 2370   2.500   9.404   9.907 -1.2335  0.5340  2.0964
   18MOL0     H 2371   2.575   9.236  10.119 -1.0691 -2.6556 -2.3559
   18MOL0     H 2372   2.723   9.282  10.034  1.3774  1.5293  2.4733
   18MOL0     H 2373   2.679   9.522  10.051  0.5564  0.1453 -1.3076
   18MOL0     H 2374   2.533   9.489  10.138  0.6880 -0.2916 -0.6075
   18MOL0     H 2375   2.672   9.396  10.330  0.4075 -1.7589 -1.3264
   18MOL0     H 2376   2.819   9.390  10.232 -1.0047  0.0461 -2.1057
   18MOL0     H 2377   2.798   9.582  10.372  0.3097  1.3859  0.1220
   18MOL0     H 2378   2.819   9.634  10.193 -0.3639 -0.9472 -2.4144
   18MOL0     H 2379   2.570   9.623  10.362  2.1953 -0.5580  0.7052
   18MOL0     H 2380   2.586   9.706  10.191 -0.5026  0.9832  0.5890
   18MOL0     H 2381   2.871   9.811  10.397  0.2208 -0.3493 -0.9270
   18MOL0     H 2382   2.903  10.062  10.518 -0.9095  1.1441  1.2897
   18MOL0     H 2383   2.912  10.124  10.356  2.5215 -1.0041  0.8025
   18MOL0     H 2384   2.710  10.231  10.555 -1.7958  0.5172 -1.3659
   18MOL0     H 2385   2.714  10.263  10.381  1.8350 -0.8372 -1.7449
   18MOL0     H 2386   2.930  10.391  10.398  1.1233  0.7035  1.2537
   18MOL0     H 2387   2.981  10.303  10.539  0.0760  2.4300  2.1165
   18MOL0     H 2388   2.770  10.450  10.641  1.0459 -3.6462 -0.2656
   18MOL0     H 2389   2.791  10.531  10.489  4.0084  1.8816 -0.7985
   18MOL0     H 2390   2.862  10.656  10.824  0.4751  0.9345  0.6119
   18MOL0     H 2391   2.863  10.988  10.937  1.8354 -0.2235 -3.2375
   18MOL0     H 2392   2.703  10.970  10.894  0.9346  1.9403  4.0389
   18MOL0     H 2393   2.772  10.840  10.970 -0.3477 -1.3555 -1.8291
   18MOL0     H 2394   2.530  11.252  10.599  0.0896  0.0043 -0.1153
   18MOL0     H 2395   2.470  11.494  10.633  0.1248  2.9368  0.7430
   18MOL0     H 2396   2.809  11.775  10.774  0.2540  1.6553 -0.6966
   18MOL0     H 2397   2.764  11.739  10.616 -1.9229 -0.4723 -0.8028
   18MOL0     H 2398   2.611  11.920  10.814 -1.6184  4.8060 -1.4776
   18MOL0     H 2399   2.749  11.989  10.728 -0.8493  1.9259 -1.7913
   18MOL0     H 2400   2.555  12.067  10.628  0.6858 -0.0116  2.5351
   18MOL0     H 2401   2.497  11.905  10.592 -1.2570  0.4225 -1.1576
   18MOL0     H 2402   2.744  11.997  10.464  0.1439  0.7104  1.2644
   18MOL0     H 2403   2.655  11.850  10.429 -1.0892 -0.2167 -0.9788
   18MOL0     H 2404   2.583  12.140  10.387  1.2141  0.7263  0.4038
   18MOL0     H 2405   2.460  12.013  10.355 -0.0683 -0.6005 -1.1797
   18MOL0     H 2406   2.745  12.018  10.229 -0.2928 -1.2057  0.9121
   18MOL0     H 2407   2.612  11.907  10.186  0.5553  1.2671 -1.4648
   18MOL0     H 2408   2.629  12.199  10.109 -2.2750  0.8796  1.8746
   18MOL0     H 2409   2.475  12.123  10.137 -1.3688 -2.3059  0.7704
   18MOL0     H 2410   2.546  12.110   9.908  0.8439 -0.7185  1.5360
   18MOL0     H 2411   2.493  11.957   9.978  0.9902 -1.3054  1.8394
   18MOL0     H 2412   2.846  11.545  10.844  0.0946  1.5766 -0.7271
   18MOL0     H 2413   2.887  11.323  10.818 -0.3229 -1.4929 -1.2478
   18MOL0     H 2414   3.005  10.970  10.467  2.0617  0.7538  2.0838
   18MOL0     H 2415   3.043  10.714  10.447  0.5933 -1.0729  1.8170
   18MOL0     H 2416   2.059   8.914  10.008  0.2513  0.6643  1.0774
   18MOL0     H 2417   1.815   8.904  10.082  1.2624 -0.5002 -2.4287
   18MOL0     H 2418   1.402   9.278   9.915 -3.4543 -0.5287 -1.8314
   18MOL0     H 2419   1.161   9.273   9.947  1.5806 -2.4826 -3.8499
   18MOL0     H 2420   0.847   9.215  10.119  1.5646 -1.5838  2.8077
   18MOL0     H 2421   0.948   9.273   9.989 -2.5727  0.9552 -0.2723
   18MOL0     H 2422   0.985   9.060   9.890 -1.8043  0.4391 -0.9508
   18MOL0     H 2423   0.821   9.055   9.935  0.0330 -2.3827 -0.7712
   18MOL0     H 2424   0.860   8.922  10.128 -1.4752  1.0257 -2.6330
   18MOL0     H 2425   1.037   8.939  10.114  0.0221  2.0739 -1.5002
   18MOL0     H 2426   0.879   8.826   9.883 -1.0203  2.0306  0.6533
   18MOL0     H 2427   0.916   8.729  10.032 -3.1149  0.6148  0.0959
   18MOL0     H 2428   1.266   8.759   9.777 -0.4149  0.7423 -1.8407
   18MOL0     H 2429   1.208   9.078  10.321  1.5060  0.9298  2.3495
   18MOL0     H 2430   1.436   9.058  10.289 -2.0713 -3.7162 -0.3206
   19MOL0     O 2431   7.985   7.565   4.292 -0.2648 -0.8885 -0.4153
   19MOL0     C 2432   8.018   7.517   4.397 -0.0434  0.1129  0.2950
   19MOL0     O 2433   7.948   7.533   4.511  0.3002 -0.3656 -0.6354
   19MOL0     C 2434   7.817   7.568   4.496  0.3201 -0.6673  0.1098
   19MOL0     C 2435   7.710   7.478   4.483  0.7722 -0.4134  0.2304
   19MOL0     C 2436   7.581   7.523   4.459 -0.4861  0.7906  0.6007
   19MOL0     C 2437   7.551   7.660   4.477  0.3565 -0.2602 -0.1151
   19MOL0     O 2438   7.431   7.723   4.472  0.3423 -0.6432  0.3046
   19MOL0     C 2439   7.315   7.647   4.461  0.0756 -0.1676 -0.7558
   19MOL0     C 2440   7.206   7.717   4.542 -0.1534 -0.1738  0.1534
   19MOL0     C 2441   7.076   7.639   4.540 -0.2725  0.0242  0.1600
   19MOL0     C 2442   7.108   7.489   4.569 -1.2714  1.0284  1.0275
   19MOL0     C 2443   6.995   7.395   4.609  0.0264  0.1873  0.0283
   19MOL0     C 2444   6.910   7.435   4.741 -0.4707 -0.1565  1.1649
   19MOL0     C 2445   6.998   7.442   4.872  1.0814  0.8735 -0.0508
   19MOL0     C 2446   6.907   7.468   4.996  0.0452  1.1467 -0.0943
   19MOL0     N 2447   6.891   7.610   5.018 -0.8767 -0.3570 -0.0538
   19MOL0     C 2448   6.790   7.687   4.978 -0.6725  0.9705 -0.7601
   19MOL0     C 2449   6.793   7.797   5.041  0.1754  0.0358 -0.1603
   19MOL0     C 2450   6.702   7.919   5.029  0.0668  0.5532  0.2523
   19MOL0     C 2451   6.651   7.969   5.165  0.3477  0.0032  0.5971
   19MOL0     C 2452   6.534   7.881   5.214  0.4771  0.1747 -1.0926
   19MOL0     C 2453   6.463   7.941   5.341 -0.4648  0.8163  0.0070
   19MOL0     O 2454   6.406   8.067   5.303  0.2526 -1.1157  0.5830
   19MOL0     C 2455   6.276   8.083   5.256  0.0691  1.0335 -0.5671
   19MOL0     C 2456   6.162   8.076   5.346  0.0554 -0.9542 -0.2096
   19MOL0     C 2457   6.048   8.138   5.308 -0.4183  0.0797  0.4197
   19MOL0     C 2458   5.940   8.123   5.419 -0.2860  0.1740 -0.2023
   19MOL0     C 2459   6.038   8.191   5.177  0.4665 -0.6160 -0.5942
   19MOL0     C 2460   5.910   8.243   5.125 -0.8566 -1.2138  0.7764
   19MOL0     O 2461   5.885   8.223   4.987  0.1758  0.1235 -0.6513
   19MOL0     C 2462   5.784   8.292   4.949  0.2545 -0.1735  0.2841
   19MOL0     C 2463   5.652   8.243   4.966  0.4668  1.2060  0.7312
   19MOL0     C 2464   5.545   8.325   4.935 -0.5633  0.1511  0.4177
   19MOL0     C 2465   5.554   8.459   4.882 -1.4008  1.2911 -0.4743
   19MOL0     O 2466   5.436   8.524   4.852 -0.3137  0.6678 -0.1427
   19MOL0     C 2467   5.454   8.661   4.799 -0.2963 -1.0822  0.2970
   19MOL0     C 2468   5.338   8.747   4.848 -0.5734 -0.1011 -0.3195
   19MOL0     C 2469   5.337   8.762   5.005  0.3108 -1.0528 -0.3974
   19MOL0     C 2470   5.415   8.884   5.060 -0.8890 -0.2509  0.0254
   19MOL0     C 2471   5.418   8.880   5.219  0.0745 -0.4013 -0.4695
   19MOL0     C 2472   5.508   8.999   5.264 -0.3072  0.2656 -0.0426
   19MOL0     C 2473   5.660   8.960   5.243  0.0609 -1.2443  0.2781
   19MOL0     C 2474   5.695   8.819   5.290  0.7384  0.3568 -0.3075
   19MOL0    Cl 2475   5.857   8.803   5.350 -0.4815  0.3678  0.2184
   19MOL0     C 2476   5.690   8.490   4.852  0.2852  0.2364 -0.4863
   19MOL0     C 2477   5.798   8.410   4.883 -0.8511 -0.4279 -0.1124
   19MOL0     O 2478   5.827   8.277   5.202  0.3846  0.3325 -0.0373
   19MOL0     C 2479   6.147   8.176   5.088  1.6184 -0.4716 -0.1723
   19MOL0     C 2480   6.274   8.130   5.131  0.5251 -1.1285  0.6536
   19MOL0     N 2481   6.899   7.791   5.129  0.2449  0.4246 -0.2198
   19MOL0     N 2482   6.953   7.670   5.119 -0.5920  0.1507 -0.3972
   19MOL0     C 2483   7.657   7.742   4.521 -0.5832 -1.3291  1.1189
   19MOL0     C 2484   7.786   7.700   4.516  0.3774 -0.7853  0.9021
   19MOL0     C 2485   8.153   7.459   4.413  0.1702 -0.1810 -0.1329
   19MOL0     C 2486   8.191   7.405   4.539  0.9461 -0.1908  1.1106
   19MOL0     C 2487   8.326   7.362   4.548 -0.7574 -0.0607  0.4754
   19MOL0     C 2488   8.414   7.348   4.430  0.6782 -0.7149 -1.1422
   19MOL0     O 2489   8.534   7.292   4.447 -0.0232 -0.0610 -0.2126
   19MOL0     C 2490   8.616   7.251   4.341 -0.5338  0.2830  0.9413
   19MOL0     C 2491   8.713   7.154   4.397 -0.6915  1.1579 -0.7673
   19MOL0     C 2492   8.846   7.132   4.322  0.3033  0.2676  0.6173
   19MOL0     C 2493   8.815   7.080   4.173  0.5205 -0.0526 -1.5206
   19MOL0     C 2494   8.945   7.062   4.111 -0.1578  0.1017 -0.1589
   19MOL0     C 2495   9.039   7.034   4.041 -0.1599 -0.1283 -0.1885
   19MOL0     C 2496   8.371   7.404   4.313  1.4357  0.3808  0.1468
   19MOL0     C 2497   8.234   7.454   4.298  0.8365 -0.0559  0.2376
   19MOL0     H 2498   7.743   7.379   4.452  2.6895  1.4340 -4.6803
   19MOL0     H 2499   7.498   7.456   4.439  1.3955 -1.7372  0.6214
   19MOL0     H 2500   7.294   7.631   4.355  3.1075 -0.4776 -1.3867
   19MOL0     H 2501   7.337   7.549   4.504 -2.0582  0.0656  1.0922
   19MOL0     H 2502   7.246   7.730   4.643 -0.5791  4.6685 -0.0237
   19MOL0     H 2503   7.178   7.818   4.510  0.1070 -0.0591  0.2834
   19MOL0     H 2504   7.019   7.672   4.628  0.8855 -3.3858  2.4178
   19MOL0     H 2505   7.026   7.657   4.445  1.4721 -1.5713 -1.1299
   19MOL0     H 2506   7.164   7.444   4.486 -1.7927 -0.0386  1.2326
   19MOL0     H 2507   7.172   7.485   4.658  0.2411 -0.7258 -0.0457
   19MOL0     H 2508   6.934   7.365   4.523  1.8325  1.3964 -1.7516
   19MOL0     H 2509   7.054   7.306   4.632  2.7861  1.7300 -0.7239
   19MOL0     H 2510   6.853   7.528   4.727 -0.3395 -0.3819 -1.4473
   19MOL0     H 2511   6.829   7.361   4.739 -1.3257  0.6263 -2.5902
   19MOL0     H 2512   7.038   7.340   4.870 -1.8439 -0.3774 -2.3961
   19MOL0     H 2513   7.084   7.510   4.870  0.4300  2.4536  6.1327
   19MOL0     H 2514   6.945   7.406   5.078  1.4103 -0.7442 -2.0208
   19MOL0     H 2515   6.818   7.412   4.968  2.0529 -1.8186 -1.0782
   19MOL0     H 2516   6.725   7.660   4.896 -1.4949  2.4904 -0.6572
   19MOL0     H 2517   6.761   7.994   4.976 -1.1354 -1.4042 -4.4071
   19MOL0     H 2518   6.628   7.901   4.951  1.0447  0.3994 -0.6647
   19MOL0     H 2519   6.618   8.067   5.129  3.4349  0.3329 -1.7486
   19MOL0     H 2520   6.734   7.977   5.236 -0.1932 -0.9593  1.3553
   19MOL0     H 2521   6.567   7.777   5.223  1.7110  0.2521 -3.6789
   19MOL0     H 2522   6.450   7.876   5.145  0.1872 -3.1797 -0.6661
   19MOL0     H 2523   6.540   7.956   5.417 -0.6309  1.6489  0.0111
   19MOL0     H 2524   6.378   7.883   5.379 -0.0527  1.2251  1.5967
   19MOL0     H 2525   6.177   8.040   5.447 -1.2249  1.7664  1.0505
   19MOL0     H 2526   5.857   8.059   5.389 -2.4097  2.7793 -0.2502
   19MOL0     H 2527   5.979   8.083   5.512  3.4356  0.8232 -1.3180
   19MOL0     H 2528   5.894   8.220   5.441 -3.0407 -0.9942 -0.4514
   19MOL0     H 2529   5.633   8.140   4.994  0.2943  0.7982 -0.8092
   19MOL0     H 2530   5.446   8.290   4.961  0.4019 -2.0144  1.4666
   19MOL0     H 2531   5.543   8.702   4.847 -0.8054  0.4794 -0.0436
   19MOL0     H 2532   5.461   8.660   4.690  2.5948  0.0858  0.4052
   19MOL0     H 2533   5.350   8.849   4.813  4.0576 -0.2105  0.2900
   19MOL0     H 2534   5.248   8.700   4.809 -0.7440  0.1164 -0.1916
   19MOL0     H 2535   5.365   8.671   5.059  3.3571 -0.2202 -0.3587
   19MOL0     H 2536   5.237   8.782   5.043  1.7942  1.5776  2.6020
   19MOL0     H 2537   5.518   8.894   5.026 -0.3959 -0.2946  1.4295
   19MOL0     H 2538   5.352   8.968   5.030 -1.4964  1.2631  4.6158
   19MOL0     H 2539   5.446   8.794   5.280  0.0734 -0.1320 -0.0873
   19MOL0     H 2540   5.315   8.900   5.248  1.3070  2.9536  2.1856
   19MOL0     H 2541   5.484   9.093   5.213 -2.5050  1.2497  2.6198
   19MOL0     H 2542   5.481   9.022   5.367  2.0864  3.8637 -0.0195
   19MOL0     H 2543   5.722   9.017   5.312  1.4722  2.0645 -3.2951
   19MOL0     H 2544   5.682   8.977   5.137 -3.8981 -1.4843 -0.7641
   19MOL0     H 2545   5.670   8.756   5.204  1.4157 -2.3735  1.3685
   19MOL0     H 2546   5.635   8.794   5.378  0.6298  1.4565 -0.0528
   19MOL0     H 2547   5.711   8.591   4.818 -2.1955  0.8057 -0.5328
   19MOL0     H 2548   5.896   8.457   4.876 -1.5013  1.2469  1.2307
   19MOL0     H 2549   6.136   8.213   4.987 -1.7335 -0.4289  0.0997
   19MOL0     H 2550   6.361   8.150   5.069 -0.4596 -1.5477 -0.9413
   19MOL0     H 2551   7.648   7.850   4.526 -0.9312 -1.0625 -2.5845
   19MOL0     H 2552   7.870   7.768   4.526  0.8800 -0.3411 -4.1056
   19MOL0     H 2553   8.135   7.404   4.631  1.3246 -1.3784  1.3496
   19MOL0     H 2554   8.354   7.316   4.642 -2.6946 -0.9575  0.6629
   19MOL0     H 2555   8.555   7.197   4.269  0.4783  0.0981  0.1904
   19MOL0     H 2556   8.662   7.340   4.296 -1.9546  2.0597  2.8452
   19MOL0     H 2557   8.666   7.057   4.413 -2.4002  1.6273 -2.4953
   19MOL0     H 2558   8.754   7.194   4.490 -0.6837  0.9973 -0.7015
   19MOL0     H 2559   8.910   7.059   4.371  0.6342  1.2167  1.6328
   19MOL0     H 2560   8.898   7.228   4.314  0.1044  0.7060  3.6859
   19MOL0     H 2561   8.746   7.139   4.112 -1.6800  3.7746  3.8765
   19MOL0     H 2562   8.758   6.988   4.191  2.7112 -0.9769  1.4690
   19MOL0     H 2563   9.126   7.009   3.984 -0.0493 -1.2256  0.4333
   19MOL0     H 2564   8.437   7.418   4.227  0.6756 -1.6141 -0.8166
   19MOL0     H 2565   8.209   7.502   4.205  0.6365 -0.7400 -0.0682
   20MOL0     O 2566   2.529   7.238   9.425  0.7371 -0.6311  0.9115
   20MOL0     C 2567   2.573   7.344   9.382 -0.0065  0.4823 -0.4933
   20MOL0     O 2568   2.682   7.356   9.304  0.1912 -0.2626  0.6090
   20MOL0     C 2569   2.754   7.249   9.260  0.3691 -0.3885 -0.6228
   20MOL0     C 2570   2.749   7.217   9.124 -1.0911 -0.1927  0.2797
   20MOL0     C 2571   2.823   7.108   9.084 -0.1900 -0.0330 -0.4210
   20MOL0     C 2572   2.917   7.045   9.170 -0.1074  0.3655 -0.0180
   20MOL0     O 2573   2.976   6.934   9.107 -0.0269 -0.0661  0.1111
   20MOL0     C 2574   3.087   6.855   9.174  0.7358  0.3454  0.3910
   20MOL0     C 2575   3.188   6.817   9.061 -0.6469  0.7199 -0.5038
   20MOL0     C 2576   3.336   6.804   9.095  0.4015 -0.3604  0.0562
   20MOL0     C 2577   3.362   6.682   9.183 -0.0204 -0.1940 -0.2238
   20MOL0     C 2578   3.491   6.684   9.261  0.2608 -1.1426 -0.6876
   20MOL0     C 2579   3.507   6.576   9.369  0.7645 -0.2905  0.8916
   20MOL0     C 2580   3.654   6.556   9.421 -0.6143 -1.3216  0.2264
   20MOL0     C 2581   3.697   6.651   9.530  0.1427  0.4732  0.3308
   20MOL0     N 2582   3.840   6.640   9.535  0.3805 -0.9949 -1.0017
   20MOL0     C 2583   3.919   6.745   9.500 -0.8855  0.2523  0.4556
   20MOL0     C 2584   4.035   6.727   9.561  0.0319  0.8449 -0.0145
   20MOL0     C 2585   4.146   6.823   9.579 -0.1259 -0.3893 -0.3059
   20MOL0     C 2586   4.121   6.918   9.698 -0.1172  1.0367  0.0731
   20MOL0     C 2587   4.239   7.014   9.710  0.4404 -0.5546 -0.6960
   20MOL0     C 2588   4.226   7.110   9.826 -0.0842 -0.1615 -0.1945
   20MOL0     O 2589   4.355   7.168   9.838  0.4384 -0.9365  0.2596
   20MOL0     C 2590   4.362   7.280   9.916 -0.0445 -0.2968 -0.0836
   20MOL0     C 2591   4.487   7.337   9.922 -0.0014  0.2375 -1.2325
   20MOL0     C 2592   4.516   7.436  10.015 -0.0559 -0.5613  0.3627
   20MOL0     C 2593   4.666   7.476  10.027  0.4443 -0.0373 -0.2289
   20MOL0     C 2594   4.413   7.515  10.070  0.1625 -1.6542 -0.2837
   20MOL0     C 2595   4.435   7.639  10.148  0.0515  0.1747 -0.0717
   20MOL0     O 2596   4.326   7.688  10.207 -0.0626  0.5375 -0.9571
   20MOL0     C 2597   4.318   7.825  10.252  0.3354  0.3125  0.7243
   20MOL0     C 2598   4.186   7.867  10.288  0.0196  0.0903  0.6129
   20MOL0     C 2599   4.153   7.984  10.358 -0.0006 -0.8130  0.1470
   20MOL0     C 2600   4.255   8.074  10.378  0.9891 -0.5047 -1.1157
   20MOL0     O 2601   4.224   8.188  10.447  0.1402  1.1182  0.1461
   20MOL0     C 2602   4.320   8.241  10.540 -1.1652 -0.4071  0.3102
   20MOL0     C 2603   4.380   8.366  10.489  0.3795 -0.6050 -0.5980
   20MOL0     C 2604   4.291   8.488  10.515 -0.3254  0.1518 -0.0996
   20MOL0     C 2605   4.357   8.625  10.465  0.1777  0.3228  0.5241
   20MOL0     C 2606   4.274   8.759  10.493  0.0450 -0.3107 -0.0311
   20MOL0     C 2607   4.349   8.885  10.440 -0.2600  0.2099  0.5988
   20MOL0     C 2608   4.262   9.006  10.387  0.1055 -0.1555  0.0654
   20MOL0     C 2609   4.258   9.127  10.496 -0.1148  0.9319  0.0205
   20MOL0    Cl 2610   4.161   9.265  10.438  0.3169 -0.0194 -0.1801
   20MOL0     C 2611   4.381   8.036  10.346  0.0080 -0.5893  0.9199
   20MOL0     C 2612   4.418   7.921  10.271  1.0591  0.8211 -0.4887
   20MOL0     O 2613   4.546   7.677  10.173  0.5893 -1.0171  0.0267
   20MOL0     C 2614   4.281   7.471  10.053  0.1949  0.4181  1.3373
   20MOL0     C 2615   4.260   7.350   9.981 -0.4400 -0.3245  0.0715
   20MOL0     N 2616   4.028   6.594   9.607  0.7559  0.0712 -0.3678
   20MOL0     N 2617   3.913   6.553   9.609  0.8009  0.1243  0.2980
   20MOL0     C 2618   2.922   7.078   9.304 -0.6343 -0.0127 -0.5434
   20MOL0     C 2619   2.835   7.177   9.345 -2.1489 -0.8885 -0.1523
   20MOL0     C 2620   2.501   7.462   9.437  0.7174  0.1108  0.6563
   20MOL0     C 2621   2.395   7.454   9.530  0.2829 -0.2404 -0.5848
   20MOL0     C 2622   2.331   7.572   9.574 -0.3985 -0.5697  0.2749
   20MOL0     C 2623   2.382   7.697   9.533 -0.1375 -0.3042  0.0823
   20MOL0     O 2624   2.327   7.806   9.591 -0.0239  0.2833  0.7380
   20MOL0     C 2625   2.420   7.866   9.680 -0.4349 -0.4648  0.0145
   20MOL0     C 2626   2.408   7.843   9.840 -0.5513 -0.1293  0.7544
   20MOL0     C 2627   2.268   7.883   9.891  0.5948  0.1640  0.1895
   20MOL0     C 2628   2.262   7.828  10.033  0.6972  0.1678 -0.4527
   20MOL0     C 2629   2.221   7.685  10.032 -0.0268 -0.5023 -0.5797
   20MOL0     C 2630   2.188   7.567  10.048 -1.0018  0.0835  0.6769
   20MOL0     C 2631   2.483   7.700   9.441 -0.0666 -0.2051 -0.0050
   20MOL0     C 2632   2.539   7.584   9.386  0.5690  0.2273 -0.4107
   20MOL0     H 2633   2.697   7.295   9.068  0.7020  3.2846  3.0113
   20MOL0     H 2634   2.840   7.087   8.978  2.0462 -2.5881  0.3367
   20MOL0     H 2635   3.128   6.908   9.261 -1.7089  0.0572  1.8100
   20MOL0     H 2636   3.045   6.766   9.222 -0.8402  0.3027 -0.9793
   20MOL0     H 2637   3.149   6.726   9.013 -0.0731  0.9160 -1.3721
   20MOL0     H 2638   3.176   6.889   8.980  0.7065 -0.7037 -2.0586
   20MOL0     H 2639   3.398   6.784   9.007  2.0035  2.3907  0.4380
   20MOL0     H 2640   3.371   6.897   9.140  0.8398 -0.0828 -0.8351
   20MOL0     H 2641   3.276   6.675   9.251  0.9844  1.2800  1.2681
   20MOL0     H 2642   3.371   6.590   9.125  0.4871  0.4112 -1.1315
   20MOL0     H 2643   3.571   6.667   9.188  1.9719  1.0943  0.5311
   20MOL0     H 2644   3.506   6.782   9.309 -1.6946 -0.8318 -0.6379
   20MOL0     H 2645   3.445   6.595   9.457  2.2152 -1.4699  2.2430
   20MOL0     H 2646   3.475   6.489   9.311 -1.1010  1.3892 -0.7189
   20MOL0     H 2647   3.657   6.449   9.446 -0.0616 -1.6625 -1.2200
   20MOL0     H 2648   3.722   6.574   9.338 -0.5342 -2.1644  0.0983
   20MOL0     H 2649   3.653   6.621   9.626 -1.1700 -2.2161 -1.0125
   20MOL0     H 2650   3.657   6.751   9.510 -1.3054 -0.1857 -0.1634
   20MOL0     H 2651   3.881   6.838   9.457  2.3777  1.8497  0.6899
   20MOL0     H 2652   4.234   6.758   9.588 -0.1954 -0.4938 -0.3783
   20MOL0     H 2653   4.159   6.887   9.491  2.7871  2.8055  2.1650
   20MOL0     H 2654   4.094   6.861   9.787 -1.9287  0.5916 -0.7189
   20MOL0     H 2655   4.030   6.974   9.677 -0.7718  0.0092  0.0902
   20MOL0     H 2656   4.246   7.075   9.619 -1.0135  2.6677  1.1585
   20MOL0     H 2657   4.326   6.949   9.725 -1.4015 -3.4538 -1.7695
   20MOL0     H 2658   4.196   7.063   9.920  2.3313  2.2512  1.9378
   20MOL0     H 2659   4.151   7.186   9.799  0.2818 -0.4001 -2.0270
   20MOL0     H 2660   4.559   7.278   9.867 -0.1196 -3.9387  2.5431
   20MOL0     H 2661   4.673   7.585  10.018 -2.1544  0.2593  0.3835
   20MOL0     H 2662   4.693   7.440  10.127 -1.1565 -1.3328 -0.2245
   20MOL0     H 2663   4.729   7.424   9.955 -2.0739  1.7416 -4.0662
   20MOL0     H 2664   4.101   7.809  10.253  0.1814  1.0980 -1.6151
   20MOL0     H 2665   4.047   7.994  10.379  0.4094 -0.5866  2.3889
   20MOL0     H 2666   4.261   8.273  10.626 -3.5002  1.5986 -1.8832
   20MOL0     H 2667   4.398   8.170  10.569  0.5114  2.3305  3.0681
   20MOL0     H 2668   4.475   8.388  10.538  0.2946 -2.3253  0.4148
   20MOL0     H 2669   4.408   8.363  10.383  1.8980  0.9056 -0.2915
   20MOL0     H 2670   4.277   8.484  10.623 -2.4066  1.7058 -0.2593
   20MOL0     H 2671   4.197   8.477  10.461  0.2687  2.8146 -1.8571
   20MOL0     H 2672   4.459   8.637  10.502 -0.4606  0.3564  2.3307
   20MOL0     H 2673   4.368   8.612  10.356 -0.7797  0.5604  0.3872
   20MOL0     H 2674   4.248   8.766  10.599  1.7688 -0.7659  0.4500
   20MOL0     H 2675   4.181   8.745  10.437 -0.1777 -3.7210  0.9637
   20MOL0     H 2676   4.425   8.906  10.516 -1.3527 -0.2283  1.8522
   20MOL0     H 2677   4.410   8.845  10.358 -1.5850 -0.2511 -0.1887
   20MOL0     H 2678   4.159   8.973  10.372  0.4419 -2.1398  1.7553
   20MOL0     H 2679   4.306   9.041  10.293 -0.1154 -0.8031 -0.2823
   20MOL0     H 2680   4.364   9.137  10.518  0.1707 -2.9770  1.2383
   20MOL0     H 2681   4.209   9.089  10.587  0.5655  0.8977  0.3822
   20MOL0     H 2682   4.466   8.100  10.364 -0.2684 -0.2998  1.1966
   20MOL0     H 2683   4.525   7.909  10.260  1.0714 -1.8656  1.4414
   20MOL0     H 2684   4.187   7.515  10.084 -1.7577 -1.8536 -0.8903
   20MOL0     H 2685   4.158   7.314   9.976 -0.7932  0.7747 -1.8302
   20MOL0     H 2686   2.973   7.030   9.387 -3.0159  0.1532  1.1266
   20MOL0     H 2687   2.841   7.208   9.449  1.3548  1.7850 -0.9714
   20MOL0     H 2688   2.345   7.364   9.564 -2.3934  1.9135  1.6844
   20MOL0     H 2689   2.249   7.571   9.646 -1.2888  0.9549 -0.6672
   20MOL0     H 2690   2.523   7.831   9.667 -0.6400 -1.4625  0.8832
   20MOL0     H 2691   2.413   7.971   9.652  1.2268 -0.5740 -0.9237
   20MOL0     H 2692   2.490   7.894   9.892  1.8887 -1.7231 -1.3123
   20MOL0     H 2693   2.422   7.736   9.858 -0.6735 -0.5241 -1.2949
   20MOL0     H 2694   2.196   7.836   9.824  0.0148  0.0719  0.8689
   20MOL0     H 2695   2.247   7.989   9.880 -0.9188 -0.0710  0.6178
   20MOL0     H 2696   2.198   7.881  10.104  0.0979 -0.4506 -0.5268
   20MOL0     H 2697   2.364   7.828  10.073 -0.1235  2.6600  1.9134
   20MOL0     H 2698   2.169   7.465  10.074  2.2504 -0.7393  0.2128
   20MOL0     H 2699   2.519   7.795   9.401  0.7656  0.0760  1.3343
   20MOL0     H 2700   2.622   7.584   9.315  1.2233  2.1990  0.2869
   21MOL0     O 2701   3.270  11.508   5.824 -0.1777 -0.3714  0.4023
   21MOL0     C 2702   3.287  11.477   5.709  0.2211  0.5674  0.4903
   21MOL0     O 2703   3.403  11.466   5.645 -0.2809  0.2639 -0.2307
   21MOL0     C 2704   3.503  11.553   5.671  0.0796  0.1105  0.9791
   21MOL0     C 2705   3.622  11.538   5.599 -0.0297 -0.4315  0.1947
   21MOL0     C 2706   3.724  11.636   5.603 -0.9668  0.0278 -0.3502
   21MOL0     C 2707   3.721  11.744   5.696  0.2978  0.6996  0.2958
   21MOL0     O 2708   3.816  11.833   5.712 -0.2586 -0.0931 -0.6175
   21MOL0     C 2709   3.944  11.833   5.655  0.7928 -0.1776 -0.3501
   21MOL0     C 2710   4.012  11.967   5.639 -0.0113  0.2985  0.5658
   21MOL0     C 2711   4.115  11.987   5.754  0.8287 -0.1703  0.0721
   21MOL0     C 2712   4.216  12.091   5.726 -0.0143 -0.1282 -0.1289
   21MOL0     C 2713   4.294  12.143   5.856  0.4830 -0.2529 -0.2041
   21MOL0     C 2714   4.402  12.047   5.907 -0.3810 -0.5965 -0.3841
   21MOL0     C 2715   4.516  12.010   5.816 -0.0286  0.0094 -0.0061
   21MOL0     C 2716   4.632  11.928   5.890  0.0080  0.7175 -0.0108
   21MOL0     N 2717   4.605  11.804   5.963  0.0757  0.5333 -0.4635
   21MOL0     C 2718   4.522  11.697   5.931  0.1267  0.0827  0.4654
   21MOL0     C 2719   4.532  11.609   6.031 -0.9673 -0.7891 -0.2525
   21MOL0     C 2720   4.474  11.471   6.037 -0.8240 -1.0950  0.2653
   21MOL0     C 2721   4.341  11.480   6.115  0.0221  0.1840  0.2841
   21MOL0     C 2722   4.313  11.384   6.230 -0.3268 -1.2173  0.2377
   21MOL0     C 2723   4.424  11.392   6.331 -0.9651  0.4069 -0.2126
   21MOL0     O 2724   4.465  11.260   6.366  0.4388 -0.9323 -0.1191
   21MOL0     C 2725   4.372  11.176   6.431  0.2128  0.6515  0.5092
   21MOL0     C 2726   4.391  11.037   6.432 -0.5154 -0.0264  0.0658
   21MOL0     C 2727   4.312  10.945   6.506 -0.9761  0.2171 -0.2375
   21MOL0     C 2728   4.340  10.798   6.487 -0.1619 -0.0789  0.2969
   21MOL0     C 2729   4.196  10.988   6.585 -0.7235  0.6646  0.0478
   21MOL0     C 2730   4.111  10.894   6.674  0.1694 -0.3202  0.5754
   21MOL0     O 2731   4.032  10.958   6.765  0.1925  0.5105 -0.9383
   21MOL0     C 2732   3.918  10.877   6.813  0.2982 -0.4076 -1.3312
   21MOL0     C 2733   3.896  10.828   6.943  0.5675  0.4664 -0.0850
   21MOL0     C 2734   3.771  10.766   6.981 -0.1245  0.0646  1.5973
   21MOL0     C 2735   3.667  10.757   6.888 -0.5264 -0.2637 -0.4463
   21MOL0     O 2736   3.548  10.708   6.941  0.0295  0.3798  0.1367
   21MOL0     C 2737   3.464  10.629   6.856  0.2410 -1.0956 -0.1944
   21MOL0     C 2738   3.355  10.580   6.950  0.0226  0.0997  0.7169
   21MOL0     C 2739   3.248  10.494   6.877  0.0535  0.9043  0.0796
   21MOL0     C 2740   3.150  10.444   6.986 -0.2375  0.6625  0.7537
   21MOL0     C 2741   3.049  10.349   6.927  0.2857 -0.0974  1.2246
   21MOL0     C 2742   2.921  10.352   6.996  1.2772  1.4032 -0.6631
   21MOL0     C 2743   2.825  10.243   6.932 -0.2203 -0.0688 -0.7487
   21MOL0     C 2744   2.687  10.260   7.002  0.4412  0.2933 -0.0760
   21MOL0    Cl 2745   2.579  10.116   6.969 -0.2553 -0.2391 -0.1273
   21MOL0     C 2746   3.686  10.804   6.753 -0.5787  1.7759 -0.4362
   21MOL0     C 2747   3.806  10.870   6.721  0.2366 -0.6740 -1.0427
   21MOL0     O 2748   4.120  10.770   6.654 -0.6778 -0.0316 -1.1664
   21MOL0     C 2749   4.181  11.134   6.584  0.1033  0.8480  0.8636
   21MOL0     C 2750   4.260  11.220   6.501  0.8939 -1.4110 -0.4035
   21MOL0     N 2751   4.610  11.669   6.134 -0.3006 -0.3452  0.1428
   21MOL0     N 2752   4.659  11.776   6.088 -0.5971 -0.2080 -0.6202
   21MOL0     C 2753   3.602  11.750   5.773  0.1760 -1.0124 -0.4730
   21MOL0     C 2754   3.501  11.661   5.758 -0.3961  0.8542 -0.4317
   21MOL0     C 2755   3.158  11.432   5.637  0.2989  0.1827  0.1440
   21MOL0     C 2756   3.147  11.433   5.506 -0.0003 -0.8236 -0.9571
   21MOL0     C 2757   3.045  11.376   5.434  0.1222 -0.6080 -0.4331
   21MOL0     C 2758   2.932  11.329   5.492 -0.7291  0.1997 -0.5437
   21MOL0     O 2759   2.825  11.295   5.417  0.4023 -0.2183 -0.4737
   21MOL0     C 2760   2.688  11.299   5.463  0.3585  0.4239 -0.1447
   21MOL0     C 2761   2.606  11.167   5.439 -1.0443 -0.0130 -0.0242
   21MOL0     C 2762   2.629  11.124   5.287  0.6502 -0.3793  0.2500
   21MOL0     C 2763   2.558  11.208   5.192  1.1640  0.4247 -0.0803
   21MOL0     C 2764   2.591  11.157   5.057 -0.1914  0.6567 -0.6716
   21MOL0     C 2765   2.632  11.103   4.957 -0.4917 -0.1540 -0.1021
   21MOL0     C 2766   2.940  11.326   5.634  0.0536  0.1326  0.9434
   21MOL0     C 2767   3.044  11.380   5.708 -0.4877 -0.1687 -1.1938
   21MOL0     H 2768   3.629  11.457   5.527  2.4158 -1.9357  1.9491
   21MOL0     H 2769   3.807  11.630   5.533  0.1406  1.3809  0.7873
   21MOL0     H 2770   4.014  11.776   5.716  3.6471  1.5536 -1.8013
   21MOL0     H 2771   3.932  11.785   5.557 -1.7378  1.2515 -0.8294
   21MOL0     H 2772   4.054  11.973   5.538 -0.6206  2.0372  0.3854
   21MOL0     H 2773   3.938  12.044   5.661  0.5758  0.1961  3.2493
   21MOL0     H 2774   4.067  11.988   5.852 -1.6189  0.0250 -1.0693
   21MOL0     H 2775   4.174  11.895   5.751 -1.5439 -1.7561 -0.6533
   21MOL0     H 2776   4.285  12.071   5.643  1.8419  0.6184  1.1737
   21MOL0     H 2777   4.166  12.179   5.684 -1.3045  0.3583  2.2725
   21MOL0     H 2778   4.351  12.232   5.827 -1.5934  1.1321 -0.3452
   21MOL0     H 2779   4.216  12.177   5.926  2.2007  0.9099  1.2309
   21MOL0     H 2780   4.444  12.090   5.998  2.6579 -2.9187 -0.5495
   21MOL0     H 2781   4.352  11.955   5.940 -3.4354  1.2304  0.4805
   21MOL0     H 2782   4.464  11.943   5.747 -0.0312 -2.8407  2.5825
   21MOL0     H 2783   4.563  12.102   5.781  0.5339  0.7687  2.5141
   21MOL0     H 2784   4.692  12.004   5.940  0.5699  1.5522 -1.8504
   21MOL0     H 2785   4.696  11.888   5.810  0.6856 -2.3531  1.9168
   21MOL0     H 2786   4.488  11.688   5.828 -1.3465  2.5554  0.6422
   21MOL0     H 2787   4.452  11.445   5.933 -2.9901  1.6454 -0.0754
   21MOL0     H 2788   4.551  11.408   6.084 -2.6510 -1.5577  2.8387
   21MOL0     H 2789   4.252  11.469   6.051  1.0630  3.0619 -1.8473
   21MOL0     H 2790   4.341  11.581   6.156 -1.7328 -0.0409  0.9593
   21MOL0     H 2791   4.298  11.287   6.182 -4.1417 -0.7922  0.2610
   21MOL0     H 2792   4.224  11.403   6.291 -0.2125  0.8476 -0.1576
   21MOL0     H 2793   4.393  11.452   6.417  1.3691 -0.8543  1.6434
   21MOL0     H 2794   4.517  11.441   6.301  1.5682 -2.5279  2.1296
   21MOL0     H 2795   4.467  10.993   6.369 -0.4457 -2.3520  1.6285
   21MOL0     H 2796   4.367  10.756   6.584  0.8814  2.1747  1.0442
   21MOL0     H 2797   4.257  10.754   6.430 -0.2131  0.2837  0.0896
   21MOL0     H 2798   4.435  10.773   6.439  0.3536  1.4686  0.4560
   21MOL0     H 2799   3.978  10.838   7.014  0.9391  0.1835 -0.4699
   21MOL0     H 2800   3.755  10.727   7.081 -0.1104 -0.6610  1.3188
   21MOL0     H 2801   3.438  10.683   6.765 -0.2404  2.2269  1.7602
   21MOL0     H 2802   3.519  10.542   6.819  0.9814 -0.3180 -0.9586
   21MOL0     H 2803   3.402  10.525   7.032  2.1779 -1.6526 -1.5754
   21MOL0     H 2804   3.308  10.668   6.997  1.2329  2.1136 -1.6049
   21MOL0     H 2805   3.301  10.414   6.825  0.0150  0.8583  0.1097
   21MOL0     H 2806   3.190  10.543   6.799  0.2328 -0.7581 -1.1559
   21MOL0     H 2807   3.208  10.404   7.070  1.1903  0.7283 -0.1770
   21MOL0     H 2808   3.113  10.536   7.032  2.6648  0.4519  3.9708
   21MOL0     H 2809   3.091  10.248   6.932 -0.1729 -0.2360  2.8335
   21MOL0     H 2810   3.022  10.362   6.822 -0.7836 -0.1305  1.4805
   21MOL0     H 2811   2.927  10.331   7.103 -0.5063 -0.9684 -0.9362
   21MOL0     H 2812   2.870  10.445   6.971 -2.4699 -0.4787 -0.7097
   21MOL0     H 2813   2.865  10.141   6.939  2.5231  0.8424 -1.7397
   21MOL0     H 2814   2.810  10.268   6.827  1.7552  0.8273 -0.8634
   21MOL0     H 2815   2.638  10.348   6.961 -0.9620 -0.0488  0.8261
   21MOL0     H 2816   2.706  10.264   7.110  2.2916  1.3292 -0.3935
   21MOL0     H 2817   3.604  10.793   6.684 -2.5641 -1.0293  2.1005
   21MOL0     H 2818   3.799  10.916   6.623  0.4234  2.2002  0.1802
   21MOL0     H 2819   4.090  11.161   6.637 -3.1635 -3.7409 -1.6978
   21MOL0     H 2820   4.237  11.326   6.502  4.0651 -0.5847  1.4889
   21MOL0     H 2821   3.585  11.843   5.827  0.0431 -0.4785 -1.4149
   21MOL0     H 2822   3.405  11.682   5.804 -0.6527  2.6270 -1.6685
   21MOL0     H 2823   3.230  11.470   5.445 -0.1861 -0.6613 -1.1136
   21MOL0     H 2824   3.042  11.375   5.326 -1.2260 -0.0602 -0.4193
   21MOL0     H 2825   2.689  11.316   5.571 -0.2117 -0.2255 -0.0288
   21MOL0     H 2826   2.632  11.373   5.405  0.6714 -1.0498 -2.4774
   21MOL0     H 2827   2.501  11.187   5.461 -0.3169  0.6525  3.4198
   21MOL0     H 2828   2.642  11.080   5.496 -0.7848  0.1434  0.0539
   21MOL0     H 2829   2.594  11.022   5.267 -2.8610  1.2975 -3.3340
   21MOL0     H 2830   2.738  11.120   5.273  1.0763  1.4035  2.4708
   21MOL0     H 2831   2.595  11.310   5.209 -0.8089  0.7172  3.2846
   21MOL0     H 2832   2.450  11.193   5.198  1.0373 -3.0141 -4.9030
   21MOL0     H 2833   2.679  11.050   4.876  1.1063 -3.3452  2.6921
   21MOL0     H 2834   2.862  11.276   5.690  1.7629 -4.8186 -0.5759
   21MOL0     H 2835   3.037  11.378   5.816 -3.0838 -0.0617 -1.2851
   22MOL0     O 2836  10.525   3.878   4.401  0.0672 -0.0287  0.4565
   22MOL0     C 2837  10.466   3.790   4.335  0.6991  0.3620 -0.1177
   22MOL0     O 2838  10.512   3.671   4.278  0.3914  0.2629 -0.5696
   22MOL0     C 2839  10.638   3.626   4.283 -0.7388 -0.0282  0.4449
   22MOL0     C 2840  10.686   3.583   4.155  0.3912  0.1424  0.5919
   22MOL0     C 2841  10.814   3.549   4.121 -0.1674 -0.0411 -1.3852
   22MOL0     C 2842  10.916   3.578   4.221  0.7398  0.2173  0.0701
   22MOL0     O 2843  11.049   3.558   4.200 -0.0778 -0.3848  0.2161
   22MOL0     C 2844  11.099   3.467   4.093  0.6340 -1.1179  0.0074
   22MOL0     C 2845  11.253   3.472   4.103  0.8488  0.2130 -0.8117
   22MOL0     C 2846  11.311   3.611   4.080  0.6968 -0.0757 -0.6029
   22MOL0     C 2847  11.430   3.639   4.164 -0.6426  0.0659  0.1652
   22MOL0     C 2848  11.475   3.789   4.129 -0.6723  0.8911 -0.6338
   22MOL0     C 2849  11.611   3.823   4.183 -0.2553 -0.5213 -0.3394
   22MOL0     C 2850  11.653   3.966   4.163 -0.5736 -0.6212  0.5743
   22MOL0     C 2851  11.584   4.050   4.050  0.3506  0.1629 -0.0334
   22MOL0     N 2852  11.659   4.177   4.047  0.1140  0.0802  0.5301
   22MOL0     C 2853  11.640   4.287   4.127 -1.3117 -1.3903 -0.6562
   22MOL0     C 2854  11.710   4.385   4.065  0.3655  0.2235  0.3791
   22MOL0     C 2855  11.728   4.522   4.109 -0.5291  0.3946 -0.0818
   22MOL0     C 2856  11.624   4.569   4.212  0.2973 -0.6391 -0.3212
   22MOL0     C 2857  11.479   4.564   4.159 -0.2013 -0.4106  0.6015
   22MOL0     C 2858  11.416   4.705   4.117 -0.1140 -0.2708  0.9145
   22MOL0     O 2859  11.459   4.733   3.986 -0.7738  0.5004  0.5397
   22MOL0     C 2860  11.431   4.865   3.942  0.6716 -0.0503 -1.0187
   22MOL0     C 2861  11.517   4.931   3.860 -0.0307  0.6663  0.6966
   22MOL0     C 2862  11.488   5.054   3.825 -0.8478  0.1460  0.6973
   22MOL0     C 2863  11.595   5.130   3.745  1.0607 -0.0564 -0.5733
   22MOL0     C 2864  11.393   5.128   3.889 -1.0168 -0.6180 -0.8679
   22MOL0     C 2865  11.357   5.266   3.858 -0.6148  0.4071 -0.3558
   22MOL0     O 2866  11.303   5.289   3.738  0.4692 -0.3431  0.4828
   22MOL0     C 2867  11.239   5.414   3.704  0.5086 -0.6585  0.2370
   22MOL0     C 2868  11.167   5.400   3.582 -0.3637  0.2031 -0.7712
   22MOL0     C 2869  11.090   5.511   3.540 -0.1441  0.1837 -0.5335
   22MOL0     C 2870  11.094   5.631   3.615 -0.6276  0.0036  0.3212
   22MOL0     O 2871  11.022   5.746   3.578  0.7576  0.0320 -0.2907
   22MOL0     C 2872  10.892   5.729   3.510 -0.3756 -0.6222  0.2048
   22MOL0     C 2873  10.819   5.873   3.483  0.6552  0.5726  0.1272
   22MOL0     C 2874  10.908   5.998   3.450 -0.1435 -0.0248 -0.1480
   22MOL0     C 2875  10.841   6.140   3.431  0.0449  0.5664 -0.0021
   22MOL0     C 2876  10.963   6.229   3.400  0.8769  0.8136  0.6717
   22MOL0     C 2877  10.937   6.373   3.377 -0.5607 -0.7323 -0.6035
   22MOL0     C 2878  10.921   6.446   3.513  0.7311 -0.3662  0.0660
   22MOL0     C 2879  10.843   6.576   3.497 -1.1786  0.2203  0.4997
   22MOL0    Cl 2880  10.875   6.680   3.637 -0.4679 -0.0611 -0.2448
   22MOL0     C 2881  11.178   5.646   3.725  0.0854  0.3757  0.5140
   22MOL0     C 2882  11.246   5.534   3.768  0.3095 -0.0829  0.5647
   22MOL0     O 2883  11.381   5.348   3.954 -0.2391 -0.0233 -0.0153
   22MOL0     C 2884  11.302   5.072   3.972  0.0323  0.0950  0.2700
   22MOL0     C 2885  11.312   4.935   3.987  0.8044  0.3046 -1.1230
   22MOL0     N 2886  11.778   4.327   3.960 -0.0494 -0.7344  0.2125
   22MOL0     N 2887  11.749   4.206   3.951  0.5957  0.0451  0.0443
   22MOL0     C 2888  10.874   3.611   4.355  0.6175 -0.1229 -0.0038
   22MOL0     C 2889  10.740   3.643   4.381  0.5537  1.0655  0.7929
   22MOL0     C 2890  10.322   3.810   4.296 -0.5795  0.3420  0.1454
   22MOL0     C 2891  10.248   3.923   4.337  0.0972 -0.7579  0.0231
   22MOL0     C 2892  10.115   3.948   4.301 -1.1341 -0.3068  0.5551
   22MOL0     C 2893  10.046   3.860   4.219 -0.3597 -0.0931 -0.6266
   22MOL0     O 2894   9.915   3.872   4.172 -0.0169  0.1098 -0.5128
   22MOL0     C 2895   9.837   3.986   4.202  0.0302 -0.3548  0.9722
   22MOL0     C 2896   9.881   4.089   4.097  1.1099  0.1227  0.1974
   22MOL0     C 2897   9.785   4.210   4.098  0.8453  1.5750 -0.2187
   22MOL0     C 2898   9.827   4.323   4.005  0.5514 -0.8936 -0.2950
   22MOL0     C 2899   9.711   4.412   3.976 -1.1742 -0.3452 -0.8078
   22MOL0     C 2900   9.614   4.482   3.952 -0.2219 -0.2527  0.3298
   22MOL0     C 2901  10.129   3.755   4.173  0.2122  0.8011  0.7679
   22MOL0     C 2902  10.257   3.735   4.206  0.2017  0.7332 -0.2341
   22MOL0     H 2903  10.613   3.564   4.077  0.7599 -3.3293  0.9548
   22MOL0     H 2904  10.839   3.510   4.023 -0.1101  2.2068 -2.3128
   22MOL0     H 2905  11.066   3.365   4.116  0.7918 -0.5870  2.9754
   22MOL0     H 2906  11.053   3.491   3.997 -1.3166  1.1247  1.4145
   22MOL0     H 2907  11.272   3.445   4.207  0.7103  1.9620 -0.3097
   22MOL0     H 2908  11.306   3.403   4.036 -0.3634  1.0513 -2.7302
   22MOL0     H 2909  11.341   3.621   3.975  0.7902  3.5247 -0.3510
   22MOL0     H 2910  11.245   3.693   4.109  0.5822 -0.8319  1.4119
   22MOL0     H 2911  11.409   3.630   4.271 -2.4600  2.3453  0.0920
   22MOL0     H 2912  11.514   3.572   4.143 -2.0510 -1.7006 -0.0653
   22MOL0     H 2913  11.461   3.813   4.023 -0.1497 -0.1722 -0.9721
   22MOL0     H 2914  11.402   3.854   4.178 -0.9304  0.6037 -0.6357
   22MOL0     H 2915  11.618   3.796   4.289  1.2300  0.5878 -0.1166
   22MOL0     H 2916  11.687   3.763   4.132 -0.8924 -0.6601 -1.1507
   22MOL0     H 2917  11.639   4.023   4.256 -0.3706 -1.4648  1.1328
   22MOL0     H 2918  11.761   3.977   4.147 -0.9108  0.5872 -1.1775
   22MOL0     H 2919  11.479   4.067   4.074  0.3086  2.4377 -1.5106
   22MOL0     H 2920  11.594   3.993   3.957  1.1629  0.1334  0.0660
   22MOL0     H 2921  11.588   4.276   4.221 -3.1071 -1.2083 -1.5928
   22MOL0     H 2922  11.830   4.535   4.147 -0.1775  1.6829 -1.4023
   22MOL0     H 2923  11.725   4.582   4.018 -0.2665 -1.0258 -1.0575
   22MOL0     H 2924  11.648   4.665   4.260  0.8790 -1.7190  1.6700
   22MOL0     H 2925  11.622   4.504   4.300  0.9419 -0.4247 -0.1422
   22MOL0     H 2926  11.420   4.535   4.246 -1.7589  1.7296  0.3422
   22MOL0     H 2927  11.469   4.495   4.076  2.3023  3.2975 -3.2184
   22MOL0     H 2928  11.441   4.788   4.183 -0.8047  0.9507 -0.3182
   22MOL0     H 2929  11.308   4.689   4.114 -0.3571  1.3598 -1.6162
   22MOL0     H 2930  11.600   4.884   3.806  1.6134  2.3743  1.6190
   22MOL0     H 2931  11.640   5.205   3.810  1.5635  1.7783 -2.8979
   22MOL0     H 2932  11.672   5.065   3.701  1.3271 -0.3902  0.3568
   22MOL0     H 2933  11.548   5.194   3.670  0.2347  1.5676  1.2694
   22MOL0     H 2934  11.173   5.317   3.513 -0.0685 -0.2385 -0.2199
   22MOL0     H 2935  11.046   5.502   3.441 -0.1577  0.4163 -0.5497
   22MOL0     H 2936  10.899   5.667   3.420  0.3458  0.8583 -0.7867
   22MOL0     H 2937  10.818   5.674   3.569  0.7582 -2.0525  0.3269
   22MOL0     H 2938  10.749   5.857   3.400 -0.5635  0.5255  1.1309
   22MOL0     H 2939  10.745   5.902   3.558 -0.9471  1.1488 -1.5891
   22MOL0     H 2940  10.963   5.970   3.359  0.9509  2.4919 -0.3286
   22MOL0     H 2941  10.980   6.000   3.533  2.3370 -0.1594 -2.1820
   22MOL0     H 2942  10.770   6.172   3.354 -1.7155  1.5310  1.9124
   22MOL0     H 2943  10.804   6.191   3.520  0.3538  2.6932 -1.0192
   22MOL0     H 2944  11.016   6.190   3.312  0.5410 -1.2735  1.3330
   22MOL0     H 2945  11.043   6.232   3.475  2.5444 -1.5738 -0.8385
   22MOL0     H 2946  11.030   6.414   3.338  3.4261 -3.6108  4.5207
   22MOL0     H 2947  10.860   6.390   3.301 -0.1466 -3.5233 -1.7919
   22MOL0     H 2948  11.020   6.480   3.544 -0.4939  1.9197  1.8464
   22MOL0     H 2949  10.874   6.380   3.587  0.0055  0.5124  0.4152
   22MOL0     H 2950  10.735   6.560   3.501 -0.8779 -2.7136 -0.6724
   22MOL0     H 2951  10.874   6.628   3.406 -1.1617  0.1912  0.4892
   22MOL0     H 2952  11.182   5.736   3.786  5.2910  2.3613 -2.1265
   22MOL0     H 2953  11.307   5.557   3.855 -2.9796  0.5464  2.8810
   22MOL0     H 2954  11.209   5.121   3.997 -1.5446 -1.7603 -1.5543
   22MOL0     H 2955  11.229   4.884   4.035 -0.0263  1.7930 -0.9125
   22MOL0     H 2956  10.954   3.610   4.428  2.2731 -0.6481 -1.7502
   22MOL0     H 2957  10.693   3.668   4.476 -0.5389 -1.4594  0.9901
   22MOL0     H 2958  10.305   3.994   4.396 -0.2426  1.0209 -1.6884
   22MOL0     H 2959  10.059   4.035   4.333 -0.4672  0.2070  0.3516
   22MOL0     H 2960   9.729   3.974   4.194 -0.7312  4.2226  1.7090
   22MOL0     H 2961   9.861   4.018   4.304 -0.6266 -0.7429  1.2558
   22MOL0     H 2962   9.883   4.052   3.994  0.3092 -0.6166  0.4402
   22MOL0     H 2963   9.975   4.139   4.124 -0.5993  2.8822  1.4764
   22MOL0     H 2964   9.773   4.251   4.199 -4.4520 -1.1952  0.6516
   22MOL0     H 2965   9.687   4.169   4.069  0.5225  3.2090 -1.6170
   22MOL0     H 2966   9.857   4.271   3.914  0.9009 -0.4409 -0.4421
   22MOL0     H 2967   9.904   4.387   4.048  0.1818 -0.4850 -0.2292
   22MOL0     H 2968   9.527   4.545   3.950  1.2645  1.9202  0.2846
   22MOL0     H 2969  10.086   3.674   4.115  3.1144 -2.4102  2.7396
   22MOL0     H 2970  10.292   3.637   4.177  4.0262  2.0593 -0.7801
   23MOL0     O 2971   4.253   3.723   4.220 -0.1947  0.4707  0.9043
   23MOL0     C 2972   4.322   3.808   4.171 -0.2750  0.0501  0.8398
   23MOL0     O 2973   4.411   3.785   4.068 -0.6327  0.6244  0.2979
   23MOL0     C 2974   4.424   3.645   4.050  0.3238  0.3459  0.7516
   23MOL0     C 2975   4.477   3.559   4.139  0.2923 -0.4406  0.4006
   23MOL0     C 2976   4.455   3.422   4.122  0.1950  0.3780 -0.4162
   23MOL0     C 2977   4.381   3.365   4.021 -1.1693 -0.1663  0.7029
   23MOL0     O 2978   4.364   3.223   4.022  0.5656 -0.1031 -0.0827
   23MOL0     C 2979   4.226   3.185   4.023 -0.2310  0.9593 -0.0189
   23MOL0     C 2980   4.151   3.191   4.150  0.6558 -0.1128  0.2359
   23MOL0     C 2981   4.001   3.166   4.122  0.3979 -0.6136  0.1279
   23MOL0     C 2982   3.907   3.216   4.232  0.7912  0.4976  0.4421
   23MOL0     C 2983   3.757   3.179   4.216 -0.2514  0.5378 -0.0997
   23MOL0     C 2984   3.677   3.258   4.118  0.1414  0.3116 -0.1729
   23MOL0     C 2985   3.688   3.229   3.965 -0.3071 -0.3593  0.4998
   23MOL0     C 2986   3.664   3.351   3.887  0.5003  0.6629  0.1309
   23MOL0     N 2987   3.786   3.430   3.894  0.5318 -0.0279 -0.3672
   23MOL0     C 2988   3.802   3.548   3.967 -0.7586  0.6420  0.1470
   23MOL0     C 2989   3.925   3.590   3.923 -0.5145  0.0756 -0.3923
   23MOL0     C 2990   3.995   3.712   3.963 -0.2066 -0.5583  0.6119
   23MOL0     C 2991   4.001   3.812   3.839 -0.4918 -0.0176 -0.5407
   23MOL0     C 2992   4.074   3.950   3.887 -0.4276  0.6578 -0.1244
   23MOL0     C 2993   3.976   4.039   3.952  0.3495 -0.7105  0.3256
   23MOL0     O 2994   3.901   4.111   3.849  0.7726 -0.1761 -0.5179
   23MOL0     C 2995   3.956   4.214   3.775  0.2922 -0.3852  0.7969
   23MOL0     C 2996   4.034   4.312   3.832  0.7265 -0.1346  0.0253
   23MOL0     C 2997   4.077   4.425   3.764  0.3944  0.3811 -0.6962
   23MOL0     C 2998   4.156   4.531   3.842 -0.5361  0.1619 -0.1024
   23MOL0     C 2999   4.052   4.436   3.626  0.5562  0.9253  0.2908
   23MOL0     C 3000   4.123   4.538   3.553 -0.3076  0.3508  1.2829
   23MOL0     O 3001   4.254   4.565   3.578 -0.0881  0.2424  0.0699
   23MOL0     C 3002   4.319   4.678   3.528  0.8144  0.5085  0.4683
   23MOL0     C 3003   4.323   4.690   3.390 -0.4689 -0.6076 -0.0577
   23MOL0     C 3004   4.399   4.795   3.332  0.0066  0.2716  0.1975
   23MOL0     C 3005   4.459   4.890   3.412  0.5531  0.2229 -0.2782
   23MOL0     O 3006   4.524   5.001   3.373 -0.2211 -0.2402 -0.4486
   23MOL0     C 3007   4.473   5.057   3.256 -0.8223 -0.8849  0.1799
   23MOL0     C 3008   4.559   5.167   3.202 -0.2215 -0.0257 -0.2153
   23MOL0     C 3009   4.487   5.286   3.143  0.1238 -0.0325 -1.0829
   23MOL0     C 3010   4.568   5.404   3.088 -0.5759 -0.3647 -0.1591
   23MOL0     C 3011   4.495   5.497   2.997 -0.4843  0.3778  0.5707
   23MOL0     C 3012   4.599   5.591   2.928  1.1497  0.2383 -0.0220
   23MOL0     C 3013   4.535   5.712   2.863  0.1527 -0.9322 -0.9963
   23MOL0     C 3014   4.633   5.820   2.800  0.1303  0.1362  0.3703
   23MOL0    Cl 3015   4.696   5.760   2.643  0.1805 -0.0016 -0.2657
   23MOL0     C 3016   4.458   4.875   3.550  0.1187 -0.0196 -0.1767
   23MOL0     C 3017   4.388   4.763   3.607  0.1873 -0.4381  0.0002
   23MOL0     O 3018   4.048   4.611   3.498  0.2126 -0.2411  0.5368
   23MOL0     C 3019   3.967   4.346   3.560  0.1741 -0.3347  0.0211
   23MOL0     C 3020   3.915   4.237   3.646  0.3956  0.1027 -0.6424
   23MOL0     N 3021   3.978   3.496   3.835  0.3986 -0.1056  0.5247
   23MOL0     N 3022   3.889   3.404   3.810  0.8829  0.1883 -0.5888
   23MOL0     C 3023   4.327   3.466   3.928  0.7436 -0.4098 -0.9561
   23MOL0     C 3024   4.350   3.603   3.940  0.1792 -0.0291  0.4944
   23MOL0     C 3025   4.299   3.954   4.203 -0.1786  0.7245 -1.0147
   23MOL0     C 3026   4.204   3.994   4.305 -0.7032  0.0199 -0.4566
   23MOL0     C 3027   4.194   4.130   4.340  0.2480  0.1847  0.0828
   23MOL0     C 3028   4.274   4.223   4.270  0.3279 -0.5126 -0.4046
   23MOL0     O 3029   4.264   4.356   4.312  0.3358 -0.2625 -0.5780
   23MOL0     C 3030   4.365   4.447   4.329 -0.2527  0.3924  0.2467
   23MOL0     C 3031   4.327   4.569   4.245  1.3159  0.0187  0.5448
   23MOL0     C 3032   4.443   4.666   4.231 -0.4871 -0.3727  0.3459
   23MOL0     C 3033   4.560   4.615   4.143  0.7857  1.1592  0.0604
   23MOL0     C 3034   4.545   4.673   4.012 -0.1804  1.1216 -0.0676
   23MOL0     C 3035   4.593   4.714   3.907  0.1878  0.0804  0.0599
   23MOL0     C 3036   4.348   4.181   4.165 -0.5180 -0.5255  0.1889
   23MOL0     C 3037   4.372   4.054   4.136  0.7503 -0.3715 -0.0532
   23MOL0     H 3038   4.525   3.605   4.225  0.0334  0.7338 -0.0650
   23MOL0     H 3039   4.481   3.358   4.206 -0.7416  0.6802  0.1228
   23MOL0     H 3040   4.171   3.244   3.949 -2.7967  2.9544  3.2150
   23MOL0     H 3041   4.211   3.079   3.998  0.7644  0.5480  1.0516
   23MOL0     H 3042   4.182   3.133   4.237 -0.4188  1.0056  1.4149
   23MOL0     H 3043   4.175   3.290   4.189 -4.2394  1.0657  0.9681
   23MOL0     H 3044   3.966   3.213   4.030 -0.7711 -0.6299  0.5490
   23MOL0     H 3045   3.974   3.062   4.107  0.0531 -0.3341 -1.2910
   23MOL0     H 3046   3.943   3.174   4.326  2.5612 -0.5735 -0.6607
   23MOL0     H 3047   3.918   3.325   4.235 -0.9513  0.7289 -0.4149
   23MOL0     H 3048   3.737   3.073   4.198 -1.1971  0.3655  1.7208
   23MOL0     H 3049   3.717   3.202   4.315  0.6267 -1.0010  0.6376
   23MOL0     H 3050   3.571   3.260   4.145 -0.4345 -0.4195 -2.2134
   23MOL0     H 3051   3.705   3.361   4.141  1.3840  0.0260 -0.3635
   23MOL0     H 3052   3.786   3.186   3.944  1.4304  3.4196  0.0440
   23MOL0     H 3053   3.608   3.158   3.941 -2.9439  2.5023  0.1527
   23MOL0     H 3054   3.578   3.417   3.902  0.8531  1.1884 -0.1217
   23MOL0     H 3055   3.660   3.320   3.782  2.5828  2.8116 -0.6828
   23MOL0     H 3056   3.730   3.597   4.032 -1.8248  0.6613 -0.9994
   23MOL0     H 3057   3.943   3.759   4.047  1.2665 -0.5501  1.5541
   23MOL0     H 3058   4.094   3.687   4.002 -1.0715 -4.6311  0.6144
   23MOL0     H 3059   3.901   3.836   3.801  0.1030 -0.1830 -2.2987
   23MOL0     H 3060   4.066   3.764   3.765 -0.0281 -4.2257  2.2101
   23MOL0     H 3061   4.129   4.003   3.808  3.9463 -0.9552  1.5334
   23MOL0     H 3062   4.148   3.930   3.965  1.1060  1.1243 -1.4072
   23MOL0     H 3063   4.035   4.103   4.018 -1.6036  2.3378 -0.7086
   23MOL0     H 3064   3.903   3.980   4.008 -0.0125  0.2730  0.8968
   23MOL0     H 3065   4.058   4.296   3.937  0.7912 -0.8465 -0.0886
   23MOL0     H 3066   4.168   4.499   3.946  4.4346 -0.3697 -0.5599
   23MOL0     H 3067   4.262   4.552   3.824 -0.5571  0.7964  0.5043
   23MOL0     H 3068   4.108   4.629   3.837  0.7213  0.8518  0.8048
   23MOL0     H 3069   4.268   4.618   3.330 -1.6442 -1.1628  1.6098
   23MOL0     H 3070   4.405   4.801   3.224 -2.4201 -0.8139 -0.0581
   23MOL0     H 3071   4.462   4.986   3.174  0.2779 -1.3549  0.4253
   23MOL0     H 3072   4.373   5.096   3.278 -0.3426 -0.0229  0.9155
   23MOL0     H 3073   4.622   5.200   3.285 -0.2011 -0.2694 -0.1331
   23MOL0     H 3074   4.641   5.143   3.135  0.6463 -0.0550  0.8205
   23MOL0     H 3075   4.416   5.317   3.220  2.9773 -0.8351  2.1222
   23MOL0     H 3076   4.434   5.235   3.062 -0.8097 -0.3189 -0.2994
   23MOL0     H 3077   4.620   5.465   3.162  1.0274  0.4747 -1.8890
   23MOL0     H 3078   4.654   5.365   3.033 -1.9982 -1.8976 -1.3883
   23MOL0     H 3079   4.417   5.555   3.047  1.1028  0.6032  2.9156
   23MOL0     H 3080   4.447   5.433   2.922  0.9529 -0.3654  0.2404
   23MOL0     H 3081   4.680   5.609   2.999 -1.2018 -0.0053  2.8835
   23MOL0     H 3082   4.656   5.547   2.846 -1.2191 -0.8911 -1.1538
   23MOL0     H 3083   4.483   5.763   2.945 -1.1181  0.1202 -2.3870
   23MOL0     H 3084   4.460   5.683   2.789 -2.0579 -1.2756  1.2651
   23MOL0     H 3085   4.714   5.840   2.871  1.6316  0.6303 -1.4328
   23MOL0     H 3086   4.581   5.914   2.778  1.4715  0.5827 -1.0099
   23MOL0     H 3087   4.502   4.947   3.618  1.4845 -1.8636  0.9898
   23MOL0     H 3088   4.412   4.742   3.711 -0.2838 -0.3916  0.1196
   23MOL0     H 3089   3.946   4.349   3.454 -1.6595  4.2262  0.3017
   23MOL0     H 3090   3.848   4.163   3.604  1.2670 -0.0317 -1.8575
   23MOL0     H 3091   4.256   3.426   3.857 -1.2987 -0.6752  1.1097
   23MOL0     H 3092   4.304   3.667   3.865 -2.1961 -1.5439  0.5821
   23MOL0     H 3093   4.159   3.919   4.369  2.9579 -1.1945  0.9859
   23MOL0     H 3094   4.139   4.160   4.429  1.0476  1.9704  0.0169
   23MOL0     H 3095   4.380   4.473   4.434 -0.6269 -1.0120  0.6689
   23MOL0     H 3096   4.454   4.402   4.285 -1.3732 -0.8409 -0.8846
   23MOL0     H 3097   4.240   4.608   4.298  0.1827 -1.1486 -0.3899
   23MOL0     H 3098   4.288   4.545   4.146 -0.2838  0.0651  1.1441
   23MOL0     H 3099   4.489   4.680   4.329  1.4177  1.9861 -0.7796
   23MOL0     H 3100   4.411   4.768   4.206 -1.1910 -0.6535  0.0743
   23MOL0     H 3101   4.551   4.507   4.134  0.6066  1.0974  0.8825
   23MOL0     H 3102   4.651   4.641   4.198 -0.3748  2.0448  1.6655
   23MOL0     H 3103   4.662   4.749   3.833  2.4083  1.0278  2.4179
   23MOL0     H 3104   4.390   4.262   4.107 -0.7184  0.3881  1.2837
   23MOL0     H 3105   4.444   4.037   4.057 -1.1664 -0.5331 -1.8630
   24MOL0     O 3106   5.286   0.248   8.647  0.1578 -0.2627  0.9491
   24MOL0     C 3107   5.311   0.192   8.535  0.5511  0.7629  0.1300
   24MOL0     O 3108   5.434   0.143   8.492 -0.0718 -0.0953 -0.5022
   24MOL0     C 3109   5.535   0.138   8.588  0.3819  0.5555 -0.1210
   24MOL0     C 3110   5.654   0.216   8.563  0.9504  0.6108  0.9154
   24MOL0     C 3111   5.756   0.225   8.660  0.2311 -0.5263 -0.2410
   24MOL0     C 3112   5.743   0.154   8.777 -0.7391  0.0551  0.5973
   24MOL0     O 3113   5.834   0.177   8.870  0.6944  0.1313 -0.6129
   24MOL0     C 3114   5.877   0.066   8.947  0.0582 -0.0177 -0.3252
   24MOL0     C 3115   6.030   0.092   8.947 -0.0035  0.3257 -0.4741
   24MOL0     C 3116   6.071   0.214   9.031 -0.6080 -0.3457  1.0563
   24MOL0     C 3117   6.069   0.180   9.180  1.7327 -0.3791  0.8432
   24MOL0     C 3118   6.129   0.294   9.257  0.0554 -0.1145  0.1415
   24MOL0     C 3119   6.256   0.252   9.336  0.5717  0.0545 -0.9510
   24MOL0     C 3120   6.365   0.167   9.268  0.5039  0.2860 -0.1553
   24MOL0     C 3121   6.489   0.173   9.356  0.5215 -0.2599 -0.4482
   24MOL0     N 3122   6.462   0.134   9.489 -0.9827 -0.3407 -0.0521
   24MOL0     C 3123   6.421   0.013   9.535 -0.0929 -0.0758 -0.0699
   24MOL0     C 3124   6.406   0.023   9.668 -0.6014 -0.2904 -0.2490
   24MOL0     C 3125   6.369  -0.082   9.779  0.0072 -0.4212  0.4517
   24MOL0     C 3126   6.324  -0.227   9.715  0.5359  0.0469  0.4405
   24MOL0     C 3127   6.255  -0.317   9.815 -0.4533 -0.2997  0.2423
   24MOL0     C 3128   6.198  -0.444   9.763  0.1824 -0.1911 -0.1155
   24MOL0     O 3129   6.078  -0.421   9.690  0.2912  0.6972  0.0144
   24MOL0     C 3130   5.979  -0.516   9.670  0.6861  0.0638 -0.2830
   24MOL0     C 3131   5.857  -0.462   9.616  0.4069  1.2817 -0.3482
   24MOL0     C 3132   5.748  -0.544   9.570  0.5660 -1.5098  0.7284
   24MOL0     C 3133   5.615  -0.473   9.522  0.8579 -0.7936  0.7861
   24MOL0     C 3134   5.765  -0.686   9.593  0.3473 -0.4467 -0.3224
   24MOL0     C 3135   5.665  -0.782   9.552 -0.6724  0.6110 -0.7858
   24MOL0     O 3136   5.571  -0.760   9.457  0.3773  0.2041 -0.2609
   24MOL0     C 3137   5.483  -0.860   9.435 -1.4324 -0.1504 -0.7159
   24MOL0     C 3138   5.367  -0.860   9.511 -0.7331  0.3137  1.1490
   24MOL0     C 3139   5.269  -0.954   9.496 -1.2091  0.1278 -0.1844
   24MOL0     C 3140   5.285  -1.062   9.414 -1.5633 -0.2690  0.1940
   24MOL0     O 3141   5.183  -1.144   9.396  0.3639  0.4012  0.6387
   24MOL0     C 3142   5.189  -1.283   9.340  0.3324  0.8430 -0.7726
   24MOL0     C 3143   5.059  -1.361   9.361  0.0746  0.9456 -0.3474
   24MOL0     C 3144   4.948  -1.286   9.278 -0.1104 -0.6734  0.5690
   24MOL0     C 3145   4.816  -1.359   9.294 -0.6791 -0.5238 -0.1113
   24MOL0     C 3146   4.819  -1.490   9.220  0.6792  0.1992  0.7132
   24MOL0     C 3147   4.670  -1.543   9.238  0.7641  0.5105  0.2506
   24MOL0     C 3148   4.644  -1.585   9.388  0.0631 -0.1675  0.4001
   24MOL0     C 3149   4.552  -1.706   9.405 -0.4929 -0.0817  0.7201
   24MOL0    Cl 3150   4.621  -1.864   9.360  0.0241 -0.7959  0.3508
   24MOL0     C 3151   5.417  -1.071   9.348  0.6869 -0.1394 -0.0009
   24MOL0     C 3152   5.516  -0.967   9.354  0.2799  0.1394 -0.8940
   24MOL0     O 3153   5.668  -0.891   9.614 -0.4262  0.5840 -0.1686
   24MOL0     C 3154   5.885  -0.732   9.657  1.4090 -0.0170 -0.0121
   24MOL0     C 3155   5.991  -0.652   9.695  0.5115 -0.0089  0.4609
   24MOL0     N 3156   6.442   0.142   9.707  0.3296 -0.6112 -1.0167
   24MOL0     N 3157   6.478   0.214   9.601 -0.9621 -0.0297 -0.0494
   24MOL0     C 3158   5.629   0.066   8.799 -0.1142 -0.6249  0.7850
   24MOL0     C 3159   5.526   0.062   8.702  0.2329  0.8339 -0.3236
   24MOL0     C 3160   5.207   0.195   8.422  0.3069  0.0157 -0.9561
   24MOL0     C 3161   5.237   0.158   8.294  0.2202  0.0658 -0.2553
   24MOL0     C 3162   5.155   0.157   8.181  0.5362 -0.0653 -0.3081
   24MOL0     C 3163   5.024   0.206   8.200 -0.6833 -0.6360 -0.4061
   24MOL0     O 3164   4.958   0.226   8.078  0.1327 -0.3085  0.0176
   24MOL0     C 3165   4.821   0.258   8.085  0.0632 -0.4365  0.0541
   24MOL0     C 3166   4.756   0.228   7.947 -0.0674 -0.6488  0.6148
   24MOL0     C 3167   4.620   0.173   7.977  0.4276  0.7072 -0.5991
   24MOL0     C 3168   4.620   0.024   8.018 -0.4653  0.4258  1.1214
   24MOL0     C 3169   4.490  -0.007   8.069  0.0161  0.9803 -0.5546
   24MOL0     C 3170   4.383  -0.034   8.113  0.5825 -0.6769 -0.2651
   24MOL0     C 3171   4.983   0.240   8.333  0.2271 -0.2688  1.1503
   24MOL0     C 3172   5.073   0.230   8.442 -0.5381 -0.5890 -0.6438
   24MOL0     H 3173   5.653   0.261   8.464 -3.0694 -0.9310  0.0567
   24MOL0     H 3174   5.843   0.284   8.633  1.1490 -3.1333 -3.7061
   24MOL0     H 3175   5.826   0.053   9.044  1.5449 -0.9768  0.3610
   24MOL0     H 3176   5.855  -0.020   8.883  2.1787  0.4906 -1.8374
   24MOL0     H 3177   6.079  -0.003   8.971 -0.9097 -0.2265 -0.7649
   24MOL0     H 3178   6.058   0.111   8.843  2.4046  2.7154  0.4923
   24MOL0     H 3179   6.179   0.225   9.016 -0.6912  0.9926  1.2788
   24MOL0     H 3180   6.026   0.307   8.996 -1.9568 -1.9578 -1.8268
   24MOL0     H 3181   5.962   0.170   9.204  2.1351 -2.4248  2.0883
   24MOL0     H 3182   6.109   0.081   9.203  3.2662  0.6049  2.7300
   24MOL0     H 3183   6.163   0.367   9.184  2.2717 -1.6681 -0.4756
   24MOL0     H 3184   6.057   0.337   9.328 -1.3848 -0.9858 -0.7479
   24MOL0     H 3185   6.291   0.344   9.382  0.9144 -0.3012 -0.4935
   24MOL0     H 3186   6.230   0.182   9.416 -0.6208 -0.9024 -2.1138
   24MOL0     H 3187   6.335   0.064   9.247  2.2149 -0.3879  0.4701
   24MOL0     H 3188   6.402   0.204   9.172  1.1438  1.0283  0.3673
   24MOL0     H 3189   6.523   0.277   9.345  1.6496 -0.8039 -2.7235
   24MOL0     H 3190   6.576   0.117   9.321  1.0755 -0.3290  0.9528
   24MOL0     H 3191   6.417  -0.077   9.473 -1.5187 -0.9870  1.2879
   24MOL0     H 3192   6.443  -0.103   9.857  0.2408 -2.8647 -0.3354
   24MOL0     H 3193   6.272  -0.054   9.822 -1.3528 -0.7298 -2.2094
   24MOL0     H 3194   6.416  -0.268   9.672  0.3808  1.4435 -1.3409
   24MOL0     H 3195   6.256  -0.208   9.631 -1.2267  1.4094  2.0831
   24MOL0     H 3196   6.169  -0.274   9.868 -1.5646 -3.5199  1.3122
   24MOL0     H 3197   6.334  -0.345   9.885  1.2429  0.6504 -1.2144
   24MOL0     H 3198   6.175  -0.508   9.849 -1.0989 -1.9269 -1.6766
   24MOL0     H 3199   6.266  -0.507   9.705  0.6174 -0.5974  0.8059
   24MOL0     H 3200   5.851  -0.354   9.606  3.9396  1.7557  1.1089
   24MOL0     H 3201   5.527  -0.511   9.575  0.1812 -2.5409 -1.4351
   24MOL0     H 3202   5.621  -0.364   9.528  0.6892 -0.6451 -1.0988
   24MOL0     H 3203   5.591  -0.495   9.417  3.4613  1.7036 -0.4884
   24MOL0     H 3204   5.348  -0.779   9.580  1.7145 -0.6059  3.0523
   24MOL0     H 3205   5.176  -0.946   9.552 -1.4769  0.4285 -0.6664
   24MOL0     H 3206   5.206  -1.281   9.232 -1.2445 -0.9150 -1.1051
   24MOL0     H 3207   5.272  -1.334   9.390  0.2727  0.0466 -1.4566
   24MOL0     H 3208   5.062  -1.463   9.320 -0.0853  1.3073 -1.2808
   24MOL0     H 3209   5.026  -1.369   9.465 -2.0573 -1.2027 -1.0959
   24MOL0     H 3210   4.963  -1.291   9.169 -2.4833 -1.6849  0.2263
   24MOL0     H 3211   4.947  -1.182   9.312 -1.8590 -0.6716  0.5608
   24MOL0     H 3212   4.804  -1.375   9.402  2.0944 -2.9482 -0.0361
   24MOL0     H 3213   4.734  -1.296   9.259 -0.3478  1.6789  2.7369
   24MOL0     H 3214   4.887  -1.559   9.270  2.7073  0.6287 -1.2716
   24MOL0     H 3215   4.834  -1.468   9.114 -3.1337  0.6075  0.1062
   24MOL0     H 3216   4.583  -1.481   9.214 -1.0992 -2.4364 -1.2545
   24MOL0     H 3217   4.655  -1.625   9.167 -0.9258 -0.3312  1.4935
   24MOL0     H 3218   4.592  -1.500   9.433 -1.1523  0.5607 -2.2047
   24MOL0     H 3219   4.740  -1.599   9.439  0.5697  2.9762  0.5247
   24MOL0     H 3220   4.457  -1.688   9.354 -0.1986  1.7908  0.7622
   24MOL0     H 3221   4.525  -1.715   9.510 -0.1468  0.4509  0.8576
   24MOL0     H 3222   5.439  -1.160   9.289  3.3060 -0.0368  0.6978
   24MOL0     H 3223   5.612  -0.970   9.303  0.6890 -0.3471 -0.1094
   24MOL0     H 3224   5.901  -0.839   9.671 -1.0943 -0.6527 -1.3927
   24MOL0     H 3225   6.083  -0.682   9.743  0.8051  1.6311  0.9815
   24MOL0     H 3226   5.624   0.020   8.898 -2.8447  0.8792  1.4528
   24MOL0     H 3227   5.435   0.008   8.724  1.3770 -0.3296  1.8723
   24MOL0     H 3228   5.339   0.134   8.266  0.0492 -1.7406  0.5016
   24MOL0     H 3229   5.190   0.130   8.082 -0.6168 -0.2874 -0.6712
   24MOL0     H 3230   4.776   0.202   8.167 -1.4114  1.5724  0.6921
   24MOL0     H 3231   4.802   0.363   8.110  0.1875 -0.9345  2.5255
   24MOL0     H 3232   4.810   0.146   7.900 -4.2757 -2.5580 -1.4580
   24MOL0     H 3233   4.757   0.322   7.892  0.9271 -0.7796  0.3940
   24MOL0     H 3234   4.559   0.180   7.887 -0.8648 -2.4829 -0.1187
   24MOL0     H 3235   4.572   0.229   8.057  0.6897  3.5326 -2.3082
   24MOL0     H 3236   4.695   0.001   8.094  1.9795  1.3113 -0.9077
   24MOL0     H 3237   4.649  -0.041   7.935 -2.6883 -1.3565  1.6334
   24MOL0     H 3238   4.293  -0.049   8.169 -0.1985  2.0627 -0.6231
   24MOL0     H 3239   4.882   0.279   8.343  0.8163  1.7380 -0.2515
   24MOL0     H 3240   5.054   0.251   8.547 -1.6794  0.2986 -1.0036
   25MOL0     O 3241   5.999   0.506   7.577  0.2336 -0.0452  0.2811
   25MOL0     C 3242   5.919   0.434   7.516 -0.3786  0.0569  0.2153
   25MOL0     O 3243   5.814   0.469   7.446  0.5166  1.7347  0.3834
   25MOL0     C 3244   5.778   0.597   7.454 -0.7302 -0.0306 -0.6917
   25MOL0     C 3245   5.762   0.674   7.564  0.9532  0.0712 -0.5420
   25MOL0     C 3246   5.716   0.803   7.562 -0.6598 -0.4810  0.5509
   25MOL0     C 3247   5.672   0.862   7.444  0.2914  0.4881 -0.8241
   25MOL0     O 3248   5.629   0.991   7.426  0.1562  0.0606  0.0308
   25MOL0     C 3249   5.563   1.051   7.534 -0.2819  0.6972  0.3493
   25MOL0     C 3250   5.511   1.181   7.491  0.5166  0.3123 -0.2457
   25MOL0     C 3251   5.597   1.304   7.475  0.3386 -0.6125 -0.1411
   25MOL0     C 3252   5.742   1.295   7.505 -1.0153  0.1198 -0.4976
   25MOL0     C 3253   5.828   1.422   7.503  0.4502 -0.3561  0.0808
   25MOL0     C 3254   5.859   1.454   7.356 -0.9492 -0.0290 -0.1534
   25MOL0     C 3255   5.956   1.577   7.334  0.1055  0.2353  0.2100
   25MOL0     C 3256   6.089   1.564   7.414  0.7363 -0.7592 -0.3344
   25MOL0     N 3257   6.205   1.649   7.365 -0.3696  0.0543  1.1166
   25MOL0     C 3258   6.186   1.765   7.289 -0.5293 -0.4784  0.3233
   25MOL0     C 3259   6.305   1.805   7.232 -0.2930 -0.5954  0.4888
   25MOL0     C 3260   6.313   1.939   7.157 -0.3656 -0.1247  0.3868
   25MOL0     C 3261   6.437   2.042   7.176 -0.8459  0.5894  0.6907
   25MOL0     C 3262   6.559   1.978   7.103 -0.1939  0.7114  0.9124
   25MOL0     C 3263   6.551   1.955   6.952  0.4119 -0.1664 -0.1264
   25MOL0     O 3264   6.678   1.980   6.878  0.0519  0.6067 -0.4291
   25MOL0     C 3265   6.693   2.106   6.817  0.1477  0.4451 -1.2144
   25MOL0     C 3266   6.798   2.121   6.730  0.2644  0.3690 -0.7435
   25MOL0     C 3267   6.836   2.244   6.677 -0.0815 -0.5100  1.0643
   25MOL0     C 3268   6.946   2.246   6.578  0.4351 -0.5646 -0.0383
   25MOL0     C 3269   6.771   2.369   6.711 -0.8652 -0.2754 -0.2938
   25MOL0     C 3270   6.789   2.494   6.648 -0.7880 -0.2561 -0.2555
   25MOL0     O 3271   6.826   2.593   6.730 -0.3206 -0.3189  0.2895
   25MOL0     C 3272   6.845   2.720   6.672  0.2333 -0.3983  0.4040
   25MOL0     C 3273   6.964   2.791   6.668 -0.7852 -0.2409  0.5058
   25MOL0     C 3274   6.977   2.922   6.616 -0.8910  0.7143 -1.0594
   25MOL0     C 3275   6.871   2.993   6.557  0.0292  0.7349 -1.1483
   25MOL0     O 3276   6.877   3.122   6.508  0.3536  0.4460  0.9207
   25MOL0     C 3277   7.007   3.158   6.465  0.4648  0.6306  1.3684
   25MOL0     C 3278   7.056   3.109   6.336 -0.3532  0.3233  0.3867
   25MOL0     C 3279   6.943   3.091   6.222  0.1249 -0.4867 -1.0052
   25MOL0     C 3280   6.949   2.972   6.127 -0.6198  1.1607 -0.2771
   25MOL0     C 3281   6.923   2.840   6.200  0.3751 -0.3190  0.5602
   25MOL0     C 3282   6.907   2.723   6.090  0.5145 -0.7033 -0.5987
   25MOL0     C 3283   6.875   2.594   6.170 -0.8546 -0.6239 -0.0367
   25MOL0     C 3284   6.999   2.538   6.246  0.0295  1.0626  0.2151
   25MOL0    Cl 3285   7.112   2.474   6.109 -0.7723  0.4445 -0.5242
   25MOL0     C 3286   6.744   2.921   6.563 -0.3536  0.2867  0.6420
   25MOL0     C 3287   6.737   2.787   6.616  0.3184 -0.9088 -0.5968
   25MOL0     O 3288   6.783   2.499   6.525 -0.4259  0.4770  0.8755
   25MOL0     C 3289   6.668   2.353   6.804  0.6605 -0.6396  0.1413
   25MOL0     C 3290   6.634   2.228   6.861  0.4746 -0.1106  0.2099
   25MOL0     N 3291   6.401   1.710   7.283 -0.8969  0.2484  1.1527
   25MOL0     N 3292   6.337   1.617   7.356  0.0569 -0.3956  0.1804
   25MOL0     C 3293   5.668   0.786   7.326  0.0196  0.4365 -0.2534
   25MOL0     C 3294   5.732   0.656   7.342 -0.0403  0.3227  0.4030
   25MOL0     C 3295   5.925   0.290   7.533 -0.2625  0.5040  0.2308
   25MOL0     C 3296   6.041   0.210   7.577  0.2314 -0.2038  0.4649
   25MOL0     C 3297   6.038   0.073   7.580  0.1770  0.6959  0.3781
   25MOL0     C 3298   5.917  -0.001   7.553 -1.1223  0.5993  0.5023
   25MOL0     O 3299   5.916  -0.138   7.541 -0.6135  0.1731  0.1440
   25MOL0     C 3300   6.031  -0.215   7.510 -0.4184 -0.6156  0.7982
   25MOL0     C 3301   5.989  -0.352   7.487 -0.6989 -0.4638 -0.8271
   25MOL0     C 3302   6.107  -0.432   7.433 -0.6075 -0.3209 -0.5283
   25MOL0     C 3303   6.207  -0.482   7.547  0.3461  0.1106 -0.7534
   25MOL0     C 3304   6.274  -0.611   7.526  0.3108 -0.1273 -1.2658
   25MOL0     C 3305   6.315  -0.715   7.495  0.1003 -0.0532  0.3800
   25MOL0     C 3306   5.806   0.075   7.512  0.5814  0.5540  0.9097
   25MOL0     C 3307   5.807   0.213   7.501 -0.1283 -0.9079  0.9991
   25MOL0     H 3308   5.788   0.628   7.659 -0.1407  2.0436  0.8046
   25MOL0     H 3309   5.720   0.872   7.645 -4.5449  2.2614 -1.1750
   25MOL0     H 3310   5.479   0.985   7.562 -0.8775  0.9461 -0.7765
   25MOL0     H 3311   5.614   1.056   7.630 -0.6827  0.1902  0.5951
   25MOL0     H 3312   5.473   1.166   7.390 -0.2476  0.7592 -0.0352
   25MOL0     H 3313   5.430   1.206   7.561  3.6800  0.9884  3.5596
   25MOL0     H 3314   5.586   1.341   7.372  3.4319  2.7164  0.5363
   25MOL0     H 3315   5.546   1.383   7.531  0.6512 -1.4555  1.3920
   25MOL0     H 3316   5.770   1.249   7.600 -1.1622  1.0215 -0.0049
   25MOL0     H 3317   5.775   1.230   7.424  2.2363 -0.1152  0.8664
   25MOL0     H 3318   5.768   1.492   7.561 -0.7817 -0.7105 -0.7285
   25MOL0     H 3319   5.918   1.387   7.554  0.1277  0.8756  1.5920
   25MOL0     H 3320   5.913   1.376   7.301 -0.8390  0.5479 -0.8791
   25MOL0     H 3321   5.767   1.474   7.301 -1.2025 -0.3763  0.1391
   25MOL0     H 3322   5.975   1.575   7.227  2.4897  0.8139  0.5766
   25MOL0     H 3323   5.906   1.671   7.358  0.2267  0.3210  0.1237
   25MOL0     H 3324   6.125   1.461   7.404 -0.0971 -1.2112  1.1517
   25MOL0     H 3325   6.063   1.576   7.519  1.3496 -1.0367 -0.1440
   25MOL0     H 3326   6.094   1.821   7.274  0.5814  3.4139  5.4243
   25MOL0     H 3327   6.295   1.922   7.051  1.0390  1.7834 -0.2081
   25MOL0     H 3328   6.216   1.984   7.179 -1.1389 -1.8894  0.7682
   25MOL0     H 3329   6.462   2.059   7.281 -0.3260 -0.1603  0.6935
   25MOL0     H 3330   6.410   2.139   7.133 -2.0847  1.4919  3.3246
   25MOL0     H 3331   6.586   1.883   7.151  1.4474 -0.0441 -1.3259
   25MOL0     H 3332   6.638   2.050   7.123  0.8189 -0.9090  3.1734
   25MOL0     H 3333   6.468   2.014   6.912 -0.5228 -1.6691 -0.4936
   25MOL0     H 3334   6.527   1.849   6.937 -1.1140 -0.2603  2.4056
   25MOL0     H 3335   6.845   2.027   6.702  6.3208  2.5703  0.5130
   25MOL0     H 3336   7.021   2.170   6.598  0.3158 -0.2892  1.6982
   25MOL0     H 3337   6.903   2.234   6.479  0.3712  1.6120 -0.3379
   25MOL0     H 3338   6.994   2.343   6.561 -1.5209 -0.0084 -3.2858
   25MOL0     H 3339   7.055   2.742   6.702 -0.5518 -0.9549 -1.0490
   25MOL0     H 3340   7.078   2.962   6.618 -0.9757  0.9521  1.2274
   25MOL0     H 3341   6.976   3.262   6.448 -0.1670  0.0234 -2.0450
   25MOL0     H 3342   7.082   3.159   6.544  0.6313 -1.2635  1.2940
   25MOL0     H 3343   7.136   3.176   6.301 -1.1195  0.5558 -0.9871
   25MOL0     H 3344   7.100   3.009   6.345  4.1477  1.6826 -2.7302
   25MOL0     H 3345   6.943   3.178   6.156  0.3795  0.2688 -0.0234
   25MOL0     H 3346   6.839   3.099   6.254 -0.1552  1.8662 -2.2966
   25MOL0     H 3347   6.877   2.981   6.046 -0.5874  0.1766 -0.4332
   25MOL0     H 3348   7.051   2.971   6.087  0.0907  2.5398  1.3843
   25MOL0     H 3349   6.828   2.862   6.250 -0.5648 -1.4308 -0.6608
   25MOL0     H 3350   6.991   2.808   6.280  2.4253  1.6523 -0.2924
   25MOL0     H 3351   6.818   2.743   6.030 -2.5674 -0.3240  3.6445
   25MOL0     H 3352   6.998   2.712   6.030  2.0318 -0.2615  1.5007
   25MOL0     H 3353   6.831   2.520   6.102 -1.2201  1.1407 -1.7861
   25MOL0     H 3354   6.800   2.615   6.247  1.9683  1.1393  2.4608
   25MOL0     H 3355   6.964   2.453   6.304  1.7157 -0.4408 -0.8685
   25MOL0     H 3356   7.042   2.614   6.312 -0.5351  1.0542  0.5959
   25MOL0     H 3357   6.644   2.961   6.546 -1.6709 -2.0786  2.2840
   25MOL0     H 3358   6.634   2.755   6.628 -0.3311  1.4867  0.7811
   25MOL0     H 3359   6.627   2.448   6.835  0.4485 -0.4167 -0.8035
   25MOL0     H 3360   6.569   2.221   6.948  1.5838 -3.0025  0.9225
   25MOL0     H 3361   5.629   0.814   7.229  0.2714 -2.3177 -1.2409
   25MOL0     H 3362   5.754   0.602   7.250  2.6612  1.0097  0.5777
   25MOL0     H 3363   6.136   0.260   7.593 -0.6409  1.4727  0.5366
   25MOL0     H 3364   6.121   0.021   7.626 -0.7891  0.7932  2.3285
   25MOL0     H 3365   6.087  -0.177   7.424 -1.0224 -1.7916 -0.1524
   25MOL0     H 3366   6.107  -0.218   7.588 -2.6121  0.8522  3.1412
   25MOL0     H 3367   5.908  -0.354   7.413 -1.4859 -1.0869  0.0168
   25MOL0     H 3368   5.948  -0.389   7.582 -1.5924  1.5531 -0.3820
   25MOL0     H 3369   6.174  -0.365   7.378 -0.1023  2.3550  2.9696
   25MOL0     H 3370   6.068  -0.516   7.374 -0.0026 -0.1072 -1.2505
   25MOL0     H 3371   6.156  -0.504   7.641  1.8700 -0.1210  0.0456
   25MOL0     H 3372   6.279  -0.403   7.567  1.3911 -0.5509 -1.7572
   25MOL0     H 3373   6.341  -0.814   7.461  1.8705  0.5690 -0.1915
   25MOL0     H 3374   5.720   0.019   7.478 -1.0942  2.5359  1.6580
   25MOL0     H 3375   5.712   0.257   7.472  1.3399  0.8029 -1.6377
   26MOL0     O 3376   3.872  11.021   0.466  0.0790 -0.9422 -0.5987
   26MOL0     C 3377   3.933  11.049   0.569 -0.2733  0.6256 -0.6218
   26MOL0     O 3378   4.012  11.150   0.581 -1.0838  0.0357  0.1997
   26MOL0     C 3379   4.022  11.246   0.486  0.0437 -0.2220 -0.3229
   26MOL0     C 3380   3.948  11.369   0.494 -0.5602  0.4758 -0.5543
   26MOL0     C 3381   3.978  11.471   0.402  0.2705  0.3165  0.5115
   26MOL0     C 3382   4.079  11.452   0.307  1.1257  0.5544  1.5791
   26MOL0     O 3383   4.115  11.542   0.216 -0.7971 -0.0813 -0.2167
   26MOL0     C 3384   4.023  11.628   0.166 -0.1801  0.1825 -0.3639
   26MOL0     C 3385   4.090  11.738   0.083 -0.1435 -0.1612 -0.4231
   26MOL0     C 3386   4.162  11.683  -0.041  0.3119  0.3980 -0.5861
   26MOL0     C 3387   4.191  11.798  -0.135  0.0222 -0.3640  0.0657
   26MOL0     C 3388   4.081  11.825  -0.237 -0.5798 -0.7707  0.1468
   26MOL0     C 3389   4.111  11.746  -0.366 -0.6876  0.8318  0.9388
   26MOL0     C 3390   3.986  11.745  -0.458 -0.5119  0.4064  1.8100
   26MOL0     C 3391   4.015  11.732  -0.612  0.2075 -0.2243 -0.2461
   26MOL0     N 3392   4.088  11.610  -0.634 -0.1741  0.1756 -0.7740
   26MOL0     C 3393   4.222  11.604  -0.658 -0.1255  0.5043 -0.3006
   26MOL0     C 3394   4.254  11.469  -0.684 -0.3862 -0.4905  0.0557
   26MOL0     C 3395   4.394  11.424  -0.723  0.5086  0.0541 -0.4416
   26MOL0     C 3396   4.404  11.335  -0.851 -0.3101 -0.0108  0.4547
   26MOL0     C 3397   4.408  11.184  -0.793 -0.0334 -0.3053  0.5418
   26MOL0     C 3398   4.347  11.082  -0.894 -1.0817 -0.4248  0.4324
   26MOL0     O 3399   4.416  11.075  -1.020  1.1904 -0.3200  0.0334
   26MOL0     C 3400   4.387  10.951  -1.090  0.7813  0.1816 -0.0581
   26MOL0     C 3401   4.472  10.920  -1.196  0.0475 -0.4402 -0.1003
   26MOL0     C 3402   4.455  10.805  -1.273  0.0920 -0.1106 -0.1877
   26MOL0     C 3403   4.542  10.805  -1.394  1.0505 -0.7889  0.6691
   26MOL0     C 3404   4.347  10.712  -1.254 -0.5377 -0.6506  0.3147
   26MOL0     C 3405   4.349  10.577  -1.303  0.1531 -0.4040 -0.1192
   26MOL0     O 3406   4.223  10.529  -1.323 -0.1263 -0.3097 -0.1012
   26MOL0     C 3407   4.228  10.420  -1.404  0.3514  0.0552 -1.0982
   26MOL0     C 3408   4.232  10.297  -1.335  1.1997  1.0195  0.7467
   26MOL0     C 3409   4.247  10.176  -1.410  0.3017 -0.0866  0.2791
   26MOL0     C 3410   4.250  10.181  -1.552 -0.3391 -0.4346  0.1473
   26MOL0     O 3411   4.250  10.077  -1.636  0.3200  0.3729  0.0757
   26MOL0     C 3412   4.163   9.970  -1.596 -0.0108  0.4039  0.8948
   26MOL0     C 3413   4.116   9.877  -1.705 -0.1065  0.4785  0.1480
   26MOL0     C 3414   4.232   9.787  -1.763 -0.3112 -0.1307  0.3949
   26MOL0     C 3415   4.173   9.663  -1.840  0.8393 -0.0341 -0.1035
   26MOL0     C 3416   4.276   9.552  -1.862  0.1969 -0.0950 -0.2451
   26MOL0     C 3417   4.224   9.436  -1.941  0.3518 -1.5421  0.0528
   26MOL0     C 3418   4.197   9.478  -2.087 -1.1847 -0.4807  0.9165
   26MOL0     C 3419   4.241   9.366  -2.185 -0.2434 -1.1963  1.0824
   26MOL0    Cl 3420   4.429   9.357  -2.176  0.3616 -0.4044  0.0211
   26MOL0     C 3421   4.239  10.302  -1.618  0.7313 -0.6661  0.2609
   26MOL0     C 3422   4.230  10.421  -1.542  0.6854  0.0918  0.7857
   26MOL0     O 3423   4.460  10.521  -1.324  0.2576  0.5873 -0.0451
   26MOL0     C 3424   4.274  10.746  -1.137  0.1857  0.7637  0.9015
   26MOL0     C 3425   4.289  10.859  -1.054 -0.4058 -0.1890 -0.0021
   26MOL0     N 3426   4.136  11.401  -0.676  1.1122 -0.2742 -0.3097
   26MOL0     N 3427   4.042  11.479  -0.642 -0.1338 -0.8094 -1.1979
   26MOL0     C 3428   4.147  11.324   0.295  0.2439 -0.2186  0.5045
   26MOL0     C 3429   4.121  11.223   0.388 -0.6595 -0.2516 -1.0821
   26MOL0     C 3430   3.928  10.948   0.678  0.1808  0.2029  1.3721
   26MOL0     C 3431   3.845  10.829   0.658 -0.4710  0.1699 -0.2398
   26MOL0     C 3432   3.834  10.740   0.770 -1.1836 -0.5309 -0.6792
   26MOL0     C 3433   3.902  10.752   0.891  0.0021  0.0256 -0.0458
   26MOL0     O 3434   3.876  10.660   0.995 -0.3034 -0.0471  0.3273
   26MOL0     C 3435   3.950  10.655   1.121 -0.1289  1.5967 -0.2036
   26MOL0     C 3436   4.070  10.561   1.101 -0.2922  0.8614  0.0181
   26MOL0     C 3437   4.166  10.547   1.223 -0.9529  0.6613 -0.8161
   26MOL0     C 3438   4.103  10.455   1.330 -0.7105  0.2246  0.6255
   26MOL0     C 3439   4.110  10.313   1.289  0.5346  0.2825 -0.4292
   26MOL0     C 3440   4.093  10.194   1.262  0.0211  0.2544  0.4381
   26MOL0     C 3441   3.986  10.861   0.900 -0.9081  0.2268 -0.2745
   26MOL0     C 3442   3.995  10.964   0.801  0.4443  0.1651 -0.3497
   26MOL0     H 3443   3.874  11.382   0.572  1.8312  1.4120  1.7014
   26MOL0     H 3444   3.925  11.566   0.410 -2.0155 -1.0087  2.2695
   26MOL0     H 3445   3.954  11.575   0.100  0.2790  1.1240 -1.6407
   26MOL0     H 3446   3.957  11.670   0.242  1.1611 -1.2833  1.7220
   26MOL0     H 3447   4.014  11.802   0.037  0.1425 -0.6193 -1.5603
   26MOL0     H 3448   4.156  11.780   0.160 -1.9092 -2.3056  2.4526
   26MOL0     H 3449   4.259  11.644  -0.008 -0.0932 -1.4333 -1.4050
   26MOL0     H 3450   4.094  11.609  -0.083  0.6228  0.1268 -0.6173
   26MOL0     H 3451   4.227  11.892  -0.093 -1.3766  0.2021  0.0310
   26MOL0     H 3452   4.279  11.763  -0.189 -0.0110 -1.7928  0.8650
   26MOL0     H 3453   3.993  11.790  -0.183  0.2001 -1.1524  1.2266
   26MOL0     H 3454   4.065  11.930  -0.262  1.0423 -0.8405 -1.3496
   26MOL0     H 3455   4.195  11.793  -0.417 -1.0835 -1.3281 -1.9452
   26MOL0     H 3456   4.142  11.642  -0.353 -3.3317 -0.5032 -2.1492
   26MOL0     H 3457   3.924  11.658  -0.437  1.6911 -2.4076 -2.0097
   26MOL0     H 3458   3.938  11.843  -0.448  0.6697  1.4575 -1.4596
   26MOL0     H 3459   4.072  11.821  -0.641 -0.5693  0.9097  1.5227
   26MOL0     H 3460   3.920  11.727  -0.666 -1.9850 -2.5088  3.3354
   26MOL0     H 3461   4.289  11.689  -0.658  0.7924 -0.1723 -2.0664
   26MOL0     H 3462   4.462  11.509  -0.733  3.3145 -1.8201  1.1501
   26MOL0     H 3463   4.439  11.376  -0.636 -0.6630  0.5175  0.4318
   26MOL0     H 3464   4.501  11.349  -0.899 -0.1586 -0.7598  0.5268
   26MOL0     H 3465   4.337  11.333  -0.938  0.5312  0.0349 -0.2089
   26MOL0     H 3466   4.345  11.174  -0.704 -1.1031 -0.5728 -0.2159
   26MOL0     H 3467   4.506  11.158  -0.752  0.3507 -0.8250 -0.6619
   26MOL0     H 3468   4.244  11.111  -0.915 -0.9292 -1.8072 -2.7784
   26MOL0     H 3469   4.341  10.984  -0.844 -1.0349  0.4672  2.2771
   26MOL0     H 3470   4.533  11.003  -1.230 -4.1641  1.9789 -2.6911
   26MOL0     H 3471   4.646  10.780  -1.372  1.8107  2.6967  1.6665
   26MOL0     H 3472   4.500  10.734  -1.466  1.0001  1.7971 -2.0662
   26MOL0     H 3473   4.534  10.900  -1.448  1.2982 -1.4673 -0.6049
   26MOL0     H 3474   4.228  10.293  -1.227  2.4919 -3.1905  0.7964
   26MOL0     H 3475   4.245  10.085  -1.351 -0.3801 -1.1491 -1.3089
   26MOL0     H 3476   4.211   9.921  -1.511  4.7547  0.2282 -1.5721
   26MOL0     H 3477   4.073  10.011  -1.549  0.0364  0.8305  0.6246
   26MOL0     H 3478   4.036   9.814  -1.665  0.1419  1.1415  1.7758
   26MOL0     H 3479   4.077   9.936  -1.787  2.6041 -0.1416 -1.7144
   26MOL0     H 3480   4.296   9.754  -1.681  0.1236 -1.3899 -0.4261
   26MOL0     H 3481   4.299   9.845  -1.827 -1.2794 -1.0562 -1.5478
   26MOL0     H 3482   4.086   9.621  -1.789  1.7252 -1.7234  0.1006
   26MOL0     H 3483   4.142   9.701  -1.938 -0.3099  1.0064  0.6373
   26MOL0     H 3484   4.305   9.516  -1.763 -2.7656 -0.8488  0.4341
   26MOL0     H 3485   4.360   9.602  -1.912  0.3592  2.1319  2.0858
   26MOL0     H 3486   4.296   9.355  -1.926  0.6479 -0.9470  2.1781
   26MOL0     H 3487   4.132   9.400  -1.893 -2.5381  1.5196 -2.6199
   26MOL0     H 3488   4.245   9.571  -2.117 -0.8735 -1.2000 -0.9952
   26MOL0     H 3489   4.092   9.496  -2.112 -0.4372  0.5637 -1.8465
   26MOL0     H 3490   4.212   9.417  -2.278  0.4179 -1.7303  0.5706
   26MOL0     H 3491   4.190   9.270  -2.172 -1.4002 -0.5646  1.3345
   26MOL0     H 3492   4.262  10.309  -1.724  2.3130 -0.8998  0.5561
   26MOL0     H 3493   4.212  10.517  -1.589 -1.8426  1.0200  3.3590
   26MOL0     H 3494   4.211  10.661  -1.112  0.8594  0.2884  1.0124
   26MOL0     H 3495   4.200  10.873  -0.993 -1.0589 -0.4687 -0.8751
   26MOL0     H 3496   4.220  11.325   0.214 -1.3380  2.4495 -1.0512
   26MOL0     H 3497   4.180  11.132   0.399  1.6381  1.3581  0.8763
   26MOL0     H 3498   3.784  10.798   0.573 -0.9154  0.2715  0.0409
   26MOL0     H 3499   3.780  10.646   0.761  1.7987 -2.2478 -1.9212
   26MOL0     H 3500   3.986  10.757   1.142 -0.5012  1.6399  0.2275
   26MOL0     H 3501   3.890  10.619   1.205 -0.3759  1.0529 -0.6178
   26MOL0     H 3502   4.131  10.593   1.016  0.4076 -1.1000 -0.2675
   26MOL0     H 3503   4.031  10.462   1.074  1.8031  0.2628 -1.0518
   26MOL0     H 3504   4.197  10.643   1.266  1.3912  0.5971 -2.2022
   26MOL0     H 3505   4.254  10.495   1.185 -0.2204 -0.1242  1.7469
   26MOL0     H 3506   3.998  10.473   1.355 -0.2840  0.2572  2.5675
   26MOL0     H 3507   4.163  10.475   1.420  2.1303 -2.4622 -0.4721
   26MOL0     H 3508   4.094  10.094   1.223  2.2379 -0.6988  2.6594
   26MOL0     H 3509   4.058  10.877   0.980  1.3441 -0.2237 -2.1149
   26MOL0     H 3510   4.053  11.055   0.815  2.4225 -0.4173 -3.5897
   27MOL0     O 3511   1.894   4.935   8.441  1.0014 -0.1117  0.5281
   27MOL0     C 3512   2.000   4.913   8.385 -1.1163  0.3840  0.1314
   27MOL0     O 3513   2.012   4.820   8.288  0.3865  1.1748 -0.0403
   27MOL0     C 3514   1.897   4.773   8.220  0.1607  0.3740  0.2834
   27MOL0     C 3515   1.795   4.860   8.180 -0.2086 -1.3842 -0.1891
   27MOL0     C 3516   1.688   4.808   8.113 -0.8266  1.4067 -0.2644
   27MOL0     C 3517   1.683   4.669   8.082  0.4115  0.1464  0.6103
   27MOL0     O 3518   1.582   4.596   8.012 -0.4190 -0.5307 -0.2008
   27MOL0     C 3519   1.462   4.674   7.981 -0.6201  0.6102 -0.1302
   27MOL0     C 3520   1.346   4.584   7.928 -0.1867 -0.7540 -0.3493
   27MOL0     C 3521   1.296   4.482   8.027 -0.7319  0.5418  0.0649
   27MOL0     C 3522   1.199   4.542   8.132 -0.3017  0.8588  0.0224
   27MOL0     C 3523   1.102   4.435   8.199  0.1650 -0.0335 -0.6457
   27MOL0     C 3524   1.037   4.480   8.338  0.3877 -0.2345 -0.1199
   27MOL0     C 3525   0.924   4.370   8.387 -0.0253  0.0138  0.1772
   27MOL0     C 3526   0.786   4.391   8.332  0.2126 -0.2188 -0.3954
   27MOL0     N 3527   0.715   4.269   8.357 -0.4623  0.0938 -0.0495
   27MOL0     C 3528   0.623   4.242   8.459 -0.2427 -0.2203  0.7786
   27MOL0     C 3529   0.567   4.121   8.434 -0.9019  0.7249  0.8971
   27MOL0     C 3530   0.481   4.035   8.524 -0.1482  0.3625 -0.5296
   27MOL0     C 3531   0.370   4.102   8.598 -0.2398  0.0520 -0.1299
   27MOL0     C 3532   0.278   4.021   8.706 -0.3489  0.3623 -0.0033
   27MOL0     C 3533   0.349   3.926   8.804  0.4205 -1.1585 -0.7258
   27MOL0     O 3534   0.264   3.866   8.904  1.2640  0.3390  1.2834
   27MOL0     C 3535   0.252   3.918   9.026 -0.4172 -0.1446 -0.1872
   27MOL0     C 3536   0.160   4.027   9.045 -0.0496 -0.5618  0.4280
   27MOL0     C 3537   0.164   4.108   9.167 -0.4079 -0.2477  1.1871
   27MOL0     C 3538   0.050   4.205   9.192  0.0586  0.2881  0.4790
   27MOL0     C 3539   0.263   4.072   9.267 -0.3040  0.2441  1.3620
   27MOL0     C 3540   0.274   4.137   9.400  0.1686 -0.4323 -0.1020
   27MOL0     O 3541   0.339   4.060   9.493  0.7073 -0.0595  0.5204
   27MOL0     C 3542   0.384   4.123   9.603  0.0700 -0.7938  0.0761
   27MOL0     C 3543   0.503   4.194   9.600  0.1385  0.1947  0.1141
   27MOL0     C 3544   0.561   4.244   9.715 -0.7067  0.6513  0.1448
   27MOL0     C 3545   0.507   4.216   9.839  0.3268  0.3041 -0.5735
   27MOL0     O 3546   0.575   4.239   9.960 -0.1829 -0.3483  0.0452
   27MOL0     C 3547   0.682   4.337   9.970  0.5092 -1.0095 -0.2868
   27MOL0     C 3548   0.732   4.352  10.109 -0.1096 -0.3110 -0.5200
   27MOL0     C 3549   0.623   4.371  10.213 -0.4277  0.0382  0.2150
   27MOL0     C 3550   0.681   4.425  10.354  0.4588  0.3417 -0.1766
   27MOL0     C 3551   0.569   4.465  10.450 -0.4965 -0.0651  1.1218
   27MOL0     C 3552   0.622   4.551  10.564  0.1176 -0.0095  0.2217
   27MOL0     C 3553   0.556   4.533  10.694  0.3045 -0.3269 -0.1151
   27MOL0     C 3554   0.593   4.408  10.776 -0.4714 -0.0663 -0.0713
   27MOL0    Cl 3555   0.773   4.384  10.791  0.1133 -0.5808  0.1611
   27MOL0     C 3556   0.381   4.160   9.849 -0.0778 -0.4219  0.6921
   27MOL0     C 3557   0.319   4.118   9.725  0.4586 -0.0963 -0.5751
   27MOL0     O 3558   0.232   4.255   9.416  0.1135  0.6670  0.7959
   27MOL0     C 3559   0.344   3.960   9.245 -0.6437 -0.6441  0.4548
   27MOL0     C 3560   0.342   3.884   9.127 -0.3324 -0.2125 -0.2595
   27MOL0     N 3561   0.630   4.073   8.310  0.2439 -0.7285 -0.4590
   27MOL0     N 3562   0.711   4.168   8.274  0.2707  0.6637  0.3434
   27MOL0     C 3563   1.785   4.578   8.124 -0.4220  0.0515 -0.3485
   27MOL0     C 3564   1.893   4.636   8.200  0.2592  0.4691  1.4387
   27MOL0     C 3565   2.113   5.005   8.408 -0.5130  0.4101  0.1553
   27MOL0     C 3566   2.106   5.107   8.500  0.0379 -0.6810  0.2413
   27MOL0     C 3567   2.213   5.199   8.521  0.8337 -0.0071  0.5062
   27MOL0     C 3568   2.337   5.182   8.447 -0.0557  1.0725  0.4810
   27MOL0     O 3569   2.448   5.261   8.466  0.8211  0.0724  0.6828
   27MOL0     C 3570   2.449   5.368   8.560 -1.7347  0.3317 -0.6514
   27MOL0     C 3571   2.589   5.374   8.641  0.0723 -0.0586  0.9031
   27MOL0     C 3572   2.709   5.447   8.565  0.4168 -0.6767 -0.7176
   27MOL0     C 3573   2.751   5.591   8.604 -0.1476  0.1083  0.2492
   27MOL0     C 3574   2.872   5.607   8.541 -0.4032 -0.5743  0.2378
   27MOL0     C 3575   2.979   5.591   8.483  0.0854  0.1726  0.4891
   27MOL0     C 3576   2.330   5.083   8.346  0.1870  0.3711 -0.1398
   27MOL0     C 3577   2.224   5.006   8.317  0.6960  1.3209 -0.3921
   27MOL0     H 3578   1.804   4.959   8.225  1.3010 -1.3957 -0.3953
   27MOL0     H 3579   1.601   4.869   8.089 -0.2790  1.3740 -2.5027
   27MOL0     H 3580   1.431   4.732   8.068  3.3909  1.2252  1.1288
   27MOL0     H 3581   1.497   4.746   7.907 -0.4184  0.7986  0.1482
   27MOL0     H 3582   1.262   4.649   7.905 -0.4154 -0.9573 -0.1036
   27MOL0     H 3583   1.361   4.549   7.825 -3.4124  1.2912 -1.6997
   27MOL0     H 3584   1.236   4.408   7.974  0.4650 -0.3751 -0.0432
   27MOL0     H 3585   1.386   4.432   8.062  0.5450  1.4700 -1.7501
   27MOL0     H 3586   1.270   4.585   8.204 -1.2998  0.4705  1.2818
   27MOL0     H 3587   1.140   4.625   8.092 -2.0407 -0.0459  0.6297
   27MOL0     H 3588   1.022   4.401   8.134  0.8531 -0.4374 -1.2884
   27MOL0     H 3589   1.167   4.349   8.215 -1.8416 -1.6579 -0.8564
   27MOL0     H 3590   1.123   4.479   8.405  1.6604 -2.0110 -1.6868
   27MOL0     H 3591   0.991   4.579   8.343  1.7548  0.5843 -2.2699
   27MOL0     H 3592   0.952   4.266   8.370  0.4400 -0.1271  1.6378
   27MOL0     H 3593   0.921   4.380   8.496 -0.3149  0.9984  0.0892
   27MOL0     H 3594   0.788   4.410   8.224 -1.7587 -2.1156 -0.8212
   27MOL0     H 3595   0.745   4.473   8.391  3.2448 -0.3069  2.1238
   27MOL0     H 3596   0.600   4.298   8.549 -1.4510 -1.6759  1.4369
   27MOL0     H 3597   0.464   3.954   8.452 -0.3987  0.1254 -0.2072
   27MOL0     H 3598   0.546   3.997   8.604 -0.1465  1.1728 -0.1336
   27MOL0     H 3599   0.298   4.129   8.521 -3.0533 -3.9255  0.7777
   27MOL0     H 3600   0.394   4.193   8.652  1.3339  1.0701 -2.4086
   27MOL0     H 3601   0.199   3.967   8.651 -0.2341  1.2186 -1.0312
   27MOL0     H 3602   0.215   4.090   8.763 -1.5924 -0.0882 -0.7652
   27MOL0     H 3603   0.421   3.981   8.864 -0.4049 -0.7259 -0.1187
   27MOL0     H 3604   0.398   3.845   8.749  3.2229 -0.3881  0.4640
   27MOL0     H 3605   0.097   4.057   8.962  1.1933 -0.2352 -0.4274
   27MOL0     H 3606   0.088   4.307   9.184  2.4099 -0.4334  1.5161
   27MOL0     H 3607  -0.039   4.183   9.133  1.0697 -0.1497 -0.9401
   27MOL0     H 3608   0.028   4.191   9.298 -0.4610  2.7401  0.7450
   27MOL0     H 3609   0.546   4.212   9.502  0.5506 -3.6867 -0.5900
   27MOL0     H 3610   0.658   4.292   9.707 -0.9395  0.9891 -0.9274
   27MOL0     H 3611   0.762   4.298   9.907  0.6079 -2.3306  0.6198
   27MOL0     H 3612   0.632   4.427   9.933 -2.1555 -2.8013 -1.3517
   27MOL0     H 3613   0.787   4.263  10.142 -0.3004  0.2489  1.4891
   27MOL0     H 3614   0.809   4.429  10.110  2.4266 -2.6883 -0.9420
   27MOL0     H 3615   0.567   4.278  10.227 -3.3209  1.3380 -1.8089
   27MOL0     H 3616   0.549   4.442  10.175  2.4527  4.6653  2.4030
   27MOL0     H 3617   0.744   4.350  10.402  1.2014  0.2952 -1.2051
   27MOL0     H 3618   0.748   4.510  10.341  0.8569  0.0670  0.0433
   27MOL0     H 3619   0.532   4.369  10.487  1.3460 -0.4818  1.9892
   27MOL0     H 3620   0.487   4.526  10.412  1.4879  4.3907  3.2118
   27MOL0     H 3621   0.728   4.536  10.587  0.4272  0.6948 -0.7166
   27MOL0     H 3622   0.618   4.657  10.537 -0.4779  0.8491  3.2771
   27MOL0     H 3623   0.447   4.539  10.700  0.3226 -0.5197  0.5178
   27MOL0     H 3624   0.599   4.617  10.750 -0.1239  2.2117 -3.3011
   27MOL0     H 3625   0.558   4.313  10.735  3.5603 -1.9900  0.4333
   27MOL0     H 3626   0.538   4.418  10.871 -2.2278 -0.5893 -0.9893
   27MOL0     H 3627   0.320   4.149   9.938 -0.3359  1.4944  0.8129
   27MOL0     H 3628   0.218   4.083   9.744  0.5146 -0.5001 -1.0126
   27MOL0     H 3629   0.399   3.916   9.328  0.0432 -0.5367  0.0644
   27MOL0     H 3630   0.413   3.803   9.112 -0.3283 -0.6735  1.9490
   27MOL0     H 3631   1.777   4.472   8.104  2.3924 -0.7088  1.9202
   27MOL0     H 3632   1.974   4.574   8.237 -0.0855 -1.5266 -0.9388
   27MOL0     H 3633   2.013   5.103   8.556 -1.7284 -2.1688 -2.5475
   27MOL0     H 3634   2.189   5.283   8.586 -5.9973 -1.6459  0.8302
   27MOL0     H 3635   2.433   5.459   8.501 -1.3985 -0.4281 -1.9445
   27MOL0     H 3636   2.365   5.364   8.630 -1.8514  2.4094 -0.6176
   27MOL0     H 3637   2.620   5.270   8.651 -4.4348 -1.4787  2.4265
   27MOL0     H 3638   2.573   5.410   8.743  0.1825 -0.5090  1.0808
   27MOL0     H 3639   2.678   5.450   8.460 -1.5910  1.3472 -0.1614
   27MOL0     H 3640   2.801   5.389   8.571  0.8981  0.1045 -0.3544
   27MOL0     H 3641   2.767   5.605   8.711 -2.1752  4.0006  0.2032
   27MOL0     H 3642   2.678   5.664   8.570 -1.0524  0.2506  2.3237
   27MOL0     H 3643   3.072   5.580   8.431  0.7020  1.7557  1.1849
   27MOL0     H 3644   2.426   5.069   8.298  1.6954  2.3679  2.0912
   27MOL0     H 3645   2.221   4.926   8.244 -3.3984 -0.5077  1.4733
   28MOL0     O 3646   6.071   0.739   2.111 -0.3834 -0.1609 -0.4052
   28MOL0     C 3647   6.130   0.776   2.209  0.4876 -0.4546 -0.7097
   28MOL0     O 3648   6.139   0.717   2.324 -0.3137 -0.3052 -0.9038
   28MOL0     C 3649   6.107   0.584   2.346 -0.0307  0.0056  1.2541
   28MOL0     C 3650   6.111   0.483   2.255 -0.3253  0.7288 -0.9050
   28MOL0     C 3651   6.087   0.344   2.296  0.3072  0.1297  0.2316
   28MOL0     C 3652   6.074   0.317   2.431 -0.5763 -0.6589 -0.0839
   28MOL0     O 3653   6.073   0.191   2.484  0.7443 -0.5244 -0.1662
   28MOL0     C 3654   6.172   0.104   2.433 -0.3346  0.3026  0.6833
   28MOL0     C 3655   6.136   0.008   2.322 -0.3503 -0.1346  0.0081
   28MOL0     C 3656   6.228  -0.122   2.320  0.2140 -0.9624 -0.3448
   28MOL0     C 3657   6.192  -0.219   2.220 -0.2491  0.4103  0.6308
   28MOL0     C 3658   6.234  -0.363   2.255 -0.0187  0.7071  0.1696
   28MOL0     C 3659   6.388  -0.394   2.239 -1.2777 -0.8335  0.9182
   28MOL0     C 3660   6.423  -0.539   2.237 -0.2924 -0.5881  0.8913
   28MOL0     C 3661   6.564  -0.563   2.213 -0.8337 -1.2803  0.5391
   28MOL0     N 3662   6.590  -0.702   2.194 -0.0428  0.5266  0.2319
   28MOL0     C 3663   6.619  -0.784   2.304 -0.1410 -0.0888 -0.2171
   28MOL0     C 3664   6.654  -0.904   2.243  0.7603 -0.1772  0.0380
   28MOL0     C 3665   6.699  -1.021   2.331 -0.3201  0.6574  0.2896
   28MOL0     C 3666   6.585  -1.078   2.418 -1.0225  0.2346  1.4255
   28MOL0     C 3667   6.467  -1.140   2.335 -0.1624  0.3651 -0.2393
   28MOL0     C 3668   6.500  -1.214   2.202  0.0623 -0.3491  0.1364
   28MOL0     O 3669   6.567  -1.334   2.230  0.4158  0.2148  0.3837
   28MOL0     C 3670   6.607  -1.413   2.124 -0.1909  0.4539 -0.2693
   28MOL0     C 3671   6.578  -1.391   1.991  0.4163 -0.4364  0.5147
   28MOL0     C 3672   6.626  -1.472   1.893 -0.1562  0.4450 -1.1844
   28MOL0     C 3673   6.590  -1.428   1.759 -0.1250  0.9288 -0.0869
   28MOL0     C 3674   6.711  -1.588   1.923  0.3317  0.4884 -0.0410
   28MOL0     C 3675   6.764  -1.687   1.824 -0.2241  0.1119  0.6134
   28MOL0     O 3676   6.890  -1.745   1.836 -0.5445  1.5475 -0.4369
   28MOL0     C 3677   6.934  -1.847   1.749 -0.4335  0.5652 -0.0645
   28MOL0     C 3678   6.967  -1.969   1.802  0.3093 -0.7294 -0.9023
   28MOL0     C 3679   6.991  -2.075   1.714  0.4454 -0.8043  0.6402
   28MOL0     C 3680   6.983  -2.062   1.578 -0.6403 -0.0223 -1.0987
   28MOL0     O 3681   7.023  -2.178   1.514 -0.1844  1.0243  0.3182
   28MOL0     C 3682   7.130  -2.146   1.431  0.4725  0.3433  0.3908
   28MOL0     C 3683   7.186  -2.272   1.363  0.0580 -0.0361 -1.0349
   28MOL0     C 3684   7.311  -2.250   1.288 -0.5924 -0.3567  0.1256
   28MOL0     C 3685   7.352  -2.365   1.192  0.1503 -1.4480  0.7842
   28MOL0     C 3686   7.457  -2.338   1.078 -1.0234 -1.3304  0.4326
   28MOL0     C 3687   7.466  -2.453   0.981 -0.7193  0.2762  0.7636
   28MOL0     C 3688   7.561  -2.427   0.867  0.1397 -0.0087  0.2709
   28MOL0     C 3689   7.546  -2.530   0.763  0.7487  0.4244 -0.0377
   28MOL0    Cl 3690   7.614  -2.680   0.809 -0.3435  0.2344 -0.2678
   28MOL0     C 3691   6.967  -1.937   1.524 -0.5102 -0.1909 -0.7696
   28MOL0     C 3692   6.938  -1.832   1.607  0.5041  0.4599  0.0030
   28MOL0     O 3693   6.677  -1.721   1.745  0.9599 -0.2837 -0.0963
   28MOL0     C 3694   6.751  -1.604   2.056 -0.3005 -0.0537  0.3650
   28MOL0     C 3695   6.697  -1.524   2.151  0.3815  0.5887  0.7148
   28MOL0     N 3696   6.676  -0.878   2.111  0.3058 -0.3177 -0.3593
   28MOL0     N 3697   6.624  -0.763   2.080  1.3928  0.5767  1.3282
   28MOL0     C 3698   6.069   0.428   2.522 -0.3352  0.7674 -0.0079
   28MOL0     C 3699   6.094   0.555   2.473 -0.3661 -1.1431 -0.5491
   28MOL0     C 3700   6.209   0.899   2.194  0.4733 -1.3601 -0.1036
   28MOL0     C 3701   6.269   0.968   2.297 -0.9725 -0.5293 -0.3205
   28MOL0     C 3702   6.338   1.090   2.274  0.3484 -0.3077  0.3914
   28MOL0     C 3703   6.336   1.150   2.149 -0.3112 -0.1807  0.1379
   28MOL0     O 3704   6.392   1.282   2.125  0.0725  0.0100 -0.6177
   28MOL0     C 3705   6.506   1.333   2.197  0.3459  0.9020  0.0163
   28MOL0     C 3706   6.511   1.488   2.204  0.6507 -1.3063  0.5814
   28MOL0     C 3707   6.371   1.542   2.243  0.8914  0.0589  0.8527
   28MOL0     C 3708   6.287   1.592   2.123 -0.1880 -0.2919 -0.0831
   28MOL0     C 3709   6.343   1.723   2.080 -0.0487 -0.0631  0.3659
   28MOL0     C 3710   6.376   1.833   2.038  0.0029  0.0928  0.8112
   28MOL0     C 3711   6.265   1.088   2.048 -0.5052  0.4814  0.9446
   28MOL0     C 3712   6.205   0.965   2.069 -0.5151 -0.2219 -0.9295
   28MOL0     H 3713   6.131   0.499   2.149 -0.3031  2.4640 -0.6553
   28MOL0     H 3714   6.084   0.270   2.217 -0.9396  2.0624 -1.6275
   28MOL0     H 3715   6.274   0.144   2.421  0.2707 -1.6089 -0.9281
   28MOL0     H 3716   6.177   0.029   2.513 -0.7752 -0.6601 -0.1767
   28MOL0     H 3717   6.036  -0.013   2.360 -0.3099  0.2927  0.3631
   28MOL0     H 3718   6.127   0.054   2.223 -1.5755 -2.3727 -0.9909
   28MOL0     H 3719   6.336  -0.108   2.324  0.1775 -1.0639  1.5797
   28MOL0     H 3720   6.185  -0.176   2.404 -2.4733  0.6910 -0.5167
   28MOL0     H 3721   6.084  -0.231   2.210 -0.0991 -1.5266  0.8869
   28MOL0     H 3722   6.224  -0.186   2.121  0.7311  0.0315  0.8044
   28MOL0     H 3723   6.207  -0.393   2.357  1.4767 -2.3791 -0.2312
   28MOL0     H 3724   6.175  -0.428   2.190  0.2334  0.9920 -0.3458
   28MOL0     H 3725   6.433  -0.354   2.148  0.6126 -0.6250  1.8823
   28MOL0     H 3726   6.446  -0.331   2.308  2.1185  0.1151 -2.4864
   28MOL0     H 3727   6.391  -0.591   2.328 -4.5581 -2.2178 -1.2262
   28MOL0     H 3728   6.379  -0.596   2.154  0.8662 -0.6328  0.2988
   28MOL0     H 3729   6.619  -0.515   2.295  0.8585 -0.3922 -1.0479
   28MOL0     H 3730   6.597  -0.514   2.121 -1.0750  0.7102  1.4607
   28MOL0     H 3731   6.604  -0.767   2.410 -1.5871 -1.9833 -0.0642
   28MOL0     H 3732   6.743  -1.090   2.259  1.1740  1.2576  0.5945
   28MOL0     H 3733   6.779  -0.996   2.401 -1.2638 -1.7490  2.4186
   28MOL0     H 3734   6.543  -1.005   2.489 -1.6425  0.4164  0.8804
   28MOL0     H 3735   6.632  -1.164   2.465  1.4937 -1.6206 -3.7343
   28MOL0     H 3736   6.420  -1.044   2.311  1.8330  0.9729 -1.9995
   28MOL0     H 3737   6.416  -1.213   2.399 -2.7432  0.2486 -2.2517
   28MOL0     H 3738   6.566  -1.154   2.138  1.1381 -0.0160  1.4858
   28MOL0     H 3739   6.398  -1.226   2.166 -1.7004  3.1180  3.2620
   28MOL0     H 3740   6.519  -1.305   1.963 -2.0451 -2.2162 -0.1036
   28MOL0     H 3741   6.482  -1.413   1.752 -0.3159  0.4688  1.3412
   28MOL0     H 3742   6.643  -1.334   1.745  0.3901  0.3065 -2.6503
   28MOL0     H 3743   6.632  -1.497   1.686 -0.4833  0.7605 -0.1344
   28MOL0     H 3744   6.967  -1.970   1.910  0.4518  3.1222 -0.7237
   28MOL0     H 3745   6.997  -2.180   1.741 -3.5031 -1.2365  0.3792
   28MOL0     H 3746   7.085  -2.091   1.348 -1.5279 -3.2354 -1.1203
   28MOL0     H 3747   7.210  -2.101   1.491  0.3221 -3.2783  3.7535
   28MOL0     H 3748   7.211  -2.338   1.447 -0.7367 -0.0157 -0.7713
   28MOL0     H 3749   7.111  -2.325   1.303  2.1071 -0.4306 -3.4235
   28MOL0     H 3750   7.390  -2.226   1.359  0.8315  1.1412 -1.8598
   28MOL0     H 3751   7.301  -2.154   1.237 -1.3094  1.0184  2.6502
   28MOL0     H 3752   7.399  -2.442   1.254  1.3909 -1.1264  0.2914
   28MOL0     H 3753   7.266  -2.395   1.132  0.4498  1.1602 -1.1587
   28MOL0     H 3754   7.557  -2.320   1.119 -1.8246  0.7531  1.6330
   28MOL0     H 3755   7.436  -2.247   1.022 -0.7195 -2.6374 -1.9104
   28MOL0     H 3756   7.502  -2.544   1.030  2.1709  1.4524  1.0426
   28MOL0     H 3757   7.368  -2.472   0.936  1.0881  0.9745 -4.0340
   28MOL0     H 3758   7.668  -2.422   0.890  1.1529 -2.9212 -3.0260
   28MOL0     H 3759   7.530  -2.330   0.825  2.0916 -0.4661 -2.5116
   28MOL0     H 3760   7.576  -2.503   0.661  1.2525  0.5460  0.1452
   28MOL0     H 3761   7.441  -2.556   0.743  1.6273 -1.1011 -3.4943
   28MOL0     H 3762   6.976  -1.935   1.416  2.1124 -0.9846 -0.6247
   28MOL0     H 3763   6.916  -1.729   1.581  2.4654  1.1006  0.7372
   28MOL0     H 3764   6.817  -1.685   2.085  0.2760 -0.3831 -1.7029
   28MOL0     H 3765   6.719  -1.540   2.256 -0.2279 -0.9263  0.6362
   28MOL0     H 3766   6.047   0.411   2.627 -1.3390 -1.7120 -0.5530
   28MOL0     H 3767   6.105   0.639   2.539  1.8578 -1.8070  0.0062
   28MOL0     H 3768   6.253   0.940   2.401 -1.2286 -0.3644 -0.3154
   28MOL0     H 3769   6.395   1.119   2.362  0.1807  1.6625 -0.1145
   28MOL0     H 3770   6.494   1.302   2.302 -0.4939 -1.8094 -0.8037
   28MOL0     H 3771   6.591   1.285   2.148  0.5351 -1.3645  2.3496
   28MOL0     H 3772   6.531   1.515   2.100  0.7479  0.7507  1.0988
   28MOL0     H 3773   6.593   1.507   2.274  0.0363 -0.4403  1.0792
   28MOL0     H 3774   6.390   1.614   2.323 -0.0128 -0.3086  1.4104
   28MOL0     H 3775   6.318   1.455   2.283  1.9402 -1.8880 -1.6872
   28MOL0     H 3776   6.179   1.600   2.143  0.2222  0.5673  2.1125
   28MOL0     H 3777   6.282   1.524   2.038 -4.1205 -0.7340  0.2811
   28MOL0     H 3778   6.408   1.922   1.989  0.6644 -0.4110  0.3094
   28MOL0     H 3779   6.252   1.138   1.952 -2.1837 -0.1885  0.8015
   28MOL0     H 3780   6.151   0.920   1.987 -2.8578 -0.6531  0.7610
   29MOL0     O 3781  10.572   2.923   5.658 -0.1507  0.3725 -0.0937
   29MOL0     C 3782  10.626   2.844   5.585  0.5023 -0.4906  0.5426
   29MOL0     O 3783  10.686   2.726   5.617  0.4569 -0.0640 -0.4470
   29MOL0     C 3784  10.669   2.687   5.745  0.1647 -0.0327  0.2243
   29MOL0     C 3785  10.781   2.698   5.818  0.3130  0.0075  0.2796
   29MOL0     C 3786  10.790   2.627   5.940  0.1410  0.0410 -0.3380
   29MOL0     C 3787  10.675   2.573   5.996 -0.1216 -0.6191  0.2804
   29MOL0     O 3788  10.670   2.507   6.113 -0.0305  0.0537 -0.1274
   29MOL0     C 3789  10.781   2.511   6.200  0.2558 -0.3666  0.8473
   29MOL0     C 3790  10.753   2.460   6.341  0.0886 -0.0183  0.0055
   29MOL0     C 3791  10.720   2.311   6.338 -0.4791  0.5736 -0.0014
   29MOL0     C 3792  10.852   2.226   6.340 -1.2587  0.5254  0.2083
   29MOL0     C 3793  10.835   2.072   6.320 -0.0939 -0.4427 -0.0502
   29MOL0     C 3794  10.736   2.006   6.419  0.3517  0.2889  0.6087
   29MOL0     C 3795  10.723   1.853   6.420  0.8038 -0.8054 -0.2638
   29MOL0     C 3796  10.660   1.787   6.547 -0.3994 -0.8797 -0.3349
   29MOL0     N 3797  10.532   1.848   6.557  0.3290 -0.4094 -0.0453
   29MOL0     C 3798  10.511   1.959   6.632 -1.1272 -0.5999  0.1994
   29MOL0     C 3799  10.375   1.966   6.645 -0.3524 -0.0842  0.2636
   29MOL0     C 3800  10.302   2.056   6.729  0.2260 -0.2642 -0.4613
   29MOL0     C 3801  10.142   2.040   6.727  0.3571 -0.8160 -0.2675
   29MOL0     C 3802  10.090   2.103   6.857 -0.9697  0.5919 -0.8380
   29MOL0     C 3803   9.931   2.120   6.867 -0.0667  0.4886  0.0714
   29MOL0     O 3804   9.864   1.995   6.845  0.1777  0.5334 -0.1512
   29MOL0     C 3805   9.744   1.976   6.778  0.3863 -0.1375  0.1598
   29MOL0     C 3806   9.711   1.844   6.754 -0.2327 -0.5282 -0.4750
   29MOL0     C 3807   9.595   1.807   6.691 -0.3342 -0.8254  0.6118
   29MOL0     C 3808   9.572   1.665   6.652 -0.2469  0.3584  0.7573
   29MOL0     C 3809   9.499   1.912   6.657 -0.0764  0.3706  0.2431
   29MOL0     C 3810   9.376   1.890   6.581 -0.1913  0.6086  0.5605
   29MOL0     O 3811   9.329   1.999   6.520 -0.2240  0.3424 -0.6013
   29MOL0     C 3812   9.213   1.993   6.448  0.2878  0.2711  0.2064
   29MOL0     C 3813   9.127   2.097   6.457  0.2193 -0.1694 -0.3600
   29MOL0     C 3814   9.016   2.107   6.371  0.6236 -0.9286 -0.0586
   29MOL0     C 3815   8.992   2.012   6.268 -0.5307  0.4045 -0.2234
   29MOL0     O 3816   8.890   2.025   6.184 -0.0689 -0.0095  0.2594
   29MOL0     C 3817   8.853   1.922   6.106  0.6387 -1.0688  0.3520
   29MOL0     C 3818   8.725   1.963   6.029 -0.4711  0.7193  0.0802
   29MOL0     C 3819   8.590   1.973   6.102 -0.9656  0.3149 -0.3984
   29MOL0     C 3820   8.481   2.037   6.002 -1.4798  0.5508  0.7480
   29MOL0     C 3821   8.367   2.091   6.079  0.7118 -1.2675 -0.0551
   29MOL0     C 3822   8.266   1.975   6.102 -0.4416 -0.3905  0.1593
   29MOL0     C 3823   8.155   2.012   6.200 -0.3496  0.6799 -0.1303
   29MOL0     C 3824   8.043   1.896   6.195 -0.1797 -0.0344  0.1636
   29MOL0    Cl 3825   7.957   1.895   6.039 -0.1567  0.3013 -0.5211
   29MOL0     C 3826   9.080   1.903   6.262  1.1997 -0.7825  0.2068
   29MOL0     C 3827   9.190   1.896   6.349 -1.1338  0.5635 -0.0147
   29MOL0     O 3828   9.320   1.780   6.600  0.0505  0.1405 -0.9885
   29MOL0     C 3829   9.527   2.042   6.699  0.5421 -0.0535  0.0655
   29MOL0     C 3830   9.650   2.079   6.761  0.2385 -0.0764 -0.3106
   29MOL0     N 3831  10.320   1.880   6.557  0.3873  0.4620 -0.2084
   29MOL0     N 3832  10.409   1.804   6.514  0.0236  0.3427  0.2819
   29MOL0     C 3833  10.548   2.581   5.929 -1.1669  0.0447  0.1452
   29MOL0     C 3834  10.549   2.619   5.793  0.0433 -0.2653  0.3463
   29MOL0     C 3835  10.602   2.890   5.456  0.1651 -0.3194  0.7776
   29MOL0     C 3836  10.625   2.794   5.363 -0.7268 -0.1309  1.1756
   29MOL0     C 3837  10.590   2.812   5.230 -0.1317 -0.7603 -0.3332
   29MOL0     C 3838  10.538   2.936   5.186 -0.8044  0.8509 -0.3333
   29MOL0     O 3839  10.517   2.969   5.053  0.9044 -0.4618 -0.6902
   29MOL0     C 3840  10.447   2.873   4.969  0.4226 -1.1766  0.6296
   29MOL0     C 3841  10.341   2.945   4.887 -0.6844 -0.1886  0.3390
   29MOL0     C 3842  10.386   3.044   4.782 -0.7646  0.2567  0.7852
   29MOL0     C 3843  10.456   3.165   4.849 -0.0754  0.6927  0.5502
   29MOL0     C 3844  10.460   3.283   4.770 -0.2462 -0.1863  0.0723
   29MOL0     C 3845  10.459   3.381   4.696 -0.2836  0.2527 -0.8493
   29MOL0     C 3846  10.526   3.042   5.278 -0.0466 -0.5058 -0.3853
   29MOL0     C 3847  10.551   3.021   5.414 -0.5991 -0.1347  0.2862
   29MOL0     H 3848  10.866   2.750   5.775 -0.3625  1.3473  0.5081
   29MOL0     H 3849  10.884   2.608   5.990 -1.7652 -1.3142  3.1501
   29MOL0     H 3850  10.873   2.462   6.166  0.0997  0.9608 -1.6871
   29MOL0     H 3851  10.811   2.615   6.212 -2.0308  0.4824 -0.1987
   29MOL0     H 3852  10.842   2.467   6.406 -1.4076  3.1024  1.9308
   29MOL0     H 3853  10.669   2.512   6.387  0.9227 -1.4020  3.4907
   29MOL0     H 3854  10.660   2.280   6.424  0.5904  0.7521  0.8287
   29MOL0     H 3855  10.660   2.291   6.249 -2.2458  1.1804  0.9986
   29MOL0     H 3856  10.916   2.267   6.261 -2.6589 -1.3997 -2.0989
   29MOL0     H 3857  10.896   2.244   6.438 -0.5611 -0.1450  0.0295
   29MOL0     H 3858  10.792   2.065   6.219  1.6360  0.0632 -0.8614
   29MOL0     H 3859  10.933   2.025   6.326  0.9828  1.6645 -0.5142
   29MOL0     H 3860  10.790   2.025   6.512 -0.7519 -0.0625  1.3387
   29MOL0     H 3861  10.638   2.053   6.410  1.1717  2.1535  0.8897
   29MOL0     H 3862  10.662   1.829   6.333  3.2846 -1.7642 -1.8689
   29MOL0     H 3863  10.819   1.801   6.407  1.2586  0.1467 -0.8421
   29MOL0     H 3864  10.723   1.799   6.635 -2.6367 -1.7329  1.4747
   29MOL0     H 3865  10.657   1.680   6.526  1.0329 -0.7307 -1.4513
   29MOL0     H 3866  10.592   2.009   6.684  1.7214 -1.8256 -2.7306
   29MOL0     H 3867  10.330   2.028   6.831  1.1193  3.3071  0.4308
   29MOL0     H 3868  10.334   2.158   6.705 -0.0821  0.0781  0.5434
   29MOL0     H 3869  10.103   1.939   6.739  3.2331 -1.8396  1.3495
   29MOL0     H 3870  10.096   2.098   6.646 -1.1383  0.1396  1.2083
   29MOL0     H 3871  10.136   2.201   6.873  0.1210 -0.3892  3.0064
   29MOL0     H 3872  10.123   2.044   6.943 -1.2370  0.8040 -0.5857
   29MOL0     H 3873   9.905   2.199   6.797 -0.8819  0.1416 -0.0302
   29MOL0     H 3874   9.903   2.138   6.971  2.1206 -0.5721  0.9039
   29MOL0     H 3875   9.786   1.775   6.790 -0.0786  0.6475  1.6503
   29MOL0     H 3876   9.489   1.632   6.715 -0.7985  0.8390  0.2933
   29MOL0     H 3877   9.527   1.648   6.554 -4.2084 -0.1313  2.4373
   29MOL0     H 3878   9.660   1.601   6.655  2.4739  3.6750 -1.4575
   29MOL0     H 3879   9.158   2.179   6.522 -0.1526  1.8574 -2.6077
   29MOL0     H 3880   8.972   2.206   6.380  2.8920  0.4704 -2.7919
   29MOL0     H 3881   8.933   1.901   6.034 -0.1690  1.8020 -1.5318
   29MOL0     H 3882   8.817   1.832   6.157 -2.0560 -1.0201 -1.2764
   29MOL0     H 3883   8.743   2.060   5.981  0.9714 -0.4077 -1.7885
   29MOL0     H 3884   8.728   1.890   5.948  0.7439  1.5626 -0.6654
   29MOL0     H 3885   8.597   2.041   6.187 -2.4484  1.3138 -1.0381
   29MOL0     H 3886   8.562   1.875   6.142 -2.1715  1.6532  2.2558
   29MOL0     H 3887   8.524   2.123   5.951 -2.2427 -1.3010 -3.4374
   29MOL0     H 3888   8.451   1.970   5.921  3.6808  0.0599 -1.1684
   29MOL0     H 3889   8.336   2.174   6.015  3.4166  0.5133  0.7624
   29MOL0     H 3890   8.401   2.136   6.172  1.1883  1.6683 -1.5341
   29MOL0     H 3891   8.227   1.962   6.000 -0.6168  2.8237 -0.3084
   29MOL0     H 3892   8.313   1.884   6.139  0.1455  0.2087  0.9093
   29MOL0     H 3893   8.108   2.105   6.168  2.0579  1.7936 -0.5825
   29MOL0     H 3894   8.189   2.027   6.303 -0.0312  2.4643 -0.4635
   29MOL0     H 3895   7.977   1.916   6.280  0.8335 -1.0011  1.2303
   29MOL0     H 3896   8.088   1.798   6.217  3.4862  0.7615 -2.7526
   29MOL0     H 3897   9.076   1.826   6.185  0.3025  0.4823 -1.0646
   29MOL0     H 3898   9.249   1.804   6.349 -2.0206 -0.0252 -1.1266
   29MOL0     H 3899   9.447   2.115   6.691 -3.2090 -3.9527 -2.6514
   29MOL0     H 3900   9.664   2.184   6.783  2.3039  0.2784 -2.7631
   29MOL0     H 3901  10.459   2.540   5.975 -0.2740 -2.8770 -0.5344
   29MOL0     H 3902  10.470   2.600   5.721  2.9820 -5.1386 -2.0909
   29MOL0     H 3903  10.662   2.695   5.391 -0.0367 -1.0289 -2.3786
   29MOL0     H 3904  10.601   2.735   5.154 -0.7413  0.9645 -2.2459
   29MOL0     H 3905  10.513   2.816   4.902 -1.1807 -0.1318 -2.0176
   29MOL0     H 3906  10.392   2.808   5.037 -0.3504  0.2733  1.4378
   29MOL0     H 3907  10.261   2.980   4.953 -2.5653 -3.3836 -0.0305
   29MOL0     H 3908  10.292   2.866   4.830 -2.7605  1.5789 -0.5008
   29MOL0     H 3909  10.301   3.079   4.724  0.6283  1.4904 -0.6248
   29MOL0     H 3910  10.454   2.985   4.719  1.3431 -2.3388  5.0008
   29MOL0     H 3911  10.558   3.132   4.869 -0.6115 -1.3373  0.2443
   29MOL0     H 3912  10.411   3.197   4.944 -2.3702 -1.2365  0.2247
   29MOL0     H 3913  10.454   3.464   4.629  0.4008  0.8354 -0.1981
   29MOL0     H 3914  10.477   3.129   5.236 -2.5768 -1.2484  0.8233
   29MOL0     H 3915  10.509   3.092   5.485 -2.0137 -0.7352  0.0820
   30MOL0     O 3916   9.380  10.654   7.841 -0.9903  0.4152  0.3648
   30MOL0     C 3917   9.407  10.666   7.962  0.0928  0.5819  0.2230
   30MOL0     O 3918   9.478  10.771   8.012  0.5017 -0.6176 -1.5614
   30MOL0     C 3919   9.468  10.892   7.949 -0.3750 -0.0554  0.2879
   30MOL0     C 3920   9.347  10.938   7.906 -0.0514 -0.7134  0.5131
   30MOL0     C 3921   9.337  11.064   7.854  0.4987  0.2238 -0.5417
   30MOL0     C 3922   9.450  11.153   7.862  0.0721 -0.3985  0.3803
   30MOL0     O 3923   9.450  11.290   7.824 -0.1938 -1.0228 -0.1142
   30MOL0     C 3924   9.344  11.376   7.776 -0.0094 -0.2290 -0.8989
   30MOL0     C 3925   9.355  11.363   7.624  0.3211 -0.0931  1.5337
   30MOL0     C 3926   9.281  11.474   7.544 -0.5257  0.3109 -0.0420
   30MOL0     C 3927   9.368  11.603   7.550 -0.0874  0.4869  0.0655
   30MOL0     C 3928   9.286  11.713   7.497 -0.7845 -0.1313  0.0860
   30MOL0     C 3929   9.360  11.851   7.511  0.5220 -0.1485 -0.5783
   30MOL0     C 3930   9.509  11.864   7.456 -0.2450 -1.0639 -0.4699
   30MOL0     C 3931   9.547  11.822   7.313  1.3362  0.7284  0.4129
   30MOL0     N 3932   9.682  11.862   7.266  0.3941  0.1298  0.1340
   30MOL0     C 3933   9.792  11.794   7.248  0.6970  0.2942 -0.8790
   30MOL0     C 3934   9.880  11.884   7.203  0.0303 -0.1327 -0.1420
   30MOL0     C 3935  10.017  11.864   7.145 -0.4365 -0.1518 -0.2957
   30MOL0     C 3936  10.134  11.830   7.249 -0.6403 -0.7048  0.0535
   30MOL0     C 3937  10.263  11.826   7.167 -0.0680  0.2263 -0.3501
   30MOL0     C 3938  10.376  11.779   7.267 -0.3131  0.0955 -1.0562
   30MOL0     O 3939  10.391  11.633   7.297 -0.1385  0.8502  0.4434
   30MOL0     C 3940  10.400  11.543   7.190 -0.6390  0.7653  0.0750
   30MOL0     C 3941  10.469  11.557   7.067 -0.1854 -0.2944  0.4816
   30MOL0     C 3942  10.479  11.454   6.971  1.3135  0.1227 -0.3278
   30MOL0     C 3943  10.560  11.496   6.852 -0.4771  0.2554  0.6348
   30MOL0     C 3944  10.399  11.336   6.994  0.1795  1.0587 -0.1553
   30MOL0     C 3945  10.380  11.228   6.894  0.3686 -0.2258  0.4690
   30MOL0     O 3946  10.372  11.101   6.936 -0.5431  0.4193 -0.7546
   30MOL0     C 3947  10.324  10.998   6.860  0.3194 -0.3436  0.7627
   30MOL0     C 3948  10.410  10.919   6.778 -0.8734 -0.2089 -0.5779
   30MOL0     C 3949  10.371  10.810   6.710  0.9064  0.6495  0.1445
   30MOL0     C 3950  10.236  10.769   6.708  0.0223 -0.3670 -0.4093
   30MOL0     O 3951  10.206  10.656   6.634 -0.0730 -0.3611  0.1628
   30MOL0     C 3952  10.069  10.649   6.601  0.3881  0.7369  0.9534
   30MOL0     C 3953  10.025  10.516   6.521 -0.0681  0.6797 -0.0294
   30MOL0     C 3954  10.026  10.516   6.365 -0.4194  1.1975  0.0018
   30MOL0     C 3955  10.037  10.379   6.313 -0.2859 -0.3404  0.0899
   30MOL0     C 3956   9.997  10.369   6.164 -0.1638 -0.6988  0.0415
   30MOL0     C 3957  10.019  10.225   6.110  0.5465 -0.3349 -1.1360
   30MOL0     C 3958  10.166  10.205   6.078 -0.1301  0.8898  0.0019
   30MOL0     C 3959  10.207  10.068   6.024  0.0387 -0.3804  0.0412
   30MOL0    Cl 3960  10.138  10.044   5.860 -0.2689 -0.3662 -0.7159
   30MOL0     C 3961  10.151  10.843   6.791 -0.3096  0.0096  0.3318
   30MOL0     C 3962  10.195  10.959   6.858  0.4926  0.1671 -0.0359
   30MOL0     O 3963  10.363  11.261   6.778 -0.2596  0.3280 -0.5036
   30MOL0     C 3964  10.344  11.322   7.125 -0.8772  0.4075 -0.8492
   30MOL0     C 3965  10.346  11.419   7.214  0.3707 -0.4725 -0.9401
   30MOL0     N 3966   9.831  12.007   7.193  0.2569  0.1013  0.0369
   30MOL0     N 3967   9.704  12.000   7.236 -0.2388 -0.3759  0.3140
   30MOL0     C 3968   9.576  11.098   7.887  0.4611 -0.6594 -0.4574
   30MOL0     C 3969   9.587  10.964   7.936  1.2777 -0.4826 -0.2895
   30MOL0     C 3970   9.377  10.550   8.046  0.6006 -0.8832  0.2347
   30MOL0     C 3971   9.287  10.452   8.001  0.7055  0.5851 -0.1036
   30MOL0     C 3972   9.244  10.354   8.092  0.2088 -0.9689  0.5259
   30MOL0     C 3973   9.293  10.349   8.225 -0.6161 -0.1069  0.5207
   30MOL0     O 3974   9.257  10.248   8.315 -0.4936 -0.4899 -0.6048
   30MOL0     C 3975   9.175  10.143   8.273  0.0877  0.3335 -0.0832
   30MOL0     C 3976   9.165  10.032   8.378  0.1532 -0.3542  0.2937
   30MOL0     C 3977   9.059   9.929   8.330 -0.2269 -0.2983  0.1690
   30MOL0     C 3978   9.107   9.852   8.206  0.6900 -1.0885  1.2271
   30MOL0     C 3979   9.167   9.721   8.222  0.8932  0.7270  1.3361
   30MOL0     C 3980   9.215   9.618   8.254  0.5208 -0.0695 -0.2975
   30MOL0     C 3981   9.388  10.447   8.264 -0.3157 -0.6391  0.4395
   30MOL0     C 3982   9.418  10.546   8.182 -0.5851 -0.4591 -0.8096
   30MOL0     H 3983   9.254  10.882   7.914  0.1516 -1.1267  0.0013
   30MOL0     H 3984   9.235  11.092   7.827  0.1104 -2.3382 -2.0979
   30MOL0     H 3985   9.251  11.351   7.828  1.9261  0.3215  3.2266
   30MOL0     H 3986   9.369  11.477   7.810  3.3111 -2.0709  3.0285
   30MOL0     H 3987   9.458  11.357   7.586 -0.6836  3.7355 -2.7658
   30MOL0     H 3988   9.299  11.277   7.586  0.6532  0.5018 -0.4287
   30MOL0     H 3989   9.252  11.451   7.441 -0.7889 -2.0640  0.5040
   30MOL0     H 3990   9.191  11.502   7.599  0.0345  1.7521  0.1659
   30MOL0     H 3991   9.384  11.620   7.657 -1.1135 -0.2945  0.3601
   30MOL0     H 3992   9.458  11.590   7.489  0.2785 -1.1743  0.8903
   30MOL0     H 3993   9.275  11.689   7.391  1.8870  0.3916 -0.4056
   30MOL0     H 3994   9.190  11.717   7.549  0.7865  1.4835  3.1447
   30MOL0     H 3995   9.297  11.931   7.471 -0.3956 -0.8177 -0.5093
   30MOL0     H 3996   9.365  11.878   7.617 -0.6320  0.2627 -0.6149
   30MOL0     H 3997   9.527  11.971   7.468 -0.8203 -0.8974 -1.0958
   30MOL0     H 3998   9.577  11.826   7.534  0.2898 -0.4882 -0.6460
   30MOL0     H 3999   9.474  11.862   7.242 -0.7441  0.3781  2.2448
   30MOL0     H 4000   9.532  11.714   7.305 -0.4325  0.9180  0.7451
   30MOL0     H 4001   9.803  11.688   7.269  0.9452  1.0190  3.8013
   30MOL0     H 4002  10.022  11.779   7.078  1.8681  0.0593 -0.4764
   30MOL0     H 4003  10.037  11.949   7.079 -0.9064  0.0971 -0.1239
   30MOL0     H 4004  10.096  11.735   7.288 -6.7267  1.4555  0.3843
   30MOL0     H 4005  10.140  11.905   7.329 -1.4899  0.7745 -1.2244
   30MOL0     H 4006  10.283  11.926   7.129  2.1406 -0.1260 -0.2188
   30MOL0     H 4007  10.259  11.756   7.082  1.4757  0.0251 -0.2732
   30MOL0     H 4008  10.375  11.828   7.364 -1.9766 -3.7552  1.0784
   30MOL0     H 4009  10.469  11.812   7.219 -0.4778  1.1244 -0.6929
   30MOL0     H 4010  10.527  11.647   7.052  0.3090 -0.7203 -0.1980
   30MOL0     H 4011  10.552  11.605   6.840  4.2124  0.8247  0.8550
   30MOL0     H 4012  10.665  11.483   6.881 -0.8408 -3.2020  0.7685
   30MOL0     H 4013  10.548  11.445   6.756 -1.0494  2.0955 -0.3351
   30MOL0     H 4014  10.515  10.942   6.785 -1.2682  1.1774  1.9933
   30MOL0     H 4015  10.447  10.746   6.667  2.1127  1.0915  1.5417
   30MOL0     H 4016  10.001  10.642   6.686  0.0211  2.1451  0.7980
   30MOL0     H 4017  10.053  10.738   6.540  1.1150  1.3693  1.6665
   30MOL0     H 4018  10.096  10.441   6.557  1.1902  1.7382 -0.2310
   30MOL0     H 4019   9.924  10.488   6.553 -0.3649 -1.6108 -2.5560
   30MOL0     H 4020  10.113  10.572   6.331  3.5075 -3.9039  0.3078
   30MOL0     H 4021   9.935  10.557   6.320 -0.7916  1.3125  0.8469
   30MOL0     H 4022  10.136  10.333   6.315  0.0791  0.4349  1.8870
   30MOL0     H 4023   9.970  10.308   6.363 -1.0611 -1.0597 -1.8573
   30MOL0     H 4024  10.056  10.436   6.102  2.0242 -1.5410  1.1124
   30MOL0     H 4025   9.893  10.401   6.151 -0.0510 -0.8386 -1.3294
   30MOL0     H 4026   9.991  10.148   6.182  0.8600 -0.9585 -1.6711
   30MOL0     H 4027   9.962  10.193   6.022 -0.2015 -2.9504  0.2167
   30MOL0     H 4028  10.220  10.220   6.171 -1.0334  3.4814  0.1941
   30MOL0     H 4029  10.199  10.286   6.012 -1.0492  2.7725  1.7468
   30MOL0     H 4030  10.175   9.990   6.094  1.7660  0.2641  1.6287
   30MOL0     H 4031  10.316  10.064   6.018  0.0127  0.2541 -1.2038
   30MOL0     H 4032  10.047  10.815   6.807  0.3931 -3.7961 -0.7845
   30MOL0     H 4033  10.126  11.016   6.920  0.8730  0.2504  0.3192
   30MOL0     H 4034  10.291  11.231   7.151 -0.2644 -0.5093 -2.6164
   30MOL0     H 4035  10.303  11.399   7.312 -1.6872  1.5452 -1.3353
   30MOL0     H 4036   9.668  11.153   7.876  0.2635 -0.4951 -1.3008
   30MOL0     H 4037   9.680  10.914   7.958  2.4603  1.2061 -1.2351
   30MOL0     H 4038   9.257  10.444   7.897 -0.1931 -0.8286  0.2363
   30MOL0     H 4039   9.166  10.281   8.075 -0.2656 -0.0037 -1.8732
   30MOL0     H 4040   9.081  10.192   8.248  0.5106  1.5542  0.6407
   30MOL0     H 4041   9.215  10.099   8.181  3.0817 -3.3082  2.6380
   30MOL0     H 4042   9.120  10.076   8.467 -1.8406  1.2389 -1.4044
   30MOL0     H 4043   9.269  10.003   8.397  1.4070  2.3871 -1.7747
   30MOL0     H 4044   8.963   9.980   8.314 -0.8961 -1.3937  0.5291
   30MOL0     H 4045   9.058   9.852   8.408  1.6789 -0.6158 -0.0883
   30MOL0     H 4046   9.191   9.897   8.152  2.2238 -1.3123  3.3178
   30MOL0     H 4047   9.025   9.851   8.133  0.2512 -0.3381  1.6953
   30MOL0     H 4048   9.265   9.526   8.275  2.0775  0.9826  0.8482
   30MOL0     H 4049   9.444  10.444   8.357 -1.0520  1.6643  1.0174
   30MOL0     H 4050   9.485  10.626   8.212  2.4879 -2.6669 -1.2365
   31MOL0     O 4051   1.973   6.573   7.967  0.8941  0.0988 -0.0543
   31MOL0     C 4052   1.922   6.675   8.004 -0.0525 -0.3124 -0.0698
   31MOL0     O 4053   1.837   6.686   8.110 -0.5030  0.5242 -0.3602
   31MOL0     C 4054   1.821   6.576   8.192 -0.2683  0.0772  0.5907
   31MOL0     C 4055   1.707   6.502   8.202  0.8031  1.1177  0.5064
   31MOL0     C 4056   1.705   6.390   8.283  0.0230 -0.2287 -0.9543
   31MOL0     C 4057   1.815   6.348   8.361  0.0590 -0.9250 -0.7987
   31MOL0     O 4058   1.818   6.239   8.443  0.6953 -0.0466 -0.5719
   31MOL0     C 4059   1.734   6.131   8.407 -0.5954  0.0973  0.4156
   31MOL0     C 4060   1.750   6.036   8.530 -0.1184 -0.3025  0.4342
   31MOL0     C 4061   1.649   5.918   8.521  0.0639 -0.1229 -0.0937
   31MOL0     C 4062   1.570   5.913   8.656 -0.1197  0.6399 -0.1589
   31MOL0     C 4063   1.496   5.780   8.664 -0.7899 -0.3254 -0.1558
   31MOL0     C 4064   1.341   5.777   8.664 -0.3877 -0.8666 -0.2193
   31MOL0     C 4065   1.289   5.815   8.798 -0.3084  0.6799  0.1415
   31MOL0     C 4066   1.134   5.812   8.790  0.1924 -0.2013  0.0447
   31MOL0     N 4067   1.069   5.842   8.918 -0.0629  0.4356 -0.0084
   31MOL0     C 4068   1.011   5.750   9.001  0.1245 -0.3487 -0.2780
   31MOL0     C 4069   0.954   5.819   9.097  0.6991 -0.8989 -0.1933
   31MOL0     C 4070   0.870   5.770   9.216 -0.2462 -0.0387  0.5006
   31MOL0     C 4071   0.860   5.859   9.336  0.1040  0.7179 -0.4287
   31MOL0     C 4072   0.787   5.994   9.320 -1.1755 -0.5845  0.5955
   31MOL0     C 4073   0.647   5.993   9.261 -0.8828  0.1374 -0.4086
   31MOL0     O 4074   0.580   5.875   9.295 -0.3982  1.1349 -0.5394
   31MOL0     C 4075   0.525   5.854   9.424 -0.0783 -0.0357  0.0987
   31MOL0     C 4076   0.516   5.720   9.465 -0.2820  0.0562  0.0923
   31MOL0     C 4077   0.453   5.674   9.583 -0.1911  0.0453  0.3690
   31MOL0     C 4078   0.460   5.527   9.624 -0.4639 -0.9008  0.0349
   31MOL0     C 4079   0.417   5.776   9.675  0.4398  0.3392  0.2925
   31MOL0     C 4080   0.359   5.740   9.818 -0.1959  0.7691  0.2260
   31MOL0     O 4081   0.367   5.843   9.909 -0.6886  0.6607  0.4254
   31MOL0     C 4082   0.324   5.816  10.041 -0.0564 -1.1497  0.8298
   31MOL0     C 4083   0.397   5.850  10.159 -0.0345  0.3380  0.8947
   31MOL0     C 4084   0.357   5.814  10.285  1.1010  0.2203 -0.4129
   31MOL0     C 4085   0.240   5.742  10.310  0.1845 -1.0480  0.4058
   31MOL0     O 4086   0.205   5.699  10.432 -0.2907  0.6778  0.7398
   31MOL0     C 4087   0.179   5.559  10.431  0.5758 -0.2502  0.2485
   31MOL0     C 4088   0.214   5.500  10.565  1.1404 -0.0539 -0.1431
   31MOL0     C 4089   0.118   5.542  10.682  0.3227 -0.3496 -0.6428
   31MOL0     C 4090  -0.024   5.488  10.678  0.5468 -0.0568 -0.5930
   31MOL0     C 4091  -0.071   5.457  10.824 -0.9152  0.5447  0.2675
   31MOL0     C 4092  -0.185   5.364  10.822  0.4264 -0.5187 -0.1531
   31MOL0     C 4093  -0.317   5.442  10.855 -0.1056 -0.6826  0.6093
   31MOL0     C 4094  -0.317   5.486  10.999 -0.5320  0.1377  0.2714
   31MOL0    Cl 4095  -0.476   5.575  11.011  0.2852  0.0792  0.3426
   31MOL0     C 4096   0.167   5.711  10.192 -0.4007  0.4432 -0.7431
   31MOL0     C 4097   0.201   5.754  10.061 -0.7410 -0.4190 -1.0251
   31MOL0     O 4098   0.319   5.629   9.837  0.2867  0.9039  0.6238
   31MOL0     C 4099   0.438   5.917   9.640 -0.9758 -0.4757  0.6348
   31MOL0     C 4100   0.487   5.950   9.517  0.0571 -0.2678 -0.5102
   31MOL0     N 4101   0.972   5.959   9.071 -1.2053  0.2098  0.8085
   31MOL0     N 4102   1.055   5.971   8.970  1.0517 -0.2896 -0.2474
   31MOL0     C 4103   1.934   6.423   8.350 -0.3377  0.2324 -0.0405
   31MOL0     C 4104   1.935   6.536   8.265 -0.0837 -0.0508 -1.2419
   31MOL0     C 4105   1.959   6.800   7.929 -0.9079  0.3140  0.3654
   31MOL0     C 4106   2.053   6.794   7.821  0.2904 -0.4315  0.5451
   31MOL0     C 4107   2.100   6.908   7.759 -0.3135  0.1228  0.1267
   31MOL0     C 4108   2.059   7.034   7.786 -0.1830 -0.2485 -0.0364
   31MOL0     O 4109   2.084   7.147   7.708 -0.4110 -0.3783 -0.1369
   31MOL0     C 4110   2.216   7.194   7.696  0.8011  0.3621 -0.3647
   31MOL0     C 4111   2.262   7.275   7.816 -0.7587  0.1543 -0.9508
   31MOL0     C 4112   2.417   7.302   7.816 -0.9249 -0.3808 -0.5176
   31MOL0     C 4113   2.469   7.388   7.697  0.0437 -0.6539 -0.0809
   31MOL0     C 4114   2.383   7.496   7.649  0.2910 -0.0655 -0.7264
   31MOL0     C 4115   2.304   7.586   7.632 -0.5488  0.4259  0.0555
   31MOL0     C 4116   1.965   7.042   7.889 -0.0159  0.5379 -0.1029
   31MOL0     C 4117   1.912   6.932   7.958  0.8328  0.8445  0.0696
   31MOL0     H 4118   1.617   6.525   8.146 -0.3171  0.5094  1.9822
   31MOL0     H 4119   1.611   6.339   8.299  0.1408 -0.6978 -1.7051
   31MOL0     H 4120   1.629   6.139   8.378 -0.2015 -3.5745 -3.0200
   31MOL0     H 4121   1.769   6.078   8.317 -0.5241  0.9907 -0.0964
   31MOL0     H 4122   1.853   6.005   8.549  0.0045  0.8959  1.9337
   31MOL0     H 4123   1.738   6.100   8.618 -0.1683 -0.5355  0.5987
   31MOL0     H 4124   1.568   5.927   8.448 -1.8592 -1.9037  1.6790
   31MOL0     H 4125   1.704   5.828   8.493 -0.5111 -0.7206  0.6612
   31MOL0     H 4126   1.642   5.902   8.737  0.0213  0.5867 -0.2929
   31MOL0     H 4127   1.501   5.995   8.679 -1.8963 -1.0043  0.6969
   31MOL0     H 4128   1.521   5.715   8.579  4.6689  2.1172 -0.8088
   31MOL0     H 4129   1.528   5.734   8.757 -0.9505  1.1293  0.6451
   31MOL0     H 4130   1.312   5.847   8.585  1.7251 -1.0213 -1.2172
   31MOL0     H 4131   1.305   5.676   8.644 -3.5551  0.0496  0.3533
   31MOL0     H 4132   1.337   5.753   8.875  4.3738  3.9356  0.2583
   31MOL0     H 4133   1.299   5.919   8.829 -3.3568  0.7851  1.0516
   31MOL0     H 4134   1.088   5.718   8.757  0.8595 -0.6459  0.3622
   31MOL0     H 4135   1.105   5.889   8.717  3.2966  1.1187  0.0528
   31MOL0     H 4136   1.023   5.643   8.989 -2.1261 -0.3888 -3.0960
   31MOL0     H 4137   0.767   5.759   9.183 -0.4658  0.7247  0.9034
   31MOL0     H 4138   0.904   5.669   9.242 -3.7685 -2.2070 -2.4583
   31MOL0     H 4139   0.967   5.878   9.346  0.6946  0.0291 -4.0478
   31MOL0     H 4140   0.814   5.795   9.412  3.5730 -1.6869 -0.1109
   31MOL0     H 4141   0.856   6.069   9.279 -0.0164 -1.0540  1.6279
   31MOL0     H 4142   0.787   6.025   9.425  3.4178  3.0135 -0.1041
   31MOL0     H 4143   0.661   5.995   9.152 -2.8317 -1.2910 -0.7344
   31MOL0     H 4144   0.587   6.082   9.286  0.3249  1.1181 -0.8905
   31MOL0     H 4145   0.529   5.652   9.381 -0.7986  0.7142 -0.5315
   31MOL0     H 4146   0.360   5.487   9.645  0.4971 -2.2563  2.4179
   31MOL0     H 4147   0.516   5.468   9.550 -1.9433 -1.4727 -0.6708
   31MOL0     H 4148   0.524   5.512   9.712 -0.0276 -1.1441 -0.3207
   31MOL0     H 4149   0.479   5.920  10.151 -1.0018  1.3982 -0.0867
   31MOL0     H 4150   0.406   5.859  10.371  1.1010  1.2209 -0.9278
   31MOL0     H 4151   0.077   5.533  10.401  1.4763 -2.4581 -1.1282
   31MOL0     H 4152   0.242   5.506  10.359  0.8418 -1.7846  1.5463
   31MOL0     H 4153   0.207   5.392  10.571  1.1186  0.0389  2.6381
   31MOL0     H 4154   0.314   5.526  10.602  1.5182 -2.8407  0.9951
   31MOL0     H 4155   0.106   5.651  10.678 -0.9754 -0.3612  1.4456
   31MOL0     H 4156   0.162   5.517  10.779  0.1666 -1.0267 -0.7407
   31MOL0     H 4157  -0.080   5.566  10.626  2.3258 -0.7406 -3.8114
   31MOL0     H 4158  -0.026   5.402  10.611 -1.0899  0.1139 -0.8116
   31MOL0     H 4159  -0.068   5.552  10.879 -0.1466 -0.7191  2.5330
   31MOL0     H 4160   0.009   5.401  10.875 -1.6502 -0.2826  0.5405
   31MOL0     H 4161  -0.194   5.304  10.731 -1.8179 -0.0768 -0.2859
   31MOL0     H 4162  -0.180   5.288  10.901  0.0348 -1.0850 -0.6670
   31MOL0     H 4163  -0.396   5.371  10.828  1.5050 -1.6754 -1.7657
   31MOL0     H 4164  -0.313   5.534  10.796 -1.3988 -1.2130 -0.3678
   31MOL0     H 4165  -0.230   5.550  11.020 -1.7403  1.4533  1.5070
   31MOL0     H 4166  -0.316   5.412  11.081  0.9600  0.3834  0.5052
   31MOL0     H 4167   0.075   5.654  10.203  1.2524 -2.2167  0.2167
   31MOL0     H 4168   0.129   5.735   9.983 -0.9719  3.2829 -1.8679
   31MOL0     H 4169   0.408   6.006   9.694 -1.4324  0.3159 -0.8574
   31MOL0     H 4170   0.510   6.053   9.493  0.1330  0.3220  1.8216
   31MOL0     H 4171   2.023   6.389   8.402  0.3417  0.7609 -0.8374
   31MOL0     H 4172   2.033   6.581   8.261 -0.1171  0.2539  0.5825
   31MOL0     H 4173   2.104   6.698   7.811  2.4342  0.2340  3.5053
   31MOL0     H 4174   2.171   6.892   7.678 -1.0004 -1.8135 -0.1488
   31MOL0     H 4175   2.274   7.109   7.659 -2.2819 -1.6518 -0.9234
   31MOL0     H 4176   2.217   7.265   7.613 -1.7136  1.3889  0.3914
   31MOL0     H 4177   2.243   7.223   7.910  0.3090  3.0332  1.0024
   31MOL0     H 4178   2.207   7.368   7.835 -4.1123 -1.8336 -0.1491
   31MOL0     H 4179   2.469   7.205   7.819 -1.7515 -0.7996  1.3115
   31MOL0     H 4180   2.448   7.348   7.910  1.4330  1.6465 -2.1496
   31MOL0     H 4181   2.497   7.333   7.607 -2.0244  1.3074 -2.0777
   31MOL0     H 4182   2.560   7.427   7.742  0.2039 -2.0358  0.8345
   31MOL0     H 4183   2.251   7.678   7.617  2.2853  1.9837 -1.2706
   31MOL0     H 4184   1.929   7.140   7.916  0.6595 -0.0546  3.3957
   31MOL0     H 4185   1.836   6.943   8.036  0.2336  1.0728 -0.5297
   32MOL0     O 4186   7.373   5.615  11.498 -0.8692 -0.0909 -0.2047
   32MOL0     C 4187   7.363   5.619  11.615 -0.1845  0.3454  0.2664
   32MOL0     O 4188   7.265   5.559  11.692  0.8064  0.0174 -0.5182
   32MOL0     C 4189   7.156   5.503  11.636  0.1315  0.2760  0.4609
   32MOL0     C 4190   7.027   5.545  11.661  0.5455  0.1262  1.2142
   32MOL0     C 4191   6.923   5.509  11.573  0.2704 -0.3432 -1.2071
   32MOL0     C 4192   6.928   5.409  11.493 -0.6793  0.1230  0.0946
   32MOL0     O 4193   6.818   5.366  11.430 -0.6569 -0.2830 -0.5422
   32MOL0     C 4194   6.685   5.401  11.465  0.0671  0.0732  0.0140
   32MOL0     C 4195   6.587   5.364  11.340 -0.6555 -0.5262 -0.4440
   32MOL0     C 4196   6.537   5.226  11.305 -0.1516 -0.0205 -0.1686
   32MOL0     C 4197   6.480   5.208  11.161  0.6082  0.4676 -0.3931
   32MOL0     C 4198   6.418   5.072  11.153 -0.7005 -0.6084  0.6022
   32MOL0     C 4199   6.293   5.050  11.219  0.1679  0.8213  0.3984
   32MOL0     C 4200   6.236   4.903  11.187  0.0359 -0.1360 -0.4426
   32MOL0     C 4201   6.175   4.909  11.043 -1.0392  0.3343 -0.4912
   32MOL0     N 4202   6.098   4.787  11.010 -1.1289  0.3566 -0.2049
   32MOL0     C 4203   6.158   4.677  10.949  0.0205 -0.4316  0.1077
   32MOL0     C 4204   6.049   4.593  10.931 -0.1694  0.1206  0.2714
   32MOL0     C 4205   6.038   4.463  10.855 -0.3524 -0.6855  0.4543
   32MOL0     C 4206   6.072   4.464  10.707 -0.3877  1.2278 -0.4038
   32MOL0     C 4207   5.956   4.517  10.624 -0.8901 -0.0366 -0.1754
   32MOL0     C 4208   5.991   4.532  10.473 -0.6969  0.3459 -0.6064
   32MOL0     O 4209   5.998   4.399  10.412  0.3273 -0.7717 -0.0701
   32MOL0     C 4210   6.092   4.387  10.312  0.3905  0.8169 -0.2577
   32MOL0     C 4211   6.162   4.267  10.317  0.4555  0.2568  1.1621
   32MOL0     C 4212   6.265   4.233  10.216 -0.0635 -0.0216 -0.2151
   32MOL0     C 4213   6.324   4.088  10.239 -0.7433  0.8852  0.0148
   32MOL0     C 4214   6.302   4.340  10.127 -0.3858 -0.3075  0.2209
   32MOL0     C 4215   6.402   4.325  10.014  0.4422 -0.3756  0.6625
   32MOL0     O 4216   6.410   4.428   9.919 -0.5483 -0.1634  0.1399
   32MOL0     C 4217   6.504   4.416   9.817  0.8683  0.2666 -0.5301
   32MOL0     C 4218   6.497   4.310   9.719  0.3469  0.2658 -0.4652
   32MOL0     C 4219   6.581   4.314   9.605  0.2011  0.0746 -0.3932
   32MOL0     C 4220   6.684   4.405   9.595 -1.0263  0.4614 -0.5671
   32MOL0     O 4221   6.764   4.412   9.483 -0.7936 -0.8113  0.5292
   32MOL0     C 4222   6.760   4.306   9.384 -0.2766  0.1323  0.8461
   32MOL0     C 4223   6.858   4.338   9.277  0.0802  0.1867 -0.7826
   32MOL0     C 4224   6.866   4.486   9.221 -0.0946 -0.2923 -0.7770
   32MOL0     C 4225   6.955   4.504   9.096 -0.3760  0.3753 -0.3553
   32MOL0     C 4226   6.992   4.652   9.068  0.3729  1.3494  0.9081
   32MOL0     C 4227   7.055   4.731   9.173  0.2826  0.1254  0.9469
   32MOL0     C 4228   7.129   4.846   9.121 -0.6361  0.1939  0.7051
   32MOL0     C 4229   7.141   4.946   9.232  0.2395  0.2913 -0.3696
   32MOL0    Cl 4230   7.256   5.065   9.202 -0.2037 -0.3218 -0.2895
   32MOL0     C 4231   6.704   4.502   9.698  0.2536  0.3206  0.2546
   32MOL0     C 4232   6.607   4.506   9.804  0.1292 -1.1393 -0.4966
   32MOL0     O 4233   6.467   4.222  10.013 -0.0587  0.2468  0.4184
   32MOL0     C 4234   6.225   4.451  10.127  0.7067 -0.6501  0.1734
   32MOL0     C 4235   6.123   4.475  10.216 -0.2281  0.8851  0.8293
   32MOL0     N 4236   5.929   4.659  10.952 -0.3283  0.0075 -0.6332
   32MOL0     N 4237   5.965   4.779  10.999  0.3201 -0.7352 -0.3213
   32MOL0     C 4238   7.055   5.350  11.466 -0.5522  0.0074  0.3571
   32MOL0     C 4239   7.170   5.395  11.541  0.1917  0.1964  0.5976
   32MOL0     C 4240   7.455   5.703  11.692  0.0344  0.3178 -0.5041
   32MOL0     C 4241   7.538   5.789  11.630 -0.7423  0.2645  0.3181
   32MOL0     C 4242   7.617   5.877  11.707 -0.1104  0.6182 -0.6738
   32MOL0     C 4243   7.628   5.869  11.848  0.1011 -1.0485  0.5573
   32MOL0     O 4244   7.719   5.941  11.929 -0.1037  0.1815  1.1849
   32MOL0     C 4245   7.797   6.040  11.852 -0.4489  0.3824  0.9946
   32MOL0     C 4246   7.873   6.127  11.956  0.7781  0.5891 -0.4560
   32MOL0     C 4247   7.957   6.060  12.070  0.0789  0.2601 -0.1226
   32MOL0     C 4248   8.087   6.001  12.020  1.6445 -0.4456 -0.5201
   32MOL0     C 4249   8.069   5.854  12.011 -0.3049  0.1645  0.1051
   32MOL0     C 4250   8.039   5.735  11.985  0.2946  0.0120  0.8044
   32MOL0     C 4251   7.547   5.773  11.909  0.5684  0.0119 -0.0538
   32MOL0     C 4252   7.458   5.692  11.832  0.3669 -0.5751 -0.2840
   32MOL0     H 4253   7.009   5.630  11.726 -0.9822  1.7796 -1.2108
   32MOL0     H 4254   6.830   5.563  11.561 -0.0862  0.2010  2.8503
   32MOL0     H 4255   6.655   5.348  11.556  2.4002 -0.2792  0.6321
   32MOL0     H 4256   6.677   5.510  11.458 -1.9097 -0.0630 -0.5719
   32MOL0     H 4257   6.492   5.418  11.345 -0.2295  0.1587  0.8138
   32MOL0     H 4258   6.645   5.402  11.255 -0.4266 -0.7569 -0.3933
   32MOL0     H 4259   6.619   5.153  11.316 -0.1748 -0.0415 -0.1326
   32MOL0     H 4260   6.461   5.208  11.381 -0.4799  2.7056  0.2254
   32MOL0     H 4261   6.410   5.289  11.137 -1.5825  0.0709  3.6488
   32MOL0     H 4262   6.567   5.219  11.097 -1.1558  4.8253 -2.4450
   32MOL0     H 4263   6.410   5.053  11.045 -1.8903 -2.0546  0.9085
   32MOL0     H 4264   6.489   4.996  11.184  0.0995 -0.9766 -1.9136
   32MOL0     H 4265   6.306   5.056  11.328  3.2570  3.8530  0.0508
   32MOL0     H 4266   6.225   5.133  11.196 -1.8290 -0.5841  0.9274
   32MOL0     H 4267   6.313   4.825  11.187 -1.3747 -1.6177  0.5803
   32MOL0     H 4268   6.151   4.880  11.252 -0.8447 -2.9760 -2.4070
   32MOL0     H 4269   6.262   4.906  10.977  1.1651  1.0583  2.1756
   32MOL0     H 4270   6.123   5.005  11.032  0.2917  1.3016  1.1358
   32MOL0     H 4271   6.259   4.667  10.911 -0.7685  0.3270 -2.3378
   32MOL0     H 4272   6.101   4.390  10.907  0.1662 -0.0410  0.7499
   32MOL0     H 4273   5.935   4.437  10.880 -1.2246  0.9264 -1.1924
   32MOL0     H 4274   6.092   4.365  10.663  5.4468  2.3729 -1.0945
   32MOL0     H 4275   6.163   4.522  10.689 -0.6001  1.5208 -0.5270
   32MOL0     H 4276   5.936   4.614  10.671 -0.4459 -0.2546  0.4736
   32MOL0     H 4277   5.874   4.445  10.616  1.2065 -2.3488 -4.2470
   32MOL0     H 4278   6.087   4.585  10.470 -1.0182  0.9029 -1.2372
   32MOL0     H 4279   5.907   4.577  10.419 -1.3209 -2.2084 -1.9192
   32MOL0     H 4280   6.124   4.190  10.382 -2.2005 -2.7687 -3.4056
   32MOL0     H 4281   6.328   4.027  10.149  3.3639  3.2483 -1.7173
   32MOL0     H 4282   6.427   4.103  10.275 -1.7467  0.7999  3.3112
   32MOL0     H 4283   6.253   4.038  10.305 -1.4252  1.7007 -0.0845
   32MOL0     H 4284   6.420   4.234   9.717 -1.4454  2.0109 -2.1360
   32MOL0     H 4285   6.585   4.227   9.541  5.1159 -0.3409  0.0664
   32MOL0     H 4286   6.778   4.202   9.413  2.2360  0.4651  0.6776
   32MOL0     H 4287   6.663   4.314   9.334 -0.9794 -1.3782  1.8918
   32MOL0     H 4288   6.957   4.311   9.317 -1.3960 -2.2308  1.5501
   32MOL0     H 4289   6.840   4.269   9.194  0.8140  1.5093 -2.0694
   32MOL0     H 4290   6.893   4.563   9.293  2.8729 -0.7086 -1.3159
   32MOL0     H 4291   6.766   4.511   9.184  0.3712 -0.0913 -1.9255
   32MOL0     H 4292   7.049   4.454   9.120 -0.3940  1.4649  2.2647
   32MOL0     H 4293   6.915   4.448   9.010 -1.8245  0.0173  0.5233
   32MOL0     H 4294   6.912   4.697   9.010 -0.4353 -5.4253 -4.4801
   32MOL0     H 4295   7.061   4.641   8.984 -2.5788 -0.0779 -1.5252
   32MOL0     H 4296   6.975   4.771   9.237  0.8610  1.9461  0.6021
   32MOL0     H 4297   7.123   4.661   9.223  2.5195  0.0668 -1.9551
   32MOL0     H 4298   7.067   4.884   9.039 -0.8438 -1.7247 -0.0933
   32MOL0     H 4299   7.227   4.803   9.099  0.0507 -0.8177  4.9911
   32MOL0     H 4300   7.136   4.901   9.332 -2.3816 -0.1249 -0.6380
   32MOL0     H 4301   7.042   4.991   9.232  0.0144 -0.1522  0.8943
   32MOL0     H 4302   6.781   4.576   9.678  0.5591  0.4089  1.6413
   32MOL0     H 4303   6.624   4.583   9.878  0.9743 -0.1193 -1.7009
   32MOL0     H 4304   6.237   4.528  10.053 -1.4137  1.6695  2.0606
   32MOL0     H 4305   6.060   4.563  10.218 -1.2099  0.2655 -0.5917
   32MOL0     H 4306   7.064   5.260  11.406 -2.8685 -0.8892  1.2465
   32MOL0     H 4307   7.270   5.358  11.521 -0.0158 -0.8868  1.4764
   32MOL0     H 4308   7.540   5.790  11.521  0.9474  0.2046  0.3206
   32MOL0     H 4309   7.676   5.946  11.648  2.0715  1.8806  2.7264
   32MOL0     H 4310   7.866   5.995  11.780 -0.8384 -0.5773  1.2038
   32MOL0     H 4311   7.733   6.107  11.793 -0.7651  0.2993  1.2380
   32MOL0     H 4312   7.792   6.175  12.012 -0.7754 -3.0119  0.6244
   32MOL0     H 4313   7.935   6.205  11.910 -0.2832  1.1976 -0.9137
   32MOL0     H 4314   7.894   5.986  12.121  1.3704 -0.7055  0.1310
   32MOL0     H 4315   7.984   6.145  12.133 -1.7366  2.3940 -2.0175
   32MOL0     H 4316   8.165   6.017  12.095  0.4735  1.2502  0.3885
   32MOL0     H 4317   8.129   6.048  11.931  0.2628  0.1271 -0.8790
   32MOL0     H 4318   8.008   5.635  11.968  1.3079 -0.7629  3.0119
   32MOL0     H 4319   7.548   5.772  12.017 -0.3947 -1.0515 -0.0405
   32MOL0     H 4320   7.398   5.626  11.893 -0.3993  1.8345  1.7461
   33MOL0     O 4321   1.837  11.352   9.460 -0.1264  0.2388  0.2317
   33MOL0     C 4322   1.943  11.306   9.415  0.2170  0.5360 -0.2961
   33MOL0     O 4323   1.995  11.192   9.446 -0.3501  0.0220  0.9648
   33MOL0     C 4324   1.920  11.105   9.521 -0.4820 -0.9771 -0.0616
   33MOL0     C 4325   1.865  10.986   9.465  0.3243  0.3164  0.3010
   33MOL0     C 4326   1.801  10.891   9.545 -0.0311 -0.0525  0.7119
   33MOL0     C 4327   1.788  10.926   9.686  0.3376  0.7309  0.2386
   33MOL0     O 4328   1.725  10.828   9.759 -0.0463 -0.1349  0.4936
   33MOL0     C 4329   1.754  10.831   9.899 -0.4919 -0.1754  0.1680
   33MOL0     C 4330   1.714  10.714   9.982  0.2769 -0.0991  0.6138
   33MOL0     C 4331   1.758  10.571   9.950  0.7744 -0.2631  0.1638
   33MOL0     C 4332   1.650  10.470   9.999 -0.2635 -0.6138  0.4968
   33MOL0     C 4333   1.703  10.334   9.973 -0.6846 -0.0516 -0.1698
   33MOL0     C 4334   1.600  10.227   9.994  0.2599  0.3238  0.2231
   33MOL0     C 4335   1.642  10.090   9.959 -0.2728  1.1935 -1.0123
   33MOL0     C 4336   1.532   9.991   9.994  0.5327  0.2377  0.2529
   33MOL0     N 4337   1.407  10.012   9.908  0.1836 -0.0001  0.4794
   33MOL0     C 4338   1.283   9.982   9.962 -0.5260  0.7086 -0.4243
   33MOL0     C 4339   1.200  10.000   9.856 -0.3738  0.2511  0.2763
   33MOL0     C 4340   1.058   9.956   9.853 -0.3439 -0.5356  0.7381
   33MOL0     C 4341   0.948  10.067   9.879 -0.9531  0.2371 -0.1219
   33MOL0     C 4342   0.987  10.182   9.986  1.0319  0.9640 -0.2008
   33MOL0     C 4343   0.866  10.276   9.991 -0.4672  0.5972  0.4151
   33MOL0     O 4344   0.879  10.377  10.097 -0.1497 -0.0688  0.0184
   33MOL0     C 4345   0.771  10.463  10.114 -0.2248  0.4258 -1.3584
   33MOL0     C 4346   0.647  10.455  10.048  0.3583 -0.3934 -0.4070
   33MOL0     C 4347   0.566  10.571  10.043  0.4059  0.4293  0.3626
   33MOL0     C 4348   0.462  10.564   9.935 -0.9271  0.6615 -0.9934
   33MOL0     C 4349   0.581  10.684  10.118  0.1698 -0.2658  0.4146
   33MOL0     C 4350   0.484  10.799  10.104  0.0835  0.2080 -1.3590
   33MOL0     O 4351   0.424  10.816  10.230 -0.7187 -0.4312  0.2810
   33MOL0     C 4352   0.333  10.915  10.237 -0.2317  0.7435  1.2505
   33MOL0     C 4353   0.360  11.053  10.220  0.2379 -0.0509  0.7622
   33MOL0     C 4354   0.264  11.157  10.211  1.5920 -0.2477  0.3776
   33MOL0     C 4355   0.128  11.117  10.207 -0.1111 -0.9611 -0.3962
   33MOL0     O 4356   0.036  11.217  10.235  0.5842 -0.1598 -0.6450
   33MOL0     C 4357  -0.064  11.236  10.137 -0.5250 -0.3874  0.0536
   33MOL0     C 4358  -0.004  11.290  10.002 -0.3462 -0.4822 -0.7941
   33MOL0     C 4359  -0.108  11.393   9.932  0.4289  0.2615  0.4827
   33MOL0     C 4360  -0.236  11.318   9.888 -1.3420 -0.1749  0.6652
   33MOL0     C 4361  -0.336  11.426   9.862 -0.3227 -0.6486 -1.0291
   33MOL0     C 4362  -0.321  11.543   9.761 -0.5817  0.1915 -0.0908
   33MOL0     C 4363  -0.456  11.603   9.706  0.0007 -0.7356 -0.4122
   33MOL0     C 4364  -0.544  11.675   9.817  0.7619 -0.2562  0.0208
   33MOL0    Cl 4365  -0.469  11.831   9.863  0.2159 -0.5404 -0.4000
   33MOL0     C 4366   0.106  10.984  10.232  0.6001  0.4346 -0.3664
   33MOL0     C 4367   0.205  10.882  10.240  0.6236 -0.6275 -0.2697
   33MOL0     O 4368   0.447  10.856  10.000 -0.4170 -1.0005  0.4092
   33MOL0     C 4369   0.695  10.690  10.195 -0.5765  0.3875 -1.0111
   33MOL0     C 4370   0.791  10.584  10.194 -0.2813 -0.0295 -0.0677
   33MOL0     N 4371   1.259  10.067   9.752  0.2752  0.6420 -0.2098
   33MOL0     N 4372   1.382  10.076   9.786 -0.8609 -0.4759  0.9746
   33MOL0     C 4373   1.826  11.047   9.743 -0.2692  1.1093 -0.6204
   33MOL0     C 4374   1.908  11.128   9.657  0.5667  0.6357  0.1084
   33MOL0     C 4375   2.030  11.395   9.324  1.0611 -0.3732 -0.1120
   33MOL0     C 4376   1.990  11.518   9.279  0.9715  0.3231  0.9042
   33MOL0     C 4377   2.068  11.608   9.192 -0.1989 -1.1017 -0.1498
   33MOL0     C 4378   2.197  11.570   9.160  0.1497 -0.0704  0.8213
   33MOL0     O 4379   2.261  11.664   9.085 -0.1763  0.0838  0.4739
   33MOL0     C 4380   2.378  11.712   9.149 -0.3213 -0.0065 -0.8999
   33MOL0     C 4381   2.467  11.799   9.060  0.3533 -1.1570 -0.6119
   33MOL0     C 4382   2.514  11.740   8.930  1.0900 -0.5353 -0.8235
   33MOL0     C 4383   2.631  11.646   8.957 -0.0741  0.5898 -0.5883
   33MOL0     C 4384   2.592  11.495   8.937  0.1438 -0.0303  0.6902
   33MOL0     C 4385   2.577  11.377   8.915  0.1858 -0.6649 -0.9396
   33MOL0     C 4386   2.246  11.445   9.205  0.1752 -0.0605  0.4640
   33MOL0     C 4387   2.165  11.353   9.281  0.4501 -0.0844  0.0897
   33MOL0     H 4388   1.853  10.978   9.357  1.6051 -3.1214  0.3071
   33MOL0     H 4389   1.754  10.805   9.498 -1.9166  0.8807  0.8013
   33MOL0     H 4390   1.862  10.844   9.908 -0.7088  2.8656 -0.7139
   33MOL0     H 4391   1.701  10.916   9.941 -1.0654 -0.8561  0.8427
   33MOL0     H 4392   1.735  10.745  10.084 -1.1565  1.7184  0.4213
   33MOL0     H 4393   1.605  10.712   9.981  0.2699 -2.1849 -0.4592
   33MOL0     H 4394   1.759  10.556   9.842 -0.5261  0.0952  0.0817
   33MOL0     H 4395   1.856  10.549   9.994 -0.1863 -1.2408  1.9021
   33MOL0     H 4396   1.636  10.508  10.101  1.1730  2.4832 -0.3466
   33MOL0     H 4397   1.561  10.496   9.943  1.2902  2.8919 -0.5830
   33MOL0     H 4398   1.727  10.331   9.866 -0.7520  3.5641 -0.3878
   33MOL0     H 4399   1.800  10.313  10.020  0.4316  1.3784 -1.7107
   33MOL0     H 4400   1.574  10.230  10.100  0.0530 -0.0461  0.1835
   33MOL0     H 4401   1.519  10.253   9.926  0.4636 -2.0700 -1.0436
   33MOL0     H 4402   1.651  10.087   9.850  0.9958  0.3144 -0.9032
   33MOL0     H 4403   1.735  10.062  10.008 -0.7688 -3.5359 -2.2883
   33MOL0     H 4404   1.506  10.012  10.098  4.6280 -1.0280  1.7292
   33MOL0     H 4405   1.567   9.889   9.981  0.0226  0.3688 -3.1841
   33MOL0     H 4406   1.248   9.936  10.054 -1.7588  3.3406  0.5538
   33MOL0     H 4407   1.044   9.918   9.751 -2.4751  4.3623 -1.1102
   33MOL0     H 4408   1.039   9.881   9.931 -1.6897 -0.2851  0.6778
   33MOL0     H 4409   0.848  10.027   9.897 -1.3508  1.8914  1.6144
   33MOL0     H 4410   0.948  10.124   9.785  4.6074  0.4178 -0.3403
   33MOL0     H 4411   1.072  10.235   9.941  3.5592 -0.5165  2.4976
   33MOL0     H 4412   1.005  10.147  10.088 -3.8264 -1.6437  0.0400
   33MOL0     H 4413   0.782  10.209  10.012 -1.3812  1.3545 -0.6950
   33MOL0     H 4414   0.849  10.320   9.892  1.3705 -1.6418 -0.9980
   33MOL0     H 4415   0.618  10.361  10.001  0.2937 -0.8619  0.5433
   33MOL0     H 4416   0.477  10.647   9.866  1.9978  0.2699 -0.9294
   33MOL0     H 4417   0.462  10.473   9.875 -0.6912  1.3513 -2.0604
   33MOL0     H 4418   0.361  10.576   9.977 -0.2109  0.2127  0.9904
   33MOL0     H 4419   0.465  11.075  10.230  0.0595  0.1097  2.7585
   33MOL0     H 4420   0.283  11.264  10.204 -2.0695  0.4313 -2.4594
   33MOL0     H 4421  -0.105  11.137  10.115  0.0865 -1.0975  1.9049
   33MOL0     H 4422  -0.146  11.304  10.164  0.5254  0.5183  1.0585
   33MOL0     H 4423   0.097  11.331  10.010 -0.0928 -1.1263 -0.6211
   33MOL0     H 4424   0.016  11.219   9.921 -1.6714  1.7122 -3.2306
   33MOL0     H 4425  -0.066  11.442   9.844  0.1867 -1.0349 -0.3806
   33MOL0     H 4426  -0.139  11.456  10.016 -0.0390 -1.6009  1.7604
   33MOL0     H 4427  -0.219  11.256   9.800 -1.5753  0.2377  0.3277
   33MOL0     H 4428  -0.275  11.252   9.966 -1.1269 -1.4254 -0.2597
   33MOL0     H 4429  -0.372  11.464   9.958 -2.0300  1.4060 -2.4031
   33MOL0     H 4430  -0.420  11.370   9.821  0.6283  0.2282 -4.4558
   33MOL0     H 4431  -0.262  11.624   9.807  2.8026 -1.4252 -1.2240
   33MOL0     H 4432  -0.258  11.508   9.677  0.2433  2.1442 -0.3495
   33MOL0     H 4433  -0.520  11.524   9.666  2.1297 -3.0425  0.5040
   33MOL0     H 4434  -0.426  11.671   9.625 -2.4606  0.0663 -0.7339
   33MOL0     H 4435  -0.542  11.599   9.896  0.1810 -0.5822 -0.2718
   33MOL0     H 4436  -0.649  11.692   9.792  0.3111  3.9392  3.6255
   33MOL0     H 4437   0.004  10.962  10.261  0.4491 -1.0433 -1.8864
   33MOL0     H 4438   0.171  10.779  10.246 -2.4419  0.1110 -2.4158
   33MOL0     H 4439   0.706  10.777  10.260  0.4037 -1.6277  1.6987
   33MOL0     H 4440   0.882  10.596  10.253 -0.0612 -1.6841 -0.0134
   33MOL0     H 4441   1.807  11.079   9.845 -0.7727  0.0479 -0.3609
   33MOL0     H 4442   1.948  11.217   9.706  1.6458  0.1983  0.0616
   33MOL0     H 4443   1.893  11.557   9.308  0.6733  0.4109 -0.1446
   33MOL0     H 4444   2.031  11.700   9.149 -2.0073 -1.0421  1.3927
   33MOL0     H 4445   2.351  11.776   9.234 -2.1303  1.2983 -2.3664
   33MOL0     H 4446   2.439  11.630   9.189 -0.8021  0.8434  1.8315
   33MOL0     H 4447   2.551  11.831   9.123 -0.6851  1.2953 -0.3633
   33MOL0     H 4448   2.401  11.884   9.042 -1.1659 -2.2213 -0.2870
   33MOL0     H 4449   2.554  11.824   8.874  2.1631 -0.3251  0.2114
   33MOL0     H 4450   2.431  11.702   8.870 -1.8056  1.2199  1.7644
   33MOL0     H 4451   2.660  11.657   9.062 -1.1961  0.7353 -0.2793
   33MOL0     H 4452   2.713  11.674   8.890  0.4675 -0.5156 -0.4085
   33MOL0     H 4453   2.549  11.275   8.896 -0.8703  0.0578 -3.7883
   33MOL0     H 4454   2.343  11.418   9.164  0.5408  1.9336 -0.0604
   33MOL0     H 4455   2.203  11.254   9.303  3.8146  0.2326 -3.3022
   34MOL0     O 4456   7.796   0.065   1.782  0.5640 -0.1492  0.0572
   34MOL0     C 4457   7.695   0.126   1.745  0.3440 -0.0961 -0.9039
   34MOL0     O 4458   7.565   0.081   1.749  0.0105 -0.2210  0.6602
   34MOL0     C 4459   7.535  -0.048   1.762 -0.6674  0.3170  0.0812
   34MOL0     C 4460   7.486  -0.111   1.652  0.8420 -0.6345  0.2194
   34MOL0     C 4461   7.426  -0.238   1.666 -1.2864  0.7658  0.0417
   34MOL0     C 4462   7.442  -0.310   1.784  0.4102 -0.0458 -0.3651
   34MOL0     O 4463   7.403  -0.440   1.817 -0.6143 -0.4138 -0.5693
   34MOL0     C 4464   7.348  -0.516   1.708 -0.1571 -0.1649 -0.4466
   34MOL0     C 4465   7.467  -0.560   1.612 -0.4711  0.9661  0.3136
   34MOL0     C 4466   7.425  -0.680   1.528  0.0333  0.7785 -0.4961
   34MOL0     C 4467   7.521  -0.714   1.417  0.0497 -1.0746 -0.3955
   34MOL0     C 4468   7.487  -0.820   1.316  1.3684  0.3343 -0.4374
   34MOL0     C 4469   7.470  -0.958   1.392  0.7556 -0.0709  0.2188
   34MOL0     C 4470   7.543  -1.078   1.334  0.0819 -0.4850  0.5207
   34MOL0     C 4471   7.502  -1.210   1.406 -0.7202 -0.3291  0.2433
   34MOL0     N 4472   7.582  -1.322   1.354 -0.2256 -0.7336 -0.1814
   34MOL0     C 4473   7.708  -1.355   1.406  0.1327  0.1788  0.2111
   34MOL0     C 4474   7.760  -1.464   1.326 -0.0633  0.1217 -1.0153
   34MOL0     C 4475   7.884  -1.529   1.336 -0.3038  0.2385  0.0366
   34MOL0     C 4476   7.996  -1.454   1.258 -0.1584 -0.0138  0.6393
   34MOL0     C 4477   8.101  -1.557   1.214 -0.2827  0.9442 -0.0079
   34MOL0     C 4478   8.085  -1.629   1.083 -0.1191 -0.3679 -0.0119
   34MOL0     O 4479   7.996  -1.738   1.105  0.0498  0.8418 -0.8851
   34MOL0     C 4480   8.001  -1.834   1.007 -0.9916  0.6709  0.1822
   34MOL0     C 4481   8.042  -1.812   0.880 -0.4436 -0.6851 -0.6463
   34MOL0     C 4482   8.032  -1.906   0.776  0.0467  0.2629 -0.7900
   34MOL0     C 4483   8.087  -1.862   0.650  0.2372 -0.7943  0.4299
   34MOL0     C 4484   7.977  -2.041   0.797  0.3386  0.3151 -0.6930
   34MOL0     C 4485   7.962  -2.140   0.687  0.0522  0.0875 -0.8273
   34MOL0     O 4486   7.859  -2.226   0.701 -0.7228  0.5345 -0.0521
   34MOL0     C 4487   7.822  -2.286   0.590 -0.1904  0.3570 -0.4178
   34MOL0     C 4488   7.867  -2.418   0.577  0.8597 -0.0830 -0.7438
   34MOL0     C 4489   7.836  -2.495   0.464 -0.5451 -0.1567  1.1134
   34MOL0     C 4490   7.750  -2.444   0.367  0.0745 -0.5802  0.6718
   34MOL0     O 4491   7.713  -2.528   0.266  0.0690 -1.1518 -0.4360
   34MOL0     C 4492   7.649  -2.467   0.154 -0.0725 -1.0137  1.2972
   34MOL0     C 4493   7.611  -2.573   0.051  0.2293 -0.3070 -0.5904
   34MOL0     C 4494   7.592  -2.521  -0.097  0.3224  0.9447 -0.5400
   34MOL0     C 4495   7.525  -2.613  -0.186  0.4353  0.8448  0.7106
   34MOL0     C 4496   7.597  -2.751  -0.198  0.5752  0.1744 -0.1932
   34MOL0     C 4497   7.520  -2.861  -0.279  0.0169 -0.0138  0.0380
   34MOL0     C 4498   7.476  -2.825  -0.418  0.5510 -0.3256  0.3463
   34MOL0     C 4499   7.592  -2.776  -0.510  0.4765  0.5562  0.4287
   34MOL0    Cl 4500   7.741  -2.880  -0.490  0.0113  0.1562  0.0414
   34MOL0     C 4501   7.718  -2.302   0.382 -0.0698  0.5889 -0.0883
   34MOL0     C 4502   7.741  -2.227   0.492 -0.4852  0.2242  0.7991
   34MOL0     O 4503   8.039  -2.133   0.590 -0.2745 -0.2692 -0.2930
   34MOL0     C 4504   7.925  -2.059   0.931 -0.7591  0.1348 -0.1924
   34MOL0     C 4505   7.942  -1.956   1.029 -0.8330  0.1868  0.6597
   34MOL0     N 4506   7.674  -1.481   1.225  0.3671 -0.8557  0.1184
   34MOL0     N 4507   7.565  -1.395   1.242 -0.1431  0.4370  0.1681
   34MOL0     C 4508   7.496  -0.244   1.894 -0.3928 -0.3270  0.4765
   34MOL0     C 4509   7.543  -0.114   1.881 -0.6135 -0.1265 -1.0378
   34MOL0     C 4510   7.705   0.265   1.703 -0.4999  0.0124 -0.5735
   34MOL0     C 4511   7.798   0.300   1.602 -0.3706 -1.1451 -0.5662
   34MOL0     C 4512   7.819   0.423   1.558 -0.0563 -0.3867 -0.4543
   34MOL0     C 4513   7.745   0.533   1.608 -0.7431 -0.5284 -0.5467
   34MOL0     O 4514   7.741   0.662   1.561  0.5144  0.1373 -0.0472
   34MOL0     C 4515   7.833   0.708   1.465 -0.9599  1.0913 -1.0222
   34MOL0     C 4516   7.787   0.848   1.434 -0.7194 -0.4688 -0.4937
   34MOL0     C 4517   7.700   0.864   1.308 -1.1683  1.2363 -0.5641
   34MOL0     C 4518   7.720   1.008   1.261  0.8685 -0.6467 -0.7269
   34MOL0     C 4519   7.684   1.015   1.117  0.2417  0.4088  0.3053
   34MOL0     C 4520   7.665   1.029   1.001  0.3850  0.1438 -0.4254
   34MOL0     C 4521   7.652   0.500   1.709  0.0572 -1.8230 -0.8779
   34MOL0     C 4522   7.632   0.367   1.764 -0.2373 -0.8542 -0.9006
   34MOL0     H 4523   7.486  -0.060   1.556 -0.3850 -0.2347  0.4064
   34MOL0     H 4524   7.387  -0.291   1.580 -2.1829  2.4026 -0.6030
   34MOL0     H 4525   7.307  -0.609   1.749  0.5633  0.1026  0.9516
   34MOL0     H 4526   7.278  -0.450   1.657  0.8705  1.5375  0.2717
   34MOL0     H 4527   7.500  -0.468   1.561  1.4493  0.3875  0.4279
   34MOL0     H 4528   7.552  -0.591   1.673 -1.2871 -1.2995  0.4013
   34MOL0     H 4529   7.413  -0.767   1.594 -0.9425  1.7574  0.6390
   34MOL0     H 4530   7.325  -0.666   1.486 -0.2739 -0.5864 -0.2672
   34MOL0     H 4531   7.549  -0.621   1.367  3.2790 -1.1389  1.0433
   34MOL0     H 4532   7.616  -0.745   1.461 -0.5413 -2.0502  0.2239
   34MOL0     H 4533   7.385  -0.803   1.282  1.3963  0.9282 -0.2259
   34MOL0     H 4534   7.550  -0.833   1.227  3.2898 -1.4787  1.0591
   34MOL0     H 4535   7.518  -0.950   1.490  0.4677  0.8238  0.2886
   34MOL0     H 4536   7.367  -0.994   1.399  0.7545  0.1608  1.9253
   34MOL0     H 4537   7.523  -1.074   1.226 -0.1811 -0.1436  0.5801
   34MOL0     H 4538   7.651  -1.062   1.338 -0.2350  3.6760 -1.5350
   34MOL0     H 4539   7.398  -1.237   1.385 -0.7192 -1.9820  1.9969
   34MOL0     H 4540   7.510  -1.187   1.513 -4.1850  2.5657  0.0349
   34MOL0     H 4541   7.761  -1.299   1.483 -1.5685  1.7479  0.3263
   34MOL0     H 4542   7.920  -1.537   1.439  0.5976 -2.2763 -0.4139
   34MOL0     H 4543   7.865  -1.629   1.295  0.2702  0.8170 -1.7520
   34MOL0     H 4544   8.032  -1.367   1.313 -2.9299  1.8905 -0.3324
   34MOL0     H 4545   7.943  -1.422   1.168  1.0253 -3.2153 -1.3764
   34MOL0     H 4546   8.113  -1.623   1.300  1.6234  1.7983  0.4289
   34MOL0     H 4547   8.196  -1.503   1.214 -0.2775  0.9695 -1.4682
   34MOL0     H 4548   8.180  -1.671   1.048 -0.1260 -0.9106  0.6055
   34MOL0     H 4549   8.042  -1.571   1.001 -2.0796 -0.6754  0.7434
   34MOL0     H 4550   8.076  -1.711   0.865 -0.8383 -0.1297  1.8183
   34MOL0     H 4551   8.097  -1.753   0.657  0.5141 -0.8643  1.3186
   34MOL0     H 4552   8.185  -1.904   0.627  1.8621  1.4058  2.6652
   34MOL0     H 4553   8.023  -1.887   0.566 -0.3458  0.4118  0.4945
   34MOL0     H 4554   7.921  -2.464   0.659 -0.7434 -1.1554 -0.2196
   34MOL0     H 4555   7.871  -2.595   0.441  1.3293  0.7104 -0.0468
   34MOL0     H 4556   7.564  -2.404   0.182 -0.0732 -0.3863 -0.0442
   34MOL0     H 4557   7.721  -2.404   0.102 -1.0938 -0.3576  0.6388
   34MOL0     H 4558   7.688  -2.650   0.060 -0.3986 -0.7141  2.3630
   34MOL0     H 4559   7.519  -2.615   0.093  1.1291 -2.7438 -0.8481
   34MOL0     H 4560   7.690  -2.487  -0.131  0.5132  0.5049 -0.4394
   34MOL0     H 4561   7.524  -2.435  -0.101  1.4759  1.8206 -3.0304
   34MOL0     H 4562   7.422  -2.639  -0.157 -1.4741  0.6065 -5.0527
   34MOL0     H 4563   7.518  -2.558  -0.281  0.4418  0.4584  0.4855
   34MOL0     H 4564   7.608  -2.790  -0.096 -0.3202 -2.6690 -1.0872
   34MOL0     H 4565   7.698  -2.745  -0.240 -0.2480 -1.5126 -2.6269
   34MOL0     H 4566   7.572  -2.957  -0.278  0.1250  0.0174  1.9917
   34MOL0     H 4567   7.433  -2.874  -0.214  0.3151 -0.2996  0.3821
   34MOL0     H 4568   7.393  -2.754  -0.407  0.0197 -1.0350  1.0642
   34MOL0     H 4569   7.441  -2.921  -0.458 -2.5432 -0.5045  3.0298
   34MOL0     H 4570   7.612  -2.674  -0.476 -1.3289  0.7701  0.9381
   34MOL0     H 4571   7.568  -2.765  -0.616 -0.5913  2.7239  0.8438
   34MOL0     H 4572   7.656  -2.252   0.308  0.4215  0.0341 -0.8940
   34MOL0     H 4573   7.726  -2.120   0.488  0.7035  0.3696 -1.0339
   34MOL0     H 4574   7.876  -2.154   0.949  1.3289 -1.3652 -1.9391
   34MOL0     H 4575   7.890  -1.967   1.124 -1.7146 -2.3703 -0.0544
   34MOL0     H 4576   7.489  -0.301   1.986  0.4804 -1.3527 -0.0674
   34MOL0     H 4577   7.577  -0.065   1.971 -3.6617 -0.2449  0.2863
   34MOL0     H 4578   7.864   0.221   1.567  1.3353 -0.7405  1.5828
   34MOL0     H 4579   7.896   0.453   1.487  0.5392 -0.6096  0.0907
   34MOL0     H 4580   7.931   0.696   1.512 -3.0124 -3.0817  2.9287
   34MOL0     H 4581   7.836   0.655   1.370  1.3388 -0.1230 -0.3387
   34MOL0     H 4582   7.879   0.902   1.412 -0.4961  0.2679  1.8808
   34MOL0     H 4583   7.756   0.899   1.526  3.0031  0.7883  0.2138
   34MOL0     H 4584   7.596   0.853   1.339 -0.4068  0.9640  2.1901
   34MOL0     H 4585   7.725   0.782   1.239 -1.2964  0.2018  0.5729
   34MOL0     H 4586   7.824   1.035   1.282  0.1639  1.1970  0.6367
   34MOL0     H 4587   7.654   1.072   1.321 -1.2230  0.0256 -3.4932
   34MOL0     H 4588   7.642   1.052   0.899 -1.4568 -1.9830 -0.5544
   34MOL0     H 4589   7.607   0.582   1.764  1.8062 -1.8213  0.6320
   34MOL0     H 4590   7.561   0.357   1.845 -3.1228  3.4961 -2.5200
   35MOL0     O 4591   8.698   0.028   9.956 -0.6966 -0.0031 -0.4040
   35MOL0     C 4592   8.583   0.052   9.937 -0.1259  0.5598 -0.5174
   35MOL0     O 4593   8.480  -0.034   9.970  0.2837  0.2517 -0.3053
   35MOL0     C 4594   8.507  -0.154  10.022 -0.2143  0.4652  0.0708
   35MOL0     C 4595   8.476  -0.175  10.160 -0.2481 -0.9091  0.6481
   35MOL0     C 4596   8.522  -0.299  10.212 -0.9281 -0.5139  0.5587
   35MOL0     C 4597   8.578  -0.398  10.138 -1.1263  0.6978  0.4520
   35MOL0     O 4598   8.610  -0.524  10.183  0.3442  0.1376 -0.6898
   35MOL0     C 4599   8.710  -0.543  10.283 -0.3060  0.4732 -0.1881
   35MOL0     C 4600   8.846  -0.542  10.226  0.2342 -0.6307 -0.3220
   35MOL0     C 4601   8.884  -0.592  10.079  0.1130 -0.0131 -0.0745
   35MOL0     C 4602   9.014  -0.521  10.021 -0.2565  0.2557 -0.5652
   35MOL0     C 4603   9.060  -0.599   9.905  0.6665 -0.0539  0.1695
   35MOL0     C 4604   9.184  -0.527   9.840  0.1755 -0.0306  0.5366
   35MOL0     C 4605   9.156  -0.374   9.815 -0.1060  0.3850 -1.0956
   35MOL0     C 4606   9.237  -0.309   9.698 -0.6332 -0.2263  1.0053
   35MOL0     N 4607   9.364  -0.380   9.674  0.3449  0.2555  0.4786
   35MOL0     C 4608   9.466  -0.391   9.766  0.0724 -0.7872  0.1562
   35MOL0     C 4609   9.564  -0.461   9.709 -0.3508  0.7274  0.2216
   35MOL0     C 4610   9.692  -0.495   9.772 -0.7425 -0.5758 -0.2345
   35MOL0     C 4611   9.817  -0.493   9.682  0.1195 -0.5095 -0.3659
   35MOL0     C 4612   9.956  -0.556   9.754  0.3584 -0.3376 -0.0025
   35MOL0     C 4613   9.962  -0.700   9.790  0.2273  0.3860 -0.8321
   35MOL0     O 4614  10.069  -0.755   9.872 -0.2655 -0.2418 -1.4912
   35MOL0     C 4615  10.186  -0.814   9.815 -0.1290 -0.1443 -0.2687
   35MOL0     C 4616  10.248  -0.914   9.889 -0.5268 -0.4473  1.2597
   35MOL0     C 4617  10.365  -0.974   9.845  0.3854 -0.3204 -0.5183
   35MOL0     C 4618  10.426  -1.086   9.919  0.2645 -0.2878  0.5581
   35MOL0     C 4619  10.414  -0.930   9.714 -0.5435  0.2019  0.2741
   35MOL0     C 4620  10.552  -0.978   9.661 -0.2191  0.3214  0.9255
   35MOL0     O 4621  10.629  -1.068   9.726 -0.4109 -0.1401 -0.1217
   35MOL0     C 4622  10.763  -1.072   9.715  0.5852  0.1310  1.0315
   35MOL0     C 4623  10.819  -1.201   9.693  0.0875  0.4052  0.9875
   35MOL0     C 4624  10.960  -1.202   9.681 -0.7535  0.7487 -0.4443
   35MOL0     C 4625  11.045  -1.102   9.704  0.2818 -0.3652  0.2229
   35MOL0     O 4626  11.182  -1.107   9.695  0.5327  1.0399 -0.0499
   35MOL0     C 4627  11.243  -1.145   9.576  0.0039 -0.2791 -0.3551
   35MOL0     C 4628  11.350  -1.031   9.550  0.2172  1.1839 -0.1861
   35MOL0     C 4629  11.420  -1.066   9.419 -0.8206  0.5771  0.0365
   35MOL0     C 4630  11.524  -0.959   9.402 -0.3204  0.3583 -0.1370
   35MOL0     C 4631  11.614  -0.974   9.276  0.0881  1.5369 -0.6967
   35MOL0     C 4632  11.721  -0.875   9.250 -0.3167  0.1282  0.1194
   35MOL0     C 4633  11.667  -0.732   9.266  0.7220  0.0745  0.4271
   35MOL0     C 4634  11.785  -0.637   9.225 -0.5172 -1.5902 -0.3796
   35MOL0    Cl 4635  11.822  -0.668   9.057  0.2156  0.4706  0.1715
   35MOL0     C 4636  10.990  -0.974   9.744  0.4567 -0.5746  0.1970
   35MOL0     C 4637  10.848  -0.963   9.741  0.8234 -0.0164  0.1603
   35MOL0     O 4638  10.580  -0.930   9.550  0.5372  0.0954 -0.2437
   35MOL0     C 4639  10.335  -0.843   9.632  0.4889 -0.1624  0.9440
   35MOL0     C 4640  10.225  -0.781   9.689 -0.1711 -0.8921 -0.3805
   35MOL0     N 4641   9.515  -0.494   9.579 -0.8135 -0.2757 -0.7754
   35MOL0     N 4642   9.402  -0.438   9.557  0.4429  0.6687 -0.4627
   35MOL0     C 4643   8.608  -0.375  10.008 -1.0979 -0.1832 -0.6243
   35MOL0     C 4644   8.581  -0.250   9.952 -0.1191  0.6772 -0.9780
   35MOL0     C 4645   8.564   0.187   9.905 -0.0279 -0.9748  0.7405
   35MOL0     C 4646   8.667   0.283   9.868 -0.2494 -0.6660  0.6550
   35MOL0     C 4647   8.632   0.417   9.845 -0.3393  0.1415 -0.0019
   35MOL0     C 4648   8.496   0.468   9.854  0.5513  0.7767 -0.1207
   35MOL0     O 4649   8.446   0.589   9.805 -0.5371  1.0467  0.5594
   35MOL0     C 4650   8.529   0.660   9.708  0.2000 -0.4503 -0.0765
   35MOL0     C 4651   8.576   0.603   9.575  0.5032 -1.3324 -0.0227
   35MOL0     C 4652   8.693   0.680   9.513  0.1003  0.0529  0.2885
   35MOL0     C 4653   8.711   0.654   9.369 -0.6359 -0.6853 -0.5579
   35MOL0     C 4654   8.831   0.736   9.326  0.0683 -0.2054 -0.1778
   35MOL0     C 4655   8.932   0.789   9.285 -0.0522 -1.1623  0.0150
   35MOL0     C 4656   8.406   0.375   9.888  0.6512  0.0585 -1.1819
   35MOL0     C 4657   8.436   0.239   9.914  0.0269 -0.9340 -0.1940
   35MOL0     H 4658   8.411  -0.105  10.213  0.7553  2.2493 -1.9205
   35MOL0     H 4659   8.515  -0.316  10.318 -1.9972  1.0178  0.7770
   35MOL0     H 4660   8.693  -0.472  10.365 -2.1461  0.3275 -0.3982
   35MOL0     H 4661   8.707  -0.639  10.335  3.6826  0.6751  0.6954
   35MOL0     H 4662   8.875  -0.437  10.227  1.4355 -0.9344  1.6982
   35MOL0     H 4663   8.919  -0.581  10.298  3.2404  0.7470 -2.4170
   35MOL0     H 4664   8.902  -0.700  10.083 -0.8762 -0.2187 -0.8563
   35MOL0     H 4665   8.801  -0.609  10.011 -0.6117 -2.6296  1.3269
   35MOL0     H 4666   8.981  -0.417  10.009 -2.5914 -0.5886 -2.1350
   35MOL0     H 4667   9.087  -0.533  10.101 -2.4907 -2.4851  1.2704
   35MOL0     H 4668   9.085  -0.702   9.934 -1.6436 -0.8141 -0.2856
   35MOL0     H 4669   8.971  -0.597   9.840 -2.4581  2.7609  4.0156
   35MOL0     H 4670   9.267  -0.542   9.909 -0.0785 -0.8331  0.6745
   35MOL0     H 4671   9.188  -0.580   9.744  0.0010  1.5799 -0.4029
   35MOL0     H 4672   9.048  -0.368   9.808 -0.5040 -0.9739  2.0855
   35MOL0     H 4673   9.199  -0.340   9.910 -0.3577 -3.3721  0.5384
   35MOL0     H 4674   9.250  -0.205   9.729  1.4182 -0.0205 -0.3865
   35MOL0     H 4675   9.185  -0.308   9.602 -0.7330 -1.3983  1.0283
   35MOL0     H 4676   9.476  -0.333   9.857 -1.2269 -3.5303  2.2126
   35MOL0     H 4677   9.704  -0.410   9.840  1.3644 -1.7982  1.0131
   35MOL0     H 4678   9.689  -0.588   9.829 -0.4857  0.1004  0.9123
   35MOL0     H 4679   9.837  -0.391   9.647  2.4516 -0.9728 -0.5227
   35MOL0     H 4680   9.795  -0.545   9.588  1.1244  0.1202 -0.9667
   35MOL0     H 4681   9.975  -0.515   9.853  1.1958 -0.8352  0.0576
   35MOL0     H 4682  10.035  -0.528   9.684 -0.9105  0.1489 -1.2884
   35MOL0     H 4683   9.965  -0.757   9.697 -0.8316  0.3051 -0.8276
   35MOL0     H 4684   9.869  -0.716   9.846  1.1207 -0.1012  0.5693
   35MOL0     H 4685  10.208  -0.939   9.987 -2.7008  0.4300  0.6437
   35MOL0     H 4686  10.450  -1.168   9.851 -2.7446  0.5604 -1.7494
   35MOL0     H 4687  10.515  -1.050   9.971  1.1450  0.9410 -1.6469
   35MOL0     H 4688  10.360  -1.125   9.997  0.6137 -1.6629  0.1918
   35MOL0     H 4689  10.753  -1.287   9.687 -1.9271  1.9198  0.2356
   35MOL0     H 4690  11.004  -1.300   9.666 -2.0372 -0.3223  2.1883
   35MOL0     H 4691  11.301  -1.236   9.592  0.2296  0.2836  2.5982
   35MOL0     H 4692  11.163  -1.166   9.504  0.3138  1.2134 -1.1922
   35MOL0     H 4693  11.299  -0.935   9.564  1.2119  1.6352  0.5217
   35MOL0     H 4694  11.425  -1.053   9.628  3.0873 -5.1424 -3.9746
   35MOL0     H 4695  11.355  -1.060   9.331  0.5905 -1.0705 -1.1907
   35MOL0     H 4696  11.466  -1.164   9.433  0.5186  1.2052  0.2379
   35MOL0     H 4697  11.476  -0.864   9.428 -0.7518 -0.2340  1.3368
   35MOL0     H 4698  11.585  -0.977   9.491 -4.2083 -2.2567  2.3795
   35MOL0     H 4699  11.538  -0.954   9.201 -1.4595  0.9493  0.6468
   35MOL0     H 4700  11.662  -1.072   9.274 -1.9493  0.4560  0.2810
   35MOL0     H 4701  11.811  -0.891   9.310  2.1197 -0.2013 -3.3667
   35MOL0     H 4702  11.770  -0.901   9.156  0.5750 -0.8667  0.8333
   35MOL0     H 4703  11.618  -0.707   9.361 -3.0809  1.4638 -1.7048
   35MOL0     H 4704  11.588  -0.716   9.192  0.0635 -0.4697  1.0004
   35MOL0     H 4705  11.865  -0.658   9.297 -0.1746  0.1772 -0.2060
   35MOL0     H 4706  11.763  -0.533   9.251 -0.5477 -2.8017  6.1783
   35MOL0     H 4707  11.062  -0.901   9.781  0.8005 -1.5276  1.4642
   35MOL0     H 4708  10.799  -0.873   9.777  2.5092  1.5892 -1.3616
   35MOL0     H 4709  10.369  -0.805   9.537 -4.6298  0.6674 -0.8564
   35MOL0     H 4710  10.167  -0.706   9.636  3.2544  3.3283  1.2252
   35MOL0     H 4711   8.661  -0.458   9.962  0.5298  0.4045  0.1065
   35MOL0     H 4712   8.607  -0.225   9.850  2.5115 -1.5744 -0.9644
   35MOL0     H 4713   8.773   0.259   9.863 -0.0894  0.0067  0.8037
   35MOL0     H 4714   8.709   0.490   9.821 -2.7778  2.5475 -1.0660
   35MOL0     H 4715   8.477   0.752   9.680  2.0083  0.6218 -0.0703
   35MOL0     H 4716   8.617   0.683   9.769  0.2650 -1.4562  0.2329
   35MOL0     H 4717   8.491   0.602   9.507  0.9075 -3.5310 -0.5697
   35MOL0     H 4718   8.599   0.497   9.588 -1.5114 -2.2402 -3.0295
   35MOL0     H 4719   8.784   0.653   9.567  2.8853 -0.7370 -4.2407
   35MOL0     H 4720   8.670   0.786   9.525 -0.1853 -0.2692  3.5535
   35MOL0     H 4721   8.627   0.670   9.300 -1.2730 -0.7577  0.1806
   35MOL0     H 4722   8.732   0.547   9.357  0.1308 -0.7315  0.9288
   35MOL0     H 4723   9.013   0.850   9.253 -2.1180  2.2045  0.6562
   35MOL0     H 4724   8.304   0.410   9.871  0.7687  0.6976 -0.5975
   35MOL0     H 4725   8.358   0.173   9.950 -1.0928 -0.7312 -2.1163
   36MOL0     O 4726   4.486   4.673  10.805 -0.1145 -0.0004  0.4596
   36MOL0     C 4727   4.488   4.553  10.799 -0.1463 -0.5079  0.1866
   36MOL0     O 4728   4.426   4.471  10.890  0.0385  0.6565 -0.4348
   36MOL0     C 4729   4.356   4.523  10.990  0.0121 -1.2337  0.1694
   36MOL0     C 4730   4.219   4.488  11.011 -0.3141 -0.6529 -0.3685
   36MOL0     C 4731   4.151   4.518  11.132  0.0619 -0.0872 -0.6594
   36MOL0     C 4732   4.230   4.586  11.232  0.1819 -0.3506 -0.3668
   36MOL0     O 4733   4.172   4.624  11.355 -0.6701  0.7579  0.1089
   36MOL0     C 4734   4.083   4.531  11.417  0.0681  0.5126  0.1938
   36MOL0     C 4735   4.146   4.404  11.456  0.6276 -0.0933  0.3582
   36MOL0     C 4736   4.058   4.283  11.473 -0.1691 -0.7827 -0.3039
   36MOL0     C 4737   4.123   4.179  11.557  0.7401  0.4355 -0.1001
   36MOL0     C 4738   4.013   4.072  11.565  0.6000  0.0246 -0.1221
   36MOL0     C 4739   4.073   3.943  11.625  1.0553 -0.4221 -0.2318
   36MOL0     C 4740   3.992   3.816  11.589  0.8867 -0.1539 -1.5514
   36MOL0     C 4741   4.007   3.692  11.672 -0.1446  0.4662  0.4237
   36MOL0     N 4742   4.132   3.618  11.643 -0.4116  0.0196 -0.3050
   36MOL0     C 4743   4.130   3.486  11.622 -1.0920  0.1169  0.2079
   36MOL0     C 4744   4.263   3.454  11.629 -0.9569 -1.2025  1.1011
   36MOL0     C 4745   4.321   3.320  11.592 -0.5905 -0.0775 -0.0412
   36MOL0     C 4746   4.287   3.202  11.680  0.1018 -0.1033  0.6551
   36MOL0     C 4747   4.226   3.083  11.602  0.2985  0.0435  0.8394
   36MOL0     C 4748   4.221   2.959  11.698  0.5454  0.2314 -1.0196
   36MOL0     O 4749   4.079   2.933  11.740 -0.2887  1.0484  0.0412
   36MOL0     C 4750   4.031   3.031  11.820  0.0462 -0.0013 -0.4836
   36MOL0     C 4751   3.932   3.106  11.773 -0.1196 -0.5876  0.4046
   36MOL0     C 4752   3.884   3.211  11.846 -1.6498 -0.0219 -0.3788
   36MOL0     C 4753   3.776   3.297  11.786  0.3132  0.2639  1.1299
   36MOL0     C 4754   3.925   3.246  11.969  0.1753 -0.7635  0.6703
   36MOL0     C 4755   3.876   3.367  12.046 -0.4498  0.2387  0.1647
   36MOL0     O 4756   3.911   3.476  11.989  0.4916 -1.1118 -0.0654
   36MOL0     C 4757   3.902   3.598  12.057  0.5111 -0.3723 -0.1254
   36MOL0     C 4758   4.001   3.704  12.034  0.3735  0.5314  0.1631
   36MOL0     C 4759   3.981   3.834  12.082 -0.3293  0.0123 -0.8033
   36MOL0     C 4760   3.868   3.861  12.165 -0.1436  0.7594  0.3714
   36MOL0     O 4761   3.849   3.978  12.231 -0.0580 -0.1384  0.8114
   36MOL0     C 4762   3.846   3.972  12.368  0.6917 -0.3920 -0.0756
   36MOL0     C 4763   3.714   4.019  12.415 -0.0459  0.0072  2.3336
   36MOL0     C 4764   3.726   4.020  12.569  0.0695 -0.4125 -0.0884
   36MOL0     C 4765   3.594   4.059  12.629  0.1164  0.4945  0.2465
   36MOL0     C 4766   3.602   4.047  12.780  1.2204  0.3417 -0.3495
   36MOL0     C 4767   3.473   4.112  12.829 -0.3609  0.9751  0.4709
   36MOL0     C 4768   3.444   4.078  12.977 -0.7873  0.7849 -0.1954
   36MOL0     C 4769   3.333   4.152  13.049 -0.0137 -0.8516  0.1261
   36MOL0    Cl 4770   3.183   4.162  12.950  0.5446 -0.4261 -0.5764
   36MOL0     C 4771   3.766   3.770  12.161 -0.0423  0.6440 -0.5892
   36MOL0     C 4772   3.773   3.640  12.110  0.3417  0.1377 -0.9465
   36MOL0     O 4773   3.824   3.360  12.158 -0.2040  0.3199 -0.7776
   36MOL0     C 4774   4.025   3.165  12.023  0.2495  0.4866  0.6166
   36MOL0     C 4775   4.083   3.062  11.946 -0.0262 -0.6485  0.3069
   36MOL0     N 4776   4.340   3.560  11.647  0.0011  0.8539 -0.6093
   36MOL0     N 4777   4.263   3.660  11.662  0.0823  0.0151  0.3810
   36MOL0     C 4778   4.363   4.630  11.205  0.1204 -0.4100 -0.7375
   36MOL0     C 4779   4.425   4.601  11.090 -0.4423  0.8475 -0.4171
   36MOL0     C 4780   4.564   4.500  10.690 -0.3595  0.1472 -0.0172
   36MOL0     C 4781   4.610   4.366  10.705  0.2759  0.5338  0.3576
   36MOL0     C 4782   4.680   4.304  10.606  0.1414 -0.2906  0.5641
   36MOL0     C 4783   4.725   4.372  10.488 -0.8738 -0.3295 -0.3065
   36MOL0     O 4784   4.800   4.318  10.384  0.6891 -0.1694 -0.6080
   36MOL0     C 4785   4.874   4.198  10.393  0.4276 -0.3790  0.5292
   36MOL0     C 4786   4.972   4.192  10.502  0.4629  0.6432 -0.0642
   36MOL0     C 4787   5.063   4.080  10.465 -0.4323  0.5414 -0.2491
   36MOL0     C 4788   5.151   4.033  10.582  0.4270 -0.7788 -0.0751
   36MOL0     C 4789   5.256   3.946  10.543 -0.3607 -0.0734 -0.0427
   36MOL0     C 4790   5.336   3.869  10.491  0.2698  0.0729 -0.4481
   36MOL0     C 4791   4.679   4.508  10.474  0.2713  0.9250 -0.2438
   36MOL0     C 4792   4.602   4.573  10.574 -0.8329 -0.6267  0.4544
   36MOL0     H 4793   4.160   4.439  10.934 -0.1342 -1.5225  0.0345
   36MOL0     H 4794   4.053   4.479  11.155 -0.1606  2.0707  2.7129
   36MOL0     H 4795   4.032   4.581  11.500  1.6263 -0.0857  1.5863
   36MOL0     H 4796   3.998   4.509  11.353 -0.0028  0.1366  0.4127
   36MOL0     H 4797   4.204   4.375  11.368 -1.4880 -1.8648 -0.5424
   36MOL0     H 4798   4.215   4.430  11.537  1.2612  1.5344 -0.6459
   36MOL0     H 4799   3.961   4.312  11.514  0.7727 -0.5199  1.8874
   36MOL0     H 4800   4.036   4.250  11.371  0.6567 -0.4656 -0.5968
   36MOL0     H 4801   4.210   4.134  11.507 -0.4317 -0.2885 -1.5962
   36MOL0     H 4802   4.153   4.217  11.655 -1.1570  2.7586 -0.3293
   36MOL0     H 4803   3.929   4.105  11.626 -1.8388 -1.6635 -2.3474
   36MOL0     H 4804   3.975   4.058  11.463 -4.2941 -1.4900  1.6246
   36MOL0     H 4805   4.172   3.925  11.582  1.3858  0.3296  0.1916
   36MOL0     H 4806   4.084   3.963  11.732  1.9202  1.2650 -0.6013
   36MOL0     H 4807   3.890   3.853  11.590  1.0648  0.5067  1.7073
   36MOL0     H 4808   4.003   3.793  11.482 -2.8484 -0.4327 -1.9881
   36MOL0     H 4809   3.923   3.623  11.656 -1.7452  2.5904 -0.9845
   36MOL0     H 4810   4.018   3.715  11.778  2.7965 -1.6458  0.6893
   36MOL0     H 4811   4.046   3.419  11.609 -1.3888  0.2496  1.3532
   36MOL0     H 4812   4.288   3.288  11.493  0.9078  1.4394 -1.0761
   36MOL0     H 4813   4.430   3.320  11.596 -0.1010 -0.1343 -5.6457
   36MOL0     H 4814   4.216   3.226  11.760 -1.7112 -1.4913 -0.4411
   36MOL0     H 4815   4.374   3.161  11.732  1.0037  0.7490 -0.1588
   36MOL0     H 4816   4.291   3.066  11.516 -1.2435  1.5001 -0.7102
   36MOL0     H 4817   4.130   3.114  11.558 -1.4294 -1.4718  3.2954
   36MOL0     H 4818   4.287   2.980  11.782 -0.6104  0.2781 -0.0922
   36MOL0     H 4819   4.268   2.881  11.638 -0.2961  1.7242 -3.7781
   36MOL0     H 4820   3.897   3.093  11.671  1.2287  0.7146 -0.2673
   36MOL0     H 4821   3.809   3.388  11.734 -0.6163 -0.8211 -1.5188
   36MOL0     H 4822   3.722   3.238  11.712  2.2119 -1.6252  1.1599
   36MOL0     H 4823   3.700   3.325  11.859  2.6652  4.0916  2.4170
   36MOL0     H 4824   4.083   3.686  11.965 -1.3664 -0.1855 -1.8206
   36MOL0     H 4825   4.040   3.925  12.083 -0.3003 -0.0087 -0.0632
   36MOL0     H 4826   3.882   3.875  12.405 -2.1194 -1.6601 -0.4337
   36MOL0     H 4827   3.923   4.038  12.410  0.0231 -0.1236  0.7483
   36MOL0     H 4828   3.683   4.114  12.371 -1.7142 -0.6506  2.0116
   36MOL0     H 4829   3.631   3.956  12.381 -0.4883  0.5740  2.3558
   36MOL0     H 4830   3.809   4.073  12.616  0.7808 -0.0403 -1.7165
   36MOL0     H 4831   3.741   3.919  12.608 -0.2008 -0.1234  0.8116
   36MOL0     H 4832   3.575   4.162  12.600 -0.7611  0.1736 -0.3607
   36MOL0     H 4833   3.514   3.994  12.592 -0.6502 -0.4746  3.3084
   36MOL0     H 4834   3.692   4.091  12.822  0.7886 -0.8717  2.0357
   36MOL0     H 4835   3.597   3.940  12.804 -3.1065  0.7918  1.7481
   36MOL0     H 4836   3.479   4.220  12.810  4.0708  0.7067 -0.7810
   36MOL0     H 4837   3.385   4.078  12.773 -1.5073  0.9486  2.2318
   36MOL0     H 4838   3.529   4.089  13.044 -1.1067  0.7222  0.2205
   36MOL0     H 4839   3.421   3.971  12.981 -1.6670  0.9844  0.6632
   36MOL0     H 4840   3.367   4.255  13.061  2.1045 -0.5806 -5.4710
   36MOL0     H 4841   3.309   4.111  13.147  1.9286  2.1098  1.9992
   36MOL0     H 4842   3.671   3.805  12.202 -0.1575 -1.4310  1.1196
   36MOL0     H 4843   3.691   3.572  12.130  1.8758 -0.9305  2.5937
   36MOL0     H 4844   4.053   3.188  12.125 -0.1025 -2.7273  1.5627
   36MOL0     H 4845   4.156   3.000  11.995  3.1068  1.6570 -1.1190
   36MOL0     H 4846   4.419   4.668  11.290  0.4788 -3.2191  0.4149
   36MOL0     H 4847   4.531   4.614  11.073  0.4814 -2.5785  1.5399
   36MOL0     H 4848   4.598   4.309  10.796  0.1842 -0.7315 -0.4286
   36MOL0     H 4849   4.708   4.200  10.619  0.8680  0.0776  2.2147
   36MOL0     H 4850   4.808   4.111  10.388 -1.3034  0.9452 -3.9014
   36MOL0     H 4851   4.920   4.184  10.295 -1.0045  1.1689 -0.4036
   36MOL0     H 4852   4.924   4.179  10.600 -3.3342 -3.5512 -2.1028
   36MOL0     H 4853   5.021   4.289  10.490  1.3177  0.4439  1.5423
   36MOL0     H 4854   5.128   4.116  10.384 -0.3343 -2.1744 -1.5115
   36MOL0     H 4855   5.016   3.986  10.432  2.0432 -0.7698 -0.2962
   36MOL0     H 4856   5.096   3.977  10.658 -1.6420 -0.8667 -1.5566
   36MOL0     H 4857   5.192   4.127  10.621 -1.8052 -0.0169  0.6007
   36MOL0     H 4858   5.394   3.783  10.464  0.5359 -0.5555  1.8510
   36MOL0     H 4859   4.689   4.556  10.377 -1.5501 -2.6869 -2.4617
   36MOL0     H 4860   4.569   4.674  10.555 -0.2038 -0.9485 -3.2259
   37MOL0     O 4861   4.413   5.284   0.411 -0.1804  0.0140 -0.0623
   37MOL0     C 4862   4.470   5.182   0.443  0.1529  0.6800  0.0749
   37MOL0     O 4863   4.525   5.095   0.357  0.2596 -0.1984 -0.2697
   37MOL0     C 4864   4.469   5.079   0.233  0.4479  0.2568  0.4325
   37MOL0     C 4865   4.548   5.019   0.137  0.1272  0.5108  0.5019
   37MOL0     C 4866   4.498   4.988   0.008 -0.6387  0.0847  0.9195
   37MOL0     C 4867   4.361   5.008  -0.026 -0.2946  0.3721 -0.4683
   37MOL0     O 4868   4.318   4.949  -0.147  0.8441 -0.3290  0.3896
   37MOL0     C 4869   4.198   5.011  -0.215 -0.1692  0.4440  0.1916
   37MOL0     C 4870   4.222   5.136  -0.294 -0.8144 -1.0010 -0.4131
   37MOL0     C 4871   4.313   5.102  -0.420  0.2358 -0.9646  0.2368
   37MOL0     C 4872   4.248   5.168  -0.538  0.2072  0.6388  0.3700
   37MOL0     C 4873   4.301   5.105  -0.668  0.8396  0.5375  0.1064
   37MOL0     C 4874   4.438   5.149  -0.700  0.0011 -0.1862  0.7530
   37MOL0     C 4875   4.455   5.158  -0.854  0.2340 -0.4742  0.4596
   37MOL0     C 4876   4.603   5.169  -0.895 -0.4874 -0.3411  0.9295
   37MOL0     N 4877   4.672   5.274  -0.818  0.0663  0.0221  0.0191
   37MOL0     C 4878   4.783   5.252  -0.732 -0.4763 -0.4393 -1.0998
   37MOL0     C 4879   4.833   5.373  -0.694  0.2863 -0.3913 -0.2301
   37MOL0     C 4880   4.937   5.381  -0.585  0.4987  0.7354 -0.9275
   37MOL0     C 4881   5.043   5.487  -0.610  0.3301 -0.9722 -0.0153
   37MOL0     C 4882   5.147   5.503  -0.495 -0.1915 -0.2037  0.4230
   37MOL0     C 4883   5.171   5.656  -0.466  0.0656  0.0631 -0.2881
   37MOL0     O 4884   5.255   5.719  -0.563  0.8362  1.0312 -0.1508
   37MOL0     C 4885   5.243   5.856  -0.568  1.4116  1.1350  0.0715
   37MOL0     C 4886   5.175   5.945  -0.488 -0.3939 -0.7927  0.2687
   37MOL0     C 4887   5.173   6.081  -0.523 -1.0319  0.0545 -0.6308
   37MOL0     C 4888   5.109   6.165  -0.416  0.1858 -0.3320  0.2235
   37MOL0     C 4889   5.238   6.128  -0.644  0.1390 -0.2508  0.3354
   37MOL0     C 4890   5.237   6.270  -0.700 -0.6842 -0.0941 -0.1844
   37MOL0     O 4891   5.249   6.282  -0.834  0.1971 -0.1390  0.2501
   37MOL0     C 4892   5.167   6.366  -0.897 -0.8423 -0.6486  0.3194
   37MOL0     C 4893   5.044   6.311  -0.932 -0.0288 -0.3578  0.4114
   37MOL0     C 4894   4.951   6.401  -0.982  0.5546 -0.2488  0.3496
   37MOL0     C 4895   4.982   6.534  -1.011  0.3048  1.0564  0.3781
   37MOL0     O 4896   4.885   6.609  -1.076  0.3555  1.2919 -0.2345
   37MOL0     C 4897   4.906   6.752  -1.099  0.0350 -0.0515  0.3647
   37MOL0     C 4898   4.776   6.815  -1.147  0.2444  0.3545 -0.3184
   37MOL0     C 4899   4.677   6.817  -1.028  0.0362  1.5039  0.2779
   37MOL0     C 4900   4.540   6.888  -1.052 -1.2135  0.1537 -0.8116
   37MOL0     C 4901   4.448   6.918  -0.924 -0.1249  0.0158 -0.2920
   37MOL0     C 4902   4.518   6.982  -0.808 -0.7329  0.8255 -0.3582
   37MOL0     C 4903   4.598   6.878  -0.726  0.3151  0.4789  0.8311
   37MOL0     C 4904   4.545   6.837  -0.594  0.5148  0.3607  0.4540
   37MOL0    Cl 4905   4.541   6.973  -0.477  0.3761 -0.0295 -0.0360
   37MOL0     C 4906   5.111   6.585  -0.975  1.3040 -0.1277  1.1731
   37MOL0     C 4907   5.198   6.502  -0.915  0.3025  0.5255  1.5023
   37MOL0     O 4908   5.193   6.357  -0.634 -0.6178  0.3489 -0.2777
   37MOL0     C 4909   5.310   6.036  -0.716 -0.3164  0.1178  1.1751
   37MOL0     C 4910   5.313   5.897  -0.684 -0.3774 -0.7701  0.5086
   37MOL0     N 4911   4.760   5.461  -0.775  0.0094  0.3514 -0.0211
   37MOL0     N 4912   4.670   5.401  -0.855 -0.4437 -0.2187 -0.4233
   37MOL0     C 4913   4.277   5.064   0.076 -1.5414  0.5570 -0.0277
   37MOL0     C 4914   4.331   5.098   0.200  0.4247 -0.6910 -0.3865
   37MOL0     C 4915   4.478   5.140   0.578 -0.8091 -0.9547 -0.0747
   37MOL0     C 4916   4.510   5.003   0.608  0.2154 -0.8584  0.0684
   37MOL0     C 4917   4.526   4.970   0.744 -0.2722 -0.1289  0.3896
   37MOL0     C 4918   4.532   5.063   0.845  0.2911  0.1935  0.4510
   37MOL0     O 4919   4.576   5.032   0.968  0.5209  0.3316 -0.0629
   37MOL0     C 4920   4.595   5.124   1.068  0.5231 -0.6585  0.1977
   37MOL0     C 4921   4.649   5.062   1.195 -0.8481 -0.6786  1.4083
   37MOL0     C 4922   4.666   5.170   1.302 -0.1807  0.6002 -0.4734
   37MOL0     C 4923   4.729   5.141   1.437  0.1265  0.2247 -0.2607
   37MOL0     C 4924   4.645   5.071   1.535 -0.0488  0.2821  0.1838
   37MOL0     C 4925   4.600   5.011   1.628  0.5543  0.3477  0.5471
   37MOL0     C 4926   4.494   5.191   0.810 -1.0186 -0.3001 -0.4406
   37MOL0     C 4927   4.483   5.235   0.677  0.0383 -0.1504 -1.0182
   37MOL0     H 4928   4.652   4.998   0.160  0.6061 -0.9738 -2.5011
   37MOL0     H 4929   4.559   4.952  -0.073 -1.3617  1.6530 -0.3867
   37MOL0     H 4930   4.149   4.933  -0.273 -1.1665  0.7046  0.6665
   37MOL0     H 4931   4.129   5.038  -0.135 -0.5495 -0.2842  0.1235
   37MOL0     H 4932   4.130   5.185  -0.325 -1.0733 -1.8897 -1.0918
   37MOL0     H 4933   4.277   5.208  -0.232  0.2352  0.5264 -2.9458
   37MOL0     H 4934   4.410   5.154  -0.414 -1.0173  1.8035 -1.5382
   37MOL0     H 4935   4.330   4.994  -0.427 -2.6321 -1.6562  2.4374
   37MOL0     H 4936   4.140   5.155  -0.533 -0.0409  2.7250  1.7773
   37MOL0     H 4937   4.258   5.276  -0.552 -0.0947  0.5163 -0.8104
   37MOL0     H 4938   4.278   4.998  -0.671  2.3042  0.1650  1.1346
   37MOL0     H 4939   4.223   5.147  -0.733 -1.5717 -2.2063  0.9786
   37MOL0     H 4940   4.476   5.248  -0.672  3.3046 -1.1575  0.2415
   37MOL0     H 4941   4.506   5.077  -0.654  1.4210 -0.0627 -1.0471
   37MOL0     H 4942   4.412   5.067  -0.896  0.0412  0.1633 -0.7981
   37MOL0     H 4943   4.395   5.244  -0.886 -1.5660 -1.5868  0.7345
   37MOL0     H 4944   4.597   5.195  -1.001  1.6511  0.0892  0.8584
   37MOL0     H 4945   4.658   5.076  -0.880 -0.9771 -0.9086 -0.6602
   37MOL0     H 4946   4.818   5.160  -0.685 -2.6639 -0.2464  1.1040
   37MOL0     H 4947   4.888   5.380  -0.487  0.8176  0.0556 -0.7723
   37MOL0     H 4948   4.991   5.286  -0.583 -1.6450 -0.5645 -1.0663
   37MOL0     H 4949   4.995   5.584  -0.629 -2.3222 -2.3487 -0.7816
   37MOL0     H 4950   5.095   5.470  -0.704  0.6786  1.1948 -0.2830
   37MOL0     H 4951   5.243   5.457  -0.519  0.6912  0.4193  2.4622
   37MOL0     H 4952   5.099   5.458  -0.407  0.3967  1.5782  1.7094
   37MOL0     H 4953   5.217   5.672  -0.369  2.6019  3.1961 -1.8075
   37MOL0     H 4954   5.074   5.703  -0.487 -1.1932 -2.3716 -0.3902
   37MOL0     H 4955   5.142   5.914  -0.390 -1.4678 -1.1474 -0.1910
   37MOL0     H 4956   5.105   6.116  -0.319  1.4958  0.2844  0.6195
   37MOL0     H 4957   5.163   6.260  -0.404 -1.8692  1.1387 -1.4916
   37MOL0     H 4958   5.008   6.181  -0.453  1.1784  1.8336 -1.8460
   37MOL0     H 4959   5.028   6.205  -0.915  3.8596 -1.4337 -1.6008
   37MOL0     H 4960   4.853   6.361  -1.007  0.3898 -0.7640  1.7004
   37MOL0     H 4961   4.929   6.793  -1.001  0.3887  0.3013  0.1391
   37MOL0     H 4962   4.990   6.761  -1.169  0.5755 -1.6359  0.7593
   37MOL0     H 4963   4.797   6.921  -1.163  1.1976  0.6269  2.2893
   37MOL0     H 4964   4.730   6.778  -1.239  0.1367  0.4218 -0.2916
   37MOL0     H 4965   4.725   6.884  -0.956  1.0323  1.0024  0.0845
   37MOL0     H 4966   4.666   6.713  -0.995 -0.7981  1.6118  0.3733
   37MOL0     H 4967   4.560   6.985  -1.099  0.1215 -0.4125 -1.4842
   37MOL0     H 4968   4.483   6.823  -1.118  0.4477 -1.7446 -0.4975
   37MOL0     H 4969   4.396   6.830  -0.883  1.3014 -0.1477  1.2707
   37MOL0     H 4970   4.370   6.993  -0.938 -0.3976 -0.0737  0.6834
   37MOL0     H 4971   4.570   7.073  -0.839  3.6445 -2.1377 -2.6272
   37MOL0     H 4972   4.438   7.025  -0.746  0.5089  1.4361  0.8723
   37MOL0     H 4973   4.704   6.903  -0.720  1.1226 -2.5389  0.9178
   37MOL0     H 4974   4.588   6.780  -0.775 -2.0903 -0.0880  2.2767
   37MOL0     H 4975   4.606   6.751  -0.565  0.7858 -0.9997 -3.5288
   37MOL0     H 4976   4.440   6.810  -0.611  0.5033  0.6005  0.1408
   37MOL0     H 4977   5.128   6.692  -0.979 -1.3991  0.3470  0.3493
   37MOL0     H 4978   5.299   6.535  -0.891  1.3957  0.5775 -2.4758
   37MOL0     H 4979   5.365   6.075  -0.801  0.1068 -4.0821 -0.7661
   37MOL0     H 4980   5.372   5.822  -0.735  0.8559 -1.2212  2.5305
   37MOL0     H 4981   4.170   5.067   0.058 -1.4185  1.2099 -0.6831
   37MOL0     H 4982   4.266   5.142   0.275 -1.0051  0.8080 -2.3686
   37MOL0     H 4983   4.509   4.931   0.526  4.1788 -2.1485  0.9270
   37MOL0     H 4984   4.541   4.866   0.769 -1.5929 -0.3067  0.5211
   37MOL0     H 4985   4.660   5.203   1.027 -0.8990  0.5515  0.2037
   37MOL0     H 4986   4.509   5.185   1.095  1.0614 -0.0604  0.6046
   37MOL0     H 4987   4.744   5.009   1.183 -0.9396 -1.2259  2.8870
   37MOL0     H 4988   4.570   4.993   1.227  0.8854 -3.2684  0.3830
   37MOL0     H 4989   4.569   5.219   1.313 -1.5832 -2.1654  0.5398
   37MOL0     H 4990   4.722   5.255   1.261 -1.5939  1.6963 -0.1929
   37MOL0     H 4991   4.771   5.229   1.486 -0.4223 -0.6156  1.8641
   37MOL0     H 4992   4.815   5.074   1.431  0.7316  1.1429 -2.8753
   37MOL0     H 4993   4.564   4.964   1.718 -0.9532 -1.7254 -1.0265
   37MOL0     H 4994   4.491   5.268   0.887 -0.7397  0.7354 -1.4383
   37MOL0     H 4995   4.485   5.340   0.647  0.8916 -0.1270 -0.9237
   38MOL0     O 4996   5.807  11.201   2.456  0.0182 -0.1657  0.1516
   38MOL0     C 4997   5.690  11.200   2.493  0.6265  0.4217  0.5867
   38MOL0     O 4998   5.652  11.123   2.599 -0.4779  0.3492 -0.3617
   38MOL0     C 4999   5.732  11.020   2.663 -1.2500  0.0548 -0.2155
   38MOL0     C 5000   5.843  10.957   2.601  0.4413  0.6271  0.0747
   38MOL0     C 5001   5.895  10.843   2.663 -0.3040 -0.7067  1.0846
   38MOL0     C 5002   5.844  10.795   2.785 -0.8391 -1.3222 -1.5635
   38MOL0     O 5003   5.874  10.673   2.845  0.1192 -0.1194  0.1089
   38MOL0     C 5004   5.931  10.573   2.751  0.0767 -0.7709  0.3297
   38MOL0     C 5005   5.966  10.437   2.817 -0.5160  0.3641  0.1904
   38MOL0     C 5006   5.857  10.402   2.910 -0.1818  0.2631 -1.1313
   38MOL0     C 5007   5.886  10.275   2.994  0.0919 -0.2421 -1.1023
   38MOL0     C 5008   5.769  10.239   3.090 -0.4391 -0.6634 -0.0270
   38MOL0     C 5009   5.832  10.116   3.168  0.1907  0.1598  0.7447
   38MOL0     C 5010   5.711  10.026   3.190 -0.1057  0.7346  0.0379
   38MOL0     C 5011   5.763   9.910   3.277 -0.1154  1.0994  0.1001
   38MOL0     N 5012   5.667   9.796   3.295  0.0626  0.5523  0.1560
   38MOL0     C 5013   5.639   9.739   3.413  0.4200 -0.4000  0.4036
   38MOL0     C 5014   5.560   9.635   3.390  0.1396  0.2564 -0.2286
   38MOL0     C 5015   5.523   9.535   3.494 -0.5369  0.1550 -0.1848
   38MOL0     C 5016   5.608   9.413   3.486 -0.9442 -0.1273  0.5011
   38MOL0     C 5017   5.542   9.297   3.558  0.3201 -0.2574 -0.4410
   38MOL0     C 5018   5.622   9.166   3.522 -0.8117 -0.2490  0.6144
   38MOL0     O 5019   5.564   9.052   3.587  0.4241 -0.4704  0.4989
   38MOL0     C 5020   5.489   8.969   3.506  1.5241 -0.0035 -1.4291
   38MOL0     C 5021   5.399   8.895   3.590  0.7924 -0.2639 -0.4594
   38MOL0     C 5022   5.286   8.822   3.535 -0.8599  0.5305  0.2472
   38MOL0     C 5023   5.187   8.760   3.636 -0.4790  0.6619 -0.3398
   38MOL0     C 5024   5.288   8.798   3.399  0.0939 -0.4834  0.6114
   38MOL0     C 5025   5.195   8.708   3.325 -0.4312  0.3468 -0.0989
   38MOL0     O 5026   5.154   8.605   3.398  0.6813 -0.0048  0.2963
   38MOL0     C 5027   5.072   8.509   3.334 -0.5310  0.1443 -0.6961
   38MOL0     C 5028   5.108   8.448   3.213  0.5188  0.2727 -0.5474
   38MOL0     C 5029   5.032   8.345   3.160  0.5129 -0.5684  0.1999
   38MOL0     C 5030   4.897   8.311   3.222 -1.2287 -0.2828  0.3208
   38MOL0     O 5031   4.811   8.224   3.150  0.3465 -0.5049 -0.1319
   38MOL0     C 5032   4.697   8.171   3.214 -0.6205  0.5785 -0.5374
   38MOL0     C 5033   4.646   8.071   3.104  0.6877 -0.5943  0.0898
   38MOL0     C 5034   4.615   8.137   2.966  0.0712  0.4673  0.0499
   38MOL0     C 5035   4.662   8.048   2.859 -0.0733  0.5210 -1.3507
   38MOL0     C 5036   4.577   7.923   2.850  0.5090  1.2288  0.6494
   38MOL0     C 5037   4.591   7.835   2.726  0.1422 -0.0477  0.1224
   38MOL0     C 5038   4.735   7.780   2.697  0.6132  0.4277 -0.6093
   38MOL0     C 5039   4.787   7.691   2.816  0.4674  0.0915 -0.3778
   38MOL0    Cl 5040   4.688   7.550   2.865 -0.1877 -0.0702  0.2267
   38MOL0     C 5041   4.868   8.376   3.346 -0.1352 -0.0629 -0.6128
   38MOL0     C 5042   4.957   8.471   3.402 -0.6993  0.5985 -0.8757
   38MOL0     O 5043   5.178   8.721   3.204  0.5630  0.1270 -0.1324
   38MOL0     C 5044   5.383   8.868   3.320 -0.7994  0.8580 -0.1959
   38MOL0     C 5045   5.477   8.959   3.368  0.6046  0.1716 -0.4225
   38MOL0     N 5046   5.546   9.629   3.253  0.0224 -0.5396  0.9650
   38MOL0     N 5047   5.616   9.723   3.201 -0.4519 -0.1331 -0.1039
   38MOL0     C 5048   5.750  10.868   2.855  0.8014  0.6792  0.2190
   38MOL0     C 5049   5.694  10.977   2.793  0.3184 -0.1770 -0.2585
   38MOL0     C 5050   5.589  11.280   2.418 -1.2889 -0.0978  0.4174
   38MOL0     C 5051   5.452  11.266   2.432 -0.5745  0.4335  0.2018
   38MOL0     C 5052   5.359  11.343   2.350 -0.2044  0.3518  0.1366
   38MOL0     C 5053   5.401  11.433   2.254  0.1894 -0.0753  0.6144
   38MOL0     O 5054   5.301  11.512   2.196  0.0608  0.4401  0.7438
   38MOL0     C 5055   5.338  11.638   2.167  1.3115  0.5217  0.9329
   38MOL0     C 5056   5.217  11.715   2.183  0.1971  0.2109  0.1226
   38MOL0     C 5057   5.229  11.865   2.223  0.1399 -0.3556 -0.4840
   38MOL0     C 5058   5.089  11.932   2.241 -0.2271  0.1932 -0.4631
   38MOL0     C 5059   5.107  12.077   2.257 -0.3159  0.5272 -0.0304
   38MOL0     C 5060   5.141  12.187   2.274  0.2695  0.0550 -0.5410
   38MOL0     C 5061   5.542  11.450   2.251  0.6291 -0.2147  0.9490
   38MOL0     C 5062   5.628  11.381   2.329 -0.5950 -0.5142 -0.1231
   38MOL0     H 5063   5.895  10.990   2.512  2.1345 -3.9173 -0.8981
   38MOL0     H 5064   5.967  10.788   2.603 -1.4431 -0.6303 -0.4242
   38MOL0     H 5065   5.858  10.558   2.671  0.8458  3.2147 -1.3350
   38MOL0     H 5066   6.025  10.618   2.717 -0.3653  1.3345  1.7049
   38MOL0     H 5067   5.973  10.364   2.737 -1.7433  0.6136 -0.1751
   38MOL0     H 5068   6.066  10.439   2.860  0.0241 -1.6159 -0.8855
   38MOL0     H 5069   5.848  10.484   2.982  0.9785  0.5534 -1.2973
   38MOL0     H 5070   5.759  10.397   2.862 -1.3496 -1.7078  1.2132
   38MOL0     H 5071   5.914  10.197   2.923 -2.0672  1.7770 -4.4559
   38MOL0     H 5072   5.977  10.297   3.050  0.9557  2.0793 -3.2467
   38MOL0     H 5073   5.747  10.326   3.154 -1.4784 -0.0073 -1.2271
   38MOL0     H 5074   5.679  10.208   3.037  0.4398 -2.6017 -0.4829
   38MOL0     H 5075   5.891  10.060   3.094 -2.2308  1.1120 -2.0914
   38MOL0     H 5076   5.885  10.149   3.258  2.3993  1.1710 -0.8180
   38MOL0     H 5077   5.617  10.070   3.225 -0.5579 -1.1100  1.2745
   38MOL0     H 5078   5.688   9.985   3.091 -0.5779 -2.4288  1.3417
   38MOL0     H 5079   5.794   9.948   3.375 -0.1226  0.1537  0.4844
   38MOL0     H 5080   5.853   9.868   3.231 -1.6553 -2.5085  0.0201
   38MOL0     H 5081   5.683   9.762   3.510  2.3455 -0.9589 -0.2837
   38MOL0     H 5082   5.528   9.577   3.595  3.3173  0.1761 -0.2261
   38MOL0     H 5083   5.418   9.507   3.484 -1.4143  1.7047  3.1928
   38MOL0     H 5084   5.705   9.426   3.537 -0.2230 -1.1611 -0.5668
   38MOL0     H 5085   5.622   9.392   3.380  0.0785 -1.0080  0.7948
   38MOL0     H 5086   5.437   9.299   3.526  0.4797  2.3048 -1.0168
   38MOL0     H 5087   5.536   9.308   3.667 -1.9915  1.7888 -0.6851
   38MOL0     H 5088   5.727   9.171   3.553 -0.6795 -1.9399  0.5817
   38MOL0     H 5089   5.615   9.154   3.413 -1.9911  1.1037  0.5291
   38MOL0     H 5090   5.401   8.907   3.698  2.2512  0.4388 -0.5403
   38MOL0     H 5091   5.197   8.793   3.740  1.6299 -2.1751  0.4677
   38MOL0     H 5092   5.081   8.769   3.610 -0.8689  2.4406  1.6210
   38MOL0     H 5093   5.214   8.655   3.624 -0.1078  0.4651  1.8752
   38MOL0     H 5094   5.197   8.488   3.164  0.5612  2.5976  1.2584
   38MOL0     H 5095   5.056   8.289   3.070  0.5654 -1.4234  0.7356
   38MOL0     H 5096   4.715   8.112   3.304 -2.4585 -0.3632 -0.7597
   38MOL0     H 5097   4.619   8.246   3.231  0.9112  2.3335 -0.8952
   38MOL0     H 5098   4.724   7.995   3.091  2.6800  1.4473 -0.6901
   38MOL0     H 5099   4.552   8.025   3.132 -0.9783  1.7199 -1.2770
   38MOL0     H 5100   4.669   8.228   2.938 -1.2388  1.2740  0.0735
   38MOL0     H 5101   4.508   8.158   2.957  0.2499  0.9149 -1.4386
   38MOL0     H 5102   4.650   8.103   2.765  0.8212  1.6448 -0.8168
   38MOL0     H 5103   4.765   8.013   2.866 -1.3395 -3.9843 -1.8646
   38MOL0     H 5104   4.474   7.955   2.870  0.8188  0.2704  4.7494
   38MOL0     H 5105   4.602   7.853   2.930  2.8734 -1.2986 -2.0709
   38MOL0     H 5106   4.516   7.757   2.738 -1.9465  2.0341  1.4081
   38MOL0     H 5107   4.560   7.887   2.635  0.4431  1.4727  0.8469
   38MOL0     H 5108   4.799   7.867   2.677  2.8041 -1.2015 -1.0321
   38MOL0     H 5109   4.736   7.718   2.607 -2.0722  0.2123 -0.5678
   38MOL0     H 5110   4.797   7.760   2.901  1.7163 -1.4414  0.7561
   38MOL0     H 5111   4.892   7.667   2.800  0.1816 -2.7752  1.3216
   38MOL0     H 5112   4.773   8.365   3.397 -1.2170 -1.1853 -2.6945
   38MOL0     H 5113   4.925   8.518   3.494  0.9642  0.3523 -0.1553
   38MOL0     H 5114   5.380   8.859   3.212 -2.8955 -0.0784 -0.1057
   38MOL0     H 5115   5.545   9.003   3.297 -0.4525  2.3456 -0.1676
   38MOL0     H 5116   5.723  10.837   2.955 -1.8414 -0.8566 -0.8470
   38MOL0     H 5117   5.616  11.030   2.846 -0.8597 -1.9964 -0.1129
   38MOL0     H 5118   5.401  11.189   2.489 -0.8885  0.9552  0.6355
   38MOL0     H 5119   5.253  11.321   2.357 -0.6286  2.4080  1.3161
   38MOL0     H 5120   5.420  11.685   2.221  1.5998  3.2767 -1.6182
   38MOL0     H 5121   5.383  11.640   2.067  1.8787 -1.1825  1.1200
   38MOL0     H 5122   5.145  11.669   2.252  1.0356 -1.7971 -0.2713
   38MOL0     H 5123   5.158  11.705   2.091 -2.3779 -3.0318  1.8901
   38MOL0     H 5124   5.284  11.927   2.152 -0.8943 -0.5719 -1.5080
   38MOL0     H 5125   5.290  11.874   2.313  0.1928  2.6918 -0.7308
   38MOL0     H 5126   5.046  11.880   2.328 -1.3764  1.2249 -0.3908
   38MOL0     H 5127   5.024  11.912   2.156 -3.7146 -2.8689  2.5099
   38MOL0     H 5128   5.173  12.288   2.294 -2.4506  0.8753 -0.0205
   38MOL0     H 5129   5.578  11.516   2.172  0.3963 -1.8405 -0.5927
   38MOL0     H 5130   5.735  11.399   2.324 -0.6432  1.8314  3.6004
   39MOL0     O 5131   2.079   8.057  10.182  0.0335 -0.7125 -0.8409
   39MOL0     C 5132   1.963   8.089  10.169  0.3177 -0.1770 -0.8219
   39MOL0     O 5133   1.917   8.220  10.169  0.6814 -0.2045  0.6643
   39MOL0     C 5134   2.017   8.317  10.164 -0.3821  0.1643  0.2493
   39MOL0     C 5135   2.038   8.397  10.278 -1.7127 -0.5653 -0.6532
   39MOL0     C 5136   2.140   8.502  10.265 -0.1985  0.1726 -0.5739
   39MOL0     C 5137   2.209   8.528  10.146 -0.2237  0.7216  0.6627
   39MOL0     O 5138   2.300   8.628  10.131 -0.3590 -0.2638  0.4477
   39MOL0     C 5139   2.271   8.729  10.034  0.3265 -0.9339  0.9578
   39MOL0     C 5140   2.395   8.788   9.976 -0.3183 -0.0554 -0.2122
   39MOL0     C 5141   2.384   8.847   9.836 -0.1366  0.3920 -0.5138
   39MOL0     C 5142   2.436   8.725   9.746 -0.2757 -0.0601  0.8058
   39MOL0     C 5143   2.596   8.696   9.748  1.4690 -0.1495 -0.1440
   39MOL0     C 5144   2.684   8.827   9.696  0.2861 -0.4985 -0.4540
   39MOL0     C 5145   2.832   8.792   9.718 -0.3370  0.5580  0.1953
   39MOL0     C 5146   2.909   8.777   9.579 -0.3727  0.4210  0.0678
   39MOL0     N 5147   2.859   8.662   9.509 -0.5381  0.3345  0.6832
   39MOL0     C 5148   2.862   8.534   9.558 -0.6988 -1.0184  0.7815
   39MOL0     C 5149   2.790   8.464   9.466 -0.1642 -0.3206  0.0371
   39MOL0     C 5150   2.737   8.321   9.467 -0.2800 -0.5306 -0.6237
   39MOL0     C 5151   2.819   8.239   9.575  0.6522 -0.0942  0.2264
   39MOL0     C 5152   2.755   8.093   9.599 -0.2695 -0.3555  0.0334
   39MOL0     C 5153   2.827   8.034   9.716  0.0201 -0.2359  0.4155
   39MOL0     O 5154   2.749   7.926   9.766  0.5523 -0.7580  0.4682
   39MOL0     C 5155   2.786   7.796   9.737 -0.0661  0.1462  0.4463
   39MOL0     C 5156   2.850   7.743   9.624  0.4061 -0.0131  0.3575
   39MOL0     C 5157   2.863   7.600   9.605  0.0983 -0.6000  0.0518
   39MOL0     C 5158   2.925   7.550   9.480  0.3149 -0.6364  0.7668
   39MOL0     C 5159   2.816   7.508   9.710  0.0771 -0.3958  0.6303
   39MOL0     C 5160   2.843   7.364   9.703  0.3773  0.6525 -0.5515
   39MOL0     O 5161   2.754   7.286   9.780  0.1256  0.3438  0.5674
   39MOL0     C 5162   2.800   7.171   9.836 -1.0445 -0.8136 -0.1350
   39MOL0     C 5163   2.818   7.050   9.770 -0.6667 -0.4247 -0.1646
   39MOL0     C 5164   2.853   6.928   9.843  0.2114  0.5233  0.4121
   39MOL0     C 5165   2.870   6.936   9.984  0.8668 -1.2745  0.5825
   39MOL0     O 5166   2.902   6.833  10.065  0.2902  0.5748 -0.1807
   39MOL0     C 5167   2.978   6.730  10.003 -1.6298  0.3207  0.5711
   39MOL0     C 5168   3.071   6.655  10.103 -0.0202  0.3679 -0.7453
   39MOL0     C 5169   3.006   6.605  10.228 -0.8446  0.0154  0.3530
   39MOL0     C 5170   3.071   6.484  10.305  0.6265  1.6066 -0.4483
   39MOL0     C 5171   2.998   6.441  10.440  0.0604  0.2064  0.1296
   39MOL0     C 5172   2.842   6.435  10.428 -1.2988  0.1643  0.0748
   39MOL0     C 5173   2.780   6.433  10.566  0.7234  0.6940 -1.1057
   39MOL0     C 5174   2.654   6.338  10.569 -0.3084 -0.7204  0.3459
   39MOL0    Cl 5175   2.728   6.173  10.576  0.0416  0.5986 -0.0108
   39MOL0     C 5176   2.849   7.062  10.043 -0.1323  0.1388 -0.1571
   39MOL0     C 5177   2.818   7.183   9.972  0.0523  0.8169  0.5799
   39MOL0     O 5178   2.945   7.324   9.651  0.3868 -0.0047 -0.0038
   39MOL0     C 5179   2.756   7.562   9.822 -0.1536 -0.2571 -0.6384
   39MOL0     C 5180   2.743   7.705   9.828  0.4870  0.1941 -0.8108
   39MOL0     N 5181   2.748   8.550   9.364  0.0400 -0.2232 -1.0241
   39MOL0     N 5182   2.785   8.669   9.399 -0.5359  0.1097  0.7881
   39MOL0     C 5183   2.175   8.448  10.038 -0.8679  0.7248 -0.3649
   39MOL0     C 5184   2.081   8.352  10.047 -0.0028  0.5267  0.0340
   39MOL0     C 5185   1.871   7.978  10.165  0.0500 -0.7952 -0.2982
   39MOL0     C 5186   1.738   8.001  10.147  0.6522 -0.0527  0.1766
   39MOL0     C 5187   1.638   7.894  10.144  0.1009  0.6539 -0.5186
   39MOL0     C 5188   1.678   7.764  10.155 -0.0579 -0.1941  0.0708
   39MOL0     O 5189   1.601   7.651  10.159  0.0451 -0.2855 -0.1845
   39MOL0     C 5190   1.462   7.668  10.202 -0.8551 -0.0328 -0.1312
   39MOL0     C 5191   1.407   7.540  10.263  0.6875 -0.3266  0.2035
   39MOL0     C 5192   1.477   7.486  10.390  0.4160  0.4415 -0.9145
   39MOL0     C 5193   1.382   7.392  10.465 -0.1423 -0.1077  0.2824
   39MOL0     C 5194   1.348   7.283  10.375 -0.6523 -0.2921 -0.1620
   39MOL0     C 5195   1.309   7.182  10.318 -0.5424  0.3687  1.2591
   39MOL0     C 5196   1.813   7.736  10.149  0.1456 -0.0492 -0.6645
   39MOL0     C 5197   1.915   7.841  10.155  0.7593 -1.2581  0.8467
   39MOL0     H 5198   2.002   8.380  10.379  1.5628  1.5668  1.0243
   39MOL0     H 5199   2.172   8.571  10.343 -2.7924  1.8615 -0.9050
   39MOL0     H 5200   2.232   8.677   9.945  1.3049  0.4748 -0.3422
   39MOL0     H 5201   2.205   8.807  10.073  2.5809  0.7528  1.5800
   39MOL0     H 5202   2.423   8.875  10.037 -1.4592  0.3752 -0.2787
   39MOL0     H 5203   2.473   8.711   9.981 -0.1423  0.0918 -0.7095
   39MOL0     H 5204   2.284   8.883   9.809 -0.7710 -2.0946 -1.7668
   39MOL0     H 5205   2.458   8.928   9.834  2.0275 -1.5158 -1.7247
   39MOL0     H 5206   2.385   8.628   9.742 -2.3955  0.7093 -6.6061
   39MOL0     H 5207   2.419   8.771   9.648  0.8035  3.2371  2.0259
   39MOL0     H 5208   2.633   8.660   9.844  2.0139  3.0171  0.9431
   39MOL0     H 5209   2.612   8.619   9.672  0.5467  0.9001 -1.4469
   39MOL0     H 5210   2.662   8.853   9.592  1.2379 -0.6371 -0.6932
   39MOL0     H 5211   2.647   8.914   9.751 -0.9981 -0.6285 -1.0746
   39MOL0     H 5212   2.890   8.865   9.776  1.6815 -2.8794  2.8831
   39MOL0     H 5213   2.836   8.701   9.779 -5.2433  0.5252  0.8945
   39MOL0     H 5214   3.017   8.784   9.592  0.4218  5.0656 -5.1790
   39MOL0     H 5215   2.884   8.871   9.529  1.3438  2.0306  2.0294
   39MOL0     H 5216   2.919   8.499   9.644  2.8570 -0.0868 -1.0354
   39MOL0     H 5217   2.629   8.321   9.485 -0.2793  1.4653 -0.4021
   39MOL0     H 5218   2.755   8.272   9.371  0.9852 -0.1800 -0.5968
   39MOL0     H 5219   2.810   8.287   9.673  2.3434  1.7372 -0.4380
   39MOL0     H 5220   2.925   8.224   9.551  1.3674  2.1170  1.6813
   39MOL0     H 5221   2.768   8.033   9.508  0.8709  1.6820 -1.2051
   39MOL0     H 5222   2.646   8.101   9.612 -0.2635  0.6836 -0.4860
   39MOL0     H 5223   2.837   8.112   9.793  1.4892 -0.1431  0.1536
   39MOL0     H 5224   2.928   8.000   9.690  0.4844 -0.6635  2.5315
   39MOL0     H 5225   2.890   7.807   9.546  1.4414 -0.7781  0.2412
   39MOL0     H 5226   3.033   7.531   9.485  0.6802  1.1909  0.5830
   39MOL0     H 5227   2.878   7.460   9.441 -1.0117 -0.2662  1.4485
   39MOL0     H 5228   2.902   7.633   9.412  1.5600 -1.1133 -0.2693
   39MOL0     H 5229   2.776   7.044   9.670 -3.8656 -3.3738  1.1456
   39MOL0     H 5230   2.862   6.835   9.788  3.2545  2.4003 -2.6182
   39MOL0     H 5231   2.910   6.658   9.957 -1.5043  0.9040 -0.5691
   39MOL0     H 5232   3.047   6.758   9.922 -2.5767 -0.8212 -0.6923
   39MOL0     H 5233   3.116   6.573  10.046 -0.0714 -1.2636  1.4523
   39MOL0     H 5234   3.143   6.727  10.142 -0.1702  0.8312 -1.2998
   39MOL0     H 5235   2.906   6.575  10.195 -0.4480 -1.0018  0.0495
   39MOL0     H 5236   2.993   6.687  10.299 -0.9546 -1.0686  1.6333
   39MOL0     H 5237   3.064   6.396  10.239 -3.1667  2.6754 -1.7408
   39MOL0     H 5238   3.174   6.505  10.336  0.0695  0.2961  2.6663
   39MOL0     H 5239   3.023   6.508  10.523  1.9868  0.0952 -0.3152
   39MOL0     H 5240   3.029   6.339  10.464  1.4084  0.2119 -1.3601
   39MOL0     H 5241   2.793   6.514  10.370 -2.9055 -1.3006 -0.6448
   39MOL0     H 5242   2.818   6.346  10.370  2.3268  0.4096 -2.0970
   39MOL0     H 5243   2.760   6.537  10.596  2.0021  0.0655  2.3881
   39MOL0     H 5244   2.852   6.389  10.636  0.1204 -0.0414 -0.9290
   39MOL0     H 5245   2.585   6.361  10.487  0.3310  1.3835  0.3239
   39MOL0     H 5246   2.615   6.357  10.669  0.4900  0.2633  0.4804
   39MOL0     H 5247   2.859   7.064  10.151  4.6562  1.9264 -0.4414
   39MOL0     H 5248   2.785   7.268  10.031 -2.6324  1.5225 -1.7222
   39MOL0     H 5249   2.723   7.499   9.903 -2.6682  1.1637 -0.4367
   39MOL0     H 5250   2.689   7.754   9.908  0.4452 -0.6722 -0.3009
   39MOL0     H 5251   2.244   8.458   9.955 -0.2135  1.8366  0.2932
   39MOL0     H 5252   2.045   8.316   9.952 -1.1575  2.8157 -0.4850
   39MOL0     H 5253   1.700   8.102  10.132 -0.1850 -0.5601 -1.3572
   39MOL0     H 5254   1.534   7.921  10.129  1.0464  2.5821 -5.6119
   39MOL0     H 5255   1.447   7.727  10.293 -0.1146  2.2827 -1.4335
   39MOL0     H 5256   1.403   7.729  10.134  2.2623  1.2799 -1.8294
   39MOL0     H 5257   1.418   7.468  10.181  1.5288  0.7404 -0.6676
   39MOL0     H 5258   1.302   7.561  10.283  1.0797 -0.0817  2.2154
   39MOL0     H 5259   1.513   7.568  10.453  1.1872  1.6776 -2.8517
   39MOL0     H 5260   1.568   7.440  10.352 -0.3578  1.5592 -4.4822
   39MOL0     H 5261   1.294   7.446  10.499  1.2047  1.3224  1.7012
   39MOL0     H 5262   1.439   7.361  10.553 -3.0288 -0.7010  2.0748
   39MOL0     H 5263   1.266   7.109  10.252  0.2919  0.6690  0.3697
   39MOL0     H 5264   1.850   7.635  10.166  0.2670  0.2636  1.1263
   39MOL0     H 5265   2.021   7.822  10.163  0.7318 -1.1910  1.3880
   40MOL0     O 5266   3.435   3.327   8.683  0.7466 -0.1374 -0.4403
   40MOL0     C 5267   3.372   3.295   8.779 -0.0272  0.2323  0.2910
   40MOL0     O 5268   3.297   3.175   8.789 -0.0829 -0.5089  0.0905
   40MOL0     C 5269   3.304   3.083   8.690 -0.0009 -0.1411 -0.8785
   40MOL0     C 5270   3.190   3.044   8.618 -0.5409  0.2869  0.0889
   40MOL0     C 5271   3.212   2.937   8.523  0.6403 -0.6800  0.9836
   40MOL0     C 5272   3.338   2.881   8.498  0.4416 -0.7336  0.8698
   40MOL0     O 5273   3.339   2.788   8.399  0.5535 -0.0922  0.1812
   40MOL0     C 5274   3.454   2.697   8.385 -1.2491 -0.5173 -0.1840
   40MOL0     C 5275   3.426   2.549   8.343 -1.2084  0.9363  1.0150
   40MOL0     C 5276   3.369   2.555   8.197  0.8806  1.2903 -0.4646
   40MOL0     C 5277   3.362   2.421   8.136  0.8043 -0.5564 -0.1957
   40MOL0     C 5278   3.238   2.334   8.158 -0.3353  0.5176 -0.5767
   40MOL0     C 5279   3.257   2.182   8.110  0.2999 -0.2973  0.3979
   40MOL0     C 5280   3.189   2.074   8.194 -0.4005 -0.1860  0.2139
   40MOL0     C 5281   3.030   2.085   8.179  0.4037 -0.4836  0.5845
   40MOL0     N 5282   2.992   2.063   8.044  0.4228 -0.0767  0.7008
   40MOL0     C 5283   2.990   2.147   7.930  0.0029 -0.5830 -0.1141
   40MOL0     C 5284   2.982   2.065   7.825  0.4508  0.2143 -0.1698
   40MOL0     C 5285   2.970   2.096   7.683 -0.1597  0.0771  0.7338
   40MOL0     C 5286   3.086   2.184   7.639 -1.3123 -0.3234 -0.8040
   40MOL0     C 5287   3.098   2.209   7.498 -1.1615  0.1752  0.6755
   40MOL0     C 5288   3.238   2.238   7.448  0.1263 -0.2776 -1.3699
   40MOL0     O 5289   3.270   2.380   7.475 -0.4059  0.6073 -0.3265
   40MOL0     C 5290   3.247   2.464   7.364 -0.0833  0.6905 -0.0172
   40MOL0     C 5291   3.151   2.565   7.360 -0.3476 -0.5868 -0.1337
   40MOL0     C 5292   3.139   2.651   7.250  0.1349  0.9395  0.3560
   40MOL0     C 5293   3.025   2.760   7.253 -0.9786 -0.6674  0.7023
   40MOL0     C 5294   3.231   2.637   7.137 -0.1182 -0.6340  0.2353
   40MOL0     C 5295   3.241   2.726   7.014 -0.3867 -0.2664 -1.3272
   40MOL0     O 5296   3.338   2.685   6.915  0.3696  0.4947  0.2098
   40MOL0     C 5297   3.347   2.755   6.797 -0.9056 -0.6512  1.0150
   40MOL0     C 5298   3.242   2.822   6.730 -0.2963  0.4055  0.0109
   40MOL0     C 5299   3.256   2.881   6.605 -0.9646  0.7664  0.0996
   40MOL0     C 5300   3.378   2.875   6.537 -0.8610 -0.0485 -0.7545
   40MOL0     O 5301   3.394   2.939   6.413 -0.4302 -0.5124 -0.4310
   40MOL0     C 5302   3.293   3.020   6.359  0.7194  0.8954 -0.3113
   40MOL0     C 5303   3.352   3.084   6.247  0.5368 -0.5773  0.2929
   40MOL0     C 5304   3.263   3.191   6.185 -0.3052 -0.0571  0.3964
   40MOL0     C 5305   3.357   3.304   6.136  0.3049  0.3252  0.3478
   40MOL0     C 5306   3.258   3.421   6.094  0.2777  0.7533 -0.3837
   40MOL0     C 5307   3.320   3.524   6.006  0.0699  0.0440 -0.2155
   40MOL0     C 5308   3.229   3.557   5.881 -0.0974  0.6963 -0.2809
   40MOL0     C 5309   3.290   3.664   5.799 -0.7349  0.0010 -0.1304
   40MOL0    Cl 5310   3.195   3.690   5.649  0.1173  0.4958  0.1163
   40MOL0     C 5311   3.488   2.820   6.607 -1.0071  1.0415 -0.3352
   40MOL0     C 5312   3.465   2.757   6.735 -0.5352 -0.0150  1.0861
   40MOL0     O 5313   3.187   2.840   7.010 -0.2901 -0.4821  0.0714
   40MOL0     C 5314   3.329   2.529   7.145  0.8785 -0.2615 -0.3038
   40MOL0     C 5315   3.338   2.449   7.255  0.0754  0.3918 -0.8752
   40MOL0     N 5316   2.976   1.929   7.867  0.1968 -1.1036  0.0535
   40MOL0     N 5317   2.971   1.936   7.995  1.1182 -0.1393  0.1891
   40MOL0     C 5318   3.445   2.933   8.561  0.4382  0.8184  0.1545
   40MOL0     C 5319   3.427   3.024   8.664  1.0185 -0.1048  0.3596
   40MOL0     C 5320   3.353   3.398   8.887 -0.3187 -0.1931 -1.2065
   40MOL0     C 5321   3.281   3.360   8.999  0.3312 -0.1321 -0.7078
   40MOL0     C 5322   3.256   3.449   9.089  1.3334 -0.4440  0.1465
   40MOL0     C 5323   3.306   3.583   9.091  0.2017 -0.4288 -0.3244
   40MOL0     O 5324   3.267   3.657   9.203  0.2437 -0.3665  1.0220
   40MOL0     C 5325   3.378   3.686   9.304 -0.0420  0.3384 -0.5866
   40MOL0     C 5326   3.388   3.562   9.399 -0.1530  0.1395  0.8068
   40MOL0     C 5327   3.250   3.541   9.478 -0.2971 -0.2980  0.5326
   40MOL0     C 5328   3.233   3.408   9.553  0.1316  1.0676 -0.5820
   40MOL0     C 5329   3.339   3.379   9.644  0.0457  0.0938 -0.1177
   40MOL0     C 5330   3.435   3.326   9.691 -0.7720  0.3681 -1.2264
   40MOL0     C 5331   3.386   3.626   8.986  0.1333  0.9973 -0.4235
   40MOL0     C 5332   3.404   3.532   8.876 -0.1404 -0.1721 -0.0182
   40MOL0     H 5333   3.096   3.090   8.648 -1.4315 -2.2086  1.4654
   40MOL0     H 5334   3.126   2.903   8.466  1.0210  1.4475 -1.0549
   40MOL0     H 5335   3.539   2.724   8.323 -0.4056  2.2118  1.9389
   40MOL0     H 5336   3.495   2.682   8.485  0.6901  0.5604 -0.7654
   40MOL0     H 5337   3.518   2.490   8.338 -1.8747 -0.4025  3.1730
   40MOL0     H 5338   3.367   2.493   8.417 -1.2549  3.0195  2.6243
   40MOL0     H 5339   3.271   2.599   8.215  1.6425  2.4981  0.9815
   40MOL0     H 5340   3.426   2.622   8.131 -1.2085  1.6396 -1.9889
   40MOL0     H 5341   3.377   2.439   8.029  2.9225  1.7490  0.3919
   40MOL0     H 5342   3.449   2.365   8.172  1.7441  0.6167 -0.5910
   40MOL0     H 5343   3.212   2.342   8.264 -3.1488 -1.0837 -1.0532
   40MOL0     H 5344   3.161   2.364   8.087 -0.5716 -2.6997 -1.8511
   40MOL0     H 5345   3.227   2.168   8.006  2.9248 -0.8119 -0.3560
   40MOL0     H 5346   3.364   2.161   8.109  0.0541 -1.6082 -0.3158
   40MOL0     H 5347   3.219   1.973   8.162  0.3584 -0.1697  0.8265
   40MOL0     H 5348   3.211   2.091   8.300  2.4668  0.1487 -0.3409
   40MOL0     H 5349   3.000   2.188   8.201  2.9889  0.3431  0.6573
   40MOL0     H 5350   2.968   2.019   8.239 -1.4598 -1.2268 -2.0064
   40MOL0     H 5351   3.003   2.255   7.924  1.5101 -0.6359  1.5263
   40MOL0     H 5352   2.966   2.007   7.618  0.3648  2.3155 -2.6251
   40MOL0     H 5353   2.877   2.153   7.677 -0.6073 -0.7739 -1.7826
   40MOL0     H 5354   3.182   2.153   7.680 -2.0536 -0.4937  0.8604
   40MOL0     H 5355   3.079   2.283   7.685  1.7486 -1.1574  1.7741
   40MOL0     H 5356   3.035   2.296   7.476  0.0983  0.7774 -0.7598
   40MOL0     H 5357   3.073   2.115   7.447  3.6847 -0.8341 -0.3774
   40MOL0     H 5358   3.239   2.212   7.341 -2.9816 -3.7475 -0.7881
   40MOL0     H 5359   3.301   2.160   7.492  0.4407  0.3552 -0.6910
   40MOL0     H 5360   3.086   2.588   7.444 -2.0965 -1.9631 -1.0543
   40MOL0     H 5361   3.004   2.806   7.349  0.8507  0.9548  0.3876
   40MOL0     H 5362   3.041   2.845   7.186 -1.8221 -0.9197  0.1593
   40MOL0     H 5363   2.928   2.719   7.222  0.1162 -1.5640 -1.8353
   40MOL0     H 5364   3.143   2.831   6.772 -1.6108  0.0157 -2.7567
   40MOL0     H 5365   3.165   2.914   6.556  0.6485  0.2003 -3.6265
   40MOL0     H 5366   3.203   2.964   6.333  0.1528  1.3985  0.5132
   40MOL0     H 5367   3.257   3.099   6.425  0.0644  1.5663 -1.4308
   40MOL0     H 5368   3.445   3.130   6.280  0.7076 -0.4199 -0.3982
   40MOL0     H 5369   3.362   3.008   6.169 -1.6323  0.7057 -1.3711
   40MOL0     H 5370   3.196   3.218   6.267  0.0225 -2.1081  1.4243
   40MOL0     H 5371   3.194   3.151   6.109  0.5513 -0.8998  0.0409
   40MOL0     H 5372   3.430   3.345   6.206  1.2530  1.0498 -1.0032
   40MOL0     H 5373   3.411   3.274   6.045  0.2141 -0.0036  0.4028
   40MOL0     H 5374   3.237   3.485   6.180 -3.7903  3.3151 -2.9382
   40MOL0     H 5375   3.163   3.388   6.052 -0.4019 -0.0893  1.6605
   40MOL0     H 5376   3.348   3.611   6.067  1.0805 -0.3663 -0.0856
   40MOL0     H 5377   3.418   3.488   5.972 -0.3341  0.7826 -2.3122
   40MOL0     H 5378   3.129   3.588   5.912  1.0082  1.0970  3.2148
   40MOL0     H 5379   3.224   3.463   5.825 -2.6904 -0.3756  1.5680
   40MOL0     H 5380   3.390   3.627   5.779 -0.8954 -0.8413  0.5835
   40MOL0     H 5381   3.297   3.753   5.863  1.4994  0.0406 -0.3472
   40MOL0     H 5382   3.587   2.818   6.562 -0.5749  1.1673  0.6045
   40MOL0     H 5383   3.539   2.696   6.786  0.6708  0.9880  0.6068
   40MOL0     H 5384   3.403   2.510   7.068 -1.4121 -0.8773 -2.4841
   40MOL0     H 5385   3.420   2.377   7.248  0.0376  0.4651 -2.7571
   40MOL0     H 5386   3.550   2.912   8.539  0.1435  1.2609 -1.9310
   40MOL0     H 5387   3.514   3.060   8.717  1.7490 -0.9758 -0.2156
   40MOL0     H 5388   3.239   3.259   9.003 -0.6050  0.2632  0.0100
   40MOL0     H 5389   3.182   3.420   9.163  0.3389  0.1318 -0.5885
   40MOL0     H 5390   3.479   3.701   9.263  0.0261  0.6238 -0.3166
   40MOL0     H 5391   3.360   3.772   9.370 -1.2440 -1.8376  2.1049
   40MOL0     H 5392   3.471   3.580   9.467  1.7335  2.7402 -1.9069
   40MOL0     H 5393   3.392   3.480   9.326 -0.7441  1.0894 -0.3337
   40MOL0     H 5394   3.174   3.562   9.402 -0.1947  1.5742  0.8954
   40MOL0     H 5395   3.243   3.625   9.548  1.8933  1.8443 -1.5815
   40MOL0     H 5396   3.236   3.331   9.474 -0.4300  1.2448 -0.7769
   40MOL0     H 5397   3.137   3.411   9.605  0.5257  1.2311  0.1467
   40MOL0     H 5398   3.505   3.295   9.766 -2.2568  0.7387  0.3791
   40MOL0     H 5399   3.418   3.729   8.996 -1.4450  1.2588  3.4724
   40MOL0     H 5400   3.462   3.562   8.788 -1.8720  0.9785 -0.8211
   41MOL0     O 5401   2.502   2.674   1.449  0.4907  1.0894 -0.3422
   41MOL0     C 5402   2.591   2.680   1.362  0.6740 -0.0686 -0.6275
   41MOL0     O 5403   2.690   2.586   1.333  0.3769  0.3337 -0.1379
   41MOL0     C 5404   2.660   2.461   1.395 -0.1919 -0.0216  0.0822
   41MOL0     C 5405   2.566   2.379   1.339  0.3296  0.3818 -0.8381
   41MOL0     C 5406   2.550   2.246   1.385  0.7532  0.6111  0.0215
   41MOL0     C 5407   2.622   2.211   1.503 -0.1321  0.1193 -0.5184
   41MOL0     O 5408   2.625   2.081   1.549 -0.2577 -0.7698 -0.1008
   41MOL0     C 5409   2.505   2.008   1.533  0.0504 -0.6329  0.1223
   41MOL0     C 5410   2.530   1.866   1.597  0.9234  0.0656  0.9195
   41MOL0     C 5411   2.394   1.802   1.646 -0.5575  0.2320 -0.5673
   41MOL0     C 5412   2.346   1.677   1.566 -0.5485  0.0735 -0.3724
   41MOL0     C 5413   2.292   1.721   1.434 -0.0778  0.8308  1.2250
   41MOL0     C 5414   2.160   1.802   1.436  0.2041 -0.1241  0.0149
   41MOL0     C 5415   2.036   1.726   1.491  0.5690 -0.1255 -0.6246
   41MOL0     C 5416   1.984   1.623   1.391 -0.2399  0.3176  0.6311
   41MOL0     N 5417   1.852   1.572   1.424  0.3653 -0.7977  0.0452
   41MOL0     C 5418   1.812   1.439   1.423 -0.5239 -0.7537  0.4967
   41MOL0     C 5419   1.676   1.453   1.441  0.4324  0.5455 -0.3458
   41MOL0     C 5420   1.603   1.325   1.457 -0.7583  0.2164 -0.1434
   41MOL0     C 5421   1.646   1.246   1.576 -0.6523  0.8386 -0.7310
   41MOL0     C 5422   1.582   1.097   1.573 -0.2520  0.7031 -0.8332
   41MOL0     C 5423   1.619   1.027   1.701  0.7226 -0.0763 -0.5304
   41MOL0     O 5424   1.754   0.986   1.685  0.7413  0.1391 -1.0348
   41MOL0     C 5425   1.789   0.856   1.675 -0.2793 -0.0451 -0.2276
   41MOL0     C 5426   1.896   0.813   1.761  0.4541  0.0682  0.7192
   41MOL0     C 5427   1.954   0.687   1.755  0.1920 -0.6536 -0.2536
   41MOL0     C 5428   2.073   0.672   1.836  0.4333 -0.1724 -0.3183
   41MOL0     C 5429   1.906   0.600   1.654 -0.4244 -0.4686  0.5485
   41MOL0     C 5430   1.955   0.460   1.642 -0.4588 -0.0396  0.2892
   41MOL0     O 5431   1.869   0.367   1.600  0.2435 -0.5896  0.2082
   41MOL0     C 5432   1.909   0.232   1.604  0.3983 -0.0123  0.3155
   41MOL0     C 5433   1.851   0.149   1.497  0.4061 -1.0377 -0.5998
   41MOL0     C 5434   1.876   0.015   1.479  0.1161  0.0343  0.9866
   41MOL0     C 5435   1.956  -0.049   1.567 -0.0001 -0.8679 -0.3545
   41MOL0     O 5436   1.975  -0.178   1.533 -0.2003  0.4924 -0.3171
   41MOL0     C 5437   2.064  -0.253   1.610 -1.7940  0.0192 -0.4280
   41MOL0     C 5438   2.071  -0.402   1.585  0.2279  0.6815  0.4349
   41MOL0     C 5439   1.934  -0.463   1.595  0.1086 -0.3935 -0.4714
   41MOL0     C 5440   1.899  -0.466   1.737 -0.0077  0.0332 -0.6842
   41MOL0     C 5441   1.760  -0.536   1.753 -0.1682 -0.4561  0.3280
   41MOL0     C 5442   1.644  -0.457   1.699  0.5139  0.0520  0.1093
   41MOL0     C 5443   1.630  -0.323   1.775  0.5091 -0.9271  0.0781
   41MOL0     C 5444   1.596  -0.340   1.928 -0.2520 -0.4381  0.7143
   41MOL0    Cl 5445   1.446  -0.426   1.936  0.0876  0.2084 -0.3952
   41MOL0     C 5446   2.004   0.020   1.679 -0.0829 -0.0199  0.6131
   41MOL0     C 5447   1.981   0.161   1.697  0.5039 -0.4275 -0.7830
   41MOL0     O 5448   2.078   0.432   1.655  0.3909 -0.0682 -0.7125
   41MOL0     C 5449   1.799   0.641   1.575  0.1402  0.4040 -0.3444
   41MOL0     C 5450   1.746   0.765   1.579  0.4171  0.3745 -0.0333
   41MOL0     N 5451   1.644   1.582   1.479 -0.1815 -0.0435 -0.9024
   41MOL0     N 5452   1.745   1.645   1.456 -0.1724  0.1372  0.1981
   41MOL0     C 5453   2.717   2.295   1.558 -0.3255  0.7968  0.2594
   41MOL0     C 5454   2.741   2.418   1.505  0.8487  0.2204 -0.7528
   41MOL0     C 5455   2.602   2.808   1.286 -0.0724  1.3699  1.2321
   41MOL0     C 5456   2.497   2.898   1.285  0.7945 -0.2566 -0.7621
   41MOL0     C 5457   2.517   3.031   1.221  1.1653 -0.6025  0.3261
   41MOL0     C 5458   2.634   3.061   1.149  0.4174 -0.1904 -0.2532
   41MOL0     O 5459   2.637   3.175   1.072 -0.3824  0.0948  0.0906
   41MOL0     C 5460   2.636   3.143   0.932 -1.4651 -0.3161 -0.0701
   41MOL0     C 5461   2.664   3.269   0.844 -0.0829  0.9806 -0.2641
   41MOL0     C 5462   2.638   3.253   0.692  0.1973  0.0647  0.5925
   41MOL0     C 5463   2.741   3.346   0.613 -0.1171  0.0519  0.0605
   41MOL0     C 5464   2.702   3.481   0.636 -0.3490  0.3103 -0.0632
   41MOL0     C 5465   2.724   3.606   0.665  0.1470  0.2572 -0.0949
   41MOL0     C 5466   2.739   2.968   1.160  1.5613 -0.3610 -0.0266
   41MOL0     C 5467   2.717   2.848   1.214  0.0409  0.8886  0.0319
   41MOL0     H 5468   2.510   2.407   1.249  0.6367 -2.8946 -2.1931
   41MOL0     H 5469   2.500   2.168   1.328  2.2157 -1.2754  1.1760
   41MOL0     H 5470   2.428   2.049   1.599  0.2485 -1.1253  0.6679
   41MOL0     H 5471   2.470   2.000   1.430 -1.0408  4.5494 -0.1523
   41MOL0     H 5472   2.585   1.798   1.532  1.2888  1.8237 -0.7175
   41MOL0     H 5473   2.590   1.880   1.688  2.0907  1.8185 -0.0639
   41MOL0     H 5474   2.417   1.760   1.745 -0.3537  1.5154 -0.0476
   41MOL0     H 5475   2.313   1.875   1.654 -1.5116 -0.6120 -1.9932
   41MOL0     H 5476   2.426   1.607   1.541 -0.5032 -0.0442  0.0948
   41MOL0     H 5477   2.259   1.631   1.615  0.6606 -1.5041  0.4112
   41MOL0     H 5478   2.364   1.784   1.381  1.1015 -1.6201 -0.3068
   41MOL0     H 5479   2.273   1.623   1.389  0.1681  0.6450  1.5217
   41MOL0     H 5480   2.174   1.886   1.504  7.0822 -0.2585 -0.4718
   41MOL0     H 5481   2.134   1.843   1.338  1.3586  0.8010  0.0784
   41MOL0     H 5482   2.064   1.669   1.580 -1.1551  1.0406  0.7358
   41MOL0     H 5483   1.959   1.798   1.520 -0.6706 -2.9880  4.3568
   41MOL0     H 5484   2.041   1.533   1.420 -0.0775  1.1683  3.2543
   41MOL0     H 5485   1.978   1.646   1.285  1.2396 -4.7921 -0.8561
   41MOL0     H 5486   1.873   1.356   1.390  2.6980  1.1454  1.2395
   41MOL0     H 5487   1.495   1.338   1.452 -1.0831 -2.1773 -0.9946
   41MOL0     H 5488   1.629   1.261   1.372 -0.9411 -1.2204  0.8492
   41MOL0     H 5489   1.616   1.302   1.665  2.9499 -0.9162  1.8363
   41MOL0     H 5490   1.755   1.244   1.589 -0.4904  1.5904 -1.8486
   41MOL0     H 5491   1.615   1.035   1.489 -3.5286 -2.3962 -0.0665
   41MOL0     H 5492   1.475   1.103   1.553  0.0513 -1.9166 -4.1592
   41MOL0     H 5493   1.552   0.942   1.717 -0.0406  0.3067 -1.6048
   41MOL0     H 5494   1.611   1.101   1.781 -1.6810 -1.5301  0.6756
   41MOL0     H 5495   1.931   0.888   1.831 -4.1549  0.3527  3.1717
   41MOL0     H 5496   2.148   0.702   1.762 -1.7330  0.5949 -2.2989
   41MOL0     H 5497   2.073   0.737   1.924  1.4122 -1.3202  0.5708
   41MOL0     H 5498   2.074   0.568   1.870  0.3218 -0.1984 -0.3953
   41MOL0     H 5499   1.782   0.203   1.433  4.7662  0.2534 -4.8128
   41MOL0     H 5500   1.826  -0.033   1.396  0.1361  0.0645  0.9569
   41MOL0     H 5501   2.162  -0.209   1.588 -0.7160 -2.2566 -0.3951
   41MOL0     H 5502   2.038  -0.238   1.715 -4.9463 -1.2016 -0.9182
   41MOL0     H 5503   2.105  -0.412   1.481  2.1377 -0.2984  1.1061
   41MOL0     H 5504   2.144  -0.452   1.648 -0.4707 -0.4163  0.4035
   41MOL0     H 5505   1.934  -0.561   1.547 -0.5445  0.9538 -3.4733
   41MOL0     H 5506   1.870  -0.401   1.531  2.7364  0.0905 -2.8860
   41MOL0     H 5507   1.970  -0.531   1.788 -0.1550  0.4309  0.0591
   41MOL0     H 5508   1.903  -0.371   1.792 -0.4518 -1.0910  1.4378
   41MOL0     H 5509   1.752  -0.568   1.858  1.3195 -5.6320 -0.8126
   41MOL0     H 5510   1.763  -0.630   1.697  0.1297 -1.9122  2.6421
   41MOL0     H 5511   1.649  -0.451   1.590 -0.0945 -4.2199 -0.3154
   41MOL0     H 5512   1.555  -0.517   1.716  1.1044 -1.5364 -1.9726
   41MOL0     H 5513   1.548  -0.267   1.728  0.8676  0.3541  0.9472
   41MOL0     H 5514   1.723  -0.269   1.755  0.5423 -1.1956 -0.5478
   41MOL0     H 5515   1.582  -0.247   1.984 -0.5689 -1.5734  2.6263
   41MOL0     H 5516   1.676  -0.395   1.978  0.8661  0.0259 -0.5369
   41MOL0     H 5517   2.060  -0.023   1.762  1.7634  1.6938  0.3096
   41MOL0     H 5518   2.000   0.205   1.794  0.6113 -2.8704  0.3979
   41MOL0     H 5519   1.762   0.584   1.491  2.2482  1.8137 -2.3593
   41MOL0     H 5520   1.675   0.786   1.499 -0.5428  2.0903  1.2116
   41MOL0     H 5521   2.788   2.252   1.628 -0.3092 -2.4769 -1.5655
   41MOL0     H 5522   2.817   2.487   1.541  1.9538 -1.7853  0.9775
   41MOL0     H 5523   2.405   2.876   1.338  0.5459 -0.2883 -1.1993
   41MOL0     H 5524   2.437   3.102   1.205  1.8160 -0.3630 -2.2694
   41MOL0     H 5525   2.707   3.063   0.909 -3.0030 -1.2630 -1.8056
   41MOL0     H 5526   2.538   3.097   0.917 -2.3957  0.6377  2.5995
   41MOL0     H 5527   2.769   3.284   0.870  0.3431 -2.4529  0.4611
   41MOL0     H 5528   2.599   3.350   0.880  0.4357  0.7565  1.2711
   41MOL0     H 5529   2.533   3.259   0.663 -0.5431  0.0720  3.0476
   41MOL0     H 5530   2.662   3.153   0.654 -3.2961  0.7871 -4.6491
   41MOL0     H 5531   2.739   3.323   0.506  2.1794 -1.2522  0.2293
   41MOL0     H 5532   2.846   3.331   0.642  0.2462 -0.5634 -1.5100
   41MOL0     H 5533   2.739   3.708   0.693 -1.8679  0.8756 -1.0455
   41MOL0     H 5534   2.828   2.990   1.102 -0.8004  0.2996 -3.7520
   41MOL0     H 5535   2.795   2.773   1.222 -0.2582  0.7638  2.4900
   42MOL0     O 5536   7.163   4.788   5.073 -0.0485 -0.8970  0.4336
   42MOL0     C 5537   7.146   4.725   4.973 -0.9296  0.0501 -0.6554
   42MOL0     O 5538   7.196   4.592   4.958  0.2786 -0.0250  0.1059
   42MOL0     C 5539   7.324   4.568   5.020  0.1269 -0.1428 -0.0114
   42MOL0     C 5540   7.438   4.540   4.929  0.6521  0.4310 -0.3814
   42MOL0     C 5541   7.565   4.503   4.993 -0.7201  0.6132  0.7549
   42MOL0     C 5542   7.568   4.483   5.128 -0.3009 -0.2140 -0.0220
   42MOL0     O 5543   7.683   4.434   5.204  0.0673  0.1225 -0.1736
   42MOL0     C 5544   7.794   4.365   5.138 -1.1562 -0.0866 -1.3464
   42MOL0     C 5545   7.905   4.370   5.253 -0.0707 -0.6712  0.2201
   42MOL0     C 5546   8.049   4.360   5.198 -0.6854 -0.0506  0.6304
   42MOL0     C 5547   8.121   4.255   5.278  0.0088  1.5703 -0.4003
   42MOL0     C 5548   8.230   4.176   5.196  0.6334 -1.0927  0.5613
   42MOL0     C 5549   8.311   4.067   5.263  0.5978 -0.1319  0.0331
   42MOL0     C 5550   8.413   4.139   5.364 -0.1571 -0.1677  0.7514
   42MOL0     C 5551   8.457   4.036   5.466  0.3363 -0.5728 -0.5381
   42MOL0     N 5552   8.357   3.933   5.503  0.2493  0.3856  0.4147
   42MOL0     C 5553   8.346   3.806   5.460  0.0972  0.2407 -0.3994
   42MOL0     C 5554   8.248   3.751   5.524 -0.8365  0.4533  0.0129
   42MOL0     C 5555   8.183   3.621   5.506  0.2656 -0.2546 -0.3748
   42MOL0     C 5556   8.052   3.606   5.578  0.4997  0.4936 -0.5496
   42MOL0     C 5557   7.935   3.670   5.523 -0.9492 -0.4468 -0.6104
   42MOL0     C 5558   7.906   3.629   5.379  0.1524 -0.2297  0.3668
   42MOL0     O 5559   7.779   3.692   5.341 -0.2277 -0.4340  0.5991
   42MOL0     C 5560   7.686   3.609   5.280 -0.5943  0.3025 -0.0353
   42MOL0     C 5561   7.633   3.497   5.346 -0.4836 -1.1729  0.0068
   42MOL0     C 5562   7.518   3.433   5.297 -0.1080 -0.3708 -0.4188
   42MOL0     C 5563   7.446   3.331   5.395 -0.4185 -0.1910  0.4143
   42MOL0     C 5564   7.458   3.476   5.172 -0.2095 -0.0664  0.1942
   42MOL0     C 5565   7.345   3.406   5.106  0.6652  0.6620 -0.7895
   42MOL0     O 5566   7.323   3.445   4.980 -0.6031  0.3537 -0.5235
   42MOL0     C 5567   7.217   3.404   4.914  0.2849 -0.3078 -0.8518
   42MOL0     C 5568   7.104   3.483   4.901  0.2616  0.5524 -0.7328
   42MOL0     C 5569   6.984   3.423   4.842 -1.1164 -0.3316 -0.3168
   42MOL0     C 5570   6.986   3.288   4.801  0.0332  0.4179  0.0059
   42MOL0     O 5571   6.873   3.235   4.741 -0.3565  0.4730  0.1666
   42MOL0     C 5572   6.887   3.169   4.620 -1.3206 -0.0843  0.6336
   42MOL0     C 5573   6.761   3.154   4.536  0.8593  0.1170  0.4730
   42MOL0     C 5574   6.713   3.282   4.469 -0.1676 -0.7543  0.7819
   42MOL0     C 5575   6.588   3.264   4.374 -0.5303  0.2570  0.0840
   42MOL0     C 5576   6.522   3.401   4.356 -0.3892  0.6434 -0.3775
   42MOL0     C 5577   6.370   3.403   4.331  0.3089 -0.1849 -0.2424
   42MOL0     C 5578   6.303   3.542   4.342  0.7268 -0.1311  0.0216
   42MOL0     C 5579   6.277   3.569   4.486 -0.2626  0.2234  0.2828
   42MOL0    Cl 5580   6.189   3.727   4.500  0.1781  0.1902  0.2309
   42MOL0     C 5581   7.099   3.209   4.818  0.5640 -0.6815 -0.0320
   42MOL0     C 5582   7.214   3.269   4.868  0.6013  0.6959 -0.8012
   42MOL0     O 5583   7.271   3.321   5.168 -0.9642 -0.6809  0.3060
   42MOL0     C 5584   7.513   3.591   5.110 -0.5563 -0.6137 -0.0240
   42MOL0     C 5585   7.623   3.659   5.164 -0.4131 -1.3343  0.5325
   42MOL0     N 5586   8.203   3.845   5.610  1.2380  0.9232  0.1291
   42MOL0     N 5587   8.270   3.951   5.600  0.3406 -0.0921 -0.4554
   42MOL0     C 5588   7.455   4.501   5.208  0.1831  0.6726  0.3722
   42MOL0     C 5589   7.332   4.546   5.163 -0.0978  0.3325  0.1649
   42MOL0     C 5590   7.048   4.774   4.875  0.2639  0.2513 -0.7526
   42MOL0     C 5591   6.974   4.889   4.907 -0.6745 -0.0689 -0.2284
   42MOL0     C 5592   6.888   4.940   4.811  0.3612 -0.3110  0.4702
   42MOL0     C 5593   6.859   4.872   4.690  0.1568 -0.7005 -0.4114
   42MOL0     O 5594   6.777   4.942   4.601 -0.4033  0.1538  0.7403
   42MOL0     C 5595   6.763   4.894   4.477 -0.3128  0.1717 -0.5700
   42MOL0     C 5596   6.663   4.966   4.395  0.2899 -0.4666  1.0156
   42MOL0     C 5597   6.555   4.885   4.312  0.7568 -0.0095 -0.2628
   42MOL0     C 5598   6.435   4.962   4.276  0.9602  0.5852  1.2279
   42MOL0     C 5599   6.321   4.877   4.233 -0.0937  0.1876  0.5275
   42MOL0     C 5600   6.224   4.838   4.174  0.1483 -0.5474  0.4004
   42MOL0     C 5601   6.936   4.760   4.665  0.0940 -0.5407 -0.9726
   42MOL0     C 5602   7.028   4.706   4.757  0.1097 -0.8870 -0.1658
   42MOL0     H 5603   7.426   4.548   4.822  0.8114 -0.5349 -0.4817
   42MOL0     H 5604   7.652   4.484   4.931 -0.1917  2.5339  0.8517
   42MOL0     H 5605   7.773   4.261   5.111  0.0831 -2.0404  3.9337
   42MOL0     H 5606   7.829   4.425   5.053 -0.7131 -0.1292 -1.1968
   42MOL0     H 5607   7.908   4.469   5.299  2.5467 -0.8419  0.5936
   42MOL0     H 5608   7.875   4.286   5.316  1.9553 -1.4212  0.2823
   42MOL0     H 5609   8.024   4.332   5.095 -2.3013 -1.2663  1.3092
   42MOL0     H 5610   8.119   4.444   5.207 -1.6847  1.0899 -1.3265
   42MOL0     H 5611   8.146   4.289   5.378  1.3138 -0.6033  0.0654
   42MOL0     H 5612   8.052   4.172   5.294 -0.1642  0.7546 -4.2355
   42MOL0     H 5613   8.195   4.141   5.098  2.2769  3.1889 -1.8108
   42MOL0     H 5614   8.304   4.247   5.158 -1.8350  1.6094  0.4467
   42MOL0     H 5615   8.240   3.995   5.304 -1.1506 -0.5538 -3.3514
   42MOL0     H 5616   8.365   4.008   5.188  1.1876  2.8924 -2.1234
   42MOL0     H 5617   8.493   4.193   5.312 -0.0701  2.6521  3.5183
   42MOL0     H 5618   8.358   4.217   5.418 -0.0688  1.5057 -1.4412
   42MOL0     H 5619   8.491   4.083   5.559 -0.4155  0.9920 -1.0109
   42MOL0     H 5620   8.549   3.989   5.432  3.3090  2.2538  2.7620
   42MOL0     H 5621   8.423   3.755   5.403  0.3774 -1.1062  1.1014
   42MOL0     H 5622   8.182   3.619   5.397 -2.6002 -0.5324 -0.4255
   42MOL0     H 5623   8.250   3.548   5.553 -0.9179 -1.8651 -1.0793
   42MOL0     H 5624   8.077   3.658   5.671 -1.2730 -2.2143  1.6040
   42MOL0     H 5625   8.019   3.505   5.605  0.0653 -0.1089 -3.0684
   42MOL0     H 5626   7.940   3.777   5.544  0.8133  0.1425 -3.5306
   42MOL0     H 5627   7.849   3.641   5.585  1.4442 -5.0730  1.0280
   42MOL0     H 5628   7.899   3.520   5.377 -1.1125 -0.1514 -0.6142
   42MOL0     H 5629   7.989   3.646   5.310  0.0599 -1.3720 -0.0457
   42MOL0     H 5630   7.679   3.459   5.437 -1.0057 -1.2506  0.2439
   42MOL0     H 5631   7.356   3.378   5.434 -0.6942 -0.9010  0.6455
   42MOL0     H 5632   7.411   3.243   5.341 -1.1387 -0.4180  1.2439
   42MOL0     H 5633   7.513   3.306   5.478  1.4738 -1.6003 -1.4365
   42MOL0     H 5634   7.099   3.584   4.941 -0.5185 -0.4952  2.0134
   42MOL0     H 5635   6.898   3.489   4.831 -0.7692 -0.2753 -3.5113
   42MOL0     H 5636   6.953   3.233   4.561  0.5279 -0.1970  2.4654
   42MOL0     H 5637   6.930   3.071   4.641  0.4758  0.2897 -1.0260
   42MOL0     H 5638   6.766   3.076   4.459 -2.6120  0.8365 -0.6688
   42MOL0     H 5639   6.681   3.104   4.592  0.2015 -2.3684 -2.4020
   42MOL0     H 5640   6.792   3.324   4.405 -1.0978  2.0772  1.3593
   42MOL0     H 5641   6.708   3.364   4.541  1.7871  0.6533 -0.5858
   42MOL0     H 5642   6.610   3.227   4.273  1.3433  2.6594 -0.4743
   42MOL0     H 5643   6.516   3.191   4.412  0.6675 -1.4901 -0.8567
   42MOL0     H 5644   6.566   3.456   4.273  0.8848  3.0726  1.7841
   42MOL0     H 5645   6.527   3.463   4.445 -0.9394  2.3304 -1.4791
   42MOL0     H 5646   6.363   3.356   4.232  3.3645 -0.2644 -0.4994
   42MOL0     H 5647   6.313   3.330   4.390 -0.3728 -1.0319 -1.8771
   42MOL0     H 5648   6.214   3.542   4.278  1.6082  0.6577 -1.2332
   42MOL0     H 5649   6.366   3.622   4.302 -0.4179 -0.1682 -1.9804
   42MOL0     H 5650   6.374   3.580   4.533 -0.0066 -0.5187 -0.0529
   42MOL0     H 5651   6.221   3.489   4.534 -0.2838 -0.1862 -0.4050
   42MOL0     H 5652   7.106   3.103   4.797 -1.6517 -1.3964  2.2648
   42MOL0     H 5653   7.305   3.215   4.889  0.3265  0.9990  1.3613
   42MOL0     H 5654   7.480   3.625   5.012 -0.3417 -1.0967 -0.2624
   42MOL0     H 5655   7.660   3.748   5.114 -0.0620 -0.1853  2.7205
   42MOL0     H 5656   7.470   4.497   5.315 -1.5833 -3.5242  0.6818
   42MOL0     H 5657   7.246   4.568   5.225 -0.1481 -2.4528  1.2319
   42MOL0     H 5658   6.984   4.959   4.989  2.0477  0.5435 -1.0022
   42MOL0     H 5659   6.840   5.037   4.815 -0.8834 -0.9543  1.9740
   42MOL0     H 5660   6.861   4.900   4.428  0.6230 -1.1337  1.0354
   42MOL0     H 5661   6.718   4.795   4.483  0.0306 -0.1840 -2.9252
   42MOL0     H 5662   6.700   5.043   4.326 -1.2199 -1.2577 -0.7745
   42MOL0     H 5663   6.593   5.015   4.463  0.9986 -1.5966  2.6223
   42MOL0     H 5664   6.508   4.807   4.374  3.2675 -0.6620  0.9366
   42MOL0     H 5665   6.596   4.833   4.226 -1.0156 -3.2814  0.7051
   42MOL0     H 5666   6.462   5.030   4.195 -0.7796  1.4699  1.3632
   42MOL0     H 5667   6.404   5.026   4.359 -1.5039  0.0613  0.7791
   42MOL0     H 5668   6.134   4.809   4.124 -1.2839  1.2034  1.8145
   42MOL0     H 5669   6.939   4.711   4.569  0.7285  1.9856 -2.3422
   42MOL0     H 5670   7.088   4.622   4.724  0.0277  0.3513 -3.8991
   43MOL0     O 5671   3.858   9.438  10.896 -0.1294  0.0947 -0.1373
   43MOL0     C 5672   3.857   9.333  10.971 -0.2621 -0.1543  0.1899
   43MOL0     O 5673   3.838   9.326  11.108  0.8336 -0.0168 -0.2437
   43MOL0     C 5674   3.810   9.431  11.193  0.2679 -0.1031 -0.2977
   43MOL0     C 5675   3.837   9.562  11.169  0.2757  0.5154  0.1639
   43MOL0     C 5676   3.803   9.654  11.265  0.3272 -1.0690 -1.1225
   43MOL0     C 5677   3.729   9.622  11.379  0.5676 -0.7242  0.4005
   43MOL0     O 5678   3.679   9.709  11.466 -0.0234  0.4867 -0.3626
   43MOL0     C 5679   3.704   9.851  11.454  0.8356  0.0032  0.0893
   43MOL0     C 5680   3.591   9.929  11.535 -0.0877  0.2725 -0.5406
   43MOL0     C 5681   3.634  10.061  11.585  0.3311  0.6754  0.1800
   43MOL0     C 5682   3.518  10.157  11.612 -0.2694 -0.6019  0.1987
   43MOL0     C 5683   3.550  10.309  11.630 -0.9667 -0.3252 -0.6201
   43MOL0     C 5684   3.635  10.335  11.755 -1.5511 -0.0057 -0.1356
   43MOL0     C 5685   3.618  10.484  11.803 -0.4849  0.1408 -0.9706
   43MOL0     C 5686   3.691  10.600  11.723 -0.1333 -1.0871  0.1017
   43MOL0     N 5687   3.840  10.595  11.746 -0.4830  0.2175  0.0816
   43MOL0     C 5688   3.934  10.569  11.642 -0.1891  0.2195 -0.1747
   43MOL0     C 5689   4.046  10.527  11.708  0.8818 -0.8734 -1.5209
   43MOL0     C 5690   4.165  10.483  11.640 -0.3325 -0.7841  1.3176
   43MOL0     C 5691   4.160  10.350  11.600 -0.1265  0.3811  0.6714
   43MOL0     C 5692   4.081  10.325  11.471 -0.4079  0.9584 -0.2374
   43MOL0     C 5693   4.141  10.194  11.406 -0.4114  0.4138  1.0380
   43MOL0     O 5694   4.112  10.075  11.480  0.0271  0.1956  0.2167
   43MOL0     C 5695   4.144   9.960  11.422 -0.5682  0.1914  0.2027
   43MOL0     C 5696   4.202   9.926  11.294 -0.2611 -0.7498 -0.1325
   43MOL0     C 5697   4.220   9.799  11.247  0.2179  0.0811  0.1737
   43MOL0     C 5698   4.287   9.784  11.105 -0.0751  0.1916 -0.0211
   43MOL0     C 5699   4.197   9.690  11.332  0.5724 -0.4770 -0.9124
   43MOL0     C 5700   4.230   9.557  11.284 -0.3335  1.0610  0.1810
   43MOL0     O 5701   4.159   9.517  11.175  0.2177 -0.5945  0.3063
   43MOL0     C 5702   4.199   9.408  11.104 -0.6739 -0.0301 -0.4093
   43MOL0     C 5703   4.220   9.416  10.968  0.0742 -0.7411  0.2416
   43MOL0     C 5704   4.236   9.297  10.889 -0.0915 -0.9084  1.5665
   43MOL0     C 5705   4.227   9.171  10.944 -0.3270 -0.1329  0.3346
   43MOL0     O 5706   4.211   9.058  10.860 -0.4820  0.1849 -0.1753
   43MOL0     C 5707   4.257   8.922  10.901  0.8421 -0.2564 -0.3707
   43MOL0     C 5708   4.402   8.905  10.850 -0.2076  1.3581 -0.0130
   43MOL0     C 5709   4.510   8.996  10.912  0.9714  0.7163 -0.3616
   43MOL0     C 5710   4.517   8.957  11.059  0.6605 -0.4286  0.0644
   43MOL0     C 5711   4.572   8.824  11.080 -0.6165  0.3208 -1.6791
   43MOL0     C 5712   4.555   8.769  11.222  0.5520  0.1103  0.3518
   43MOL0     C 5713   4.658   8.664  11.271  0.1691  0.1741 -1.3112
   43MOL0     C 5714   4.598   8.602  11.400  0.8170 -0.4784  0.4319
   43MOL0    Cl 5715   4.724   8.525  11.498 -0.2747  0.1971  0.0964
   43MOL0     C 5716   4.200   9.167  11.079  0.3422  0.9620  0.4950
   43MOL0     C 5717   4.181   9.277  11.160  0.4458  0.0748  1.0761
   43MOL0     O 5718   4.298   9.480  11.349  0.4184  0.1322  0.7305
   43MOL0     C 5719   4.139   9.712  11.461 -0.2661  0.1792 -0.2042
   43MOL0     C 5720   4.114   9.847  11.502  1.0199 -0.0719 -0.3872
   43MOL0     N 5721   4.016  10.517  11.838 -0.3395  0.2697 -0.3008
   43MOL0     N 5722   3.899  10.567  11.864  0.4730 -0.1590  0.5677
   43MOL0     C 5723   3.695   9.500  11.405 -0.2568  0.0652  1.1822
   43MOL0     C 5724   3.741   9.399  11.318 -0.1231 -0.1573  0.2507
   43MOL0     C 5725   3.867   9.203  10.894  0.4281  0.6742  0.0627
   43MOL0     C 5726   3.895   9.201  10.756  0.2839  0.5079  0.3129
   43MOL0     C 5727   3.902   9.084  10.676 -0.2986 -0.8728 -0.7328
   43MOL0     C 5728   3.890   8.954  10.753  0.2921 -0.4859  0.7723
   43MOL0     O 5729   3.879   8.836  10.679 -0.3817  0.1912  0.1104
   43MOL0     C 5730   3.963   8.724  10.718  0.6626  0.1420  0.0224
   43MOL0     C 5731   3.934   8.598  10.645 -0.5973  0.1777  1.2183
   43MOL0     C 5732   3.804   8.541  10.688 -0.5711  0.5855  0.4074
   43MOL0     C 5733   3.753   8.431  10.597 -0.2961  0.6077 -0.8932
   43MOL0     C 5734   3.851   8.313  10.604  0.5520 -0.1676  0.6212
   43MOL0     C 5735   3.934   8.226  10.599 -0.4013  0.8758 -0.5108
   43MOL0     C 5736   3.887   8.967  10.898 -0.0184  0.4140 -0.7497
   43MOL0     C 5737   3.866   9.086  10.969  0.0072 -0.1919 -0.9714
   43MOL0     H 5738   3.879   9.599  11.075 -3.2503  1.1968 -1.3087
   43MOL0     H 5739   3.824   9.759  11.247 -2.8345 -0.2237 -0.5276
   43MOL0     H 5740   3.805   9.867  11.493  0.9572  1.4928 -0.7353
   43MOL0     H 5741   3.689   9.887  11.351 -3.7733 -1.0736  0.1593
   43MOL0     H 5742   3.504   9.942  11.471 -0.7660  0.4076  0.3884
   43MOL0     H 5743   3.566   9.855  11.612  1.8196 -2.7205 -2.5683
   43MOL0     H 5744   3.712  10.061  11.662  0.7624  0.9463 -0.2564
   43MOL0     H 5745   3.678  10.109  11.498 -0.2809 -0.9863 -1.1195
   43MOL0     H 5746   3.449  10.143  11.529 -0.0245 -0.5929 -0.0057
   43MOL0     H 5747   3.454  10.131  11.697  0.8912  0.0507  1.3115
   43MOL0     H 5748   3.585  10.370  11.546 -2.9969  1.5049 -0.2227
   43MOL0     H 5749   3.453  10.357  11.648 -0.2312  1.2280 -0.6883
   43MOL0     H 5750   3.592  10.270  11.832 -1.3093 -0.1332 -0.1092
   43MOL0     H 5751   3.737  10.307  11.730 -1.6697 -1.0098  0.4357
   43MOL0     H 5752   3.512  10.512  11.803 -0.7056 -0.0444  3.2556
   43MOL0     H 5753   3.661  10.496  11.903  1.4292 -0.3275 -1.6990
   43MOL0     H 5754   3.646  10.696  11.751 -0.8745 -1.8077  1.4848
   43MOL0     H 5755   3.674  10.603  11.615  3.3234  1.4344 -0.5625
   43MOL0     H 5756   3.938  10.564  11.534  0.6234  2.4051 -0.2922
   43MOL0     H 5757   4.183  10.557  11.562 -0.2706 -2.8301 -0.7180
   43MOL0     H 5758   4.243  10.481  11.716  0.5207  2.9502  0.6967
   43MOL0     H 5759   4.128  10.280  11.678  0.9010 -2.2194 -1.1018
   43MOL0     H 5760   4.264  10.324  11.577 -0.9607 -2.0528 -0.7255
   43MOL0     H 5761   4.087  10.402  11.394  1.5170 -0.5382 -1.6643
   43MOL0     H 5762   3.974  10.306  11.487 -0.0070 -3.6435 -1.8037
   43MOL0     H 5763   4.250  10.192  11.401 -0.4752  0.1196 -0.7854
   43MOL0     H 5764   4.101  10.188  11.304  0.5075  2.8863  0.4633
   43MOL0     H 5765   4.220  10.003  11.219 -1.9950  0.1566  0.3348
   43MOL0     H 5766   4.210   9.789  11.028  0.6622  1.1491 -0.7387
   43MOL0     H 5767   4.368   9.856  11.087  2.0631 -1.9023  0.7611
   43MOL0     H 5768   4.326   9.683  11.094  3.0672  1.1169  1.3815
   43MOL0     H 5769   4.229   9.514  10.920 -1.9723 -1.2910 -1.3868
   43MOL0     H 5770   4.238   9.308  10.781 -0.5188 -1.1408  1.5353
   43MOL0     H 5771   4.239   8.907  11.008 -0.4130  1.3986 -0.3148
   43MOL0     H 5772   4.208   8.844  10.841  0.8682 -1.0610  0.6273
   43MOL0     H 5773   4.427   8.798  10.847 -1.8355  0.9624 -1.6996
   43MOL0     H 5774   4.400   8.926  10.742  2.7795  0.3106 -0.3475
   43MOL0     H 5775   4.484   9.101  10.905 -2.0014 -0.0775 -3.9552
   43MOL0     H 5776   4.608   8.988  10.864  0.6836  1.0339 -1.0112
   43MOL0     H 5777   4.568   9.031  11.122  1.4015 -1.9069  1.2582
   43MOL0     H 5778   4.419   8.977  11.104  1.1471  1.5892  0.3250
   43MOL0     H 5779   4.678   8.822  11.053 -0.9616  3.0741 -3.6276
   43MOL0     H 5780   4.540   8.743  11.013 -1.1381  0.5144 -1.6655
   43MOL0     H 5781   4.571   8.852  11.292  2.3536 -0.3754  0.5411
   43MOL0     H 5782   4.457   8.722  11.235  1.8123 -3.0140 -0.5743
   43MOL0     H 5783   4.754   8.716  11.281  2.5756 -3.6376 -2.3536
   43MOL0     H 5784   4.670   8.574  11.209 -0.7554 -0.9322  0.0594
   43MOL0     H 5785   4.528   8.524  11.368  0.9388  0.0976 -1.3634
   43MOL0     H 5786   4.541   8.677  11.455 -0.6148 -0.5484 -0.8790
   43MOL0     H 5787   4.193   9.076  11.138 -5.0039  0.1487 -0.9039
   43MOL0     H 5788   4.152   9.259  11.263 -0.9772  1.4596  0.9603
   43MOL0     H 5789   4.111   9.628  11.525  1.6499  0.4615  1.1021
   43MOL0     H 5790   4.060   9.873  11.592 -2.0051  1.2216 -2.4277
   43MOL0     H 5791   3.642   9.474  11.496  2.3744 -1.1281  2.5033
   43MOL0     H 5792   3.709   9.299  11.343  0.8334 -0.3995  0.5297
   43MOL0     H 5793   3.923   9.292  10.703  3.2953  1.6086  3.3730
   43MOL0     H 5794   3.903   9.082  10.567  1.2313 -0.3209 -0.7484
   43MOL0     H 5795   4.069   8.743  10.706  0.1413  2.4216 -1.5207
   43MOL0     H 5796   3.941   8.700  10.823 -0.6289 -0.2087 -0.3081
   43MOL0     H 5797   4.009   8.522  10.669 -2.2537 -1.6011  0.9583
   43MOL0     H 5798   3.920   8.617  10.538 -0.6095 -2.8168  0.6102
   43MOL0     H 5799   3.734   8.625  10.680  0.5802  1.4147 -2.5667
   43MOL0     H 5800   3.815   8.509  10.792 -1.4937 -2.3731 -0.3188
   43MOL0     H 5801   3.738   8.468  10.495 -1.2565  2.0492 -0.2566
   43MOL0     H 5802   3.654   8.394  10.624  0.4377 -2.4081 -1.8981
   43MOL0     H 5803   4.009   8.154  10.574 -3.1566 -1.4420 -2.7702
   43MOL0     H 5804   3.884   8.877  10.959 -0.3939 -0.3009 -1.7849
   43MOL0     H 5805   3.850   9.083  11.076 -1.4808 -0.2637 -1.1836
   44MOL0     O 5806   0.880   3.419  10.974  0.5959 -0.2002 -0.7514
   44MOL0     C 5807   0.836   3.533  10.992 -0.5504  1.4059  0.3060
   44MOL0     O 5808   0.756   3.596  10.899 -1.1928  0.3771  0.0833
   44MOL0     C 5809   0.701   3.519  10.791 -0.3218  0.3333  0.3261
   44MOL0     C 5810   0.676   3.594  10.676 -0.1007  0.0147  0.0947
   44MOL0     C 5811   0.609   3.538  10.567  1.3541 -0.5852 -0.0462
   44MOL0     C 5812   0.560   3.401  10.570  1.2792  0.3565 -0.5852
   44MOL0     O 5813   0.482   3.345  10.478  0.2757  0.6477 -0.1346
   44MOL0     C 5814   0.546   3.242  10.403  0.0815 -0.2937 -0.4128
   44MOL0     C 5815   0.446   3.152  10.339 -0.7183 -0.6888 -0.2399
   44MOL0     C 5816   0.402   3.057  10.447 -0.9673 -0.2185 -0.2525
   44MOL0     C 5817   0.295   2.960  10.382 -0.6021 -1.2719  0.3404
   44MOL0     C 5818   0.200   2.889  10.481  0.3432 -0.0099  0.1245
   44MOL0     C 5819   0.278   2.816  10.590 -0.8939  0.1995  0.1858
   44MOL0     C 5820   0.190   2.727  10.680 -1.1596  0.3414 -0.7830
   44MOL0     C 5821   0.094   2.627  10.600  0.5927  0.1032  0.0677
   44MOL0     N 5822   0.027   2.552  10.709  0.2204  0.8886  0.0605
   44MOL0     C 5823   0.074   2.442  10.775  0.2183  0.1941  0.5725
   44MOL0     C 5824  -0.018   2.404  10.863 -0.0838  0.8596  0.5166
   44MOL0     C 5825   0.000   2.281  10.948 -0.0873  0.2492  1.3985
   44MOL0     C 5826  -0.028   2.154  10.866  1.2551 -0.6798 -0.3916
   44MOL0     C 5827  -0.179   2.141  10.834  0.5243 -0.4094 -0.5326
   44MOL0     C 5828  -0.248   2.104  10.963 -0.3713 -0.4374  0.1312
   44MOL0     O 5829  -0.387   2.073  10.931  0.7411 -0.6167  0.7159
   44MOL0     C 5830  -0.472   2.019  11.026 -0.1258 -0.6628  0.5290
   44MOL0     C 5831  -0.605   1.985  10.995  0.5692 -0.5344 -0.4454
   44MOL0     C 5832  -0.692   1.946  11.089  0.4393 -0.4264  0.4965
   44MOL0     C 5833  -0.827   1.894  11.034  0.4686  0.1386  1.0253
   44MOL0     C 5834  -0.650   1.940  11.225  1.4402 -0.9072  0.2864
   44MOL0     C 5835  -0.728   1.862  11.326  0.4869  0.1285  0.0157
   44MOL0     O 5836  -0.783   1.742  11.284  0.2863  0.4237 -0.1497
   44MOL0     C 5837  -0.860   1.668  11.371 -1.3305 -0.5453  0.4716
   44MOL0     C 5838  -0.996   1.637  11.335 -0.3864  0.1615  0.7685
   44MOL0     C 5839  -1.073   1.540  11.407  0.2836  0.6430  0.4871
   44MOL0     C 5840  -1.008   1.477  11.519  0.0317 -0.0789 -0.3112
   44MOL0     O 5841  -1.055   1.387  11.613 -0.1627 -0.0682  0.0161
   44MOL0     C 5842  -1.165   1.298  11.582 -0.2734 -1.2102  0.5870
   44MOL0     C 5843  -1.299   1.340  11.654  0.5054  0.2708 -0.6373
   44MOL0     C 5844  -1.369   1.452  11.580  0.4023  0.1719 -0.1806
   44MOL0     C 5845  -1.441   1.541  11.681  0.0123 -0.3558 -0.1159
   44MOL0     C 5846  -1.516   1.663  11.627  0.8889 -0.8681 -0.5101
   44MOL0     C 5847  -1.648   1.635  11.568  0.0949  0.1891  0.3466
   44MOL0     C 5848  -1.744   1.559  11.654 -0.0979 -0.2785  0.0700
   44MOL0     C 5849  -1.882   1.549  11.583  0.3671 -1.0195 -0.2072
   44MOL0    Cl 5850  -1.854   1.476  11.412 -0.1552 -0.0972 -0.2186
   44MOL0     C 5851  -0.874   1.505  11.543  0.0319  0.4112 -0.3887
   44MOL0     C 5852  -0.802   1.588  11.470 -0.3907 -1.5480  0.0906
   44MOL0     O 5853  -0.716   1.902  11.442 -0.0143 -0.9822 -0.5106
   44MOL0     C 5854  -0.523   1.992  11.262 -0.5489 -0.0254  0.1429
   44MOL0     C 5855  -0.436   2.025  11.165 -0.2307 -0.1048  0.0129
   44MOL0     N 5856  -0.126   2.488  10.855  0.3777 -0.3310 -0.2813
   44MOL0     N 5857  -0.101   2.573  10.759  0.0888 -0.5374 -0.2638
   44MOL0     C 5858   0.573   3.338  10.689 -0.5745 -0.0267 -0.1156
   44MOL0     C 5859   0.637   3.397  10.796  0.1160 -0.0475 -0.4725
   44MOL0     C 5860   0.874   3.599  11.121  0.0386  0.0894  0.0457
   44MOL0     C 5861   0.950   3.532  11.217 -0.5868 -0.8332  0.1261
   44MOL0     C 5862   0.979   3.605  11.333 -0.4312  0.0112 -0.5999
   44MOL0     C 5863   0.943   3.735  11.354 -0.4736 -0.8504  0.1488
   44MOL0     O 5864   0.979   3.793  11.469 -0.0141  0.2261  0.1552
   44MOL0     C 5865   0.977   3.930  11.502 -0.2893 -0.3281  0.5802
   44MOL0     C 5866   1.085   4.001  11.424  0.5514 -0.5301 -0.0792
   44MOL0     C 5867   1.124   4.139  11.484  0.8863  0.0625 -0.0265
   44MOL0     C 5868   1.030   4.254  11.445  0.5115  0.3202 -0.0134
   44MOL0     C 5869   0.942   4.289  11.557 -0.4397  0.1328  1.0747
   44MOL0     C 5870   0.883   4.330  11.648  0.1218  0.2626 -0.7963
   44MOL0     C 5871   0.860   3.805  11.258 -0.4837  0.5503  0.8237
   44MOL0     C 5872   0.825   3.730  11.144  0.9602  0.6332  0.2267
   44MOL0     H 5873   0.699   3.700  10.674 -1.0628  0.2299 -0.5788
   44MOL0     H 5874   0.579   3.596  10.480  0.0474 -1.2793 -0.0908
   44MOL0     H 5875   0.599   3.290  10.320  1.8025 -2.3107 -0.5672
   44MOL0     H 5876   0.617   3.190  10.468 -2.7331 -0.8541  2.4522
   44MOL0     H 5877   0.356   3.201  10.301 -1.7570 -1.9353  0.5111
   44MOL0     H 5878   0.504   3.107  10.258 -0.8958  0.4678 -1.0349
   44MOL0     H 5879   0.488   2.998  10.481  0.2398  0.6925 -1.6051
   44MOL0     H 5880   0.352   3.114  10.526  2.1588 -1.5595  2.9406
   44MOL0     H 5881   0.232   3.012  10.310  0.3708 -1.0309 -0.3559
   44MOL0     H 5882   0.354   2.891  10.323  0.2810  0.4243 -0.8523
   44MOL0     H 5883   0.138   2.968  10.523 -0.0857  0.4278 -1.2704
   44MOL0     H 5884   0.130   2.828  10.423  0.3723 -2.6536  2.6556
   44MOL0     H 5885   0.336   2.733  10.549 -1.4964  0.5810 -1.5368
   44MOL0     H 5886   0.344   2.887  10.642 -1.3613  0.6794  0.1379
   44MOL0     H 5887   0.259   2.678  10.749 -2.8789  2.3881  2.6616
   44MOL0     H 5888   0.118   2.782  10.742  0.8310  2.7978 -0.4856
   44MOL0     H 5889   0.155   2.565  10.534  4.0562  1.5574  1.6874
   44MOL0     H 5890   0.016   2.679  10.543  0.7254 -2.6850 -2.9889
   44MOL0     H 5891   0.175   2.405  10.761  0.1799  1.1428 -3.8995
   44MOL0     H 5892   0.106   2.290  10.973  0.9962  1.8526 -2.8615
   44MOL0     H 5893  -0.057   2.293  11.040  3.0633  3.1176  3.1748
   44MOL0     H 5894   0.007   2.070  10.926 -2.2926  0.2775  3.5030
   44MOL0     H 5895   0.034   2.155  10.776 -0.3204 -2.2730 -1.5723
   44MOL0     H 5896  -0.194   2.066  10.756  1.2480 -2.4711  1.2204
   44MOL0     H 5897  -0.216   2.234  10.789 -0.4954  0.6082  2.1951
   44MOL0     H 5898  -0.238   2.177  11.043  1.3375  1.1225 -1.4208
   44MOL0     H 5899  -0.216   2.009  11.007 -1.1074  0.2080  2.1724
   44MOL0     H 5900  -0.636   1.985  10.891 -0.3847  0.6642 -0.1836
   44MOL0     H 5901  -0.864   1.961  10.956  1.6511  2.4458  2.3589
   44MOL0     H 5902  -0.808   1.795  10.991  0.4821  0.2296  0.8214
   44MOL0     H 5903  -0.895   1.887  11.120 -0.3777  4.3562  0.8997
   44MOL0     H 5904  -1.024   1.688  11.243 -2.5973 -3.8939 -1.0491
   44MOL0     H 5905  -1.172   1.507  11.375  1.1307 -2.6415  0.8548
   44MOL0     H 5906  -1.183   1.306  11.475 -1.0542  1.1426  0.8386
   44MOL0     H 5907  -1.159   1.197  11.624 -1.6701 -1.1607  0.9816
   44MOL0     H 5908  -1.364   1.255  11.678 -0.6978  1.8710  2.2412
   44MOL0     H 5909  -1.274   1.371  11.756  1.4542 -5.1406  1.1272
   44MOL0     H 5910  -1.435   1.397  11.512  1.0225  0.6276 -1.1843
   44MOL0     H 5911  -1.297   1.517  11.531 -0.2413  0.8020 -0.3062
   44MOL0     H 5912  -1.501   1.485  11.753  1.8933 -1.9459  0.3134
   44MOL0     H 5913  -1.369   1.578  11.755 -0.3296 -0.6676  0.3794
   44MOL0     H 5914  -1.452   1.713  11.554  0.7894 -1.0896 -0.7515
   44MOL0     H 5915  -1.535   1.733  11.709  2.7346  0.2888 -1.0139
   44MOL0     H 5916  -1.683   1.736  11.545  2.7849  0.6884 -2.1018
   44MOL0     H 5917  -1.644   1.584  11.471 -1.9143 -2.3401  1.4593
   44MOL0     H 5918  -1.738   1.621  11.743  1.1471  1.0874 -0.9308
   44MOL0     H 5919  -1.716   1.457  11.684 -1.8486 -0.4045  1.4164
   44MOL0     H 5920  -1.948   1.635  11.569 -2.3917 -3.0314 -0.3278
   44MOL0     H 5921  -1.945   1.484  11.643  2.2594 -2.5174  0.2686
   44MOL0     H 5922  -0.819   1.470  11.630  1.6784  2.1041 -0.6812
   44MOL0     H 5923  -0.698   1.618  11.477 -1.5641  3.1527  0.6886
   44MOL0     H 5924  -0.485   1.986  11.364 -1.7431  1.8241  0.7435
   44MOL0     H 5925  -0.339   2.067  11.189  0.7771  2.5281 -6.5890
   44MOL0     H 5926   0.544   3.234  10.701  3.6117 -1.6731 -2.2318
   44MOL0     H 5927   0.644   3.337  10.886  0.1956  1.5462  0.6181
   44MOL0     H 5928   0.990   3.432  11.210 -1.1756 -1.0732  0.1098
   44MOL0     H 5929   1.051   3.565  11.403  2.1174  3.2907 -1.1170
   44MOL0     H 5930   0.883   3.981  11.479  1.0257  1.9987  0.0759
   44MOL0     H 5931   0.985   3.939  11.611  0.1359  1.6560  0.4224
   44MOL0     H 5932   1.047   4.013  11.322  1.7026  1.6851 -0.3143
   44MOL0     H 5933   1.170   3.932  11.421  0.6643 -0.6151  2.4753
   44MOL0     H 5934   1.225   4.168  11.452  0.7360  0.9066  0.2408
   44MOL0     H 5935   1.135   4.119  11.591  5.1855 -0.2187 -0.3400
   44MOL0     H 5936   0.972   4.221  11.358 -0.5815  2.2847 -0.0854
   44MOL0     H 5937   1.094   4.339  11.418  3.7275 -1.2404  2.0282
   44MOL0     H 5938   0.837   4.382  11.731 -3.8133 -2.1180 -1.2432
   44MOL0     H 5939   0.827   3.907  11.278 -0.9357  0.0556  2.8366
   44MOL0     H 5940   0.761   3.773  11.068  1.5072 -2.3247 -2.0802
   45MOL0     O 5941  11.113   2.153   7.554  0.2998 -0.3545 -0.6881
   45MOL0     C 5942  11.190   2.095   7.628 -0.5898  0.0576  0.4492
   45MOL0     O 5943  11.283   2.005   7.587  0.8479 -0.6007 -0.1825
   45MOL0     C 5944  11.291   1.947   7.458 -0.3024 -1.5380 -0.3693
   45MOL0     C 5945  11.414   1.912   7.388  1.0279 -0.8094 -1.5012
   45MOL0     C 5946  11.411   1.850   7.266  0.1602 -0.1481  0.0722
   45MOL0     C 5947  11.289   1.811   7.211  0.6692 -1.1850  0.7945
   45MOL0     O 5948  11.299   1.750   7.084 -0.1557  0.6270 -0.2293
   45MOL0     C 5949  11.201   1.764   6.981  0.7674  0.0642 -0.0501
   45MOL0     C 5950  11.194   1.916   6.934  0.1990  0.0395  0.2012
   45MOL0     C 5951  11.095   1.938   6.825 -0.0825  0.5735 -0.2342
   45MOL0     C 5952  11.101   2.079   6.767  0.9455 -0.5619  0.7511
   45MOL0     C 5953  11.238   2.112   6.699 -0.8011  0.6242  0.6903
   45MOL0     C 5954  11.239   2.247   6.627  0.2004 -0.2796 -0.6664
   45MOL0     C 5955  11.184   2.367   6.711  0.9578  0.1344 -1.1442
   45MOL0     C 5956  11.303   2.421   6.797 -0.5085  1.1164  0.6479
   45MOL0     N 5957  11.419   2.486   6.723  0.6172  0.4812  0.2776
   45MOL0     C 5958  11.553   2.483   6.755  1.1022 -0.3066  0.2957
   45MOL0     C 5959  11.622   2.571   6.677  0.5811 -0.1889 -0.2868
   45MOL0     C 5960  11.770   2.604   6.673 -0.1697  0.0624 -0.7767
   45MOL0     C 5961  11.865   2.531   6.772  1.5874  0.8837 -0.8716
   45MOL0     C 5962  12.007   2.550   6.734 -0.7912  0.8774  0.1066
   45MOL0     C 5963  12.094   2.471   6.825 -0.5552  0.4051  0.2727
   45MOL0     O 5964  12.229   2.516   6.826  0.2489 -0.0718 -0.0834
   45MOL0     C 5965  12.313   2.465   6.914 -0.7357  0.8711 -0.1496
   45MOL0     C 5966  12.420   2.543   6.936  0.4236  0.2070  0.6084
   45MOL0     C 5967  12.513   2.500   7.038  0.3042 -0.0942  0.5242
   45MOL0     C 5968  12.638   2.585   7.061 -0.4817 -0.1217  0.5155
   45MOL0     C 5969  12.493   2.384   7.117  0.5835  0.0584 -0.2568
   45MOL0     C 5970  12.569   2.349   7.238 -0.1192  0.0944 -0.4515
   45MOL0     O 5971  12.656   2.245   7.255  0.0874  0.3057  0.9408
   45MOL0     C 5972  12.680   2.166   7.155 -0.1535  0.6003  0.0682
   45MOL0     C 5973  12.664   2.037   7.177 -0.8770 -0.1537 -0.5050
   45MOL0     C 5974  12.704   1.940   7.081 -0.4659  0.4023  0.8423
   45MOL0     C 5975  12.765   1.978   6.963  0.1743  0.7898 -0.0203
   45MOL0     O 5976  12.802   1.886   6.872  1.1070 -0.3053  0.3550
   45MOL0     C 5977  12.709   1.782   6.835  0.4114  1.0886 -1.1669
   45MOL0     C 5978  12.779   1.670   6.751 -0.6034 -0.3863  0.4481
   45MOL0     C 5979  12.863   1.569   6.831 -0.5389  0.9428  0.0690
   45MOL0     C 5980  12.916   1.443   6.743  0.8355 -0.8186 -0.3387
   45MOL0     C 5981  12.990   1.343   6.837 -0.3206 -0.8943 -0.3867
   45MOL0     C 5982  13.013   1.203   6.764  0.8277 -0.2695 -0.2358
   45MOL0     C 5983  13.066   1.088   6.854 -0.5345  0.2640  0.2952
   45MOL0     C 5984  13.078   0.944   6.787  0.1595 -0.3330  1.1506
   45MOL0    Cl 5985  13.208   0.933   6.666 -0.4961 -0.3522  0.1137
   45MOL0     C 5986  12.789   2.109   6.936 -0.0263 -0.7956 -1.1326
   45MOL0     C 5987  12.755   2.205   7.034  0.3927 -0.5426 -1.1934
   45MOL0     O 5988  12.539   2.426   7.329 -0.3571  0.4417  0.0089
   45MOL0     C 5989  12.385   2.303   7.075 -0.0053  0.5480  0.3931
   45MOL0     C 5990  12.298   2.343   6.977 -0.5417  0.7689  0.1196
   45MOL0     N 5991  11.522   2.621   6.591  0.3260 -0.1885 -0.6363
   45MOL0     N 5992  11.413   2.568   6.608 -0.5791  1.0529  0.1133
   45MOL0     C 5993  11.169   1.843   7.279  0.4601 -0.6810 -0.0255
   45MOL0     C 5994  11.171   1.916   7.391  0.4368  0.6189 -0.4884
   45MOL0     C 5995  11.187   2.124   7.770 -0.0519  0.0454  0.5140
   45MOL0     C 5996  11.103   2.231   7.811 -0.5139  0.4812 -0.0325
   45MOL0     C 5997  11.090   2.270   7.947  0.6864  0.2804 -0.5982
   45MOL0     C 5998  11.162   2.191   8.040  0.3453 -0.9473 -0.8764
   45MOL0     O 5999  11.166   2.209   8.182  0.0460 -0.3881 -0.0001
   45MOL0     C 6000  11.199   2.342   8.222  0.0885  0.8606 -0.4457
   45MOL0     C 6001  11.292   2.351   8.348 -0.3431  0.7144  0.3334
   45MOL0     C 6002  11.405   2.243   8.333  0.1656  0.2954  0.7054
   45MOL0     C 6003  11.550   2.277   8.399 -0.9045  0.3666  0.1897
   45MOL0     C 6004  11.622   2.149   8.412 -0.2779  0.2972 -0.4812
   45MOL0     C 6005  11.692   2.054   8.408  0.8359  0.6411  0.9405
   45MOL0     C 6006  11.229   2.080   8.000  0.9187 -0.1541 -0.5798
   45MOL0     C 6007  11.235   2.040   7.865  0.3404 -0.3219  0.2140
   45MOL0     H 6008  11.506   1.956   7.423  0.5982 -2.4211  2.1364
   45MOL0     H 6009  11.507   1.829   7.220 -0.3599 -0.9592 -0.6850
   45MOL0     H 6010  11.244   1.698   6.906 -1.3542 -3.3000  1.4156
   45MOL0     H 6011  11.103   1.734   7.020  0.1061  0.9941 -0.9378
   45MOL0     H 6012  11.179   1.999   7.004 -2.2466  0.6303 -0.9530
   45MOL0     H 6013  11.291   1.928   6.884 -0.4129  0.9215 -0.7850
   45MOL0     H 6014  11.118   1.874   6.739  2.7576 -1.8045  2.0676
   45MOL0     H 6015  10.994   1.913   6.859 -0.1023  1.8820  0.7350
   45MOL0     H 6016  11.016   2.084   6.699  1.7280 -2.7508 -0.4868
   45MOL0     H 6017  11.082   2.155   6.844 -2.3708 -0.6392  0.1416
   45MOL0     H 6018  11.327   2.120   6.761  0.8405 -0.1818 -1.4186
   45MOL0     H 6019  11.268   2.032   6.629 -0.6078  0.2532  1.1881
   45MOL0     H 6020  11.342   2.267   6.598 -0.4462  1.0436 -2.1750
   45MOL0     H 6021  11.178   2.238   6.536 -0.6668 -2.5001  0.0539
   45MOL0     H 6022  11.162   2.458   6.653 -0.9905  0.1145 -0.4951
   45MOL0     H 6023  11.091   2.343   6.763  0.7409  2.0483 -0.5572
   45MOL0     H 6024  11.334   2.334   6.855 -0.9015 -0.6041 -1.5923
   45MOL0     H 6025  11.262   2.485   6.876  0.1981  0.6824  1.3836
   45MOL0     H 6026  11.605   2.427   6.832  0.7553  2.3566  2.6228
   45MOL0     H 6027  11.800   2.583   6.570  0.5574 -2.9478 -0.0656
   45MOL0     H 6028  11.795   2.710   6.677 -3.6400  0.9741  0.1950
   45MOL0     H 6029  11.843   2.424   6.772  1.0991  0.9295 -3.3258
   45MOL0     H 6030  11.850   2.571   6.873 -0.5849  1.6855 -1.4491
   45MOL0     H 6031  12.032   2.655   6.749 -2.3286  1.1315  1.0734
   45MOL0     H 6032  12.027   2.524   6.630  3.4074  1.2167  0.6509
   45MOL0     H 6033  12.083   2.364   6.803 -1.3973  0.7539 -1.1104
   45MOL0     H 6034  12.061   2.487   6.929  0.7964 -0.2152  0.8229
   45MOL0     H 6035  12.425   2.644   6.899 -0.5009 -0.6174 -1.9937
   45MOL0     H 6036  12.642   2.663   6.983  1.7031  1.5218  2.1266
   45MOL0     H 6037  12.643   2.623   7.163  4.4490  1.2935  0.0438
   45MOL0     H 6038  12.729   2.528   7.042 -1.8149 -1.6777 -1.6939
   45MOL0     H 6039  12.624   2.004   7.273 -1.3570  1.4465 -0.1256
   45MOL0     H 6040  12.694   1.835   7.109  2.1586 -0.4256 -0.9315
   45MOL0     H 6041  12.655   1.748   6.924  1.9418  0.9210 -0.2673
   45MOL0     H 6042  12.647   1.840   6.766 -2.0618 -2.7403 -2.5194
   45MOL0     H 6043  12.697   1.617   6.702 -1.5820  0.7343  0.8366
   45MOL0     H 6044  12.843   1.712   6.673  1.0124 -0.0161  1.8974
   45MOL0     H 6045  12.812   1.534   6.921 -3.7425  1.3175 -1.4787
   45MOL0     H 6046  12.952   1.608   6.882  0.9547 -1.5922 -0.4001
   45MOL0     H 6047  12.836   1.402   6.681  0.9117  0.7730 -1.5452
   45MOL0     H 6048  12.979   1.480   6.661  0.0292 -2.5371 -1.7971
   45MOL0     H 6049  12.928   1.327   6.926 -0.4175 -0.0434 -0.2878
   45MOL0     H 6050  13.088   1.377   6.871  0.2431 -3.5118  0.8436
   45MOL0     H 6051  12.924   1.169   6.709  0.1361  1.4550 -0.2307
   45MOL0     H 6052  13.079   1.215   6.678  1.2056 -3.2121 -0.4765
   45MOL0     H 6053  12.999   1.075   6.939  0.8456  1.1172  1.5801
   45MOL0     H 6054  13.169   1.105   6.886  0.7860 -0.9579 -2.8972
   45MOL0     H 6055  12.994   0.927   6.719  3.5039 -0.0949 -3.6377
   45MOL0     H 6056  13.089   0.875   6.871  1.7636  1.5307  2.5652
   45MOL0     H 6057  12.820   2.140   6.836  2.3999  2.0848  0.3651
   45MOL0     H 6058  12.770   2.311   7.017 -1.1175 -0.2043 -0.5485
   45MOL0     H 6059  12.352   2.212   7.124 -3.3646  1.1341 -0.4827
   45MOL0     H 6060  12.223   2.269   6.949  0.2872 -0.2238  0.4884
   45MOL0     H 6061  11.080   1.792   7.244 -0.3128  1.1459 -0.8785
   45MOL0     H 6062  11.080   1.943   7.443  1.3096  1.5267  0.6219
   45MOL0     H 6063  11.061   2.293   7.732  2.1431  0.5919 -1.4563
   45MOL0     H 6064  11.031   2.355   7.980 -0.8987  0.6592 -3.9354
   45MOL0     H 6065  11.248   2.389   8.136 -0.4052  0.8983 -0.7122
   45MOL0     H 6066  11.106   2.399   8.233 -1.1089 -0.3447 -3.3513
   45MOL0     H 6067  11.229   2.349   8.437  1.2539  2.2752  1.5834
   45MOL0     H 6068  11.334   2.452   8.348 -1.1670  1.1942 -3.3155
   45MOL0     H 6069  11.428   2.228   8.227 -1.3801 -0.3543  0.4355
   45MOL0     H 6070  11.376   2.152   8.387  0.8564  0.6566  1.7110
   45MOL0     H 6071  11.538   2.335   8.491  0.5718 -2.0018  2.0030
   45MOL0     H 6072  11.612   2.338   8.332 -0.5777  1.0795  1.1062
   45MOL0     H 6073  11.761   1.971   8.406  1.3542  0.9661 -2.8142
   45MOL0     H 6074  11.279   2.016   8.071 -1.3354  0.1368  1.3734
   45MOL0     H 6075  11.284   1.946   7.842 -0.4355  0.3694 -5.9163
   46MOL0     O 6076   6.450   6.697   0.698  0.1940 -0.2813 -0.3699
   46MOL0     C 6077   6.501   6.677   0.814  0.4940  0.7963  0.5182
   46MOL0     O 6078   6.484   6.762   0.927 -0.5228  0.5179 -0.3556
   46MOL0     C 6079   6.419   6.879   0.905  0.3096  0.3113  0.4098
   46MOL0     C 6080   6.276   6.892   0.894 -0.1876 -0.3642  0.2308
   46MOL0     C 6081   6.226   7.019   0.904 -0.3263 -0.2093 -0.9871
   46MOL0     C 6082   6.306   7.135   0.897  0.2716  0.5873 -0.2577
   46MOL0     O 6083   6.255   7.260   0.892 -0.2828 -0.4057 -0.0312
   46MOL0     C 6084   6.124   7.284   0.833  0.5678 -0.4907 -0.7085
   46MOL0     C 6085   6.114   7.425   0.768  0.3823 -0.8138  0.3306
   46MOL0     C 6086   6.013   7.431   0.655  0.2371 -0.2073 -0.6747
   46MOL0     C 6087   6.072   7.380   0.518  0.2654  0.2216 -0.3422
   46MOL0     C 6088   6.103   7.501   0.423 -0.0114 -1.4573 -0.1134
   46MOL0     C 6089   6.126   7.435   0.294 -1.0973 -0.2299  0.9874
   46MOL0     C 6090   6.219   7.500   0.189 -0.2257  0.7309  0.2429
   46MOL0     C 6091   6.154   7.628   0.142 -0.0366 -0.1523 -0.7354
   46MOL0     N 6092   6.231   7.689   0.036 -0.7964  0.5271  0.1969
   46MOL0     C 6093   6.261   7.642  -0.092 -0.3833  0.0989 -0.5191
   46MOL0     C 6094   6.347   7.725  -0.155  0.2831  0.5843  0.4442
   46MOL0     C 6095   6.372   7.737  -0.304  0.3677  0.0992 -0.3320
   46MOL0     C 6096   6.518   7.745  -0.331 -0.2650  0.7737 -0.0303
   46MOL0     C 6097   6.591   7.618  -0.318 -0.4253 -0.4387 -0.3250
   46MOL0     C 6098   6.556   7.505  -0.409 -0.2249 -0.1343 -0.1813
   46MOL0     O 6099   6.448   7.435  -0.344  0.5050  0.0362  0.3247
   46MOL0     C 6100   6.434   7.297  -0.369  0.1429 -0.1248 -0.5718
   46MOL0     C 6101   6.500   7.221  -0.462  1.0682  0.2207  0.4541
   46MOL0     C 6102   6.462   7.089  -0.486  0.5212 -0.0911  0.3244
   46MOL0     C 6103   6.517   7.027  -0.609 -0.3992  0.5107 -0.4164
   46MOL0     C 6104   6.349   7.030  -0.418 -0.0903  0.1705 -0.5924
   46MOL0     C 6105   6.288   6.901  -0.441  1.2407  0.3568 -0.2455
   46MOL0     O 6106   6.213   6.845  -0.343  0.7547 -0.5435 -0.1209
   46MOL0     C 6107   6.114   6.755  -0.371  0.0601 -0.1438 -0.0551
   46MOL0     C 6108   6.011   6.783  -0.458  0.1510  0.0782  0.3768
   46MOL0     C 6109   5.914   6.685  -0.500  0.1448  0.2440  0.2293
   46MOL0     C 6110   5.920   6.559  -0.447  0.7484 -0.7923 -0.5199
   46MOL0     O 6111   5.828   6.467  -0.488  0.1446 -0.0915 -0.1807
   46MOL0     C 6112   5.772   6.371  -0.394 -0.1374  0.8836 -0.2403
   46MOL0     C 6113   5.639   6.327  -0.444  0.0942 -0.0128 -0.2500
   46MOL0     C 6114   5.534   6.437  -0.438 -0.6546 -0.4961  0.1417
   46MOL0     C 6115   5.538   6.558  -0.532  0.1984  0.0274 -1.3150
   46MOL0     C 6116   5.423   6.660  -0.479 -0.0216 -0.5813 -0.6896
   46MOL0     C 6117   5.392   6.769  -0.581 -0.0558  0.2856 -0.3461
   46MOL0     C 6118   5.254   6.840  -0.559 -0.4660 -0.1487 -0.3717
   46MOL0     C 6119   5.149   6.800  -0.658 -0.4958  0.1177 -0.7498
   46MOL0    Cl 6120   4.996   6.894  -0.668  0.3417 -0.1685 -0.1696
   46MOL0     C 6121   6.028   6.521  -0.363 -1.0471 -1.0754 -0.5562
   46MOL0     C 6122   6.120   6.617  -0.322 -0.1294  0.6159 -0.5966
   46MOL0     O 6123   6.307   6.843  -0.546  0.3622  0.3107  0.0212
   46MOL0     C 6124   6.285   7.116  -0.324 -0.6013 -0.2721  0.8312
   46MOL0     C 6125   6.329   7.247  -0.307 -0.2222  0.2743 -0.6825
   46MOL0     N 6126   6.391   7.811  -0.063  0.0682  0.3611 -0.2116
   46MOL0     N 6127   6.320   7.785   0.048 -1.2535  0.0738 -0.1414
   46MOL0     C 6128   6.443   7.120   0.902 -0.0881  0.2223 -0.3412
   46MOL0     C 6129   6.496   6.986   0.902  0.7108  0.6425 -0.4683
   46MOL0     C 6130   6.556   6.540   0.826  0.6019  0.4867  0.0103
   46MOL0     C 6131   6.498   6.432   0.757  0.5008 -0.5992 -0.2994
   46MOL0     C 6132   6.564   6.307   0.759  0.0197 -0.1392 -0.3304
   46MOL0     C 6133   6.663   6.275   0.845  0.2991  0.0000 -0.3392
   46MOL0     O 6134   6.698   6.142   0.842  0.0879 -0.2179  0.5284
   46MOL0     C 6135   6.824   6.105   0.903  0.1387 -0.8831  0.4100
   46MOL0     C 6136   6.787   6.054   1.040 -0.1466  0.1725  0.3868
   46MOL0     C 6137   6.860   5.929   1.073  1.2287  0.2978 -0.1191
   46MOL0     C 6138   6.821   5.876   1.209  0.6273  0.5379 -0.3723
   46MOL0     C 6139   6.883   5.739   1.228  1.1256  0.3833  0.4507
   46MOL0     C 6140   6.934   5.634   1.264 -0.3268  0.7106 -0.3368
   46MOL0     C 6141   6.719   6.383   0.916 -0.6708 -0.0040 -0.4817
   46MOL0     C 6142   6.674   6.517   0.896 -1.3507  0.3456  0.4778
   46MOL0     H 6143   6.215   6.802   0.899  1.5935 -1.5764  0.9779
   46MOL0     H 6144   6.123   7.048   0.919 -1.2978 -3.8382  0.5199
   46MOL0     H 6145   6.110   7.220   0.745  3.8471  1.3190 -2.7409
   46MOL0     H 6146   6.049   7.264   0.911  0.9086  3.1339  0.7353
   46MOL0     H 6147   6.096   7.502   0.844  0.2577  1.0446 -1.4707
   46MOL0     H 6148   6.207   7.448   0.715 -0.7120  0.5070 -1.1285
   46MOL0     H 6149   5.936   7.356   0.679  0.8984 -0.4433  0.7666
   46MOL0     H 6150   5.973   7.531   0.638  0.8938 -0.4051 -4.3821
   46MOL0     H 6151   6.166   7.325   0.526  0.3569  0.5150  0.6817
   46MOL0     H 6152   5.992   7.318   0.477  0.7035 -0.8263  0.3500
   46MOL0     H 6153   6.025   7.578   0.427  0.0928 -1.3573 -0.0017
   46MOL0     H 6154   6.196   7.551   0.450 -0.7198  0.4542 -1.0402
   46MOL0     H 6155   6.164   7.335   0.318 -4.1266 -1.4055  1.3650
   46MOL0     H 6156   6.023   7.419   0.260 -0.4857  0.0473 -1.1198
   46MOL0     H 6157   6.325   7.511   0.215  0.4276  0.7576 -2.2554
   46MOL0     H 6158   6.212   7.430   0.105 -2.1298  0.5725  0.4974
   46MOL0     H 6159   6.151   7.703   0.221 -0.7649  2.2762 -2.9109
   46MOL0     H 6160   6.052   7.601   0.116 -1.1964  4.1268 -1.3514
   46MOL0     H 6161   6.215   7.553  -0.133 -1.3164  1.1675 -1.9031
   46MOL0     H 6162   6.316   7.662  -0.360 -2.8772  1.3451  0.9966
   46MOL0     H 6163   6.334   7.838  -0.324  0.8378 -0.1526 -2.8152
   46MOL0     H 6164   6.563   7.810  -0.254  0.8661  1.6286 -1.3617
   46MOL0     H 6165   6.520   7.784  -0.433 -1.7146  0.5163 -0.1780
   46MOL0     H 6166   6.585   7.584  -0.214  0.8392  0.9774  0.2620
   46MOL0     H 6167   6.698   7.636  -0.332 -0.8958  2.7178 -0.5755
   46MOL0     H 6168   6.639   7.434  -0.410  0.2849  0.4426 -1.8192
   46MOL0     H 6169   6.537   7.543  -0.510  1.5076  1.1542 -0.0606
   46MOL0     H 6170   6.579   7.259  -0.526  1.7799  3.1709  2.8638
   46MOL0     H 6171   6.609   7.080  -0.636  0.2104 -0.4432 -0.2497
   46MOL0     H 6172   6.553   6.929  -0.577 -1.3790  1.1106  3.0140
   46MOL0     H 6173   6.441   7.023  -0.687 -1.7223  0.3496  0.8347
   46MOL0     H 6174   6.006   6.887  -0.489  2.2929 -0.3179 -1.5386
   46MOL0     H 6175   5.833   6.701  -0.570 -1.4845 -0.4377  1.8584
   46MOL0     H 6176   5.843   6.288  -0.388  1.3059  2.1615  3.2033
   46MOL0     H 6177   5.761   6.412  -0.293 -1.4442 -2.0697  0.9335
   46MOL0     H 6178   5.643   6.281  -0.543 -1.0926 -2.7313  0.8694
   46MOL0     H 6179   5.600   6.245  -0.384 -1.3880  0.3913 -0.6072
   46MOL0     H 6180   5.534   6.490  -0.342 -4.3378 -1.7013  0.9651
   46MOL0     H 6181   5.434   6.393  -0.440  0.3822 -3.1196 -2.4751
   46MOL0     H 6182   5.631   6.617  -0.526 -0.6542  1.3084 -0.0738
   46MOL0     H 6183   5.529   6.534  -0.638  2.3040  0.6466 -1.6920
   46MOL0     H 6184   5.462   6.704  -0.387 -3.0939  0.7519  0.1112
   46MOL0     H 6185   5.328   6.608  -0.463  1.3117 -1.9575  4.4644
   46MOL0     H 6186   5.473   6.841  -0.591  1.1599 -1.3366 -3.6324
   46MOL0     H 6187   5.392   6.732  -0.684 -1.9942 -0.7480 -0.0324
   46MOL0     H 6188   5.268   6.948  -0.570  1.0345 -0.3667 -0.7735
   46MOL0     H 6189   5.224   6.813  -0.458  1.0609 -0.9518 -0.1002
   46MOL0     H 6190   5.135   6.692  -0.646 -0.7763  0.3372  1.1452
   46MOL0     H 6191   5.193   6.824  -0.755 -1.9902  1.1974 -1.1984
   46MOL0     H 6192   6.057   6.418  -0.342 -0.2838 -0.2457  3.1560
   46MOL0     H 6193   6.209   6.600  -0.263 -0.5851  0.8637  0.1736
   46MOL0     H 6194   6.199   7.077  -0.270 -2.2317  2.4343  0.3576
   46MOL0     H 6195   6.260   7.295  -0.239 -0.5054 -0.8619 -0.1460
   46MOL0     H 6196   6.512   7.204   0.906  0.7786 -0.5004  2.4172
   46MOL0     H 6197   6.602   6.967   0.904  0.2273 -2.6914 -1.2661
   46MOL0     H 6198   6.408   6.433   0.697 -2.0610 -3.8481  2.9561
   46MOL0     H 6199   6.518   6.225   0.704 -3.6083  0.9301  0.7686
   46MOL0     H 6200   6.856   6.024   0.837 -0.7661  0.3930 -1.6927
   46MOL0     H 6201   6.905   6.178   0.913 -0.1690 -0.7417  2.2370
   46MOL0     H 6202   6.680   6.034   1.054  0.5308 -3.1280  1.8811
   46MOL0     H 6203   6.815   6.113   1.128 -2.5958 -1.0031  2.1040
   46MOL0     H 6204   6.967   5.950   1.070  1.1517  0.7727  0.2250
   46MOL0     H 6205   6.833   5.861   0.992 -3.0232  0.8083  0.6385
   46MOL0     H 6206   6.712   5.865   1.208  0.8673 -3.9783  1.1734
   46MOL0     H 6207   6.850   5.926   1.301  0.0639 -1.2730  0.8360
   46MOL0     H 6208   6.966   5.537   1.297  3.5302  1.3470 -1.6665
   46MOL0     H 6209   6.801   6.369   0.986 -0.3104  0.5762 -0.7781
   46MOL0     H 6210   6.739   6.595   0.934  0.2694 -0.7371  0.0546
   47MOL0     O 6211   7.867   3.586   1.840 -0.2775 -0.2673  0.3887
   47MOL0     C 6212   7.831   3.540   1.736 -1.4393  0.3530  0.3334
   47MOL0     O 6213   7.838   3.600   1.611  0.5078  0.1058  0.3344
   47MOL0     C 6214   7.855   3.732   1.614 -0.2264  0.1594  0.0894
   47MOL0     C 6215   7.761   3.833   1.623  0.5209 -0.3350  0.8086
   47MOL0     C 6216   7.789   3.971   1.625  0.1875 -0.2499 -0.0840
   47MOL0     C 6217   7.916   4.017   1.626  0.6692 -0.9479  0.4352
   47MOL0     O 6218   7.929   4.150   1.631  0.0169  0.2096 -0.4131
   47MOL0     C 6219   8.054   4.213   1.653 -0.3037 -0.0207 -0.5622
   47MOL0     C 6220   8.031   4.352   1.698 -0.4419 -0.1478 -0.0215
   47MOL0     C 6221   8.162   4.422   1.700 -0.2617 -0.8779 -0.0766
   47MOL0     C 6222   8.156   4.567   1.755 -0.1403 -0.3275  0.2430
   47MOL0     C 6223   8.289   4.628   1.733  0.4673  0.1266  0.6837
   47MOL0     C 6224   8.269   4.783   1.716  0.4116  0.0647  0.3358
   47MOL0     C 6225   8.203   4.852   1.831  0.3949 -0.0385  0.1880
   47MOL0     C 6226   8.238   5.005   1.836  1.0923 -0.7086 -1.0237
   47MOL0     N 6227   8.172   5.064   1.716  0.3106  0.2763  0.5715
   47MOL0     C 6228   8.226   5.064   1.589 -0.1166  0.6931 -0.0825
   47MOL0     C 6229   8.136   5.144   1.521  0.0737 -0.1006 -0.1941
   47MOL0     C 6230   8.151   5.188   1.375  1.1430  0.2744  0.1355
   47MOL0     C 6231   8.054   5.308   1.336  0.6735 -0.4581  0.4257
   47MOL0     C 6232   8.070   5.350   1.187  1.2641 -1.0996 -0.0748
   47MOL0     C 6233   7.953   5.290   1.100 -0.3021 -1.1966 -0.4836
   47MOL0     O 6234   7.844   5.386   1.123 -0.3263 -0.3623  0.5331
   47MOL0     C 6235   7.726   5.334   1.178 -0.6603  0.8637 -0.2481
   47MOL0     C 6236   7.641   5.252   1.106  0.0219  0.3273 -0.6255
   47MOL0     C 6237   7.509   5.226   1.144  0.0813 -0.1279 -0.2707
   47MOL0     C 6238   7.424   5.151   1.044 -0.2774 -0.4185 -0.1090
   47MOL0     C 6239   7.466   5.269   1.274  0.1854 -0.2802  0.8216
   47MOL0     C 6240   7.326   5.246   1.332 -0.0635  1.3011  0.2918
   47MOL0     O 6241   7.257   5.145   1.275 -0.1338 -0.5036  0.1608
   47MOL0     C 6242   7.122   5.132   1.283 -0.7085 -0.4538 -0.3440
   47MOL0     C 6243   7.055   5.249   1.241 -0.5618 -0.1974 -0.9626
   47MOL0     C 6244   6.923   5.238   1.226  1.0893 -0.4403  0.8375
   47MOL0     C 6245   6.856   5.116   1.244  0.2822  0.3416 -0.2098
   47MOL0     O 6246   6.732   5.130   1.193 -0.5955 -0.8456 -0.1732
   47MOL0     C 6247   6.647   5.023   1.162 -0.4398 -0.4737 -0.6177
   47MOL0     C 6248   6.554   5.041   1.050  1.0729 -0.3288  0.8229
   47MOL0     C 6249   6.405   4.990   1.075 -0.2481  0.1290  0.1165
   47MOL0     C 6250   6.392   4.838   1.035 -0.4551  0.1286  0.2638
   47MOL0     C 6251   6.472   4.755   1.132  0.9564  0.2401  0.6670
   47MOL0     C 6252   6.440   4.608   1.137 -0.0453  0.9626 -0.3480
   47MOL0     C 6253   6.311   4.580   1.191 -0.2814  1.1600 -1.0249
   47MOL0     C 6254   6.318   4.424   1.233 -0.2236 -0.9018 -1.0373
   47MOL0    Cl 6255   6.338   4.317   1.082 -0.1902  0.0681  0.0908
   47MOL0     C 6256   6.915   4.999   1.294 -0.8964 -1.1530  0.1555
   47MOL0     C 6257   7.059   5.011   1.302  1.2390 -0.7078  0.4344
   47MOL0     O 6258   7.278   5.321   1.416  0.1264 -0.2277 -0.0620
   47MOL0     C 6259   7.559   5.339   1.353 -0.3262 -0.2952  0.5753
   47MOL0     C 6260   7.682   5.374   1.302 -1.0556  0.2245  0.0108
   47MOL0     N 6261   8.027   5.175   1.604 -0.3683  0.1682 -0.3750
   47MOL0     N 6262   8.060   5.140   1.722  0.4660 -0.8111 -0.4479
   47MOL0     C 6263   8.012   3.919   1.623 -0.4166  0.6537  0.2744
   47MOL0     C 6264   7.985   3.780   1.613  0.1901  0.6172 -0.1999
   47MOL0     C 6265   7.797   3.396   1.742 -0.1306  0.5152 -0.1512
   47MOL0     C 6266   7.753   3.331   1.859  0.0790  0.1767  0.1621
   47MOL0     C 6267   7.725   3.190   1.859  0.1774  0.3577  0.1204
   47MOL0     C 6268   7.737   3.111   1.748 -0.1854 -1.3436  0.0103
   47MOL0     O 6269   7.720   2.974   1.767  0.2536 -0.1693  0.6094
   47MOL0     C 6270   7.667   2.902   1.644 -0.5654  0.1089  0.3794
   47MOL0     C 6271   7.560   2.788   1.658 -0.9627 -0.6485 -0.2147
   47MOL0     C 6272   7.610   2.660   1.732 -0.8960 -0.4397  0.3562
   47MOL0     C 6273   7.675   2.546   1.649  0.1310  0.1516  0.3251
   47MOL0     C 6274   7.583   2.505   1.543 -0.4488 -0.4606 -0.5804
   47MOL0     C 6275   7.497   2.466   1.462  0.8096 -0.8012 -0.2449
   47MOL0     C 6276   7.763   3.177   1.626  0.1748  0.0722 -0.1538
   47MOL0     C 6277   7.796   3.319   1.625  0.0310  0.3119  0.0233
   47MOL0     H 6278   7.656   3.805   1.626  1.1183 -2.7844  1.1837
   47MOL0     H 6279   7.705   4.039   1.636  0.0169 -0.5934  0.7949
   47MOL0     H 6280   8.107   4.165   1.736  2.2827  0.5414 -1.7663
   47MOL0     H 6281   8.114   4.200   1.563 -0.1050  0.8930 -0.5693
   47MOL0     H 6282   7.963   4.395   1.624 -1.0993 -2.3688 -0.8059
   47MOL0     H 6283   7.988   4.374   1.796 -0.8932 -0.4065 -0.1562
   47MOL0     H 6284   8.231   4.373   1.768  0.2248 -1.4566 -0.9644
   47MOL0     H 6285   8.204   4.420   1.599 -3.2005 -1.2259 -1.4068
   47MOL0     H 6286   8.086   4.620   1.691  0.4357 -0.0015 -0.1222
   47MOL0     H 6287   8.129   4.572   1.861  2.4538 -4.0206  1.3005
   47MOL0     H 6288   8.348   4.588   1.817 -0.2429 -3.5221 -0.4254
   47MOL0     H 6289   8.328   4.608   1.633 -3.0353 -1.1260 -0.5533
   47MOL0     H 6290   8.365   4.836   1.711  0.1733  0.3551 -3.0811
   47MOL0     H 6291   8.223   4.798   1.618  1.4210  1.2688  0.0220
   47MOL0     H 6292   8.094   4.851   1.819  0.0715  1.8879  2.2698
   47MOL0     H 6293   8.230   4.804   1.925  0.6412  0.5887  0.4433
   47MOL0     H 6294   8.345   5.021   1.852  0.7782  0.0942  0.4182
   47MOL0     H 6295   8.190   5.053   1.922  0.9117  3.5937 -3.2361
   47MOL0     H 6296   8.326   5.034   1.559 -0.6099 -0.1842 -0.9340
   47MOL0     H 6297   8.254   5.217   1.351  1.0850 -1.0246 -1.8931
   47MOL0     H 6298   8.116   5.105   1.314 -2.4707 -0.2204  2.5765
   47MOL0     H 6299   8.076   5.394   1.399 -0.6886  0.7809 -0.7014
   47MOL0     H 6300   7.952   5.278   1.360  0.6775  0.2212  1.3421
   47MOL0     H 6301   8.167   5.307   1.157 -0.1042 -2.7501 -2.4530
   47MOL0     H 6302   8.068   5.459   1.179 -1.7155 -1.1993 -2.0119
   47MOL0     H 6303   7.930   5.190   1.139 -1.0766  0.3504  3.4809
   47MOL0     H 6304   7.978   5.277   0.994 -1.3244  3.1408 -1.4350
   47MOL0     H 6305   7.673   5.223   1.006  1.5679 -0.9804  0.2165
   47MOL0     H 6306   7.406   5.048   1.077 -3.9544  0.5226  1.2838
   47MOL0     H 6307   7.326   5.190   1.014 -0.2109  0.0995  0.3390
   47MOL0     H 6308   7.475   5.136   0.948  2.0246 -1.4195  1.1905
   47MOL0     H 6309   7.102   5.339   1.204 -3.7886  3.0026  1.8940
   47MOL0     H 6310   6.857   5.313   1.184 -1.7547 -1.3047  3.4318
   47MOL0     H 6311   6.708   4.935   1.138  0.0560 -0.2559 -0.1530
   47MOL0     H 6312   6.600   4.985   1.253  1.0188 -2.7218 -0.7315
   47MOL0     H 6313   6.543   5.147   1.028  1.8474 -0.6774 -1.5118
   47MOL0     H 6314   6.593   5.009   0.953  0.2016  0.9145  0.0187
   47MOL0     H 6315   6.345   5.039   0.997  2.6680  4.0631  0.0660
   47MOL0     H 6316   6.375   5.028   1.173  1.0341  1.7696 -0.1050
   47MOL0     H 6317   6.287   4.810   1.045 -0.3158 -0.4110  0.2721
   47MOL0     H 6318   6.420   4.821   0.931 -2.1736  0.4100 -0.2697
   47MOL0     H 6319   6.461   4.789   1.236 -0.2909 -0.4888  0.7920
   47MOL0     H 6320   6.578   4.769   1.110  0.4481  2.7500 -0.5485
   47MOL0     H 6321   6.451   4.556   1.042  0.3651  0.0668  0.1832
   47MOL0     H 6322   6.514   4.569   1.207 -0.6501  0.4274  0.0106
   47MOL0     H 6323   6.229   4.596   1.120  0.9644 -0.4948 -2.9425
   47MOL0     H 6324   6.297   4.640   1.281 -0.5737 -1.0717  0.5195
   47MOL0     H 6325   6.235   4.389   1.296  1.4911  0.8801  2.5060
   47MOL0     H 6326   6.410   4.413   1.290 -0.5379  0.3665 -0.2304
   47MOL0     H 6327   6.853   4.911   1.306 -1.0104 -1.2614 -1.0661
   47MOL0     H 6328   7.112   4.918   1.324  1.4375 -0.5792  0.5036
   47MOL0     H 6329   7.533   5.363   1.455 -2.0809  1.2685 -0.1634
   47MOL0     H 6330   7.754   5.426   1.364 -0.7965 -0.5447  0.3651
   47MOL0     H 6331   8.113   3.957   1.629 -0.7073  1.3297  1.0576
   47MOL0     H 6332   8.075   3.721   1.595  1.6706  2.0916  1.9447
   47MOL0     H 6333   7.733   3.397   1.942  0.6267  1.1397 -0.4431
   47MOL0     H 6334   7.701   3.149   1.956 -0.0629  3.0368  1.3027
   47MOL0     H 6335   7.620   2.971   1.572  1.2468 -1.7457 -2.8066
   47MOL0     H 6336   7.747   2.858   1.584 -0.3366  0.5611  0.3516
   47MOL0     H 6337   7.514   2.758   1.564 -1.0628  0.5131 -0.5454
   47MOL0     H 6338   7.481   2.832   1.721 -0.5745  3.0219 -2.0119
   47MOL0     H 6339   7.528   2.612   1.787 -1.4016 -2.3837 -1.9207
   47MOL0     H 6340   7.688   2.684   1.805 -1.7129  1.6466  0.6144
   47MOL0     H 6341   7.681   2.457   1.712 -0.7825  2.0043  3.2501
   47MOL0     H 6342   7.775   2.563   1.608  0.4729 -3.3853 -0.6287
   47MOL0     H 6343   7.429   2.426   1.390  0.6711 -1.5359  0.2771
   47MOL0     H 6344   7.769   3.124   1.532  1.7156  1.3867 -0.8523
   47MOL0     H 6345   7.808   3.361   1.526  0.8395  0.3409  0.1273
   48MOL0     O 6346   7.043   4.905   2.905 -0.5633 -0.7848  0.1433
   48MOL0     C 6347   7.028   4.961   2.796  0.7670  0.3619  0.4927
   48MOL0     O 6348   6.972   4.903   2.680  0.3158  0.2051 -0.1693
   48MOL0     C 6349   6.946   4.765   2.684 -0.4278 -0.0537  1.3214
   48MOL0     C 6350   6.872   4.697   2.784 -0.2043  1.4307  0.4820
   48MOL0     C 6351   6.859   4.566   2.787  0.1568 -0.3370  0.6941
   48MOL0     C 6352   6.922   4.486   2.689 -0.3764 -0.6419 -1.2448
   48MOL0     O 6353   6.920   4.348   2.711  0.1219 -0.1207  0.1536
   48MOL0     C 6354   7.036   4.276   2.687  0.5609  0.6097  0.6768
   48MOL0     C 6355   7.003   4.177   2.572 -0.2114  0.1386 -0.3041
   48MOL0     C 6356   7.113   4.076   2.559  0.4687 -0.2820 -0.7982
   48MOL0     C 6357   7.249   4.128   2.539  0.4962 -0.1945  0.3273
   48MOL0     C 6358   7.332   4.010   2.509 -1.1394 -0.7302  0.8035
   48MOL0     C 6359   7.342   3.919   2.634  1.1632  0.4383  0.5575
   48MOL0     C 6360   7.465   3.832   2.632 -1.1652 -0.0719  0.1870
   48MOL0     C 6361   7.475   3.784   2.777 -0.8100 -0.3713  0.8538
   48MOL0     N 6362   7.369   3.690   2.818  0.5316 -0.2248 -0.5169
   48MOL0     C 6363   7.337   3.572   2.756 -0.2488  0.3663 -0.2754
   48MOL0     C 6364   7.255   3.505   2.838  0.4140 -1.0590  0.8758
   48MOL0     C 6365   7.177   3.378   2.815  0.6170  0.1631  0.1073
   48MOL0     C 6366   7.029   3.380   2.859 -0.1118 -0.3506  0.4949
   48MOL0     C 6367   6.945   3.471   2.767 -0.3685 -0.0071  0.2695
   48MOL0     C 6368   6.807   3.457   2.803 -0.5948 -0.2318  0.5582
   48MOL0     O 6369   6.759   3.323   2.823  0.4188  0.0136 -0.3070
   48MOL0     C 6370   6.745   3.246   2.700  0.4950 -0.0136 -0.2737
   48MOL0     C 6371   6.711   3.289   2.569 -0.8370  0.0884 -0.5441
   48MOL0     C 6372   6.734   3.199   2.455  0.4761  0.3861  0.3593
   48MOL0     C 6373   6.700   3.237   2.314  0.1588 -0.9048 -1.2265
   48MOL0     C 6374   6.789   3.075   2.478 -0.1319 -0.3948  0.7007
   48MOL0     C 6375   6.831   2.987   2.368 -1.0123  0.1365  0.2842
   48MOL0     O 6376   6.784   2.867   2.373  0.7408  1.2392  0.0014
   48MOL0     C 6377   6.836   2.784   2.281  0.3123  0.9883  0.0878
   48MOL0     C 6378   6.930   2.696   2.319 -0.0793 -0.3912 -0.0835
   48MOL0     C 6379   6.990   2.613   2.227  0.2118  0.2205 -1.2673
   48MOL0     C 6380   6.974   2.637   2.093 -0.6851 -0.3098  0.1581
   48MOL0     O 6381   7.056   2.577   2.004 -0.3202 -0.4054 -0.5451
   48MOL0     C 6382   7.101   2.662   1.898 -1.8286  0.9432  0.0639
   48MOL0     C 6383   7.235   2.618   1.835  0.4962 -0.6469  0.3736
   48MOL0     C 6384   7.257   2.478   1.785  0.0627  0.4665 -0.1075
   48MOL0     C 6385   7.329   2.378   1.886 -0.2344 -0.4123  0.0626
   48MOL0     C 6386   7.339   2.253   1.811 -0.3116 -0.6159 -0.0904
   48MOL0     C 6387   7.287   2.136   1.888  0.0323  0.5613 -0.3423
   48MOL0     C 6388   7.248   2.020   1.795  0.3646 -0.0077 -0.3368
   48MOL0     C 6389   7.289   1.885   1.859  0.0768 -0.1941 -0.4503
   48MOL0    Cl 6390   7.218   1.852   2.015  0.3320  0.0189  0.0555
   48MOL0     C 6391   6.871   2.725   2.056  0.1274  0.9789  0.2770
   48MOL0     C 6392   6.801   2.796   2.147 -0.5303  0.2167  0.7191
   48MOL0     O 6393   6.921   3.022   2.300 -0.3957 -0.1786  0.0317
   48MOL0     C 6394   6.812   3.030   2.612 -0.4751  0.3388 -0.4840
   48MOL0     C 6395   6.790   3.114   2.719  0.3806  0.3829  0.9379
   48MOL0     N 6396   7.241   3.587   2.946 -0.2738  0.7303  0.8328
   48MOL0     N 6397   7.305   3.694   2.938 -0.6170 -0.6194 -0.3207
   48MOL0     C 6398   6.977   4.543   2.577  0.1159 -0.4939  0.0135
   48MOL0     C 6399   6.988   4.684   2.573  0.0173 -0.3620  0.2804
   48MOL0     C 6400   7.074   5.099   2.794  0.6194  0.2758 -0.4554
   48MOL0     C 6401   7.074   5.165   2.677  0.1513 -0.1602 -0.0933
   48MOL0     C 6402   7.121   5.296   2.676  0.6715 -0.1839 -0.5086
   48MOL0     C 6403   7.138   5.376   2.793 -0.9100 -0.3569  1.2384
   48MOL0     O 6404   7.158   5.517   2.791  0.1526 -0.2548 -0.1020
   48MOL0     C 6405   7.187   5.578   2.669  0.2614 -0.0957  0.5378
   48MOL0     C 6406   7.274   5.703   2.681 -0.5315 -0.1733 -0.0207
   48MOL0     C 6407   7.201   5.823   2.738 -0.2485  0.7838 -0.2366
   48MOL0     C 6408   7.263   5.963   2.727  0.5274  0.3300  0.8280
   48MOL0     C 6409   7.235   6.036   2.595  0.1430  0.0308  0.5296
   48MOL0     C 6410   7.200   6.111   2.507 -0.5127 -0.0757  0.0783
   48MOL0     C 6411   7.138   5.308   2.910  0.0320  1.0453  0.0052
   48MOL0     C 6412   7.113   5.170   2.910  0.7539 -0.8975 -0.3885
   48MOL0     H 6413   6.826   4.751   2.866 -2.7283  0.9990 -0.5337
   48MOL0     H 6414   6.800   4.519   2.864 -0.1493 -0.2149  0.5371
   48MOL0     H 6415   7.111   4.347   2.650  1.6757 -0.3585  1.0347
   48MOL0     H 6416   7.064   4.228   2.781  1.1200 -2.5353 -0.9541
   48MOL0     H 6417   6.906   4.126   2.578 -0.2362 -0.0614 -1.9574
   48MOL0     H 6418   7.013   4.240   2.483  1.5527  1.9351  1.0755
   48MOL0     H 6419   7.109   4.009   2.646 -0.8522 -1.5103 -1.7543
   48MOL0     H 6420   7.090   4.011   2.474  5.0018 -2.2069 -0.8064
   48MOL0     H 6421   7.235   4.201   2.458 -0.8484 -0.9014 -0.1145
   48MOL0     H 6422   7.294   4.187   2.619  2.3668  0.3955 -1.1066
   48MOL0     H 6423   7.309   3.963   2.413  1.3183 -1.3851  0.4665
   48MOL0     H 6424   7.430   4.053   2.488 -3.0257  3.3992 -0.4834
   48MOL0     H 6425   7.331   3.987   2.719 -1.8368  0.2274  0.4400
   48MOL0     H 6426   7.259   3.848   2.634  2.8859 -1.8928 -2.8563
   48MOL0     H 6427   7.460   3.760   2.550  1.7599 -1.6189  1.2269
   48MOL0     H 6428   7.546   3.898   2.602 -2.2621  0.3200 -2.1409
   48MOL0     H 6429   7.487   3.867   2.848 -2.1012  0.0738  0.5933
   48MOL0     H 6430   7.572   3.734   2.777  0.6743  2.2709 -1.0767
   48MOL0     H 6431   7.372   3.535   2.661 -0.6498  0.9470 -0.6527
   48MOL0     H 6432   7.182   3.344   2.711  2.1662  1.4956 -0.3049
   48MOL0     H 6433   7.227   3.311   2.886 -0.8193 -0.7377  0.3062
   48MOL0     H 6434   7.025   3.417   2.962 -0.8875 -0.6871  0.5931
   48MOL0     H 6435   6.989   3.279   2.853 -2.6719  0.6321 -0.2794
   48MOL0     H 6436   6.955   3.436   2.664  1.5317 -2.3270  1.1326
   48MOL0     H 6437   6.964   3.578   2.773  1.6693 -0.2465 -0.7902
   48MOL0     H 6438   6.742   3.516   2.738  1.0351  0.6408 -0.3470
   48MOL0     H 6439   6.790   3.512   2.896 -0.4418  1.4227 -0.3700
   48MOL0     H 6440   6.685   3.394   2.560  1.9710  1.3881  3.6887
   48MOL0     H 6441   6.792   3.285   2.281  1.6997 -4.3012 -2.3958
   48MOL0     H 6442   6.678   3.153   2.247 -0.0654 -0.4571 -1.7189
   48MOL0     H 6443   6.621   3.312   2.320  0.7052 -0.3386 -1.0835
   48MOL0     H 6444   6.958   2.696   2.424  2.6508 -1.1851 -0.7359
   48MOL0     H 6445   7.071   2.545   2.246  1.2836  2.0776  1.4241
   48MOL0     H 6446   7.030   2.648   1.817 -0.5833 -2.0143 -0.6598
   48MOL0     H 6447   7.112   2.763   1.939 -5.2248  0.6520  2.0700
   48MOL0     H 6448   7.257   2.695   1.760  0.1162 -1.1688 -0.2947
   48MOL0     H 6449   7.313   2.626   1.910  2.0107 -2.1457 -0.9503
   48MOL0     H 6450   7.319   2.479   1.695  2.4122 -3.3467  1.1982
   48MOL0     H 6451   7.156   2.439   1.767  0.5371 -0.3882 -1.0572
   48MOL0     H 6452   7.428   2.421   1.905 -0.3537  0.6624 -1.5736
   48MOL0     H 6453   7.260   2.374   1.971  1.7172 -0.0724  1.7515
   48MOL0     H 6454   7.445   2.236   1.788  1.2430  4.3135  2.0048
   48MOL0     H 6455   7.284   2.254   1.716  0.9983  1.8999 -0.9268
   48MOL0     H 6456   7.369   2.111   1.957 -2.2656  0.0044  2.3941
   48MOL0     H 6457   7.198   2.171   1.942 -0.1412 -0.0582 -0.2173
   48MOL0     H 6458   7.311   2.034   1.706 -0.3969 -0.5869 -0.9810
   48MOL0     H 6459   7.141   2.029   1.777  0.1891 -0.4784  0.4326
   48MOL0     H 6460   7.397   1.879   1.872 -0.0366  0.8990  1.3449
   48MOL0     H 6461   7.262   1.804   1.791  0.4228  0.6167 -1.5896
   48MOL0     H 6462   6.855   2.733   1.949  2.0927  0.4988 -0.0893
   48MOL0     H 6463   6.721   2.862   2.115 -1.6044 -2.0458 -1.6120
   48MOL0     H 6464   6.859   2.933   2.626  1.3414  0.2282 -5.4206
   48MOL0     H 6465   6.810   3.065   2.814  0.7457 -1.4948 -0.0635
   48MOL0     H 6466   7.013   4.489   2.491 -1.9962 -1.1197 -0.5429
   48MOL0     H 6467   7.039   4.735   2.492  2.1798 -1.5269  0.8239
   48MOL0     H 6468   7.047   5.110   2.587  1.4206 -2.7603  1.0022
   48MOL0     H 6469   7.135   5.337   2.577 -0.7224 -0.0587 -0.6820
   48MOL0     H 6470   7.237   5.512   2.598 -3.8032 -0.6092 -2.1755
   48MOL0     H 6471   7.084   5.594   2.636 -0.0032  1.0076  1.7937
   48MOL0     H 6472   7.317   5.726   2.583  3.3080 -1.4942  1.1743
   48MOL0     H 6473   7.353   5.670   2.749 -1.6574 -1.3066  0.7646
   48MOL0     H 6474   7.199   5.795   2.844  1.0999 -0.3959 -0.4954
   48MOL0     H 6475   7.096   5.816   2.709  0.6568 -2.2704 -3.3576
   48MOL0     H 6476   7.371   5.948   2.738 -0.0362 -3.6647  2.7007
   48MOL0     H 6477   7.238   6.016   2.820 -0.0583  1.2802  0.1380
   48MOL0     H 6478   7.191   6.190   2.436 -1.4549 -0.2890 -0.0589
   48MOL0     H 6479   7.186   5.351   2.998  1.2569  1.4805 -0.8397
   48MOL0     H 6480   7.126   5.133   3.011  0.4489  0.0034 -0.0050
   49MOL0     O 6481   9.033   4.078   0.230  0.1642  0.5799 -0.4626
   49MOL0     C 6482   9.127   4.112   0.300  0.0629  1.1155 -0.1010
   49MOL0     O 6483   9.197   4.025   0.374  0.3778 -0.2470 -0.0707
   49MOL0     C 6484   9.156   3.898   0.418  0.0664 -0.2492 -0.0659
   49MOL0     C 6485   9.026   3.853   0.439 -0.2169 -0.8848  1.2472
   49MOL0     C 6486   9.007   3.722   0.480 -0.1073  0.1496 -1.3193
   49MOL0     C 6487   9.112   3.635   0.506  0.5970  0.2012  0.4511
   49MOL0     O 6488   9.078   3.507   0.529  0.2786 -0.4942  0.3276
   49MOL0     C 6489   9.190   3.410   0.559  0.0097  0.8267 -0.8833
   49MOL0     C 6490   9.234   3.441   0.705 -0.4479  0.5601  0.4270
   49MOL0     C 6491   9.360   3.380   0.736 -0.0184  0.0337 -0.0853
   49MOL0     C 6492   9.391   3.360   0.883 -0.9846  0.5285  0.6423
   49MOL0     C 6493   9.539   3.311   0.906 -0.2559  0.1934 -0.4746
   49MOL0     C 6494   9.542   3.158   0.920 -0.8713 -0.0277  0.2315
   49MOL0     C 6495   9.680   3.099   0.959 -0.1860 -0.4363 -0.1815
   49MOL0     C 6496   9.685   2.976   1.056 -0.1542 -0.1445 -1.2473
   49MOL0     N 6497   9.591   2.875   1.023 -0.0959  0.2223 -0.2581
   49MOL0     C 6498   9.606   2.786   0.919  0.5996  0.3510  0.2292
   49MOL0     C 6499   9.521   2.684   0.951 -0.3357  0.2948 -0.2040
   49MOL0     C 6500   9.494   2.558   0.869 -0.2162 -0.9401  0.1256
   49MOL0     C 6501   9.489   2.424   0.944 -0.8581 -0.2676  0.0636
   49MOL0     C 6502   9.603   2.404   1.052  0.5287  0.6354  1.4114
   49MOL0     C 6503   9.562   2.281   1.132 -0.1365 -0.8943 -1.1098
   49MOL0     O 6504   9.664   2.219   1.220 -0.4884  0.7964  0.6959
   49MOL0     C 6505   9.611   2.128   1.309 -0.5476  0.3309 -0.4037
   49MOL0     C 6506   9.702   2.057   1.382 -0.4043  0.2724 -0.4379
   49MOL0     C 6507   9.673   1.950   1.466  0.2514 -0.5639 -0.6601
   49MOL0     C 6508   9.791   1.881   1.541  0.7843 -0.3262 -1.0502
   49MOL0     C 6509   9.536   1.925   1.499  0.5047 -0.0804  0.1011
   49MOL0     C 6510   9.482   1.831   1.598 -0.8780  0.0827 -0.5767
   49MOL0     O 6511   9.366   1.864   1.662  0.1361  0.2773 -0.4847
   49MOL0     C 6512   9.276   1.769   1.720 -0.5896  0.0972 -0.7246
   49MOL0     C 6513   9.337   1.692   1.818 -0.1545 -0.4927  0.3702
   49MOL0     C 6514   9.260   1.618   1.910  0.2409 -0.1079  0.5878
   49MOL0     C 6515   9.119   1.612   1.895 -0.2074  0.3006  0.3186
   49MOL0     O 6516   9.040   1.520   1.965  0.9162 -0.3757 -0.2402
   49MOL0     C 6517   9.081   1.468   2.093  0.2694 -1.0049 -0.4218
   49MOL0     C 6518   9.115   1.573   2.207 -1.3103 -0.1339  0.4926
   49MOL0     C 6519   9.201   1.521   2.328  0.5634 -0.6509 -0.9416
   49MOL0     C 6520   9.344   1.472   2.296 -0.2569 -0.1598 -0.0020
   49MOL0     C 6521   9.426   1.449   2.428  0.0252 -0.1386  1.0128
   49MOL0     C 6522   9.569   1.418   2.395 -0.3123 -0.1577 -0.1501
   49MOL0     C 6523   9.667   1.530   2.358  0.5776  0.8428 -0.0647
   49MOL0     C 6524   9.687   1.623   2.481  0.2661  0.1683  0.4993
   49MOL0    Cl 6525   9.838   1.719   2.451  0.2871 -0.2636  0.2725
   49MOL0     C 6526   9.062   1.678   1.794 -1.4042 -0.4068  0.6795
   49MOL0     C 6527   9.142   1.764   1.709 -0.0785 -0.5232  0.5214
   49MOL0     O 6528   9.535   1.726   1.603  0.7675  0.1719 -0.3966
   49MOL0     C 6529   9.436   1.995   1.430  0.2118  0.0514  0.3396
   49MOL0     C 6530   9.476   2.097   1.337  0.4402 -0.0114  0.1727
   49MOL0     N 6531   9.444   2.709   1.056 -0.2072 -0.4562 -0.5371
   49MOL0     N 6532   9.491   2.826   1.100  0.0672 -0.2304  1.2303
   49MOL0     C 6533   9.240   3.690   0.507  0.0442 -0.9204  0.3932
   49MOL0     C 6534   9.262   3.817   0.458  0.3932  0.3877  0.2339
   49MOL0     C 6535   9.167   4.255   0.300 -1.0051 -0.0580 -0.7052
   49MOL0     C 6536   9.094   4.354   0.234  0.2653 -0.3634  1.2933
   49MOL0     C 6537   9.118   4.494   0.257 -0.6204  0.1913  0.1425
   49MOL0     C 6538   9.215   4.536   0.351  0.6333  0.7906 -0.4154
   49MOL0     O 6539   9.226   4.672   0.384 -0.2112  0.9379 -0.2269
   49MOL0     C 6540   9.339   4.712   0.470 -0.2725 -0.1514  0.0297
   49MOL0     C 6541   9.349   4.865   0.477 -0.2240 -0.0824 -0.1032
   49MOL0     C 6542   9.349   4.929   0.336  0.4425  0.9764  0.4814
   49MOL0     C 6543   9.467   4.894   0.244  0.0493  0.7139 -0.1457
   49MOL0     C 6544   9.590   4.846   0.312 -0.4183  0.3645 -0.8764
   49MOL0     C 6545   9.696   4.824   0.361  0.1995 -0.4099 -0.2883
   49MOL0     C 6546   9.292   4.424   0.413  0.5026 -1.1883 -0.2721
   49MOL0     C 6547   9.276   4.286   0.388  0.1605  0.0831  0.7359
   49MOL0     H 6548   8.959   3.928   0.401  1.4573 -1.3050 -3.1794
   49MOL0     H 6549   8.908   3.689   0.510  0.2905 -0.2125 -0.3567
   49MOL0     H 6550   9.144   3.313   0.540  1.1375  0.8205 -4.3562
   49MOL0     H 6551   9.274   3.412   0.488 -0.5767  0.6278 -1.6017
   49MOL0     H 6552   9.255   3.548   0.716  0.1491  0.3740  1.1230
   49MOL0     H 6553   9.161   3.407   0.778 -1.4459 -3.6905 -2.1716
   49MOL0     H 6554   9.369   3.277   0.700 -0.0380  0.1035 -0.2893
   49MOL0     H 6555   9.436   3.438   0.683 -1.3580  1.3891 -0.5965
   49MOL0     H 6556   9.379   3.456   0.933 -0.3129  1.2074 -0.4614
   49MOL0     H 6557   9.329   3.281   0.928  1.3438 -0.6256  2.0299
   49MOL0     H 6558   9.611   3.345   0.832  3.1501 -0.1761  2.4328
   49MOL0     H 6559   9.562   3.367   0.997 -2.4812  0.7219 -0.1555
   49MOL0     H 6560   9.479   3.130   1.004  0.0857  0.3419  1.0862
   49MOL0     H 6561   9.502   3.115   0.828 -1.8176 -1.2738  1.1914
   49MOL0     H 6562   9.742   3.086   0.870  0.7121  1.4378  0.1213
   49MOL0     H 6563   9.734   3.183   1.003 -0.9859  1.7756 -3.1523
   49MOL0     H 6564   9.689   2.998   1.163  0.0388 -2.6495 -0.6684
   49MOL0     H 6565   9.783   2.931   1.037  0.0955 -1.4965  2.4383
   49MOL0     H 6566   9.688   2.786   0.848  0.1702  2.7494 -0.3718
   49MOL0     H 6567   9.398   2.568   0.818 -0.9158 -0.8602  1.4291
   49MOL0     H 6568   9.569   2.555   0.789 -0.6423  2.3435 -0.5192
   49MOL0     H 6569   9.504   2.339   0.877  3.2993 -0.3332  0.8282
   49MOL0     H 6570   9.395   2.425   1.000 -0.3880 -0.3551  0.8645
   49MOL0     H 6571   9.598   2.493   1.115  0.7073  2.6047 -1.1900
   49MOL0     H 6572   9.704   2.390   1.012  0.0546  0.8268  0.0904
   49MOL0     H 6573   9.526   2.201   1.066 -1.2853 -1.4121  0.0688
   49MOL0     H 6574   9.483   2.326   1.193  0.2390  0.6724 -1.7270
   49MOL0     H 6575   9.805   2.074   1.353  0.3522 -0.5668  1.5953
   49MOL0     H 6576   9.809   1.791   1.482 -3.4400 -1.5396 -0.8405
   49MOL0     H 6577   9.868   1.958   1.548  0.7966 -0.4575  0.4589
   49MOL0     H 6578   9.776   1.867   1.648  4.3277  2.3915 -0.0160
   49MOL0     H 6579   9.445   1.698   1.826 -0.1353 -0.9900  0.5413
   49MOL0     H 6580   9.314   1.575   1.994 -1.6209 -0.0868  1.8792
   49MOL0     H 6581   9.019   1.389   2.137  2.4874 -1.9545  1.1793
   49MOL0     H 6582   9.169   1.404   2.084 -0.4739 -2.4109  1.5840
   49MOL0     H 6583   9.152   1.668   2.166 -4.4071  1.0713  0.1962
   49MOL0     H 6584   9.025   1.604   2.261 -1.2895 -0.0626  0.4871
   49MOL0     H 6585   9.140   1.444   2.375 -1.4396  2.2049  1.4986
   49MOL0     H 6586   9.214   1.604   2.398 -1.2314  0.6908 -2.1195
   49MOL0     H 6587   9.347   1.378   2.241 -1.1763 -1.1172  1.5011
   49MOL0     H 6588   9.383   1.556   2.239 -2.6908  0.6389 -0.6180
   49MOL0     H 6589   9.381   1.365   2.482  2.3991 -0.8561  1.9877
   49MOL0     H 6590   9.427   1.536   2.495  3.9152 -0.5335  1.7075
   49MOL0     H 6591   9.614   1.385   2.489  3.1822  0.6221 -1.4034
   49MOL0     H 6592   9.580   1.337   2.321 -3.6552 -0.9536  0.0559
   49MOL0     H 6593   9.637   1.580   2.266  0.9214 -3.0865 -2.5484
   49MOL0     H 6594   9.761   1.479   2.333  1.9905  1.8284  2.7447
   49MOL0     H 6595   9.707   1.582   2.580  0.9548  0.4022  0.4675
   49MOL0     H 6596   9.594   1.680   2.486  0.2839  0.2898 -0.3779
   49MOL0     H 6597   8.955   1.657   1.795 -0.9616 -2.8889  0.1938
   49MOL0     H 6598   9.090   1.815   1.628  0.5044 -1.7466 -0.6583
   49MOL0     H 6599   9.329   1.982   1.439  0.2001 -2.9414 -2.3741
   49MOL0     H 6600   9.393   2.155   1.298  0.1746 -0.2160  0.4167
   49MOL0     H 6601   9.324   3.624   0.527  0.0803 -0.9027  0.3007
   49MOL0     H 6602   9.364   3.850   0.443  0.7797  0.9338  3.4716
   49MOL0     H 6603   9.005   4.336   0.174  2.4124  0.8752 -2.5916
   49MOL0     H 6604   9.056   4.559   0.196 -0.5367  0.7692  0.6715
   49MOL0     H 6605   9.331   4.663   0.567 -0.0725 -0.4895 -0.1245
   49MOL0     H 6606   9.432   4.686   0.420  1.0473  1.7221  1.3705
   49MOL0     H 6607   9.440   4.877   0.537 -0.4779 -3.0642  1.0621
   49MOL0     H 6608   9.264   4.908   0.531  1.0122  1.2712  0.8587
   49MOL0     H 6609   9.352   5.038   0.349  1.1267  1.0763 -0.4680
   49MOL0     H 6610   9.258   4.896   0.286  0.4810 -2.7388  2.5249
   49MOL0     H 6611   9.494   4.983   0.187  1.8240 -1.0764 -2.2935
   49MOL0     H 6612   9.427   4.813   0.181  1.4866 -0.6309  0.5943
   49MOL0     H 6613   9.801   4.804   0.376  0.0726 -0.3090  0.8271
   49MOL0     H 6614   9.349   4.452   0.501 -1.7614 -1.0040  1.2399
   49MOL0     H 6615   9.338   4.214   0.440  0.3053  0.4866  1.1280
   50MOL0     O 6616   6.598   7.308   9.581  0.5016  0.5803  0.0309
   50MOL0     C 6617   6.494   7.270   9.528  0.3210  0.6835  0.1928
   50MOL0     O 6618   6.485   7.192   9.417  1.1457  0.1041 -0.2951
   50MOL0     C 6619   6.592   7.144   9.353  0.3035  0.1254 -0.0765
   50MOL0     C 6620   6.714   7.204   9.343 -0.1986 -0.5971  0.7662
   50MOL0     C 6621   6.828   7.147   9.282  0.3882  0.7741 -0.7647
   50MOL0     C 6622   6.817   7.021   9.231 -0.5001 -0.8212  0.5080
   50MOL0     O 6623   6.916   6.971   9.155 -0.7017  0.2589  0.4279
   50MOL0     C 6624   7.051   6.999   9.171 -1.1483 -0.0495 -0.3277
   50MOL0     C 6625   7.117   6.943   9.036 -0.2706 -0.9723  0.0581
   50MOL0     C 6626   7.109   6.795   9.001  1.0560  0.4114 -0.1056
   50MOL0     C 6627   7.148   6.719   9.130 -0.2385  0.5618  0.0440
   50MOL0     C 6628   7.164   6.563   9.073  0.8169 -0.6533  0.1696
   50MOL0     C 6629   7.210   6.455   9.176 -0.5043  0.1752 -0.5731
   50MOL0     C 6630   7.166   6.303   9.133 -0.6031  0.1498 -0.4271
   50MOL0     C 6631   7.227   6.190   9.215  0.3432 -1.0736 -0.5268
   50MOL0     N 6632   7.181   6.068   9.170 -0.4024 -0.0958  0.6582
   50MOL0     C 6633   7.055   6.036   9.145 -0.8049  0.5954  0.0045
   50MOL0     C 6634   7.058   5.918   9.073 -0.5703 -0.7124  0.4177
   50MOL0     C 6635   6.940   5.850   8.996  0.4618 -1.0698  0.5564
   50MOL0     C 6636   6.901   5.911   8.856 -0.2036  0.3790  0.9616
   50MOL0     C 6637   7.014   5.902   8.751 -0.2114  0.3040 -0.1186
   50MOL0     C 6638   6.981   5.973   8.614 -0.5922  0.3692  0.5776
   50MOL0     O 6639   7.075   5.940   8.504 -0.5329 -0.5650 -1.0168
   50MOL0     C 6640   7.165   6.032   8.445  0.5260  0.5085 -0.4005
   50MOL0     C 6641   7.194   6.157   8.485  0.1634 -0.0930 -0.2426
   50MOL0     C 6642   7.272   6.246   8.420 -0.3792  1.0080  0.4976
   50MOL0     C 6643   7.268   6.390   8.467  0.6290 -0.4127 -0.6000
   50MOL0     C 6644   7.338   6.197   8.302  0.4644 -0.3379 -0.9505
   50MOL0     C 6645   7.426   6.284   8.217 -0.0144 -0.2904 -0.5867
   50MOL0     O 6646   7.402   6.278   8.089 -0.6324 -0.0058  0.1253
   50MOL0     C 6647   7.487   6.330   7.997  0.8305 -0.5106 -0.2065
   50MOL0     C 6648   7.517   6.465   7.995  0.4053 -0.1600  0.1482
   50MOL0     C 6649   7.574   6.525   7.885 -0.0185  0.7827 -0.2122
   50MOL0     C 6650   7.619   6.447   7.782  0.1594  0.1442  0.2999
   50MOL0     O 6651   7.699   6.501   7.685 -0.0210  0.1194 -0.6541
   50MOL0     C 6652   7.769   6.428   7.588 -0.1114  0.2461  0.7062
   50MOL0     C 6653   7.807   6.521   7.475 -0.3848  0.1345  0.6251
   50MOL0     C 6654   7.869   6.443   7.356  0.2153  0.5686 -0.4742
   50MOL0     C 6655   7.869   6.507   7.219 -0.5198  0.2914  0.0187
   50MOL0     C 6656   7.924   6.419   7.105 -1.8468 -0.3758  0.4290
   50MOL0     C 6657   8.076   6.382   7.136  0.0560  0.5206 -0.4983
   50MOL0     C 6658   8.143   6.314   7.014  0.1272 -0.2577 -0.0921
   50MOL0     C 6659   8.275   6.390   6.979  0.2169 -0.3720 -0.0702
   50MOL0    Cl 6660   8.383   6.450   7.112 -0.3473 -0.4158  0.0061
   50MOL0     C 6661   7.577   6.312   7.774  1.0892 -0.9423  0.5508
   50MOL0     C 6662   7.518   6.254   7.888 -0.0213 -0.0027  0.4367
   50MOL0     O 6663   7.507   6.354   8.271 -0.3249 -0.7619  0.5213
   50MOL0     C 6664   7.319   6.069   8.262 -0.1888  0.2237 -0.5043
   50MOL0     C 6665   7.239   5.983   8.337  0.3454 -0.0156  0.0603
   50MOL0     N 6666   7.188   5.880   9.064 -0.0234  0.1568 -0.1918
   50MOL0     N 6667   7.263   5.974   9.120  0.4948  0.2837  0.3477
   50MOL0     C 6668   6.692   6.952   9.245 -0.1601 -0.2524  0.0584
   50MOL0     C 6669   6.587   7.021   9.291  0.4437  0.9361 -0.1302
   50MOL0     C 6670   6.369   7.320   9.571 -1.0442  1.0260  0.2567
   50MOL0     C 6671   6.366   7.386   9.699  0.1379  0.3437  0.7490
   50MOL0     C 6672   6.238   7.436   9.744  0.2204 -0.5427  0.9554
   50MOL0     C 6673   6.128   7.437   9.658 -0.1994  0.1941 -0.7738
   50MOL0     O 6674   6.008   7.486   9.717 -0.2982 -1.2004  0.1068
   50MOL0     C 6675   5.887   7.427   9.684 -0.5674  0.6381 -0.8570
   50MOL0     C 6676   5.801   7.440   9.806 -0.0542  0.5656  0.1985
   50MOL0     C 6677   5.857   7.354   9.927  0.2312  0.5084 -0.1069
   50MOL0     C 6678   5.826   7.204   9.911 -0.7350 -0.4152  0.1008
   50MOL0     C 6679   5.680   7.187   9.936 -0.3847 -0.4627  0.1786
   50MOL0     C 6680   5.562   7.158   9.936 -0.1490  0.4636 -0.2554
   50MOL0     C 6681   6.135   7.380   9.538  0.0491  0.6046 -0.7939
   50MOL0     C 6682   6.248   7.316   9.494 -0.5415 -0.9277 -0.0219
   50MOL0     H 6683   6.719   7.310   9.367  1.3986 -0.7750  1.3443
   50MOL0     H 6684   6.911   7.214   9.266  0.9646  0.6038  1.2062
   50MOL0     H 6685   7.061   7.108   9.168  2.9717 -0.2159 -4.3411
   50MOL0     H 6686   7.103   6.951   9.254 -0.7043  0.5654 -0.2419
   50MOL0     H 6687   7.088   7.010   8.955 -0.5955 -0.9446  0.1939
   50MOL0     H 6688   7.221   6.974   9.033 -0.4369 -0.4329 -0.2764
   50MOL0     H 6689   7.008   6.763   8.976  0.8342 -0.0998  1.3234
   50MOL0     H 6690   7.180   6.780   8.919  0.1353 -0.2551 -0.8026
   50MOL0     H 6691   7.247   6.756   9.158  0.1774  0.6956 -1.5132
   50MOL0     H 6692   7.077   6.732   9.212 -0.5027 -0.9869  0.0915
   50MOL0     H 6693   7.069   6.532   9.027  2.6887 -2.3512 -2.8866
   50MOL0     H 6694   7.245   6.568   9.000  2.4286 -1.1987  1.8620
   50MOL0     H 6695   7.319   6.461   9.186 -0.3660 -1.4998 -0.8824
   50MOL0     H 6696   7.165   6.489   9.270 -1.6352  2.4990 -1.8713
   50MOL0     H 6697   7.057   6.297   9.141 -0.7358 -1.4857 -2.4737
   50MOL0     H 6698   7.195   6.292   9.028  1.6695 -4.5612  0.3876
   50MOL0     H 6699   7.206   6.201   9.322  2.4149  2.7717 -0.3737
   50MOL0     H 6700   7.336   6.192   9.211  0.5444  3.1355  1.9079
   50MOL0     H 6701   6.965   6.094   9.162 -2.1839 -1.3619 -0.3975
   50MOL0     H 6702   6.950   5.743   8.980  2.5979 -0.7200 -0.8239
   50MOL0     H 6703   6.851   5.862   9.058 -0.0791 -1.4498 -0.1318
   50MOL0     H 6704   6.862   6.011   8.876 -0.2601  0.0905  2.3880
   50MOL0     H 6705   6.820   5.850   8.814  1.7920 -0.9959 -1.2095
   50MOL0     H 6706   7.026   5.794   8.742  0.8259  0.3898  0.1472
   50MOL0     H 6707   7.106   5.941   8.794  0.3528  1.3452 -2.1442
   50MOL0     H 6708   6.967   6.081   8.620 -1.3622  0.2719  0.6581
   50MOL0     H 6709   6.891   5.922   8.579  0.1622 -2.0933  2.0215
   50MOL0     H 6710   7.138   6.188   8.573 -1.2069 -2.0630 -0.3484
   50MOL0     H 6711   7.173   6.409   8.518  1.0048 -1.8993  0.7316
   50MOL0     H 6712   7.354   6.416   8.529  2.2898 -2.0311 -2.0821
   50MOL0     H 6713   7.278   6.460   8.383  2.1478 -0.5530 -0.5547
   50MOL0     H 6714   7.483   6.532   8.073 -2.2770 -0.0752 -0.9929
   50MOL0     H 6715   7.612   6.626   7.872 -0.8586  1.4534  2.1023
   50MOL0     H 6716   7.867   6.392   7.623 -1.3928 -4.6097  0.0089
   50MOL0     H 6717   7.721   6.336   7.555  0.0287 -0.0604  1.3354
   50MOL0     H 6718   7.720   6.573   7.436 -1.1475 -0.7531  1.1103
   50MOL0     H 6719   7.877   6.596   7.512  0.5620 -0.3517 -0.1035
   50MOL0     H 6720   7.812   6.350   7.347 -1.6384  1.3795  1.7351
   50MOL0     H 6721   7.970   6.429   7.396  1.0770  3.3872 -1.4717
   50MOL0     H 6722   7.765   6.530   7.196 -0.2858  0.3652 -1.0369
   50MOL0     H 6723   7.930   6.597   7.231 -1.5800  0.9049  0.8910
   50MOL0     H 6724   7.921   6.462   7.005  1.9555 -2.3723 -0.7456
   50MOL0     H 6725   7.870   6.324   7.099 -0.7547 -1.0042  0.3894
   50MOL0     H 6726   8.127   6.478   7.144  3.9460 -1.3286 -0.7295
   50MOL0     H 6727   8.093   6.322   7.226  2.9103  1.1358 -0.5310
   50MOL0     H 6728   8.072   6.309   6.932  0.0196  2.3838 -0.2613
   50MOL0     H 6729   8.174   6.212   7.041  2.0072  0.2721 -0.0722
   50MOL0     H 6730   8.258   6.474   6.912  1.3748 -1.3601 -1.6603
   50MOL0     H 6731   8.340   6.327   6.919  2.0970  1.3930  0.0095
   50MOL0     H 6732   7.607   6.240   7.698 -0.9904 -1.6015  0.2799
   50MOL0     H 6733   7.493   6.149   7.875 -0.8387  0.3508 -0.9843
   50MOL0     H 6734   7.380   6.041   8.177 -0.3952 -0.3925 -0.4567
   50MOL0     H 6735   7.239   5.877   8.312 -2.9789 -0.5517  1.8036
   50MOL0     H 6736   6.671   6.847   9.224 -0.5360 -0.3823  1.0645
   50MOL0     H 6737   6.485   6.986   9.285 -0.1056  2.0578  1.7773
   50MOL0     H 6738   6.456   7.388   9.760  0.1906 -0.2428  0.7030
   50MOL0     H 6739   6.235   7.478   9.844  0.0728  4.3821 -0.8599
   50MOL0     H 6740   5.842   7.457   9.588 -0.6750  0.7955 -0.7585
   50MOL0     H 6741   5.913   7.321   9.681 -2.1506  0.0778  2.1228
   50MOL0     H 6742   5.698   7.422   9.774  0.0376 -0.0638  0.2396
   50MOL0     H 6743   5.796   7.545   9.836  1.3180  0.2669  1.6207
   50MOL0     H 6744   5.798   7.383  10.015  0.5067  0.1713  0.1898
   50MOL0     H 6745   5.963   7.378   9.940  0.4683 -0.7921  0.4591
   50MOL0     H 6746   5.879   7.144   9.986  1.6096 -0.9851 -1.8705
   50MOL0     H 6747   5.856   7.162   9.814 -0.5195  0.7127 -0.3302
   50MOL0     H 6748   5.457   7.138   9.944  0.1283 -0.8073  0.4186
   50MOL0     H 6749   6.036   7.369   9.495 -0.9679  3.1351  0.6483
   50MOL0     H 6750   6.242   7.267   9.397  4.3631 -1.2466 -0.4178
   51MOL0     O 6751   9.718   2.669   8.033 -0.0774 -0.2838  0.1855
   51MOL0     C 6752   9.691   2.626   8.143 -0.1837  0.1347  0.2937
   51MOL0     O 6753   9.658   2.493   8.168  0.6287  0.4149  0.1599
   51MOL0     C 6754   9.621   2.401   8.078 -0.7042 -0.1282 -0.2615
   51MOL0     C 6755   9.697   2.357   7.976  0.1552  0.3856 -0.6454
   51MOL0     C 6756   9.643   2.267   7.881  0.6109  0.7581 -0.2244
   51MOL0     C 6757   9.508   2.234   7.881  0.1027  0.1682  0.5243
   51MOL0     O 6758   9.450   2.143   7.796 -0.0709 -0.3825 -0.0215
   51MOL0     C 6759   9.498   2.114   7.666 -0.2110  0.5943  0.3176
   51MOL0     C 6760   9.572   1.977   7.657 -0.5720 -0.6354  0.8436
   51MOL0     C 6761   9.615   1.934   7.508 -0.1498 -0.4483 -1.2572
   51MOL0     C 6762   9.686   1.796   7.506 -1.0594  0.1393 -0.3226
   51MOL0     C 6763   9.703   1.741   7.357 -0.3949 -0.0541 -0.9622
   51MOL0     C 6764   9.796   1.830   7.272 -0.2768 -0.0796 -0.8682
   51MOL0     C 6765   9.781   1.798   7.127  0.9185 -0.6683 -0.1414
   51MOL0     C 6766   9.833   1.661   7.081 -0.1106 -0.0400 -0.4763
   51MOL0     N 6767   9.974   1.649   7.114  0.2079  0.1930  0.1393
   51MOL0     C 6768  10.020   1.565   7.212 -0.0676  0.7863 -0.4544
   51MOL0     C 6769  10.158   1.582   7.214  0.1740 -1.0497 -0.2638
   51MOL0     C 6770  10.258   1.499   7.290 -0.4645 -0.1788  0.6426
   51MOL0     C 6771  10.402   1.476   7.229 -0.8220 -0.2667 -0.4629
   51MOL0     C 6772  10.393   1.412   7.095 -0.4800  1.0099  0.1374
   51MOL0     C 6773  10.518   1.344   7.043  0.6021  1.2179 -0.3298
   51MOL0     O 6774  10.535   1.229   7.121 -0.4245  0.3507 -0.6100
   51MOL0     C 6775  10.649   1.155   7.128  0.3514 -0.7671 -1.0902
   51MOL0     C 6776  10.643   1.058   7.228  0.6694  0.2130  0.1464
   51MOL0     C 6777  10.737   0.953   7.242  0.3273 -0.2416 -0.0272
   51MOL0     C 6778  10.720   0.856   7.356  0.8904  0.0280  0.2010
   51MOL0     C 6779  10.845   0.946   7.137  0.0120 -0.0830 -0.6694
   51MOL0     C 6780  10.954   0.831   7.139  1.2691 -0.9879  1.0370
   51MOL0     O 6781  10.959   0.730   7.237  0.1818  0.3472  0.3182
   51MOL0     C 6782  11.044   0.616   7.225 -0.1317  0.5231 -0.9846
   51MOL0     C 6783  11.102   0.564   7.111 -0.6942 -0.0629  0.1914
   51MOL0     C 6784  11.179   0.451   7.125 -0.8055 -0.1158 -0.5482
   51MOL0     C 6785  11.200   0.387   7.245  0.1489  0.3236  0.3512
   51MOL0     O 6786  11.280   0.277   7.249  0.3722  0.6606 -0.7068
   51MOL0     C 6787  11.368   0.251   7.365  0.4767  0.6133  0.1248
   51MOL0     C 6788  11.326   0.153   7.483 -0.7943 -0.9163  0.5999
   51MOL0     C 6789  11.246   0.025   7.427 -0.4667 -0.2118 -1.0466
   51MOL0     C 6790  11.341  -0.099   7.434 -0.8457 -1.0733  0.3045
   51MOL0     C 6791  11.255  -0.220   7.427 -0.0700  0.2330 -0.4603
   51MOL0     C 6792  11.174  -0.255   7.554 -0.7207  0.8018  0.2068
   51MOL0     C 6793  11.129  -0.402   7.556  0.4938  0.6310  0.5085
   51MOL0     C 6794  11.004  -0.415   7.654 -0.2669  0.4899  1.0759
   51MOL0    Cl 6795  10.849  -0.357   7.594  0.0410  0.3840  0.2688
   51MOL0     C 6796  11.132   0.428   7.352  0.6028  0.0961 -0.2098
   51MOL0     C 6797  11.052   0.549   7.345 -0.4482 -0.2669  0.9038
   51MOL0     O 6798  11.039   0.844   7.052  0.2001 -0.2387  0.3411
   51MOL0     C 6799  10.834   1.042   7.033  0.1457  0.2524 -1.0802
   51MOL0     C 6800  10.744   1.143   7.030 -0.1628 -1.1007 -0.5310
   51MOL0     N 6801  10.188   1.680   7.129  0.3013  1.0228  0.2400
   51MOL0     N 6802  10.077   1.722   7.068 -0.1364  0.0387 -0.1080
   51MOL0     C 6803   9.426   2.281   7.980  0.3775 -0.1184  0.1739
   51MOL0     C 6804   9.479   2.367   8.073  0.0540 -0.4400  0.5377
   51MOL0     C 6805   9.683   2.709   8.265  0.1991 -0.4932  0.5851
   51MOL0     C 6806   9.685   2.847   8.250  0.5494  0.1462 -0.3346
   51MOL0     C 6807   9.663   2.931   8.370  0.0031 -0.5332  0.2516
   51MOL0     C 6808   9.615   2.882   8.489  0.2974  0.1203 -0.5651
   51MOL0     O 6809   9.572   2.948   8.602  0.6375  0.3561 -0.9131
   51MOL0     C 6810   9.541   3.089   8.601 -0.6794 -0.3798  0.1507
   51MOL0     C 6811   9.647   3.192   8.664  0.5232 -0.2140 -1.0208
   51MOL0     C 6812   9.789   3.173   8.617 -0.0669 -0.3526 -0.4375
   51MOL0     C 6813   9.865   3.309   8.614 -0.1188  0.6913  0.2527
   51MOL0     C 6814   9.997   3.284   8.565  0.4953 -1.1661 -0.3849
   51MOL0     C 6815  10.100   3.245   8.519 -1.0706  0.2787  0.7307
   51MOL0     C 6816   9.625   2.737   8.495 -0.0821  0.0265 -0.2831
   51MOL0     C 6817   9.655   2.653   8.390 -0.4423 -0.2057  0.9927
   51MOL0     H 6818   9.801   2.387   7.970 -0.0250  0.7625 -2.2891
   51MOL0     H 6819   9.728   2.217   7.835 -0.2498 -1.4282  0.4762
   51MOL0     H 6820   9.407   2.108   7.605 -1.2185  0.6445  1.7782
   51MOL0     H 6821   9.568   2.189   7.627  1.8297 -1.0724  0.5681
   51MOL0     H 6822   9.651   1.965   7.731  3.5489 -0.4338 -3.1064
   51MOL0     H 6823   9.493   1.907   7.685 -2.6693  0.0194 -2.7863
   51MOL0     H 6824   9.529   1.928   7.440 -0.0043 -0.8382 -1.4137
   51MOL0     H 6825   9.688   2.008   7.474 -0.2789  0.2650 -0.0211
   51MOL0     H 6826   9.785   1.809   7.551 -1.4065 -0.4571  0.6399
   51MOL0     H 6827   9.628   1.720   7.560  2.1033 -2.2548  0.0050
   51MOL0     H 6828   9.756   1.645   7.353  1.7950  1.0531 -0.0553
   51MOL0     H 6829   9.605   1.718   7.314  0.0171 -0.4390 -1.7288
   51MOL0     H 6830   9.766   1.934   7.291 -0.9683 -0.1904 -1.3216
   51MOL0     H 6831   9.899   1.820   7.305  0.3156  2.9014 -1.5050
   51MOL0     H 6832   9.676   1.797   7.097  0.5763 -1.3928  1.0113
   51MOL0     H 6833   9.828   1.878   7.068 -0.4262 -1.9555 -3.1800
   51MOL0     H 6834   9.812   1.657   6.974 -2.6572  1.7796 -0.1584
   51MOL0     H 6835   9.781   1.572   7.118 -1.5757 -0.2662 -2.8603
   51MOL0     H 6836   9.962   1.486   7.258  1.8897 -0.7704 -0.5306
   51MOL0     H 6837  10.275   1.555   7.382  0.2332  0.2308  0.2743
   51MOL0     H 6838  10.211   1.402   7.308  2.5269 -1.9544 -0.2575
   51MOL0     H 6839  10.461   1.405   7.288  1.5022 -0.2388 -2.5306
   51MOL0     H 6840  10.456   1.571   7.220  0.7850 -0.9880  0.9848
   51MOL0     H 6841  10.353   1.477   7.016  0.6310  0.6269 -0.7613
   51MOL0     H 6842  10.324   1.328   7.105  1.2170 -0.3336  0.9962
   51MOL0     H 6843  10.610   1.401   7.051  1.6649 -0.6569  1.8479
   51MOL0     H 6844  10.504   1.312   6.939  3.5292 -1.3292 -0.0827
   51MOL0     H 6845  10.566   1.053   7.304  2.1012  2.2442  1.8383
   51MOL0     H 6846  10.798   0.880   7.429  0.1766 -0.8567  1.2691
   51MOL0     H 6847  10.626   0.866   7.410  0.6682  0.1374 -0.2033
   51MOL0     H 6848  10.739   0.753   7.324  1.7683  0.1663  0.2437
   51MOL0     H 6849  11.082   0.607   7.014  3.7451  3.3458  0.4751
   51MOL0     H 6850  11.231   0.412   7.038  2.4130  0.4891  0.9534
   51MOL0     H 6851  11.455   0.208   7.315 -0.6843  0.3455 -1.7597
   51MOL0     H 6852  11.391   0.349   7.408 -0.3938  0.6610  0.5173
   51MOL0     H 6853  11.418   0.130   7.537  0.0317  0.0885 -0.3456
   51MOL0     H 6854  11.257   0.211   7.545  0.9048  2.9333 -0.8129
   51MOL0     H 6855  11.196   0.045   7.332 -0.3266 -1.0826 -1.3124
   51MOL0     H 6856  11.169   0.020   7.505  1.3185  0.9755  0.9138
   51MOL0     H 6857  11.419  -0.106   7.358  0.1226 -2.1266  1.3582
   51MOL0     H 6858  11.379  -0.115   7.535 -1.8232 -1.6393  0.5978
   51MOL0     H 6859  11.303  -0.312   7.392 -1.4180 -0.1032 -1.5477
   51MOL0     H 6860  11.186  -0.202   7.343  1.2148  0.1465 -1.5643
   51MOL0     H 6861  11.243  -0.250   7.638  1.5771 -2.1653 -1.3381
   51MOL0     H 6862  11.094  -0.183   7.575 -1.6982 -0.2412  0.1535
   51MOL0     H 6863  11.215  -0.469   7.562  0.9905  1.0466 -1.3922
   51MOL0     H 6864  11.087  -0.421   7.457  0.0883 -2.7582  1.2072
   51MOL0     H 6865  11.024  -0.381   7.756 -3.1792  3.2502  0.8935
   51MOL0     H 6866  10.972  -0.520   7.654 -2.3441  0.9959 -1.5220
   51MOL0     H 6867  11.143   0.364   7.439  0.6297  1.3389  0.7280
   51MOL0     H 6868  11.002   0.577   7.438 -2.3766 -2.8763  0.7794
   51MOL0     H 6869  10.906   1.038   6.952  0.5028 -0.8840 -0.7390
   51MOL0     H 6870  10.742   1.200   6.937  4.3138 -0.4908 -0.4919
   51MOL0     H 6871   9.323   2.254   8.004  0.9390 -1.0648  1.6863
   51MOL0     H 6872   9.417   2.413   8.150  2.4470  2.8531  0.6822
   51MOL0     H 6873   9.702   2.890   8.152  2.8337 -1.5380 -0.7637
   51MOL0     H 6874   9.677   3.036   8.348 -3.0022 -0.2849 -1.0350
   51MOL0     H 6875   9.530   3.121   8.497 -0.6867  1.4338  0.6594
   51MOL0     H 6876   9.435   3.107   8.626 -1.1430  1.4114 -2.6417
   51MOL0     H 6877   9.650   3.184   8.773  1.1842 -0.9459 -1.0862
   51MOL0     H 6878   9.627   3.296   8.635  4.5718  1.2851  0.8500
   51MOL0     H 6879   9.788   3.124   8.519  1.4010 -0.2873 -0.5115
   51MOL0     H 6880   9.846   3.104   8.680 -2.0390 -1.6437  0.0033
   51MOL0     H 6881   9.872   3.355   8.713  1.0669 -0.3408  0.6587
   51MOL0     H 6882   9.816   3.376   8.542 -1.6400  1.2499  1.7280
   51MOL0     H 6883  10.191   3.213   8.471 -1.1833  2.7231 -1.3504
   51MOL0     H 6884   9.588   2.686   8.582 -1.8244 -2.2564 -2.2301
   51MOL0     H 6885   9.650   2.545   8.401  1.3119 -0.3797  0.3891
   52MOL0     O 6886   2.731   3.780   3.221 -0.3329 -0.0504  0.1139
   52MOL0     C 6887   2.701   3.891   3.264 -0.0483  0.4113  0.5676
   52MOL0     O 6888   2.763   3.955   3.368 -0.4073  0.6605 -0.1270
   52MOL0     C 6889   2.890   3.914   3.415  0.0863  0.0530  0.2169
   52MOL0     C 6890   2.921   3.972   3.543 -0.1179  0.1164  0.5576
   52MOL0     C 6891   3.050   3.955   3.588 -0.3298  0.9616 -0.8871
   52MOL0     C 6892   3.159   3.885   3.508  1.1445 -0.1393  1.0040
   52MOL0     O 6893   3.282   3.852   3.568 -1.1257 -0.4009  0.5533
   52MOL0     C 6894   3.313   3.868   3.712  0.4537 -0.1689  0.7224
   52MOL0     C 6895   3.432   3.779   3.756 -0.4186 -0.0071 -0.8383
   52MOL0     C 6896   3.553   3.873   3.773 -0.2717 -0.2176  0.1356
   52MOL0     C 6897   3.613   3.938   3.641  0.2510  0.7394 -0.3873
   52MOL0     C 6898   3.676   3.825   3.542  0.2863 -0.0817  1.2173
   52MOL0     C 6899   3.791   3.875   3.458  1.3242 -1.1443  0.7095
   52MOL0     C 6900   3.742   3.969   3.347  0.4190 -1.3743  0.1778
   52MOL0     C 6901   3.858   4.044   3.280  0.2049  0.3015 -0.2956
   52MOL0     N 6902   3.830   4.146   3.192  0.3368 -0.8715  0.3412
   52MOL0     C 6903   3.763   4.126   3.079 -0.6905 -0.1357  0.6873
   52MOL0     C 6904   3.777   4.245   3.013  0.5070 -0.3581  0.4473
   52MOL0     C 6905   3.744   4.265   2.872  0.4380 -0.3225  0.5608
   52MOL0     C 6906   3.853   4.221   2.776 -0.2940 -0.3946 -0.7547
   52MOL0     C 6907   3.873   4.302   2.646  0.1593  0.6372 -0.0390
   52MOL0     C 6908   3.767   4.264   2.541  0.2147  0.2332  0.8377
   52MOL0     O 6909   3.783   4.126   2.502 -0.6014  0.5749  0.0558
   52MOL0     C 6910   3.856   4.102   2.384 -0.6803  0.6812 -0.5222
   52MOL0     C 6911   3.948   4.196   2.342 -0.1271  0.5636  0.4945
   52MOL0     C 6912   4.022   4.174   2.225 -0.8558 -0.3239  0.1930
   52MOL0     C 6913   4.119   4.290   2.180 -0.5380 -1.1158  0.5165
   52MOL0     C 6914   4.007   4.054   2.155 -0.6233 -0.1504 -0.4811
   52MOL0     C 6915   4.100   4.008   2.048  0.3021  0.2481 -0.3146
   52MOL0     O 6916   4.107   4.078   1.936  0.0767  0.5122 -0.6252
   52MOL0     C 6917   4.201   4.034   1.852 -0.4994  0.4646 -0.5830
   52MOL0     C 6918   4.333   4.086   1.859  0.4241  0.4933 -0.1808
   52MOL0     C 6919   4.426   4.055   1.758 -0.4253 -0.3087  0.6851
   52MOL0     C 6920   4.390   3.983   1.640  1.0738 -0.1788 -0.2774
   52MOL0     O 6921   4.476   3.966   1.530 -0.4596 -0.2436  0.2402
   52MOL0     C 6922   4.423   3.898   1.412 -0.5736 -0.3132 -0.1283
   52MOL0     C 6923   4.540   3.870   1.321 -0.4081  0.1566  0.3974
   52MOL0     C 6924   4.489   3.803   1.205  0.4596  0.0418  0.3335
   52MOL0     C 6925   4.597   3.742   1.113  0.1733  0.0255  0.4854
   52MOL0     C 6926   4.690   3.860   1.049  0.0919  0.2293  0.5378
   52MOL0     C 6927   4.615   3.938   0.943  0.2403  0.1491  1.4213
   52MOL0     C 6928   4.596   4.093   0.973  0.4402  0.3729  0.4243
   52MOL0     C 6929   4.501   4.152   0.864  1.4066  0.6832  0.0053
   52MOL0    Cl 6930   4.603   4.176   0.713 -0.4352  0.6189  0.1044
   52MOL0     C 6931   4.257   3.936   1.645  0.6721  0.4022  0.3648
   52MOL0     C 6932   4.161   3.950   1.749 -0.0282  0.1525  0.5815
   52MOL0     O 6933   4.179   3.929   2.093 -0.0106 -0.1356  0.5192
   52MOL0     C 6934   3.911   3.956   2.192  0.1864  0.0958 -0.4109
   52MOL0     C 6935   3.830   3.985   2.307 -0.0395 -0.1295  0.4874
   52MOL0     N 6936   3.831   4.339   3.099  0.1864  0.5880 -0.4280
   52MOL0     N 6937   3.853   4.281   3.213  0.9349  0.1028 -0.3724
   52MOL0     C 6938   3.127   3.826   3.387 -0.0929  0.9032  1.0020
   52MOL0     C 6939   2.991   3.841   3.351 -0.0351  0.8188  0.9364
   52MOL0     C 6940   2.601   3.974   3.188 -0.0792 -0.4941 -1.0451
   52MOL0     C 6941   2.562   3.939   3.060 -0.6117 -0.4424  0.6478
   52MOL0     C 6942   2.470   4.017   2.985 -0.3962  0.3376  0.3414
   52MOL0     C 6943   2.418   4.136   3.043  0.1434  0.0591 -0.6003
   52MOL0     O 6944   2.328   4.203   2.960  0.0375  0.7674  0.2669
   52MOL0     C 6945   2.198   4.146   2.944  0.3837  0.6320 -0.2539
   52MOL0     C 6946   2.104   4.203   3.049  0.7227 -0.0203 -0.5355
   52MOL0     C 6947   1.956   4.157   3.028 -0.9163  0.1616  0.0964
   52MOL0     C 6948   1.875   4.177   3.151 -0.0268 -0.0471  0.1272
   52MOL0     C 6949   1.885   4.048   3.224  0.3620 -0.7636  0.1458
   52MOL0     C 6950   1.898   3.939   3.282  0.0011 -0.3375 -0.2868
   52MOL0     C 6951   2.465   4.187   3.164  1.2373 -0.1248  0.0399
   52MOL0     C 6952   2.551   4.109   3.241  0.0359  0.8900 -0.0511
   52MOL0     H 6953   2.841   4.020   3.598  1.0911 -0.5822  3.0606
   52MOL0     H 6954   3.072   3.994   3.687 -0.6405  0.8750 -0.7822
   52MOL0     H 6955   3.326   3.972   3.743 -2.4694  1.1068 -1.8419
   52MOL0     H 6956   3.226   3.819   3.756  0.0880 -1.8096 -1.6233
   52MOL0     H 6957   3.394   3.748   3.854 -2.1082 -0.8253 -1.7201
   52MOL0     H 6958   3.442   3.687   3.698 -2.4890 -1.1919  0.5688
   52MOL0     H 6959   3.535   3.961   3.836  1.6988  2.0103 -2.1727
   52MOL0     H 6960   3.628   3.814   3.827  1.6423  1.0509 -0.9747
   52MOL0     H 6961   3.547   4.006   3.586  2.1428  2.5569 -0.5445
   52MOL0     H 6962   3.695   4.005   3.668 -0.8563  2.1333 -0.3300
   52MOL0     H 6963   3.712   3.739   3.598  2.5224 -1.0683 -1.5079
   52MOL0     H 6964   3.591   3.799   3.478  0.1187  4.6857 -0.9715
   52MOL0     H 6965   3.862   3.926   3.524  1.9663 -1.4223  0.2419
   52MOL0     H 6966   3.847   3.801   3.400 -0.2922 -1.7215 -0.1637
   52MOL0     H 6967   3.678   3.927   3.270 -0.3440 -0.6249  0.3907
   52MOL0     H 6968   3.675   4.043   3.392 -0.7491 -1.1957 -1.7807
   52MOL0     H 6969   3.894   3.971   3.208  0.9601  0.7242 -0.3547
   52MOL0     H 6970   3.928   4.069   3.361  2.0345 -3.6056 -0.4917
   52MOL0     H 6971   3.721   4.032   3.047 -0.6298  0.7540 -2.2424
   52MOL0     H 6972   3.648   4.224   2.840  0.1841  2.6217 -3.1791
   52MOL0     H 6973   3.734   4.372   2.850  1.2387 -0.3459  0.0260
   52MOL0     H 6974   3.845   4.112   2.767  1.7224 -0.9347  2.3791
   52MOL0     H 6975   3.948   4.239   2.828 -2.0424  4.0083  1.3617
   52MOL0     H 6976   3.964   4.254   2.609 -0.1710  0.0657 -0.1238
   52MOL0     H 6977   3.872   4.407   2.677  0.9702  1.6133 -2.9989
   52MOL0     H 6978   3.773   4.334   2.457 -0.0831 -0.6410  0.0621
   52MOL0     H 6979   3.668   4.281   2.582  1.5101 -1.7170  5.4263
   52MOL0     H 6980   3.965   4.287   2.399  1.8284  0.6743 -0.2022
   52MOL0     H 6981   4.219   4.250   2.165 -0.1609  0.7250 -2.6485
   52MOL0     H 6982   4.080   4.333   2.088 -0.4128  2.0076  1.8161
   52MOL0     H 6983   4.128   4.377   2.246  2.9640  0.5794 -1.8844
   52MOL0     H 6984   4.357   4.154   1.939 -1.5070 -0.0404  0.9026
   52MOL0     H 6985   4.529   4.088   1.752 -1.1336  1.8055 -1.2039
   52MOL0     H 6986   4.378   3.803   1.441  1.5318 -1.4789 -0.4600
   52MOL0     H 6987   4.347   3.960   1.364  0.0014 -1.8581 -3.2913
   52MOL0     H 6988   4.577   3.966   1.284 -1.9523  0.1266 -1.3732
   52MOL0     H 6989   4.612   3.811   1.379 -0.2681 -2.2218 -1.9892
   52MOL0     H 6990   4.424   3.866   1.143  1.8916 -0.1981 -1.5358
   52MOL0     H 6991   4.430   3.718   1.240 -1.1400  0.7976 -0.4289
   52MOL0     H 6992   4.647   3.675   1.184  0.6061  0.6816  0.8109
   52MOL0     H 6993   4.560   3.674   1.035 -2.4512 -0.9637  2.4303
   52MOL0     H 6994   4.785   3.821   1.013 -1.4974 -5.9584  1.8784
   52MOL0     H 6995   4.724   3.932   1.125 -0.7673  0.7262  0.4718
   52MOL0     H 6996   4.690   3.941   0.864  1.2740  1.4331  2.4007
   52MOL0     H 6997   4.525   3.884   0.912  1.0074 -0.2839 -0.1465
   52MOL0     H 6998   4.694   4.142   0.977  1.8909 -1.7383 -3.6008
   52MOL0     H 6999   4.556   4.096   1.075 -0.3773 -0.2504  0.1326
   52MOL0     H 7000   4.457   4.244   0.903  1.1155  0.3312  0.5160
   52MOL0     H 7001   4.415   4.090   0.838  0.7959  2.2193 -1.8837
   52MOL0     H 7002   4.220   3.885   1.557 -0.3229 -1.5841  1.8567
   52MOL0     H 7003   4.056   3.924   1.743  0.3781 -1.2907 -0.8727
   52MOL0     H 7004   3.877   3.876   2.127 -1.1943 -0.3970  0.8618
   52MOL0     H 7005   3.754   3.916   2.342  0.0831 -1.6332 -1.9878
   52MOL0     H 7006   3.196   3.770   3.323 -1.3413 -1.7139  1.8016
   52MOL0     H 7007   2.959   3.786   3.263 -3.1417 -0.2168  2.5847
   52MOL0     H 7008   2.596   3.854   3.002  1.5857  1.8928 -1.7808
   52MOL0     H 7009   2.435   3.982   2.888 -0.3109 -1.4373  0.9175
   52MOL0     H 7010   2.166   4.178   2.845  2.0140  0.3729 -0.9000
   52MOL0     H 7011   2.203   4.037   2.947 -4.2142  0.2515  1.1605
   52MOL0     H 7012   2.115   4.312   3.056  0.0482  0.0024  0.4667
   52MOL0     H 7013   2.138   4.167   3.147 -2.6002 -3.6818 -0.4831
   52MOL0     H 7014   1.964   4.053   2.995  5.2492  0.5565 -0.9865
   52MOL0     H 7015   1.915   4.219   2.947 -0.6995  0.0641 -0.0918
   52MOL0     H 7016   1.771   4.202   3.126  0.0026  1.7864  1.6387
   52MOL0     H 7017   1.913   4.260   3.212 -0.4529  0.4210 -0.2295
   52MOL0     H 7018   1.924   3.840   3.312 -1.4266  0.2356  3.4011
   52MOL0     H 7019   2.435   4.286   3.197  1.6290 -0.8607  2.9108
   52MOL0     H 7020   2.584   4.136   3.341  0.4076  0.4959 -0.0634
   53MOL0     O 7021   9.606  10.019  11.016  0.8481 -0.0741 -0.0659
   53MOL0     C 7022   9.579   9.908  10.974 -1.2412 -0.7708 -0.2184
   53MOL0     O 7023   9.508   9.810  11.039  0.1631  0.0248 -0.5222
   53MOL0     C 7024   9.473   9.835  11.172  0.6095 -0.4410  0.6595
   53MOL0     C 7025   9.559   9.873  11.273 -0.7890  0.4000 -0.9253
   53MOL0     C 7026   9.515   9.891  11.410 -0.4326 -0.3014 -0.1433
   53MOL0     C 7027   9.386   9.863  11.444  1.4228 -0.5331 -0.6656
   53MOL0     O 7028   9.359   9.864  11.586 -0.0912  0.4557 -0.0882
   53MOL0     C 7029   9.230   9.917  11.639 -0.7000  0.7421 -0.5492
   53MOL0     C 7030   9.248  10.018  11.752 -0.0905 -0.9981  1.1448
   53MOL0     C 7031   9.337  10.130  11.714 -0.1007 -0.5073  0.0764
   53MOL0     C 7032   9.295  10.216  11.595 -1.2271  0.4238 -0.4904
   53MOL0     C 7033   9.367  10.346  11.582 -0.2678 -0.7432  0.5732
   53MOL0     C 7034   9.344  10.421  11.452  0.6701 -0.7737 -0.1691
   53MOL0     C 7035   9.442  10.375  11.353  0.2419 -0.3680 -0.2775
   53MOL0     C 7036   9.445  10.451  11.217  0.0659  0.6997 -0.2636
   53MOL0     N 7037   9.308  10.448  11.156 -0.7838 -0.1212 -0.2323
   53MOL0     C 7038   9.241  10.558  11.105  0.0872  0.3609 -0.4372
   53MOL0     C 7039   9.130  10.514  11.044 -0.5785 -0.5861  0.1826
   53MOL0     C 7040   9.027  10.602  10.976 -0.5138 -0.3653 -0.2466
   53MOL0     C 7041   8.973  10.722  11.062  0.7458  0.3129  0.0220
   53MOL0     C 7042   8.850  10.775  10.994  0.0250  0.4150  0.0818
   53MOL0     C 7043   8.789  10.868  11.084  0.0355 -0.6352  0.8213
   53MOL0     O 7044   8.737  10.798  11.196  0.1103 -0.4389 -0.2269
   53MOL0     C 7045   8.633  10.854  11.268 -0.4206 -0.6416 -0.0371
   53MOL0     C 7046   8.616  10.989  11.278 -0.1930 -0.0303 -0.3967
   53MOL0     C 7047   8.522  11.042  11.356 -0.9031  0.0247 -0.1321
   53MOL0     C 7048   8.495  11.187  11.349 -0.4137  0.8848 -0.2009
   53MOL0     C 7049   8.435  10.960  11.424  1.0931 -0.1895 -0.2878
   53MOL0     C 7050   8.316  11.010  11.512 -1.1063 -0.1162 -0.4525
   53MOL0     O 7051   8.300  11.143  11.535  1.0672  0.4804 -0.3489
   53MOL0     C 7052   8.217  11.169  11.641  0.1130  0.0547 -0.3928
   53MOL0     C 7053   8.086  11.229  11.626 -1.3639 -0.2973  0.5757
   53MOL0     C 7054   8.007  11.265  11.733  0.3438 -0.7392  0.3420
   53MOL0     C 7055   8.048  11.240  11.862  0.5836  0.5805 -0.6795
   53MOL0     O 7056   7.963  11.267  11.965 -0.4690 -0.6573  0.1261
   53MOL0     C 7057   7.898  11.397  11.977  0.0978  0.4341 -0.1990
   53MOL0     C 7058   7.826  11.426  12.106 -0.7781  0.2767 -0.3395
   53MOL0     C 7059   7.703  11.349  12.137  1.4334  0.4872 -0.5416
   53MOL0     C 7060   7.605  11.425  12.233 -0.7547 -0.0075  0.0683
   53MOL0     C 7061   7.668  11.490  12.360 -0.2674 -0.0558  1.3302
   53MOL0     C 7062   7.579  11.515  12.474  0.0500 -0.6560 -1.8500
   53MOL0     C 7063   7.522  11.661  12.468  0.4759 -0.8623  0.1686
   53MOL0     C 7064   7.469  11.723  12.601 -0.0459  0.4657  0.0110
   53MOL0    Cl 7065   7.607  11.782  12.698  0.0996 -0.0135  0.7206
   53MOL0     C 7066   8.176  11.183  11.880  0.9143 -0.2870 -0.0984
   53MOL0     C 7067   8.250  11.135  11.771  0.0558 -0.7286  0.2730
   53MOL0     O 7068   8.246  10.923  11.567  0.4249  0.2918  0.7146
   53MOL0     C 7069   8.443  10.825  11.397  0.9048 -0.1148 -0.8291
   53MOL0     C 7070   8.545  10.765  11.330 -0.7496 -0.2229  0.7000
   53MOL0     N 7071   9.127  10.372  11.055 -0.1128 -0.8160  0.6237
   53MOL0     N 7072   9.232  10.332  11.125 -0.0142  0.7337  0.2128
   53MOL0     C 7073   9.299   9.816  11.339  0.7273  0.3876  0.4756
   53MOL0     C 7074   9.341   9.811  11.212 -0.3770 -0.5359  1.0289
   53MOL0     C 7075   9.601   9.881  10.833  0.0473  0.3434 -0.4685
   53MOL0     C 7076   9.709   9.930  10.778 -0.0441 -0.0676  0.2609
   53MOL0     C 7077   9.734   9.914  10.638  0.0848  0.6735  0.0569
   53MOL0     C 7078   9.647   9.851  10.552 -0.6119 -0.0998  0.0380
   53MOL0     O 7079   9.685   9.847  10.420 -0.1186  0.8790 -0.4503
   53MOL0     C 7080   9.584   9.802  10.330 -0.5785  0.1297 -0.5767
   53MOL0     C 7081   9.640   9.787  10.188  0.2271 -0.4323  0.4684
   53MOL0     C 7082   9.731   9.673  10.169 -0.5628 -0.7581  0.6020
   53MOL0     C 7083   9.798   9.673  10.030 -0.0377  1.0456  0.4165
   53MOL0     C 7084   9.876   9.797  10.011  0.3826  0.0624  0.2972
   53MOL0     C 7085   9.932   9.906  10.002 -0.0481 -0.3079  0.7683
   53MOL0     C 7086   9.531   9.804  10.612 -0.5352  0.1929 -0.2850
   53MOL0     C 7087   9.505   9.813  10.750  0.0325  0.4767 -0.2875
   53MOL0     H 7088   9.662   9.886  11.244  0.4238 -1.9056  1.8738
   53MOL0     H 7089   9.598   9.901  11.480 -1.0594 -4.6165  1.5123
   53MOL0     H 7090   9.175   9.959  11.554  1.5361 -2.8721 -4.1151
   53MOL0     H 7091   9.177   9.831  11.682  2.0113  0.2999  2.2405
   53MOL0     H 7092   9.148  10.058  11.772 -0.8885 -3.1080  1.5714
   53MOL0     H 7093   9.284   9.971  11.844 -1.6984 -0.5868  2.0113
   53MOL0     H 7094   9.338  10.189  11.805 -1.3832  2.0826 -1.4738
   53MOL0     H 7095   9.438  10.094  11.690 -0.4162 -0.0660 -2.2076
   53MOL0     H 7096   9.306  10.155  11.505  0.7378  0.1207 -0.0807
   53MOL0     H 7097   9.187  10.234  11.606 -1.8468 -3.3337  0.9220
   53MOL0     H 7098   9.328  10.408  11.663  0.6454  0.9568 -0.2152
   53MOL0     H 7099   9.472  10.337  11.611  0.5164  1.1060 -1.4039
   53MOL0     H 7100   9.242  10.388  11.428  0.9452 -2.3339  0.6671
   53MOL0     H 7101   9.354  10.529  11.467  1.1342 -0.3570 -3.0324
   53MOL0     H 7102   9.533  10.416  11.398 -0.4738 -1.8477  2.7752
   53MOL0     H 7103   9.446  10.266  11.340 -2.3440 -0.6201  0.4899
   53MOL0     H 7104   9.525  10.413  11.153 -0.1379  1.2940 -0.8819
   53MOL0     H 7105   9.464  10.558  11.228  0.9955  0.4136  1.2739
   53MOL0     H 7106   9.264  10.663  11.112  0.2272  0.3343 -0.4920
   53MOL0     H 7107   9.069  10.637  10.882  2.5686  0.4938  1.3163
   53MOL0     H 7108   8.949  10.528  10.953  1.0718 -1.6882 -1.6063
   53MOL0     H 7109   9.049  10.791  11.100  3.4682 -2.7138  0.5064
   53MOL0     H 7110   8.937  10.690  11.161 -0.1029  3.1193  0.7238
   53MOL0     H 7111   8.770  10.704  10.969  0.6100  0.2906 -1.5877
   53MOL0     H 7112   8.876  10.826  10.901 -1.4301  4.5082  1.7053
   53MOL0     H 7113   8.705  10.908  11.028  1.0429 -2.5578 -2.2934
   53MOL0     H 7114   8.863  10.946  11.106 -0.0975 -0.2491 -0.0829
   53MOL0     H 7115   8.684  11.059  11.231 -0.6070  1.4090  1.0871
   53MOL0     H 7116   8.521  11.234  11.445 -1.4669  0.2314  0.4236
   53MOL0     H 7117   8.537  11.238  11.262  0.5545  0.2134 -0.1387
   53MOL0     H 7118   8.386  11.196  11.340 -0.7809 -2.9335 -1.2103
   53MOL0     H 7119   8.064  11.231  11.520  1.7290 -2.7666 -0.2598
   53MOL0     H 7120   7.913  11.312  11.708  1.7172  1.5394 -0.8860
   53MOL0     H 7121   7.979  11.469  11.960 -0.3187  1.3386  1.3771
   53MOL0     H 7122   7.830  11.416  11.893 -4.2601 -0.3609  2.7849
   53MOL0     H 7123   7.902  11.421  12.184 -1.6489  0.3090  0.5309
   53MOL0     H 7124   7.792  11.529  12.090  0.3281  0.7438  0.2355
   53MOL0     H 7125   7.744  11.256  12.176 -0.6318  1.1217  3.7902
   53MOL0     H 7126   7.659  11.319  12.042 -1.0172 -0.4355  0.7975
   53MOL0     H 7127   7.552  11.505  12.181 -2.0460 -0.4644  0.6271
   53MOL0     H 7128   7.535  11.345  12.260  0.7923 -2.0313 -1.5889
   53MOL0     H 7129   7.720  11.582  12.331 -0.7635 -0.0729  0.3607
   53MOL0     H 7130   7.738  11.415  12.399  1.1649  1.1709  1.2078
   53MOL0     H 7131   7.497  11.443  12.483 -0.8368  0.3290 -1.9653
   53MOL0     H 7132   7.638  11.498  12.565 -4.0572  3.0940  2.0048
   53MOL0     H 7133   7.442  11.648  12.395 -0.9277 -0.8739  1.6327
   53MOL0     H 7134   7.583  11.734  12.414  0.5214 -0.5642  0.6157
   53MOL0     H 7135   7.425  11.640  12.656 -4.6559  3.0125  0.6836
   53MOL0     H 7136   7.390  11.799  12.594 -0.1286  0.7114  2.5046
   53MOL0     H 7137   8.187  11.148  11.982 -0.3522 -2.2729 -0.5950
   53MOL0     H 7138   8.336  11.071  11.785  1.3094  0.3461 -1.8981
   53MOL0     H 7139   8.361  10.769  11.440 -0.1336  2.2071  0.4275
   53MOL0     H 7140   8.564  10.659  11.317  3.0335  0.4924 -0.7046
   53MOL0     H 7141   9.205   9.767  11.364  2.4983 -2.5004  1.9980
   53MOL0     H 7142   9.287   9.763  11.131 -0.1652 -0.0737  0.6098
   53MOL0     H 7143   9.769   9.994  10.841  0.0485 -0.1967  0.3039
   53MOL0     H 7144   9.828   9.944  10.593 -0.4472  0.4569 -1.2643
   53MOL0     H 7145   9.530   9.716  10.368  0.1128  0.1309  0.4666
   53MOL0     H 7146   9.508   9.880  10.338 -0.8575 -0.3063  2.4736
   53MOL0     H 7147   9.676   9.888  10.163 -3.2922  1.0862  0.9848
   53MOL0     H 7148   9.551   9.761  10.130 -0.8188 -1.0508  2.2674
   53MOL0     H 7149   9.673   9.580  10.164 -0.5607 -0.7214 -0.4062
   53MOL0     H 7150   9.807   9.679  10.247  1.5208 -0.8130 -1.3460
   53MOL0     H 7151   9.719   9.659   9.955 -0.8015 -0.4081  1.4525
   53MOL0     H 7152   9.868   9.590  10.028 -0.2497  0.8503  0.9144
   53MOL0     H 7153   9.975   9.999   9.970 -0.6456 -0.0205  0.8038
   53MOL0     H 7154   9.449   9.760  10.557 -0.6068  1.3641 -1.1549
   53MOL0     H 7155   9.408   9.778  10.783 -1.2010  2.1807 -1.9084
   54MOL0     O 7156   6.275  11.187   8.108  0.7624 -0.6112 -0.0032
   54MOL0     C 7157   6.323  11.146   8.005 -0.4989 -0.1291 -0.1740
   54MOL0     O 7158   6.259  11.165   7.883 -0.5354 -0.0436 -0.8343
   54MOL0     C 7159   6.132  11.221   7.895  0.3654  0.5786  1.1709
   54MOL0     C 7160   6.129  11.354   7.893  0.3807 -0.0073 -0.6961
   54MOL0     C 7161   6.017  11.427   7.922 -0.4746 -0.3064  0.6692
   54MOL0     C 7162   5.893  11.367   7.927  0.5241  0.2210  0.3096
   54MOL0     O 7163   5.776  11.415   7.984 -0.0897 -0.5899  0.4317
   54MOL0     C 7164   5.763  11.556   8.001 -0.0204 -1.0553  0.1477
   54MOL0     C 7165   5.721  11.628   7.878 -0.3303  0.6887  0.6151
   54MOL0     C 7166   5.681  11.774   7.908 -0.3637  0.7288  0.9051
   54MOL0     C 7167   5.620  11.851   7.780  0.3250  0.0431  0.0256
   54MOL0     C 7168   5.513  11.965   7.802 -0.0697 -0.3486  0.4560
   54MOL0     C 7169   5.367  11.930   7.761 -0.3266 -0.2314  0.9022
   54MOL0     C 7170   5.306  11.821   7.853  0.0589  1.1969 -1.1574
   54MOL0     C 7171   5.214  11.733   7.771  0.4789  0.4371 -0.1772
   54MOL0     N 7172   5.302  11.643   7.691  0.8145  0.1490  0.7539
   54MOL0     C 7173   5.394  11.553   7.749 -0.8355  0.1766  0.6545
   54MOL0     C 7174   5.424  11.460   7.654 -0.0878  0.5084 -0.0652
   54MOL0     C 7175   5.514  11.342   7.676 -0.4789 -0.0931 -0.2230
   54MOL0     C 7176   5.432  11.230   7.742 -0.0590 -0.0685 -0.3993
   54MOL0     C 7177   5.326  11.171   7.646 -0.7001 -0.0720 -0.3841
   54MOL0     C 7178   5.284  11.022   7.665 -0.1560  0.1298 -0.5617
   54MOL0     O 7179   5.201  11.007   7.786 -0.3753  0.1033  0.2568
   54MOL0     C 7180   5.262  10.958   7.893 -0.2066  0.4614 -0.6747
   54MOL0     C 7181   5.303  10.821   7.913  1.3073 -0.5355  0.0036
   54MOL0     C 7182   5.345  10.759   8.028 -0.2344 -0.4036 -0.0131
   54MOL0     C 7183   5.381  10.613   8.026  0.5514  0.6225 -0.8848
   54MOL0     C 7184   5.390  10.847   8.136 -0.6914  0.2300  0.9047
   54MOL0     C 7185   5.438  10.790   8.266 -0.4113 -0.1552 -0.1574
   54MOL0     O 7186   5.492  10.876   8.349  0.0180 -0.2585 -0.7458
   54MOL0     C 7187   5.563  10.825   8.447 -0.9158 -0.0034  0.1263
   54MOL0     C 7188   5.532  10.742   8.562 -1.2405 -0.1620 -0.5515
   54MOL0     C 7189   5.631  10.716   8.659 -0.8050  0.3496  0.0933
   54MOL0     C 7190   5.763  10.760   8.653 -0.2144  0.5770 -0.5372
   54MOL0     O 7191   5.850  10.753   8.761 -0.1027  0.9707 -0.5965
   54MOL0     C 7192   5.990  10.727   8.732 -0.1831  0.5227 -0.4157
   54MOL0     C 7193   6.026  10.576   8.772  0.5901 -0.0545 -0.5162
   54MOL0     C 7194   5.946  10.474   8.697 -0.0218  0.3349 -0.8685
   54MOL0     C 7195   5.978  10.479   8.547 -0.2040  0.5256  1.0602
   54MOL0     C 7196   5.909  10.372   8.458  0.1897  0.9444  0.6745
   54MOL0     C 7197   5.985  10.236   8.482  0.2425  0.0251 -1.1241
   54MOL0     C 7198   6.000  10.150   8.362 -0.7535  0.2563 -0.9721
   54MOL0     C 7199   6.094  10.187   8.250 -0.1756  0.4725  0.1220
   54MOL0    Cl 7200   5.988  10.250   8.121  0.1768  0.5946  0.3630
   54MOL0     C 7201   5.796  10.828   8.535  0.0555  0.9321 -1.1823
   54MOL0     C 7202   5.699  10.867   8.441 -0.1905  0.8293 -0.0546
   54MOL0     O 7203   5.395  10.675   8.291  0.3738 -0.6827 -0.1719
   54MOL0     C 7204   5.354  10.977   8.122  0.7105 -0.1141 -0.3937
   54MOL0     C 7205   5.299  11.033   8.002  0.1686  0.4537 -0.6991
   54MOL0     N 7206   5.356  11.499   7.534 -0.2135  0.3212 -1.0540
   54MOL0     N 7207   5.295  11.607   7.555  0.0813  0.2078  0.3897
   54MOL0     C 7208   5.887  11.228   7.899  0.5505 -0.6250 -0.1062
   54MOL0     C 7209   6.009  11.157   7.900 -0.0997  0.3241 -0.6961
   54MOL0     C 7210   6.452  11.089   8.014  0.4598  0.4369  0.4431
   54MOL0     C 7211   6.515  11.049   7.900 -0.1048  0.5676 -0.2601
   54MOL0     C 7212   6.641  11.001   7.909  0.5625  1.1230  0.1175
   54MOL0     C 7213   6.717  10.980   8.024 -0.8912  0.5159 -0.0222
   54MOL0     O 7214   6.842  10.911   8.048  0.4161 -0.2659 -0.2890
   54MOL0     C 7215   6.881  10.813   7.939 -0.3696  0.2762 -0.6382
   54MOL0     C 7216   7.030  10.848   7.904 -0.0417  0.0753  0.3288
   54MOL0     C 7217   7.078  10.763   7.777  0.4047  0.0511 -0.5535
   54MOL0     C 7218   7.226  10.779   7.725 -0.0745 -0.8276 -0.4710
   54MOL0     C 7219   7.245  10.916   7.694 -0.8923  0.1931 -0.5120
   54MOL0     C 7220   7.273  11.033   7.658  1.2842  0.5822  0.1656
   54MOL0     C 7221   6.654  11.018   8.144  0.4736 -0.1232  0.2790
   54MOL0     C 7222   6.523  11.072   8.141 -0.0102 -0.6734  1.1450
   54MOL0     H 7223   6.210  11.426   7.879 -0.1171  0.5415 -0.7823
   54MOL0     H 7224   6.039  11.530   7.948 -0.2544 -0.0564 -0.4444
   54MOL0     H 7225   5.690  11.573   8.080 -1.2953 -1.0437 -1.0071
   54MOL0     H 7226   5.855  11.612   8.021 -2.0809  3.0340 -0.8725
   54MOL0     H 7227   5.801  11.630   7.804 -0.2088  0.2940  0.7314
   54MOL0     H 7228   5.641  11.569   7.833 -0.4159  1.3756 -0.1432
   54MOL0     H 7229   5.604  11.756   7.983 -1.0125 -4.2530 -0.5709
   54MOL0     H 7230   5.767  11.830   7.944 -0.1461  2.2065 -1.6363
   54MOL0     H 7231   5.706  11.912   7.751  0.6436  1.2753  3.1053
   54MOL0     H 7232   5.596  11.782   7.699 -4.5725 -0.3974  1.5445
   54MOL0     H 7233   5.530  11.996   7.906  0.0974 -1.5996  0.8159
   54MOL0     H 7234   5.532  12.055   7.742  1.1711 -1.1274 -0.3794
   54MOL0     H 7235   5.312  12.023   7.778 -0.5312  0.2983 -2.0051
   54MOL0     H 7236   5.354  11.889   7.660  1.0004 -1.4067  1.1750
   54MOL0     H 7237   5.391  11.760   7.885  2.2245  3.6451 -1.8380
   54MOL0     H 7238   5.254  11.860   7.941 -1.9455 -2.4368 -0.5081
   54MOL0     H 7239   5.142  11.795   7.718 -0.0227  1.7154  1.8843
   54MOL0     H 7240   5.147  11.672   7.832  1.3444 -1.2921 -0.8863
   54MOL0     H 7241   5.437  11.559   7.849  3.6585 -1.2398 -0.9738
   54MOL0     H 7242   5.549  11.313   7.577 -0.7743 -4.8910  0.8518
   54MOL0     H 7243   5.602  11.379   7.731  0.6734 -0.0235 -2.0310
   54MOL0     H 7244   5.379  11.269   7.830  1.8777 -0.3894  0.9636
   54MOL0     H 7245   5.485  11.147   7.789 -0.9080 -1.2422 -1.4486
   54MOL0     H 7246   5.352  11.191   7.542 -4.3018 -0.5008 -1.4956
   54MOL0     H 7247   5.230  11.222   7.649 -0.0463  1.4648 -2.8443
   54MOL0     H 7248   5.378  10.966   7.669  0.2234  0.5061 -2.6695
   54MOL0     H 7249   5.220  10.979   7.587 -1.1623 -3.1711  1.8522
   54MOL0     H 7250   5.280  10.758   7.827  0.1227  1.1416 -0.9615
   54MOL0     H 7251   5.488  10.598   8.010  0.4952  2.2158 -3.4023
   54MOL0     H 7252   5.353  10.567   8.121 -0.9224 -0.1738 -1.6659
   54MOL0     H 7253   5.321  10.552   7.958 -3.3520  0.3792  2.4002
   54MOL0     H 7254   5.431  10.702   8.567 -0.8919 -1.0493 -0.3013
   54MOL0     H 7255   5.604  10.667   8.752  0.4253  0.3129  0.4497
   54MOL0     H 7256   6.021  10.751   8.630  0.8569  1.7349  0.1539
   54MOL0     H 7257   6.058  10.788   8.792  1.1363 -2.9976  1.9956
   54MOL0     H 7258   6.133  10.564   8.750  1.0340  1.1953  0.7940
   54MOL0     H 7259   6.017  10.552   8.878 -1.5876 -0.9955 -0.8698
   54MOL0     H 7260   5.841  10.484   8.724  0.1008 -5.4047  3.5812
   54MOL0     H 7261   5.961  10.377   8.745  0.1466  0.9972  0.4562
   54MOL0     H 7262   5.949  10.574   8.501 -1.9784 -1.5529 -2.6215
   54MOL0     H 7263   6.083  10.459   8.529 -0.6372  0.3595 -1.5972
   54MOL0     H 7264   5.900  10.396   8.352 -0.0383  0.3505  0.5529
   54MOL0     H 7265   5.809  10.356   8.499 -0.4774 -2.8196 -1.9482
   54MOL0     H 7266   6.076  10.246   8.542 -1.7723  0.0737  2.2112
   54MOL0     H 7267   5.921  10.178   8.549  0.3120  1.6799  0.4450
   54MOL0     H 7268   5.904  10.131   8.314 -0.9695 -1.6870  0.0951
   54MOL0     H 7269   6.030  10.052   8.402  1.8468  1.0670 -0.7657
   54MOL0     H 7270   6.148  10.097   8.219  1.5664  0.9177  1.7169
   54MOL0     H 7271   6.165  10.264   8.283  3.2863 -2.8651  1.1540
   54MOL0     H 7272   5.900  10.849   8.514  0.1939  0.1650 -1.2913
   54MOL0     H 7273   5.705  10.950   8.372 -0.8819  0.1779 -0.9214
   54MOL0     H 7274   5.362  11.035   8.214  1.0350  0.2093 -0.6246
   54MOL0     H 7275   5.272  11.138   7.994  0.4549  0.5410 -0.5589
   54MOL0     H 7276   5.793  11.176   7.912  0.6261 -1.1841 -1.5843
   54MOL0     H 7277   6.015  11.048   7.898  0.6538  0.2220  2.2676
   54MOL0     H 7278   6.474  11.061   7.800  1.9955  1.4670 -1.0604
   54MOL0     H 7279   6.684  10.966   7.816 -1.0476 -3.0403  0.7150
   54MOL0     H 7280   6.877  10.716   7.990 -0.5699  1.8000  2.4856
   54MOL0     H 7281   6.818  10.812   7.850  0.0580 -0.0552 -0.9425
   54MOL0     H 7282   7.098  10.816   7.983 -2.5458 -1.9128  1.8502
   54MOL0     H 7283   7.049  10.953   7.881  0.8601 -0.5207 -1.9667
   54MOL0     H 7284   7.007  10.784   7.696  0.8643 -3.4712 -2.0660
   54MOL0     H 7285   7.056  10.663   7.816  0.5506 -0.2816 -1.3002
   54MOL0     H 7286   7.235  10.722   7.632 -2.6602 -2.0092 -0.0925
   54MOL0     H 7287   7.294  10.748   7.805 -0.2341  1.1465  0.5169
   54MOL0     H 7288   7.290  11.126   7.607  1.5188  0.5053  0.0986
   54MOL0     H 7289   6.713  11.007   8.235  2.6585  0.0094 -1.0420
   54MOL0     H 7290   6.466  11.107   8.227 -2.9219 -0.9089 -0.5274
   55MOL0     O 7291   4.121   0.773   3.169 -1.0266 -0.3296 -0.2561
   55MOL0     C 7292   4.036   0.720   3.232 -0.4847 -0.2028 -0.0828
   55MOL0     O 7293   3.912   0.755   3.238  1.1574  0.0444  0.0892
   55MOL0     C 7294   3.873   0.849   3.147  0.0572 -0.6910  0.3571
   55MOL0     C 7295   3.886   0.982   3.178 -0.7618  0.0129  1.2789
   55MOL0     C 7296   3.829   1.079   3.086 -0.0660 -0.3688 -0.2342
   55MOL0     C 7297   3.746   1.043   2.980 -0.5076 -0.6749 -0.2970
   55MOL0     O 7298   3.684   1.144   2.910 -0.3870 -0.1206 -1.0504
   55MOL0     C 7299   3.636   1.106   2.775 -0.5362  0.6208 -0.5266
   55MOL0     C 7300   3.607   1.238   2.702 -0.3176  0.3138 -0.2439
   55MOL0     C 7301   3.505   1.327   2.770  0.6537  0.0875  0.7038
   55MOL0     C 7302   3.492   1.457   2.693 -0.6605 -1.0210 -0.1653
   55MOL0     C 7303   3.358   1.522   2.724 -0.4079  0.5184 -0.0352
   55MOL0     C 7304   3.351   1.656   2.658 -0.4625  0.2569 -0.0861
   55MOL0     C 7305   3.211   1.709   2.646  0.1603  0.2312  0.1186
   55MOL0     C 7306   3.118   1.633   2.563  0.4044  0.6288  0.3792
   55MOL0     N 7307   3.160   1.604   2.428  0.0074  0.5242  0.5061
   55MOL0     C 7308   3.236   1.498   2.379  0.8264 -0.9383  0.0988
   55MOL0     C 7309   3.230   1.521   2.245  0.9636 -0.1096  0.1898
   55MOL0     C 7310   3.289   1.420   2.154 -0.0670  1.0419  0.2064
   55MOL0     C 7311   3.221   1.276   2.161  0.5318  0.3146 -0.5671
   55MOL0     C 7312   3.074   1.260   2.130  1.4798 -0.4739 -0.0427
   55MOL0     C 7313   3.011   1.130   2.190  0.3914 -0.2992 -1.0694
   55MOL0     O 7314   3.033   1.111   2.332 -0.1679  0.1664  0.9274
   55MOL0     C 7315   3.133   1.023   2.387 -0.5351  0.0786  0.1768
   55MOL0     C 7316   3.179   0.901   2.328 -0.1147  0.3530  0.2122
   55MOL0     C 7317   3.276   0.824   2.398  0.0045  0.2314  0.1081
   55MOL0     C 7318   3.298   0.687   2.336  0.0298  0.3773 -0.6267
   55MOL0     C 7319   3.329   0.866   2.519 -0.4262  0.2488 -0.2702
   55MOL0     C 7320   3.429   0.788   2.605  0.3923 -0.4521 -0.8629
   55MOL0     O 7321   3.461   0.659   2.574  0.1977 -0.9490  0.0340
   55MOL0     C 7322   3.528   0.600   2.671  0.7406 -0.7782  0.5889
   55MOL0     C 7323   3.670   0.602   2.682  0.2895 -0.8748 -0.7617
   55MOL0     C 7324   3.732   0.540   2.793 -0.0349  0.2374 -0.4553
   55MOL0     C 7325   3.665   0.470   2.888 -0.0425  0.7838  0.3538
   55MOL0     O 7326   3.739   0.426   3.002 -0.1186  0.5940  0.1037
   55MOL0     C 7327   3.723   0.285   3.038  0.6866 -0.0401  0.7767
   55MOL0     C 7328   3.689   0.304   3.176 -0.2412  0.3181 -0.6093
   55MOL0     C 7329   3.670   0.162   3.246  0.2736 -0.3040  0.5546
   55MOL0     C 7330   3.616   0.173   3.388  0.2744 -0.4816  0.5977
   55MOL0     C 7331   3.572   0.043   3.452 -0.1668  0.5123 -0.2543
   55MOL0     C 7332   3.696  -0.042   3.495 -0.2833  0.3926  0.0961
   55MOL0     C 7333   3.642  -0.165   3.562 -0.4047  0.3067 -0.1599
   55MOL0     C 7334   3.732  -0.292   3.544  0.0116 -0.1681  0.5336
   55MOL0    Cl 7335   3.883  -0.284   3.646  0.4981 -0.0414 -0.4951
   55MOL0     C 7336   3.524   0.458   2.881 -0.3837 -0.4530  0.3371
   55MOL0     C 7337   3.461   0.524   2.772  0.8421 -0.8112  0.4742
   55MOL0     O 7338   3.481   0.851   2.695  0.5080  0.2390 -0.3573
   55MOL0     C 7339   3.284   0.983   2.568  0.3023  1.2404  0.5604
   55MOL0     C 7340   3.178   1.061   2.512 -0.8009  0.5813 -0.1606
   55MOL0     N 7341   3.165   1.640   2.212 -0.1022  0.5079 -0.1660
   55MOL0     N 7342   3.121   1.681   2.322  0.3300  0.1165 -0.3354
   55MOL0     C 7343   3.732   0.909   2.958  1.3447  0.0675  0.1206
   55MOL0     C 7344   3.796   0.811   3.037 -0.3605 -0.1576  0.3413
   55MOL0     C 7345   4.071   0.592   3.308 -0.1906  0.1604 -0.0115
   55MOL0     C 7346   3.974   0.507   3.359  0.3007 -0.3265  0.2732
   55MOL0     C 7347   3.999   0.388   3.415  0.3965  1.6821  0.5856
   55MOL0     C 7348   4.129   0.344   3.429  0.1205  0.2450  0.5859
   55MOL0     O 7349   4.162   0.224   3.484 -0.5664  0.3518  0.3187
   55MOL0     C 7350   4.064   0.163   3.572  0.4580 -0.2128  0.1744
   55MOL0     C 7351   4.129   0.052   3.650 -0.2972  0.4811 -0.4561
   55MOL0     C 7352   4.140  -0.071   3.556  0.3874 -0.1958  0.0833
   55MOL0     C 7353   4.197  -0.196   3.617 -0.0165 -0.0517 -0.0407
   55MOL0     C 7354   4.343  -0.174   3.628  0.1820 -0.2051 -0.1693
   55MOL0     C 7355   4.461  -0.158   3.627 -0.0424 -0.5890  0.3841
   55MOL0     C 7356   4.234   0.438   3.387  0.6586  1.0977  0.3628
   55MOL0     C 7357   4.205   0.551   3.316  0.3991 -0.2606  0.3486
   55MOL0     H 7358   3.958   1.014   3.253  2.6763  0.0426 -1.7449
   55MOL0     H 7359   3.825   1.183   3.116  0.1715 -0.9153  1.8164
   55MOL0     H 7360   3.710   1.051   2.717 -1.9777 -3.4243  1.0678
   55MOL0     H 7361   3.541   1.051   2.786 -0.4184  0.8710  2.6132
   55MOL0     H 7362   3.699   1.295   2.689  0.4417 -0.5714  1.0302
   55MOL0     H 7363   3.567   1.205   2.606  3.8823  0.7933 -2.3937
   55MOL0     H 7364   3.403   1.290   2.779  0.2394  1.1397  0.5790
   55MOL0     H 7365   3.541   1.357   2.869 -1.9209  2.0637  1.1370
   55MOL0     H 7366   3.580   1.517   2.717 -0.3539 -1.4857 -0.1098
   55MOL0     H 7367   3.490   1.434   2.586 -2.1078  1.2852 -0.6827
   55MOL0     H 7368   3.283   1.459   2.676  2.4297 -1.7830 -1.8073
   55MOL0     H 7369   3.328   1.531   2.829 -0.1826  0.2693  0.0533
   55MOL0     H 7370   3.396   1.733   2.721 -1.5991  2.1152 -1.4422
   55MOL0     H 7371   3.402   1.655   2.562 -1.2918  0.8037 -0.5410
   55MOL0     H 7372   3.167   1.707   2.746 -2.4629  1.0214 -0.9427
   55MOL0     H 7373   3.222   1.813   2.615  3.9074 -0.8536 -3.1229
   55MOL0     H 7374   3.018   1.677   2.563 -0.5150 -0.9848 -3.9190
   55MOL0     H 7375   3.097   1.531   2.598 -2.0360 -0.7566 -4.2552
   55MOL0     H 7376   3.282   1.415   2.430 -0.6847 -0.5088  2.2865
   55MOL0     H 7377   3.278   1.460   2.053 -2.5835  1.1240  0.4563
   55MOL0     H 7378   3.395   1.408   2.178 -0.7809  1.0523  4.1312
   55MOL0     H 7379   3.232   1.227   2.258 -0.9723  0.6474 -0.2016
   55MOL0     H 7380   3.283   1.213   2.096  2.7018  1.3493  0.4210
   55MOL0     H 7381   3.065   1.246   2.022  1.3518 -0.0822 -0.0844
   55MOL0     H 7382   3.012   1.345   2.161  0.9913  0.5412 -3.4238
   55MOL0     H 7383   3.035   1.036   2.140 -0.1055 -1.8912  1.4835
   55MOL0     H 7384   2.906   1.145   2.166  0.8397 -0.2489 -3.1750
   55MOL0     H 7385   3.132   0.853   2.244 -2.2799  1.6081  0.6343
   55MOL0     H 7386   3.240   0.661   2.248  1.3788 -1.5691 -1.0003
   55MOL0     H 7387   3.403   0.681   2.307  0.9415 -1.0427  2.5460
   55MOL0     H 7388   3.285   0.603   2.405  1.3501 -0.1545 -0.9821
   55MOL0     H 7389   3.738   0.665   2.625 -0.8968  4.3381  2.8406
   55MOL0     H 7390   3.839   0.534   2.808  0.0178  1.7783 -0.0864
   55MOL0     H 7391   3.645   0.243   2.973 -1.7530  4.3147  0.4640
   55MOL0     H 7392   3.825   0.249   3.022  0.7361  1.3415 -3.3468
   55MOL0     H 7393   3.772   0.364   3.215  0.2155  1.8631 -3.6588
   55MOL0     H 7394   3.598   0.364   3.166  0.0595  0.7147 -1.0212
   55MOL0     H 7395   3.757   0.096   3.234  0.7990  0.6710 -1.2991
   55MOL0     H 7396   3.586   0.116   3.194 -2.0700  1.0488  2.8902
   55MOL0     H 7397   3.688   0.233   3.445 -0.0526  0.2781  0.2224
   55MOL0     H 7398   3.526   0.233   3.379  0.0698 -0.3380  3.0508
   55MOL0     H 7399   3.503  -0.014   3.390  1.6655 -0.6945 -1.2659
   55MOL0     H 7400   3.518   0.073   3.543  3.8956  2.8570  1.6742
   55MOL0     H 7401   3.744  -0.083   3.406  1.0635 -0.6026  1.2364
   55MOL0     H 7402   3.766   0.003   3.566  0.2450  1.4091 -1.0249
   55MOL0     H 7403   3.544  -0.192   3.523  1.0953 -0.2403 -3.9688
   55MOL0     H 7404   3.644  -0.153   3.671  1.6308 -0.9131 -0.0085
   55MOL0     H 7405   3.759  -0.294   3.438 -1.0631 -1.1790  0.2534
   55MOL0     H 7406   3.671  -0.379   3.569 -0.2881 -1.4928 -3.9178
   55MOL0     H 7407   3.471   0.395   2.952  2.3867 -0.5532  2.5281
   55MOL0     H 7408   3.357   0.494   2.762  0.5387  0.2450  0.3650
   55MOL0     H 7409   3.337   1.028   2.651 -0.4042 -0.9249  2.3106
   55MOL0     H 7410   3.143   1.151   2.561  1.3471  2.7154 -2.2772
   55MOL0     H 7411   3.682   0.876   2.868  2.0518  0.1839 -0.3222
   55MOL0     H 7412   3.796   0.706   3.010  6.9468 -0.4260 -0.6195
   55MOL0     H 7413   3.869   0.522   3.333  0.4038 -0.2824 -0.1160
   55MOL0     H 7414   3.914   0.335   3.457  0.2313  3.6009  2.8617
   55MOL0     H 7415   4.042   0.241   3.646  0.7424  0.7082 -0.6973
   55MOL0     H 7416   3.979   0.123   3.515  1.4145  0.4157 -1.7909
   55MOL0     H 7417   4.072   0.023   3.738 -2.7224  2.1999 -1.3684
   55MOL0     H 7418   4.230   0.084   3.677  1.1020 -1.7154 -2.6193
   55MOL0     H 7419   4.207  -0.048   3.473  0.3165 -1.0200 -0.2142
   55MOL0     H 7420   4.042  -0.096   3.516 -0.9227 -0.9208  3.3703
   55MOL0     H 7421   4.187  -0.286   3.555  0.6915 -1.3126  1.6208
   55MOL0     H 7422   4.156  -0.219   3.715 -1.0488  0.7310 -0.2716
   55MOL0     H 7423   4.568  -0.153   3.632  0.3076 -3.9187 -1.2321
   55MOL0     H 7424   4.337   0.412   3.410  1.1352  0.9967 -1.6837
   55MOL0     H 7425   4.281   0.626   3.296  1.1021 -0.6585  1.3706
   56MOL0     O 7426   3.262   6.859   6.168  0.2038  0.5789 -0.1548
   56MOL0     C 7427   3.227   6.901   6.280 -0.0096  0.1580 -0.6109
   56MOL0     O 7428   3.107   6.880   6.339 -0.2228  0.5337  0.1545
   56MOL0     C 7429   3.011   6.795   6.280 -0.2841  0.3634 -0.3712
   56MOL0     C 7430   2.911   6.755   6.369  0.2966 -1.0200 -0.3830
   56MOL0     C 7431   2.798   6.681   6.336 -1.0017  1.0400 -0.5418
   56MOL0     C 7432   2.776   6.655   6.195  0.3614 -0.6983 -0.4698
   56MOL0     O 7433   2.649   6.611   6.170  0.9375  0.4247 -0.3100
   56MOL0     C 7434   2.619   6.578   6.037  0.4592  0.4940  0.3499
   56MOL0     C 7435   2.479   6.519   6.047  1.3490 -0.0543  0.3438
   56MOL0     C 7436   2.422   6.498   5.905  0.3910  0.5437 -0.6930
   56MOL0     C 7437   2.496   6.402   5.808 -0.3488 -0.2220 -0.3415
   56MOL0     C 7438   2.448   6.399   5.665  0.2240 -0.9432  0.3362
   56MOL0     C 7439   2.480   6.533   5.598 -1.3822  0.6430  0.8597
   56MOL0     C 7440   2.467   6.518   5.441 -0.0877  0.4305  0.1540
   56MOL0     C 7441   2.494   6.649   5.362  0.8133  0.0385  0.6702
   56MOL0     N 7442   2.375   6.683   5.273 -0.0063  0.5572 -0.1319
   56MOL0     C 7443   2.237   6.709   5.298  0.1011  0.3127 -0.2093
   56MOL0     C 7444   2.182   6.693   5.180 -0.2859 -1.1231  0.5799
   56MOL0     C 7445   2.033   6.733   5.155  0.7856 -0.2444 -0.4769
   56MOL0     C 7446   1.989   6.682   5.023  0.4946 -0.4950  0.0580
   56MOL0     C 7447   1.841   6.657   4.997  0.0824 -0.3422 -0.4139
   56MOL0     C 7448   1.762   6.781   5.052  1.0033 -0.2424  0.7990
   56MOL0     O 7449   1.618   6.756   5.041  0.7369  0.9727  0.6335
   56MOL0     C 7450   1.515   6.839   5.098  0.2321 -0.3368  0.7140
   56MOL0     C 7451   1.542   6.972   5.136 -0.1995  0.5489 -0.6365
   56MOL0     C 7452   1.434   7.053   5.183  0.3333 -0.4561 -0.1540
   56MOL0     C 7453   1.481   7.204   5.194  0.5380 -0.5588 -0.5187
   56MOL0     C 7454   1.309   6.992   5.220  0.3775  0.1007 -0.3278
   56MOL0     C 7455   1.197   7.069   5.278  0.4765  0.5668  0.8284
   56MOL0     O 7456   1.077   7.004   5.288  0.0372  0.4817 -0.2304
   56MOL0     C 7457   1.043   6.978   5.414 -0.3806  0.6682 -0.4276
   56MOL0     C 7458   1.122   6.939   5.531  0.0069 -0.2642 -0.7496
   56MOL0     C 7459   1.065   6.904   5.658 -1.2423 -0.6390  0.1640
   56MOL0     C 7460   0.925   6.919   5.679  1.3177  0.1471 -0.6078
   56MOL0     O 7461   0.860   6.883   5.800 -0.0856 -0.5283  0.8476
   56MOL0     C 7462   0.748   6.954   5.838  0.2903 -0.9742  0.8663
   56MOL0     C 7463   0.668   6.860   5.921  0.2053  0.0418  0.2274
   56MOL0     C 7464   0.556   6.937   5.985  0.2126 -0.3009  0.8685
   56MOL0     C 7465   0.458   6.843   6.050  0.8572  0.8794  0.2305
   56MOL0     C 7466   0.394   6.893   6.183  0.0579 -0.2717 -0.3239
   56MOL0     C 7467   0.267   6.820   6.216 -1.2161 -0.5734  0.4396
   56MOL0     C 7468   0.177   6.896   6.318 -0.4505 -0.1892 -0.4706
   56MOL0     C 7469   0.043   6.940   6.256  0.7551  0.0022 -0.0870
   56MOL0    Cl 7470   0.075   7.025   6.108 -0.0137  0.3074  0.5421
   56MOL0     C 7471   0.851   6.946   5.568 -0.6752 -0.2683  0.3502
   56MOL0     C 7472   0.904   6.973   5.441 -0.2038  0.0303 -0.4647
   56MOL0     O 7473   1.222   7.190   5.318  0.2000  0.8092  0.3685
   56MOL0     C 7474   1.288   6.858   5.178 -0.8478  0.4904 -0.2240
   56MOL0     C 7475   1.391   6.785   5.116  0.9412  0.6609  0.8151
   56MOL0     N 7476   2.267   6.658   5.081 -0.7108 -0.2234  0.3943
   56MOL0     N 7477   2.388   6.659   5.139  0.3795 -0.0747 -0.2393
   56MOL0     C 7478   2.879   6.690   6.107 -1.1622 -0.0368  0.5806
   56MOL0     C 7479   2.993   6.762   6.150 -0.2608 -0.1383 -0.8014
   56MOL0     C 7480   3.314   6.983   6.360 -1.2606 -0.2108 -1.0997
   56MOL0     C 7481   3.456   7.006   6.337 -0.9920 -0.0361 -0.1214
   56MOL0     C 7482   3.533   7.081   6.432 -0.3230  0.2973  0.1343
   56MOL0     C 7483   3.485   7.117   6.557  0.5415  0.5294  0.0551
   56MOL0     O 7484   3.566   7.178   6.645 -0.3133  0.1188  0.4595
   56MOL0     C 7485   3.705   7.210   6.619 -0.0076 -0.5751 -0.2667
   56MOL0     C 7486   3.753   7.267   6.749 -0.1817 -0.6430 -0.5824
   56MOL0     C 7487   3.804   7.150   6.836  0.0646  0.3650 -0.2805
   56MOL0     C 7488   3.841   7.207   6.975  0.0971  0.2841  0.4121
   56MOL0     C 7489   3.919   7.106   7.036  0.3469 -0.2914 -0.4610
   56MOL0     C 7490   3.975   7.014   7.082 -0.2066  1.0330 -0.4983
   56MOL0     C 7491   3.359   7.092   6.587  0.7045  0.2106  0.2684
   56MOL0     C 7492   3.276   7.029   6.490 -0.0618  0.6322 -0.3705
   56MOL0     H 7493   2.932   6.787   6.471 -1.7265  0.8073 -0.4562
   56MOL0     H 7494   2.741   6.649   6.422  3.3204  0.2320  2.3627
   56MOL0     H 7495   2.631   6.669   5.977  0.9591 -0.8705 -1.7404
   56MOL0     H 7496   2.696   6.511   5.997 -2.5926 -1.3878 -2.9270
   56MOL0     H 7497   2.486   6.420   6.093 -1.7995 -1.0327 -1.0077
   56MOL0     H 7498   2.405   6.582   6.097 -0.6243 -2.3165  0.4466
   56MOL0     H 7499   2.325   6.449   5.915  0.2427 -0.7931 -5.8071
   56MOL0     H 7500   2.403   6.592   5.851 -0.0701 -0.5831 -2.6074
   56MOL0     H 7501   2.603   6.422   5.804  0.1345 -1.7099  2.6204
   56MOL0     H 7502   2.484   6.304   5.855  1.8767 -1.0484 -1.3875
   56MOL0     H 7503   2.500   6.317   5.616  0.7822  1.7088 -4.1241
   56MOL0     H 7504   2.340   6.381   5.666 -0.2172  0.8867  4.2265
   56MOL0     H 7505   2.423   6.618   5.637 -0.1294  1.8121  0.2768
   56MOL0     H 7506   2.578   6.568   5.632 -1.5657  4.0692 -1.5822
   56MOL0     H 7507   2.508   6.432   5.388  0.5307  0.9190 -0.1665
   56MOL0     H 7508   2.358   6.511   5.435 -0.2863  1.4491  1.8337
   56MOL0     H 7509   2.593   6.635   5.318  0.1274  0.8700 -1.2589
   56MOL0     H 7510   2.516   6.728   5.434  0.9038 -0.2726  0.9857
   56MOL0     H 7511   2.178   6.740   5.384 -1.1239 -0.5334 -0.7042
   56MOL0     H 7512   1.970   6.685   5.231  2.4540 -0.5298  0.7976
   56MOL0     H 7513   2.019   6.841   5.165  2.0025 -0.2155  1.4969
   56MOL0     H 7514   2.027   6.579   5.019  0.7745 -0.8052  5.1213
   56MOL0     H 7515   2.026   6.749   4.945  1.5191 -0.7475  0.3089
   56MOL0     H 7516   1.814   6.557   5.034 -0.4070  0.0241  0.2361
   56MOL0     H 7517   1.807   6.648   4.894 -6.1344 -0.1570  1.2295
   56MOL0     H 7518   1.777   6.872   4.993 -0.5075 -2.6719 -3.7852
   56MOL0     H 7519   1.790   6.801   5.156  0.8248 -0.9322  0.9844
   56MOL0     H 7520   1.631   7.017   5.094 -0.5464  1.1681 -0.7122
   56MOL0     H 7521   1.510   7.220   5.299  0.7619 -1.2579 -0.4694
   56MOL0     H 7522   1.570   7.224   5.133  1.3701 -1.5020  0.3368
   56MOL0     H 7523   1.397   7.271   5.174  0.3967 -0.5856 -0.0364
   56MOL0     H 7524   1.225   6.972   5.524  0.6620 -0.5956  3.9738
   56MOL0     H 7525   1.137   6.897   5.738  0.8720  2.6121 -1.2501
   56MOL0     H 7526   0.777   7.044   5.892  0.3099 -1.0028  0.9044
   56MOL0     H 7527   0.685   6.994   5.758  0.0200  0.1501  1.6258
   56MOL0     H 7528   0.625   6.776   5.866  0.8691 -1.3587  1.7985
   56MOL0     H 7529   0.717   6.825   6.012 -2.8698 -2.0523  1.2280
   56MOL0     H 7530   0.503   7.003   5.915 -1.9294  0.4515  3.0852
   56MOL0     H 7531   0.599   7.008   6.056 -0.0213  2.3467 -1.4331
   56MOL0     H 7532   0.384   6.813   5.975  1.8807 -2.1249  0.3003
   56MOL0     H 7533   0.503   6.748   6.078 -2.0035 -1.0584 -1.2536
   56MOL0     H 7534   0.362   6.997   6.172 -2.9866 -0.6157  3.4161
   56MOL0     H 7535   0.478   6.896   6.253  0.0229 -0.9462 -0.2495
   56MOL0     H 7536   0.204   6.792   6.131 -0.7824 -1.7670  0.4943
   56MOL0     H 7537   0.290   6.718   6.249 -2.2761 -0.6749  0.8946
   56MOL0     H 7538   0.235   6.979   6.361 -0.7729 -0.6221  0.8440
   56MOL0     H 7539   0.160   6.811   6.384 -1.9719 -0.0033 -0.5915
   56MOL0     H 7540  -0.027   6.992   6.322 -0.1796 -0.6384 -0.5569
   56MOL0     H 7541  -0.013   6.851   6.224 -1.8219  0.6577  2.2013
   56MOL0     H 7542   0.744   6.930   5.561 -0.3809 -1.6221 -2.7778
   56MOL0     H 7543   0.837   6.995   5.359 -0.1481  3.2609  0.2402
   56MOL0     H 7544   1.193   6.806   5.178  0.4353 -2.6251 -5.2515
   56MOL0     H 7545   1.363   6.682   5.098  0.4242  1.0137 -0.5542
   56MOL0     H 7546   2.875   6.673   6.000  1.6493  1.1469  0.2080
   56MOL0     H 7547   3.068   6.803   6.083 -0.4745  0.8623 -0.4389
   56MOL0     H 7548   3.515   6.975   6.251 -2.2064 -3.1912  0.0583
   56MOL0     H 7549   3.638   7.100   6.414 -0.0754 -1.4387 -0.4151
   56MOL0     H 7550   3.754   7.116   6.590 -2.8414 -2.5610  0.9529
   56MOL0     H 7551   3.709   7.284   6.539 -0.6528 -0.2077  0.0358
   56MOL0     H 7552   3.674   7.313   6.809  1.8300  0.7664  1.1109
   56MOL0     H 7553   3.831   7.341   6.730  0.7668 -1.0726  1.4139
   56MOL0     H 7554   3.893   7.104   6.791 -1.8214 -2.8328 -1.0348
   56MOL0     H 7555   3.720   7.082   6.853  1.0024 -0.9894 -0.9157
   56MOL0     H 7556   3.748   7.217   7.031 -2.2958 -0.0848 -3.1330
   56MOL0     H 7557   3.894   7.303   6.975 -1.7010  1.3275  1.3552
   56MOL0     H 7558   4.030   6.941   7.138  2.9104  1.1460 -3.1101
   56MOL0     H 7559   3.334   7.138   6.682 -1.0286  0.9200 -0.4806
   56MOL0     H 7560   3.170   7.018   6.512 -0.1640 -2.4399 -1.8920
   57MOL0     O 7561  10.745   0.729   3.495  0.2260 -0.7094  1.4780
   57MOL0     C 7562  10.863   0.730   3.457  0.0599  0.3666 -0.4660
   57MOL0     O 7563  10.917   0.803   3.353  0.2899  0.3427  1.1918
   57MOL0     C 7564  10.843   0.908   3.297  0.1222  1.7650 -0.1032
   57MOL0     C 7565  10.803   0.905   3.172 -0.9407 -0.0086  0.2603
   57MOL0     C 7566  10.735   1.012   3.111 -0.2655 -0.4625 -0.2752
   57MOL0     C 7567  10.724   1.130   3.166  0.2322 -0.8910  0.5746
   57MOL0     O 7568  10.649   1.225   3.092  0.4931 -0.1722 -0.1969
   57MOL0     C 7569  10.633   1.361   3.142  0.2004  0.1514 -0.4731
   57MOL0     C 7570  10.561   1.440   3.033 -0.1568  0.6272  0.2575
   57MOL0     C 7571  10.630   1.428   2.893 -0.4472  0.0179 -0.1088
   57MOL0     C 7572  10.542   1.491   2.781 -0.1430 -0.3154 -0.1944
   57MOL0     C 7573  10.607   1.449   2.645  0.1231 -0.2840 -0.1350
   57MOL0     C 7574  10.548   1.521   2.526  0.5544 -0.0686 -0.4364
   57MOL0     C 7575  10.593   1.667   2.519 -0.0934  0.1606 -0.2109
   57MOL0     C 7576  10.609   1.740   2.386 -0.1656 -0.1318  0.1446
   57MOL0     N 7577  10.487   1.786   2.308  0.1993  0.2675 -0.3972
   57MOL0     C 7578  10.378   1.711   2.271  1.2381  0.3780  0.4580
   57MOL0     C 7579  10.305   1.796   2.196  0.2043  0.5719 -0.2132
   57MOL0     C 7580  10.183   1.773   2.122 -0.7778  0.4633  0.2866
   57MOL0     C 7581  10.113   1.906   2.086 -0.9838 -0.0387  0.0604
   57MOL0     C 7582   9.963   1.894   2.043 -0.2007  0.6723 -1.4297
   57MOL0     C 7583   9.953   1.783   1.942 -0.0948 -0.6339  0.1504
   57MOL0     O 7584   9.942   1.662   2.011  0.8981  0.1690  0.5584
   57MOL0     C 7585   9.868   1.558   1.951 -0.6647 -0.6981  0.5953
   57MOL0     C 7586   9.846   1.552   1.816  0.4587  1.2048  0.2805
   57MOL0     C 7587   9.766   1.450   1.754  0.6473 -0.5261 -0.2180
   57MOL0     C 7588   9.742   1.465   1.603 -0.4203 -0.4764  1.2778
   57MOL0     C 7589   9.712   1.353   1.836 -0.1048 -0.1376 -0.6069
   57MOL0     C 7590   9.624   1.243   1.786 -0.1157  0.6953 -0.6599
   57MOL0     O 7591   9.596   1.234   1.647  0.2993 -0.4177 -0.7685
   57MOL0     C 7592   9.516   1.138   1.597  0.1696  0.1930 -0.3788
   57MOL0     C 7593   9.543   1.006   1.625  0.3694 -0.4078 -0.5570
   57MOL0     C 7594   9.464   0.903   1.577 -0.4955 -0.1884 -0.1440
   57MOL0     C 7595   9.352   0.930   1.492 -0.2490  0.0702 -0.3129
   57MOL0     O 7596   9.256   0.837   1.461  0.2938  0.1075 -0.2022
   57MOL0     C 7597   9.292   0.705   1.421  0.0092 -0.3352  0.9480
   57MOL0     C 7598   9.203   0.647   1.309 -0.1700  0.2370 -0.1637
   57MOL0     C 7599   9.213   0.490   1.308 -0.4009 -0.0833 -1.0449
   57MOL0     C 7600   9.148   0.447   1.177  0.2161 -0.6658  0.1332
   57MOL0     C 7601   9.166   0.298   1.145 -0.0442  0.4265 -0.7989
   57MOL0     C 7602   9.143   0.272   0.991  0.0710  0.0588 -1.2149
   57MOL0     C 7603   9.129   0.129   0.934 -0.2365  0.3687 -0.6749
   57MOL0     C 7604   9.270   0.066   0.930 -0.5298  0.7353  0.3947
   57MOL0    Cl 7605   9.359   0.122   0.791 -0.3738  0.1246 -0.0638
   57MOL0     C 7606   9.325   1.069   1.456  0.9170  1.2718 -0.5760
   57MOL0     C 7607   9.409   1.168   1.515 -0.7735  0.0785  0.3594
   57MOL0     O 7608   9.590   1.161   1.872  1.2270 -0.1301  0.1703
   57MOL0     C 7609   9.749   1.357   1.978 -0.5793  0.8737 -0.0794
   57MOL0     C 7610   9.827   1.467   2.034 -0.5978  0.0821 -0.2650
   57MOL0     N 7611  10.379   1.908   2.175  0.0408  0.3745  0.2068
   57MOL0     N 7612  10.480   1.912   2.250  0.1729 -0.2303  0.2109
   57MOL0     C 7613  10.771   1.147   3.299 -0.6104  1.1770 -0.5878
   57MOL0     C 7614  10.829   1.034   3.360  0.6696 -0.4146 -0.5332
   57MOL0     C 7615  10.959   0.652   3.531 -0.2724 -0.3069 -0.3938
   57MOL0     C 7616  11.096   0.666   3.494  0.9143  0.2735 -0.5731
   57MOL0     C 7617  11.196   0.594   3.564 -0.3096  0.1199 -0.6210
   57MOL0     C 7618  11.164   0.512   3.672  0.3460  0.3443 -0.5852
   57MOL0     O 7619  11.263   0.445   3.749 -0.3203 -0.2719 -0.4118
   57MOL0     C 7620  11.306   0.314   3.714 -0.9371  0.1800  0.6371
   57MOL0     C 7621  11.403   0.315   3.590  0.5257 -0.6169  0.0665
   57MOL0     C 7622  11.546   0.375   3.605  0.0318  0.6043 -0.3600
   57MOL0     C 7623  11.640   0.307   3.706  0.3714 -0.3931 -0.9080
   57MOL0     C 7624  11.664   0.171   3.677 -0.1424  0.3973 -0.2446
   57MOL0     C 7625  11.690   0.056   3.668  0.6287 -0.0170 -0.5301
   57MOL0     C 7626  11.029   0.495   3.710 -1.0478 -0.4379 -0.2174
   57MOL0     C 7627  10.931   0.564   3.637  0.9483  0.5288  0.2953
   57MOL0     H 7628  10.836   0.830   3.102 -2.9973  0.5743 -1.4554
   57MOL0     H 7629  10.702   1.006   3.008 -0.8500  3.0341 -0.4317
   57MOL0     H 7630  10.570   1.348   3.230 -1.0400 -3.8831 -1.7764
   57MOL0     H 7631  10.731   1.406   3.163 -0.5101  0.9108  1.3835
   57MOL0     H 7632  10.464   1.394   3.011 -0.2673  1.0177 -0.0880
   57MOL0     H 7633  10.537   1.545   3.053 -1.4497  0.2449  0.8107
   57MOL0     H 7634  10.721   1.489   2.889  0.2132 -0.9398 -3.4295
   57MOL0     H 7635  10.660   1.324   2.878 -0.4738 -0.0657  0.4030
   57MOL0     H 7636  10.439   1.456   2.796 -0.6099  1.6113  1.7118
   57MOL0     H 7637  10.545   1.599   2.799  2.2005 -0.7624  3.0325
   57MOL0     H 7638  10.714   1.466   2.659  0.1748 -1.3348  0.9544
   57MOL0     H 7639  10.595   1.341   2.631 -3.0718 -0.7040  4.0052
   57MOL0     H 7640  10.574   1.474   2.431 -0.8905 -0.2493 -0.7714
   57MOL0     H 7641  10.439   1.524   2.531  0.4473 -2.9939  3.0758
   57MOL0     H 7642  10.518   1.721   2.577  0.6503  0.2980  0.6469
   57MOL0     H 7643  10.688   1.679   2.573 -0.6905 -0.5024  1.0141
   57MOL0     H 7644  10.676   1.681   2.323 -0.4386 -1.9330  1.4742
   57MOL0     H 7645  10.668   1.830   2.408  0.5477 -1.0736  2.3193
   57MOL0     H 7646  10.355   1.608   2.295  0.0979  0.3129 -0.7968
   57MOL0     H 7647  10.232   1.726   2.037  1.1655  0.1849  1.4891
   57MOL0     H 7648  10.117   1.701   2.172 -0.7635  0.1466 -0.1462
   57MOL0     H 7649  10.162   1.942   1.995 -0.5148  1.5877  0.9210
   57MOL0     H 7650  10.133   1.974   2.169 -1.9200  0.2656  0.0508
   57MOL0     H 7651   9.925   1.990   2.009  0.7985  0.9964 -1.6530
   57MOL0     H 7652   9.897   1.874   2.128 -1.0749  0.3654 -2.1573
   57MOL0     H 7653  10.035   1.783   1.870 -1.1200 -3.9235 -1.2397
   57MOL0     H 7654   9.860   1.800   1.887 -0.4766  0.6661  1.1475
   57MOL0     H 7655   9.889   1.625   1.749 -1.9405  1.8531 -0.6342
   57MOL0     H 7656   9.748   1.368   1.552 -3.5143 -1.7304  3.0100
   57MOL0     H 7657   9.644   1.511   1.597 -1.0512 -1.8183  0.9702
   57MOL0     H 7658   9.827   1.517   1.557 -3.1708 -0.4427 -4.6350
   57MOL0     H 7659   9.616   0.968   1.695  1.2278  1.9114 -0.1257
   57MOL0     H 7660   9.484   0.803   1.615  0.8461  0.6864  1.6204
   57MOL0     H 7661   9.396   0.709   1.386 -0.1748  0.6493  0.5061
   57MOL0     H 7662   9.285   0.644   1.512 -1.9897 -1.9870 -0.2221
   57MOL0     H 7663   9.100   0.682   1.315 -0.7551 -0.7188 -3.3208
   57MOL0     H 7664   9.252   0.677   1.216  1.3235  3.1338  1.3789
   57MOL0     H 7665   9.170   0.440   1.395  1.0308  1.6449  0.7331
   57MOL0     H 7666   9.319   0.464   1.310 -0.7263 -1.4932  0.8874
   57MOL0     H 7667   9.045   0.482   1.184  0.8009  1.2644 -0.0117
   57MOL0     H 7668   9.211   0.486   1.096 -0.1425  1.4457  0.8009
   57MOL0     H 7669   9.094   0.234   1.198  2.2657 -0.0994  1.9384
   57MOL0     H 7670   9.266   0.264   1.175 -0.3940 -0.5732 -0.7012
   57MOL0     H 7671   9.044   0.314   0.971  0.0079  1.0498  0.9556
   57MOL0     H 7672   9.216   0.331   0.935  1.4542  0.6927  1.1593
   57MOL0     H 7673   9.079   0.115   0.838  0.6614 -1.1099 -0.9621
   57MOL0     H 7674   9.070   0.073   1.007  1.9215  0.0889  0.9727
   57MOL0     H 7675   9.273  -0.043   0.941 -0.3934  0.8598  1.8641
   57MOL0     H 7676   9.327   0.106   1.014 -1.7392 -0.3026  1.7802
   57MOL0     H 7677   9.239   1.088   1.393 -0.8018 -1.4169  0.7423
   57MOL0     H 7678   9.393   1.274   1.502  1.6387  0.1154 -4.1998
   57MOL0     H 7679   9.709   1.285   2.049 -0.3394  1.4772  0.6762
   57MOL0     H 7680   9.836   1.485   2.141  0.9597  1.7086 -0.6130
   57MOL0     H 7681  10.739   1.228   3.364 -2.0668 -1.1966  1.8818
   57MOL0     H 7682  10.878   1.042   3.457  0.8136  1.4068 -0.7242
   57MOL0     H 7683  11.122   0.721   3.405 -1.9390  2.5939 -0.1169
   57MOL0     H 7684  11.297   0.610   3.527 -0.1090  1.7642  0.5345
   57MOL0     H 7685  11.347   0.263   3.802 -1.3753 -1.0872  0.1233
   57MOL0     H 7686  11.216   0.258   3.688 -0.0782 -1.9942  2.1070
   57MOL0     H 7687  11.345   0.360   3.508 -0.9384 -1.7389  0.4563
   57MOL0     H 7688  11.421   0.209   3.571  0.8544 -0.6070  0.3281
   57MOL0     H 7689  11.526   0.479   3.634 -3.1137  0.4946 -1.7213
   57MOL0     H 7690  11.598   0.385   3.510 -1.4098  1.6538 -1.0765
   57MOL0     H 7691  11.600   0.322   3.807  1.7916  3.1829 -0.7111
   57MOL0     H 7692  11.734   0.362   3.708 -1.3885  2.8995  0.6518
   57MOL0     H 7693  11.722  -0.044   3.650  0.2190 -0.5350  1.4709
   57MOL0     H 7694  11.010   0.431   3.795  2.8007  1.9123  2.7876
   57MOL0     H 7695  10.833   0.549   3.681  1.2447 -0.5752  0.5913
   58MOL0     O 7696   4.390   6.265   4.035  0.4752  0.6236  0.0473
   58MOL0     C 7697   4.380   6.334   4.140  0.7476  0.4099  0.5040
   58MOL0     O 7698   4.278   6.430   4.162 -0.1364 -0.0526 -0.4962
   58MOL0     C 7699   4.189   6.456   4.066  1.6740  0.0601  0.1723
   58MOL0     C 7700   4.213   6.469   3.927  0.6791  0.1956 -1.2995
   58MOL0     C 7701   4.111   6.486   3.829  0.2557 -0.3153 -0.5063
   58MOL0     C 7702   3.974   6.492   3.868 -0.5903  0.9982 -0.0689
   58MOL0     O 7703   3.870   6.509   3.787 -0.0118  0.6069 -0.8707
   58MOL0     C 7704   3.808   6.638   3.779 -0.5976 -0.0025 -0.3752
   58MOL0     C 7705   3.878   6.713   3.664 -0.2484  0.3714 -1.3457
   58MOL0     C 7706   3.894   6.647   3.530  0.5994 -0.0968 -0.4607
   58MOL0     C 7707   3.756   6.588   3.490 -0.0074 -0.2378  0.7908
   58MOL0     C 7708   3.753   6.523   3.353 -0.6142  0.6639 -0.4901
   58MOL0     C 7709   3.780   6.603   3.232  0.6182 -0.3010  0.3641
   58MOL0     C 7710   3.656   6.685   3.188 -0.8431  0.7047  0.6844
   58MOL0     C 7711   3.627   6.809   3.266  0.3485 -0.1029 -1.2983
   58MOL0     N 7712   3.523   6.896   3.208 -0.7171  0.3647  0.3540
   58MOL0     C 7713   3.503   6.931   3.072 -0.1829  0.0661  0.5965
   58MOL0     C 7714   3.394   7.016   3.076  0.0847 -0.2109  0.1520
   58MOL0     C 7715   3.325   7.078   2.961  0.1361  0.4574  0.0557
   58MOL0     C 7716   3.388   7.208   2.943 -0.1240 -1.4144 -0.0387
   58MOL0     C 7717   3.396   7.268   2.797  0.1164  0.6065  0.1999
   58MOL0     C 7718   3.471   7.399   2.798  0.7173  1.2601 -0.1246
   58MOL0     O 7719   3.468   7.458   2.662  0.9446  0.5621  0.2151
   58MOL0     C 7720   3.579   7.448   2.581 -0.1766  0.4582  0.7691
   58MOL0     C 7721   3.684   7.534   2.572  0.1112 -0.4399 -1.1848
   58MOL0     C 7722   3.788   7.525   2.478 -0.0309 -0.2816 -0.3762
   58MOL0     C 7723   3.895   7.630   2.475 -0.1115 -0.4873 -0.5652
   58MOL0     C 7724   3.765   7.434   2.377 -0.6243 -0.6008  0.1112
   58MOL0     C 7725   3.847   7.415   2.259 -0.3376 -0.1771 -0.5746
   58MOL0     O 7726   3.872   7.293   2.207 -0.1490  0.3208 -0.5334
   58MOL0     C 7727   3.932   7.286   2.083  0.1375  1.0609 -1.4001
   58MOL0     C 7728   3.879   7.329   1.958  0.5275 -0.4027  0.8061
   58MOL0     C 7729   3.938   7.291   1.835 -0.5642  0.2920  0.3584
   58MOL0     C 7730   4.058   7.216   1.835 -0.6359 -0.2642  0.5354
   58MOL0     O 7731   4.125   7.162   1.727 -0.3776  0.1115  0.4724
   58MOL0     C 7732   4.112   7.238   1.598 -0.0187 -0.1452 -0.0713
   58MOL0     C 7733   4.228   7.195   1.502 -0.6639  0.4085  0.2576
   58MOL0     C 7734   4.265   7.294   1.398  0.6515 -0.4562  0.4533
   58MOL0     C 7735   4.368   7.231   1.308  0.2958  0.1349  0.5497
   58MOL0     C 7736   4.438   7.321   1.202 -0.0937 -0.1142  0.2907
   58MOL0     C 7737   4.337   7.402   1.118 -0.7614 -0.1363 -0.4602
   58MOL0     C 7738   4.404   7.497   1.015 -0.8965 -0.2376 -0.4920
   58MOL0     C 7739   4.466   7.621   1.080 -0.2156  0.5476 -0.2861
   58MOL0    Cl 7740   4.516   7.735   0.945 -0.0953  0.1512 -0.4790
   58MOL0     C 7741   4.104   7.179   1.955  0.3732  0.7592 -0.0035
   58MOL0     C 7742   4.050   7.204   2.077  0.9593 -0.0899 -0.3933
   58MOL0     O 7743   3.889   7.518   2.209  0.4575 -0.2935 -0.3801
   58MOL0     C 7744   3.652   7.350   2.376  0.4099 -1.0971  0.0707
   58MOL0     C 7745   3.564   7.354   2.478 -0.0833  1.0843 -0.1010
   58MOL0     N 7746   3.359   7.041   3.210 -0.4667  0.0715  0.0735
   58MOL0     N 7747   3.434   6.962   3.284  0.0585  0.4549 -0.6208
   58MOL0     C 7748   3.950   6.486   4.008 -0.4191 -1.4989  1.1534
   58MOL0     C 7749   4.049   6.472   4.103 -0.8289  0.3315 -0.3023
   58MOL0     C 7750   4.481   6.335   4.248 -0.7677  0.9726  0.7628
   58MOL0     C 7751   4.604   6.264   4.239 -0.0586 -0.5404  0.2760
   58MOL0     C 7752   4.707   6.278   4.335 -0.9233  1.6947  0.0747
   58MOL0     C 7753   4.695   6.360   4.437 -0.4053  1.4289  0.3484
   58MOL0     O 7754   4.792   6.395   4.531  0.0401 -0.1000  0.4871
   58MOL0     C 7755   4.799   6.539   4.559  1.0097  0.1603  0.4643
   58MOL0     C 7756   4.816   6.631   4.431 -0.2843 -0.6708 -0.5976
   58MOL0     C 7757   4.853   6.784   4.454 -0.4528  0.9096 -0.1083
   58MOL0     C 7758   4.739   6.876   4.495  0.6803 -0.0695 -0.0176
   58MOL0     C 7759   4.662   6.898   4.369  0.1107 -0.4528 -0.8502
   58MOL0     C 7760   4.617   6.925   4.265  0.1279  0.4721  0.0253
   58MOL0     C 7761   4.565   6.413   4.457  0.4932 -0.0669  0.3049
   58MOL0     C 7762   4.464   6.408   4.370  0.0034 -0.2028  0.8605
   58MOL0     H 7763   4.313   6.467   3.885  0.1993  2.8455 -2.7999
   58MOL0     H 7764   4.133   6.508   3.725 -0.9040  1.7152 -0.3824
   58MOL0     H 7765   3.703   6.624   3.751 -0.9190 -2.5407  1.7145
   58MOL0     H 7766   3.813   6.705   3.865 -2.3332  1.8156 -1.5890
   58MOL0     H 7767   3.828   6.809   3.655  0.2881  1.1227  2.3650
   58MOL0     H 7768   3.980   6.735   3.696 -1.4549  4.2415  0.3362
   58MOL0     H 7769   3.926   6.718   3.454 -1.2866  0.8465 -0.4437
   58MOL0     H 7770   3.958   6.560   3.544  1.7438  0.6211 -1.1050
   58MOL0     H 7771   3.737   6.506   3.560  0.9731 -1.7234 -0.6073
   58MOL0     H 7772   3.674   6.658   3.507  0.4083  0.3514  0.4085
   58MOL0     H 7773   3.822   6.438   3.352  0.0586  1.1580 -3.0146
   58MOL0     H 7774   3.653   6.482   3.339 -0.1596 -0.4940 -0.4538
   58MOL0     H 7775   3.860   6.673   3.260  1.3420 -1.9266  2.6898
   58MOL0     H 7776   3.819   6.544   3.149 -2.0345  0.1085 -1.2977
   58MOL0     H 7777   3.660   6.706   3.081 -2.5010  2.0480  0.8392
   58MOL0     H 7778   3.568   6.620   3.182 -0.9064  0.9318 -1.9382
   58MOL0     H 7779   3.722   6.862   3.276 -1.3038  2.8631 -0.3791
   58MOL0     H 7780   3.590   6.785   3.366  0.3699  0.4006 -1.1715
   58MOL0     H 7781   3.544   6.893   2.979 -1.3644 -0.0219  0.0967
   58MOL0     H 7782   3.333   7.016   2.871  0.4815 -2.8081  2.1751
   58MOL0     H 7783   3.217   7.085   2.979  0.0060 -1.7275  0.4164
   58MOL0     H 7784   3.493   7.195   2.970 -0.5367 -0.4891  2.1932
   58MOL0     H 7785   3.337   7.270   3.017 -2.8004 -4.1504  0.6234
   58MOL0     H 7786   3.294   7.286   2.760 -0.8539  1.3740  2.9791
   58MOL0     H 7787   3.439   7.202   2.721 -1.6773  0.4463 -0.7382
   58MOL0     H 7788   3.571   7.367   2.829 -0.8717 -0.5068  3.9338
   58MOL0     H 7789   3.422   7.460   2.874 -5.2741 -0.4517 -2.0275
   58MOL0     H 7790   3.688   7.601   2.657  2.2358 -2.6193  0.6018
   58MOL0     H 7791   3.990   7.592   2.515  2.0517  3.5518 -1.2903
   58MOL0     H 7792   3.914   7.679   2.379  1.8635  0.9677  0.4799
   58MOL0     H 7793   3.854   7.710   2.536  3.8189  2.3861 -1.2475
   58MOL0     H 7794   3.791   7.387   1.932  2.8260  1.7412 -3.1761
   58MOL0     H 7795   3.883   7.319   1.745 -2.6587 -1.8798  0.8475
   58MOL0     H 7796   4.015   7.218   1.551 -0.2131 -1.5245  0.8433
   58MOL0     H 7797   4.122   7.345   1.620  0.4480 -0.6334  2.3543
   58MOL0     H 7798   4.313   7.159   1.560 -0.6867 -1.5987 -0.8626
   58MOL0     H 7799   4.189   7.103   1.457  0.1674 -1.4025  2.9756
   58MOL0     H 7800   4.312   7.378   1.449 -0.4174  0.1405  0.4905
   58MOL0     H 7801   4.183   7.342   1.344  2.4958  3.0208  0.4857
   58MOL0     H 7802   4.455   7.198   1.365 -0.8370 -1.2513  1.5373
   58MOL0     H 7803   4.316   7.145   1.264 -1.3474  1.2503  0.2250
   58MOL0     H 7804   4.500   7.263   1.133  0.0041 -0.1068  0.3715
   58MOL0     H 7805   4.508   7.386   1.255  2.2502 -0.5025 -2.1159
   58MOL0     H 7806   4.276   7.327   1.065  0.3256 -1.4507  0.0861
   58MOL0     H 7807   4.274   7.459   1.186 -1.5227 -1.5986  0.1207
   58MOL0     H 7808   4.328   7.544   0.952 -2.6202  0.1501  1.7415
   58MOL0     H 7809   4.472   7.428   0.963 -1.8383 -3.1671  1.8637
   58MOL0     H 7810   4.556   7.600   1.140  0.3985  2.2282 -0.5599
   58MOL0     H 7811   4.390   7.677   1.135 -0.9344 -0.3406 -0.3501
   58MOL0     H 7812   4.186   7.108   1.957  0.0312  0.3563  2.0451
   58MOL0     H 7813   4.091   7.155   2.164 -3.3022  3.2982  4.0651
   58MOL0     H 7814   3.634   7.287   2.290 -2.1726  2.1057 -1.9759
   58MOL0     H 7815   3.489   7.277   2.488  0.4771  0.6046  0.5301
   58MOL0     H 7816   3.845   6.493   4.031 -1.2496 -0.4086 -2.3980
   58MOL0     H 7817   4.024   6.454   4.207  0.5631 -0.1578 -0.0302
   58MOL0     H 7818   4.611   6.187   4.163 -0.4563 -2.3845  2.0127
   58MOL0     H 7819   4.794   6.218   4.310 -3.0841 -2.0188  0.6801
   58MOL0     H 7820   4.708   6.575   4.607  1.2934  1.6852 -0.0893
   58MOL0     H 7821   4.884   6.549   4.626  1.6859 -1.6605 -0.0444
   58MOL0     H 7822   4.728   6.605   4.371 -0.9185 -1.8997  0.8030
   58MOL0     H 7823   4.900   6.582   4.380  1.0646 -0.2221  1.1178
   58MOL0     H 7824   4.904   6.817   4.363 -2.6730  4.6279 -0.2110
   58MOL0     H 7825   4.925   6.783   4.536 -2.1295  1.6190  1.4220
   58MOL0     H 7826   4.774   6.975   4.523 -2.3899  1.0093  0.3577
   58MOL0     H 7827   4.677   6.847   4.580 -1.4116 -0.7188 -1.6821
   58MOL0     H 7828   4.569   6.944   4.171 -0.6339 -1.2318  0.0194
   58MOL0     H 7829   4.538   6.477   4.540  1.3035  1.4939 -0.5799
   58MOL0     H 7830   4.366   6.452   4.387 -0.9107 -0.8915 -1.9602
   59MOL0     O 7831   9.332   5.932   5.198  0.3522  0.1559 -0.8329
   59MOL0     C 7832   9.366   5.829   5.146  1.3806 -0.6270 -0.5380
   59MOL0     O 7833   9.277   5.725   5.115 -0.2809 -0.4141  0.2416
   59MOL0     C 7834   9.148   5.725   5.169 -1.4316 -0.5152  0.3621
   59MOL0     C 7835   9.089   5.615   5.236  0.3143  1.2366  1.1535
   59MOL0     C 7836   8.958   5.625   5.280  0.5502  0.6295 -0.9970
   59MOL0     C 7837   8.870   5.729   5.241 -1.0052  0.0339  0.0720
   59MOL0     O 7838   8.736   5.753   5.275 -0.0229 -0.1380  1.0603
   59MOL0     C 7839   8.681   5.660   5.373 -0.5029 -0.5765 -0.2294
   59MOL0     C 7840   8.539   5.716   5.412  0.6261  0.2078 -0.7756
   59MOL0     C 7841   8.537   5.870   5.449 -0.0371 -0.9946 -0.1808
   59MOL0     C 7842   8.626   5.893   5.574  0.1424 -0.0201 -0.9228
   59MOL0     C 7843   8.638   6.041   5.607  0.7515 -1.4854 -0.2048
   59MOL0     C 7844   8.672   6.074   5.752  0.3210 -0.4154  0.0568
   59MOL0     C 7845   8.707   6.221   5.772 -0.6588 -0.8359 -0.1017
   59MOL0     C 7846   8.672   6.265   5.907 -0.4371 -0.6874 -1.1874
   59MOL0     N 7847   8.759   6.197   6.002 -0.6606 -0.1160 -0.2830
   59MOL0     C 7848   8.717   6.097   6.090  0.3544  0.0342 -0.8192
   59MOL0     C 7849   8.819   6.080   6.170 -1.6463  0.2114  0.1671
   59MOL0     C 7850   8.822   5.972   6.279  0.0586  0.3501 -0.4405
   59MOL0     C 7851   8.921   5.997   6.401  0.5402 -0.2463  0.5495
   59MOL0     C 7852   8.923   5.860   6.485  0.8080 -0.7221  0.4299
   59MOL0     C 7853   9.039   5.844   6.578 -0.2643 -0.0007  0.1336
   59MOL0     O 7854   9.029   5.926   6.698  0.5150 -0.1984 -0.3723
   59MOL0     C 7855   8.953   5.888   6.803  0.4695 -0.1721 -0.1547
   59MOL0     C 7856   8.870   5.772   6.813  0.3946 -0.8633  0.5113
   59MOL0     C 7857   8.801   5.739   6.926  0.2320  0.0457  0.0964
   59MOL0     C 7858   8.723   5.611   6.930 -0.1507  0.4914 -1.5303
   59MOL0     C 7859   8.817   5.829   7.045 -0.1369 -0.2862  0.5529
   59MOL0     C 7860   8.745   5.814   7.173  0.6728  0.2509  0.8281
   59MOL0     O 7861   8.802   5.898   7.262  1.0713  0.7801 -0.0323
   59MOL0     C 7862   8.765   5.902   7.392  0.3418 -0.3379  0.2844
   59MOL0     C 7863   8.845   5.860   7.499 -0.1451 -0.0626  0.2403
   59MOL0     C 7864   8.805   5.895   7.631 -0.6103  0.2177  0.0129
   59MOL0     C 7865   8.673   5.928   7.656 -0.6991  0.5602  0.5540
   59MOL0     O 7866   8.623   5.939   7.779 -0.0944 -0.5805  0.5235
   59MOL0     C 7867   8.707   6.006   7.874 -0.2520  0.2547  0.4570
   59MOL0     C 7868   8.610   6.035   7.982 -0.4026  0.0587 -0.4659
   59MOL0     C 7869   8.568   5.909   8.047  0.2087  1.1019  0.7312
   59MOL0     C 7870   8.441   5.938   8.139 -0.0874 -0.4161  0.1975
   59MOL0     C 7871   8.387   5.811   8.208  0.0843  0.6128 -0.2045
   59MOL0     C 7872   8.261   5.768   8.127 -0.5392 -0.5603 -0.1875
   59MOL0     C 7873   8.208   5.625   8.150 -1.2065 -0.2500  1.0179
   59MOL0     C 7874   8.311   5.518   8.110  0.1709  0.6575  0.5846
   59MOL0    Cl 7875   8.389   5.550   7.948  0.0041  0.6058  0.0382
   59MOL0     C 7876   8.593   5.952   7.544 -0.3893 -0.2675  0.2980
   59MOL0     C 7877   8.638   5.954   7.414 -0.1945 -0.1811 -0.9664
   59MOL0     O 7878   8.668   5.725   7.200  0.1766  0.2997  0.3260
   59MOL0     C 7879   8.910   5.939   7.033  1.2949 -0.5553 -0.2741
   59MOL0     C 7880   8.973   5.960   6.918 -0.6689 -0.7200 -0.0157
   59MOL0     N 7881   8.925   6.161   6.138  0.7221  0.4176 -0.1541
   59MOL0     N 7882   8.883   6.239   6.047  0.1728 -0.5515  0.4532
   59MOL0     C 7883   8.934   5.833   5.175  0.0310  0.1472 -0.4803
   59MOL0     C 7884   9.069   5.830   5.135  0.5432  0.8218  0.3507
   59MOL0     C 7885   9.514   5.805   5.121  0.1522 -0.5312  0.7749
   59MOL0     C 7886   9.601   5.910   5.110  0.1800  0.2695  0.3750
   59MOL0     C 7887   9.738   5.878   5.126  0.3960  0.4955  0.9651
   59MOL0     C 7888   9.786   5.754   5.139  0.0786 -1.0169  0.1070
   59MOL0     O 7889   9.918   5.719   5.164  1.0780  0.1511  0.2160
   59MOL0     C 7890   9.986   5.823   5.237 -0.3638  1.2288  0.9463
   59MOL0     C 7891  10.114   5.766   5.310  0.9187 -0.0724  0.3745
   59MOL0     C 7892  10.188   5.673   5.203  0.2725 -0.2011  1.2664
   59MOL0     C 7893  10.321   5.621   5.257 -0.0113  0.9125  0.1016
   59MOL0     C 7894  10.277   5.552   5.380  0.0183  0.9669  0.3160
   59MOL0     C 7895  10.260   5.491   5.486  0.0160  1.0360 -0.3857
   59MOL0     C 7896   9.693   5.647   5.145 -0.8656 -0.5691 -0.9256
   59MOL0     C 7897   9.558   5.676   5.138 -0.4489 -0.3704 -0.3346
   59MOL0     H 7898   9.161   5.536   5.254  0.6361  1.0006 -0.8761
   59MOL0     H 7899   8.922   5.552   5.353 -0.4554  3.3521  1.4215
   59MOL0     H 7900   8.666   5.563   5.326  0.0980 -0.7025 -0.1662
   59MOL0     H 7901   8.742   5.662   5.464  0.0326 -1.3690 -0.5599
   59MOL0     H 7902   8.474   5.695   5.327 -1.3981  1.4419  0.3981
   59MOL0     H 7903   8.495   5.655   5.491 -1.0496 -0.3422 -2.0698
   59MOL0     H 7904   8.571   5.927   5.362  1.1643  1.5010  1.7677
   59MOL0     H 7905   8.432   5.896   5.470  0.5312 -0.3545  2.2284
   59MOL0     H 7906   8.570   5.837   5.649 -0.6048  1.9571  0.0746
   59MOL0     H 7907   8.723   5.847   5.557  0.3627 -0.8523  2.1440
   59MOL0     H 7908   8.703   6.091   5.535 -2.1187  0.6257 -1.5620
   59MOL0     H 7909   8.537   6.081   5.588  1.3902  0.8513  0.8860
   59MOL0     H 7910   8.596   6.037   5.821  0.2388 -0.0090  0.1835
   59MOL0     H 7911   8.769   6.033   5.780  0.8936  0.8026 -0.0818
   59MOL0     H 7912   8.814   6.240   5.764 -1.2245  2.1161 -2.3958
   59MOL0     H 7913   8.664   6.285   5.695 -1.6004  0.0330  1.1025
   59MOL0     H 7914   8.568   6.250   5.940 -0.3517  1.6609  0.3866
   59MOL0     H 7915   8.707   6.368   5.900 -0.2079 -0.8735 -5.2338
   59MOL0     H 7916   8.613   6.068   6.101  0.0602  1.0365 -0.8533
   59MOL0     H 7917   8.717   5.956   6.306 -0.2363 -1.3961 -2.3960
   59MOL0     H 7918   8.848   5.872   6.244 -0.5165  0.8876 -2.5056
   59MOL0     H 7919   8.905   6.085   6.464 -1.8590  2.0254 -2.8847
   59MOL0     H 7920   9.022   5.993   6.360 -0.2485 -3.0745 -1.4298
   59MOL0     H 7921   8.922   5.775   6.417 -1.7041 -0.9050  0.6104
   59MOL0     H 7922   8.836   5.868   6.551  0.8752 -0.2393  0.4669
   59MOL0     H 7923   9.119   5.886   6.516 -0.1259 -0.3956  0.0452
   59MOL0     H 7924   9.069   5.745   6.613  0.6569 -0.8419 -2.7621
   59MOL0     H 7925   8.832   5.729   6.720 -3.3516  2.6672  0.1256
   59MOL0     H 7926   8.623   5.632   6.968  0.9591  2.8329  0.3827
   59MOL0     H 7927   8.715   5.563   6.832 -1.2013  1.3319 -1.8707
   59MOL0     H 7928   8.775   5.536   6.990 -0.4871  0.5100 -1.2127
   59MOL0     H 7929   8.948   5.828   7.487  0.4340  0.5926  2.8145
   59MOL0     H 7930   8.877   5.863   7.706 -1.2750 -1.5114 -0.0473
   59MOL0     H 7931   8.784   5.941   7.916 -0.6268  1.6412  3.6657
   59MOL0     H 7932   8.751   6.100   7.844 -0.3512 -0.0231 -0.5837
   59MOL0     H 7933   8.646   6.104   8.058  0.8938  1.1388 -1.9856
   59MOL0     H 7934   8.523   6.093   7.950 -0.4019  1.8887  2.4657
   59MOL0     H 7935   8.647   5.875   8.115  0.2140 -0.6677 -0.1070
   59MOL0     H 7936   8.550   5.829   7.976  0.3946  1.3231  0.4337
   59MOL0     H 7937   8.473   6.011   8.214 -1.5112  2.0536 -1.4401
   59MOL0     H 7938   8.369   5.991   8.077  1.5077 -0.2585 -1.6236
   59MOL0     H 7939   8.366   5.826   8.315  1.2668  2.0086 -0.1520
   59MOL0     H 7940   8.466   5.738   8.191  1.2356  1.2749  1.8898
   59MOL0     H 7941   8.174   5.828   8.155 -1.6532 -0.5716 -3.2281
   59MOL0     H 7942   8.280   5.781   8.020  0.9830  0.5987  0.1834
   59MOL0     H 7943   8.118   5.612   8.089  1.6689 -2.2000 -3.2698
   59MOL0     H 7944   8.186   5.617   8.256  0.9294 -0.2328  1.5112
   59MOL0     H 7945   8.262   5.420   8.119 -3.1357  1.4171 -4.7004
   59MOL0     H 7946   8.399   5.521   8.174  1.2312  1.4511 -0.8641
   59MOL0     H 7947   8.499   5.994   7.576  0.1467  1.2302 -0.0003
   59MOL0     H 7948   8.565   5.982   7.338 -1.6064 -1.5521 -0.1752
   59MOL0     H 7949   8.946   6.000   7.116 -2.3573  1.8000 -0.2005
   59MOL0     H 7950   9.042   6.043   6.910 -0.8567 -0.7350 -2.6574
   59MOL0     H 7951   8.869   5.918   5.152 -2.5230 -0.8776  2.3086
   59MOL0     H 7952   9.105   5.895   5.055 -2.4477  3.0672  0.6462
   59MOL0     H 7953   9.559   6.010   5.116 -1.4359 -0.0442 -3.2237
   59MOL0     H 7954   9.810   5.959   5.120  0.8851  0.0184  0.2498
   59MOL0     H 7955  10.026   5.891   5.162 -0.3876 -0.2877 -0.4845
   59MOL0     H 7956   9.931   5.889   5.305  1.4781 -0.5678  4.4903
   59MOL0     H 7957  10.079   5.703   5.393 -0.3110  2.2639  1.7318
   59MOL0     H 7958  10.180   5.844   5.350  0.4142 -0.1308  1.3543
   59MOL0     H 7959  10.204   5.722   5.107  1.1415 -1.9937  0.4465
   59MOL0     H 7960  10.124   5.586   5.187 -0.0733  0.6088 -2.7259
   59MOL0     H 7961  10.383   5.702   5.295 -0.0599 -0.6642  4.1662
   59MOL0     H 7962  10.374   5.557   5.187  0.5721 -1.5998  2.6373
   59MOL0     H 7963  10.228   5.453   5.581  3.6761  4.3619  2.5870
   59MOL0     H 7964   9.717   5.547   5.178 -0.0795  0.9308  3.6465
   59MOL0     H 7965   9.490   5.593   5.154 -0.3926 -0.2537  0.5231
   60MOL0     O 7966   3.494   7.516   4.393 -0.1620 -0.4046 -0.8185
   60MOL0     C 7967   3.494   7.493   4.514 -0.1713  0.5033 -1.2978
   60MOL0     O 7968   3.605   7.449   4.592  0.5792 -1.0220 -0.3926
   60MOL0     C 7969   3.724   7.413   4.533 -1.0948  0.0462  0.2164
   60MOL0     C 7970   3.780   7.299   4.593  1.0302 -0.9207 -1.2894
   60MOL0     C 7971   3.895   7.251   4.539 -1.3244 -0.5446 -0.3883
   60MOL0     C 7972   3.961   7.319   4.431  0.2205  0.0939  0.2868
   60MOL0     O 7973   4.077   7.267   4.373 -0.3976  0.1132 -0.5395
   60MOL0     C 7974   4.199   7.321   4.438  0.8121 -0.1915  1.2130
   60MOL0     C 7975   4.317   7.258   4.363 -0.7169  0.8531 -0.5369
   60MOL0     C 7976   4.451   7.272   4.439 -0.2027  0.3810  0.4857
   60MOL0     C 7977   4.469   7.183   4.566 -0.3106  0.0258 -0.4112
   60MOL0     C 7978   4.598   7.197   4.635 -0.6926  0.7100  0.0528
   60MOL0     C 7979   4.626   7.341   4.669 -0.1383 -0.4096  0.4588
   60MOL0     C 7980   4.763   7.361   4.741  0.8040 -0.0181  0.4786
   60MOL0     C 7981   4.787   7.273   4.856  0.5460  0.7865  0.1621
   60MOL0     N 7982   4.695   7.278   4.974 -0.0854  0.2095 -0.8316
   60MOL0     C 7983   4.586   7.195   4.997 -0.0711 -0.4666 -0.2048
   60MOL0     C 7984   4.540   7.246   5.112  0.5469 -0.8576 -0.2951
   60MOL0     C 7985   4.421   7.186   5.179  0.5145 -0.2802  0.6898
   60MOL0     C 7986   4.284   7.255   5.122 -0.6134  0.2677  0.3454
   60MOL0     C 7987   4.153   7.183   5.151 -0.2521  0.5067 -0.0640
   60MOL0     C 7988   4.028   7.255   5.083 -0.2051 -0.5863 -0.6265
   60MOL0     O 7989   4.014   7.221   4.940  0.1804  0.6358 -0.1581
   60MOL0     C 7990   3.938   7.102   4.911 -0.1830 -0.4537 -0.7521
   60MOL0     C 7991   3.813   7.076   4.953  0.7340 -0.1485 -0.1215
   60MOL0     C 7992   3.740   6.962   4.906  0.1599  0.5127 -0.2692
   60MOL0     C 7993   3.604   6.943   4.962 -0.3095  0.8273 -0.0577
   60MOL0     C 7994   3.791   6.880   4.808  0.0328 -0.0051  0.1487
   60MOL0     C 7995   3.719   6.750   4.768 -0.3569 -0.2516 -0.3808
   60MOL0     O 7996   3.782   6.630   4.800  0.4613  0.2070 -0.5969
   60MOL0     C 7997   3.717   6.514   4.763  0.0570 -1.2818 -0.5721
   60MOL0     C 7998   3.637   6.466   4.867 -0.2216 -0.6616  0.8088
   60MOL0     C 7999   3.591   6.337   4.855 -0.5031 -0.0263  0.0790
   60MOL0     C 8000   3.601   6.268   4.735 -0.3350  0.1546  0.6535
   60MOL0     O 8001   3.552   6.139   4.705  1.0671  1.0280 -0.4911
   60MOL0     C 8002   3.470   6.083   4.806 -0.6804  0.0873 -0.5080
   60MOL0     C 8003   3.459   5.941   4.765 -0.5289 -0.0036  0.4943
   60MOL0     C 8004   3.350   5.880   4.852 -0.9631 -1.1179 -0.5994
   60MOL0     C 8005   3.303   5.748   4.809 -0.2998 -0.1808  0.7096
   60MOL0     C 8006   3.172   5.699   4.878  0.6970 -0.1602  0.4628
   60MOL0     C 8007   3.119   5.569   4.837 -0.2762 -0.3280  0.1869
   60MOL0     C 8008   3.065   5.556   4.695 -0.3819  0.0275  0.3985
   60MOL0     C 8009   3.009   5.425   4.654 -0.3081 -0.3474 -0.2049
   60MOL0    Cl 8010   2.851   5.393   4.715 -0.5756  0.2474 -0.1139
   60MOL0     C 8011   3.683   6.317   4.629  0.8040 -0.0513  0.2326
   60MOL0     C 8012   3.741   6.445   4.648  0.5564 -0.8296  0.0263
   60MOL0     O 8013   3.609   6.756   4.717 -0.2694 -0.6405  0.3298
   60MOL0     C 8014   3.915   6.906   4.773  0.3221 -1.0802  0.6430
   60MOL0     C 8015   3.990   7.020   4.823 -1.1560  0.5683 -0.7938
   60MOL0     N 8016   4.616   7.351   5.155 -0.2129  0.3488 -0.3784
   60MOL0     N 8017   4.717   7.365   5.075 -0.3352 -0.1656 -0.1367
   60MOL0     C 8018   3.913   7.440   4.377 -0.5019 -0.3586  0.1799
   60MOL0     C 8019   3.793   7.481   4.428  0.7355 -0.0184  0.6831
   60MOL0     C 8020   3.363   7.506   4.583  0.2432 -1.3775  0.4894
   60MOL0     C 8021   3.246   7.446   4.527  0.7200 -0.2225  0.9375
   60MOL0     C 8022   3.117   7.467   4.575  0.0125  0.0979 -0.9594
   60MOL0     C 8023   3.100   7.546   4.692 -0.8894  0.6423 -0.1557
   60MOL0     O 8024   2.970   7.561   4.734  0.3418 -0.2679  0.7278
   60MOL0     C 8025   2.933   7.464   4.833  0.9559 -0.4420 -1.1269
   60MOL0     C 8026   2.835   7.359   4.769 -0.4953  1.0561 -0.5585
   60MOL0     C 8027   2.708   7.433   4.720  0.2754 -0.8034 -0.3037
   60MOL0     C 8028   2.605   7.329   4.673  0.1586  0.7086  0.6590
   60MOL0     C 8029   2.477   7.386   4.629  2.0318 -0.1736  0.0079
   60MOL0     C 8030   2.368   7.424   4.587 -0.1158 -0.6969 -0.2978
   60MOL0     C 8031   3.215   7.601   4.757  0.2668  0.6644  0.6144
   60MOL0     C 8032   3.343   7.576   4.701  0.8635 -0.8516 -0.1760
   60MOL0     H 8033   3.725   7.248   4.671 -2.2869  1.8414 -1.5873
   60MOL0     H 8034   3.932   7.156   4.576 -0.2980 -0.2576 -0.6471
   60MOL0     H 8035   4.195   7.429   4.427  4.8735 -0.0659 -0.7612
   60MOL0     H 8036   4.207   7.291   4.543  0.1373  2.4172  2.0804
   60MOL0     H 8037   4.295   7.151   4.370 -0.4694  0.8999  2.9607
   60MOL0     H 8038   4.322   7.289   4.258 -0.6122 -1.6227 -1.3363
   60MOL0     H 8039   4.538   7.234   4.384 -0.1976  2.3136 -0.9201
   60MOL0     H 8040   4.462   7.380   4.452  0.7161  0.6341 -1.9002
   60MOL0     H 8041   4.405   7.219   4.648  0.3602 -2.3700  1.2746
   60MOL0     H 8042   4.452   7.081   4.531  2.0350 -0.2483 -0.9117
   60MOL0     H 8043   4.602   7.141   4.729 -0.0852  0.8562  0.1199
   60MOL0     H 8044   4.670   7.169   4.557 -2.3924 -1.8324 -0.7365
   60MOL0     H 8045   4.638   7.390   4.572  2.4160 -2.6273 -0.4746
   60MOL0     H 8046   4.550   7.385   4.735  0.3788  0.1974  0.6540
   60MOL0     H 8047   4.836   7.349   4.660  0.2171  0.3230 -0.1059
   60MOL0     H 8048   4.760   7.463   4.778 -0.5881  0.8885 -1.9022
   60MOL0     H 8049   4.891   7.299   4.879  1.6854 -1.9029 -1.4395
   60MOL0     H 8050   4.778   7.172   4.814  1.5901  1.2085 -1.1335
   60MOL0     H 8051   4.542   7.114   4.940 -0.3899  1.1157 -2.3311
   60MOL0     H 8052   4.421   7.079   5.159 -0.2094  0.0030 -0.9300
   60MOL0     H 8053   4.415   7.194   5.288  0.3293 -0.9036  0.7279
   60MOL0     H 8054   4.312   7.284   5.021  0.8408 -2.7337 -0.2458
   60MOL0     H 8055   4.278   7.350   5.175  0.0034  2.0965 -2.6597
   60MOL0     H 8056   4.146   7.179   5.260  3.5962  1.4944  0.3521
   60MOL0     H 8057   4.160   7.076   5.131 -2.3820  0.1942  0.5604
   60MOL0     H 8058   4.033   7.364   5.095 -3.5151 -0.5087  1.2774
   60MOL0     H 8059   3.939   7.241   5.145  0.7834  2.6420  1.7869
   60MOL0     H 8060   3.766   7.137   5.029 -0.8722 -0.2374 -0.9972
   60MOL0     H 8061   3.530   6.969   4.886 -0.6990  0.8867  0.3354
   60MOL0     H 8062   3.589   6.840   4.996  1.0763  0.3365 -0.8390
   60MOL0     H 8063   3.597   7.009   5.049  0.8306  0.2493  0.4992
   60MOL0     H 8064   3.627   6.511   4.965 -1.5576 -2.1088  1.3740
   60MOL0     H 8065   3.532   6.296   4.936 -1.4798 -2.3370 -1.7033
   60MOL0     H 8066   3.511   6.092   4.907  0.4196 -4.7954 -0.2861
   60MOL0     H 8067   3.372   6.134   4.806 -1.3845 -1.2193  0.3913
   60MOL0     H 8068   3.421   5.931   4.663 -2.2877 -1.8714  1.2607
   60MOL0     H 8069   3.555   5.891   4.778 -1.9461 -2.6967  1.2079
   60MOL0     H 8070   3.271   5.955   4.866  1.0712  1.0378  0.1022
   60MOL0     H 8071   3.382   5.892   4.956 -6.7257  2.5849  1.2544
   60MOL0     H 8072   3.274   5.745   4.703 -3.8132 -0.6487  1.5687
   60MOL0     H 8073   3.389   5.681   4.825  1.3209  1.8735  1.0764
   60MOL0     H 8074   3.101   5.778   4.852 -1.4243 -2.4915 -1.2492
   60MOL0     H 8075   3.188   5.694   4.986  1.8399 -0.5482  0.2911
   60MOL0     H 8076   3.204   5.500   4.841 -0.2400 -0.2139  2.5314
   60MOL0     H 8077   3.045   5.535   4.910 -1.0732 -0.0506 -0.4778
   60MOL0     H 8078   3.137   5.568   4.614  1.4153 -2.5972  1.4716
   60MOL0     H 8079   2.990   5.634   4.681  1.3136  1.2142 -2.9978
   60MOL0     H 8080   3.064   5.336   4.683  1.0515  0.6480  0.3662
   60MOL0     H 8081   3.002   5.426   4.544 -2.0183  0.6442 -0.1296
   60MOL0     H 8082   3.701   6.245   4.550 -3.4970  0.2058 -1.2794
   60MOL0     H 8083   3.817   6.484   4.580  0.8260 -1.7368 -0.2090
   60MOL0     H 8084   3.970   6.836   4.710  2.5556  0.6235  0.5682
   60MOL0     H 8085   4.091   7.032   4.786 -0.8258  1.4339  0.3102
   60MOL0     H 8086   3.964   7.496   4.300 -2.1458  4.0112  1.9554
   60MOL0     H 8087   3.738   7.563   4.383 -1.0253 -2.4204 -1.8760
   60MOL0     H 8088   3.264   7.387   4.438  2.2967 -0.1846  1.2004
   60MOL0     H 8089   3.036   7.413   4.526  1.1997 -1.3865 -1.3804
   60MOL0     H 8090   3.016   7.401   4.867  0.7326 -1.2881 -2.0870
   60MOL0     H 8091   2.891   7.507   4.924  2.4544 -1.7189  0.2383
   60MOL0     H 8092   2.802   7.283   4.840  4.3507 -1.7876 -0.9009
   60MOL0     H 8093   2.887   7.296   4.696 -0.1325 -4.9939  4.1716
   60MOL0     H 8094   2.723   7.501   4.636  0.5892 -2.7638 -1.9112
   60MOL0     H 8095   2.657   7.489   4.799 -0.1627  0.3593 -1.3863
   60MOL0     H 8096   2.583   7.267   4.760  1.7232  2.1368  2.1311
   60MOL0     H 8097   2.642   7.270   4.588 -2.5426 -1.5484  0.8847
   60MOL0     H 8098   2.273   7.462   4.553 -1.9397 -0.4209  4.3226
   60MOL0     H 8099   3.197   7.664   4.843  2.5609  0.0010  1.6675
   60MOL0     H 8100   3.430   7.627   4.741 -0.1708  1.7613 -1.0559
   61MOL0     O 8101   1.513  10.357   2.625 -0.1745 -0.2912  0.0239
   61MOL0     C 8102   1.617  10.416   2.612 -0.0751  0.8120 -0.5399
   61MOL0     O 8103   1.625  10.549   2.565  0.2923  0.3821 -0.9220
   61MOL0     C 8104   1.515  10.623   2.541 -0.2253  0.1709  0.7693
   61MOL0     C 8105   1.428  10.648   2.645 -0.0498 -0.4592 -0.4645
   61MOL0     C 8106   1.314  10.723   2.614 -0.5333 -0.2030 -0.4822
   61MOL0     C 8107   1.298  10.779   2.486 -0.3637  0.1982 -0.2769
   61MOL0     O 8108   1.188  10.844   2.449  0.4744  0.3272  0.2187
   61MOL0     C 8109   1.062  10.776   2.455 -0.6554  0.8652 -0.2985
   61MOL0     C 8110   0.952  10.829   2.365 -1.1714  0.0819  0.7355
   61MOL0     C 8111   1.004  10.862   2.225 -0.0367 -0.6887  1.1594
   61MOL0     C 8112   1.055  10.729   2.162 -0.1836 -0.2237 -0.7318
   61MOL0     C 8113   1.092  10.747   2.020  0.1420 -0.1468  0.1805
   61MOL0     C 8114   0.980  10.770   1.928 -0.2669  0.8411 -0.6283
   61MOL0     C 8115   1.016  10.840   1.803 -0.8396 -0.0026 -0.6741
   61MOL0     C 8116   1.116  10.750   1.727 -0.7802  0.8520 -0.8249
   61MOL0     N 8117   1.167  10.814   1.605 -0.2211 -0.1432 -0.7660
   61MOL0     C 8118   1.287  10.876   1.581 -0.6477 -0.7017  0.4526
   61MOL0     C 8119   1.299  10.871   1.445 -0.3514 -0.9145 -0.3025
   61MOL0     C 8120   1.434  10.922   1.398  0.3494 -0.0154  0.5290
   61MOL0     C 8121   1.545  10.806   1.405 -0.0547  0.3939  0.1733
   61MOL0     C 8122   1.491  10.710   1.301 -0.2869  1.0203 -0.3599
   61MOL0     C 8123   1.615  10.625   1.277 -0.1995 -0.0123  0.5295
   61MOL0     O 8124   1.565  10.506   1.221 -0.5519  0.2385  0.4561
   61MOL0     C 8125   1.656  10.426   1.161 -0.5615  0.2412 -0.1961
   61MOL0     C 8126   1.612  10.303   1.107 -0.9778  0.1827  0.7201
   61MOL0     C 8127   1.707  10.205   1.064  0.0996 -0.4968  0.5248
   61MOL0     C 8128   1.651  10.074   1.031 -0.2026  0.4444  0.3775
   61MOL0     C 8129   1.851  10.240   1.066  0.9622 -0.1298  0.2659
   61MOL0     C 8130   1.955  10.147   1.012  0.3253  0.4211  0.0498
   61MOL0     O 8131   2.078  10.162   1.068  0.2863  0.2701  0.5278
   61MOL0     C 8132   2.186  10.084   1.010 -0.1748  0.0931  0.0420
   61MOL0     C 8133   2.277  10.142   0.911  0.7984 -0.2130  0.4762
   61MOL0     C 8134   2.398  10.087   0.872 -0.2709 -0.2178  0.0819
   61MOL0     C 8135   2.437   9.966   0.935  0.7247 -0.1294  0.9235
   61MOL0     O 8136   2.556   9.905   0.898  0.5826  0.1425 -0.3480
   61MOL0     C 8137   2.640   9.872   1.005  0.6066 -0.5873 -0.6327
   61MOL0     C 8138   2.673   9.725   0.994 -0.9383 -0.3890 -0.3819
   61MOL0     C 8139   2.799   9.692   1.075 -0.0852 -0.5483 -0.5597
   61MOL0     C 8140   2.832   9.543   1.055 -0.0931 -0.5638 -0.9188
   61MOL0     C 8141   2.933   9.497   1.161 -0.3410 -0.6424  0.9881
   61MOL0     C 8142   2.951   9.345   1.180  0.2239  0.0189  0.2286
   61MOL0     C 8143   2.981   9.277   1.051  0.4387  0.3903 -0.2886
   61MOL0     C 8144   3.111   9.298   0.984 -1.1078 -0.3318 -0.4020
   61MOL0    Cl 8145   3.244   9.253   1.099 -0.2809  0.5014  0.0699
   61MOL0     C 8146   2.341   9.894   1.010 -0.4438 -1.0719  0.2092
   61MOL0     C 8147   2.226   9.955   1.046  0.7454 -0.1676 -0.0990
   61MOL0     O 8148   1.926  10.051   0.937 -0.0366 -0.1835 -0.1115
   61MOL0     C 8149   1.888  10.365   1.116 -0.0400 -0.6766 -0.3760
   61MOL0     C 8150   1.793  10.453   1.166  0.4106 -0.0657 -0.0075
   61MOL0     N 8151   1.195  10.804   1.393 -1.2773 -0.4471 -0.6221
   61MOL0     N 8152   1.117  10.758   1.486  0.7883 -0.6811  0.5718
   61MOL0     C 8153   1.387  10.753   2.386  0.6163  0.3400  1.0323
   61MOL0     C 8154   1.496  10.674   2.413 -1.6786  0.9395 -0.0084
   61MOL0     C 8155   1.746  10.346   2.664  0.4652  0.1761 -0.1363
   61MOL0     C 8156   1.864  10.424   2.659  0.3270  0.3536 -0.4313
   61MOL0     C 8157   1.980  10.370   2.720  0.0687 -0.3339  0.8004
   61MOL0     C 8158   1.991  10.241   2.765  0.2141 -0.4948 -0.6620
   61MOL0     O 8159   2.099  10.208   2.832 -0.6930  0.0807 -0.0419
   61MOL0     C 8160   2.092  10.221   2.976  0.8438 -0.6549  0.5981
   61MOL0     C 8161   2.148  10.083   3.040  1.0830  0.0214 -0.2031
   61MOL0     C 8162   2.287  10.090   3.098 -0.4092 -0.0478 -0.0674
   61MOL0     C 8163   2.338   9.981   3.200  0.1851  0.6738  0.6176
   61MOL0     C 8164   2.355   9.848   3.133  0.4421 -0.5811 -0.1834
   61MOL0     C 8165   2.365   9.735   3.083  0.4573 -0.3019  0.3818
   61MOL0     C 8166   1.878  10.164   2.759 -0.3948 -0.1696  0.0851
   61MOL0     C 8167   1.753  10.212   2.718  1.0456 -0.2960 -0.1656
   61MOL0     H 8168   1.456  10.620   2.746 -0.4317 -2.5687 -0.8923
   61MOL0     H 8169   1.231  10.740   2.682 -0.8674  0.0961 -0.9551
   61MOL0     H 8170   1.082  10.669   2.447 -1.1720  0.6535  1.0419
   61MOL0     H 8171   1.015  10.793   2.552 -0.9512  0.6053 -0.3934
   61MOL0     H 8172   0.863  10.766   2.377 -0.6480 -0.5134  1.6784
   61MOL0     H 8173   0.926  10.928   2.404  1.7771 -0.1125  3.7223
   61MOL0     H 8174   0.921  10.909   2.171  0.2783 -1.9514 -0.4990
   61MOL0     H 8175   1.087  10.933   2.229 -0.9320  0.3210  2.6303
   61MOL0     H 8176   1.144  10.688   2.210 -0.8217 -0.1429  0.5567
   61MOL0     H 8177   0.994  10.641   2.182 -0.6433  0.8990  3.8882
   61MOL0     H 8178   1.156  10.835   2.009 -1.2845  0.7732 -1.0427
   61MOL0     H 8179   1.146  10.658   1.985 -1.1905 -0.8976 -0.0214
   61MOL0     H 8180   0.920  10.681   1.909 -0.7454  1.0313 -0.0422
   61MOL0     H 8181   0.912  10.841   1.977  2.1616 -0.3445  5.3526
   61MOL0     H 8182   0.926  10.856   1.743  1.1269  3.1537 -3.1393
   61MOL0     H 8183   1.068  10.933   1.828  2.0343 -0.9328 -2.6855
   61MOL0     H 8184   1.075  10.648   1.719 -0.7835  0.6365  1.3514
   61MOL0     H 8185   1.205  10.739   1.790 -0.6174 -3.1147 -1.4487
   61MOL0     H 8186   1.366  10.905   1.649 -1.4298  1.6161  0.4777
   61MOL0     H 8187   1.440  10.968   1.299  0.3645  1.2523  1.1089
   61MOL0     H 8188   1.456  11.003   1.468 -2.4912  1.9464 -0.6383
   61MOL0     H 8189   1.543  10.765   1.507  0.3512  5.1846  2.3925
   61MOL0     H 8190   1.640  10.849   1.373  0.0204 -0.3877 -0.6844
   61MOL0     H 8191   1.467  10.761   1.207  1.6747  0.3974 -1.2487
   61MOL0     H 8192   1.401  10.654   1.327  0.5972 -0.2911 -0.0353
   61MOL0     H 8193   1.678  10.610   1.365 -1.0297  0.5407  1.2295
   61MOL0     H 8194   1.673  10.672   1.196 -2.1503  0.7188 -0.5007
   61MOL0     H 8195   1.506  10.279   1.113 -0.7108 -1.4440 -0.3597
   61MOL0     H 8196   1.678  10.037   0.932  1.7913  0.4435  0.8755
   61MOL0     H 8197   1.685  10.002   1.107 -1.0630  1.5228  1.8432
   61MOL0     H 8198   1.542  10.075   1.031 -0.3005  2.2921 -2.9178
   61MOL0     H 8199   2.241  10.241   0.886 -2.2475 -0.6355  2.7164
   61MOL0     H 8200   2.454  10.155   0.808  0.9177  0.2707  1.5615
   61MOL0     H 8201   2.733   9.926   0.990  0.9232 -2.1268 -6.8962
   61MOL0     H 8202   2.599   9.874   1.107 -0.0328  0.3412 -0.8966
   61MOL0     H 8203   2.600   9.659   1.041  1.2258  0.2300  4.5302
   61MOL0     H 8204   2.696   9.693   0.892  3.3857 -3.2174  1.1993
   61MOL0     H 8205   2.773   9.711   1.180 -2.4977  4.9874 -1.8286
   61MOL0     H 8206   2.866   9.771   1.041 -0.3070  0.9060  2.1098
   61MOL0     H 8207   2.734   9.494   1.062 -2.7662  4.3187  0.1234
   61MOL0     H 8208   2.877   9.528   0.957  1.3577  3.6140 -1.0626
   61MOL0     H 8209   2.916   9.548   1.256 -0.6985  1.1528  0.0288
   61MOL0     H 8210   3.028   9.542   1.129 -0.6539 -0.5337  0.1884
   61MOL0     H 8211   3.037   9.337   1.247 -0.0138 -1.2995  0.4056
   61MOL0     H 8212   2.858   9.299   1.216  1.2355 -3.6413 -1.3955
   61MOL0     H 8213   2.899   9.285   0.978  2.7511  1.2003 -3.0077
   61MOL0     H 8214   2.995   9.174   1.084 -2.0062  0.3006  0.7036
   61MOL0     H 8215   3.129   9.404   0.962 -0.5076 -0.3765 -0.1411
   61MOL0     H 8216   3.127   9.239   0.894  0.1408 -1.5223  0.5440
   61MOL0     H 8217   2.375   9.818   1.079 -0.2959 -0.0823  1.2539
   61MOL0     H 8218   2.146   9.906   1.101  1.5671  0.1802  1.4730
   61MOL0     H 8219   1.989  10.405   1.106  0.6232 -1.2824  2.9263
   61MOL0     H 8220   1.831  10.539   1.219 -1.9609 -1.5650  4.6255
   61MOL0     H 8221   1.363  10.781   2.283  0.1137 -0.1411  1.0131
   61MOL0     H 8222   1.571  10.640   2.342  1.7738 -0.9049  4.1155
   61MOL0     H 8223   1.860  10.525   2.621 -4.0203  0.9935  1.1660
   61MOL0     H 8224   2.070  10.428   2.734  0.4368 -0.9292  0.9210
   61MOL0     H 8225   2.155  10.308   2.994 -0.0919  0.8553 -2.6798
   61MOL0     H 8226   1.991  10.255   3.002  0.8268  0.2183 -0.5302
   61MOL0     H 8227   2.151  10.000   2.969  1.6626  1.4094 -1.8537
   61MOL0     H 8228   2.081  10.057   3.123  1.1718 -0.2465 -0.2140
   61MOL0     H 8229   2.294  10.177   3.165  2.1590 -0.1878 -0.0403
   61MOL0     H 8230   2.347  10.097   3.007  0.2452  1.0520  0.4218
   61MOL0     H 8231   2.272   9.972   3.287 -2.7954 -1.7595 -1.6900
   61MOL0     H 8232   2.430  10.031   3.232 -0.9662  2.7714  0.8313
   61MOL0     H 8233   2.382   9.633   3.054  0.0704 -0.0107 -0.9105
   61MOL0     H 8234   1.898  10.064   2.797 -0.5079 -0.5059 -0.7345
   61MOL0     H 8235   1.668  10.144   2.721  1.5460 -0.8926  0.6359
   62MOL0     O 8236   5.511   5.000   8.395  0.2438  0.1296 -0.8679
   62MOL0     C 8237   5.528   5.026   8.513 -0.0459 -0.4808 -0.4360
   62MOL0     O 8238   5.535   4.936   8.619 -0.0251  0.0408  0.1612
   62MOL0     C 8239   5.503   4.805   8.623  0.2420  0.0893  0.5740
   62MOL0     C 8240   5.419   4.746   8.524 -0.0948  0.2866 -0.0839
   62MOL0     C 8241   5.391   4.608   8.522  0.1133  0.9295 -0.0289
   62MOL0     C 8242   5.433   4.523   8.629  0.4499  0.1113 -1.0321
   62MOL0     O 8243   5.389   4.388   8.631  0.0100 -0.9146 -0.3051
   62MOL0     C 8244   5.373   4.329   8.760 -0.6410 -0.7819 -0.1726
   62MOL0     C 8245   5.300   4.205   8.755  0.1078 -0.5441  0.4513
   62MOL0     C 8246   5.270   4.136   8.895  0.7648 -0.5567 -0.3385
   62MOL0     C 8247   5.300   3.986   8.907  0.3433 -0.3037  0.2350
   62MOL0     C 8248   5.175   3.903   8.875  0.2234  0.9884 -0.1753
   62MOL0     C 8249   5.209   3.763   8.851  0.2437  0.0683 -0.8071
   62MOL0     C 8250   5.108   3.683   8.762  0.3908  1.2175 -0.0696
   62MOL0     C 8251   5.147   3.551   8.694 -0.3612  0.3665  0.0781
   62MOL0     N 8252   5.167   3.442   8.788  0.5444 -0.4315  0.0533
   62MOL0     C 8253   5.059   3.376   8.836  0.2853  0.9255 -0.0120
   62MOL0     C 8254   5.118   3.296   8.930 -0.1452 -0.1839 -0.1156
   62MOL0     C 8255   5.031   3.218   9.017  0.3734  0.8892  0.7402
   62MOL0     C 8256   5.038   3.072   8.965 -0.0005  0.2209  0.2492
   62MOL0     C 8257   4.935   2.979   9.028 -1.3645  0.7932  1.1160
   62MOL0     C 8258   4.948   2.828   8.989  0.6589  0.8089 -0.1649
   62MOL0     O 8259   4.855   2.808   8.881 -0.4303  0.1761  0.3994
   62MOL0     C 8260   4.824   2.676   8.853  0.4460  0.2293 -0.0598
   62MOL0     C 8261   4.907   2.591   8.787  0.0535 -0.0312 -0.2358
   62MOL0     C 8262   4.882   2.460   8.762 -0.2187  0.6105  1.0693
   62MOL0     C 8263   4.979   2.394   8.669 -0.5404  1.1339  0.5368
   62MOL0     C 8264   4.766   2.408   8.807  0.4776 -0.2320  0.2627
   62MOL0     C 8265   4.712   2.268   8.788  0.2387 -0.8934 -0.3162
   62MOL0     O 8266   4.580   2.250   8.779  0.0438  0.7817  0.7812
   62MOL0     C 8267   4.528   2.148   8.704  0.0318  0.4944  0.8812
   62MOL0     C 8268   4.589   2.091   8.591  0.0718 -0.0674  0.1594
   62MOL0     C 8269   4.523   1.979   8.527 -0.8692  1.0325 -0.2643
   62MOL0     C 8270   4.393   1.943   8.558  0.4825  0.1547 -0.5131
   62MOL0     O 8271   4.322   1.844   8.489 -0.6884  0.2433 -0.0107
   62MOL0     C 8272   4.199   1.803   8.542 -0.0347  0.4521  0.6744
   62MOL0     C 8273   4.165   1.674   8.463 -0.2558 -0.4610  0.1687
   62MOL0     C 8274   4.038   1.597   8.509  0.0907 -0.9748 -0.9681
   62MOL0     C 8275   4.026   1.462   8.449  0.8440  0.8403 -0.1756
   62MOL0     C 8276   3.897   1.384   8.503 -0.1259  0.8945  1.7096
   62MOL0     C 8277   3.926   1.311   8.634 -0.4222  0.7081  0.8583
   62MOL0     C 8278   3.797   1.274   8.697 -0.4008 -0.1812 -0.0927
   62MOL0     C 8279   3.798   1.152   8.781 -0.5277  0.5423 -0.0873
   62MOL0    Cl 8280   3.889   1.158   8.932  0.0924 -0.1710  0.0412
   62MOL0     C 8281   4.327   2.018   8.660 -0.6815  0.3508 -0.7136
   62MOL0     C 8282   4.394   2.114   8.735 -0.6064 -0.3417  0.5608
   62MOL0     O 8283   4.795   2.181   8.801 -0.0887  1.1530  0.7595
   62MOL0     C 8284   4.667   2.501   8.863  0.2379 -0.2417 -0.3690
   62MOL0     C 8285   4.699   2.634   8.891  0.5431  0.5709 -0.2297
   62MOL0     N 8286   5.256   3.314   8.927  0.2988 -0.0736 -0.4732
   62MOL0     N 8287   5.282   3.406   8.844  0.0587 -0.7535  0.1140
   62MOL0     C 8288   5.503   4.590   8.735 -0.4539  0.4927 -0.6016
   62MOL0     C 8289   5.530   4.728   8.733 -0.3593  0.8279  0.0998
   62MOL0     C 8290   5.546   5.167   8.554 -1.1349 -0.9297  0.1061
   62MOL0     C 8291   5.545   5.268   8.444  0.4820  0.9302 -0.0416
   62MOL0     C 8292   5.546   5.400   8.469 -0.8661 -0.3826 -0.1074
   62MOL0     C 8293   5.569   5.439   8.602 -0.4169  0.0808  0.0496
   62MOL0     O 8294   5.580   5.570   8.653 -0.2831  0.0125  0.9716
   62MOL0     C 8295   5.528   5.681   8.569  0.1583  0.0116  0.1548
   62MOL0     C 8296   5.517   5.817   8.638 -0.5434  0.1976  0.6740
   62MOL0     C 8297   5.613   5.912   8.556  0.6189 -0.4739  0.3905
   62MOL0     C 8298   5.613   6.053   8.613 -0.0559 -0.3694  0.8385
   62MOL0     C 8299   5.740   6.122   8.580  1.3481 -0.5273 -0.8062
   62MOL0     C 8300   5.849   6.182   8.576 -0.9579  0.7997  1.0037
   62MOL0     C 8301   5.576   5.345   8.697  0.3284  0.0702  0.3078
   62MOL0     C 8302   5.558   5.211   8.676  0.4294 -0.0409  0.2274
   62MOL0     H 8303   5.381   4.804   8.440 -0.0001  3.0001  1.6191
   62MOL0     H 8304   5.324   4.561   8.451 -2.2247  1.6954  1.5322
   62MOL0     H 8305   5.473   4.312   8.800 -0.1480  2.6518  0.3736
   62MOL0     H 8306   5.323   4.394   8.832  2.5655  1.2018  0.4200
   62MOL0     H 8307   5.210   4.213   8.694  2.4818  3.1093 -3.1062
   62MOL0     H 8308   5.377   4.139   8.713  1.4670  0.0430  1.9311
   62MOL0     H 8309   5.333   4.184   8.971  1.7472 -0.7833 -0.9840
   62MOL0     H 8310   5.171   4.172   8.922  2.1063  2.8885  0.5399
   62MOL0     H 8311   5.381   3.961   8.837 -2.0231 -3.7279 -1.5520
   62MOL0     H 8312   5.329   3.965   9.010 -0.6471 -0.2902  0.5250
   62MOL0     H 8313   5.103   3.907   8.958 -1.0837 -3.9255 -0.8059
   62MOL0     H 8314   5.128   3.935   8.781  0.5686  1.3359 -0.2307
   62MOL0     H 8315   5.308   3.770   8.805  1.9739 -1.9882  2.2525
   62MOL0     H 8316   5.217   3.712   8.947  3.6682  0.6949 -0.6322
   62MOL0     H 8317   5.016   3.665   8.818  0.6632  0.1468  0.0416
   62MOL0     H 8318   5.099   3.747   8.673 -1.4497  1.3903  0.2010
   62MOL0     H 8319   5.237   3.569   8.635  1.2879 -3.2046  1.1619
   62MOL0     H 8320   5.075   3.524   8.616 -2.1051  0.4450  1.5873
   62MOL0     H 8321   4.953   3.376   8.813  0.4756 -2.3520 -1.4688
   62MOL0     H 8322   5.058   3.218   9.123 -0.7340  3.1429  1.0829
   62MOL0     H 8323   4.930   3.255   8.999 -0.8642 -2.3567  0.3494
   62MOL0     H 8324   5.139   3.042   8.997  0.4510  1.3351 -0.0783
   62MOL0     H 8325   5.036   3.055   8.857 -0.4407  0.2044  0.2607
   62MOL0     H 8326   4.834   3.011   8.999 -1.5428  0.3893  1.2865
   62MOL0     H 8327   4.935   2.990   9.136 -0.5777 -1.5812  1.4286
   62MOL0     H 8328   4.910   2.779   9.080  0.0194  0.6175 -0.5241
   62MOL0     H 8329   5.049   2.789   8.974 -0.1143 -3.9892  4.0312
   62MOL0     H 8330   4.996   2.644   8.755  0.4344 -0.2782  0.3971
   62MOL0     H 8331   5.046   2.468   8.624  2.0094 -1.6420 -0.5548
   62MOL0     H 8332   5.046   2.325   8.721  0.1252 -1.8167 -3.7125
   62MOL0     H 8333   4.923   2.337   8.594  0.6276 -0.5023  0.8640
   62MOL0     H 8334   4.683   2.131   8.556  0.0754 -1.3706 -1.4569
   62MOL0     H 8335   4.578   1.960   8.436 -1.1889  2.0820 -0.6985
   62MOL0     H 8336   4.224   1.771   8.644 -0.4342 -0.4282  0.5037
   62MOL0     H 8337   4.124   1.882   8.539  0.5809  1.0834  1.3681
   62MOL0     H 8338   4.156   1.693   8.356 -1.6767 -0.6835  0.2293
   62MOL0     H 8339   4.252   1.608   8.474 -0.8706 -0.8925  3.8785
   62MOL0     H 8340   3.943   1.643   8.483 -0.7071 -4.1030 -4.4391
   62MOL0     H 8341   4.043   1.585   8.618 -1.2333  0.4343 -0.7180
   62MOL0     H 8342   4.025   1.475   8.341  1.2190  1.4526 -0.1070
   62MOL0     H 8343   4.111   1.395   8.465 -0.7800 -1.9956 -2.4278
   62MOL0     H 8344   3.859   1.314   8.428 -0.9306  2.1689  0.8800
   62MOL0     H 8345   3.817   1.459   8.505 -0.9943  0.1266 -0.6562
   62MOL0     H 8346   3.975   1.216   8.611 -2.5662 -0.9536  2.6537
   62MOL0     H 8347   3.986   1.368   8.704  2.0087 -1.7872  0.9586
   62MOL0     H 8348   3.715   1.261   8.626 -0.3233  0.0388 -0.2219
   62MOL0     H 8349   3.757   1.354   8.760 -1.8686  0.9582 -2.3344
   62MOL0     H 8350   3.832   1.060   8.732  0.9514  0.5222  0.9311
   62MOL0     H 8351   3.693   1.140   8.810  0.1107 -1.0991  1.7472
   62MOL0     H 8352   4.224   2.006   8.690 -0.9622  1.6486 -1.0849
   62MOL0     H 8353   4.340   2.167   8.812 -1.3251  5.2708 -3.2487
   62MOL0     H 8354   4.568   2.467   8.893  0.1079  2.0507  2.2023
   62MOL0     H 8355   4.635   2.711   8.933  1.9209  1.3886  0.4882
   62MOL0     H 8356   5.548   4.536   8.818 -1.6227  3.0394  1.8595
   62MOL0     H 8357   5.597   4.777   8.802  2.2366 -2.1005 -0.1241
   62MOL0     H 8358   5.530   5.231   8.343  1.3413  0.4608 -0.0097
   62MOL0     H 8359   5.537   5.482   8.398 -0.1164  1.3529  1.7043
   62MOL0     H 8360   5.588   5.690   8.478  0.1891  0.1995  0.1932
   62MOL0     H 8361   5.428   5.652   8.535  1.0144  0.8656 -3.6078
   62MOL0     H 8362   5.563   5.806   8.737  2.4951 -1.8940 -0.8219
   62MOL0     H 8363   5.414   5.853   8.645 -0.7776 -0.3971  0.3416
   62MOL0     H 8364   5.579   5.909   8.452 -0.7539 -0.6203  0.8243
   62MOL0     H 8365   5.713   5.869   8.570  1.4301  0.9928 -0.6737
   62MOL0     H 8366   5.616   6.052   8.723  1.9238 -2.8805  0.8703
   62MOL0     H 8367   5.532   6.118   8.580  1.3095  1.1198  0.3457
   62MOL0     H 8368   5.938   6.241   8.569 -0.1859 -0.4729 -0.6224
   62MOL0     H 8369   5.597   5.374   8.799  1.6157  0.4739 -0.0626
   62MOL0     H 8370   5.543   5.140   8.757 -3.6773  1.1258  0.7413
   63MOL0     O 8371   2.796   2.326   8.223  0.0647  0.5840  0.1602
   63MOL0     C 8372   2.843   2.440   8.233  0.4478  0.6037 -0.6590
   63MOL0     O 8373   2.816   2.549   8.149 -0.6104 -0.0091  0.4155
   63MOL0     C 8374   2.741   2.526   8.040  0.1871  0.2079  0.8863
   63MOL0     C 8375   2.599   2.544   8.054 -0.6483 -0.1422  0.0053
   63MOL0     C 8376   2.518   2.519   7.942  0.3517 -0.7747 -0.0232
   63MOL0     C 8377   2.577   2.488   7.816  0.4132 -0.2474 -0.1869
   63MOL0     O 8378   2.500   2.445   7.719 -0.0135 -0.7387  0.2653
   63MOL0     C 8379   2.559   2.326   7.642 -0.3951  0.6710 -0.1006
   63MOL0     C 8380   2.531   2.186   7.703 -0.0301  0.5433 -0.3461
   63MOL0     C 8381   2.393   2.179   7.756 -1.2778 -0.8530 -0.2151
   63MOL0     C 8382   2.361   2.045   7.824  0.5135 -0.1752 -0.5130
   63MOL0     C 8383   2.395   2.022   7.973 -0.3114 -0.2101  0.0539
   63MOL0     C 8384   2.548   2.039   8.014 -0.5081  0.3857  0.1428
   63MOL0     C 8385   2.584   1.952   8.137  0.4106  0.4012 -0.5509
   63MOL0     C 8386   2.519   2.006   8.269  0.2194 -0.5569 -0.2884
   63MOL0     N 8387   2.547   1.902   8.371  0.0336  0.3225  0.6190
   63MOL0     C 8388   2.468   1.793   8.384 -0.0385 -0.1097  0.9648
   63MOL0     C 8389   2.538   1.722   8.478 -0.1633  0.6998  0.3712
   63MOL0     C 8390   2.499   1.585   8.516  0.5744 -0.6372 -0.0570
   63MOL0     C 8391   2.537   1.488   8.405  0.3716 -0.2728  0.7676
   63MOL0     C 8392   2.681   1.443   8.419 -0.1401  0.0406 -0.5166
   63MOL0     C 8393   2.709   1.306   8.346  0.4517 -0.4905  0.3444
   63MOL0     O 8394   2.830   1.262   8.403  0.4458 -0.2559  0.1852
   63MOL0     C 8395   2.837   1.129   8.453  0.1674  0.1143  0.4353
   63MOL0     C 8396   2.911   1.105   8.568 -0.5241 -0.1061 -0.4883
   63MOL0     C 8397   2.917   0.970   8.619  1.1525 -0.7619 -0.3132
   63MOL0     C 8398   2.997   0.943   8.749 -0.1557  0.0395  0.1533
   63MOL0     C 8399   2.835   0.862   8.560 -0.3204  0.7993 -0.5877
   63MOL0     C 8400   2.828   0.718   8.614 -0.0045  0.3398  0.2073
   63MOL0     O 8401   2.752   0.631   8.535  0.2504  0.5369  0.4196
   63MOL0     C 8402   2.733   0.494   8.557 -0.1427 -0.0032 -0.3983
   63MOL0     C 8403   2.833   0.416   8.614 -0.5201 -0.7764  0.4648
   63MOL0     C 8404   2.818   0.285   8.637  0.1835  1.4096 -0.3417
   63MOL0     C 8405   2.693   0.227   8.602  0.4605  0.2105 -1.0305
   63MOL0     O 8406   2.672   0.096   8.592  0.6005 -0.1584  0.2571
   63MOL0     C 8407   2.791   0.010   8.566  0.7231 -0.5080 -0.7346
   63MOL0     C 8408   2.741  -0.140   8.538 -0.7846  0.4437  0.1982
   63MOL0     C 8409   2.860  -0.228   8.526 -0.1524 -0.1074 -0.3411
   63MOL0     C 8410   2.830  -0.368   8.585 -0.1904 -0.5429 -0.4612
   63MOL0     C 8411   2.835  -0.488   8.476 -0.7490 -0.5115  0.6493
   63MOL0     C 8412   2.870  -0.627   8.533  0.2124 -1.0754  0.7035
   63MOL0     C 8413   2.811  -0.651   8.674  0.7260 -0.9236 -0.9749
   63MOL0     C 8414   2.889  -0.763   8.746 -0.3063 -0.6147  0.2243
   63MOL0    Cl 8415   2.883  -0.911   8.657 -0.3298 -0.1600  0.0611
   63MOL0     C 8416   2.582   0.292   8.550  0.7475 -0.4066 -0.0500
   63MOL0     C 8417   2.605   0.433   8.533  0.0197 -0.3448  0.2095
   63MOL0     O 8418   2.892   0.688   8.717 -0.5551  0.4761  0.1957
   63MOL0     C 8419   2.768   0.899   8.440  0.3533 -0.1813  0.7283
   63MOL0     C 8420   2.770   1.020   8.390 -0.6623 -0.9410 -1.2354
   63MOL0     N 8421   2.637   1.792   8.525 -0.4129 -0.4179  0.3962
   63MOL0     N 8422   2.658   1.898   8.448  0.1121  0.6754  0.5756
   63MOL0     C 8423   2.717   2.502   7.808  0.6269 -0.2824  0.2211
   63MOL0     C 8424   2.799   2.513   7.920  0.1692  0.3981  0.1147
   63MOL0     C 8425   2.935   2.450   8.358 -0.4186 -0.0741  0.2580
   63MOL0     C 8426   3.015   2.567   8.378  0.7336  1.0226  0.6138
   63MOL0     C 8427   3.085   2.582   8.501  0.1330  0.5777  0.8921
   63MOL0     C 8428   3.090   2.487   8.606 -0.3165  0.2931  0.3645
   63MOL0     O 8429   3.158   2.490   8.729  0.2044 -0.2064  0.6474
   63MOL0     C 8430   3.222   2.611   8.766 -0.5388 -0.3733 -0.4717
   63MOL0     C 8431   3.132   2.730   8.810  0.1089  1.1165 -0.6934
   63MOL0     C 8432   3.111   2.755   8.961 -0.3092 -0.1812 -1.1236
   63MOL0     C 8433   3.251   2.739   9.029 -0.5901 -0.3749 -0.3537
   63MOL0     C 8434   3.269   2.835   9.143  0.4432 -0.5380 -0.1856
   63MOL0     C 8435   3.288   2.923   9.227  0.0295  0.0465 -0.6356
   63MOL0     C 8436   3.018   2.364   8.580 -0.3181  0.1539  0.2007
   63MOL0     C 8437   2.940   2.354   8.457  0.3963 -0.8377  0.9543
   63MOL0     H 8438   2.554   2.550   8.152  1.3190  0.2481  0.9379
   63MOL0     H 8439   2.418   2.483   7.963 -0.7793  1.6571 -0.8031
   63MOL0     H 8440   2.512   2.328   7.543  0.1050 -2.3858 -0.4935
   63MOL0     H 8441   2.663   2.337   7.612 -0.1031  2.8162  1.4763
   63MOL0     H 8442   2.556   2.107   7.631 -0.2588  1.1790 -1.1391
   63MOL0     H 8443   2.598   2.181   7.789  1.0327  0.7683 -1.1300
   63MOL0     H 8444   2.390   2.257   7.833  0.2532 -0.2704 -0.7131
   63MOL0     H 8445   2.324   2.211   7.678 -0.5566  3.2438  0.6062
   63MOL0     H 8446   2.256   2.016   7.826  1.0081 -2.0281  0.7338
   63MOL0     H 8447   2.414   1.969   7.766  1.4015  0.8806 -1.1396
   63MOL0     H 8448   2.346   2.094   8.038  0.6189  1.9108 -1.4836
   63MOL0     H 8449   2.363   1.920   7.996  2.9931 -1.4576 -0.2845
   63MOL0     H 8450   2.606   2.010   7.926 -0.5931  0.9570 -0.1033
   63MOL0     H 8451   2.573   2.145   8.026 -1.3761  0.6056  0.0764
   63MOL0     H 8452   2.547   1.850   8.119  0.7312  0.2057 -0.1373
   63MOL0     H 8453   2.688   1.924   8.153  0.2570  0.4041  0.5238
   63MOL0     H 8454   2.414   2.035   8.254  0.4015 -0.2050 -0.8938
   63MOL0     H 8455   2.568   2.100   8.295  0.7421 -1.5425  2.6711
   63MOL0     H 8456   2.387   1.780   8.314 -1.6077  3.7636  1.7921
   63MOL0     H 8457   2.538   1.547   8.611  0.0994 -0.2492  0.2957
   63MOL0     H 8458   2.390   1.585   8.523  0.5172  3.3048  1.1855
   63MOL0     H 8459   2.533   1.534   8.306  0.3855 -2.4317 -0.2945
   63MOL0     H 8460   2.462   1.408   8.405  0.2654 -0.2397 -1.6802
   63MOL0     H 8461   2.703   1.425   8.525  1.5434 -1.1939 -1.0385
   63MOL0     H 8462   2.759   1.515   8.395  2.0287 -1.1080  2.4330
   63MOL0     H 8463   2.720   1.335   8.241  1.0412 -3.5180 -0.5287
   63MOL0     H 8464   2.621   1.241   8.353 -0.0365 -0.6515 -4.1192
   63MOL0     H 8465   2.971   1.183   8.614  0.8322 -1.0805 -0.5346
   63MOL0     H 8466   3.080   0.874   8.734 -0.0051  0.3984 -0.7330
   63MOL0     H 8467   3.040   1.036   8.788 -1.1176  0.6964 -0.3195
   63MOL0     H 8468   2.926   0.912   8.826 -1.1778 -0.1135 -0.8384
   63MOL0     H 8469   2.930   0.461   8.631 -0.3845 -1.4041  1.4249
   63MOL0     H 8470   2.884   0.232   8.706 -1.1201  1.2374  0.8215
   63MOL0     H 8471   2.849   0.029   8.476  2.6161 -1.1085  0.2794
   63MOL0     H 8472   2.854   0.014   8.656  0.3546  0.8092 -0.5186
   63MOL0     H 8473   2.674  -0.178   8.616 -1.4430  2.4425  0.6531
   63MOL0     H 8474   2.692  -0.142   8.439  2.8735 -1.7597 -1.7888
   63MOL0     H 8475   2.929  -0.180   8.597  0.1896 -2.1755  0.8059
   63MOL0     H 8476   2.900  -0.236   8.424 -0.2133 -1.4684 -0.2711
   63MOL0     H 8477   2.906  -0.397   8.658 -0.7340  1.4824  1.0027
   63MOL0     H 8478   2.743  -0.376   8.652  0.7043  0.5932  0.9107
   63MOL0     H 8479   2.910  -0.461   8.401  1.8781  1.5713  3.7778
   63MOL0     H 8480   2.738  -0.502   8.427 -0.2760 -0.1116 -0.4413
   63MOL0     H 8481   2.844  -0.707   8.464  0.2252 -0.7456  0.3156
   63MOL0     H 8482   2.979  -0.639   8.539  0.2522 -0.3250  1.7543
   63MOL0     H 8483   2.706  -0.684   8.674  0.2737  0.4299 -1.6970
   63MOL0     H 8484   2.805  -0.570   8.746 -2.1249 -1.5178 -0.4063
   63MOL0     H 8485   2.848  -0.778   8.846  0.6175  1.0283  0.8904
   63MOL0     H 8486   2.991  -0.735   8.772  0.3034 -3.4527  1.1729
   63MOL0     H 8487   2.485   0.248   8.530 -1.3536  2.5980  2.4413
   63MOL0     H 8488   2.524   0.503   8.512 -2.0597 -2.8969 -0.9351
   63MOL0     H 8489   2.703   0.827   8.393  0.3242  0.2663  0.0736
   63MOL0     H 8490   2.714   1.029   8.297 -0.7996 -1.0308 -1.1618
   63MOL0     H 8491   2.754   2.494   7.706 -0.8313 -0.6197 -0.3002
   63MOL0     H 8492   2.907   2.509   7.928  0.1331  1.8029  1.8681
   63MOL0     H 8493   3.004   2.643   8.302  1.4267  3.3491  2.6794
   63MOL0     H 8494   3.125   2.682   8.519 -2.3901  1.8586 -0.1236
   63MOL0     H 8495   3.301   2.590   8.839 -3.0227  0.8127  2.7744
   63MOL0     H 8496   3.292   2.644   8.689  1.1586 -0.9364  0.7633
   63MOL0     H 8497   3.035   2.719   8.761 -1.0441  1.3854  1.4141
   63MOL0     H 8498   3.162   2.820   8.755 -0.2131  2.0899  0.6504
   63MOL0     H 8499   3.034   2.688   9.001 -0.9696  1.7222  0.9903
   63MOL0     H 8500   3.079   2.857   8.983  1.6755 -0.1466  2.4990
   63MOL0     H 8501   3.343   2.754   8.971  1.4058  0.8382  2.8592
   63MOL0     H 8502   3.255   2.633   9.057 -1.5828  0.1969  2.1897
   63MOL0     H 8503   3.307   2.988   9.310  2.4507 -0.9728 -0.3035
   63MOL0     H 8504   3.046   2.286   8.649  0.3241  0.3624  0.1894
   63MOL0     H 8505   2.881   2.265   8.442  0.7185 -0.4736 -4.6285
   64MOL0     O 8506   9.151   7.093   4.903  0.1849 -0.6735  0.4610
   64MOL0     C 8507   9.104   7.004   4.827 -0.3460  0.0606  0.3349
   64MOL0     O 8508   9.086   7.025   4.691 -0.4824  0.1173  0.9471
   64MOL0     C 8509   9.129   7.134   4.623 -0.1839  0.3255 -0.6674
   64MOL0     C 8510   9.198   7.110   4.505 -0.1359 -0.2554 -0.2625
   64MOL0     C 8511   9.243   7.231   4.436 -0.4537 -0.5952 -0.1198
   64MOL0     C 8512   9.212   7.364   4.480 -0.3152  1.7421 -0.4258
   64MOL0     O 8513   9.251   7.472   4.420 -0.0272  0.2926  0.5393
   64MOL0     C 8514   9.234   7.487   4.278  0.0142 -0.0796  0.4183
   64MOL0     C 8515   9.173   7.623   4.256  0.0266  0.5328  0.2501
   64MOL0     C 8516   9.024   7.610   4.200  0.2157  0.3731 -0.2809
   64MOL0     C 8517   8.930   7.587   4.318  0.1057 -0.1544 -0.7948
   64MOL0     C 8518   8.778   7.586   4.267  0.0693 -0.8103  0.8472
   64MOL0     C 8519   8.718   7.726   4.223 -0.3907  0.5766  0.0928
   64MOL0     C 8520   8.572   7.709   4.179  0.4617  1.5040  0.6902
   64MOL0     C 8521   8.542   7.823   4.080 -0.3236  0.2999  0.1095
   64MOL0     N 8522   8.403   7.840   4.058 -0.0109 -0.6980  0.0788
   64MOL0     C 8523   8.310   7.860   4.158  0.5958 -0.0522  0.4278
   64MOL0     C 8524   8.193   7.835   4.101  0.4117 -0.5910  0.1840
   64MOL0     C 8525   8.063   7.874   4.187 -0.1101 -0.2518  0.5945
   64MOL0     C 8526   8.035   8.017   4.207  0.1283  0.4422  0.6417
   64MOL0     C 8527   7.888   8.036   4.262 -0.4089 -0.8154 -0.5361
   64MOL0     C 8528   7.846   8.183   4.254  0.0910  0.6144  0.2348
   64MOL0     O 8529   7.945   8.275   4.298 -0.4153  0.1686 -0.5516
   64MOL0     C 8530   7.936   8.349   4.411 -0.0804  0.0575 -0.3948
   64MOL0     C 8531   7.995   8.471   4.412 -0.5731  0.2058 -0.3875
   64MOL0     C 8532   7.984   8.563   4.520  0.3276  1.6806  0.1013
   64MOL0     C 8533   8.053   8.690   4.499  0.2911 -0.7370 -0.3184
   64MOL0     C 8534   7.901   8.529   4.629  0.0629  0.1108  0.8966
   64MOL0     C 8535   7.869   8.610   4.744 -0.5303  0.3055  0.5902
   64MOL0     O 8536   7.755   8.572   4.820 -1.0756  0.5860  0.0622
   64MOL0     C 8537   7.733   8.662   4.921 -0.1198 -0.8325 -0.3775
   64MOL0     C 8538   7.653   8.770   4.892 -0.4065 -0.0820 -0.6470
   64MOL0     C 8539   7.639   8.879   4.989  0.1495  0.0349 -0.2124
   64MOL0     C 8540   7.692   8.855   5.115 -0.2429  0.4067 -0.2483
   64MOL0     O 8541   7.681   8.939   5.228  0.7084 -0.5051  0.2700
   64MOL0     C 8542   7.672   9.083   5.206  0.8233 -0.9101  0.5419
   64MOL0     C 8543   7.802   9.146   5.152 -1.5122  0.3033  1.1451
   64MOL0     C 8544   7.934   9.117   5.223 -0.4950 -0.0646  0.2895
   64MOL0     C 8545   8.053   9.140   5.125  0.4837 -0.0980  0.1471
   64MOL0     C 8546   8.084   9.010   5.046 -0.7175 -0.5924 -0.5820
   64MOL0     C 8547   8.175   9.043   4.935  0.1585 -0.1230  0.3269
   64MOL0     C 8548   8.282   8.926   4.915  0.0930 -0.9380 -0.3126
   64MOL0     C 8549   8.351   8.954   4.776  0.0493  1.5880  0.3642
   64MOL0    Cl 8550   8.338   8.802   4.677 -0.0602  0.3106  0.4860
   64MOL0     C 8551   7.777   8.740   5.138 -0.7989 -0.1369 -0.4639
   64MOL0     C 8552   7.792   8.643   5.042 -0.0230 -0.5600 -0.6546
   64MOL0     O 8553   7.942   8.704   4.775  0.4803 -0.8545  0.5086
   64MOL0     C 8554   7.844   8.400   4.625  0.2636 -0.1292  0.3461
   64MOL0     C 8555   7.862   8.304   4.528 -0.0099  0.0576 -0.0283
   64MOL0     N 8556   8.220   7.801   3.973 -0.0833  0.0426  0.1644
   64MOL0     N 8557   8.345   7.796   3.945  1.0217  0.2961  0.0399
   64MOL0     C 8558   9.142   7.372   4.600  1.0653 -0.9965  0.1133
   64MOL0     C 8559   9.108   7.264   4.672 -0.3143  0.5936  0.1010
   64MOL0     C 8560   9.081   6.868   4.879 -0.4715  0.3109  0.4719
   64MOL0     C 8561   9.091   6.748   4.795  0.2750 -0.0253 -1.0455
   64MOL0     C 8562   9.066   6.620   4.836  0.3884 -0.1016  0.2430
   64MOL0     C 8563   9.027   6.599   4.978  0.3069  0.5809  0.3017
   64MOL0     O 8564   9.040   6.468   5.012 -0.2944 -0.6459  0.3175
   64MOL0     C 8565   9.033   6.438   5.151  0.5842 -0.3972 -0.7863
   64MOL0     C 8566   8.887   6.444   5.191 -0.5563  0.0585  0.0140
   64MOL0     C 8567   8.790   6.350   5.114 -0.1555  1.9980  0.7141
   64MOL0     C 8568   8.657   6.418   5.077 -0.8798 -0.0764  0.5345
   64MOL0     C 8569   8.565   6.312   5.042 -0.8363  0.2798 -0.2497
   64MOL0     C 8570   8.491   6.219   5.029  0.2837 -0.1243  0.6678
   64MOL0     C 8571   9.011   6.713   5.060  0.4238  0.4304  0.3538
   64MOL0     C 8572   9.041   6.841   5.012  0.9833  0.1761  0.4043
   64MOL0     H 8573   9.211   7.009   4.467 -1.4856 -0.8238  0.7088
   64MOL0     H 8574   9.284   7.212   4.338 -0.3670 -1.7161  0.1186
   64MOL0     H 8575   9.338   7.488   4.242  1.0417 -1.8113  2.9926
   64MOL0     H 8576   9.166   7.410   4.242 -5.9170  3.4226  2.7949
   64MOL0     H 8577   9.189   7.680   4.348  1.4642  1.0412 -0.2883
   64MOL0     H 8578   9.226   7.682   4.180  1.7820 -0.9862  0.2035
   64MOL0     H 8579   8.985   7.700   4.151  1.4365  1.0242 -0.0919
   64MOL0     H 8580   9.014   7.527   4.130 -0.1343  0.2001 -0.0331
   64MOL0     H 8581   8.960   7.497   4.373  0.1056  0.2347 -0.1520
   64MOL0     H 8582   8.942   7.674   4.383  0.9026  0.1017 -1.2699
   64MOL0     H 8583   8.774   7.523   4.178 -3.9345  0.6628 -0.2299
   64MOL0     H 8584   8.726   7.545   4.354  3.2703 -0.5215  3.0746
   64MOL0     H 8585   8.736   7.803   4.298  2.3276  2.7687 -2.5496
   64MOL0     H 8586   8.774   7.754   4.134  0.8804 -0.0634  0.6588
   64MOL0     H 8587   8.557   7.615   4.124  0.2241  0.8789  1.7850
   64MOL0     H 8588   8.514   7.720   4.271 -0.3308  1.0461  0.2494
   64MOL0     H 8589   8.590   7.805   3.984  0.2626  2.5973 -0.0752
   64MOL0     H 8590   8.603   7.911   4.103 -0.7886 -0.2361  4.3385
   64MOL0     H 8591   8.332   7.882   4.262  1.0046 -2.2323  0.8413
   64MOL0     H 8592   7.977   7.828   4.138 -1.2964  3.1498 -0.8040
   64MOL0     H 8593   8.076   7.828   4.286  1.3426 -3.7985 -1.0644
   64MOL0     H 8594   8.036   8.073   4.113  0.1426  0.6453  0.7616
   64MOL0     H 8595   8.117   8.065   4.261  1.1991  0.5252 -0.9790
   64MOL0     H 8596   7.886   7.995   4.364  2.5372  3.3838  1.5341
   64MOL0     H 8597   7.819   7.981   4.198 -0.4951  0.0332 -1.1811
   64MOL0     H 8598   7.752   8.195   4.309 -0.0137  3.1178 -0.3886
   64MOL0     H 8599   7.820   8.215   4.152 -0.3910  0.7681  0.4005
   64MOL0     H 8600   8.047   8.507   4.323  0.4083  2.0327  0.8647
   64MOL0     H 8601   8.046   8.715   4.393  1.5369  1.4241  0.0496
   64MOL0     H 8602   8.000   8.767   4.554 -1.1372 -0.4076 -2.0642
   64MOL0     H 8603   8.152   8.689   4.546 -1.3840  0.5568  3.6582
   64MOL0     H 8604   7.614   8.789   4.792 -0.8983  2.6574 -0.0361
   64MOL0     H 8605   7.562   8.953   4.971 -1.7098 -2.1180 -1.7266
   64MOL0     H 8606   7.592   9.108   5.136  0.8801  3.8817  1.8273
   64MOL0     H 8607   7.639   9.123   5.302 -2.4117  3.0780 -1.9064
   64MOL0     H 8608   7.822   9.123   5.047 -2.8847  0.4521  0.8359
   64MOL0     H 8609   7.783   9.254   5.154 -4.7960 -0.1376 -0.3064
   64MOL0     H 8610   7.936   9.013   5.255 -1.1934 -1.3302 -3.3807
   64MOL0     H 8611   7.955   9.176   5.314  0.4126 -2.5262  1.7767
   64MOL0     H 8612   8.035   9.231   5.068  0.1132 -0.2051  0.0943
   64MOL0     H 8613   8.146   9.158   5.180  1.7121  0.0245 -1.8876
   64MOL0     H 8614   7.995   8.970   4.997 -1.2445  1.2491 -1.1950
   64MOL0     H 8615   8.118   8.930   5.112 -2.1207  0.8139  1.9846
   64MOL0     H 8616   8.116   9.055   4.844  0.4019 -0.2073  0.1558
   64MOL0     H 8617   8.219   9.139   4.960 -4.0888  1.3812  3.2921
   64MOL0     H 8618   8.222   8.834   4.916 -2.1997  0.4605 -1.7994
   64MOL0     H 8619   8.352   8.929   5.000  1.4834 -4.4809 -1.1293
   64MOL0     H 8620   8.457   8.973   4.795  0.6913 -1.3169  0.1068
   64MOL0     H 8621   8.297   9.028   4.717 -1.3005  1.4162  1.3359
   64MOL0     H 8622   7.829   8.726   5.233 -3.7152  0.6759  1.3905
   64MOL0     H 8623   7.847   8.553   5.065  1.4068  0.5313  0.4397
   64MOL0     H 8624   7.781   8.359   4.704 -1.5094 -3.7049 -2.6166
   64MOL0     H 8625   7.790   8.223   4.531  2.0094 -1.8036  0.3452
   64MOL0     H 8626   9.117   7.468   4.643 -1.1747 -1.7492  0.6426
   64MOL0     H 8627   9.049   7.280   4.762  0.9195  3.0664  0.5654
   64MOL0     H 8628   9.127   6.762   4.694 -0.5676  1.7692 -1.1262
   64MOL0     H 8629   9.102   6.547   4.764  0.7322  1.7067 -1.4867
   64MOL0     H 8630   9.067   6.337   5.175 -2.4700 -1.2209  0.5544
   64MOL0     H 8631   9.080   6.514   5.214 -0.6100  0.9242 -1.4265
   64MOL0     H 8632   8.841   6.542   5.205 -0.5968 -0.2551  2.5325
   64MOL0     H 8633   8.885   6.416   5.297  0.4902  0.7539  0.2408
   64MOL0     H 8634   8.773   6.284   5.199 -0.2887 -0.6279 -1.2415
   64MOL0     H 8635   8.833   6.289   5.033 -2.2894  2.3614 -0.7736
   64MOL0     H 8636   8.669   6.477   4.985 -2.0781 -2.6509 -1.3862
   64MOL0     H 8637   8.610   6.474   5.158 -0.3324  0.7349  0.3031
   64MOL0     H 8638   8.410   6.148   5.019 -0.4265  0.6844  0.5709
   64MOL0     H 8639   8.990   6.705   5.167  0.8158  0.9344  0.4680
   64MOL0     H 8640   9.027   6.918   5.087 -0.7694 -0.7707  1.1102
   65MOL0     O 8641   4.253   6.633   3.550 -0.2735  0.4937  0.5717
   65MOL0     C 8642   4.324   6.733   3.542  0.8687  0.6754 -0.1823
   65MOL0     O 8643   4.321   6.826   3.449 -0.8369  0.5094  0.2141
   65MOL0     C 8644   4.259   6.795   3.330  0.7004  0.4421  0.4681
   65MOL0     C 8645   4.324   6.717   3.237 -1.2521 -0.1758  1.0121
   65MOL0     C 8646   4.271   6.680   3.111  0.0598 -0.3968 -0.0051
   65MOL0     C 8647   4.138   6.724   3.091 -0.3888  0.7984  1.3617
   65MOL0     O 8648   4.079   6.670   2.978  0.8594  0.4433 -0.0023
   65MOL0     C 8649   3.954   6.725   2.928 -0.5511 -1.0008 -0.5513
   65MOL0     C 8650   3.982   6.866   2.871 -0.0888  0.2980  0.3978
   65MOL0     C 8651   4.077   6.855   2.763 -0.8017 -0.9279  0.4189
   65MOL0     C 8652   4.020   6.792   2.640 -0.2893  0.1350  0.4411
   65MOL0     C 8653   4.103   6.824   2.517  0.2719 -0.2514  0.7528
   65MOL0     C 8654   4.250   6.769   2.523 -0.7688 -0.0610  0.2430
   65MOL0     C 8655   4.263   6.612   2.562  0.3688  0.8356 -0.3569
   65MOL0     C 8656   4.399   6.566   2.559 -0.2107 -0.1977  0.2270
   65MOL0     N 8657   4.399   6.422   2.595 -0.6065 -0.1260 -0.1677
   65MOL0     C 8658   4.337   6.319   2.524 -1.1485  0.3836 -0.3962
   65MOL0     C 8659   4.370   6.211   2.600 -0.1690 -0.5925  0.3439
   65MOL0     C 8660   4.340   6.064   2.564 -0.4545  0.2216  0.0277
   65MOL0     C 8661   4.445   5.997   2.463 -0.3834 -0.8462  0.6657
   65MOL0     C 8662   4.416   5.846   2.422 -1.1054  0.4938  0.2688
   65MOL0     C 8663   4.494   5.818   2.294 -0.8238  0.2320 -0.2802
   65MOL0     O 8664   4.460   5.687   2.235  1.0157  0.5780 -0.1837
   65MOL0     C 8665   4.371   5.681   2.132 -0.2126  0.7275 -0.1968
   65MOL0     C 8666   4.230   5.687   2.140 -1.0257 -0.5905  0.0360
   65MOL0     C 8667   4.142   5.707   2.025 -0.4292 -0.9330 -0.8645
   65MOL0     C 8668   3.994   5.718   2.056  0.6474  0.7477 -0.1265
   65MOL0     C 8669   4.204   5.696   1.898 -0.0751 -0.6971 -0.1870
   65MOL0     C 8670   4.129   5.695   1.773  0.1371  0.0593 -0.2058
   65MOL0     O 8671   4.194   5.631   1.670  0.0284 -0.4278 -0.2521
   65MOL0     C 8672   4.138   5.617   1.544  0.4535  0.2801 -0.2267
   65MOL0     C 8673   4.119   5.487   1.505  0.3573  0.0755 -0.3132
   65MOL0     C 8674   4.057   5.461   1.379 -0.1399 -0.4884 -1.2094
   65MOL0     C 8675   4.018   5.565   1.297 -0.2854  0.8806  0.2259
   65MOL0     O 8676   3.951   5.519   1.185 -0.6917 -0.1601 -0.0363
   65MOL0     C 8677   3.948   5.605   1.069  0.2220 -0.5226 -0.8152
   65MOL0     C 8678   3.822   5.702   1.061 -0.9927  0.6051  1.3447
   65MOL0     C 8679   3.696   5.603   1.054  0.3986  1.0162  0.6875
   65MOL0     C 8680   3.563   5.662   1.008 -0.1021  0.4355  0.1815
   65MOL0     C 8681   3.443   5.570   1.020  0.0440  0.0263 -0.3351
   65MOL0     C 8682   3.324   5.645   1.075  0.1969  0.4478  0.0705
   65MOL0     C 8683   3.349   5.693   1.224 -0.7883  1.0020 -0.0509
   65MOL0     C 8684   3.223   5.743   1.289  0.4912  0.8078 -0.3807
   65MOL0    Cl 8685   3.228   5.739   1.470  0.3192 -0.1437 -0.8867
   65MOL0     C 8686   4.043   5.697   1.332 -0.4861  0.9252  0.5071
   65MOL0     C 8687   4.099   5.723   1.458  0.0992  0.2049  0.3284
   65MOL0     O 8688   4.036   5.773   1.767  0.2692 -0.2822 -0.1600
   65MOL0     C 8689   4.336   5.671   1.892 -0.6600  0.4002 -0.0972
   65MOL0     C 8690   4.420   5.670   2.005  0.3405  0.1740  0.8806
   65MOL0     N 8691   4.434   6.251   2.712  0.6645 -0.5905 -0.9564
   65MOL0     N 8692   4.448   6.371   2.711 -0.8317  0.0153 -0.2628
   65MOL0     C 8693   4.071   6.800   3.187  0.2781  0.2808 -0.7939
   65MOL0     C 8694   4.131   6.837   3.307  0.3141  1.0613 -0.9390
   65MOL0     C 8695   4.417   6.742   3.653 -0.1074 -0.3989 -0.2014
   65MOL0     C 8696   4.483   6.859   3.680 -0.2312  0.0518  0.3158
   65MOL0     C 8697   4.584   6.882   3.769  0.2226 -0.1268  0.0624
   65MOL0     C 8698   4.627   6.782   3.854 -0.6719 -0.4299 -0.0029
   65MOL0     O 8699   4.735   6.812   3.932  0.3561  0.0704  0.3747
   65MOL0     C 8700   4.772   6.714   4.029  0.2593  0.4032 -0.3996
   65MOL0     C 8701   4.862   6.597   3.966 -0.9356 -1.2688  0.3198
   65MOL0     C 8702   4.994   6.658   3.915 -1.4038  0.0825  0.2984
   65MOL0     C 8703   5.104   6.557   3.898  0.5671 -0.7794 -0.4574
   65MOL0     C 8704   5.062   6.444   3.808 -0.3222  0.4619  0.5964
   65MOL0     C 8705   5.019   6.355   3.739  0.4787  0.7378 -0.8465
   65MOL0     C 8706   4.564   6.658   3.834  0.8792  0.2418 -0.8454
   65MOL0     C 8707   4.458   6.633   3.739  0.4599 -0.9422  0.7797
   65MOL0     H 8708   4.417   6.676   3.275 -1.5666 -1.2190  0.7023
   65MOL0     H 8709   4.338   6.626   3.046  1.4021 -0.7067  1.5717
   65MOL0     H 8710   3.896   6.660   2.863 -0.7300 -0.4594 -0.9420
   65MOL0     H 8711   3.883   6.735   3.011  0.9121  2.7312  0.5003
   65MOL0     H 8712   3.889   6.899   2.825 -0.3114 -0.3012  0.4138
   65MOL0     H 8713   4.022   6.945   2.936  1.4325  2.3621 -2.7939
   65MOL0     H 8714   4.102   6.956   2.728 -0.0638 -1.3911 -0.4749
   65MOL0     H 8715   4.164   6.794   2.789  0.9036  1.1630 -0.0897
   65MOL0     H 8716   4.015   6.684   2.650  0.0224  0.1813  1.1817
   65MOL0     H 8717   3.917   6.819   2.618 -0.7646 -1.9466 -0.0868
   65MOL0     H 8718   4.061   6.779   2.427 -0.4405  4.3079 -1.4297
   65MOL0     H 8719   4.119   6.931   2.502  0.5410  0.3150  4.1280
   65MOL0     H 8720   4.292   6.784   2.423 -1.0673 -1.5508 -0.1317
   65MOL0     H 8721   4.307   6.826   2.597 -3.9790  2.4279  1.0393
   65MOL0     H 8722   4.224   6.589   2.662  4.2618 -0.6638  1.0093
   65MOL0     H 8723   4.195   6.559   2.494 -0.4431  0.5404  0.6611
   65MOL0     H 8724   4.461   6.607   2.639  2.5872  0.4484 -2.0956
   65MOL0     H 8725   4.450   6.581   2.464 -2.5602 -0.0332 -1.0750
   65MOL0     H 8726   4.286   6.334   2.429 -2.6217  1.7720  0.5718
   65MOL0     H 8727   4.334   6.013   2.661  1.9331  1.8363  1.1543
   65MOL0     H 8728   4.240   6.059   2.520  0.2250  1.7770 -1.8171
   65MOL0     H 8729   4.546   5.995   2.505 -0.4172 -0.9530  0.7419
   65MOL0     H 8730   4.442   6.062   2.375  3.6353  0.1468  1.0827
   65MOL0     H 8731   4.312   5.832   2.391 -0.7707  0.7727 -1.0713
   65MOL0     H 8732   4.454   5.782   2.501 -0.5272 -1.3794 -1.4467
   65MOL0     H 8733   4.602   5.823   2.310 -1.1525  1.9747  1.8773
   65MOL0     H 8734   4.468   5.899   2.225 -0.4479 -0.6217 -1.4566
   65MOL0     H 8735   4.197   5.690   2.243  2.2224 -2.0797  1.2590
   65MOL0     H 8736   3.972   5.680   2.156  1.9429 -0.7677 -0.3823
   65MOL0     H 8737   3.957   5.819   2.037 -0.1948  0.6992  1.1418
   65MOL0     H 8738   3.943   5.649   1.989  0.5628  0.1268  0.5677
   65MOL0     H 8739   4.148   5.408   1.573 -4.5904 -0.6403  1.4106
   65MOL0     H 8740   4.057   5.358   1.344 -0.1842  0.3274 -3.8294
   65MOL0     H 8741   4.038   5.668   1.062  0.2823 -0.6748 -1.5408
   65MOL0     H 8742   3.951   5.554   0.972  0.0128  0.7205 -1.4999
   65MOL0     H 8743   3.814   5.775   1.142 -1.1545  1.0162  0.9563
   65MOL0     H 8744   3.829   5.745   0.961  2.7883 -3.5994 -0.5665
   65MOL0     H 8745   3.682   5.561   1.154 -0.4168  4.8306  2.3807
   65MOL0     H 8746   3.729   5.522   0.988 -0.4386 -0.3427  1.8847
   65MOL0     H 8747   3.533   5.752   1.062 -1.5567 -0.2857  0.6312
   65MOL0     H 8748   3.573   5.684   0.901  1.0536 -3.7275 -0.7459
   65MOL0     H 8749   3.468   5.488   1.089  5.7752 -0.0943 -2.0411
   65MOL0     H 8750   3.434   5.523   0.922  4.9255 -3.0652  0.3262
   65MOL0     H 8751   3.315   5.736   1.014 -3.2319 -0.0569 -0.3745
   65MOL0     H 8752   3.238   5.578   1.063  0.4267 -0.0770  1.2602
   65MOL0     H 8753   3.428   5.768   1.227  1.8694 -1.2614 -4.0252
   65MOL0     H 8754   3.387   5.606   1.278 -0.1365  0.8364 -0.7577
   65MOL0     H 8755   3.143   5.679   1.251 -0.2612  1.8399 -0.6076
   65MOL0     H 8756   3.183   5.837   1.250 -0.9129  0.0440 -0.8451
   65MOL0     H 8757   4.025   5.788   1.276  1.9855  1.9837  1.2832
   65MOL0     H 8758   4.128   5.819   1.502 -0.5589  0.1114  0.9843
   65MOL0     H 8759   4.375   5.671   1.791 -1.6833  4.5966 -0.6725
   65MOL0     H 8760   4.523   5.650   1.974  0.1060 -2.7378  1.6875
   65MOL0     H 8761   3.968   6.835   3.180 -0.5638 -2.1849 -2.0109
   65MOL0     H 8762   4.090   6.907   3.379  1.4971  1.5332 -0.7024
   65MOL0     H 8763   4.464   6.947   3.619  4.1358  1.7528  1.0206
   65MOL0     H 8764   4.614   6.986   3.776  3.1141 -0.8297 -0.4296
   65MOL0     H 8765   4.821   6.760   4.115 -1.0122 -0.4500  0.8422
   65MOL0     H 8766   4.685   6.661   4.069  0.0101 -0.0962 -1.5517
   65MOL0     H 8767   4.816   6.553   3.878  2.2130 -2.8435 -0.6927
   65MOL0     H 8768   4.896   6.529   4.045  2.3282  2.5201  2.5786
   65MOL0     H 8769   5.032   6.728   3.990 -1.2451 -0.5671  0.8343
   65MOL0     H 8770   4.970   6.700   3.817  0.0490 -0.4995 -0.3422
   65MOL0     H 8771   5.113   6.515   3.999  2.9073 -1.3098 -0.8200
   65MOL0     H 8772   5.196   6.606   3.864  1.1756 -0.8715  0.9709
   65MOL0     H 8773   5.000   6.263   3.687  0.3442 -0.8297  1.8284
   65MOL0     H 8774   4.581   6.567   3.890 -1.6692 -0.8151 -1.6742
   65MOL0     H 8775   4.409   6.538   3.722 -1.5231 -0.3558  2.7495
   66MOL0     O 8776   0.278   5.496   4.337 -0.3601 -0.5032  0.4066
   66MOL0     C 8777   0.309   5.582   4.423  0.4143  1.4191  0.6736
   66MOL0     O 8778   0.294   5.570   4.564 -0.2579 -0.5405 -0.7704
   66MOL0     C 8779   0.281   5.438   4.610 -0.2072  0.4600 -0.3995
   66MOL0     C 8780   0.162   5.374   4.654 -1.2860  0.3373 -0.3454
   66MOL0     C 8781   0.167   5.239   4.666  0.3869 -0.0286 -0.9369
   66MOL0     C 8782   0.283   5.162   4.652  0.6255 -0.2255  0.6578
   66MOL0     O 8783   0.272   5.028   4.669  1.0682 -0.1277  0.0230
   66MOL0     C 8784   0.376   4.947   4.702 -0.0468  0.5113  0.3737
   66MOL0     C 8785   0.446   4.856   4.593 -0.4351 -0.3816 -0.1781
   66MOL0     C 8786   0.340   4.836   4.483  0.3829  0.3414 -0.5341
   66MOL0     C 8787   0.344   4.946   4.380 -1.1541  0.3119 -0.1206
   66MOL0     C 8788   0.260   4.905   4.269  0.1527  0.8660 -0.7864
   66MOL0     C 8789   0.252   4.997   4.149  1.1685  0.1566 -0.5149
   66MOL0     C 8790   0.117   5.084   4.155  0.3306  0.0833 -0.9507
   66MOL0     C 8791   0.121   5.216   4.252 -0.1475  0.5305 -1.1801
   66MOL0     N 8792   0.031   5.206   4.370 -0.6774  0.1741 -0.5792
   66MOL0     C 8793  -0.029   5.326   4.417 -0.0237 -0.4629 -0.8435
   66MOL0     C 8794  -0.147   5.274   4.470 -0.0424  0.1195 -0.0234
   66MOL0     C 8795  -0.265   5.349   4.508 -0.4183  0.7084  0.6131
   66MOL0     C 8796  -0.297   5.445   4.389 -0.1678 -0.3880  0.8207
   66MOL0     C 8797  -0.345   5.372   4.267 -0.1411 -0.8201  0.0917
   66MOL0     C 8798  -0.406   5.467   4.168 -0.0530  0.5304 -0.5737
   66MOL0     O 8799  -0.512   5.552   4.223 -0.4206  0.3170 -0.4378
   66MOL0     C 8800  -0.625   5.488   4.281 -0.3312 -1.1316  0.4429
   66MOL0     C 8801  -0.663   5.537   4.402 -0.4624 -0.4292  0.6405
   66MOL0     C 8802  -0.767   5.482   4.474  0.0623  0.3363 -0.5251
   66MOL0     C 8803  -0.796   5.559   4.608 -0.6635 -0.3354  0.6134
   66MOL0     C 8804  -0.836   5.371   4.429 -0.0425  0.7286 -0.1727
   66MOL0     C 8805  -0.945   5.307   4.517  0.8167  0.3941  0.8522
   66MOL0     O 8806  -1.004   5.201   4.453 -0.9561 -0.2104 -0.7749
   66MOL0     C 8807  -1.087   5.120   4.515 -0.2483 -0.2913 -0.5467
   66MOL0     C 8808  -1.034   5.013   4.587 -0.1585 -0.4936  0.1299
   66MOL0     C 8809  -1.108   4.934   4.671 -0.6257  0.1709 -1.0000
   66MOL0     C 8810  -1.247   4.944   4.686  1.3415  0.3357  0.3282
   66MOL0     O 8811  -1.325   4.869   4.767 -0.7510 -0.4156  0.2252
   66MOL0     C 8812  -1.270   4.830   4.891 -0.4556  0.2105  0.4675
   66MOL0     C 8813  -1.224   4.687   4.898 -0.4994 -0.3982 -0.1365
   66MOL0     C 8814  -1.154   4.666   5.031  0.6070  0.3861 -0.6440
   66MOL0     C 8815  -1.134   4.511   5.054 -0.3373  0.5355 -0.9279
   66MOL0     C 8816  -1.096   4.475   5.203  0.0222  0.6803 -0.4533
   66MOL0     C 8817  -1.212   4.511   5.290  0.6528 -0.7844  1.4489
   66MOL0     C 8818  -1.187   4.447   5.429 -1.2414  0.5886  0.1536
   66MOL0     C 8819  -1.095   4.525   5.534  0.1635  0.4487  0.2728
   66MOL0    Cl 8820  -1.188   4.662   5.589 -0.0536  0.1429  0.2937
   66MOL0     C 8821  -1.301   5.046   4.600  0.2660  1.2289  0.2714
   66MOL0     C 8822  -1.224   5.125   4.515 -0.3731 -0.5812  0.9922
   66MOL0     O 8823  -0.987   5.353   4.624 -0.4598 -0.0990 -0.5937
   66MOL0     C 8824  -0.797   5.322   4.299  0.0982  0.1338  0.7691
   66MOL0     C 8825  -0.698   5.387   4.221 -0.7400  1.7604  0.1869
   66MOL0     N 8826  -0.126   5.140   4.498  0.0083  0.1779  0.6936
   66MOL0     N 8827  -0.026   5.095   4.429  0.4607  0.4694  1.1013
   66MOL0     C 8828   0.401   5.224   4.621  0.5220 -0.0568 -0.3332
   66MOL0     C 8829   0.400   5.358   4.601 -0.1177 -0.1950 -0.4617
   66MOL0     C 8830   0.369   5.715   4.376  0.0680 -0.9166  0.0960
   66MOL0     C 8831   0.384   5.742   4.239 -0.2497  0.2145 -0.7067
   66MOL0     C 8832   0.424   5.871   4.202 -0.5358  0.2602 -0.3280
   66MOL0     C 8833   0.469   5.965   4.293  0.3937  0.2218 -0.2325
   66MOL0     O 8834   0.525   6.090   4.258  0.6497  0.6040 -1.3943
   66MOL0     C 8835   0.604   6.099   4.144  0.3836  0.3459 -0.1387
   66MOL0     C 8836   0.747   6.069   4.172 -0.2998 -0.8733  0.6353
   66MOL0     C 8837   0.788   6.137   4.306 -0.2331 -0.6834  0.3580
   66MOL0     C 8838   0.940   6.165   4.326 -0.3239 -0.0392 -0.7426
   66MOL0     C 8839   1.002   6.042   4.369  0.5773  0.1776 -0.8264
   66MOL0     C 8840   1.068   5.948   4.389  0.0066  0.5324  0.2349
   66MOL0     C 8841   0.465   5.928   4.425  0.1941  0.1316 -0.3360
   66MOL0     C 8842   0.417   5.811   4.471 -0.9566 -0.3513  0.0484
   66MOL0     H 8843   0.073   5.435   4.663  0.0557  2.7716 -2.1207
   66MOL0     H 8844   0.078   5.179   4.685  2.2362 -4.5374 -4.5476
   66MOL0     H 8845   0.452   4.997   4.764  1.1742  0.9101 -1.3844
   66MOL0     H 8846   0.334   4.866   4.762 -0.6401  0.4840 -0.0700
   66MOL0     H 8847   0.537   4.909   4.564 -0.3613  0.7842  1.9774
   66MOL0     H 8848   0.471   4.756   4.629  1.8136 -1.5473 -4.2525
   66MOL0     H 8849   0.355   4.738   4.437  0.3645  0.3498 -0.5582
   66MOL0     H 8850   0.241   4.832   4.529  1.2469  0.6379  1.4681
   66MOL0     H 8851   0.305   5.040   4.420  2.2627  0.3562  3.8979
   66MOL0     H 8852   0.448   4.951   4.348 -0.5336  0.1983  1.7294
   66MOL0     H 8853   0.295   4.812   4.224 -3.1099 -0.5787 -0.6136
   66MOL0     H 8854   0.166   4.862   4.307  0.7167  1.5398  1.5183
   66MOL0     H 8855   0.338   5.065   4.152  1.0789  0.2569 -0.2433
   66MOL0     H 8856   0.252   4.945   4.053  4.1744  0.7697 -0.9624
   66MOL0     H 8857   0.101   5.124   4.055 -1.8873  5.5876  1.2306
   66MOL0     H 8858   0.024   5.030   4.174 -0.9682  2.5784  0.3503
   66MOL0     H 8859   0.086   5.304   4.198  0.5881  1.8942  0.4848
   66MOL0     H 8860   0.224   5.244   4.276 -0.3097  0.5313 -0.4589
   66MOL0     H 8861  -0.002   5.425   4.380 -0.8607 -0.5336 -1.6813
   66MOL0     H 8862  -0.349   5.303   4.558  0.3029 -1.3289  0.0458
   66MOL0     H 8863  -0.220   5.417   4.581  0.0217 -0.0334  1.0467
   66MOL0     H 8864  -0.212   5.508   4.358 -0.3799 -0.5264 -0.0781
   66MOL0     H 8865  -0.371   5.517   4.425 -2.8994 -2.8249  0.4458
   66MOL0     H 8866  -0.429   5.307   4.292 -0.5168 -0.2522  0.3161
   66MOL0     H 8867  -0.256   5.320   4.230  1.2062  1.3635  0.0726
   66MOL0     H 8868  -0.445   5.409   4.083  0.7641 -0.1148 -0.5098
   66MOL0     H 8869  -0.324   5.529   4.130  0.4669 -0.2022 -0.6645
   66MOL0     H 8870  -0.622   5.633   4.432  0.1219 -0.2464 -0.6823
   66MOL0     H 8871  -0.767   5.498   4.695 -1.6997  0.1534  1.3177
   66MOL0     H 8872  -0.726   5.642   4.615  1.0199 -1.3842 -2.2612
   66MOL0     H 8873  -0.898   5.597   4.615 -2.2147 -4.0760  1.0208
   66MOL0     H 8874  -0.928   4.997   4.571  0.2573  1.9682  0.0172
   66MOL0     H 8875  -1.046   4.858   4.717 -1.3355  1.5328  2.5126
   66MOL0     H 8876  -1.197   4.902   4.929  1.3500 -1.1879 -0.2117
   66MOL0     H 8877  -1.341   4.834   4.974 -0.8206 -1.8628  0.2971
   66MOL0     H 8878  -1.310   4.624   4.877 -0.6949  0.3754 -1.8166
   66MOL0     H 8879  -1.152   4.667   4.818 -4.9936 -0.7039 -4.5442
   66MOL0     H 8880  -1.223   4.705   5.107 -1.3409 -0.7013 -1.7658
   66MOL0     H 8881  -1.063   4.726   5.037  0.5321  0.3836  0.9726
   66MOL0     H 8882  -1.222   4.454   5.025  0.3536 -1.1227  0.0930
   66MOL0     H 8883  -1.048   4.484   4.991  1.1810 -2.4459  2.1003
   66MOL0     H 8884  -1.010   4.525   5.249  2.8299 -1.1119 -3.3118
   66MOL0     H 8885  -1.079   4.368   5.219  1.9873  1.1963  1.3820
   66MOL0     H 8886  -1.219   4.620   5.304 -2.2088 -0.8472  1.0933
   66MOL0     H 8887  -1.304   4.472   5.244 -1.3073  2.2877  2.4317
   66MOL0     H 8888  -1.158   4.343   5.413 -0.0243  1.1289 -1.3922
   66MOL0     H 8889  -1.279   4.443   5.488 -0.2980 -1.1424  1.5900
   66MOL0     H 8890  -0.995   4.553   5.499 -0.0850 -0.7027 -1.4553
   66MOL0     H 8891  -1.085   4.457   5.619 -1.7041 -0.3545 -0.1136
   66MOL0     H 8892  -1.407   5.056   4.579  0.1152  0.4093  0.5917
   66MOL0     H 8893  -1.282   5.190   4.451  2.1956 -0.6033 -1.5613
   66MOL0     H 8894  -0.841   5.234   4.255 -0.6776  0.0609  1.6499
   66MOL0     H 8895  -0.669   5.335   4.130 -1.3921  0.4038  0.7168
   66MOL0     H 8896   0.499   5.178   4.614  0.4333 -0.5255  1.2189
   66MOL0     H 8897   0.493   5.404   4.568 -1.5641  0.6450 -3.7653
   66MOL0     H 8898   0.347   5.677   4.160 -0.0346  0.6154 -1.1443
   66MOL0     H 8899   0.432   5.886   4.095  0.5289  2.0132 -0.0433
   66MOL0     H 8900   0.563   6.035   4.065 -1.0686 -1.9490  2.3028
   66MOL0     H 8901   0.580   6.195   4.098 -1.0757 -1.6423 -4.0084
   66MOL0     H 8902   0.802   6.099   4.082  2.9011 -5.3988  0.7317
   66MOL0     H 8903   0.750   5.960   4.184 -3.2642 -1.4829 -2.5459
   66MOL0     H 8904   0.737   6.072   4.378 -1.1926 -1.7161 -1.1800
   66MOL0     H 8905   0.745   6.236   4.322  1.5765  0.7249 -2.5511
   66MOL0     H 8906   0.950   6.234   4.410 -2.0234 -2.3755  1.5392
   66MOL0     H 8907   0.990   6.203   4.237 -1.9658  1.1620 -1.1946
   66MOL0     H 8908   1.132   5.862   4.397 -2.0797 -0.9901  1.4300
   66MOL0     H 8909   0.491   5.994   4.507 -3.6283 -0.7168  1.7879
   66MOL0     H 8910   0.412   5.790   4.577 -1.6299 -0.5132 -0.0068
   67MOL0     O 8911   8.971   4.281   4.821  0.0634  0.0447  0.3191
   67MOL0     C 8912   8.971   4.390   4.751  0.0982 -0.0315  0.3312
   67MOL0     O 8913   8.993   4.400   4.607  0.4032 -0.1535 -0.9613
   67MOL0     C 8914   9.023   4.276   4.554 -0.1799 -0.1023 -0.7811
   67MOL0     C 8915   9.138   4.212   4.583  0.5719 -0.2088  1.5898
   67MOL0     C 8916   9.159   4.077   4.545 -0.1138 -0.4807 -0.7392
   67MOL0     C 8917   9.061   4.017   4.462  0.4749 -0.1554 -0.0621
   67MOL0     O 8918   9.099   3.892   4.414 -0.0428 -0.9673  0.7832
   67MOL0     C 8919   9.078   3.868   4.275 -0.5740 -0.2392  0.3067
   67MOL0     C 8920   9.013   3.736   4.254 -0.4144 -0.0079  0.0619
   67MOL0     C 8921   9.108   3.614   4.283  0.3295  0.4153 -0.0093
   67MOL0     C 8922   9.125   3.524   4.156  0.0154  0.9732 -0.1569
   67MOL0     C 8923   9.209   3.404   4.182 -0.0431 -0.8875 -0.6790
   67MOL0     C 8924   9.219   3.309   4.060  0.8436 -0.7590  0.1677
   67MOL0     C 8925   9.116   3.322   3.952 -0.3347 -0.3694 -0.2998
   67MOL0     C 8926   9.075   3.188   3.883  0.4471  0.7026  0.0124
   67MOL0     N 8927   8.981   3.106   3.964  0.4273  0.6266 -0.4074
   67MOL0     C 8928   9.013   2.983   4.023 -0.4335 -0.4599 -0.3859
   67MOL0     C 8929   8.898   2.923   4.057  0.0530  1.0354 -0.2856
   67MOL0     C 8930   8.890   2.774   4.100  0.2553  0.0819 -0.7707
   67MOL0     C 8931   8.827   2.749   4.238  0.1758 -0.3505 -0.4767
   67MOL0     C 8932   8.826   2.592   4.270 -0.6360  0.3224  0.0568
   67MOL0     C 8933   8.969   2.545   4.325  0.4933  0.7303 -0.4265
   67MOL0     O 8934   8.990   2.415   4.376  0.2635  0.1780  0.4469
   67MOL0     C 8935   8.924   2.378   4.486  0.1372 -0.6555  0.0244
   67MOL0     C 8936   8.853   2.253   4.481  1.3143 -0.3968 -0.0236
   67MOL0     C 8937   8.780   2.199   4.596 -0.1114 -0.3592  0.5235
   67MOL0     C 8938   8.692   2.080   4.573  0.2976  0.6481  0.2070
   67MOL0     C 8939   8.790   2.266   4.712  0.0602 -0.2448  0.7540
   67MOL0     C 8940   8.739   2.219   4.843 -0.5902  0.7993 -0.7197
   67MOL0     O 8941   8.769   2.090   4.874 -0.8977  0.1097 -0.7591
   67MOL0     C 8942   8.707   2.021   4.975 -0.4542 -0.4447 -0.2415
   67MOL0     C 8943   8.573   2.035   5.024  0.3756 -0.5854  0.0143
   67MOL0     C 8944   8.522   1.950   5.124  0.0240 -0.0245 -0.1289
   67MOL0     C 8945   8.591   1.843   5.179 -0.3421 -0.3000 -0.8203
   67MOL0     O 8946   8.518   1.757   5.267 -0.7366  0.4629 -0.3843
   67MOL0     C 8947   8.597   1.676   5.350  0.6522  0.6035  0.0376
   67MOL0     C 8948   8.550   1.677   5.498 -0.3370 -0.2455  0.1289
   67MOL0     C 8949   8.633   1.582   5.587  0.2568  0.3400 -0.2396
   67MOL0     C 8950   8.639   1.632   5.733 -1.1171  0.6461  0.6279
   67MOL0     C 8951   8.501   1.654   5.790 -0.2071 -0.1867 -0.1789
   67MOL0     C 8952   8.406   1.532   5.785 -1.2182 -0.7202  0.4693
   67MOL0     C 8953   8.270   1.562   5.846 -0.5125  0.8977 -0.1130
   67MOL0     C 8954   8.226   1.434   5.919 -1.3320  0.1712  0.3928
   67MOL0    Cl 8955   8.081   1.445   6.020  0.5196  0.1415  0.3656
   67MOL0     C 8956   8.707   1.803   5.108  0.4505 -0.2173 -1.1627
   67MOL0     C 8957   8.768   1.894   5.010 -0.0766 -0.5019  0.1325
   67MOL0     O 8958   8.668   2.294   4.913  0.2231  0.3031 -0.1989
   67MOL0     C 8959   8.863   2.384   4.725 -0.0294  0.5219  0.6846
   67MOL0     C 8960   8.920   2.442   4.607  0.5393 -0.0893  0.2642
   67MOL0     N 8961   8.794   3.001   4.014  0.2364  0.2182 -0.5584
   67MOL0     N 8962   8.846   3.116   3.957  0.7972  0.4364  0.0571
   67MOL0     C 8963   8.943   4.082   4.441 -0.2899  0.0560 -0.6897
   67MOL0     C 8964   8.914   4.210   4.497 -1.3825 -0.6394 -0.7135
   67MOL0     C 8965   8.937   4.520   4.813  0.4906  0.0720 -0.7693
   67MOL0     C 8966   8.910   4.632   4.737  0.0104 -0.0595  0.3305
   67MOL0     C 8967   8.852   4.752   4.783  0.2929  0.3871 -0.8383
   67MOL0     C 8968   8.818   4.758   4.914  0.6254 -0.3566 -0.6289
   67MOL0     O 8969   8.766   4.868   4.986 -0.3775 -0.1620 -0.3385
   67MOL0     C 8970   8.743   4.984   4.911 -0.0602  0.8624  0.9643
   67MOL0     C 8971   8.735   5.112   4.990 -0.0566 -0.4273  0.0082
   67MOL0     C 8972   8.871   5.174   5.029 -0.7014 -0.2773 -0.7443
   67MOL0     C 8973   8.953   5.246   4.924 -0.1765  0.3895 -0.5332
   67MOL0     C 8974   9.074   5.286   4.981  0.7015  0.0258 -1.1768
   67MOL0     C 8975   9.180   5.296   5.030 -0.2383  0.4205 -0.1800
   67MOL0     C 8976   8.845   4.650   4.997  0.0805  0.4026  0.2519
   67MOL0     C 8977   8.899   4.531   4.951 -0.6836 -0.4972  0.8017
   67MOL0     H 8978   9.205   4.269   4.648 -0.7124  3.1199  0.2381
   67MOL0     H 8979   9.252   4.028   4.572 -2.5329 -3.6510  2.7764
   67MOL0     H 8980   9.013   3.946   4.235 -0.3392 -0.2956 -0.1972
   67MOL0     H 8981   9.168   3.865   4.213 -0.3325 -0.1225  0.6434
   67MOL0     H 8982   8.921   3.728   4.313 -0.6740  4.0285  0.4576
   67MOL0     H 8983   8.986   3.735   4.148  1.3831 -2.5237 -0.4600
   67MOL0     H 8984   9.196   3.660   4.330 -0.3655  1.1553  0.5978
   67MOL0     H 8985   9.057   3.559   4.362  1.2262  0.4105  0.5735
   67MOL0     H 8986   9.024   3.493   4.129  0.7445  0.6753 -2.9351
   67MOL0     H 8987   9.163   3.587   4.074  0.9735  2.5753  1.4494
   67MOL0     H 8988   9.310   3.430   4.216  0.0792 -2.8859  0.6521
   67MOL0     H 8989   9.175   3.341   4.264  0.3784 -0.8620 -0.4803
   67MOL0     H 8990   9.313   3.336   4.010  1.2030 -1.5682  0.3822
   67MOL0     H 8991   9.237   3.209   4.102  0.4455 -0.5439  0.8638
   67MOL0     H 8992   9.016   3.347   3.988  0.7952  1.6589  1.7019
   67MOL0     H 8993   9.147   3.388   3.870 -2.4589 -2.6399 -3.1583
   67MOL0     H 8994   9.165   3.130   3.860  0.7600 -0.1111  2.8781
   67MOL0     H 8995   9.026   3.211   3.787 -0.8990 -3.0584 -0.3622
   67MOL0     H 8996   9.117   2.954   4.034  0.1051  2.1604  4.1683
   67MOL0     H 8997   8.838   2.721   4.019 -0.0050 -0.1566 -0.4481
   67MOL0     H 8998   8.991   2.732   4.090  1.1005  2.2881 -2.2950
   67MOL0     H 8999   8.724   2.782   4.221 -1.1335 -4.6032 -2.0250
   67MOL0     H 9000   8.868   2.803   4.324 -3.6349 -0.4200  1.5927
   67MOL0     H 9001   8.766   2.532   4.201 -1.2833 -0.9728  1.6736
   67MOL0     H 9002   8.756   2.588   4.354 -1.8597 -1.5369 -0.9943
   67MOL0     H 9003   8.990   2.614   4.407 -1.5427  1.6885 -0.6540
   67MOL0     H 9004   9.038   2.549   4.240 -0.2515 -1.3622 -1.2025
   67MOL0     H 9005   8.866   2.207   4.384 -0.8071 -1.6394  0.2031
   67MOL0     H 9006   8.619   2.046   4.647 -1.5415 -1.1661 -2.2687
   67MOL0     H 9007   8.643   2.080   4.475  0.9745 -1.4182 -0.1799
   67MOL0     H 9008   8.757   1.993   4.579 -2.1192 -1.2388  0.6795
   67MOL0     H 9009   8.519   2.123   4.990 -0.1333 -1.5712 -1.9481
   67MOL0     H 9010   8.434   1.985   5.177  0.0599  1.5995 -1.0834
   67MOL0     H 9011   8.587   1.572   5.316  0.9155  0.7211 -0.4065
   67MOL0     H 9012   8.703   1.705   5.347  0.4673  1.2764 -0.0647
   67MOL0     H 9013   8.566   1.780   5.530 -1.1081 -0.5525  1.5836
   67MOL0     H 9014   8.449   1.636   5.503 -0.3444 -0.8822 -3.0633
   67MOL0     H 9015   8.732   1.577   5.540  1.7795  4.5545  1.9667
   67MOL0     H 9016   8.592   1.482   5.602  2.1845 -0.2983  1.1897
   67MOL0     H 9017   8.687   1.550   5.788 -0.7687 -0.8938 -1.8278
   67MOL0     H 9018   8.697   1.725   5.733 -0.8312  0.4716  0.3237
   67MOL0     H 9019   8.449   1.734   5.738 -0.6579 -0.8032 -0.6869
   67MOL0     H 9020   8.520   1.687   5.893  1.6800  2.5333 -1.2978
   67MOL0     H 9021   8.393   1.501   5.681  0.3644  2.3643 -0.7669
   67MOL0     H 9022   8.461   1.450   5.831  2.6748  0.7104 -1.2213
   67MOL0     H 9023   8.196   1.582   5.767  0.4702  2.1782 -0.7406
   67MOL0     H 9024   8.260   1.651   5.909 -2.8838 -1.0043  2.4744
   67MOL0     H 9025   8.306   1.413   5.991 -0.0666  0.4312 -0.8882
   67MOL0     H 9026   8.229   1.348   5.852 -0.9122 -1.1870  2.0911
   67MOL0     H 9027   8.765   1.717   5.140 -0.9852 -1.4200 -1.6535
   67MOL0     H 9028   8.861   1.862   4.963 -0.9955  1.5523 -3.4314
   67MOL0     H 9029   8.885   2.425   4.823  0.4614 -1.3695  1.4046
   67MOL0     H 9030   8.966   2.540   4.620 -1.1021  0.8429 -0.6552
   67MOL0     H 9031   8.854   4.048   4.390 -0.6608 -1.2788  0.7600
   67MOL0     H 9032   8.818   4.261   4.489 -0.9744  0.1225 -0.7985
   67MOL0     H 9033   8.924   4.637   4.629 -0.9850 -0.3072  0.1791
   67MOL0     H 9034   8.832   4.832   4.713 -2.8856  1.4111  1.0600
   67MOL0     H 9035   8.820   4.997   4.834 -0.3666 -1.4222  0.1757
   67MOL0     H 9036   8.649   4.959   4.862  0.5396 -0.2923  0.3466
   67MOL0     H 9037   8.669   5.105   5.077 -1.4065  3.5671 -0.5065
   67MOL0     H 9038   8.690   5.183   4.920 -4.9683 -2.5122  0.5717
   67MOL0     H 9039   8.935   5.099   5.077 -1.0615 -0.1146  0.0151
   67MOL0     H 9040   8.852   5.251   5.105  3.7330 -1.1775  1.6635
   67MOL0     H 9041   8.898   5.332   4.884 -1.6432 -0.2473  0.0400
   67MOL0     H 9042   8.990   5.190   4.838  0.4188  1.9449 -1.3298
   67MOL0     H 9043   9.274   5.316   5.077  0.7461  0.2178 -1.9885
   67MOL0     H 9044   8.817   4.653   5.102 -2.2624  0.6629 -0.3334
   67MOL0     H 9045   8.905   4.443   5.015  2.8060 -0.5130  0.6530
   68MOL0     O 9046   7.827   6.793   0.934 -0.3736 -0.0639 -0.1121
   68MOL0     C 9047   7.738   6.740   0.998 -0.8904 -0.1504 -0.4415
   68MOL0     O 9048   7.605   6.724   0.957  0.2184  0.0666 -0.6290
   68MOL0     C 9049   7.548   6.785   0.844 -0.4049 -0.3630 -0.1014
   68MOL0     C 9050   7.424   6.729   0.821 -0.1502  0.6721  0.4128
   68MOL0     C 9051   7.349   6.787   0.719 -0.4251  0.2308  0.0432
   68MOL0     C 9052   7.394   6.896   0.634  0.7326 -0.6681 -0.4182
   68MOL0     O 9053   7.312   6.945   0.539  0.1815 -0.0166 -0.2257
   68MOL0     C 9054   7.332   6.863   0.429 -0.3019  0.0585 -0.0373
   68MOL0     C 9055   7.440   6.927   0.334 -0.1361 -1.0860 -0.1395
   68MOL0     C 9056   7.536   6.825   0.271 -0.2328 -0.5714 -0.3234
   68MOL0     C 9057   7.456   6.727   0.171  0.4625 -0.6373 -0.3656
   68MOL0     C 9058   7.531   6.668   0.055  0.1392 -0.0797 -0.2980
   68MOL0     C 9059   7.590   6.785  -0.028  0.6586  0.3925 -0.7609
   68MOL0     C 9060   7.638   6.728  -0.175 -0.2862 -0.2728 -0.2623
   68MOL0     C 9061   7.660   6.831  -0.285  0.3702  0.2345 -0.4474
   68MOL0     N 9062   7.762   6.931  -0.259  0.2699 -0.3180  0.0767
   68MOL0     C 9063   7.896   6.910  -0.252 -0.2930  0.7821 -0.5055
   68MOL0     C 9064   7.949   7.028  -0.251 -1.3054  0.8639  0.7950
   68MOL0     C 9065   8.102   7.057  -0.257  0.0677 -0.1991  0.6423
   68MOL0     C 9066   8.183   7.077  -0.123  0.6628 -0.0256 -0.3007
   68MOL0     C 9067   8.114   7.179  -0.017 -0.8128  0.3563 -0.3057
   68MOL0     C 9068   8.078   7.313  -0.074  0.0263  0.5868  0.3467
   68MOL0     O 9069   8.197   7.391  -0.118  0.1139  0.0652 -0.2098
   68MOL0     C 9070   8.263   7.454  -0.016  0.2028 -1.5660  0.1579
   68MOL0     C 9071   8.401   7.475  -0.043  0.1627  0.5440  0.6918
   68MOL0     C 9072   8.481   7.551   0.041 -1.3229  0.5078 -0.0270
   68MOL0     C 9073   8.619   7.570   0.003 -0.1046 -0.1812 -0.3016
   68MOL0     C 9074   8.422   7.604   0.163  0.1026 -0.2625  0.7072
   68MOL0     C 9075   8.503   7.667   0.263 -0.5003  0.1024 -0.5025
   68MOL0     O 9076   8.493   7.803   0.287  0.2705  0.2210 -0.0783
   68MOL0     C 9077   8.574   7.882   0.356 -0.0083 -0.6775 -0.0224
   68MOL0     C 9078   8.527   8.002   0.400  0.5906 -0.1972  0.4002
   68MOL0     C 9079   8.609   8.093   0.471  0.0568  0.0032 -0.7557
   68MOL0     C 9080   8.746   8.064   0.489 -0.3526  0.1107 -0.4293
   68MOL0     O 9081   8.816   8.142   0.583 -0.4052  0.2727 -0.2171
   68MOL0     C 9082   8.931   8.074   0.641  0.7426  0.2436  0.2473
   68MOL0     C 9083   8.985   8.157   0.761  0.2276  0.3373 -0.0157
   68MOL0     C 9084   9.064   8.290   0.731  0.3120  0.4769 -1.0150
   68MOL0     C 9085   9.141   8.327   0.853  0.5939 -0.5776 -0.3541
   68MOL0     C 9086   9.194   8.468   0.827 -0.1678 -0.7962 -0.3994
   68MOL0     C 9087   9.287   8.500   0.947  0.2207 -0.1007 -0.0648
   68MOL0     C 9088   9.350   8.628   0.955  0.1735 -0.4555 -0.2374
   68MOL0     C 9089   9.243   8.728   0.998  0.4214 -0.6117  0.5210
   68MOL0    Cl 9090   9.309   8.877   1.071 -0.3163  0.4528  0.5380
   68MOL0     C 9091   8.797   7.936   0.443 -1.7211  0.0718  0.1280
   68MOL0     C 9092   8.710   7.853   0.380  1.4855 -0.1094  0.0371
   68MOL0     O 9093   8.579   7.596   0.326  0.4162 -0.1505  0.6184
   68MOL0     C 9094   8.283   7.592   0.190  0.2580  0.7796 -0.3575
   68MOL0     C 9095   8.206   7.510   0.104  0.1996  0.2342 -0.3667
   68MOL0     N 9096   7.846   7.124  -0.248 -0.2680  0.1677 -0.3342
   68MOL0     N 9097   7.733   7.058  -0.246  0.5378 -0.6216 -0.3708
   68MOL0     C 9098   7.524   6.943   0.653 -0.6403 -0.7141  0.2809
   68MOL0     C 9099   7.604   6.886   0.759 -1.1916  0.8245  0.2400
   68MOL0     C 9100   7.770   6.709   1.134 -0.3643  0.9234  0.1644
   68MOL0     C 9101   7.673   6.698   1.229 -1.4266 -0.5727  0.4437
   68MOL0     C 9102   7.710   6.648   1.352 -0.8368 -0.3152  0.0733
   68MOL0     C 9103   7.846   6.611   1.385  0.2397  0.7032 -0.0243
   68MOL0     O 9104   7.883   6.550   1.503 -1.0941  0.9451  0.7593
   68MOL0     C 9105   7.780   6.538   1.612  0.5338  0.0404 -0.4724
   68MOL0     C 9106   7.767   6.681   1.680 -0.1540  0.2311 -0.5004
   68MOL0     C 9107   7.837   6.672   1.812  1.0950  0.0863 -0.3233
   68MOL0     C 9108   7.976   6.675   1.814  0.4374 -0.3296 -0.2015
   68MOL0     C 9109   8.017   6.667   1.953 -0.6761  0.0861  0.1032
   68MOL0     C 9110   8.027   6.683   2.078 -0.2810  0.0406  1.4516
   68MOL0     C 9111   7.946   6.640   1.289 -0.6476  0.4133  0.0554
   68MOL0     C 9112   7.905   6.703   1.170 -1.4528  0.2923 -0.0503
   68MOL0     H 9113   7.374   6.644   0.866 -1.7958  0.8443 -1.0194
   68MOL0     H 9114   7.250   6.745   0.702  0.9829 -3.7448  0.7263
   68MOL0     H 9115   7.361   6.759   0.449  3.2433  1.0296  0.4515
   68MOL0     H 9116   7.234   6.847   0.381  0.5549  0.1776 -1.9295
   68MOL0     H 9117   7.392   6.972   0.246  1.9539 -3.5521 -2.7183
   68MOL0     H 9118   7.508   6.991   0.390 -1.7532 -2.4222  3.6902
   68MOL0     H 9119   7.616   6.886   0.228  0.0998  0.6498  1.9144
   68MOL0     H 9120   7.586   6.764   0.347  1.6553 -0.8982 -1.7528
   68MOL0     H 9121   7.417   6.646   0.233 -1.4594  3.1140  3.9561
   68MOL0     H 9122   7.367   6.779   0.134  1.1981  3.0412  2.3596
   68MOL0     H 9123   7.606   6.595   0.087 -1.0973 -0.6409  1.4477
   68MOL0     H 9124   7.452   6.618  -0.002  0.1323  0.5846 -0.8930
   68MOL0     H 9125   7.513   6.861  -0.041 -0.1767 -0.6204 -1.9833
   68MOL0     H 9126   7.679   6.831   0.015 -2.2363  2.3811  3.8393
   68MOL0     H 9127   7.732   6.673  -0.172  1.0849  1.9428 -0.2078
   68MOL0     H 9128   7.581   6.648  -0.223  3.8050 -1.1296 -4.4798
   68MOL0     H 9129   7.565   6.882  -0.302 -0.7507 -1.4839  0.3600
   68MOL0     H 9130   7.687   6.772  -0.373  0.3437 -4.2004  2.1724
   68MOL0     H 9131   7.955   6.819  -0.243 -0.4666  0.8847  3.2403
   68MOL0     H 9132   8.152   6.982  -0.319 -0.2696  0.8211 -0.8991
   68MOL0     H 9133   8.112   7.154  -0.306  0.8593 -0.4747  0.2518
   68MOL0     H 9134   8.282   7.117  -0.148  0.6235  0.5220  0.3783
   68MOL0     H 9135   8.203   6.989  -0.062  3.2317 -0.1938 -1.2885
   68MOL0     H 9136   8.178   7.195   0.071 -3.0503  0.3871  1.4099
   68MOL0     H 9137   8.025   7.121   0.008  0.1682 -2.3937 -2.5896
   68MOL0     H 9138   8.010   7.358   0.000  0.1919  0.0754  0.8129
   68MOL0     H 9139   8.008   7.299  -0.157  0.0175  0.8248  0.3125
   68MOL0     H 9140   8.430   7.421  -0.133 -2.1094  0.3880 -0.0045
   68MOL0     H 9141   8.640   7.677   0.017 -1.4022 -0.0083  0.4750
   68MOL0     H 9142   8.674   7.508   0.075 -2.5107 -0.9660  0.9769
   68MOL0     H 9143   8.642   7.543  -0.101  0.8421 -0.5176 -0.0210
   68MOL0     H 9144   8.424   8.035   0.388  0.6281  0.0335  0.6910
   68MOL0     H 9145   8.574   8.178   0.529  1.5927  1.1249 -1.3840
   68MOL0     H 9146   8.899   7.980   0.687  3.4350  0.4979  2.9606
   68MOL0     H 9147   9.009   8.060   0.565  0.5555  0.1348  0.0749
   68MOL0     H 9148   8.894   8.169   0.819 -1.0842  0.4326 -1.9973
   68MOL0     H 9149   9.056   8.093   0.815  0.3036 -0.3951 -0.9395
   68MOL0     H 9150   8.997   8.373   0.706 -0.5196  0.2811  0.4520
   68MOL0     H 9151   9.127   8.271   0.643  0.6642  0.8509 -0.8460
   68MOL0     H 9152   9.077   8.329   0.942  0.3359  1.6834 -0.5190
   68MOL0     H 9153   9.229   8.263   0.865 -0.8585 -2.6804 -0.5518
   68MOL0     H 9154   9.105   8.532   0.824  1.3380  1.5145  0.8066
   68MOL0     H 9155   9.253   8.492   0.738  3.3325  1.5291  2.2807
   68MOL0     H 9156   9.239   8.466   1.039 -1.6594 -0.1391 -1.0230
   68MOL0     H 9157   9.366   8.425   0.933 -0.9782 -0.8598 -4.9164
   68MOL0     H 9158   9.389   8.655   0.856 -0.4368 -1.3125 -0.7259
   68MOL0     H 9159   9.429   8.626   1.030  0.8541 -0.6481 -0.9406
   68MOL0     H 9160   9.184   8.675   1.073 -0.8019 -0.3231 -0.2022
   68MOL0     H 9161   9.176   8.757   0.916  1.6706  1.0899  0.0458
   68MOL0     H 9162   8.896   7.900   0.470 -2.4073  0.2181  3.2066
   68MOL0     H 9163   8.740   7.750   0.362  0.9532 -0.5829  1.6403
   68MOL0     H 9164   8.241   7.628   0.283  0.9328  2.5207 -0.6861
   68MOL0     H 9165   8.102   7.489   0.125 -0.6880  2.5228 -2.1011
   68MOL0     H 9166   7.540   7.045   0.619  0.3453  1.0036  5.0906
   68MOL0     H 9167   7.701   6.931   0.778 -2.5693  2.7689  3.4970
   68MOL0     H 9168   7.568   6.708   1.204 -0.1344  0.5455 -6.6943
   68MOL0     H 9169   7.628   6.630   1.422 -1.0864 -0.2373 -0.1956
   68MOL0     H 9170   7.683   6.503   1.575  0.9134  0.6770 -2.1414
   68MOL0     H 9171   7.823   6.460   1.674  2.6088 -1.4023 -3.5004
   68MOL0     H 9172   7.662   6.710   1.685 -0.4344 -0.8617  0.4100
   68MOL0     H 9173   7.820   6.760   1.627 -1.9216  0.9498 -1.2769
   68MOL0     H 9174   7.790   6.587   1.862 -0.7547  0.3891 -1.4494
   68MOL0     H 9175   7.812   6.768   1.859  3.9408 -0.5313  2.7632
   68MOL0     H 9176   8.004   6.774   1.775  0.5337  0.1222  0.9932
   68MOL0     H 9177   8.026   6.603   1.749  0.0303 -0.0201 -0.8699
   68MOL0     H 9178   8.031   6.685   2.185  0.5010 -0.9877  1.4554
   68MOL0     H 9179   8.052   6.624   1.308 -0.8735  1.5105  2.5601
   68MOL0     H 9180   7.989   6.719   1.103 -2.2394  3.3922 -0.4322
   69MOL0     O 9181   7.395   2.575   6.256  0.2399 -0.4897  0.2600
   69MOL0     C 9182   7.325   2.618   6.348 -0.5072 -1.0909  0.0620
   69MOL0     O 9183   7.291   2.753   6.359 -0.2482  0.3161  0.3171
   69MOL0     C 9184   7.330   2.842   6.259  1.0042 -0.1364 -0.4743
   69MOL0     C 9185   7.408   2.948   6.298 -0.3959  0.3836 -0.8207
   69MOL0     C 9186   7.425   3.054   6.221  0.1814 -0.7214  0.3740
   69MOL0     C 9187   7.389   3.053   6.089  0.6295 -0.6025  0.4593
   69MOL0     O 9188   7.431   3.141   5.988  0.4509  0.0708  0.2096
   69MOL0     C 9189   7.468   3.276   6.018 -0.8730 -0.7456  0.1184
   69MOL0     C 9190   7.335   3.353   6.053 -0.0343  0.5361 -0.0939
   69MOL0     C 9191   7.361   3.501   6.070  0.5945 -0.2901 -0.3942
   69MOL0     C 9192   7.226   3.567   6.071  1.0134 -0.2212 -0.7568
   69MOL0     C 9193   7.234   3.718   6.098  0.6709 -0.1790  1.1104
   69MOL0     C 9194   7.100   3.782   6.068  0.2244  0.7649  0.5341
   69MOL0     C 9195   7.115   3.935   6.080 -0.0086  0.5027  0.2827
   69MOL0     C 9196   7.167   3.984   6.214  0.1295  0.1731  0.0852
   69MOL0     N 9197   7.105   3.944   6.338  0.2590  0.0139  1.3269
   69MOL0     C 9198   6.975   3.967   6.376 -0.4713  0.4342  0.4867
   69MOL0     C 9199   6.979   3.929   6.511  0.2632  0.4442  0.5584
   69MOL0     C 9200   6.876   3.930   6.618  0.9159  0.4686  0.5395
   69MOL0     C 9201   6.770   3.822   6.615 -0.1400 -0.0396  0.1114
   69MOL0     C 9202   6.702   3.785   6.483  0.3450  1.1226 -0.0727
   69MOL0     C 9203   6.579   3.692   6.499  0.1267 -0.4210  0.2793
   69MOL0     O 9204   6.532   3.674   6.362  0.3599 -0.5881  0.0689
   69MOL0     C 9205   6.411   3.732   6.321 -0.2517 -0.0242  0.0651
   69MOL0     C 9206   6.353   3.840   6.382  0.4254  1.2274  0.8752
   69MOL0     C 9207   6.238   3.897   6.329 -0.0753  0.6947 -0.5425
   69MOL0     C 9208   6.202   4.040   6.385  0.0528  0.4077 -0.1557
   69MOL0     C 9209   6.173   3.835   6.213  0.2203 -0.2947  0.2536
   69MOL0     C 9210   6.061   3.899   6.140  0.9784  0.0361  0.9477
   69MOL0     O 9211   6.040   3.867   6.011  0.8212 -0.4107 -0.4491
   69MOL0     C 9212   5.918   3.911   5.950  0.2507 -1.0193  1.0376
   69MOL0     C 9213   5.908   4.050   5.930  0.3915 -0.5842 -0.2325
   69MOL0     C 9214   5.815   4.109   5.843 -1.2005  0.3607 -0.3436
   69MOL0     C 9215   5.749   4.023   5.759  0.3259  0.1799  0.7631
   69MOL0     O 9216   5.661   4.092   5.676  0.9673  0.5088  0.7102
   69MOL0     C 9217   5.536   4.027   5.645  0.8128  0.7178 -0.0021
   69MOL0     C 9218   5.415   4.125   5.642 -0.5281 -0.4595  0.4375
   69MOL0     C 9219   5.409   4.212   5.513  0.2145 -0.6725 -0.3062
   69MOL0     C 9220   5.381   4.126   5.390 -0.8364 -0.6083 -0.7758
   69MOL0     C 9221   5.337   4.198   5.259  0.7333  0.4000 -0.1965
   69MOL0     C 9222   5.324   4.102   5.138  0.7100  0.6241  0.5895
   69MOL0     C 9223   5.195   4.116   5.057 -0.2175 -0.5673 -0.5798
   69MOL0     C 9224   5.196   4.245   4.970  0.6604  0.2951  0.3701
   69MOL0    Cl 9225   5.044   4.256   4.876 -0.1965 -0.2621  0.3329
   69MOL0     C 9226   5.763   3.878   5.772  0.1999  0.2256  0.6874
   69MOL0     C 9227   5.847   3.824   5.871 -0.3492 -0.5949  0.5129
   69MOL0     O 9228   5.987   3.973   6.203 -0.1866 -0.0431 -0.1156
   69MOL0     C 9229   6.228   3.713   6.163  0.8678  0.2181  0.5029
   69MOL0     C 9230   6.343   3.668   6.214 -0.6846  0.1322  0.4544
   69MOL0     N 9231   7.104   3.874   6.540  0.1041  0.1012  0.7474
   69MOL0     N 9232   7.180   3.890   6.438 -0.3143 -0.2140 -0.0400
   69MOL0     C 9233   7.314   2.936   6.044 -0.0400  0.5621 -0.4614
   69MOL0     C 9234   7.280   2.830   6.133  0.6537 -0.6226 -0.6835
   69MOL0     C 9235   7.300   2.536   6.460 -0.1244  0.7216  0.5953
   69MOL0     C 9236   7.366   2.405   6.462  0.7722 -0.0367 -0.7593
   69MOL0     C 9237   7.352   2.337   6.580  0.3524 -1.0093 -0.9868
   69MOL0     C 9238   7.289   2.397   6.693  0.5120 -0.2687  0.6941
   69MOL0     O 9239   7.292   2.329   6.808 -0.1381 -0.8364  0.1854
   69MOL0     C 9240   7.199   2.219   6.824 -0.0442 -0.5850  0.6656
   69MOL0     C 9241   7.218   2.137   6.950 -0.4168  0.2286 -0.3237
   69MOL0     C 9242   7.115   2.024   6.946 -0.4890  0.3267  0.0665
   69MOL0     C 9243   7.098   1.959   7.079  0.1390  0.3009  0.7208
   69MOL0     C 9244   6.978   1.875   7.081  0.5283  0.0315 -0.2376
   69MOL0     C 9245   6.872   1.814   7.075  0.0965 -0.3172  1.0129
   69MOL0     C 9246   7.233   2.528   6.688 -0.3152  0.8662 -1.1454
   69MOL0     C 9247   7.248   2.597   6.573  0.7251  0.1206 -0.9844
   69MOL0     H 9248   7.447   2.957   6.399 -1.5618 -0.4084 -0.2781
   69MOL0     H 9249   7.477   3.144   6.252 -2.5950  1.0655  0.1603
   69MOL0     H 9250   7.534   3.294   6.103 -1.3804  0.4784  0.2763
   69MOL0     H 9251   7.517   3.329   5.935 -0.2684  0.2220  1.0684
   69MOL0     H 9252   7.264   3.331   5.973 -0.2099  3.6959 -0.9425
   69MOL0     H 9253   7.304   3.307   6.147  1.1887  0.6276  0.3742
   69MOL0     H 9254   7.414   3.516   6.165 -3.2768  1.6503  1.7106
   69MOL0     H 9255   7.426   3.541   5.992 -0.3082 -0.8513 -1.4672
   69MOL0     H 9256   7.171   3.549   5.979  1.4041 -0.6859 -0.9015
   69MOL0     H 9257   7.181   3.508   6.151  0.2111 -1.3403 -2.0037
   69MOL0     H 9258   7.266   3.742   6.200 -1.6168 -1.1475  2.1232
   69MOL0     H 9259   7.312   3.762   6.035 -1.7271  0.5571 -1.5539
   69MOL0     H 9260   7.059   3.742   5.975 -2.9174 -1.0162  2.5081
   69MOL0     H 9261   7.032   3.749   6.146 -2.4653  1.0612 -1.5368
   69MOL0     H 9262   7.181   3.985   6.008 -2.1074  1.5051 -1.0142
   69MOL0     H 9263   7.019   3.975   6.049 -2.0670 -2.6878  1.9991
   69MOL0     H 9264   7.154   4.092   6.220  0.3979  0.1896  0.4649
   69MOL0     H 9265   7.274   3.961   6.220  0.4303  1.5578  0.5182
   69MOL0     H 9266   6.894   4.002   6.312 -1.1822 -1.1218  0.4886
   69MOL0     H 9267   6.928   3.920   6.713 -0.1127 -0.1928  1.0500
   69MOL0     H 9268   6.824   4.025   6.604 -0.3332 -0.6745 -5.7099
   69MOL0     H 9269   6.691   3.851   6.683  2.1358 -1.4978  3.6715
   69MOL0     H 9270   6.814   3.727   6.649 -0.7069 -0.1603  0.5086
   69MOL0     H 9271   6.787   3.736   6.434  2.0777  2.7371  1.1233
   69MOL0     H 9272   6.677   3.878   6.431 -0.5924  0.0387 -1.6291
   69MOL0     H 9273   6.503   3.744   6.558 -1.5434 -0.4114 -1.7805
   69MOL0     H 9274   6.618   3.601   6.544  2.2407  0.3182  0.0402
   69MOL0     H 9275   6.396   3.879   6.473  1.3797  0.0841  0.9353
   69MOL0     H 9276   6.271   4.075   6.463  0.2706  2.2531 -1.1134
   69MOL0     H 9277   6.209   4.121   6.312 -2.5327 -0.3157 -1.2999
   69MOL0     H 9278   6.099   4.037   6.422  0.0020 -1.2017 -0.3715
   69MOL0     H 9279   5.973   4.117   5.985  1.4079 -3.1484  1.9496
   69MOL0     H 9280   5.806   4.217   5.832 -0.2432  0.2473 -2.7409
   69MOL0     H 9281   5.549   3.971   5.552 -0.2854 -1.7455  1.2384
   69MOL0     H 9282   5.517   3.952   5.722  0.2195 -1.4250 -2.1101
   69MOL0     H 9283   5.323   4.067   5.644  0.3943 -1.9560  1.6206
   69MOL0     H 9284   5.417   4.188   5.732  0.5802  0.2179 -0.0402
   69MOL0     H 9285   5.506   4.261   5.498 -1.4870  2.7799 -1.0705
   69MOL0     H 9286   5.329   4.286   5.524 -0.2113 -0.7721 -2.3518
   69MOL0     H 9287   5.476   4.073   5.375 -0.7620 -1.8228  2.8732
   69MOL0     H 9288   5.301   4.056   5.418 -0.7615 -0.8547 -1.1643
   69MOL0     H 9289   5.408   4.275   5.230  0.8854 -0.5762 -2.7171
   69MOL0     H 9290   5.248   4.258   5.279  1.1544  1.2742 -0.8807
   69MOL0     H 9291   5.411   4.122   5.074 -1.2408 -1.2766 -2.9505
   69MOL0     H 9292   5.325   4.002   5.182 -0.0575  1.1682  1.8962
   69MOL0     H 9293   5.102   4.111   5.114 -0.3883  2.7125 -0.3307
   69MOL0     H 9294   5.189   4.044   4.976  2.1988  1.0917 -2.3979
   69MOL0     H 9295   5.271   4.233   4.892  1.2278  1.1404  0.7802
   69MOL0     H 9296   5.212   4.339   5.023  1.9349  1.1751 -1.4704
   69MOL0     H 9297   5.703   3.826   5.698  1.3139  0.8274 -0.6876
   69MOL0     H 9298   5.854   3.717   5.881  0.8887 -0.7581 -1.6864
   69MOL0     H 9299   6.190   3.656   6.078 -1.8490  2.8869 -0.2282
   69MOL0     H 9300   6.395   3.589   6.161 -2.9462 -1.2934  0.2391
   69MOL0     H 9301   7.282   2.932   5.941  0.5604  0.2680 -0.6404
   69MOL0     H 9302   7.225   2.744   6.095  0.7767 -0.8626 -0.3230
   69MOL0     H 9303   7.423   2.361   6.380  2.3171 -0.5669  0.5446
   69MOL0     H 9304   7.386   2.235   6.598  0.9222 -0.5056  0.9284
   69MOL0     H 9305   7.096   2.255   6.823  0.2470  0.2589  0.1624
   69MOL0     H 9306   7.211   2.159   6.734 -1.2271  0.3775 -0.1522
   69MOL0     H 9307   7.205   2.182   7.049  0.3438  0.5298 -0.3479
   69MOL0     H 9308   7.320   2.097   6.946 -1.6999 -3.2321 -1.2748
   69MOL0     H 9309   7.134   1.950   6.867  1.5470 -0.3933  1.1548
   69MOL0     H 9310   7.017   2.071   6.935 -1.5602 -1.9227 -0.8593
   69MOL0     H 9311   7.094   2.032   7.160  2.0187 -1.3198  2.3634
   69MOL0     H 9312   7.182   1.899   7.113 -0.6266  0.4743  3.1259
   69MOL0     H 9313   6.783   1.754   7.066  1.2568 -2.1800  1.3782
   69MOL0     H 9314   7.188   2.569   6.778  1.5228  2.0892 -0.7384
   69MOL0     H 9315   7.227   2.703   6.568  1.8953  0.3165 -3.1899
   70MOL0     O 9316   1.718   3.192  11.330  0.4155  0.3983 -0.9691
   70MOL0     C 9317   1.803   3.221  11.254 -0.6988 -0.7955  0.0289
   70MOL0     O 9318   1.911   3.140  11.223 -0.0873  0.3886  0.2811
   70MOL0     C 9319   1.923   3.020  11.286 -0.3595  0.1099 -0.3695
   70MOL0     C 9320   1.819   2.927  11.311 -0.3005 -0.1923  1.4018
   70MOL0     C 9321   1.852   2.812  11.385  1.3870  0.0008 -0.0224
   70MOL0     C 9322   1.977   2.784  11.429  0.6928 -0.6257 -0.8867
   70MOL0     O 9323   1.967   2.663  11.490 -0.0233 -0.0559  0.0303
   70MOL0     C 9324   2.068   2.615  11.577 -0.3323 -0.5686 -0.1370
   70MOL0     C 9325   2.058   2.669  11.715 -0.1848  0.8506  0.0637
   70MOL0     C 9326   2.174   2.631  11.801  0.6152 -0.2417  0.2840
   70MOL0     C 9327   2.175   2.481  11.839  0.6357  0.0843 -0.4457
   70MOL0     C 9328   2.275   2.454  11.948 -0.0960  0.3830 -0.2779
   70MOL0     C 9329   2.278   2.299  11.971  0.3940  0.6341 -0.5224
   70MOL0     C 9330   2.357   2.236  12.087 -0.1841  0.4538 -0.3666
   70MOL0     C 9331   2.332   2.091  12.100  0.6432 -0.8388  0.5880
   70MOL0     N 9332   2.385   2.031  12.218  1.2119  0.3525 -0.3506
   70MOL0     C 9333   2.520   2.010  12.238  0.5924 -0.0661 -0.5143
   70MOL0     C 9334   2.517   1.970  12.367  0.3634  0.2610 -0.7349
   70MOL0     C 9335   2.634   1.908  12.442  0.4475 -0.6796 -0.5780
   70MOL0     C 9336   2.767   1.897  12.366 -0.1124  0.1365  0.3573
   70MOL0     C 9337   2.889   1.895  12.459  0.0434 -0.4148 -0.7018
   70MOL0     C 9338   2.987   1.776  12.427  0.2588 -0.7551  0.0011
   70MOL0     O 9339   3.095   1.780  12.523  0.4351 -0.2182  1.0063
   70MOL0     C 9340   3.157   1.664  12.550  0.1647 -0.0975 -0.4235
   70MOL0     C 9341   3.128   1.588  12.668  0.2321 -0.3089  0.5522
   70MOL0     C 9342   3.191   1.472  12.690 -0.5416 -0.5233 -0.9536
   70MOL0     C 9343   3.151   1.404  12.826  0.0765 -0.0970  1.2416
   70MOL0     C 9344   3.284   1.416  12.595 -0.0778 -0.5814 -0.5676
   70MOL0     C 9345   3.354   1.282  12.601 -0.1819 -0.0572  0.1839
   70MOL0     O 9346   3.410   1.221  12.491 -0.2662 -0.2154 -0.6502
   70MOL0     C 9347   3.500   1.119  12.506  0.5035  0.1460 -0.1940
   70MOL0     C 9348   3.586   1.110  12.609  0.1631 -0.8007  0.3345
   70MOL0     C 9349   3.665   0.997  12.623 -0.4906  0.3010 -0.2299
   70MOL0     C 9350   3.656   0.891  12.536 -0.4078  0.4606 -0.1421
   70MOL0     O 9351   3.735   0.782  12.566 -0.1287 -0.0801 -0.0720
   70MOL0     C 9352   3.661   0.670  12.515  0.8364 -0.1583  0.9587
   70MOL0     C 9353   3.723   0.540  12.569  0.2380  0.4920  0.3510
   70MOL0     C 9354   3.680   0.400  12.502 -0.1929  0.5153  0.8530
   70MOL0     C 9355   3.764   0.285  12.545  0.9154  0.4649  0.0700
   70MOL0     C 9356   3.705   0.155  12.491  0.4971 -1.0603  0.2259
   70MOL0     C 9357   3.815   0.047  12.455  0.4553 -0.3360  0.9218
   70MOL0     C 9358   3.871  -0.012  12.583 -0.1066  0.5051  0.2813
   70MOL0     C 9359   3.979  -0.114  12.541  0.0145 -0.2531 -0.0438
   70MOL0    Cl 9360   3.912  -0.249  12.440 -0.0251 -0.0112 -0.2048
   70MOL0     C 9361   3.574   0.900  12.420 -0.1186 -0.5083 -0.8529
   70MOL0     C 9362   3.494   1.015  12.413 -0.4213 -0.2070 -0.1877
   70MOL0     O 9363   3.344   1.224  12.707  0.9653 -0.0530 -0.5054
   70MOL0     C 9364   3.309   1.492  12.479  0.0046  0.1497  0.8769
   70MOL0     C 9365   3.260   1.621  12.462  0.3922  0.3575 -0.8895
   70MOL0     N 9366   2.385   1.955  12.406  1.1497 -0.2521  0.0194
   70MOL0     N 9367   2.305   1.988  12.307  0.1085 -0.6492 -0.2090
   70MOL0     C 9368   2.077   2.879  11.405 -0.2296 -0.7412 -0.4627
   70MOL0     C 9369   2.052   2.992  11.324  0.3642  0.1379  0.4627
   70MOL0     C 9370   1.788   3.352  11.198  0.4702  0.7942  0.0838
   70MOL0     C 9371   1.905   3.397  11.136  0.1452 -0.3947  0.8001
   70MOL0     C 9372   1.905   3.525  11.094  0.7165 -0.3418  0.9632
   70MOL0     C 9373   1.795   3.602  11.090  0.9805 -1.4866 -1.0868
   70MOL0     O 9374   1.805   3.730  11.036 -0.2988 -0.0837 -0.2029
   70MOL0     C 9375   1.862   3.828  11.126 -0.4028  0.0765 -0.1687
   70MOL0     C 9376   1.756   3.938  11.139 -0.3455 -0.1062 -0.6742
   70MOL0     C 9377   1.775   4.044  11.252  0.0606  0.0212 -0.0020
   70MOL0     C 9378   1.655   4.127  11.295  0.1209  0.5203  0.1892
   70MOL0     C 9379   1.608   4.209  11.178  0.0522  0.0422  0.4343
   70MOL0     C 9380   1.597   4.290  11.091 -0.8522 -0.0319  0.7383
   70MOL0     C 9381   1.672   3.556  11.136 -0.8809  0.0820 -0.3855
   70MOL0     C 9382   1.673   3.425  11.190 -0.3606  0.3157  0.0230
   70MOL0     H 9383   1.719   2.938  11.271  1.5981  0.1082 -4.1158
   70MOL0     H 9384   1.764   2.749  11.394  2.1899 -0.8136  3.6567
   70MOL0     H 9385   2.080   2.506  11.586  3.3070 -0.1422  2.1950
   70MOL0     H 9386   2.162   2.638  11.526 -0.1188  0.9605  0.8715
   70MOL0     H 9387   2.060   2.778  11.712 -4.9699  1.2546  1.8731
   70MOL0     H 9388   1.962   2.637  11.759  0.5058 -3.3117 -1.0294
   70MOL0     H 9389   2.271   2.642  11.751  1.0621 -1.7905  0.7592
   70MOL0     H 9390   2.170   2.689  11.894 -3.3690 -1.3884  0.9883
   70MOL0     H 9391   2.076   2.448  11.873  1.2409 -0.4326  0.8964
   70MOL0     H 9392   2.207   2.435  11.745 -1.4321  3.0235 -2.7794
   70MOL0     H 9393   2.373   2.489  11.916  0.5541 -0.9520  0.1858
   70MOL0     H 9394   2.244   2.511  12.036  4.9565  0.9533  1.4257
   70MOL0     H 9395   2.176   2.258  11.972 -0.5301  2.6951 -2.5653
   70MOL0     H 9396   2.331   2.261  11.883  0.1010  4.3417 -2.4806
   70MOL0     H 9397   2.460   2.274  12.077 -0.1252  0.1203 -1.0921
   70MOL0     H 9398   2.314   2.277  12.179 -1.1479 -1.3180  0.0015
   70MOL0     H 9399   2.371   2.046  12.008 -0.6641 -0.6881 -0.0617
   70MOL0     H 9400   2.226   2.068  12.091  1.2623 -3.5029 -1.5505
   70MOL0     H 9401   2.609   2.025  12.177  2.7950 -0.3792  2.3890
   70MOL0     H 9402   2.652   1.959  12.537 -2.3158  0.8476 -0.7520
   70MOL0     H 9403   2.596   1.810  12.473 -0.1633  1.0844  5.7231
   70MOL0     H 9404   2.771   1.988  12.306 -0.1085 -1.9058 -2.9668
   70MOL0     H 9405   2.769   1.807  12.303 -0.5400 -0.8772  1.7308
   70MOL0     H 9406   2.844   1.869  12.555  1.0363 -1.9206 -0.6026
   70MOL0     H 9407   2.944   1.989  12.462  0.2923 -0.5136  3.3152
   70MOL0     H 9408   3.032   1.797  12.330  3.6538 -0.3766  1.4971
   70MOL0     H 9409   2.932   1.682  12.438  0.6856 -0.8208  1.9898
   70MOL0     H 9410   3.062   1.641  12.735  1.2323  0.8934  0.6294
   70MOL0     H 9411   3.233   1.421  12.896 -0.3181  3.0206  1.0529
   70MOL0     H 9412   3.077   1.461  12.884  1.2491  0.2447  2.4530
   70MOL0     H 9413   3.132   1.296  12.822  0.7182 -0.2089  1.1309
   70MOL0     H 9414   3.579   1.177  12.694 -1.7377 -1.3945  0.7029
   70MOL0     H 9415   3.719   0.968  12.712  0.6721 -2.1686 -1.6261
   70MOL0     H 9416   3.556   0.674  12.543  0.2520 -0.7730 -0.9577
   70MOL0     H 9417   3.662   0.677  12.406 -0.5985  4.0044  1.0222
   70MOL0     H 9418   3.829   0.549  12.544 -0.3368  0.6731 -2.3435
   70MOL0     H 9419   3.710   0.532  12.677  1.8448  1.9496  0.6922
   70MOL0     H 9420   3.697   0.408  12.395 -2.5146 -1.1370  0.2686
   70MOL0     H 9421   3.577   0.362  12.501 -0.1486 -0.0891 -3.9017
   70MOL0     H 9422   3.869   0.297  12.518  1.1512 -0.5982  0.4199
   70MOL0     H 9423   3.768   0.288  12.655  1.5534 -0.3686  0.0845
   70MOL0     H 9424   3.662   0.174  12.393 -1.3672 -1.4515  0.9335
   70MOL0     H 9425   3.631   0.113  12.560  2.2611 -1.7495  1.8028
   70MOL0     H 9426   3.772  -0.023  12.382  3.1444  0.4653 -1.6729
   70MOL0     H 9427   3.890   0.104  12.398 -0.2970 -2.8522 -3.0307
   70MOL0     H 9428   3.797  -0.059  12.648  1.6855  0.0153  2.0526
   70MOL0     H 9429   3.916   0.062  12.650 -2.0953  1.5693  0.5179
   70MOL0     H 9430   4.031  -0.157  12.627 -1.4444  0.6463  1.3337
   70MOL0     H 9431   4.052  -0.056  12.484  0.1068  1.6873  1.9347
   70MOL0     H 9432   3.567   0.835  12.333  0.0689 -1.0064 -0.4975
   70MOL0     H 9433   3.433   1.027  12.324  1.9573  2.3094 -1.6172
   70MOL0     H 9434   3.389   1.461  12.414  1.8938  1.0170  2.6826
   70MOL0     H 9435   3.301   1.678  12.379 -2.5340 -1.0291 -3.4911
   70MOL0     H 9436   2.180   2.865  11.437 -0.6791 -2.8892  0.2341
   70MOL0     H 9437   2.128   3.067  11.301 -1.6717  1.6161 -1.9659
   70MOL0     H 9438   1.997   3.339  11.139  0.0978 -0.4296  1.7077
   70MOL0     H 9439   1.998   3.572  11.065  0.1531  0.2500  0.0308
   70MOL0     H 9440   1.877   3.783  11.225  5.1813 -0.4735 -0.9129
   70MOL0     H 9441   1.953   3.872  11.084 -0.3021  0.9835  0.9289
   70MOL0     H 9442   1.660   3.885  11.145 -1.1687  1.4248  0.3781
   70MOL0     H 9443   1.754   3.990  11.043  0.9772 -0.9097 -1.1656
   70MOL0     H 9444   1.849   4.115  11.214  0.3038  0.1860  0.7486
   70MOL0     H 9445   1.813   3.996  11.343  1.0611  1.1561  0.2133
   70MOL0     H 9446   1.677   4.188  11.383  4.8008 -0.6082  0.0272
   70MOL0     H 9447   1.583   4.054  11.332  0.3028  1.2615  2.1405
   70MOL0     H 9448   1.588   4.359  11.009  2.1118  1.8372  1.8312
   70MOL0     H 9449   1.581   3.616  11.135 -1.5797 -0.8823 -2.5666
   70MOL0     H 9450   1.583   3.375  11.224 -1.0460  2.1072  0.9602
   71MOL0     O 9451   7.450   5.731   8.307 -0.0204 -1.3251 -0.1665
   71MOL0     C 9452   7.431   5.629   8.251 -0.8121 -0.3529 -1.2868
   71MOL0     O 9453   7.331   5.540   8.284  0.2752 -0.3195 -1.1436
   71MOL0     C 9454   7.265   5.528   8.408  0.2134 -0.6582  0.1351
   71MOL0     C 9455   7.147   5.449   8.411  0.8848  0.1074 -0.0051
   71MOL0     C 9456   7.067   5.433   8.530 -0.0756  0.0364  0.8549
   71MOL0     C 9457   7.106   5.487   8.649 -0.0127  0.6317 -0.4181
   71MOL0     O 9458   7.029   5.474   8.761 -0.0140  0.7050  0.4223
   71MOL0     C 9459   7.008   5.337   8.803  0.2330 -0.0367 -1.1551
   71MOL0     C 9460   6.994   5.352   8.961  0.3990 -0.4680  0.0309
   71MOL0     C 9461   6.960   5.231   9.034 -0.3406  0.6971 -1.0449
   71MOL0     C 9462   6.818   5.185   9.015 -1.0651 -0.0344  0.8699
   71MOL0     C 9463   6.803   5.056   9.094  0.5619  1.6975  0.0718
   71MOL0     C 9464   6.659   5.013   9.114  0.1392  0.2357  0.4026
   71MOL0     C 9465   6.604   4.924   9.011 -0.0756 -0.2570 -0.6355
   71MOL0     C 9466   6.445   4.914   9.021  0.5075  0.8594  0.2289
   71MOL0     N 9467   6.367   5.038   9.046  0.0684  0.1884 -0.2924
   71MOL0     C 9468   6.336   5.136   8.964  0.6226 -1.0015 -0.6843
   71MOL0     C 9469   6.286   5.232   9.049  0.3556 -0.1116  0.1313
   71MOL0     C 9470   6.258   5.378   9.009 -0.5587  0.3192 -0.2455
   71MOL0     C 9471   6.272   5.396   8.857  0.2604 -0.1156 -0.6037
   71MOL0     C 9472   6.242   5.541   8.834  0.0511  0.0874  0.7110
   71MOL0     C 9473   6.235   5.578   8.674 -0.3958  0.5002 -0.6136
   71MOL0     O 9474   6.200   5.708   8.658  1.0820 -0.1370 -0.7794
   71MOL0     C 9475   6.219   5.767   8.532  0.0796 -0.3695 -0.7537
   71MOL0     C 9476   6.261   5.697   8.420  0.6054  0.0357  0.4462
   71MOL0     C 9477   6.289   5.765   8.302  0.7624  0.2487 -0.1210
   71MOL0     C 9478   6.357   5.678   8.196 -0.0431 -1.1157 -0.0175
   71MOL0     C 9479   6.259   5.905   8.291 -0.0659 -0.2803  0.9399
   71MOL0     C 9480   6.286   5.993   8.169  0.6645 -0.8590  0.7717
   71MOL0     O 9481   6.199   6.096   8.123 -0.2692  0.6373  0.0081
   71MOL0     C 9482   6.219   6.164   8.011 -0.4567 -0.7685 -0.2167
   71MOL0     C 9483   6.115   6.187   7.923  0.1298  1.2583 -0.1819
   71MOL0     C 9484   6.138   6.243   7.801  0.2685  1.2956 -0.1642
   71MOL0     C 9485   6.269   6.290   7.763  0.8970 -1.0883 -0.0665
   71MOL0     O 9486   6.288   6.340   7.638  0.1630  0.0997  0.0923
   71MOL0     C 9487   6.192   6.417   7.578  0.0881 -0.2480 -0.7764
   71MOL0     C 9488   6.173   6.548   7.652  0.3159  0.1951 -0.2489
   71MOL0     C 9489   6.295   6.636   7.649  0.3518 -0.3150 -0.2225
   71MOL0     C 9490   6.266   6.771   7.723  0.9626 -0.7849 -0.3910
   71MOL0     C 9491   6.385   6.868   7.704  0.8220  0.1351 -0.8369
   71MOL0     C 9492   6.512   6.827   7.787  0.3536  0.8919 -0.2580
   71MOL0     C 9493   6.605   6.940   7.821  0.4338 -0.2659  0.6196
   71MOL0     C 9494   6.749   6.899   7.865  0.4845  0.6688  1.0393
   71MOL0    Cl 9495   6.757   6.818   8.026  0.1348  0.0939  0.3992
   71MOL0     C 9496   6.374   6.273   7.851  1.3486 -0.0676  0.6875
   71MOL0     C 9497   6.352   6.205   7.969 -0.7224  0.8998 -0.1536
   71MOL0     O 9498   6.378   5.956   8.106 -0.7057  0.0594  0.5628
   71MOL0     C 9499   6.213   5.973   8.399  1.0816  0.3359 -0.2156
   71MOL0     C 9500   6.184   5.903   8.516 -0.0696 -0.2317  1.0828
   71MOL0     N 9501   6.280   5.183   9.175  0.1012  0.0983 -0.4870
   71MOL0     N 9502   6.329   5.071   9.177 -0.4432 -0.2989 -0.1302
   71MOL0     C 9503   7.226   5.561   8.646  0.1341 -0.3109 -0.7672
   71MOL0     C 9504   7.306   5.581   8.536 -0.5768  0.3741  0.2010
   71MOL0     C 9505   7.527   5.584   8.149 -0.6353  0.2958 -0.4241
   71MOL0     C 9506   7.646   5.655   8.119 -0.0564  0.1640  0.9878
   71MOL0     C 9507   7.731   5.608   8.018  0.0593 -0.2373 -0.3275
   71MOL0     C 9508   7.696   5.496   7.943  0.1175 -0.6659 -0.1207
   71MOL0     O 9509   7.797   5.453   7.857 -0.8528 -0.6563  0.0678
   71MOL0     C 9510   7.783   5.320   7.803  0.4259  0.0617 -0.0570
   71MOL0     C 9511   7.825   5.202   7.893  0.6790  0.8322  0.3463
   71MOL0     C 9512   7.969   5.220   7.956  0.1848 -0.4208  0.0312
   71MOL0     C 9513   7.971   5.252   8.106 -0.4719  0.5258 -0.0077
   71MOL0     C 9514   8.084   5.173   8.164  1.4920 -0.6537 -0.1002
   71MOL0     C 9515   8.165   5.089   8.204 -0.1668  1.4030  1.0946
   71MOL0     C 9516   7.566   5.439   7.955 -0.5941 -0.0585 -0.2708
   71MOL0     C 9517   7.501   5.463   8.074  0.2429 -0.4465  0.4875
   71MOL0     H 9518   7.098   5.392   8.333 -0.1200  2.4505 -1.2008
   71MOL0     H 9519   6.976   5.374   8.523 -0.7113  1.1880 -1.4699
   71MOL0     H 9520   6.911   5.310   8.760  0.2000 -1.6905 -0.1371
   71MOL0     H 9521   7.080   5.261   8.773  0.7782  1.6270 -4.4652
   71MOL0     H 9522   7.096   5.377   8.993  1.7743 -2.6097 -2.3176
   71MOL0     H 9523   6.939   5.440   8.996  0.6936 -0.7688  1.2895
   71MOL0     H 9524   7.038   5.160   9.007  0.8739  1.4895  0.1873
   71MOL0     H 9525   6.968   5.237   9.143  1.2321 -0.6822 -1.0480
   71MOL0     H 9526   6.747   5.263   9.046  0.4329  2.3045 -1.1894
   71MOL0     H 9527   6.812   5.172   8.906  0.4651  3.2318  0.2522
   71MOL0     H 9528   6.854   4.969   9.052 -1.8421  0.1575  0.2021
   71MOL0     H 9529   6.837   5.074   9.197 -0.1776 -3.5946  1.5238
   71MOL0     H 9530   6.643   4.978   9.217 -0.8265 -0.6913 -0.0498
   71MOL0     H 9531   6.610   5.110   9.112  2.7831  1.6503 -1.6469
   71MOL0     H 9532   6.623   4.964   8.911 -0.4499  1.1191 -0.1716
   71MOL0     H 9533   6.653   4.826   9.012  1.2396  0.3659  0.7398
   71MOL0     H 9534   6.425   4.842   9.101  0.4552  1.6942  0.9890
   71MOL0     H 9535   6.422   4.854   8.933  4.3949  2.1235 -1.8795
   71MOL0     H 9536   6.368   5.147   8.861  0.0411  0.0815 -0.7630
   71MOL0     H 9537   6.156   5.402   9.038 -0.4026 -0.6376  1.1901
   71MOL0     H 9538   6.332   5.441   9.060 -2.2653  0.2769  2.4763
   71MOL0     H 9539   6.202   5.330   8.804 -2.5666  1.3013  1.0862
   71MOL0     H 9540   6.376   5.371   8.834  0.4435  1.3831 -1.5222
   71MOL0     H 9541   6.309   5.610   8.886 -4.4965  3.0108  3.2670
   71MOL0     H 9542   6.146   5.580   8.869  0.6876  1.0456  1.4344
   71MOL0     H 9543   6.154   5.517   8.633  0.3852  0.1539 -1.7066
   71MOL0     H 9544   6.326   5.544   8.623 -2.0628 -3.7966 -1.1638
   71MOL0     H 9545   6.288   5.592   8.420  0.6725  0.0533  0.4472
   71MOL0     H 9546   6.341   5.722   8.098 -1.8754 -0.0091  0.7390
   71MOL0     H 9547   6.463   5.679   8.223  0.8730  1.3690 -3.0984
   71MOL0     H 9548   6.319   5.576   8.206 -0.3345 -0.9836  0.2678
   71MOL0     H 9549   6.011   6.155   7.934  1.0395 -1.2037  2.4261
   71MOL0     H 9550   6.054   6.249   7.733  0.5058  2.6790 -0.3567
   71MOL0     H 9551   6.228   6.434   7.477  4.0465  0.6523  0.5961
   71MOL0     H 9552   6.101   6.357   7.578 -1.5019  1.9324  1.5725
   71MOL0     H 9553   6.088   6.596   7.602 -0.2735  1.2854  1.6751
   71MOL0     H 9554   6.139   6.534   7.756  1.7944  0.4095  0.2775
   71MOL0     H 9555   6.329   6.660   7.548  0.0289  1.2970  0.0394
   71MOL0     H 9556   6.379   6.591   7.703  1.9624  0.7397 -1.7446
   71MOL0     H 9557   6.173   6.798   7.674  1.3315  2.7999  0.5344
   71MOL0     H 9558   6.244   6.749   7.828 -3.0881 -2.2147 -1.3825
   71MOL0     H 9559   6.331   6.952   7.748 -0.4140  0.2008 -2.4083
   71MOL0     H 9560   6.398   6.877   7.596 -2.0196  0.7094 -1.1884
   71MOL0     H 9561   6.486   6.794   7.888  4.6469  0.8458  1.0302
   71MOL0     H 9562   6.557   6.738   7.742 -1.8582 -1.1362  1.2983
   71MOL0     H 9563   6.545   7.006   7.885  0.4726  0.6561 -0.2777
   71MOL0     H 9564   6.616   6.990   7.725  0.2027  4.6633  2.8342
   71MOL0     H 9565   6.822   6.979   7.870 -1.5947  2.8846 -1.0949
   71MOL0     H 9566   6.770   6.826   7.785  1.0006  0.3884  1.4259
   71MOL0     H 9567   6.470   6.302   7.809  0.2517  1.3242 -0.9795
   71MOL0     H 9568   6.434   6.192   8.040  0.3942  1.2115 -1.3484
   71MOL0     H 9569   6.175   6.075   8.388 -0.5772 -0.0403  1.5528
   71MOL0     H 9570   6.149   5.967   8.596  1.3186  3.4205 -0.9753
   71MOL0     H 9571   7.252   5.593   8.746  1.3350 -0.4947 -1.0080
   71MOL0     H 9572   7.400   5.634   8.544  0.5171 -1.5967  1.2950
   71MOL0     H 9573   7.668   5.743   8.179  2.6997 -1.1971  2.1503
   71MOL0     H 9574   7.823   5.663   8.001  1.0548 -0.5805  3.1303
   71MOL0     H 9575   7.685   5.295   7.761  0.8362 -4.0591  0.9589
   71MOL0     H 9576   7.851   5.306   7.718  1.3343 -0.4530  0.7295
   71MOL0     H 9577   7.824   5.110   7.834  4.1534  1.8784 -1.5520
   71MOL0     H 9578   7.747   5.183   7.968 -2.9704  3.0838 -2.5285
   71MOL0     H 9579   8.026   5.295   7.900  2.0906 -2.4958 -0.9673
   71MOL0     H 9580   8.029   5.131   7.935  4.5292  1.8531  1.6498
   71MOL0     H 9581   7.875   5.218   8.147 -1.6122 -1.7759 -4.0979
   71MOL0     H 9582   7.990   5.359   8.120  1.5568  0.0195  1.6532
   71MOL0     H 9583   8.234   5.011   8.229  0.9152  1.8425 -0.3392
   71MOL0     H 9584   7.540   5.356   7.890  2.3887 -0.7068 -0.8208
   71MOL0     H 9585   7.415   5.399   8.089 -1.3311  1.3124 -0.4912
   72MOL0     O 9586   2.518   6.126   9.852 -0.0395  0.0888  0.5228
   72MOL0     C 9587   2.598   6.216   9.892 -0.3844  0.5176 -0.3272
   72MOL0     O 9588   2.710   6.194   9.967 -0.0990  0.4722  0.3921
   72MOL0     C 9589   2.743   6.060   9.998 -0.4885  0.2109 -0.3732
   72MOL0     C 9590   2.741   5.952   9.901 -0.0588 -0.1256 -0.4153
   72MOL0     C 9591   2.803   5.835   9.944  0.4826 -0.4519 -0.0612
   72MOL0     C 9592   2.864   5.812  10.071  0.1846 -0.4524  0.3224
   72MOL0     O 9593   2.927   5.698  10.116 -0.1613 -0.3576 -0.6841
   72MOL0     C 9594   2.931   5.601  10.008  1.5174 -0.0124 -0.3140
   72MOL0     C 9595   3.016   5.480  10.053 -0.7670 -0.2935  0.2497
   72MOL0     C 9596   3.042   5.373   9.939  0.4452 -0.5910 -0.5484
   72MOL0     C 9597   3.115   5.263  10.016  0.1397 -0.2221  0.2297
   72MOL0     C 9598   3.134   5.128   9.939 -0.0402  0.4423  0.1347
   72MOL0     C 9599   3.208   5.144   9.806  0.7342 -0.7458 -0.1542
   72MOL0     C 9600   3.202   5.025   9.716  1.3622 -0.0038 -1.4491
   72MOL0     C 9601   3.279   5.019   9.596  0.1322 -0.0789  0.4061
   72MOL0     N 9602   3.243   5.127   9.498  0.4591 -0.8128 -1.0656
   72MOL0     C 9603   3.145   5.118   9.395  0.2455  0.2523  0.8696
   72MOL0     C 9604   3.170   5.227   9.320 -1.3249  0.3555 -0.3845
   72MOL0     C 9605   3.103   5.278   9.193  0.7596 -0.4449  0.4308
   72MOL0     C 9606   2.984   5.201   9.143 -0.1772  0.2491  0.2013
   72MOL0     C 9607   2.964   5.240   8.993 -0.3294  0.3457 -0.2130
   72MOL0     C 9608   2.880   5.372   8.967 -0.3840 -0.1895 -0.7320
   72MOL0     O 9609   2.748   5.325   8.994  0.0850 -0.3209 -0.3078
   72MOL0     C 9610   2.684   5.409   9.076 -0.1461  0.5240  0.4399
   72MOL0     C 9611   2.659   5.546   9.053  0.9225 -0.7393 -0.0868
   72MOL0     C 9612   2.597   5.634   9.147  0.1663 -0.0007  0.3302
   72MOL0     C 9613   2.571   5.775   9.102 -0.4211 -0.0174  0.5657
   72MOL0     C 9614   2.550   5.578   9.275  0.2910  0.3474  0.6062
   72MOL0     C 9615   2.465   5.665   9.361 -0.1182 -1.0942  0.3759
   72MOL0     O 9616   2.480   5.644   9.495 -0.2781  0.2344  0.0090
   72MOL0     C 9617   2.386   5.686   9.588 -0.3850 -0.3205  2.2755
   72MOL0     C 9618   2.375   5.829   9.616  0.6235 -0.7161 -0.0512
   72MOL0     C 9619   2.269   5.868   9.716 -0.0359 -0.6939  1.1962
   72MOL0     C 9620   2.183   5.768   9.776  0.7366  0.5504  0.2845
   72MOL0     O 9621   2.085   5.799   9.870  0.7414  0.2107 -0.7881
   72MOL0     C 9622   2.126   5.875   9.985  0.9329 -1.0516 -0.2050
   72MOL0     C 9623   2.012   5.877  10.080  0.1504 -0.0522  0.4766
   72MOL0     C 9624   1.917   6.004  10.063  0.4190  0.2043 -0.6865
   72MOL0     C 9625   1.959   6.114  10.161  0.4731  0.2402  0.4096
   72MOL0     C 9626   1.864   6.238  10.145  0.2354  0.9791  0.7032
   72MOL0     C 9627   1.952   6.367  10.163  0.0656  0.9655 -0.6765
   72MOL0     C 9628   1.867   6.493  10.155  1.4730  0.1697 -0.0823
   72MOL0     C 9629   1.955   6.602  10.219  0.4829  0.7199 -0.0869
   72MOL0    Cl 9630   1.835   6.729  10.243 -0.2939 -0.5665  0.2286
   72MOL0     C 9631   2.209   5.633   9.746  0.5730 -0.5048  0.2329
   72MOL0     C 9632   2.309   5.596   9.659 -2.0052  0.6814 -0.3207
   72MOL0     O 9633   2.389   5.749   9.311  0.5378 -0.5809 -0.6973
   72MOL0     C 9634   2.587   5.445   9.309  0.4288 -0.5957  0.1861
   72MOL0     C 9635   2.661   5.367   9.218 -0.0488 -0.3283 -0.5971
   72MOL0     N 9636   3.274   5.294   9.370 -0.2610 -0.2225  0.7739
   72MOL0     N 9637   3.314   5.237   9.478 -0.6253  0.5658 -0.4039
   72MOL0     C 9638   2.851   5.913  10.168 -0.0189  0.2409 -0.4645
   72MOL0     C 9639   2.787   6.040  10.129 -0.6977 -0.0627  0.4007
   72MOL0     C 9640   2.558   6.353   9.855 -0.3380 -0.1625  0.7631
   72MOL0     C 9641   2.641   6.466   9.889 -0.5617  0.5580  0.3145
   72MOL0     C 9642   2.600   6.596   9.874  0.0629 -0.6181  0.2307
   72MOL0     C 9643   2.486   6.625   9.805 -0.5433  0.6367 -0.4150
   72MOL0     O 9644   2.422   6.746   9.777 -0.5605  0.3359 -0.0122
   72MOL0     C 9645   2.507   6.864   9.790 -0.7733  0.6860 -0.1759
   72MOL0     C 9646   2.424   6.996   9.745  0.2109 -0.4793 -0.5691
   72MOL0     C 9647   2.323   7.025   9.857 -0.3552 -0.5099  0.8848
   72MOL0     C 9648   2.257   7.164   9.850  0.6642  1.2711  0.5888
   72MOL0     C 9649   2.343   7.274   9.867  0.1610 -0.7561  0.1720
   72MOL0     C 9650   2.433   7.354   9.869  0.5036  0.1738 -0.7318
   72MOL0     C 9651   2.401   6.517   9.776  0.6665  0.1040 -0.5860
   72MOL0     C 9652   2.428   6.383   9.805 -0.0740  0.2789 -0.9643
   72MOL0     H 9653   2.693   5.961   9.805 -0.9319 -1.2895 -0.1035
   72MOL0     H 9654   2.797   5.755   9.872  1.0753 -0.3461 -0.2412
   72MOL0     H 9655   2.830   5.558  10.007  1.5427 -0.2811  2.3209
   72MOL0     H 9656   2.954   5.638   9.908  0.7703 -0.4531 -0.6618
   72MOL0     H 9657   3.113   5.520  10.084 -1.5929  1.0542  1.2106
   72MOL0     H 9658   2.985   5.436  10.149  0.4897  0.2575  0.9277
   72MOL0     H 9659   2.943   5.348   9.899 -0.4108  0.2948  0.9338
   72MOL0     H 9660   3.106   5.413   9.860 -0.5353  1.2140 -0.4894
   72MOL0     H 9661   3.211   5.307  10.046  0.0788  0.0864 -0.0237
   72MOL0     H 9662   3.064   5.242  10.110  1.3236  0.1058  0.9705
   72MOL0     H 9663   3.191   5.068  10.010 -1.3400 -1.6142 -0.4646
   72MOL0     H 9664   3.037   5.080   9.929 -1.8645  3.2779  2.5639
   72MOL0     H 9665   3.170   5.232   9.753 -1.1367 -0.6550  1.2527
   72MOL0     H 9666   3.313   5.172   9.817  0.5162 -0.2764  0.7544
   72MOL0     H 9667   3.238   4.934   9.764 -0.5740 -0.2927 -0.4307
   72MOL0     H 9668   3.096   5.016   9.690  1.2714  1.1424 -1.5074
   72MOL0     H 9669   3.257   4.919   9.559 -1.3767 -0.7781  2.9578
   72MOL0     H 9670   3.381   5.036   9.632 -1.0125  2.0652  3.0153
   72MOL0     H 9671   3.073   5.038   9.383  2.9375 -1.9969 -2.4652
   72MOL0     H 9672   3.068   5.381   9.211 -1.8715 -1.0369 -0.8257
   72MOL0     H 9673   3.186   5.281   9.122  1.3463  1.4523  1.1265
   72MOL0     H 9674   2.901   5.215   9.213  1.3872  2.3504  1.7689
   72MOL0     H 9675   2.999   5.093   9.128  2.1049  0.8933 -3.6967
   72MOL0     H 9676   2.905   5.158   8.952  1.5904 -2.3761  2.0944
   72MOL0     H 9677   3.058   5.270   8.945 -0.5881 -1.3135 -1.8694
   72MOL0     H 9678   2.890   5.403   8.862  2.0076  1.0920 -0.1853
   72MOL0     H 9679   2.916   5.457   9.025  0.2064 -0.6167 -0.4636
   72MOL0     H 9680   2.671   5.566   8.947 -1.9577 -0.8848 -0.5170
   72MOL0     H 9681   2.634   5.802   9.016 -1.0350 -0.7283 -0.1264
   72MOL0     H 9682   2.469   5.777   9.062 -0.4841  1.0823  0.7399
   72MOL0     H 9683   2.589   5.851   9.178 -2.2924 -0.0023  1.0555
   72MOL0     H 9684   2.442   5.912   9.596 -1.4225  1.3125  1.1196
   72MOL0     H 9685   2.274   5.974   9.737 -0.6394  0.0077 -1.6843
   72MOL0     H 9686   2.219   5.830  10.023  0.6447  0.8255  3.1273
   72MOL0     H 9687   2.139   5.980   9.958 -1.4401  0.3754  3.4558
   72MOL0     H 9688   1.939   5.797  10.066 -1.5273  0.5239  4.5510
   72MOL0     H 9689   2.062   5.883  10.177 -1.5089 -0.4441  1.3885
   72MOL0     H 9690   1.819   5.959  10.082  0.2795  0.4090 -0.9094
   72MOL0     H 9691   1.905   6.033   9.958 -0.3701 -0.9223 -0.9217
   72MOL0     H 9692   1.952   6.078  10.264  1.5205 -3.3500 -0.6351
   72MOL0     H 9693   2.062   6.147  10.140 -0.2505  0.2199 -3.8888
   72MOL0     H 9694   1.782   6.236  10.218 -1.4183  1.1660 -1.0538
   72MOL0     H 9695   1.805   6.233  10.053  1.6148 -1.7757 -0.1523
   72MOL0     H 9696   2.014   6.368  10.253 -1.3015  1.5245  0.2781
   72MOL0     H 9697   2.036   6.371  10.093  0.2192 -0.0908 -0.5745
   72MOL0     H 9698   1.774   6.476  10.210 -0.0250  1.3982 -2.0907
   72MOL0     H 9699   1.845   6.520  10.052 -0.2115  2.2863  0.7701
   72MOL0     H 9700   2.030   6.635  10.146  1.0603  0.8416  0.5511
   72MOL0     H 9701   1.991   6.568  10.316  0.8977  2.6449  0.4763
   72MOL0     H 9702   2.149   5.562   9.803 -1.6938  1.8222  0.9427
   72MOL0     H 9703   2.338   5.493   9.648 -3.4509  0.4689 -3.7019
   72MOL0     H 9704   2.552   5.409   9.405 -1.1165 -2.1926 -0.9250
   72MOL0     H 9705   2.683   5.265   9.246 -0.1407 -0.3773 -0.7019
   72MOL0     H 9706   2.875   5.890  10.271  2.6006  1.7510 -0.6455
   72MOL0     H 9707   2.778   6.126  10.195  0.0501 -0.7634  1.4571
   72MOL0     H 9708   2.744   6.444   9.916 -0.1372 -1.8451 -2.6791
   72MOL0     H 9709   2.662   6.676   9.913 -1.9751  0.4668  1.3903
   72MOL0     H 9710   2.533   6.887   9.894 -0.6160  4.9497 -0.9679
   72MOL0     H 9711   2.591   6.857   9.721 -0.9583 -1.1697 -0.2456
   72MOL0     H 9712   2.369   6.999   9.651 -3.4421 -0.4221  1.3899
   72MOL0     H 9713   2.497   7.077   9.751 -0.5748  0.1437  3.1036
   72MOL0     H 9714   2.372   7.002   9.952 -0.1416 -1.3491  0.5838
   72MOL0     H 9715   2.245   6.953   9.833  0.1315 -0.5856 -0.5415
   72MOL0     H 9716   2.187   7.158   9.934  0.6274  2.1202  0.6273
   72MOL0     H 9717   2.202   7.166   9.756  2.6612 -2.2403 -0.8127
   72MOL0     H 9718   2.502   7.436   9.866 -0.0810  0.6434 -2.4093
   72MOL0     H 9719   2.307   6.543   9.728  0.4016 -0.2927 -0.2956
   72MOL0     H 9720   2.360   6.304   9.775  0.3333 -0.4457 -0.0655
   73MOL0     O 9721   5.714   2.323   1.305  0.4332  0.1434 -0.5481
   73MOL0     C 9722   5.756   2.379   1.204 -0.5836  0.8842  0.0368
   73MOL0     O 9723   5.699   2.489   1.139 -0.5260 -0.8135 -0.4307
   73MOL0     C 9724   5.578   2.545   1.171 -0.6407  1.1081 -0.0809
   73MOL0     C 9725   5.574   2.674   1.214  0.9585 -0.1550  0.1878
   73MOL0     C 9726   5.446   2.732   1.242 -0.3928 -0.7245 -0.8444
   73MOL0     C 9727   5.324   2.664   1.225 -0.2683 -0.1172 -0.7401
   73MOL0     O 9728   5.203   2.725   1.244 -0.2167  0.0104 -0.5099
   73MOL0     C 9729   5.153   2.768   1.116 -1.0083  0.5752  0.2942
   73MOL0     C 9730   5.017   2.843   1.110  0.1886 -0.5152 -0.2155
   73MOL0     C 9731   4.914   2.757   1.185 -0.1537 -0.9881  0.2701
   73MOL0     C 9732   4.771   2.800   1.158 -0.7611  0.2174  0.6171
   73MOL0     C 9733   4.676   2.711   1.245  1.2363  0.0510  0.7262
   73MOL0     C 9734   4.521   2.739   1.234 -0.3818  0.5169 -0.0021
   73MOL0     C 9735   4.482   2.827   1.353 -0.0298  0.1165 -0.2460
   73MOL0     C 9736   4.346   2.901   1.345 -0.0923 -0.3300 -0.2071
   73MOL0     N 9737   4.234   2.797   1.359 -0.2896  0.3768  0.0408
   73MOL0     C 9738   4.202   2.694   1.265 -0.3672 -0.0004 -0.6821
   73MOL0     C 9739   4.119   2.606   1.326  0.5928 -0.7332  0.4691
   73MOL0     C 9740   4.061   2.474   1.267 -0.9636  0.2706  0.2282
   73MOL0     C 9741   4.014   2.364   1.377 -0.7328  0.2629  0.3552
   73MOL0     C 9742   4.124   2.302   1.459 -0.3928 -0.5127  0.2920
   73MOL0     C 9743   4.251   2.260   1.377  0.0752 -0.7591 -0.4767
   73MOL0     O 9744   4.220   2.161   1.274  0.1081 -0.2953 -0.0672
   73MOL0     C 9745   4.321   2.100   1.215 -0.1682 -0.4398 -0.1749
   73MOL0     C 9746   4.295   1.982   1.159  0.1151  1.1913 -0.9783
   73MOL0     C 9747   4.379   1.910   1.070 -0.5202 -0.1590  0.9470
   73MOL0     C 9748   4.334   1.769   1.032 -0.7863 -0.5462 -0.5461
   73MOL0     C 9749   4.496   1.981   1.028 -0.0410 -0.1225 -0.1153
   73MOL0     C 9750   4.604   1.933   0.938 -0.3321 -0.3883  0.6180
   73MOL0     O 9751   4.560   1.851   0.832 -0.5671 -0.7537  0.3638
   73MOL0     C 9752   4.646   1.820   0.731  0.5606  0.8691  0.1025
   73MOL0     C 9753   4.676   1.692   0.709  0.2422 -0.0049  0.7681
   73MOL0     C 9754   4.770   1.637   0.618  0.2035 -0.7351 -1.1947
   73MOL0     C 9755   4.844   1.726   0.545  0.9833 -0.2606 -0.1862
   73MOL0     O 9756   4.940   1.677   0.460 -0.5781  0.3150  0.3045
   73MOL0     C 9757   4.904   1.720   0.324  1.3405  0.8140 -0.3243
   73MOL0     C 9758   5.011   1.674   0.233 -0.5486 -0.0458  0.8802
   73MOL0     C 9759   5.034   1.531   0.231  0.3423 -0.6946  0.2520
   73MOL0     C 9760   5.145   1.505   0.129 -0.2196  0.6333  0.6543
   73MOL0     C 9761   5.176   1.353   0.110  0.5741 -0.6910  0.3309
   73MOL0     C 9762   5.073   1.266   0.045  0.6029  0.1771  0.9083
   73MOL0     C 9763   5.120   1.115   0.026  0.7685 -0.7064  0.1247
   73MOL0     C 9764   5.033   1.032  -0.068 -0.3423 -0.2692  0.0255
   73MOL0    Cl 9765   4.957   1.133  -0.201 -0.2913  0.7085  0.3533
   73MOL0     C 9766   4.826   1.864   0.571  0.5149 -0.3593  0.8806
   73MOL0     C 9767   4.726   1.912   0.659 -1.0853  0.6023 -0.1753
   73MOL0     O 9768   4.722   1.969   0.954  0.2823  0.0526  0.2643
   73MOL0     C 9769   4.530   2.109   1.078  0.4670  0.1755  0.5080
   73MOL0     C 9770   4.435   2.173   1.170 -0.3450 -0.0718 -0.6819
   73MOL0     N 9771   4.120   2.642   1.457  0.2030  0.6964 -0.9382
   73MOL0     N 9772   4.184   2.753   1.473 -0.0758 -0.3752 -0.4417
   73MOL0     C 9773   5.338   2.532   1.184 -0.0278  0.5234  0.5432
   73MOL0     C 9774   5.459   2.469   1.158  0.5633 -0.0628 -0.3459
   73MOL0     C 9775   5.881   2.333   1.155 -0.5093  0.3682  0.5506
   73MOL0     C 9776   5.953   2.396   1.058  0.1131  0.6238  0.2075
   73MOL0     C 9777   6.087   2.354   1.019 -0.9169  0.5381  0.2484
   73MOL0     C 9778   6.138   2.230   1.068 -1.1296 -0.4217  0.4558
   73MOL0     O 9779   6.251   2.184   1.005 -0.1136 -1.2337 -0.7240
   73MOL0     C 9780   6.269   2.037   0.999 -0.7443 -0.2348  0.0146
   73MOL0     C 9781   6.174   1.968   0.901  0.0955 -0.0322 -0.5157
   73MOL0     C 9782   6.216   1.988   0.752  0.9267  0.6523  0.4404
   73MOL0     C 9783   6.114   2.079   0.682 -1.5617 -0.0774  0.3612
   73MOL0     C 9784   6.171   2.123   0.547  0.3298 -0.1581 -1.0269
   73MOL0     C 9785   6.216   2.184   0.457 -0.7234  0.4385  0.7050
   73MOL0     C 9786   6.068   2.164   1.162  0.0732  0.2266 -0.6492
   73MOL0     C 9787   5.946   2.221   1.210  0.7658  0.5129 -0.7114
   73MOL0     H 9788   5.671   2.721   1.226  0.0370  1.5746  1.3579
   73MOL0     H 9789   5.436   2.837   1.269 -1.7270 -0.8973 -0.5973
   73MOL0     H 9790   5.231   2.834   1.077 -0.2633  0.6114  1.7757
   73MOL0     H 9791   5.151   2.676   1.058  0.1735 -1.2583  2.9936
   73MOL0     H 9792   5.023   2.942   1.156  0.4241  0.5945 -2.5053
   73MOL0     H 9793   4.989   2.860   1.006 -0.8338  1.8440  0.3654
   73MOL0     H 9794   4.915   2.654   1.150 -1.0928 -0.8189 -0.3041
   73MOL0     H 9795   4.940   2.771   1.290 -4.1403  1.2595  1.1652
   73MOL0     H 9796   4.768   2.902   1.196 -2.5892 -0.1406  1.5467
   73MOL0     H 9797   4.755   2.791   1.050 -1.2328 -0.3556  0.7286
   73MOL0     H 9798   4.690   2.610   1.205  3.2018  0.9384 -1.0174
   73MOL0     H 9799   4.711   2.699   1.348  4.4745 -1.0496 -0.4003
   73MOL0     H 9800   4.503   2.771   1.131  0.7357 -1.2482 -0.7888
   73MOL0     H 9801   4.463   2.647   1.243  1.6487 -0.6568  2.0795
   73MOL0     H 9802   4.489   2.764   1.442  1.8410 -2.6474 -2.1661
   73MOL0     H 9803   4.556   2.907   1.364  0.3519 -0.2077 -0.4514
   73MOL0     H 9804   4.339   2.969   1.260  3.7582  0.7763  0.1500
   73MOL0     H 9805   4.336   2.965   1.433 -0.6222  2.1188 -1.9414
   73MOL0     H 9806   4.215   2.687   1.158  3.4564 -2.3511 -0.2488
   73MOL0     H 9807   3.973   2.481   1.203 -1.7009 -2.9131  0.7093
   73MOL0     H 9808   4.135   2.440   1.194 -0.0856  1.6695  0.4384
   73MOL0     H 9809   3.952   2.283   1.337  0.3169  0.0590 -0.9220
   73MOL0     H 9810   3.948   2.423   1.442 -0.0511  0.5524  0.8012
   73MOL0     H 9811   4.082   2.224   1.524  2.0824 -0.6057  1.8904
   73MOL0     H 9812   4.162   2.377   1.528  1.0706 -0.9356 -0.0297
   73MOL0     H 9813   4.323   2.224   1.451  0.5541 -0.0399 -0.5816
   73MOL0     H 9814   4.288   2.348   1.323 -0.1932  0.4374  1.1985
   73MOL0     H 9815   4.194   1.951   1.185  0.0605  2.8778  1.1294
   73MOL0     H 9816   4.331   1.748   0.924  1.8369 -0.5255 -0.6825
   73MOL0     H 9817   4.398   1.691   1.073  1.1298  0.4655 -1.5019
   73MOL0     H 9818   4.235   1.754   1.077  0.2979  0.3207  2.2640
   73MOL0     H 9819   4.623   1.635   0.785 -2.3832 -0.3758 -1.1964
   73MOL0     H 9820   4.798   1.533   0.608 -2.8285 -1.9059  0.9569
   73MOL0     H 9821   4.809   1.683   0.285  0.1167  1.2820  2.0147
   73MOL0     H 9822   4.882   1.826   0.315 -2.8405 -0.0346 -2.9733
   73MOL0     H 9823   4.991   1.726   0.138  2.1528 -0.4685 -0.0097
   73MOL0     H 9824   5.103   1.712   0.277 -2.8801  0.7729  5.6988
   73MOL0     H 9825   4.938   1.490   0.201  0.3044 -0.1152 -0.4406
   73MOL0     H 9826   5.074   1.492   0.325  0.0961  1.6564  1.4177
   73MOL0     H 9827   5.108   1.533   0.030 -0.6856 -1.5140  0.1721
   73MOL0     H 9828   5.239   1.553   0.158  1.0205 -0.5160 -1.2709
   73MOL0     H 9829   5.210   1.319   0.208  4.8068  4.3463  1.0851
   73MOL0     H 9830   5.270   1.348   0.054  2.8135 -0.9552  3.8166
   73MOL0     H 9831   4.981   1.281   0.101  0.0826  0.5428 -0.0320
   73MOL0     H 9832   5.057   1.304  -0.056 -1.8983 -0.9101  0.8245
   73MOL0     H 9833   5.127   1.065   0.123 -1.6560  1.2781  1.4423
   73MOL0     H 9834   5.220   1.115  -0.018  0.2747 -1.2675 -1.0342
   73MOL0     H 9835   4.954   0.980  -0.013  1.4694 -1.2977  1.7562
   73MOL0     H 9836   5.112   0.964  -0.101 -0.8235 -1.4279  1.2026
   73MOL0     H 9837   4.902   1.929   0.529  0.3055  0.5181  1.8219
   73MOL0     H 9838   4.715   2.020   0.663 -1.6394  0.5366  0.1300
   73MOL0     H 9839   4.619   2.165   1.049  1.0958 -0.1289  1.7671
   73MOL0     H 9840   4.446   2.279   1.194 -1.3312 -0.4237  1.5810
   73MOL0     H 9841   5.245   2.478   1.169 -0.5892  1.8194 -1.0054
   73MOL0     H 9842   5.458   2.363   1.134  0.6514  0.3940 -2.5719
   73MOL0     H 9843   5.914   2.482   1.005 -1.0158 -0.4229 -0.7156
   73MOL0     H 9844   6.145   2.394   0.937  1.1324 -1.9921  0.3479
   73MOL0     H 9845   6.369   2.020   0.960 -0.9072 -0.2125 -0.4236
   73MOL0     H 9846   6.265   1.997   1.101 -2.9923  0.2764  0.1954
   73MOL0     H 9847   6.069   1.998   0.899 -0.6957 -2.5861 -1.0816
   73MOL0     H 9848   6.176   1.861   0.924  0.5037  0.1608  0.3671
   73MOL0     H 9849   6.231   1.899   0.691  1.6970  0.6019  0.6815
   73MOL0     H 9850   6.313   2.040   0.751 -0.2154  2.8862  0.1802
   73MOL0     H 9851   6.095   2.176   0.730 -1.3380  1.3846 -2.2801
   73MOL0     H 9852   6.027   2.018   0.656  0.3833 -2.3845 -1.1806
   73MOL0     H 9853   6.254   2.241   0.375  0.7452 -2.0757 -0.4794
   73MOL0     H 9854   6.093   2.074   1.217 -0.8904  0.5216  0.3117
   73MOL0     H 9855   5.893   2.160   1.283  0.5096 -0.4403 -1.6728
   74MOL0     O 9856   3.859   3.122   7.268 -0.9909 -0.5017  0.4339
   74MOL0     C 9857   3.969   3.121   7.214  0.3207 -0.3408  0.7729
   74MOL0     O 9858   4.004   3.196   7.100  0.1502 -0.2315 -0.0286
   74MOL0     C 9859   3.909   3.301   7.056 -0.2500  0.7210  0.1518
   74MOL0     C 9860   3.886   3.345   6.925  0.8492  0.2461 -0.6565
   74MOL0     C 9861   3.816   3.459   6.886  0.8674 -0.8269 -0.1221
   74MOL0     C 9862   3.755   3.533   6.978 -0.4409  0.3583  0.3669
   74MOL0     O 9863   3.689   3.649   6.955 -0.1624 -0.3779 -0.0088
   74MOL0     C 9864   3.546   3.635   6.970  0.1660 -0.6617  0.1333
   74MOL0     C 9865   3.477   3.743   6.882  0.2500  0.4800 -0.2829
   74MOL0     C 9866   3.321   3.720   6.893  0.2378 -0.4252  0.2675
   74MOL0     C 9867   3.244   3.787   6.773 -0.4721  0.0224  0.5071
   74MOL0     C 9868   3.091   3.786   6.766 -0.2942 -0.4005 -0.5035
   74MOL0     C 9869   3.027   3.648   6.713 -0.4550 -1.3311 -0.2724
   74MOL0     C 9870   2.869   3.666   6.708 -0.5329  0.3140 -0.6297
   74MOL0     C 9871   2.802   3.531   6.679  0.2422 -0.3322 -0.1150
   74MOL0     N 9872   2.834   3.490   6.543  0.6735 -0.3995 -0.5815
   74MOL0     C 9873   2.754   3.509   6.432 -0.4835  0.0913 -0.6253
   74MOL0     C 9874   2.789   3.424   6.338 -0.2733  0.2941  0.2058
   74MOL0     C 9875   2.731   3.401   6.206  0.2761 -0.5145  0.2840
   74MOL0     C 9876   2.811   3.444   6.075 -0.0520 -0.8300 -0.1996
   74MOL0     C 9877   2.766   3.368   5.955 -0.2450  0.5737  0.7862
   74MOL0     C 9878   2.631   3.420   5.892  0.6256  0.2215 -0.5519
   74MOL0     O 9879   2.584   3.336   5.781  0.7562 -0.2885 -0.4226
   74MOL0     C 9880   2.556   3.207   5.825 -1.4241 -0.2920  0.6695
   74MOL0     C 9881   2.536   3.167   5.959 -0.3774 -0.1831  0.3863
   74MOL0     C 9882   2.511   3.030   5.995 -0.5376  0.1218  0.1176
   74MOL0     C 9883   2.512   3.010   6.144 -1.2443 -1.7016  0.4704
   74MOL0     C 9884   2.509   2.930   5.898  0.4635  0.0408  0.2687
   74MOL0     C 9885   2.498   2.777   5.924  0.8859  1.0056  0.7967
   74MOL0     O 9886   2.485   2.687   5.820 -0.7350 -0.5882  0.1758
   74MOL0     C 9887   2.449   2.555   5.839 -0.0128  0.1937 -0.7701
   74MOL0     C 9888   2.521   2.459   5.917  0.1407 -0.5570  0.0045
   74MOL0     C 9889   2.457   2.329   5.944  0.6744 -0.3711  0.4429
   74MOL0     C 9890   2.326   2.292   5.896 -1.3223 -0.2794  0.0600
   74MOL0     O 9891   2.279   2.164   5.917 -0.1492  0.1220  1.0452
   74MOL0     C 9892   2.165   2.116   5.839  0.6227 -0.4988  0.1471
   74MOL0     C 9893   2.121   1.973   5.879  0.0217  0.1595  0.2356
   74MOL0     C 9894   2.010   1.925   5.784 -0.4234 -0.0610  0.3584
   74MOL0     C 9895   2.014   1.766   5.809  0.3753  0.3690  0.7293
   74MOL0     C 9896   1.907   1.676   5.740 -0.4494 -0.4819  0.3905
   74MOL0     C 9897   1.946   1.533   5.743 -0.5215 -0.0353 -0.4394
   74MOL0     C 9898   2.034   1.501   5.623 -0.7753 -0.2000  0.5241
   74MOL0     C 9899   2.076   1.352   5.626 -0.5449  0.2461  0.7838
   74MOL0    Cl 9900   2.210   1.315   5.733 -0.2147 -0.1268  0.2237
   74MOL0     C 9901   2.270   2.391   5.819  0.5261  0.2509  0.2816
   74MOL0     C 9902   2.328   2.514   5.781  0.3785  0.4296 -0.7647
   74MOL0     O 9903   2.490   2.747   6.042  0.4787  0.7004 -1.0155
   74MOL0     C 9904   2.511   2.976   5.763  0.2829  0.0090  0.0482
   74MOL0     C 9905   2.526   3.114   5.728  0.4266  0.2172  0.5685
   74MOL0     N 9906   2.894   3.352   6.392 -0.9578 -0.3342  0.1732
   74MOL0     N 9907   2.916   3.385   6.515 -0.2925 -0.5832 -0.3155
   74MOL0     C 9908   3.775   3.493   7.113 -0.2038  1.0774  0.1577
   74MOL0     C 9909   3.856   3.392   7.152  0.6725  0.1975  0.1589
   74MOL0     C 9910   4.061   3.005   7.237 -0.7397  0.8671 -0.3897
   74MOL0     C 9911   4.013   2.879   7.274  0.8500 -0.1906 -0.4905
   74MOL0     C 9912   4.100   2.779   7.310  0.4742 -0.9520 -0.4535
   74MOL0     C 9913   4.234   2.798   7.324 -0.0577 -0.1122  0.1083
   74MOL0     O 9914   4.313   2.700   7.373  0.0963 -0.0219 -0.1561
   74MOL0     C 9915   4.405   2.741   7.482  0.1930  0.0356 -1.0306
   74MOL0     C 9916   4.404   2.616   7.584  0.1174  0.2891  0.4496
   74MOL0     C 9917   4.484   2.643   7.715 -0.1078 -0.1272 -0.8530
   74MOL0     C 9918   4.637   2.654   7.701 -1.0265  0.9479 -0.8178
   74MOL0     C 9919   4.666   2.793   7.665  0.2694  0.1192 -0.6028
   74MOL0     C 9920   4.663   2.909   7.643 -0.3554  0.7627  1.0865
   74MOL0     C 9921   4.289   2.918   7.275  0.2450  1.1215 -0.3700
   74MOL0     C 9922   4.203   3.015   7.222  0.2689  0.0753 -0.0475
   74MOL0     H 9923   3.943   3.295   6.847 -0.2801  1.2455 -2.1902
   74MOL0     H 9924   3.818   3.481   6.780  1.0362  2.3151  0.4379
   74MOL0     H 9925   3.513   3.534   6.945  0.7188 -0.0871 -3.4330
   74MOL0     H 9926   3.521   3.655   7.074  0.4207  3.6112 -0.4369
   74MOL0     H 9927   3.515   3.843   6.904 -3.0633  2.2189 -1.7751
   74MOL0     H 9928   3.491   3.725   6.776 -1.5602 -0.2913 -0.4306
   74MOL0     H 9929   3.282   3.618   6.892 -1.5275  0.2083  0.4633
   74MOL0     H 9930   3.274   3.761   6.983 -3.1737  1.8183 -2.2676
   74MOL0     H 9931   3.270   3.893   6.759 -3.4612  0.8115  0.3921
   74MOL0     H 9932   3.281   3.734   6.685  0.3605  2.3439 -0.6299
   74MOL0     H 9933   3.053   3.812   6.865 -2.7978 -2.7425 -0.7400
   74MOL0     H 9934   3.056   3.866   6.700 -0.0984  0.6992  0.6748
   74MOL0     H 9935   3.074   3.629   6.616  3.7078  0.6435  1.1014
   74MOL0     H 9936   3.064   3.559   6.766  1.0091 -1.5971 -1.6531
   74MOL0     H 9937   2.839   3.709   6.804  5.0265  3.1907  0.2543
   74MOL0     H 9938   2.848   3.745   6.635  1.5236  0.3570 -1.2303
   74MOL0     H 9939   2.695   3.540   6.703  0.3388  3.9242 -0.5437
   74MOL0     H 9940   2.833   3.457   6.753 -1.2252 -2.5546 -1.5927
   74MOL0     H 9941   2.663   3.568   6.436 -2.5620 -2.9079  0.2466
   74MOL0     H 9942   2.720   3.292   6.210  0.5056 -0.4989  2.2545
   74MOL0     H 9943   2.631   3.446   6.206  0.0143 -1.0801 -0.5557
   74MOL0     H 9944   2.918   3.434   6.093 -0.3025 -2.3029  0.6331
   74MOL0     H 9945   2.781   3.549   6.061 -2.0526 -1.1995  0.8736
   74MOL0     H 9946   2.770   3.262   5.985 -0.6322  0.6127  0.9969
   74MOL0     H 9947   2.845   3.373   5.880  0.6995 -1.5434  1.5513
   74MOL0     H 9948   2.634   3.526   5.864 -2.2083  0.5917  0.1928
   74MOL0     H 9949   2.554   3.421   5.971 -0.3097  0.3065 -1.4450
   74MOL0     H 9950   2.543   3.241   6.038 -0.3305  2.6580 -2.0798
   74MOL0     H 9951   2.521   3.102   6.202 -1.6378 -1.1882 -0.2767
   74MOL0     H 9952   2.417   2.964   6.173 -3.7287  1.9885 -1.0197
   74MOL0     H 9953   2.603   2.957   6.174 -0.7106 -0.0505  1.9782
   74MOL0     H 9954   2.615   2.481   5.967 -0.6616  0.8996  0.9259
   74MOL0     H 9955   2.501   2.251   6.005  2.2573  0.0135 -0.1582
   74MOL0     H 9956   2.069   2.167   5.855  0.2621 -0.3903 -2.0900
   74MOL0     H 9957   2.193   2.131   5.734  1.7634 -0.4539  0.4457
   74MOL0     H 9958   2.204   1.902   5.872  1.2163  1.5324 -0.2472
   74MOL0     H 9959   2.090   1.980   5.983 -0.6022  2.9000 -0.0390
   74MOL0     H 9960   2.038   1.952   5.682 -1.1040 -0.9489 -0.0764
   74MOL0     H 9961   1.915   1.968   5.818  0.2641 -0.2418  2.7217
   74MOL0     H 9962   2.111   1.733   5.770 -0.4016  0.3328 -1.3509
   74MOL0     H 9963   2.010   1.743   5.915  0.4682 -1.2646  0.4028
   74MOL0     H 9964   1.886   1.711   5.638  1.7806 -0.2232 -0.0130
   74MOL0     H 9965   1.807   1.677   5.786 -1.7196 -4.4672 -1.8105
   74MOL0     H 9966   1.978   1.495   5.840  4.1847 -2.6037 -2.6476
   74MOL0     H 9967   1.848   1.483   5.736 -0.6952  0.4172 -1.4532
   74MOL0     H 9968   2.124   1.563   5.615 -1.1234  0.4097  1.2334
   74MOL0     H 9969   1.965   1.513   5.539 -1.8097 -1.6426  1.1317
   74MOL0     H 9970   2.090   1.331   5.519  2.7419  1.5595  0.8172
   74MOL0     H 9971   2.000   1.277   5.648 -0.6079  0.6810  2.1384
   74MOL0     H 9972   2.179   2.370   5.762  1.6941 -1.6824 -0.9707
   74MOL0     H 9973   2.272   2.570   5.707 -1.4060 -0.7105 -0.3364
   74MOL0     H 9974   2.536   2.895   5.695  2.7240 -1.8086  2.8915
   74MOL0     H 9975   2.540   3.141   5.624  0.0404  1.8110  0.9005
   74MOL0     H 9976   3.738   3.559   7.191  2.3332  3.8641 -0.8526
   74MOL0     H 9977   3.880   3.360   7.253 -1.2386 -0.8159  0.3332
   74MOL0     H 9978   3.907   2.869   7.296  0.8429 -0.8806 -0.8381
   74MOL0     H 9979   4.068   2.679   7.338  1.6213 -0.2767  4.1196
   74MOL0     H 9980   4.510   2.748   7.454  2.3366 -0.9494  5.1781
   74MOL0     H 9981   4.378   2.825   7.546  5.1388 -1.6011  3.9137
   74MOL0     H 9982   4.454   2.528   7.541  1.4434  1.1172  0.2250
   74MOL0     H 9983   4.301   2.584   7.598  0.1629  0.5462  1.3884
   74MOL0     H 9984   4.460   2.558   7.780 -0.0737 -0.5186 -1.3419
   74MOL0     H 9985   4.441   2.731   7.763 -4.5850 -1.4004 -2.0728
   74MOL0     H 9986   4.674   2.581   7.629  0.2696  0.6057  0.1443
   74MOL0     H 9987   4.689   2.631   7.794  1.7448 -0.1721 -2.5252
   74MOL0     H 9988   4.651   3.013   7.622 -3.9824 -0.1893 -3.2624
   74MOL0     H 9989   4.397   2.926   7.275  0.1258  3.3492  0.0995
   74MOL0     H 9990   4.229   3.105   7.167  0.9921  0.1380  0.3906
   75MOL0     O 9991   2.080   6.051   4.443  0.0674 -0.0453  0.0294
   75MOL0     C 9992   1.957   6.032   4.466  0.4623  0.0694 -0.3653
   75MOL0     O 9993   1.851   6.087   4.398 -0.7770  0.6502  0.3774
   75MOL0     C 9994   1.871   6.178   4.293 -0.3856  1.6406  0.2116
   75MOL0     C 9995   1.974   6.266   4.262 -0.5069 -0.2772 -0.3889
   75MOL0     C 9996   1.955   6.366   4.167 -0.6840  0.2302  0.8422
   75MOL0     C 9997   1.835   6.382   4.092  0.2999 -0.1610  0.0464
   75MOL0     O 9998   1.839   6.473   3.976  1.2124 -0.1333 -0.1307
   75MOL0     C 9999   1.784   6.411   3.856 -0.3970 -0.8922  0.3845
   75MOL0     C10000   1.872   6.316   3.782 -0.0372 -0.3265  0.7619
   75MOL0     C10001   1.817   6.274   3.643 -1.2748  1.3848 -0.1022
   75MOL0     C10002   1.922   6.178   3.579  0.1196  0.2395 -1.0141
   75MOL0     C10003   1.874   6.152   3.426  0.2525  0.4565 -0.2422
   75MOL0     C10004   1.979   6.055   3.362 -0.3255 -0.1096  0.2564
   75MOL0     C10005   2.000   6.078   3.210  0.4853 -0.1989 -0.4404
   75MOL0     C10006   2.136   6.123   3.174 -1.6584  0.4054  0.5186
   75MOL0     N10007   2.172   6.258   3.212 -0.3209 -0.8480 -0.1246
   75MOL0     C10008   2.277   6.295   3.291  0.7591 -0.3743  0.8562
   75MOL0     C10009   2.294   6.429   3.273 -0.6745  0.5629 -0.0121
   75MOL0     C10010   2.396   6.487   3.353 -0.3732 -1.0171  0.6521
   75MOL0     C10011   2.359   6.515   3.493 -0.6151 -0.4093 -0.7524
   75MOL0     C10012   2.463   6.589   3.575 -0.7175  0.3219 -0.0011
   75MOL0     C10013   2.530   6.710   3.508  0.2031  0.3838 -0.6599
   75MOL0     O10014   2.429   6.802   3.465 -0.4887 -0.0409  0.0739
   75MOL0     C10015   2.472   6.910   3.393 -0.1729 -1.0856 -0.5496
   75MOL0     C10016   2.375   6.997   3.336 -1.0358  1.4189 -0.4511
   75MOL0     C10017   2.405   7.117   3.278  0.0483  0.8634 -0.2507
   75MOL0     C10018   2.280   7.195   3.225 -0.1800 -0.1016  0.0777
   75MOL0     C10019   2.532   7.162   3.291  0.5937 -0.4338  0.1659
   75MOL0     C10020   2.573   7.302   3.254 -0.5107  0.8899  0.3496
   75MOL0     O10021   2.679   7.345   3.324  0.2803  0.4389 -0.1457
   75MOL0     C10022   2.758   7.444   3.260 -0.5341  0.4051  1.2061
   75MOL0     C10023   2.774   7.444   3.116  1.1095  0.1348  0.1859
   75MOL0     C10024   2.883   7.513   3.060  0.4893  0.2113  1.1189
   75MOL0     C10025   2.959   7.596   3.138 -0.3683 -0.1572 -0.2437
   75MOL0     O10026   3.087   7.628   3.107  0.1912 -0.6972  0.2352
   75MOL0     C10027   3.108   7.761   3.036 -0.7909  0.5405  0.5902
   75MOL0     C10028   3.228   7.743   2.941  0.4109 -0.0158  0.6078
   75MOL0     C10029   3.224   7.843   2.821  0.3714 -0.2753  0.5077
   75MOL0     C10030   3.280   7.768   2.691 -0.3013 -1.1316 -0.6765
   75MOL0     C10031   3.308   7.857   2.570 -0.0887 -0.0796  0.1394
   75MOL0     C10032   3.388   7.791   2.467  0.2854  0.2847  0.1417
   75MOL0     C10033   3.395   7.879   2.342  0.1837  0.0220 -0.3343
   75MOL0     C10034   3.542   7.903   2.283 -0.3768  0.4483 -0.7778
   75MOL0    Cl10035   3.523   7.956   2.119  0.3069 -0.3246  0.0416
   75MOL0     C10036   2.940   7.596   3.283 -0.1463  0.0022 -0.3490
   75MOL0     C10037   2.835   7.525   3.338 -0.4184 -0.3297 -0.0415
   75MOL0     O10038   2.505   7.362   3.171 -0.4096 -0.2038 -0.2894
   75MOL0     C10039   2.633   7.086   3.347 -0.8903 -0.4278 -0.5767
   75MOL0     C10040   2.605   6.959   3.396 -0.1228  0.5561 -0.6321
   75MOL0     N10041   2.198   6.472   3.185  0.9146 -0.8880 -0.3447
   75MOL0     N10042   2.130   6.370   3.147  0.2757  0.2332 -0.3205
   75MOL0     C10043   1.732   6.302   4.119 -0.2345  0.8498  0.3659
   75MOL0     C10044   1.756   6.195   4.212 -0.3987 -0.5428 -0.5165
   75MOL0     C10045   1.912   5.945   4.582  0.3780  0.6483 -0.2779
   75MOL0     C10046   1.998   5.861   4.646 -0.6090 -0.3330 -0.4677
   75MOL0     C10047   1.964   5.781   4.754  0.9716 -0.7214  0.0460
   75MOL0     C10048   1.834   5.778   4.796 -0.0781  0.7586 -0.4235
   75MOL0     O10049   1.805   5.686   4.888  0.3691 -0.1474 -0.0020
   75MOL0     C10050   1.672   5.658   4.918  0.8141 -0.5864  1.1640
   75MOL0     C10051   1.676   5.539   5.020  0.0180 -0.6596 -0.6245
   75MOL0     C10052   1.531   5.483   5.038  0.0471  0.6171 -1.1170
   75MOL0     C10053   1.518   5.376   5.140  0.0735 -0.2547 -0.8889
   75MOL0     C10054   1.586   5.248   5.094  0.8165 -0.6229 -0.1961
   75MOL0     C10055   1.653   5.156   5.062 -0.6550  0.8513  0.1941
   75MOL0     C10056   1.735   5.853   4.722 -0.8135  1.0770  0.0537
   75MOL0     C10057   1.777   5.934   4.621 -0.2260 -0.4179 -0.3362
   75MOL0     H10058   2.071   6.237   4.302 -1.2261 -1.7024  0.3965
   75MOL0     H10059   2.044   6.414   4.130 -0.5849  1.0451  2.0801
   75MOL0     H10060   1.681   6.380   3.874 -0.1499 -1.1851  1.3413
   75MOL0     H10061   1.775   6.493   3.784  0.7640 -0.4573  0.7001
   75MOL0     H10062   1.963   6.367   3.747 -1.0985 -0.0883 -1.8920
   75MOL0     H10063   1.899   6.227   3.840  0.6656  1.1079  2.7391
   75MOL0     H10064   1.722   6.220   3.652 -0.6538  0.1999 -0.4653
   75MOL0     H10065   1.806   6.365   3.584 -2.5926 -0.0624 -2.2366
   75MOL0     H10066   2.020   6.224   3.570  2.2393 -3.4518  0.8655
   75MOL0     H10067   1.922   6.080   3.627 -3.3292  0.5264 -0.1635
   75MOL0     H10068   1.777   6.104   3.409  1.2393 -2.2709  1.2086
   75MOL0     H10069   1.877   6.250   3.378 -0.0573 -0.5839 -2.4673
   75MOL0     H10070   2.075   6.061   3.414 -0.4865 -1.7249  0.7918
   75MOL0     H10071   1.928   5.961   3.385 -2.0046  0.6875 -0.0194
   75MOL0     H10072   1.986   5.985   3.155 -2.8590 -1.4641  2.2289
   75MOL0     H10073   1.933   6.150   3.162 -0.2639 -0.1235  0.6860
   75MOL0     H10074   2.136   6.123   3.065 -0.4950 -1.2035  0.4930
   75MOL0     H10075   2.214   6.058   3.214  0.4609  2.1368 -0.5528
   75MOL0     H10076   2.333   6.229   3.357  3.0943  2.4198  1.8855
   75MOL0     H10077   2.491   6.433   3.345 -0.6713 -1.2664 -2.7806
   75MOL0     H10078   2.411   6.582   3.302 -0.1877 -2.3620 -1.9422
   75MOL0     H10079   2.320   6.424   3.540 -1.0383  1.0337  1.8896
   75MOL0     H10080   2.273   6.583   3.499 -1.0800 -1.1186  1.7324
   75MOL0     H10081   2.549   6.524   3.595 -0.8801  0.7706  2.4912
   75MOL0     H10082   2.423   6.613   3.674 -0.8778 -1.1694  0.3179
   75MOL0     H10083   2.587   6.672   3.423  0.4308  1.1853 -0.8743
   75MOL0     H10084   2.610   6.753   3.569  0.3098  0.7901 -1.0837
   75MOL0     H10085   2.271   6.966   3.338 -0.0794 -2.6472 -2.7216
   75MOL0     H10086   2.183   7.154   3.253  0.4740 -1.1236  0.9153
   75MOL0     H10087   2.278   7.297   3.264 -1.3932  0.6161 -1.7705
   75MOL0     H10088   2.291   7.195   3.116  1.8337  0.5470  0.2318
   75MOL0     H10089   2.710   7.394   3.043 -0.6695  2.6092 -0.0602
   75MOL0     H10090   2.907   7.508   2.954  1.3051  1.1211  1.2433
   75MOL0     H10091   3.022   7.806   2.985  0.4076  1.2931 -0.8682
   75MOL0     H10092   3.138   7.831   3.115 -1.4824 -0.3729  1.6928
   75MOL0     H10093   3.316   7.749   3.005  1.2497 -2.5202 -0.2122
   75MOL0     H10094   3.227   7.639   2.907  0.8261 -0.0092  0.5792
   75MOL0     H10095   3.290   7.929   2.841 -1.1027  1.1144 -0.3984
   75MOL0     H10096   3.128   7.894   2.809  2.6237  3.8539 -2.6508
   75MOL0     H10097   3.375   7.721   2.715  0.1416  0.1252  0.1516
   75MOL0     H10098   3.206   7.692   2.663 -3.6568  1.4253  0.4608
   75MOL0     H10099   3.365   7.945   2.600 -0.5300  0.0400  0.6410
   75MOL0     H10100   3.208   7.889   2.538 -0.6195 -1.8684 -0.1347
   75MOL0     H10101   3.480   7.751   2.512 -1.8009 -1.0303  3.5997
   75MOL0     H10102   3.337   7.703   2.428  0.2278  1.5259 -2.8931
   75MOL0     H10103   3.353   7.975   2.373 -1.2592 -0.7385  0.1296
   75MOL0     H10104   3.335   7.841   2.259  1.7901 -0.1620 -1.4585
   75MOL0     H10105   3.609   7.816   2.288 -1.1655 -0.2337 -1.7069
   75MOL0     H10106   3.579   7.980   2.352  0.0932 -1.3865  1.1410
   75MOL0     H10107   2.995   7.656   3.355 -2.6746  0.4116  1.3435
   75MOL0     H10108   2.821   7.542   3.444 -1.8069  0.8710 -0.3717
   75MOL0     H10109   2.739   7.107   3.353 -1.3390  2.9465 -2.2569
   75MOL0     H10110   2.681   6.903   3.450 -3.4462 -3.4390  0.4286
   75MOL0     H10111   1.644   6.292   4.057  1.7016 -2.6016 -2.2208
   75MOL0     H10112   1.677   6.136   4.257  0.9425 -2.9310 -1.1454
   75MOL0     H10113   2.100   5.865   4.611 -0.4374  2.0989  0.0936
   75MOL0     H10114   2.040   5.713   4.793 -1.3939 -4.3846 -1.1580
   75MOL0     H10115   1.619   5.749   4.950 -0.0451 -1.3561  2.0291
   75MOL0     H10116   1.602   5.632   4.838  0.0257  2.7091  0.6377
   75MOL0     H10117   1.725   5.565   5.115 -2.3053  1.2354  0.1637
   75MOL0     H10118   1.739   5.463   4.974  1.9483 -0.6999  1.8521
   75MOL0     H10119   1.482   5.445   4.948 -3.4537 -1.6245  1.4464
   75MOL0     H10120   1.476   5.564   5.085  1.3929  0.1715  1.3924
   75MOL0     H10121   1.411   5.368   5.156 -0.3348  1.4889 -2.4189
   75MOL0     H10122   1.571   5.411   5.230  1.5489  1.7428 -2.4359
   75MOL0     H10123   1.726   5.085   5.029  0.3445  1.2270  1.4875
   75MOL0     H10124   1.628   5.839   4.736 -0.7525 -0.6591 -0.8613
   75MOL0     H10125   1.699   5.990   4.572 -0.9233  0.6343  1.8280
   76MOL0     O10126   6.861   8.306   0.309  0.7257 -0.3698 -0.7969
   76MOL0     C10127   6.793   8.259   0.218 -0.1541  0.3594 -0.9296
   76MOL0     O10128   6.657   8.300   0.187 -0.1630 -0.2321  0.0387
   76MOL0     C10129   6.596   8.378   0.274  0.2072 -1.0123 -0.5907
   76MOL0     C10130   6.621   8.519   0.276  0.5786  0.8995 -0.8315
   76MOL0     C10131   6.557   8.599   0.370  0.8214 -0.5439 -0.3272
   76MOL0     C10132   6.496   8.546   0.483  0.1252  0.0343  0.5404
   76MOL0     O10133   6.458   8.643   0.574 -0.2149 -0.5852 -0.0755
   76MOL0     C10134   6.387   8.583   0.691 -0.8978  0.1943 -0.2346
   76MOL0     C10135   6.366   8.688   0.794 -0.7973 -0.8479 -0.2402
   76MOL0     C10136   6.354   8.636   0.934 -0.9901 -0.0397 -0.8726
   76MOL0     C10137   6.378   8.729   1.052  1.1127  0.1472  0.0411
   76MOL0     C10138   6.312   8.677   1.183 -2.0728 -0.8771 -0.1360
   76MOL0     C10139   6.402   8.712   1.304 -0.0600 -0.7678  0.2750
   76MOL0     C10140   6.329   8.676   1.431 -0.0975 -0.0489  0.3044
   76MOL0     C10141   6.323   8.531   1.473 -0.0578 -0.0895  0.1943
   76MOL0     N10142   6.461   8.472   1.488  0.7463  0.3785  0.7386
   76MOL0     C10143   6.542   8.467   1.598  0.3668 -0.9465 -0.1787
   76MOL0     C10144   6.646   8.382   1.573 -0.0329 -0.9290 -1.0358
   76MOL0     C10145   6.758   8.344   1.665 -0.9672  0.3777 -0.5469
   76MOL0     C10146   6.724   8.247   1.771  0.2425  0.3326 -0.5995
   76MOL0     C10147   6.840   8.206   1.867 -0.1416 -0.2120 -0.4128
   76MOL0     C10148   6.780   8.109   1.978 -0.5804  0.4257 -0.1110
   76MOL0     O10149   6.843   8.156   2.099 -0.6507 -0.9140  0.2684
   76MOL0     C10150   6.800   8.123   2.222  0.5951 -0.8020 -0.2081
   76MOL0     C10151   6.706   8.028   2.249  0.1726  0.4266 -0.5720
   76MOL0     C10152   6.684   7.976   2.385 -0.4533 -0.3710 -0.3397
   76MOL0     C10153   6.591   7.858   2.402  0.6714 -0.3964 -0.7893
   76MOL0     C10154   6.738   8.047   2.491  0.2405  0.2262 -0.1365
   76MOL0     C10155   6.744   7.998   2.622 -0.1488  0.1646 -0.5015
   76MOL0     O10156   6.629   8.010   2.688  0.2562 -0.5707  0.5220
   76MOL0     C10157   6.637   7.976   2.820 -0.2077 -0.4529 -0.1606
   76MOL0     C10158   6.716   8.042   2.922 -1.1908  0.8004 -0.1789
   76MOL0     C10159   6.708   8.011   3.059 -0.7015 -0.8209 -0.8826
   76MOL0     C10160   6.632   7.907   3.108 -0.0233  0.3394  0.2528
   76MOL0     O10161   6.620   7.858   3.233 -0.7016 -0.1412  0.0311
   76MOL0     C10162   6.716   7.899   3.333  0.1350 -0.3789  0.1957
   76MOL0     C10163   6.846   7.817   3.366 -0.6939 -0.8086  0.3369
   76MOL0     C10164   6.812   7.675   3.407 -0.4248  0.1218 -0.5169
   76MOL0     C10165   6.726   7.657   3.536 -1.3915  0.0373  0.4241
   76MOL0     C10166   6.748   7.516   3.598 -0.3780 -1.0736  0.4918
   76MOL0     C10167   6.695   7.411   3.493 -0.0929 -1.0175  0.4588
   76MOL0     C10168   6.741   7.268   3.528  0.8269  0.6033  0.2113
   76MOL0     C10169   6.642   7.203   3.634  0.0369  0.5217  0.3726
   76MOL0    Cl10170   6.500   7.122   3.560  0.2567  0.5571  0.4595
   76MOL0     C10171   6.543   7.842   3.013 -0.2797  0.7678  0.1262
   76MOL0     C10172   6.545   7.878   2.874 -0.3314  0.8717  0.5799
   76MOL0     O10173   6.851   7.956   2.672 -0.1736  0.1503 -0.3598
   76MOL0     C10174   6.818   8.154   2.469  1.0714 -0.1351 -0.5303
   76MOL0     C10175   6.853   8.189   2.338  0.0698 -1.0055  0.1969
   76MOL0     N10176   6.627   8.342   1.448 -1.0340 -0.4940  0.6184
   76MOL0     N10177   6.520   8.389   1.392 -0.1207 -0.4510 -0.3307
   76MOL0     C10178   6.479   8.409   0.494  0.0881 -0.8727 -0.5326
   76MOL0     C10179   6.526   8.325   0.389  0.2395 -0.3188  0.4599
   76MOL0     C10180   6.864   8.167   0.115  0.2418 -0.0969 -0.4653
   76MOL0     C10181   7.005   8.151   0.109  0.0284  0.0592 -0.3164
   76MOL0     C10182   7.065   8.080   0.009 -0.5678  1.5174  0.1971
   76MOL0     C10183   6.989   8.022  -0.092  0.1626  0.1793  0.3240
   76MOL0     O10184   7.045   7.958  -0.196 -0.1640 -0.5975 -0.9932
   76MOL0     C10185   7.007   8.011  -0.326 -0.1246  0.6930  0.9321
   76MOL0     C10186   7.078   7.951  -0.450  0.8606  0.2913  0.1333
   76MOL0     C10187   7.022   7.812  -0.468  0.0693  0.3068  0.5329
   76MOL0     C10188   7.076   7.718  -0.592  0.1089  0.1499 -0.8781
   76MOL0     C10189   7.121   7.800  -0.698 -1.1152  0.0368 -1.1161
   76MOL0     C10190   7.143   7.862  -0.797 -0.7569 -0.1642 -0.0827
   76MOL0     C10191   6.851   8.026  -0.079 -1.0203  0.2099 -0.1494
   76MOL0     C10192   6.785   8.096   0.024  0.3529  0.6153  0.8551
   76MOL0     H10193   6.689   8.553   0.199  1.2746  1.0122 -0.1821
   76MOL0     H10194   6.564   8.707   0.370 -0.3010 -0.4446  1.0100
   76MOL0     H10195   6.288   8.545   0.663 -0.6689  1.2291 -2.6289
   76MOL0     H10196   6.452   8.512   0.744  0.5817 -0.3158 -2.5700
   76MOL0     H10197   6.449   8.756   0.778 -1.2675 -0.9093 -3.4832
   76MOL0     H10198   6.276   8.750   0.781 -0.9501 -0.0613  3.3158
   76MOL0     H10199   6.251   8.601   0.948 -1.3860  2.0182  2.7251
   76MOL0     H10200   6.411   8.543   0.949  1.5517  1.3758 -1.1855
   76MOL0     H10201   6.484   8.756   1.059  0.9415  0.4508  2.0599
   76MOL0     H10202   6.324   8.823   1.035  1.8823  0.4616 -0.7626
   76MOL0     H10203   6.208   8.711   1.184 -0.1872  6.7824  0.5576
   76MOL0     H10204   6.323   8.568   1.183  0.0785 -0.7128  0.3356
   76MOL0     H10205   6.490   8.647   1.306 -1.6572 -3.1480 -1.5108
   76MOL0     H10206   6.420   8.820   1.302 -1.3403 -0.5459 -1.1479
   76MOL0     H10207   6.381   8.721   1.516 -0.7938 -1.0461  1.3000
   76MOL0     H10208   6.229   8.718   1.422 -0.0873 -0.1416 -0.2542
   76MOL0     H10209   6.265   8.478   1.397  0.1316  1.1534 -0.8445
   76MOL0     H10210   6.280   8.524   1.573  1.0160  1.8860  0.8519
   76MOL0     H10211   6.515   8.516   1.692  2.2448  0.5067 -0.3492
   76MOL0     H10212   6.832   8.297   1.600  1.5826  2.3593  0.7499
   76MOL0     H10213   6.813   8.430   1.703  2.1728 -1.8263  0.2943
   76MOL0     H10214   6.684   8.153   1.733  1.7115 -0.5779  0.0263
   76MOL0     H10215   6.644   8.292   1.833  0.1998 -2.5023  1.5961
   76MOL0     H10216   6.893   8.287   1.917 -0.5402 -0.5151  0.5252
   76MOL0     H10217   6.908   8.158   1.797 -2.2318 -2.6671 -0.9075
   76MOL0     H10218   6.797   8.002   1.961 -2.7568 -0.1816  1.0309
   76MOL0     H10219   6.673   8.121   1.997 -0.8336 -0.9561 -0.5548
   76MOL0     H10220   6.659   7.975   2.167 -0.5337  0.9133 -0.4996
   76MOL0     H10221   6.490   7.896   2.382 -0.1755 -2.5485 -0.8942
   76MOL0     H10222   6.625   7.779   2.334  1.5835 -0.7002  0.0112
   76MOL0     H10223   6.583   7.816   2.502 -0.5474  1.4142 -0.0767
   76MOL0     H10224   6.790   8.114   2.887  0.3438 -0.9741 -0.7701
   76MOL0     H10225   6.778   8.073   3.114 -0.3210 -0.7199 -1.4684
   76MOL0     H10226   6.746   8.004   3.319 -0.2468 -0.0794  1.4860
   76MOL0     H10227   6.664   7.897   3.429  0.8926 -0.5790  0.6147
   76MOL0     H10228   6.923   7.825   3.289  1.8673  0.9537  2.8378
   76MOL0     H10229   6.910   7.869   3.439 -0.4229  1.6627 -1.5152
   76MOL0     H10230   6.899   7.610   3.418 -2.0748 -2.2626 -0.6392
   76MOL0     H10231   6.755   7.624   3.328 -1.4761 -0.7599  0.7710
   76MOL0     H10232   6.767   7.735   3.601  0.2444  1.6370 -2.3608
   76MOL0     H10233   6.619   7.673   3.520 -1.4464 -0.5357  0.1678
   76MOL0     H10234   6.689   7.519   3.691 -2.0015 -0.8459 -0.5120
   76MOL0     H10235   6.855   7.496   3.608 -0.0273  1.2098  2.0933
   76MOL0     H10236   6.588   7.432   3.481 -0.0786 -0.1170  1.6596
   76MOL0     H10237   6.743   7.437   3.398  1.2907  0.3493  1.4893
   76MOL0     H10238   6.838   7.257   3.578  0.8749 -0.1345 -0.0365
   76MOL0     H10239   6.750   7.203   3.440  2.1512  0.3555  0.5150
   76MOL0     H10240   6.605   7.269   3.713 -3.4217  0.0802 -0.7284
   76MOL0     H10241   6.700   7.122   3.680 -0.5938  0.0969  0.4351
   76MOL0     H10242   6.473   7.766   3.047 -2.3195  0.4304 -4.2299
   76MOL0     H10243   6.472   7.833   2.807  1.6430 -0.9449 -0.4693
   76MOL0     H10244   6.864   8.205   2.552  0.4058  2.1986 -1.5257
   76MOL0     H10245   6.926   8.267   2.317 -0.6641 -0.8240 -1.8632
   76MOL0     H10246   6.427   8.367   0.579 -1.1342  2.7375  0.6857
   76MOL0     H10247   6.510   8.218   0.386  1.5581 -0.5305  0.4337
   76MOL0     H10248   7.063   8.213   0.176  0.5387  2.1102 -2.5340
   76MOL0     H10249   7.173   8.079   0.017 -0.4017  1.5361 -1.5134
   76MOL0     H10250   6.897   8.018  -0.324 -0.4642 -2.7467  2.5221
   76MOL0     H10251   7.037   8.116  -0.335 -3.4895  1.8427  1.3867
   76MOL0     H10252   7.186   7.941  -0.438  0.7305  0.4809  1.6346
   76MOL0     H10253   7.048   8.027  -0.524 -0.4629  2.0952  2.3812
   76MOL0     H10254   6.916   7.838  -0.475 -0.0487 -0.3789 -0.6777
   76MOL0     H10255   7.050   7.747  -0.385 -2.7295 -2.0913 -0.2095
   76MOL0     H10256   6.989   7.660  -0.624  2.1289 -2.7644 -1.4643
   76MOL0     H10257   7.150   7.647  -0.554 -0.1676 -1.5550 -3.2512
   76MOL0     H10258   7.180   7.900  -0.890  0.8225 -0.0431  0.5530
   76MOL0     H10259   6.793   7.961  -0.144 -1.4214  0.4988 -0.0812
   76MOL0     H10260   6.678   8.101   0.040 -0.1416  0.5474 -2.0255
   77MOL0     O10261   8.764   7.473   4.632 -0.1643 -0.0547 -0.5659
   77MOL0     C10262   8.715   7.528   4.730  0.4404  0.4291  0.0411
   77MOL0     O10263   8.743   7.500   4.858 -0.8389 -0.1243  0.0913
   77MOL0     C10264   8.737   7.365   4.907  0.7510 -0.6837  0.2104
   77MOL0     C10265   8.767   7.352   5.035  0.4912 -0.4691 -0.1892
   77MOL0     C10266   8.748   7.230   5.106 -0.2052  0.7138  0.5334
   77MOL0     C10267   8.703   7.118   5.027 -0.1845  0.2358  0.2958
   77MOL0     O10268   8.689   6.987   5.080 -0.4534 -1.3049 -0.4772
   77MOL0     C10269   8.653   6.978   5.213  0.1699  0.1094  0.0122
   77MOL0     C10270   8.621   6.827   5.227 -0.3984 -0.3386 -0.1562
   77MOL0     C10271   8.498   6.773   5.141  0.6740 -0.2525 -0.8115
   77MOL0     C10272   8.371   6.846   5.169  0.1043 -0.2928 -0.1872
   77MOL0     C10273   8.264   6.799   5.077 -0.0183  1.2601 -0.2452
   77MOL0     C10274   8.123   6.842   5.122  0.1567 -0.2684 -0.1019
   77MOL0     C10275   8.121   6.988   5.185  0.0735  1.2256  0.1792
   77MOL0     C10276   7.976   7.040   5.204 -0.1815 -0.2738 -0.1810
   77MOL0     N10277   7.915   7.068   5.075 -0.1337  0.7185 -0.8324
   77MOL0     C10278   7.961   7.153   4.974 -1.0129 -0.4353  0.7647
   77MOL0     C10279   7.882   7.138   4.864  1.0776 -0.2845  0.4954
   77MOL0     C10280   7.920   7.206   4.730  0.8594  0.3029  0.0132
   77MOL0     C10281   7.977   7.093   4.648  0.0868  0.4119  0.6986
   77MOL0     C10282   8.095   7.021   4.707  0.1854 -0.7224 -0.2447
   77MOL0     C10283   8.173   6.934   4.612  0.1258  0.3704 -0.1624
   77MOL0     O10284   8.306   6.915   4.659  0.0748  1.0277 -0.0556
   77MOL0     C10285   8.411   6.872   4.577 -0.1732 -0.0040  0.3215
   77MOL0     C10286   8.539   6.862   4.624  0.6686 -0.5728 -0.0486
   77MOL0     C10287   8.637   6.800   4.557 -0.4302  0.0144  0.2796
   77MOL0     C10288   8.756   6.770   4.637 -0.1147 -0.0439  0.2912
   77MOL0     C10289   8.615   6.770   4.422 -0.6054 -0.5057  1.1054
   77MOL0     C10290   8.721   6.709   4.329 -0.5722 -0.1236 -0.2531
   77MOL0     O10291   8.841   6.695   4.383  0.8467  0.6339  0.0649
   77MOL0     C10292   8.937   6.621   4.318  0.1646 -0.2562 -0.8492
   77MOL0     C10293   8.958   6.489   4.363  0.1836 -0.0696 -0.3378
   77MOL0     C10294   9.064   6.416   4.309 -0.1782 -0.1840 -0.1753
   77MOL0     C10295   9.149   6.469   4.220 -0.4252  0.0584  0.0776
   77MOL0     O10296   9.258   6.394   4.178 -0.2787  0.0194 -0.6855
   77MOL0     C10297   9.361   6.354   4.274 -0.6857  0.3356  0.4421
   77MOL0     C10298   9.443   6.479   4.316  0.3333 -0.3096  0.1296
   77MOL0     C10299   9.576   6.445   4.377  0.1774 -0.0240  0.3308
   77MOL0     C10300   9.553   6.413   4.529  0.7734  0.1164 -0.1828
   77MOL0     C10301   9.669   6.425   4.625 -0.6810 -0.4203  1.1726
   77MOL0     C10302   9.639   6.441   4.769  0.6811 -0.0807 -0.4749
   77MOL0     C10303   9.736   6.352   4.853  0.0738  0.9342  0.0215
   77MOL0     C10304   9.704   6.343   5.006  0.4022  0.1211 -0.4222
   77MOL0    Cl10305   9.830   6.249   5.092  0.2450  0.6052  0.5009
   77MOL0     C10306   9.141   6.604   4.175 -0.0959 -0.0635  0.2255
   77MOL0     C10307   9.024   6.671   4.216  0.6626  1.3075 -0.9932
   77MOL0     O10308   8.702   6.699   4.207  0.4512  0.6234  0.6978
   77MOL0     C10309   8.489   6.788   4.365 -1.0095  0.1929  0.4315
   77MOL0     C10310   8.389   6.836   4.445  0.6933  0.3740  0.4717
   77MOL0     N10311   7.774   7.052   4.897  0.4023 -0.2086  0.9276
   77MOL0     N10312   7.809   7.008   5.018  0.9847 -0.5736  0.0603
   77MOL0     C10313   8.688   7.137   4.891  0.7692  0.2307 -0.4672
   77MOL0     C10314   8.719   7.251   4.823  0.7991 -0.0799 -0.3242
   77MOL0     C10315   8.601   7.633   4.711 -0.5495  0.4128 -0.4050
   77MOL0     C10316   8.560   7.720   4.807 -0.2949  0.2215 -0.2120
   77MOL0     C10317   8.450   7.811   4.786 -0.0964  0.2403 -0.6418
   77MOL0     C10318   8.381   7.806   4.663 -0.0688  0.2406 -1.2551
   77MOL0     O10319   8.284   7.898   4.639 -0.0481 -0.0768 -0.5514
   77MOL0     C10320   8.144   7.857   4.645  0.5158 -0.5115  0.5049
   77MOL0     C10321   8.037   7.979   4.679 -0.5003  0.0065 -0.5348
   77MOL0     C10322   8.022   7.999   4.832 -0.9448  0.6526 -0.0069
   77MOL0     C10323   7.916   8.101   4.872 -0.4263  0.0910  0.3748
   77MOL0     C10324   7.781   8.034   4.865 -0.7655  0.2645  0.2250
   77MOL0     C10325   7.674   7.980   4.873  0.0121  0.4517  0.5387
   77MOL0     C10326   8.421   7.719   4.561  0.4391  0.7828 -0.1087
   77MOL0     C10327   8.525   7.630   4.587 -0.3061  0.2353 -0.1080
   77MOL0     H10328   8.768   7.447   5.088  5.7811 -0.2176 -0.1859
   77MOL0     H10329   8.745   7.225   5.214 -2.5044 -0.6935  0.4624
   77MOL0     H10330   8.743   7.001   5.269  1.7258  0.9689 -2.6690
   77MOL0     H10331   8.581   7.054   5.244  2.9153  2.6800  0.4444
   77MOL0     H10332   8.711   6.769   5.204  0.4177  1.2302 -1.0291
   77MOL0     H10333   8.595   6.806   5.332  3.4190 -2.3215  0.5720
   77MOL0     H10334   8.521   6.797   5.037 -0.1726  3.4722 -0.2898
   77MOL0     H10335   8.481   6.666   5.154  0.3729  0.0337  1.8579
   77MOL0     H10336   8.341   6.810   5.268 -2.0206 -0.6821 -0.9084
   77MOL0     H10337   8.388   6.952   5.151 -1.6113 -0.0398 -0.4991
   77MOL0     H10338   8.286   6.832   4.976  1.4935  0.6569 -0.1525
   77MOL0     H10339   8.277   6.693   5.052  2.1092  2.1935 -3.7620
   77MOL0     H10340   8.057   6.843   5.035  2.0182  2.1594 -1.6179
   77MOL0     H10341   8.082   6.770   5.193  1.0468 -0.0171  0.6841
   77MOL0     H10342   8.169   6.993   5.283 -0.6710  1.6705  0.5364
   77MOL0     H10343   8.173   7.057   5.118 -0.7289  1.2129 -0.4700
   77MOL0     H10344   7.974   7.124   5.274  1.0869 -3.3845  4.0223
   77MOL0     H10345   7.915   6.969   5.261  1.2503 -0.9521  0.5935
   77MOL0     H10346   8.043   7.224   4.962 -1.1473  0.0313  2.3390
   77MOL0     H10347   7.843   7.268   4.683  0.7435 -0.3314 -0.6511
   77MOL0     H10348   8.001   7.276   4.751 -0.6366  2.5914 -1.3691
   77MOL0     H10349   8.010   7.125   4.549  2.7338 -1.7748  0.7536
   77MOL0     H10350   7.901   7.016   4.634 -0.9225  1.3930  0.6340
   77MOL0     H10351   8.070   6.959   4.794 -1.2022 -1.0282 -0.8356
   77MOL0     H10352   8.156   7.102   4.749 -3.7082  2.0391  0.6106
   77MOL0     H10353   8.175   6.992   4.520  1.0999 -0.1063 -0.4505
   77MOL0     H10354   8.125   6.836   4.602  1.0139  0.0168 -1.1849
   77MOL0     H10355   8.540   6.898   4.726 -1.8428 -2.0876  0.5955
   77MOL0     H10356   8.771   6.665   4.663  1.8210  0.1212 -0.0042
   77MOL0     H10357   8.851   6.814   4.605  0.2659  0.5879  2.1588
   77MOL0     H10358   8.750   6.825   4.731  0.6227  0.7296 -0.0932
   77MOL0     H10359   8.907   6.428   4.438  1.7269 -1.5574 -0.4330
   77MOL0     H10360   9.072   6.317   4.353 -1.1696  0.6658  2.0775
   77MOL0     H10361   9.320   6.295   4.357  3.0461 -3.0927  0.1604
   77MOL0     H10362   9.437   6.296   4.220 -0.1058 -0.2997  1.8665
   77MOL0     H10363   9.464   6.539   4.227 -1.2939  0.3635  0.1757
   77MOL0     H10364   9.375   6.537   4.378 -1.0825 -0.4655 -1.2317
   77MOL0     H10365   9.626   6.541   4.365 -0.9503  0.6799  1.0975
   77MOL0     H10366   9.636   6.362   4.339  2.7508  2.3810 -1.2039
   77MOL0     H10367   9.475   6.476   4.573  1.9279  1.1879  0.4027
   77MOL0     H10368   9.509   6.313   4.534  1.3683 -0.5796 -4.8815
   77MOL0     H10369   9.731   6.512   4.602 -0.7462  0.0664  2.7396
   77MOL0     H10370   9.734   6.337   4.620  0.9871  0.7391  1.7318
   77MOL0     H10371   9.660   6.543   4.801  3.2443  0.1091 -2.3751
   77MOL0     H10372   9.540   6.412   4.804  0.6027  0.3134 -0.3675
   77MOL0     H10373   9.840   6.384   4.839 -0.1239  1.4113 -0.3653
   77MOL0     H10374   9.726   6.247   4.826 -2.4631  1.4391 -1.2758
   77MOL0     H10375   9.598   6.321   5.019 -1.1207  5.3001 -1.9026
   77MOL0     H10376   9.695   6.446   5.041  0.4527  0.3496 -1.0684
   77MOL0     H10377   9.216   6.650   4.112 -0.2155  0.4724  0.4678
   77MOL0     H10378   9.002   6.772   4.182 -0.0483  0.4420 -3.2374
   77MOL0     H10379   8.461   6.758   4.265  1.6412 -0.6868 -0.1392
   77MOL0     H10380   8.296   6.859   4.393 -0.5897 -5.1664 -0.3203
   77MOL0     H10381   8.653   7.055   4.829 -1.9733  0.6465  0.3628
   77MOL0     H10382   8.720   7.262   4.715  2.3195  0.9576 -0.2450
   77MOL0     H10383   8.618   7.728   4.898 -0.4060  0.6298 -0.1727
   77MOL0     H10384   8.423   7.892   4.853 -0.6219  0.4886 -1.1450
   77MOL0     H10385   8.120   7.811   4.549  2.8233 -0.9215  0.0639
   77MOL0     H10386   8.124   7.787   4.727 -2.1570  0.8259  1.1103
   77MOL0     H10387   7.938   7.958   4.636 -1.5717 -2.9044  2.8566
   77MOL0     H10388   8.089   8.064   4.636 -0.5978  0.4409  0.1950
   77MOL0     H10389   8.115   8.037   4.875 -1.6268  1.8399  0.4928
   77MOL0     H10390   8.000   7.906   4.886  1.5336  0.7870  1.3851
   77MOL0     H10391   7.918   8.188   4.807 -0.7196  0.4913  0.8889
   77MOL0     H10392   7.963   8.123   4.969  0.8654 -2.1945  0.3428
   77MOL0     H10393   7.576   7.936   4.871 -0.1731  0.2514 -5.5264
   77MOL0     H10394   8.387   7.720   4.458  1.6805  0.5048 -0.5400
   77MOL0     H10395   8.567   7.572   4.506  1.1987  1.1130  0.0209
   78MOL0     O10396   4.718  10.241  11.156 -0.1420 -0.4921  0.1957
   78MOL0     C10397   4.600  10.246  11.187 -0.6939 -0.1557 -1.4282
   78MOL0     O10398   4.535  10.145  11.259  0.3395  0.2552  0.1787
   78MOL0     C10399   4.576  10.013  11.264 -0.0606  0.2652 -0.3255
   78MOL0     C10400   4.658   9.954  11.169 -1.2729 -0.2109 -0.1392
   78MOL0     C10401   4.675   9.810  11.170 -0.2974 -0.9564  0.0058
   78MOL0     C10402   4.617   9.738  11.272  0.5261 -0.6002  1.1750
   78MOL0     O10403   4.619   9.603  11.288 -0.6528  0.9253  0.7716
   78MOL0     C10404   4.591   9.524  11.169 -0.2127  0.1909 -0.0139
   78MOL0     C10405   4.653   9.378  11.193  0.2039  0.4264  0.6257
   78MOL0     C10406   4.806   9.368  11.190  0.8160  0.0922 -0.6242
   78MOL0     C10407   4.884   9.450  11.099  0.0738  0.1164  0.3307
   78MOL0     C10408   5.037   9.447  11.120 -0.8637  0.7237 -0.2618
   78MOL0     C10409   5.135   9.533  11.022  0.4884 -0.6271 -0.4188
   78MOL0     C10410   5.110   9.678  11.038 -0.0692  0.6977 -1.2429
   78MOL0     C10411   5.213   9.767  10.963  0.1725  0.1842 -0.4021
   78MOL0     N10412   5.289   9.709  10.852 -0.8648 -0.0077  0.2322
   78MOL0     C10413   5.398   9.623  10.865 -0.3725 -0.1281 -0.4138
   78MOL0     C10414   5.434   9.586  10.747  0.4539 -0.2256  0.6297
   78MOL0     C10415   5.552   9.497  10.705  0.5449 -1.0920  0.3921
   78MOL0     C10416   5.596   9.523  10.556 -0.3995 -0.3664 -0.4574
   78MOL0     C10417   5.642   9.666  10.548 -1.1287  0.4281 -0.2568
   78MOL0     C10418   5.640   9.714  10.405  0.6345 -0.5302 -0.3040
   78MOL0     O10419   5.752   9.654  10.350  0.2324 -0.2662  0.5256
   78MOL0     C10420   5.869   9.715  10.317  0.0253  0.0844  0.3073
   78MOL0     C10421   5.915   9.815  10.398  0.4925 -0.5732  0.9613
   78MOL0     C10422   6.036   9.866  10.387  0.7410  0.1811 -0.5957
   78MOL0     C10423   6.064   9.980  10.485  0.4851  0.3711 -0.3461
   78MOL0     C10424   6.121   9.825  10.287 -0.2118 -0.2595 -0.2665
   78MOL0     C10425   6.265   9.877  10.256  0.5606  0.5989  0.1942
   78MOL0     O10426   6.312   9.867  10.129 -0.2466  0.4945 -0.0669
   78MOL0     C10427   6.430   9.918  10.091 -0.6265 -0.0091  0.2058
   78MOL0     C10428   6.505  10.016  10.165 -0.7105 -0.6553  0.1291
   78MOL0     C10429   6.620  10.069  10.103 -0.3643 -0.2803 -0.3027
   78MOL0     C10430   6.667  10.028   9.972 -0.2451 -0.6665 -1.0397
   78MOL0     O10431   6.780  10.080   9.925 -0.3714 -0.6829 -0.0035
   78MOL0     C10432   6.805  10.089   9.778 -0.0048 -0.1201  0.0014
   78MOL0     C10433   6.920  10.186   9.779  0.4839 -0.2375 -0.0845
   78MOL0     C10434   6.958  10.234   9.637  0.4206  0.0335  0.2428
   78MOL0     C10435   7.062  10.340   9.636 -0.1613  0.0750  0.8364
   78MOL0     C10436   7.032  10.432   9.513 -1.5251  1.3613  0.6676
   78MOL0     C10437   7.141  10.533   9.519  0.0195 -0.9095 -0.5567
   78MOL0     C10438   7.119  10.640   9.412  0.1943  0.1059 -0.7606
   78MOL0     C10439   7.205  10.762   9.439  0.5950  0.1432 -0.2930
   78MOL0    Cl10440   7.383  10.733   9.487 -0.3726  0.6838 -0.3485
   78MOL0     C10441   6.603   9.933   9.908  0.7035  0.4478  0.4500
   78MOL0     C10442   6.479   9.886   9.965 -0.1623  0.1194  0.0766
   78MOL0     O10443   6.321   9.928  10.352  0.4955 -0.4914  0.1083
   78MOL0     C10444   6.075   9.725  10.196  0.2059  0.1667 -0.6410
   78MOL0     C10445   5.947   9.662  10.216 -0.2652  0.6054 -0.6855
   78MOL0     N10446   5.339   9.639  10.654 -0.6698  0.5779  0.5349
   78MOL0     N10447   5.250   9.702  10.722  0.0885 -0.2736  0.1632
   78MOL0     C10448   4.538   9.795  11.368  0.1058  0.5812  0.2544
   78MOL0     C10449   4.513   9.926  11.363 -0.4739 -0.3406 -0.5991
   78MOL0     C10450   4.515  10.366  11.170 -0.2962 -0.2783  0.0633
   78MOL0     C10451   4.541  10.445  11.055 -0.6451  0.5515  0.5271
   78MOL0     C10452   4.490  10.582  11.050 -0.1171 -0.9623 -0.0982
   78MOL0     C10453   4.387  10.626  11.140  0.3467 -0.3952  0.2648
   78MOL0     O10454   4.314  10.745  11.147 -0.1301 -0.0847 -0.0565
   78MOL0     C10455   4.293  10.809  11.018 -0.0367 -0.3901 -0.8928
   78MOL0     C10456   4.160  10.888  11.009 -0.1731 -0.3558  0.3188
   78MOL0     C10457   4.136  11.002  11.106 -0.1519 -0.9008  0.4137
   78MOL0     C10458   4.172  11.141  11.048  0.1198 -0.2211  0.1771
   78MOL0     C10459   4.104  11.242  11.117 -0.7488 -0.1862 -1.3484
   78MOL0     C10460   4.076  11.347  11.179  0.4952  0.2372  0.0086
   78MOL0     C10461   4.355  10.542  11.245  0.6994  0.8531 -0.6620
   78MOL0     C10462   4.418  10.415  11.260 -0.1007 -0.5430 -0.2341
   78MOL0     H10463   4.696  10.004  11.080 -2.3965 -0.1561 -0.6090
   78MOL0     H10464   4.734   9.757  11.095 -1.1052 -3.3828  1.0043
   78MOL0     H10465   4.483   9.519  11.151  0.1960  0.8840 -3.2832
   78MOL0     H10466   4.632   9.557  11.073  0.3245  1.2151  0.5384
   78MOL0     H10467   4.620   9.342  11.291 -0.0121  1.8247  1.0848
   78MOL0     H10468   4.601   9.314  11.122 -1.5636  1.7133  0.6999
   78MOL0     H10469   4.834   9.407  11.289  3.4797  1.0730 -1.6728
   78MOL0     H10470   4.838   9.263  11.189  0.4523 -0.0833  1.2768
   78MOL0     H10471   4.858   9.430  10.995  1.2125  0.8169 -0.1158
   78MOL0     H10472   4.864   9.556  11.117  3.1583  0.7370  0.6757
   78MOL0     H10473   5.058   9.490  11.219  1.5476  1.3853 -0.9794
   78MOL0     H10474   5.058   9.340  11.126 -2.8687 -0.0028 -3.5371
   78MOL0     H10475   5.236   9.506  11.055  0.0441 -2.1069 -0.1991
   78MOL0     H10476   5.118   9.500  10.919 -0.3289  1.2334 -0.9288
   78MOL0     H10477   5.010   9.691  10.995 -1.4108 -2.9900  0.3736
   78MOL0     H10478   5.113   9.714  11.141 -0.6980  0.3940 -1.1154
   78MOL0     H10479   5.276   9.813  11.040 -2.5565  0.3951  1.8617
   78MOL0     H10480   5.153   9.849  10.922  0.0373 -0.3445 -1.2893
   78MOL0     H10481   5.453   9.598  10.956  0.0481  2.1092  0.0188
   78MOL0     H10482   5.635   9.514  10.774  0.2905  0.2888  0.3916
   78MOL0     H10483   5.515   9.397  10.728 -2.0289  0.3949  3.4496
   78MOL0     H10484   5.520   9.494  10.483 -0.1359 -1.1323 -0.4300
   78MOL0     H10485   5.685   9.464  10.531  0.3501  1.6022 -2.8456
   78MOL0     H10486   5.743   9.663  10.591 -0.9410  2.9527 -0.3285
   78MOL0     H10487   5.577   9.735  10.603 -0.4780  2.5867 -2.0537
   78MOL0     H10488   5.652   9.823  10.396 -0.5797 -0.1098  2.1812
   78MOL0     H10489   5.552   9.678  10.351  1.3713  1.5477 -3.1682
   78MOL0     H10490   5.853   9.862  10.473  1.1995  1.6795  0.2109
   78MOL0     H10491   6.133  10.058  10.451 -1.2119  2.1243  0.0443
   78MOL0     H10492   5.970  10.024  10.519 -0.0664  0.1406 -1.5119
   78MOL0     H10493   6.106   9.933  10.574  1.4116  0.5782 -0.6637
   78MOL0     H10494   6.483  10.064  10.259  0.1628 -0.3827  0.2044
   78MOL0     H10495   6.686  10.143  10.149 -0.7815 -0.9347  1.4429
   78MOL0     H10496   6.836   9.997   9.729  2.8891 -0.1355  1.6461
   78MOL0     H10497   6.720  10.126   9.720  0.0969 -0.2168 -0.2080
   78MOL0     H10498   6.894  10.267   9.847  0.2130  0.2108 -0.7119
   78MOL0     H10499   7.006  10.133   9.819  0.7918  1.0370  0.9961
   78MOL0     H10500   6.869  10.272   9.586  2.9383  0.4542 -4.4178
   78MOL0     H10501   6.994  10.146   9.582 -0.9381 -2.6058  3.2783
   78MOL0     H10502   7.056  10.393   9.732  0.1328 -0.6643  1.2705
   78MOL0     H10503   7.160  10.294   9.623 -1.7931 -2.8523 -3.0327
   78MOL0     H10504   6.931  10.471   9.525 -1.5601  1.2790  0.6448
   78MOL0     H10505   7.042  10.368   9.424  1.3867 -0.4328  2.1039
   78MOL0     H10506   7.132  10.587   9.614  1.7040 -2.0789  0.3070
   78MOL0     H10507   7.243  10.498   9.502  1.1316 -0.3892  3.9160
   78MOL0     H10508   7.012  10.663   9.411  0.0486 -0.5761 -2.0113
   78MOL0     H10509   7.142  10.591   9.317 -1.4118 -3.1786  0.3906
   78MOL0     H10510   7.157  10.816   9.521 -1.7752 -0.9250 -0.9108
   78MOL0     H10511   7.211  10.830   9.354  3.2866  3.7072  2.4528
   78MOL0     H10512   6.643   9.910   9.810  0.5042  1.0898  0.2105
   78MOL0     H10513   6.432   9.811   9.902 -2.1328  0.8152  0.6697
   78MOL0     H10514   6.129   9.679  10.114 -1.0855 -2.3845 -0.1547
   78MOL0     H10515   5.914   9.576  10.159  2.3464 -0.8540 -0.1683
   78MOL0     H10516   4.493   9.718  11.431  0.1765  0.7035  0.4537
   78MOL0     H10517   4.442   9.972  11.431  0.1921  0.1714 -0.2442
   78MOL0     H10518   4.619  10.405  10.991  1.1790  0.0492  2.9284
   78MOL0     H10519   4.516  10.647  10.967  0.8750  2.1451  2.4419
   78MOL0     H10520   4.380  10.872  10.998  1.3501 -2.5031 -1.8972
   78MOL0     H10521   4.287  10.731  10.941 -0.9377  0.4978 -1.7453
   78MOL0     H10522   4.076  10.819  11.023 -1.3226  1.1104  0.9410
   78MOL0     H10523   4.156  10.913  10.903  2.2404 -0.9461  0.0338
   78MOL0     H10524   4.203  10.982  11.191 -0.7706 -1.9685  0.6672
   78MOL0     H10525   4.038  10.987  11.151  1.5640 -2.6543  4.0755
   78MOL0     H10526   4.139  11.147  10.944  0.9984  1.1043 -0.0445
   78MOL0     H10527   4.281  11.154  11.043  0.1832 -0.9103 -3.8161
   78MOL0     H10528   4.031  11.420  11.243 -2.8668 -1.2218 -0.4666
   78MOL0     H10529   4.282  10.593  11.307 -1.5138 -1.4347 -1.2227
   78MOL0     H10530   4.397  10.355  11.348 -0.1401  2.0223  1.6214
   79MOL0     O10531   5.742   0.296   4.083  0.7400 -0.6216  0.2171
   79MOL0     C10532   5.816   0.302   4.181  0.3080 -0.3697 -0.0358
   79MOL0     O10533   5.806   0.230   4.295 -0.7736 -0.1661 -0.7072
   79MOL0     C10534   5.710   0.143   4.313 -0.6128  0.8147 -0.3102
   79MOL0     C10535   5.719   0.019   4.249  0.4091  1.3555 -0.2762
   79MOL0     C10536   5.610  -0.076   4.276  0.7616 -0.4909  0.2224
   79MOL0     C10537   5.516  -0.055   4.389  0.5742 -0.4390  0.4905
   79MOL0     O10538   5.418  -0.148   4.406 -0.3888 -1.1190 -0.4860
   79MOL0     C10539   5.315  -0.129   4.497  1.0926  0.9199 -0.6036
   79MOL0     C10540   5.259  -0.268   4.523  0.1531 -0.3436 -0.8799
   79MOL0     C10541   5.163  -0.269   4.639  0.7725  0.5557  0.7480
   79MOL0     C10542   5.065  -0.396   4.649  0.5054 -0.0310  0.1138
   79MOL0     C10543   4.976  -0.391   4.776 -0.3807 -1.1886 -0.2902
   79MOL0     C10544   4.846  -0.473   4.766 -0.2287 -0.0551  0.1328
   79MOL0     C10545   4.886  -0.615   4.733  0.6961  0.8984  0.6328
   79MOL0     C10546   4.787  -0.730   4.770 -0.7146 -0.5294 -0.7936
   79MOL0     N10547   4.651  -0.706   4.717 -0.6728 -0.4375  0.3855
   79MOL0     C10548   4.601  -0.758   4.605  0.1364  0.6064  0.1864
   79MOL0     C10549   4.480  -0.697   4.591  0.0549 -0.0430 -0.3878
   79MOL0     C10550   4.371  -0.710   4.487 -0.7805 -0.1991 -0.2838
   79MOL0     C10551   4.424  -0.648   4.356  0.7047 -0.3952 -0.5853
   79MOL0     C10552   4.381  -0.496   4.337  0.2567  0.0476 -0.7963
   79MOL0     C10553   4.451  -0.400   4.436 -0.0888  1.0394  0.6442
   79MOL0     O10554   4.585  -0.376   4.394  0.4345 -0.1264 -0.3288
   79MOL0     C10555   4.659  -0.280   4.455 -0.3600  1.2013 -0.5637
   79MOL0     C10556   4.606  -0.207   4.562  0.3514 -0.4708 -0.4684
   79MOL0     C10557   4.685  -0.105   4.618  0.7708  0.3340  0.4660
   79MOL0     C10558   4.624  -0.014   4.712 -1.0323 -0.7048  0.2939
   79MOL0     C10559   4.819  -0.086   4.574  0.2463 -0.3124 -0.1962
   79MOL0     C10560   4.892   0.025   4.625 -0.3379  0.3221  0.9690
   79MOL0     O10561   4.958   0.104   4.528  0.2089  0.0415  0.1864
   79MOL0     C10562   5.065   0.181   4.556 -0.5587 -0.6745 -0.9922
   79MOL0     C10563   5.081   0.260   4.673 -0.6506 -1.1177  0.7842
   79MOL0     C10564   5.200   0.332   4.697 -0.1661 -0.8114 -0.4506
   79MOL0     C10565   5.303   0.345   4.600 -0.3357  1.1769 -0.2729
   79MOL0     O10566   5.422   0.422   4.621  0.6422 -1.2618  0.2314
   79MOL0     C10567   5.424   0.521   4.726  0.3346  0.5551  0.8758
   79MOL0     C10568   5.564   0.545   4.775 -0.6857 -1.8150  0.3150
   79MOL0     C10569   5.653   0.595   4.664 -0.8383 -0.5750  0.1626
   79MOL0     C10570   5.779   0.658   4.731 -0.8760 -0.6795 -0.1801
   79MOL0     C10571   5.897   0.667   4.639  0.7213  0.3018  0.1992
   79MOL0     C10572   6.027   0.739   4.687  0.5400 -0.0196 -0.6864
   79MOL0     C10573   6.001   0.881   4.725  0.3410 -0.4628  0.4059
   79MOL0     C10574   6.137   0.943   4.758  0.3407 -0.7728 -0.2983
   79MOL0    Cl10575   6.119   1.115   4.797 -0.0325 -0.4419 -0.1414
   79MOL0     C10576   5.278   0.279   4.479  0.8071  0.3919  0.5383
   79MOL0     C10577   5.166   0.190   4.467  0.5736  0.7124  0.5870
   79MOL0     O10578   4.920   0.025   4.744  0.4469  0.3543 -0.4094
   79MOL0     C10579   4.867  -0.165   4.479 -0.9477  0.3490  1.4590
   79MOL0     C10580   4.790  -0.262   4.422 -0.1683 -0.0192  0.4194
   79MOL0     N10581   4.456  -0.631   4.714  0.4877 -0.2856  0.6412
   79MOL0     N10582   4.558  -0.628   4.786  0.5017  0.1922 -0.0932
   79MOL0     C10583   5.522   0.067   4.453  0.7171  0.1285 -0.4039
   79MOL0     C10584   5.612   0.167   4.416  0.2402 -0.0308 -1.1616
   79MOL0     C10585   5.925   0.403   4.181  0.6203 -0.5613  0.1507
   79MOL0     C10586   5.972   0.472   4.072  0.5640  0.3690 -0.2637
   79MOL0     C10587   6.064   0.578   4.079  0.4790  0.6933 -0.0003
   79MOL0     C10588   6.105   0.621   4.206 -0.2699 -0.4357 -0.6316
   79MOL0     O10589   6.199   0.726   4.219  0.2249 -0.0675 -1.1519
   79MOL0     C10590   6.223   0.780   4.355  0.0688 -0.7327  0.6358
   79MOL0     C10591   6.308   0.909   4.349 -1.0530  0.7571  0.4535
   79MOL0     C10592   6.445   0.858   4.299  0.5955 -0.0917 -0.8807
   79MOL0     C10593   6.551   0.978   4.286 -0.6651  0.9745  0.0330
   79MOL0     C10594   6.576   1.035   4.419 -0.5011  0.2008  1.5617
   79MOL0     C10595   6.591   1.077   4.528 -0.3602 -0.6426  0.3580
   79MOL0     C10596   6.062   0.552   4.319  0.8719  0.2987  0.3152
   79MOL0     C10597   5.961   0.453   4.312 -0.3122  1.0725  0.6440
   79MOL0     H10598   5.806  -0.009   4.190 -1.2985 -3.7970 -0.8890
   79MOL0     H10599   5.595  -0.168   4.219 -1.7742  0.9940 -1.7202
   79MOL0     H10600   5.337  -0.072   4.587 -3.3931  2.0689  0.0158
   79MOL0     H10601   5.231  -0.074   4.454 -0.6691 -0.6361  0.6734
   79MOL0     H10602   5.201  -0.292   4.434 -0.2519 -1.7223 -0.2776
   79MOL0     H10603   5.346  -0.329   4.551  1.0192  1.4070  0.4735
   79MOL0     H10604   5.218  -0.252   4.731  0.7051  4.1104  0.2684
   79MOL0     H10605   5.095  -0.188   4.611 -4.3224 -3.5620 -0.4632
   79MOL0     H10606   5.018  -0.410   4.551  1.6580 -0.5262 -0.3817
   79MOL0     H10607   5.122  -0.489   4.650  1.7843  0.3492 -5.2676
   79MOL0     H10608   5.039  -0.425   4.859  1.0400 -0.6987 -1.1444
   79MOL0     H10609   4.957  -0.285   4.793 -0.4079 -1.3316  0.6225
   79MOL0     H10610   4.792  -0.470   4.861 -0.5865 -1.6820  0.0178
   79MOL0     H10611   4.787  -0.429   4.686 -0.4491  2.0942  1.3930
   79MOL0     H10612   4.892  -0.624   4.624 -1.1883  1.9899  0.3887
   79MOL0     H10613   4.977  -0.636   4.789  0.8516 -2.0754 -0.5403
   79MOL0     H10614   4.767  -0.731   4.877  0.8722 -1.0550 -0.4798
   79MOL0     H10615   4.827  -0.821   4.725 -1.1809 -0.0302 -2.3080
   79MOL0     H10616   4.661  -0.814   4.534 -1.3788 -0.9053  0.0404
   79MOL0     H10617   4.352  -0.814   4.460  0.3546 -1.2826  2.7223
   79MOL0     H10618   4.278  -0.664   4.521 -1.2095 -1.0913 -0.2090
   79MOL0     H10619   4.371  -0.706   4.280 -2.0777  0.9175  0.2172
   79MOL0     H10620   4.533  -0.652   4.345  0.9839 -1.5269  1.9725
   79MOL0     H10621   4.274  -0.474   4.345  0.6551  1.6618  0.6147
   79MOL0     H10622   4.397  -0.466   4.233  0.3794  0.1966 -0.7341
   79MOL0     H10623   4.457  -0.452   4.532  1.2188  0.2683  0.1623
   79MOL0     H10624   4.391  -0.314   4.466 -1.5981 -0.0241  0.8130
   79MOL0     H10625   4.508  -0.219   4.609  0.2816  0.8507 -0.2512
   79MOL0     H10626   4.694   0.010   4.792  0.4199  1.6948 -1.5308
   79MOL0     H10627   4.605   0.085   4.668  3.4933  0.1988 -0.1683
   79MOL0     H10628   4.537  -0.065   4.754 -1.5547  0.1747  0.3159
   79MOL0     H10629   4.991   0.278   4.731 -0.2729  2.1094  0.5700
   79MOL0     H10630   5.194   0.386   4.791 -2.3357 -2.9720  0.7640
   79MOL0     H10631   5.363   0.608   4.699 -1.4840 -0.3569  1.8212
   79MOL0     H10632   5.378   0.470   4.811 -0.8971  0.8032  0.3858
   79MOL0     H10633   5.571   0.616   4.859  3.5632 -1.1785 -0.3685
   79MOL0     H10634   5.615   0.455   4.808  2.7450  0.3399  1.4567
   79MOL0     H10635   5.602   0.672   4.607 -0.7279 -1.3727 -1.0426
   79MOL0     H10636   5.673   0.518   4.589 -1.4988 -1.5124  0.9200
   79MOL0     H10637   5.760   0.758   4.771 -2.3719 -0.0391 -2.3675
   79MOL0     H10638   5.803   0.589   4.813 -2.8396  2.0981  2.9878
   79MOL0     H10639   5.856   0.725   4.556  1.9596 -2.0836 -2.1949
   79MOL0     H10640   5.915   0.565   4.604  0.4121  0.3486 -0.0984
   79MOL0     H10641   6.067   0.685   4.773  1.0156 -0.3046 -1.0835
   79MOL0     H10642   6.102   0.730   4.609  0.3538 -0.3854 -0.8247
   79MOL0     H10643   5.928   0.896   4.805  1.4067 -0.8634  1.4822
   79MOL0     H10644   5.954   0.936   4.642 -1.3735 -2.8046 -0.2671
   79MOL0     H10645   6.205   0.942   4.672  2.6075 -1.6612  1.3917
   79MOL0     H10646   6.187   0.890   4.840 -1.6287  0.8481  2.0906
   79MOL0     H10647   5.349   0.278   4.397  0.9261  1.3880  0.6261
   79MOL0     H10648   5.162   0.121   4.383  0.0180 -0.7590  1.7793
   79MOL0     H10649   4.964  -0.153   4.433 -2.0551 -0.3497 -1.2593
   79MOL0     H10650   4.837  -0.328   4.351  1.5021 -0.9077  2.2677
   79MOL0     H10651   5.462   0.094   4.539  2.4952  3.0864  0.0564
   79MOL0     H10652   5.626   0.259   4.472  4.9219 -1.9696  1.4379
   79MOL0     H10653   5.950   0.432   3.974  3.3031  0.2938 -0.9223
   79MOL0     H10654   6.099   0.625   3.987  1.0840 -0.5441 -0.4296
   79MOL0     H10655   6.121   0.804   4.387 -0.7929 -0.0426 -2.2967
   79MOL0     H10656   6.256   0.703   4.425  1.9240  1.1880  1.9892
   79MOL0     H10657   6.312   0.956   4.447 -0.0157  0.6639  0.4667
   79MOL0     H10658   6.273   0.989   4.282 -1.0125  2.2778  2.1910
   79MOL0     H10659   6.434   0.804   4.204  1.8471 -1.2108 -0.4259
   79MOL0     H10660   6.484   0.791   4.376 -0.2820 -0.3523 -0.6567
   79MOL0     H10661   6.510   1.053   4.218 -2.3132  2.5999  2.6943
   79MOL0     H10662   6.646   0.948   4.241 -0.8353 -0.5100  0.6024
   79MOL0     H10663   6.604   1.103   4.631 -0.4882  0.2064  0.1745
   79MOL0     H10664   6.079   0.599   4.415 -0.0811 -0.1574  0.7188
   79MOL0     H10665   5.927   0.396   4.398  1.7828 -1.5526 -0.1351
   80MOL0     O10666   3.310   9.628   5.911  0.0389 -0.2589 -0.0774
   80MOL0     C10667   3.265   9.716   5.979 -0.5411 -0.4958  0.1997
   80MOL0     O10668   3.152   9.786   5.950 -0.1318 -0.0994  0.0519
   80MOL0     C10669   3.076   9.752   5.841 -0.4064  0.1554 -0.7522
   80MOL0     C10670   3.092   9.821   5.724 -0.1126 -0.2461 -0.0306
   80MOL0     C10671   3.042   9.777   5.606 -1.1710 -0.3071 -0.1585
   80MOL0     C10672   2.967   9.657   5.598  0.2386 -0.0133 -1.1732
   80MOL0     O10673   2.896   9.618   5.486  0.1847  0.0147 -0.2473
   80MOL0     C10674   2.954   9.664   5.358  0.1517  0.0490 -0.2593
   80MOL0     C10675   2.928   9.572   5.239 -0.1138  0.0686 -0.4116
   80MOL0     C10676   2.785   9.504   5.247  0.4737 -1.3664  0.2368
   80MOL0     C10677   2.767   9.442   5.101 -0.1159 -0.2521 -1.1238
   80MOL0     C10678   2.630   9.389   5.081  0.4373 -0.6123  0.1326
   80MOL0     C10679   2.605   9.298   4.951 -0.6185 -0.5557 -0.7211
   80MOL0     C10680   2.637   9.371   4.826 -0.4296 -0.1885  0.4263
   80MOL0     C10681   2.612   9.279   4.704  0.1682 -0.2283 -0.4071
   80MOL0     N10682   2.643   9.332   4.570  0.1347  0.2052 -0.2298
   80MOL0     C10683   2.737   9.421   4.537  0.0937 -0.0784  0.2732
   80MOL0     C10684   2.689   9.469   4.417  0.0929  0.4613  0.5535
   80MOL0     C10685   2.767   9.564   4.325  0.6786  0.4579  0.8429
   80MOL0     C10686   2.834   9.677   4.397  0.3974  0.2575 -0.6012
   80MOL0     C10687   2.730   9.775   4.459  0.1409 -0.2021 -0.7136
   80MOL0     C10688   2.777   9.904   4.524  0.8440 -0.3248  0.0184
   80MOL0     O10689   2.903   9.867   4.588 -0.3367  1.3400 -0.3213
   80MOL0     C10690   2.966   9.952   4.680  0.9313  0.0846 -0.6367
   80MOL0     C10691   2.919  10.067   4.729 -1.0828 -0.3988  0.6059
   80MOL0     C10692   3.001  10.163   4.795  0.2109 -0.5869  0.1827
   80MOL0     C10693   2.955  10.300   4.789  0.8038 -0.3254 -0.3143
   80MOL0     C10694   3.142  10.132   4.817  0.3866  0.1910 -0.2538
   80MOL0     C10695   3.239  10.220   4.897  0.5527  0.0771  0.6427
   80MOL0     O10696   3.368  10.171   4.903 -0.5321 -0.5394 -0.0878
   80MOL0     C10697   3.450  10.247   4.983  1.0341 -0.2065 -0.4367
   80MOL0     C10698   3.492  10.204   5.109 -0.9216  0.6309 -0.0850
   80MOL0     C10699   3.581  10.282   5.190 -0.6205 -0.3979  0.5106
   80MOL0     C10700   3.612  10.411   5.149  1.2992 -0.0248 -0.3884
   80MOL0     O10701   3.694  10.482   5.227 -0.0513  0.1318 -0.3315
   80MOL0     C10702   3.635  10.528   5.346  0.0948 -0.4172  0.1478
   80MOL0     C10703   3.742  10.556   5.448 -0.4740  1.1620 -0.2488
   80MOL0     C10704   3.863  10.627   5.396 -0.2823 -0.6612 -0.8552
   80MOL0     C10705   3.960  10.671   5.515  0.4951 -0.4325  0.3618
   80MOL0     C10706   4.095  10.725   5.467  0.5195 -0.7803  0.1063
   80MOL0     C10707   4.160  10.796   5.590 -0.7065  0.2026  0.3662
   80MOL0     C10708   4.256  10.906   5.549  0.0272 -0.3956  0.6782
   80MOL0     C10709   4.379  10.922   5.635  0.1769  0.4812 -0.4101
   80MOL0    Cl10710   4.487  10.767   5.602  0.0093 -0.3134  0.4156
   80MOL0     C10711   3.564  10.456   5.029 -0.1968 -0.5765  0.3699
   80MOL0     C10712   3.484  10.377   4.944  0.4992  0.0720  0.6097
   80MOL0     O10713   3.197  10.316   4.959  0.0257 -0.8758 -0.6098
   80MOL0     C10714   3.180  10.001   4.786  0.3692  1.0311  0.0322
   80MOL0     C10715   3.089   9.908   4.722  0.1806  0.5392 -0.4199
   80MOL0     N10716   2.567   9.402   4.383  0.1258  0.0106 -0.2777
   80MOL0     N10717   2.539   9.321   4.482 -0.6044  0.4544  0.0884
   80MOL0     C10718   2.961   9.578   5.715  0.5453  1.2331  0.8926
   80MOL0     C10719   3.013   9.630   5.832  0.6011 -0.6273 -0.4788
   80MOL0     C10720   3.352   9.756   6.093 -0.3548  0.1073 -0.5487
   80MOL0     C10721   3.319   9.859   6.188 -1.1181  0.6723  0.1652
   80MOL0     C10722   3.411   9.901   6.284 -0.3000  0.7562 -0.3955
   80MOL0     C10723   3.533   9.828   6.311 -0.2745 -0.2940  1.0494
   80MOL0     O10724   3.629   9.901   6.378 -0.0415 -0.4958 -0.0216
   80MOL0     C10725   3.755   9.829   6.390 -1.4072  0.4693 -0.4537
   80MOL0     C10726   3.873   9.911   6.442  0.5346 -0.1613 -0.5094
   80MOL0     C10727   3.862   9.941   6.596 -1.5181 -0.0531 -0.4649
   80MOL0     C10728   3.996  10.007   6.644 -0.2261 -0.6784 -0.2933
   80MOL0     C10729   4.019  10.141   6.603  1.0823  0.5839 -0.2594
   80MOL0     C10730   4.047  10.253   6.564  0.7118  0.6804 -0.1997
   80MOL0     C10731   3.548   9.712   6.234 -1.1404 -0.1922  0.8337
   80MOL0     C10732   3.470   9.680   6.127  0.1042  0.4372  0.5874
   80MOL0     H10733   3.144   9.916   5.729  1.3477 -1.0788  1.5135
   80MOL0     H10734   3.058   9.846   5.524  1.6622  0.4291  0.9144
   80MOL0     H10735   2.909   9.757   5.323  1.3200  0.4591 -0.6984
   80MOL0     H10736   3.062   9.683   5.359 -0.1008  2.0799 -2.3038
   80MOL0     H10737   2.934   9.638   5.152  2.7976 -1.0065 -1.1346
   80MOL0     H10738   3.010   9.502   5.219  1.1442  0.9416  1.3515
   80MOL0     H10739   2.771   9.436   5.331  0.7404  0.8700  2.1863
   80MOL0     H10740   2.709   9.583   5.248  0.7642 -1.0444 -0.8930
   80MOL0     H10741   2.790   9.528   5.037  2.5143  0.1827  0.2491
   80MOL0     H10742   2.845   9.366   5.097  0.1369 -0.1869  1.0421
   80MOL0     H10743   2.589   9.338   5.169 -0.3846 -1.4462 -0.7039
   80MOL0     H10744   2.569   9.478   5.064  1.6520 -0.0420 -1.4372
   80MOL0     H10745   2.672   9.215   4.972  1.2015  1.1993  0.9001
   80MOL0     H10746   2.502   9.261   4.944  0.5248 -3.9589 -1.4110
   80MOL0     H10747   2.580   9.463   4.808  3.7565  2.4583 -0.5855
   80MOL0     H10748   2.739   9.409   4.815  0.3063 -2.7180 -3.6830
   80MOL0     H10749   2.504   9.268   4.716  0.2470 -0.4381  0.1227
   80MOL0     H10750   2.665   9.186   4.727 -0.9733 -0.3320  2.1410
   80MOL0     H10751   2.832   9.450   4.581 -0.9701 -1.1915  3.5707
   80MOL0     H10752   2.841   9.507   4.267 -1.7961 -0.1312 -2.0020
   80MOL0     H10753   2.694   9.602   4.253 -1.0448 -1.5074  1.4484
   80MOL0     H10754   2.895   9.726   4.319  1.2103 -2.3232 -1.6932
   80MOL0     H10755   2.903   9.636   4.471 -0.8514 -2.4906 -0.8615
   80MOL0     H10756   2.664   9.726   4.531 -0.9098 -1.3487 -2.3861
   80MOL0     H10757   2.665   9.813   4.380 -0.1469 -0.9151 -0.8277
   80MOL0     H10758   2.708   9.938   4.601  0.0627  0.1579 -0.8785
   80MOL0     H10759   2.778   9.985   4.451  0.9234  0.2938  0.6946
   80MOL0     H10760   2.816  10.098   4.711 -0.3554  0.4313 -2.9560
   80MOL0     H10761   2.967  10.358   4.881 -1.0818  3.7064 -2.3717
   80MOL0     H10762   3.020  10.341   4.711  1.3387 -1.3390 -0.4226
   80MOL0     H10763   2.850  10.312   4.764  0.6327  2.0107  1.2501
   80MOL0     H10764   3.464  10.111   5.157 -1.0384 -0.8736 -2.8542
   80MOL0     H10765   3.614  10.246   5.287 -1.7482 -0.2026  0.9860
   80MOL0     H10766   3.589  10.626   5.328 -2.2920 -1.3322  0.9351
   80MOL0     H10767   3.555  10.465   5.383 -0.8888  0.5976 -0.1849
   80MOL0     H10768   3.708  10.615   5.534 -0.0183  0.7809  0.2008
   80MOL0     H10769   3.773  10.456   5.478 -5.0771 -0.7486 -0.9659
   80MOL0     H10770   3.838  10.715   5.336 -1.5479 -0.0926  0.4492
   80MOL0     H10771   3.922  10.552   5.342 -0.9208 -0.8793 -1.2640
   80MOL0     H10772   3.906  10.751   5.567  0.1648  0.1261 -0.8112
   80MOL0     H10773   3.978  10.592   5.588 -2.2063  0.7770  2.5300
   80MOL0     H10774   4.078  10.800   5.390 -0.8103 -1.2372 -0.0692
   80MOL0     H10775   4.150  10.640   5.427  0.4120 -1.4250  1.2741
   80MOL0     H10776   4.082  10.843   5.651 -3.0905 -0.2969 -2.0712
   80MOL0     H10777   4.213  10.715   5.641  4.3430  0.4038 -3.7953
   80MOL0     H10778   4.197  10.999   5.544 -0.0109 -0.4852 -0.8647
   80MOL0     H10779   4.308  10.897   5.454  2.2957  1.8708  1.5613
   80MOL0     H10780   4.358  10.925   5.742 -2.7715 -3.1152 -0.6481
   80MOL0     H10781   4.437  11.009   5.603  0.8224  0.7002  1.2715
   80MOL0     H10782   3.592  10.557   5.001  0.4260 -0.3487  1.7374
   80MOL0     H10783   3.447  10.406   4.846 -4.5124 -2.7630  1.3054
   80MOL0     H10784   3.270   9.954   4.826 -0.2436 -0.0094  0.2341
   80MOL0     H10785   3.121   9.805   4.711 -1.1339  0.1411 -0.6765
   80MOL0     H10786   2.904   9.486   5.716 -1.2516  2.2356 -1.0291
   80MOL0     H10787   3.005   9.578   5.927  1.0774  4.0370  2.3876
   80MOL0     H10788   3.242   9.928   6.156 -0.1015  0.5826 -2.7787
   80MOL0     H10789   3.401   9.997   6.334  2.0929 -0.3490  2.5704
   80MOL0     H10790   3.741   9.742   6.455  2.2200  0.4088  0.4502
   80MOL0     H10791   3.787   9.801   6.290  0.3691  2.3422 -0.4672
   80MOL0     H10792   3.868  10.004   6.385 -1.1633  1.5882  2.2523
   80MOL0     H10793   3.963   9.851   6.423  1.6863  0.4935  2.4227
   80MOL0     H10794   3.837   9.849   6.651 -0.5756 -0.9822 -1.5384
   80MOL0     H10795   3.793  10.023   6.616 -0.4955  1.7703 -3.7452
   80MOL0     H10796   4.086   9.947   6.627  3.4125  4.8105 -3.2024
   80MOL0     H10797   3.988  10.016   6.753  1.1470  0.8975 -0.2858
   80MOL0     H10798   4.045  10.349   6.516 -2.1430  0.0180 -1.6243
   80MOL0     H10799   3.625   9.645   6.273 -0.5312 -0.2964 -0.4911
   80MOL0     H10800   3.487   9.593   6.065 -0.6653 -0.3861  1.5007
   81MOL0     O10801   6.960   6.429  10.152 -0.2716 -0.2543  0.3600
   81MOL0     C10802   6.955   6.333  10.074  0.3053 -0.1465  0.0624
   81MOL0     O10803   7.050   6.235  10.054  1.0873 -0.9237 -0.4701
   81MOL0     C10804   7.163   6.236  10.138  0.2991  0.0682  0.1887
   81MOL0     C10805   7.151   6.179  10.268 -0.1848 -0.6191  0.7253
   81MOL0     C10806   7.266   6.185  10.351  0.5366 -0.1281  0.9953
   81MOL0     C10807   7.383   6.264  10.318 -0.5291  0.5317  0.6466
   81MOL0     O10808   7.476   6.285  10.419  0.4069  0.1223  0.1622
   81MOL0     C10809   7.509   6.173  10.497 -0.2443 -0.7667 -1.3783
   81MOL0     C10810   7.595   6.225  10.615  0.9319 -0.3477  0.0199
   81MOL0     C10811   7.631   6.113  10.707  0.6617 -0.6556  0.7920
   81MOL0     C10812   7.744   6.160  10.807  0.1628  0.1488  0.3911
   81MOL0     C10813   7.751   6.055  10.927  0.2850  0.1459 -0.4648
   81MOL0     C10814   7.847   6.095  11.041 -0.1452  0.3528  0.2797
   81MOL0     C10815   7.866   5.970  11.127  0.2328  0.1464  0.0797
   81MOL0     C10816   7.927   5.991  11.264 -0.5644 -0.1162  0.1116
   81MOL0     N10817   7.854   6.088  11.351  0.0804  0.9815  0.2769
   81MOL0     C10818   7.924   6.179  11.405 -0.3331 -0.8381 -0.3844
   81MOL0     C10819   7.861   6.222  11.516 -0.1608 -0.0046 -0.2545
   81MOL0     C10820   7.906   6.336  11.608  0.9868 -0.1764  0.5983
   81MOL0     C10821   7.920   6.473  11.539 -0.5808  0.1743 -0.7143
   81MOL0     C10822   7.926   6.596  11.636 -0.4129 -0.7642 -0.8760
   81MOL0     C10823   8.057   6.656  11.662  0.5030  0.4315  0.2382
   81MOL0     O10824   8.043   6.785  11.719 -0.0547 -0.1047 -0.4540
   81MOL0     C10825   8.159   6.851  11.762  0.4546 -0.4846 -0.2882
   81MOL0     C10826   8.155   6.977  11.823 -1.2920  0.3024 -0.5276
   81MOL0     C10827   8.271   7.053  11.859 -0.0243  0.4516 -0.6946
   81MOL0     C10828   8.235   7.188  11.912  1.2255  0.2939  0.3195
   81MOL0     C10829   8.405   6.988  11.839  0.7425 -0.3632 -0.3201
   81MOL0     C10830   8.528   7.053  11.879 -0.8124  0.2931 -0.2789
   81MOL0     O10831   8.518   7.157  11.971  0.7328 -0.6573 -1.0817
   81MOL0     C10832   8.635   7.181  12.044  0.4222  1.2164 -0.0474
   81MOL0     C10833   8.681   7.111  12.160  0.4364 -1.6416 -0.3135
   81MOL0     C10834   8.791   7.144  12.239  1.1537 -1.1601  1.0028
   81MOL0     C10835   8.881   7.246  12.196  0.2586  1.2460 -0.4694
   81MOL0     O10836   8.999   7.285  12.255 -0.6428 -0.0251  1.1070
   81MOL0     C10837   9.105   7.290  12.165  0.0263 -0.0013  0.6288
   81MOL0     C10838   9.176   7.152  12.133 -0.6071  0.6402  0.0920
   81MOL0     C10839   9.233   7.083  12.251 -0.0371  0.8514  0.1400
   81MOL0     C10840   9.277   6.936  12.230  0.4340 -0.0166  0.6178
   81MOL0     C10841   9.346   6.863  12.348 -0.0373  0.2983  0.1284
   81MOL0     C10842   9.367   6.719  12.303 -0.9526  0.1283 -0.1968
   81MOL0     C10843   9.447   6.651  12.418  0.8083 -0.6145  0.8103
   81MOL0     C10844   9.475   6.511  12.375 -0.2752  0.5594 -0.7180
   81MOL0    Cl10845   9.540   6.416  12.514 -0.4247  0.2210 -0.1538
   81MOL0     C10846   8.830   7.311  12.081  0.0552  0.4719  0.0791
   81MOL0     C10847   8.714   7.277  12.005 -0.4194  0.5421  0.5359
   81MOL0     O10848   8.636   7.020  11.830  0.3458 -0.4287  0.7002
   81MOL0     C10849   8.400   6.871  11.764 -0.0364 -0.2850  0.0916
   81MOL0     C10850   8.286   6.811  11.723 -0.4921 -0.0010  0.6939
   81MOL0     N10851   7.747   6.152  11.527  0.7055 -0.1995  0.3354
   81MOL0     N10852   7.748   6.062  11.433  0.9012 -0.2022 -0.6083
   81MOL0     C10853   7.383   6.324  10.191  0.5648 -0.0419  1.5541
   81MOL0     C10854   7.278   6.303  10.103  1.2082 -0.1406  0.2019
   81MOL0     C10855   6.834   6.331   9.987 -0.4575  0.2106 -0.3882
   81MOL0     C10856   6.816   6.212   9.911 -0.5038  0.9160 -0.1400
   81MOL0     C10857   6.695   6.192   9.833  0.2589  0.3398  0.1601
   81MOL0     C10858   6.599   6.290   9.833 -0.2203  0.0207 -0.0707
   81MOL0     O10859   6.496   6.277   9.745  0.0688  0.7461 -0.4564
   81MOL0     C10860   6.413   6.387   9.739 -0.7457  0.5239 -0.8665
   81MOL0     C10861   6.296   6.379   9.643 -0.1805  0.1051 -0.8776
   81MOL0     C10862   6.324   6.340   9.491  0.1909  0.2803  0.1142
   81MOL0     C10863   6.314   6.187   9.470  0.2747 -0.8927 -0.0053
   81MOL0     C10864   6.300   6.159   9.326 -0.1773  0.4347 -0.6196
   81MOL0     C10865   6.275   6.137   9.205 -1.0764  0.7515 -0.0947
   81MOL0     C10866   6.621   6.413   9.911  0.3310 -0.3305  0.2861
   81MOL0     C10867   6.737   6.433   9.985  0.4747  0.1049  0.1795
   81MOL0     H10868   7.050   6.141  10.284 -0.3409 -0.2102  0.7266
   81MOL0     H10869   7.269   6.149  10.454  2.6763  5.2794  3.2537
   81MOL0     H10870   7.426   6.125  10.549 -0.7655  0.9015 -0.6129
   81MOL0     H10871   7.559   6.113  10.420  2.0374 -0.8986  0.1030
   81MOL0     H10872   7.685   6.256  10.561  0.5228 -1.6678 -1.4798
   81MOL0     H10873   7.544   6.305  10.669  0.9400 -0.0036 -0.4813
   81MOL0     H10874   7.543   6.093  10.768 -0.7835  0.4709 -0.8091
   81MOL0     H10875   7.667   6.026  10.651 -2.3398  0.8936 -4.2676
   81MOL0     H10876   7.841   6.172  10.757 -1.2501 -1.0130 -2.9032
   81MOL0     H10877   7.696   6.249  10.848 -0.5258 -1.8350  4.4132
   81MOL0     H10878   7.649   6.037  10.963  1.4723 -0.0494  3.2010
   81MOL0     H10879   7.785   5.959  10.887  1.4926  1.6583 -3.3028
   81MOL0     H10880   7.944   6.110  10.992  0.4558 -1.9620  0.6558
   81MOL0     H10881   7.808   6.186  11.089 -2.6927 -0.4276 -0.1727
   81MOL0     H10882   7.768   5.926  11.144  0.3507 -0.2661 -0.2669
   81MOL0     H10883   7.933   5.908  11.066 -2.2907 -0.3131 -2.4207
   81MOL0     H10884   8.033   6.014  11.250 -0.0601 -1.1503  1.9440
   81MOL0     H10885   7.923   5.897  11.319 -0.9826  1.0692  2.2247
   81MOL0     H10886   8.023   6.212  11.376  0.4216 -1.2169  1.5795
   81MOL0     H10887   7.845   6.336  11.699  1.8065 -2.5737  1.2106
   81MOL0     H10888   8.008   6.310  11.636  0.2925 -2.7150  0.9895
   81MOL0     H10889   7.846   6.486  11.460  1.5739 -2.8332 -3.5202
   81MOL0     H10890   8.015   6.467  11.485 -1.2206  0.7348 -1.9434
   81MOL0     H10891   7.878   6.568  11.730 -1.1718 -0.1875 -1.0763
   81MOL0     H10892   7.851   6.675  11.622 -0.6719 -1.0153 -0.9242
   81MOL0     H10893   8.112   6.668  11.568 -0.2026 -0.7603 -0.3629
   81MOL0     H10894   8.111   6.581  11.721  0.4716 -1.1707 -1.6534
   81MOL0     H10895   8.057   7.018  11.846 -0.3536  4.7499 -3.2965
   81MOL0     H10896   8.200   7.177  12.015 -2.5975 -1.6029 -0.9673
   81MOL0     H10897   8.316   7.259  11.897  0.1865  1.3849 -0.2481
   81MOL0     H10898   8.146   7.228  11.862 -0.4639 -0.8735  2.2216
   81MOL0     H10899   8.614   7.025  12.163 -2.5404  0.4434 -1.8451
   81MOL0     H10900   8.807   7.095  12.334 -0.1072  0.7360  2.2555
   81MOL0     H10901   9.091   7.335  12.067  0.0528  0.5299  0.8694
   81MOL0     H10902   9.182   7.361  12.196 -1.3289  2.6497 -1.7007
   81MOL0     H10903   9.109   7.088  12.075 -0.5217  1.2012 -0.6506
   81MOL0     H10904   9.251   7.180  12.058  1.6960  2.0494  2.7439
   81MOL0     H10905   9.152   7.087  12.324  0.8843  2.7390  1.1211
   81MOL0     H10906   9.316   7.133  12.301 -2.5011  2.3680  3.0235
   81MOL0     H10907   9.190   6.879  12.197 -2.3455  1.4363  4.6030
   81MOL0     H10908   9.347   6.944  12.146  1.4593 -1.6309  1.2814
   81MOL0     H10909   9.284   6.860  12.437  0.5852  1.2361  0.6123
   81MOL0     H10910   9.446   6.898  12.375  0.6658 -3.1105  2.6339
   81MOL0     H10911   9.273   6.663  12.304  0.1858 -1.8989  0.5058
   81MOL0     H10912   9.419   6.715  12.206  1.5609 -1.9951  1.1235
   81MOL0     H10913   9.385   6.647  12.508 -1.6308 -0.6817 -0.7747
   81MOL0     H10914   9.540   6.698  12.452  0.1196  1.2873  0.2107
   81MOL0     H10915   9.555   6.512  12.300  1.4791  3.2209  1.0199
   81MOL0     H10916   9.383   6.464  12.339  2.5071 -2.9596 -4.1529
   81MOL0     H10917   8.877   7.390  12.022 -1.4652  1.3051 -0.0682
   81MOL0     H10918   8.702   7.333  11.913  1.9052  0.0867 -0.1105
   81MOL0     H10919   8.500   6.837  11.740  1.1762  3.6477 -1.0558
   81MOL0     H10920   8.296   6.734  11.647  1.1395  3.7228 -3.2353
   81MOL0     H10921   7.472   6.370  10.149 -1.3414  0.0983 -2.8752
   81MOL0     H10922   7.282   6.362  10.012 -0.3854  1.3044  1.0091
   81MOL0     H10923   6.891   6.133   9.911  0.3894  1.7174  1.7450
   81MOL0     H10924   6.683   6.103   9.773 -0.7406  0.0583  0.7613
   81MOL0     H10925   6.368   6.410   9.836  1.5609  0.5662  0.2457
   81MOL0     H10926   6.474   6.473   9.710 -0.5682  0.4059 -0.8438
   81MOL0     H10927   6.262   6.482   9.643  0.3325  0.2784 -1.0270
   81MOL0     H10928   6.221   6.314   9.688 -0.0532 -0.5016 -1.5287
   81MOL0     H10929   6.423   6.381   9.468  0.5883  0.1397  1.4752
   81MOL0     H10930   6.254   6.386   9.421  0.6652 -3.5078 -3.2029
   81MOL0     H10931   6.227   6.171   9.535  0.2257  1.2568  0.5561
   81MOL0     H10932   6.401   6.138   9.515 -0.7729 -1.2082  1.7882
   81MOL0     H10933   6.253   6.105   9.105 -0.4836 -2.7186  0.7559
   81MOL0     H10934   6.558   6.499   9.930 -1.3619 -1.3357 -0.4812
   81MOL0     H10935   6.754   6.522  10.044  3.4816  0.4894 -1.0803
   82MOL0     O10936   7.304   2.504   2.347  0.0293  0.1559 -0.6136
   82MOL0     C10937   7.402   2.522   2.273  0.2786  0.1943 -0.4166
   82MOL0     O10938   7.512   2.441   2.255  0.7580  0.0132 -0.0678
   82MOL0     C10939   7.498   2.306   2.300  0.2290 -0.4990  0.3842
   82MOL0     C10940   7.377   2.227   2.294 -0.3447  0.1536 -1.5085
   82MOL0     C10941   7.376   2.101   2.354 -0.3877  0.4400 -0.3808
   82MOL0     C10942   7.493   2.045   2.409  0.9805  0.1522  0.0168
   82MOL0     O10943   7.510   1.931   2.479  0.2482  0.1085  0.9516
   82MOL0     C10944   7.404   1.846   2.459 -0.0067 -0.0245  0.7702
   82MOL0     C10945   7.448   1.708   2.510  0.4739  0.2379  0.3216
   82MOL0     C10946   7.360   1.591   2.456 -0.2861 -0.3915  0.0642
   82MOL0     C10947   7.394   1.467   2.542  0.4744  0.6378 -0.0080
   82MOL0     C10948   7.288   1.358   2.514  0.6166 -0.0798  0.7294
   82MOL0     C10949   7.279   1.326   2.363  0.1812 -0.8340  0.0984
   82MOL0     C10950   7.183   1.215   2.341  0.0814  0.4048  0.5395
   82MOL0     C10951   7.178   1.166   2.192 -0.7888 -0.4612 -0.3932
   82MOL0     N10952   7.046   1.129   2.144  0.7527  0.5849 -0.5362
   82MOL0     C10953   7.004   1.013   2.081 -0.3518 -1.0688 -0.2246
   82MOL0     C10954   6.867   1.023   2.077 -0.1918  1.1521  1.3154
   82MOL0     C10955   6.772   0.919   2.027 -0.1587 -0.0714  0.0206
   82MOL0     C10956   6.626   0.971   2.012 -0.2314 -0.1265 -0.0208
   82MOL0     C10957   6.543   0.906   1.899 -0.0058  1.0961  0.2324
   82MOL0     C10958   6.497   0.759   1.945  0.3984 -0.4854  0.1662
   82MOL0     O10959   6.609   0.673   1.970  0.7991  0.0830 -0.2060
   82MOL0     C10960   6.601   0.572   2.061 -0.0588 -1.2274  0.2603
   82MOL0     C10961   6.723   0.512   2.085 -0.4510  0.5175  0.1405
   82MOL0     C10962   6.732   0.399   2.171 -0.0996  0.9650 -0.6015
   82MOL0     C10963   6.861   0.316   2.166 -0.6593  0.1336  0.1068
   82MOL0     C10964   6.624   0.365   2.250 -0.2988 -0.1064 -0.4282
   82MOL0     C10965   6.645   0.258   2.356  0.3827  0.4353  0.2022
   82MOL0     O10966   6.563   0.156   2.372  0.1057 -0.7161 -0.0846
   82MOL0     C10967   6.613   0.044   2.429 -0.2111  0.1951  0.4338
   82MOL0     C10968   6.534  -0.008   2.536 -0.1879 -0.4654  0.2168
   82MOL0     C10969   6.572  -0.130   2.593  0.2722  1.2414 -0.2760
   82MOL0     C10970   6.697  -0.194   2.554 -0.4473 -0.6950 -0.2746
   82MOL0     O10971   6.764  -0.297   2.619  0.0522 -0.4556  0.3520
   82MOL0     C10972   6.754  -0.307   2.759 -0.3279 -0.2695 -0.2736
   82MOL0     C10973   6.687  -0.445   2.798 -1.0222  0.2467 -1.3780
   82MOL0     C10974   6.786  -0.561   2.770  0.9113 -0.9512  1.2740
   82MOL0     C10975   6.786  -0.662   2.884  0.2410 -0.1008  0.3281
   82MOL0     C10976   6.900  -0.758   2.883 -0.0575 -0.6888 -0.2829
   82MOL0     C10977   6.885  -0.850   2.757  0.4554  0.4404 -0.0880
   82MOL0     C10978   6.936  -0.991   2.777 -0.3124  0.3420  0.0036
   82MOL0     C10979   7.079  -1.015   2.813  0.3673  0.0198  0.5615
   82MOL0    Cl10980   7.093  -1.192   2.829  0.7580 -0.0239  0.2371
   82MOL0     C10981   6.771  -0.145   2.441 -0.0058 -0.2120  1.4333
   82MOL0     C10982   6.725  -0.024   2.374 -0.0120  0.0567 -0.7323
   82MOL0     O10983   6.743   0.279   2.428  0.1975 -0.5293 -0.9535
   82MOL0     C10984   6.499   0.434   2.241 -0.3209  0.4981  0.0787
   82MOL0     C10985   6.490   0.533   2.142  0.5280 -0.3696 -0.7371
   82MOL0     N10986   6.835   1.141   2.137  0.5584  0.7409 -0.1142
   82MOL0     N10987   6.938   1.200   2.172 -0.3660  0.2462  0.5585
   82MOL0     C10988   7.605   2.118   2.412 -0.0281 -1.0001  0.0142
   82MOL0     C10989   7.608   2.250   2.364 -0.2627  0.3521  0.3983
   82MOL0     C10990   7.404   2.653   2.212  0.2697  1.4183  0.5764
   82MOL0     C10991   7.495   2.688   2.115 -0.4200  0.4338  0.0353
   82MOL0     C10992   7.520   2.808   2.055  0.5514 -0.7015  0.4195
   82MOL0     C10993   7.424   2.909   2.078 -0.1196 -0.3799  0.1451
   82MOL0     O10994   7.443   3.030   2.002  0.0335  0.2801 -0.5670
   82MOL0     C10995   7.331   3.124   1.985 -0.6971  0.1245  1.5567
   82MOL0     C10996   7.219   3.051   1.894 -0.6933 -0.3460 -0.3538
   82MOL0     C10997   7.082   3.037   1.965  0.4767 -1.0964 -0.4042
   82MOL0     C10998   7.007   3.156   2.013 -0.5294 -0.5266  0.1901
   82MOL0     C10999   6.963   3.242   1.906  0.3916 -0.6003  0.4943
   82MOL0     C11000   6.944   3.323   1.817 -0.3153  0.0901  0.2085
   82MOL0     C11001   7.322   2.884   2.176  0.5188  0.7661 -0.9906
   82MOL0     C11002   7.319   2.761   2.246 -0.3254  0.5129  0.5492
   82MOL0     H11003   7.281   2.254   2.253 -1.0582  2.7231  1.4717
   82MOL0     H11004   7.280   2.050   2.348  0.2252 -0.7886 -6.0763
   82MOL0     H11005   7.324   1.889   2.520  0.3438  0.5975  0.7993
   82MOL0     H11006   7.385   1.846   2.351 -0.1378  2.3441  0.7457
   82MOL0     H11007   7.552   1.701   2.480 -0.3042  2.7289 -3.6118
   82MOL0     H11008   7.436   1.708   2.619 -1.7297 -1.9379  0.1625
   82MOL0     H11009   7.254   1.615   2.467 -1.0998 -1.6704 -3.5737
   82MOL0     H11010   7.378   1.576   2.349  4.4412  0.4345  0.5207
   82MOL0     H11011   7.490   1.421   2.514  0.7475 -1.2596  3.4589
   82MOL0     H11012   7.397   1.489   2.649 -3.0415  0.3593  0.2723
   82MOL0     H11013   7.328   1.262   2.547  1.1440 -0.1334 -0.0477
   82MOL0     H11014   7.198   1.383   2.570  1.5238 -2.9193  3.7524
   82MOL0     H11015   7.247   1.421   2.320  2.0180 -0.1301  0.1771
   82MOL0     H11016   7.378   1.301   2.322 -0.2612  0.6274 -2.0266
   82MOL0     H11017   7.207   1.132   2.408 -2.1469 -1.5543 -0.9275
   82MOL0     H11018   7.087   1.254   2.378  0.6817  0.6234  1.9089
   82MOL0     H11019   7.246   1.082   2.173  4.3485  3.2671 -0.7580
   82MOL0     H11020   7.216   1.249   2.131  0.3889  0.3954  1.4056
   82MOL0     H11021   7.068   0.935   2.040  1.3869  0.5681 -0.7677
   82MOL0     H11022   6.800   0.881   1.929  0.1731 -2.6738  1.0459
   82MOL0     H11023   6.764   0.832   2.093  0.5532 -0.8736 -0.9166
   82MOL0     H11024   6.640   1.075   1.982 -1.7789  0.7511  2.0421
   82MOL0     H11025   6.575   0.954   2.108  2.4790 -0.2636  1.4874
   82MOL0     H11026   6.595   0.908   1.803  1.0010 -1.8865  0.6220
   82MOL0     H11027   6.453   0.969   1.895 -0.2879  0.6465 -0.5671
   82MOL0     H11028   6.436   0.717   1.865  3.9156 -1.8752 -2.0164
   82MOL0     H11029   6.435   0.770   2.035  1.5156 -5.1578  1.8072
   82MOL0     H11030   6.810   0.530   2.024 -0.6180 -3.0767 -1.3960
   82MOL0     H11031   6.926   0.334   2.080  1.4957 -1.2149  1.3470
   82MOL0     H11032   6.919   0.323   2.258 -1.4179 -4.4886  1.1911
   82MOL0     H11033   6.830   0.211   2.167 -4.4569  1.1040 -0.9299
   82MOL0     H11034   6.456   0.062   2.566 -1.0435  0.7112 -4.0898
   82MOL0     H11035   6.506  -0.159   2.674  1.1311  1.9517  0.6960
   82MOL0     H11036   6.851  -0.286   2.805 -0.4696  0.2473 -0.2117
   82MOL0     H11037   6.678  -0.241   2.801  0.2089 -1.3136  2.5150
   82MOL0     H11038   6.660  -0.443   2.904  0.8753 -0.6392 -0.8311
   82MOL0     H11039   6.596  -0.472   2.744 -2.1984 -0.0333  0.6194
   82MOL0     H11040   6.887  -0.530   2.741 -0.4925  1.3052 -1.7611
   82MOL0     H11041   6.743  -0.600   2.677  2.5626  3.2205 -1.5365
   82MOL0     H11042   6.781  -0.617   2.984  1.4204 -0.9684  0.8014
   82MOL0     H11043   6.695  -0.723   2.882 -0.8308  1.4160  0.7006
   82MOL0     H11044   6.904  -0.815   2.976  1.8382 -0.4017 -0.1442
   82MOL0     H11045   6.988  -0.694   2.871 -0.5465  0.9290  3.5762
   82MOL0     H11046   6.778  -0.858   2.735 -1.2336  1.4642  5.8214
   82MOL0     H11047   6.942  -0.800   2.678  0.7282 -1.2401 -0.9960
   82MOL0     H11048   6.929  -1.038   2.679  1.9410  3.1554 -1.6613
   82MOL0     H11049   6.875  -1.039   2.855 -0.7305 -0.4525 -0.7988
   82MOL0     H11050   7.114  -0.973   2.907  0.1800  0.2745  0.5198
   82MOL0     H11051   7.140  -0.979   2.729 -2.1282  0.7633 -1.0425
   82MOL0     H11052   6.855  -0.197   2.397 -0.7371  0.7381 -1.2557
   82MOL0     H11053   6.765   0.026   2.287  0.8574  1.1578  0.2587
   82MOL0     H11054   6.421   0.412   2.313 -0.7245  0.6578 -0.3030
   82MOL0     H11055   6.390   0.575   2.137  0.9653  1.1253  1.7160
   82MOL0     H11056   7.692   2.086   2.467 -1.0074  0.2680  2.4378
   82MOL0     H11057   7.698   2.311   2.369 -1.7944  2.7288  1.0974
   82MOL0     H11058   7.573   2.618   2.085  0.0744  0.2462  1.6714
   82MOL0     H11059   7.607   2.831   1.994 -1.2690  2.2425 -1.3567
   82MOL0     H11060   7.292   3.162   2.080  0.4298 -2.4459  3.1710
   82MOL0     H11061   7.377   3.204   1.927 -0.5205  0.6181  2.3712
   82MOL0     H11062   7.254   2.949   1.875  1.1366 -0.1180  1.3524
   82MOL0     H11063   7.214   3.093   1.793  3.7093 -1.9915 -1.4924
   82MOL0     H11064   7.092   2.970   2.051  0.2823  0.5865  0.9902
   82MOL0     H11065   7.010   2.996   1.893  0.6970  0.8681 -1.8286
   82MOL0     H11066   7.068   3.213   2.084  0.6720 -3.0171  1.2693
   82MOL0     H11067   6.921   3.121   2.071  1.7319 -0.6130  3.8030
   82MOL0     H11068   6.941   3.405   1.748  4.6126  1.2868  1.0105
   82MOL0     H11069   7.243   2.952   2.206 -0.7634 -1.0292 -0.1375
   82MOL0     H11070   7.249   2.735   2.325 -0.1125 -1.5839  0.0972
   83MOL0     O11071   0.497   0.060   0.532 -0.8476 -0.0046  0.7240
   83MOL0     C11072   0.451   0.007   0.430  0.1531 -0.3373 -0.4219
   83MOL0     O11073   0.489   0.029   0.306 -0.1245  0.0960  0.6538
   83MOL0     C11074   0.572   0.133   0.298 -0.8416 -0.5168 -0.0720
   83MOL0     C11075   0.713   0.115   0.302 -0.2127 -0.7622 -0.0228
   83MOL0     C11076   0.791   0.230   0.269  0.3973 -0.3975  0.0580
   83MOL0     C11077   0.734   0.356   0.242 -0.1110  0.4763 -0.7021
   83MOL0     O11078   0.825   0.448   0.202 -0.7008  0.2584 -0.2050
   83MOL0     C11079   0.793   0.588   0.234 -0.0438  0.6941 -0.7323
   83MOL0     C11080   0.900   0.675   0.170 -0.0280  0.2314 -0.5195
   83MOL0     C11081   0.901   0.671   0.017 -0.5527  0.1796  0.0811
   83MOL0     C11082   0.771   0.714  -0.051 -0.2823  0.4613 -1.0006
   83MOL0     C11083   0.775   0.673  -0.198 -0.7722 -0.4998 -0.1140
   83MOL0     C11084   0.646   0.702  -0.271 -0.2000 -0.2774 -0.7253
   83MOL0     C11085   0.680   0.657  -0.412  0.3420  0.9489 -1.0298
   83MOL0     C11086   0.581   0.716  -0.514 -0.9019  0.4417 -0.6949
   83MOL0     N11087   0.438   0.675  -0.490 -0.3738  0.3173 -0.1315
   83MOL0     C11088   0.379   0.563  -0.547  0.4420 -0.5331  0.4516
   83MOL0     C11089   0.265   0.547  -0.471 -0.0058  0.0072  0.6459
   83MOL0     C11090   0.162   0.438  -0.478 -0.8772 -0.5223 -0.2852
   83MOL0     C11091   0.071   0.449  -0.603  0.4388  0.8700  0.0579
   83MOL0     C11092   0.004   0.317  -0.635 -0.0619 -0.4974  0.2275
   83MOL0     C11093  -0.088   0.251  -0.533 -0.9516 -0.1533  0.4267
   83MOL0     O11094  -0.000   0.192  -0.428  0.2320 -0.2664 -0.0758
   83MOL0     C11095  -0.058   0.124  -0.326 -0.4152 -0.1408 -0.0330
   83MOL0     C11096   0.024   0.050  -0.232 -1.0733 -0.5165 -0.6936
   83MOL0     C11097  -0.030  -0.027  -0.125  0.2163 -1.0304 -0.3846
   83MOL0     C11098   0.072  -0.097  -0.037  0.0378  0.1526  1.0272
   83MOL0     C11099  -0.167  -0.041  -0.113 -0.9158  0.0541 -0.1945
   83MOL0     C11100  -0.238  -0.122  -0.009 -0.1856 -0.7609  0.9535
   83MOL0     O11101  -0.360  -0.152  -0.040  0.5999  0.1476  0.5707
   83MOL0     C11102  -0.441  -0.253   0.009  0.4738 -1.3221  0.0105
   83MOL0     C11103  -0.392  -0.368   0.074 -0.5388 -0.6557 -0.4681
   83MOL0     C11104  -0.480  -0.451   0.143 -0.1594 -0.5569  0.5107
   83MOL0     C11105  -0.608  -0.421   0.157  1.1234  0.0414 -0.6767
   83MOL0     O11106  -0.685  -0.524   0.204 -1.0431 -0.0678  0.1766
   83MOL0     C11107  -0.822  -0.493   0.216  1.2563  0.6739 -0.2439
   83MOL0     C11108  -0.897  -0.627   0.258 -0.4999 -0.9884  0.1554
   83MOL0     C11109  -1.044  -0.584   0.242  0.2453 -0.4728 -0.7336
   83MOL0     C11110  -1.140  -0.701   0.227 -0.4635 -0.5705  0.6726
   83MOL0     C11111  -1.176  -0.780   0.351 -0.3432 -0.3847  0.3290
   83MOL0     C11112  -1.281  -0.897   0.329 -0.3253 -0.2686 -1.1668
   83MOL0     C11113  -1.327  -0.979   0.461  0.0573  0.1007 -1.4722
   83MOL0     C11114  -1.481  -0.999   0.477 -0.5060  0.4595 -0.3446
   83MOL0    Cl11115  -1.500  -1.081   0.632  0.6830 -0.1694  0.2187
   83MOL0     C11116  -0.655  -0.298   0.104 -0.9720  0.9005  0.0754
   83MOL0     C11117  -0.570  -0.218   0.029  1.1585 -0.6419  0.3174
   83MOL0     O11118  -0.178  -0.159   0.089  0.9924  0.5472  1.0082
   83MOL0     C11119  -0.245   0.029  -0.208 -0.6801 -0.7763  0.6666
   83MOL0     C11120  -0.193   0.104  -0.318  0.2006  0.3602  1.2668
   83MOL0     N11121   0.263   0.643  -0.374  0.3184 -0.2866 -0.0291
   83MOL0     N11122   0.358   0.717  -0.388 -0.2346  0.3905 -0.5077
   83MOL0     C11123   0.593   0.365   0.240 -0.2616  0.4625  0.5907
   83MOL0     C11124   0.514   0.259   0.276 -0.6628 -0.3577  0.5544
   83MOL0     C11125   0.335  -0.081   0.437 -0.4783  0.6505  0.8280
   83MOL0     C11126   0.285  -0.131   0.559  0.0165  0.1751  0.3639
   83MOL0     C11127   0.174  -0.208   0.565  0.4886 -0.4008  0.4151
   83MOL0     C11128   0.093  -0.219   0.454  1.0537  0.4984 -0.6178
   83MOL0     O11129  -0.028  -0.277   0.469  0.3911  0.6548 -0.6353
   83MOL0     C11130  -0.132  -0.250   0.365 -0.6457 -0.0961 -0.0397
   83MOL0     C11131  -0.278  -0.275   0.418  0.2578  0.4841  0.7941
   83MOL0     C11132  -0.306  -0.406   0.481  0.0110  0.0543  0.1604
   83MOL0     C11133  -0.430  -0.391   0.572 -0.0563  0.1642  0.1857
   83MOL0     C11134  -0.474  -0.516   0.626  0.5249  0.4038  0.3627
   83MOL0     C11135  -0.493  -0.626   0.681  0.5239  0.4342 -0.3436
   83MOL0     C11136   0.140  -0.171   0.332  0.6232 -0.0378 -1.0402
   83MOL0     C11137   0.264  -0.110   0.325  0.3140  0.7372 -0.3672
   83MOL0     H11138   0.763   0.022   0.326 -0.5566 -0.7435  0.7739
   83MOL0     H11139   0.899   0.224   0.271  0.5123  0.6350 -1.5822
   83MOL0     H11140   0.699   0.620   0.189  0.6574  1.9507 -1.3772
   83MOL0     H11141   0.805   0.600   0.342  2.9706  2.1757 -1.1068
   83MOL0     H11142   0.886   0.782   0.191 -0.1050 -0.1586  1.6886
   83MOL0     H11143   0.998   0.648   0.210 -0.8726 -0.2794  1.3579
   83MOL0     H11144   0.983   0.730  -0.025 -1.0742  0.9019  0.0568
   83MOL0     H11145   0.908   0.565  -0.008 -0.9696  0.5322 -1.6580
   83MOL0     H11146   0.684   0.674   0.002 -0.8355  3.7871  0.8623
   83MOL0     H11147   0.749   0.819  -0.032 -1.9745  0.0158 -0.2745
   83MOL0     H11148   0.859   0.723  -0.246  1.3983 -3.5854  0.1481
   83MOL0     H11149   0.808   0.569  -0.203  4.4196  0.9150 -0.9463
   83MOL0     H11150   0.571   0.634  -0.229 -1.4196  1.1241 -0.5146
   83MOL0     H11151   0.613   0.805  -0.252  2.0898 -0.0081  2.8419
   83MOL0     H11152   0.777   0.695  -0.447  0.6767  3.6000  2.2494
   83MOL0     H11153   0.676   0.550  -0.433  0.5301  0.8897 -0.7645
   83MOL0     H11154   0.623   0.689  -0.612  2.6408 -0.4386  0.8791
   83MOL0     H11155   0.590   0.823  -0.493  0.8776 -0.1601  2.0294
   83MOL0     H11156   0.413   0.505  -0.631  1.4277 -1.6660  1.5925
   83MOL0     H11157   0.202   0.337  -0.489  0.8001  0.0963 -0.2040
   83MOL0     H11158   0.091   0.422  -0.397 -2.0167 -1.7620 -1.4925
   83MOL0     H11159   0.143   0.456  -0.685  0.1176 -2.8646 -0.7099
   83MOL0     H11160  -0.009   0.523  -0.593 -1.8252 -1.2095 -1.4794
   83MOL0     H11161   0.081   0.244  -0.663 -0.2845 -0.9950  0.8918
   83MOL0     H11162  -0.045   0.342  -0.730  0.7128  1.1007  0.2124
   83MOL0     H11163  -0.140   0.168  -0.583 -0.6657  1.6907 -3.2505
   83MOL0     H11164  -0.152   0.332  -0.495  1.6195  2.2456 -0.0493
   83MOL0     H11165   0.132   0.051  -0.242 -1.1326  0.0921 -1.3160
   83MOL0     H11166   0.179  -0.083  -0.055  0.3911 -1.9125  1.3810
   83MOL0     H11167   0.057  -0.084   0.071 -0.8014  0.0375  0.9281
   83MOL0     H11168   0.050  -0.202  -0.053 -1.0160 -0.0189  3.2067
   83MOL0     H11169  -0.284  -0.376   0.067  0.2865  5.6970 -1.4208
   83MOL0     H11170  -0.449  -0.544   0.190 -0.8229 -1.7695 -1.3409
   83MOL0     H11171  -0.846  -0.424   0.298  1.3164 -1.3513  1.5814
   83MOL0     H11172  -0.867  -0.452   0.126 -3.0624 -0.5568  1.0958
   83MOL0     H11173  -0.876  -0.711   0.192 -2.3300 -0.3893 -1.2876
   83MOL0     H11174  -0.891  -0.658   0.363 -0.5500  0.0387  0.4722
   83MOL0     H11175  -1.058  -0.523   0.152  2.6753  0.7687 -0.3373
   83MOL0     H11176  -1.082  -0.519   0.322  3.8260  1.3832 -0.3218
   83MOL0     H11177  -1.236  -0.669   0.186 -1.0383 -2.8746  0.0774
   83MOL0     H11178  -1.092  -0.771   0.157  1.7180 -2.7071  4.0048
   83MOL0     H11179  -1.205  -0.711   0.431  3.3090  2.4538 -0.5347
   83MOL0     H11180  -1.085  -0.833   0.379  0.8231  0.0277 -2.3243
   83MOL0     H11181  -1.359  -0.840   0.278 -1.6369  0.0225  1.0269
   83MOL0     H11182  -1.234  -0.971   0.264  2.1139  1.1165 -1.1076
   83MOL0     H11183  -1.296  -0.935   0.556  2.6931  0.6228 -2.5076
   83MOL0     H11184  -1.280  -1.076   0.442  2.2136  1.7164 -5.4500
   83MOL0     H11185  -1.509  -1.062   0.392  3.8270 -1.9576 -0.2467
   83MOL0     H11186  -1.537  -0.905   0.475 -0.5062  0.5657 -4.7098
   83MOL0     H11187  -0.762  -0.280   0.106 -1.1749 -0.1402 -0.7654
   83MOL0     H11188  -0.609  -0.128  -0.018  0.2376 -1.4482 -0.5148
   83MOL0     H11189  -0.354   0.031  -0.207 -0.7885 -2.3952 -1.7908
   83MOL0     H11190  -0.269   0.138  -0.387 -1.1349 -0.1920  2.4300
   83MOL0     H11191   0.538   0.456   0.216 -1.5864 -0.3570  0.4064
   83MOL0     H11192   0.405   0.265   0.268 -0.4573  1.2848 -2.4985
   83MOL0     H11193   0.325  -0.103   0.656 -0.1219  1.8205 -0.0246
   83MOL0     H11194   0.134  -0.248   0.657 -1.4186  2.6407  1.0114
   83MOL0     H11195  -0.130  -0.145   0.334 -2.2102 -0.1558 -0.4528
   83MOL0     H11196  -0.110  -0.319   0.282 -1.4331 -3.4110  2.2878
   83MOL0     H11197  -0.350  -0.263   0.336 -0.1409 -0.4126  0.9989
   83MOL0     H11198  -0.303  -0.194   0.487  2.4130  0.4076  1.7245
   83MOL0     H11199  -0.222  -0.430   0.548  0.1694  1.0890  0.3552
   83MOL0     H11200  -0.325  -0.476   0.399  2.1269 -0.8502  0.3656
   83MOL0     H11201  -0.508  -0.344   0.512  2.3975  3.8231 -0.4470
   83MOL0     H11202  -0.391  -0.335   0.658 -1.1402  1.8102 -0.3613
   83MOL0     H11203  -0.523  -0.706   0.745 -0.1110  1.5209  0.7677
   83MOL0     H11204   0.081  -0.174   0.241 -0.7142  1.1165 -0.2578
   83MOL0     H11205   0.293  -0.071   0.227  1.7360  1.6586  0.3865
   84MOL0     O11206   4.567   8.016   7.745 -0.0290 -0.0866  0.3307
   84MOL0     C11207   4.623   7.918   7.797  0.4494  1.3716  0.0406
   84MOL0     O11208   4.659   7.800   7.736 -0.0971  0.0027  0.2326
   84MOL0     C11209   4.683   7.787   7.600  1.7582 -0.3080 -0.0483
   84MOL0     C11210   4.718   7.897   7.518  0.4371 -0.1153 -1.2203
   84MOL0     C11211   4.762   7.865   7.388  0.0847 -0.1543 -1.4505
   84MOL0     C11212   4.770   7.738   7.334 -0.1018 -0.4753 -0.2583
   84MOL0     O11213   4.800   7.695   7.213  0.2137  0.2836 -0.0061
   84MOL0     C11214   4.891   7.761   7.128  0.3071  0.2779 -0.7393
   84MOL0     C11215   4.881   7.699   7.001 -0.3090  0.4835  0.6932
   84MOL0     C11216   4.891   7.546   6.982 -0.2000  0.0810  0.2041
   84MOL0     C11217   4.902   7.491   6.841  0.3230 -1.3400  0.5846
   84MOL0     C11218   4.757   7.478   6.792 -0.3148 -0.1968  0.1061
   84MOL0     C11219   4.773   7.444   6.640 -0.3816  0.3874 -0.3679
   84MOL0     C11220   4.653   7.470   6.550 -0.3457 -0.5658  0.5942
   84MOL0     C11221   4.688   7.429   6.406  0.1142 -0.7255  0.5498
   84MOL0     N11222   4.581   7.439   6.303  0.3041  0.0567  0.6439
   84MOL0     C11223   4.502   7.342   6.253 -0.0468 -0.3161 -0.2842
   84MOL0     C11224   4.401   7.413   6.191 -0.6540  0.0444  0.0106
   84MOL0     C11225   4.309   7.346   6.107 -1.0141 -0.7093 -0.6192
   84MOL0     C11226   4.336   7.366   5.956  0.4032 -0.2945  0.0500
   84MOL0     C11227   4.233   7.287   5.870  0.5063 -0.6269  0.9867
   84MOL0     C11228   4.272   7.142   5.850 -0.9043 -0.5439 -0.6875
   84MOL0     O11229   4.261   7.077   5.979  0.1114  0.1861  0.1508
   84MOL0     C11230   4.298   6.941   5.983 -0.9905  0.6167 -0.6918
   84MOL0     C11231   4.321   6.893   6.115  0.5799 -0.9922  0.6615
   84MOL0     C11232   4.375   6.766   6.139 -0.9785  0.1676 -0.1460
   84MOL0     C11233   4.394   6.722   6.280 -0.0394  0.1826  0.4524
   84MOL0     C11234   4.419   6.690   6.032  0.4512 -0.8330  0.8925
   84MOL0     C11235   4.483   6.557   6.045  0.1806  0.2452  0.2288
   84MOL0     O11236   4.399   6.455   6.028 -0.6035  0.5948 -0.1562
   84MOL0     C11237   4.438   6.322   6.059  0.5791  0.1691  0.0998
   84MOL0     C11238   4.530   6.285   6.160 -0.4060  0.1321  0.2433
   84MOL0     C11239   4.567   6.151   6.169  0.2219 -0.0667 -0.7779
   84MOL0     C11240   4.514   6.050   6.084  0.4316  0.4837 -1.3311
   84MOL0     O11241   4.585   5.928   6.092  0.2980  0.0433 -0.2076
   84MOL0     C11242   4.524   5.801   6.051  0.0987  0.3183 -0.1358
   84MOL0     C11243   4.600   5.683   6.102  0.6822  0.1645  0.4257
   84MOL0     C11244   4.525   5.554   6.061  0.6530 -0.0604 -0.1899
   84MOL0     C11245   4.594   5.421   6.113 -0.7182 -0.1470  0.0415
   84MOL0     C11246   4.528   5.294   6.064 -0.5679  0.2592  0.6950
   84MOL0     C11247   4.515   5.272   5.915 -1.1225  0.1904 -1.2117
   84MOL0     C11248   4.464   5.135   5.866 -1.1275 -1.2611 -0.1632
   84MOL0     C11249   4.311   5.144   5.891  0.7626  0.2551  0.2189
   84MOL0    Cl11250   4.203   5.259   5.796 -0.2458 -0.1126 -0.1227
   84MOL0     C11251   4.415   6.087   5.991  0.4169  0.5689 -0.8174
   84MOL0     C11252   4.377   6.219   5.976  0.2839 -0.9449 -0.6790
   84MOL0     O11253   4.603   6.541   6.071  0.9706 -1.2087  0.5738
   84MOL0     C11254   4.383   6.739   5.901 -0.3304  0.8903  1.2651
   84MOL0     C11255   4.320   6.859   5.878  0.4136  0.5078  0.6055
   84MOL0     N11256   4.435   7.548   6.197 -0.6676 -0.0080 -0.1930
   84MOL0     N11257   4.536   7.563   6.270 -0.0736  0.4120  0.3528
   84MOL0     C11258   4.735   7.638   7.413  0.3310  0.3132 -0.7803
   84MOL0     C11259   4.700   7.654   7.546  0.5801 -0.8398 -0.2349
   84MOL0     C11260   4.615   7.915   7.946 -0.9125  0.1242  0.4035
   84MOL0     C11261   4.571   8.028   8.012 -0.0549  0.2929 -0.1275
   84MOL0     C11262   4.570   8.036   8.154 -0.1291  0.5730 -0.2992
   84MOL0     C11263   4.606   7.923   8.227 -0.1284  0.0723  0.4184
   84MOL0     O11264   4.594   7.919   8.364  1.2573 -0.0865 -0.0930
   84MOL0     C11265   4.661   8.023   8.434  0.3334 -0.5808  0.5282
   84MOL0     C11266   4.690   7.982   8.582  0.0009  0.4781 -0.3030
   84MOL0     C11267   4.757   7.848   8.569 -0.8226 -0.1479 -0.3416
   84MOL0     C11268   4.879   7.828   8.468  0.1402 -0.2699 -0.3747
   84MOL0     C11269   4.988   7.928   8.483  0.6268  0.6786 -0.0415
   84MOL0     C11270   5.065   8.017   8.481  0.1395  0.3402  0.2264
   84MOL0     C11271   4.648   7.810   8.155  0.4754 -0.5227  0.2083
   84MOL0     C11272   4.658   7.799   8.015  0.0965 -0.1556 -0.0320
   84MOL0     H11273   4.717   7.998   7.559 -1.2687  0.0863 -1.6772
   84MOL0     H11274   4.775   7.952   7.325  0.7410  0.4472 -0.5208
   84MOL0     H11275   4.864   7.867   7.124  0.8243  0.3753 -3.4353
   84MOL0     H11276   4.994   7.748   7.164  1.0753  1.5754 -2.3779
   84MOL0     H11277   4.779   7.712   6.965 -0.3928  2.7292  1.5347
   84MOL0     H11278   4.948   7.742   6.926 -2.0629  0.5982 -0.8821
   84MOL0     H11279   4.981   7.518   7.037 -0.9484  2.5841  2.9723
   84MOL0     H11280   4.815   7.493   7.040 -0.3246 -0.5835 -0.5463
   84MOL0     H11281   4.957   7.565   6.784  0.4468  1.8998  4.4705
   84MOL0     H11282   4.961   7.399   6.841  1.7094 -0.5005 -0.7509
   84MOL0     H11283   4.696   7.411   6.852 -0.1609  2.6117  3.6886
   84MOL0     H11284   4.702   7.572   6.802  1.1848  0.4141  4.9152
   84MOL0     H11285   4.852   7.511   6.605  1.8121  0.1498  3.5598
   84MOL0     H11286   4.797   7.339   6.622  2.4339  0.4887  2.0444
   84MOL0     H11287   4.562   7.435   6.600  1.5642 -1.2894  3.7728
   84MOL0     H11288   4.640   7.578   6.540  0.0433 -0.2090  3.2541
   84MOL0     H11289   4.723   7.326   6.397  1.7026 -0.0459 -2.7265
   84MOL0     H11290   4.775   7.485   6.370 -0.1568  0.9129  2.2581
   84MOL0     H11291   4.515   7.236   6.272  2.0917 -0.1110 -0.3649
   84MOL0     H11292   4.294   7.240   6.130  0.1847 -1.1590 -1.7477
   84MOL0     H11293   4.211   7.387   6.131 -1.2859 -1.8374  0.2979
   84MOL0     H11294   4.428   7.324   5.914  0.7598 -0.3026  0.8288
   84MOL0     H11295   4.333   7.472   5.932  0.1591  0.0439  1.4710
   84MOL0     H11296   4.230   7.330   5.770 -2.2365 -0.9182  0.8667
   84MOL0     H11297   4.131   7.295   5.911 -0.2581 -0.5505 -0.8537
   84MOL0     H11298   4.375   7.134   5.814 -0.6010  0.2986 -0.0452
   84MOL0     H11299   4.205   7.099   5.774  0.7425  1.1308 -3.2615
   84MOL0     H11300   4.288   6.947   6.203  1.0891  0.4255  0.0035
   84MOL0     H11301   4.345   6.796   6.343 -2.9341 -0.3487 -1.0245
   84MOL0     H11302   4.333   6.632   6.290 -1.1473  0.8213 -0.3706
   84MOL0     H11303   4.498   6.715   6.313  1.3485  1.0811 -3.1892
   84MOL0     H11304   4.591   6.354   6.218 -2.9859  1.7762  1.1731
   84MOL0     H11305   4.639   6.102   6.234  0.9594 -0.2404 -1.6985
   84MOL0     H11306   4.423   5.784   6.087  1.2264 -2.2445  2.1790
   84MOL0     H11307   4.540   5.796   5.943  0.3077  0.1683 -0.0982
   84MOL0     H11308   4.698   5.671   6.054  0.9776 -0.1115  1.0882
   84MOL0     H11309   4.607   5.688   6.211 -0.1182  0.3262  0.4768
   84MOL0     H11310   4.528   5.546   5.952  0.6767 -1.5134 -0.1031
   84MOL0     H11311   4.421   5.562   6.093  0.0224 -1.8525 -1.6172
   84MOL0     H11312   4.702   5.425   6.093 -0.3797 -1.6837  1.3411
   84MOL0     H11313   4.574   5.419   6.220  0.2920 -1.4270  0.2325
   84MOL0     H11314   4.428   5.290   6.107 -0.3388 -0.6732  1.1609
   84MOL0     H11315   4.587   5.209   6.099  1.7901  2.0348  1.2691
   84MOL0     H11316   4.465   5.358   5.870 -3.3554  0.3399  1.2905
   84MOL0     H11317   4.618   5.257   5.883 -0.3881 -0.8458  1.3805
   84MOL0     H11318   4.510   5.061   5.932 -2.1173 -0.3277  1.6600
   84MOL0     H11319   4.491   5.128   5.761 -0.9996 -1.5371 -0.1134
   84MOL0     H11320   4.308   5.172   5.997  0.7360 -0.0731  0.3056
   84MOL0     H11321   4.251   5.055   5.871  0.5823  0.6208 -0.9628
   84MOL0     H11322   4.356   6.019   5.930  0.4486 -2.7215  2.4765
   84MOL0     H11323   4.300   6.255   5.909  0.7440 -2.0291 -1.8326
   84MOL0     H11324   4.402   6.681   5.811 -2.9834  0.6630  0.7779
   84MOL0     H11325   4.298   6.893   5.778  1.2035 -0.3803  0.1155
   84MOL0     H11326   4.755   7.539   7.371  1.9610  1.0342 -1.7920
   84MOL0     H11327   4.678   7.576   7.619  0.8938 -0.1369  0.6284
   84MOL0     H11328   4.538   8.123   7.972 -0.0440  0.1314 -0.5227
   84MOL0     H11329   4.541   8.132   8.196  0.0391  2.1770 -3.5236
   84MOL0     H11330   4.753   8.048   8.380  0.7781 -4.1536 -0.6030
   84MOL0     H11331   4.608   8.119   8.441  2.3448  0.7311 -0.9396
   84MOL0     H11332   4.610   7.993   8.656  0.6359  0.5642  0.3763
   84MOL0     H11333   4.768   8.047   8.621  1.1871 -1.6652  1.0375
   84MOL0     H11334   4.687   7.765   8.553 -1.4638  0.0138  1.4423
   84MOL0     H11335   4.789   7.821   8.670  2.5880 -1.0649 -1.5351
   84MOL0     H11336   4.863   7.837   8.360  3.8587 -0.0766 -1.0584
   84MOL0     H11337   4.926   7.731   8.485 -2.7710 -1.7360 -0.0717
   84MOL0     H11338   5.123   8.106   8.469 -0.6991  0.7550 -0.8499
   84MOL0     H11339   4.687   7.722   8.205  1.6108 -1.3016 -1.8922
   84MOL0     H11340   4.685   7.703   7.972 -1.0469 -0.3421 -0.3606
   85MOL0     O11341   3.987  10.565   1.857  0.2939  1.0563 -1.0463
   85MOL0     C11342   4.076  10.535   1.780  0.0069 -0.3014 -0.3493
   85MOL0     O11343   4.082  10.426   1.701  0.3828 -0.5442 -0.6385
   85MOL0     C11344   3.997  10.306   1.717 -0.3099  1.3605  1.3131
   85MOL0     C11345   4.004  10.213   1.602  0.7260  0.2947  0.4031
   85MOL0     C11346   3.912  10.108   1.587 -0.8206  0.3634  0.9608
   85MOL0     C11347   3.803  10.096   1.668 -0.4084  0.0963 -0.3166
   85MOL0     O11348   3.693  10.013   1.654  0.4199  0.3695  0.1452
   85MOL0     C11349   3.731   9.879   1.656  0.0983  0.2058 -0.3189
   85MOL0     C11350   3.658   9.801   1.767 -1.2297  0.6906  0.2260
   85MOL0     C11351   3.504   9.829   1.746 -0.6593 -0.1631 -0.6504
   85MOL0     C11352   3.420   9.703   1.773 -0.1124 -0.5676  0.5843
   85MOL0     C11353   3.395   9.687   1.925 -0.0010  0.2820 -0.3803
   85MOL0     C11354   3.334   9.549   1.975 -0.0513 -0.3354 -0.0013
   85MOL0     C11355   3.422   9.425   1.940 -0.5312  0.5624  1.0742
   85MOL0     C11356   3.562   9.434   1.977 -0.0766 -1.0919 -0.3984
   85MOL0     N11357   3.642   9.318   1.933 -0.1628 -0.6905 -0.0130
   85MOL0     C11358   3.604   9.215   1.860  0.3582  0.0183  0.1746
   85MOL0     C11359   3.697   9.170   1.781  0.8960  0.4817 -0.3248
   85MOL0     C11360   3.695   9.055   1.680  0.1760  0.3733 -0.5050
   85MOL0     C11361   3.560   9.024   1.614 -0.4853 -0.3630  0.7942
   85MOL0     C11362   3.532   9.126   1.497  0.4283  0.0159  0.3377
   85MOL0     C11363   3.601   9.084   1.369  0.1453  1.0435  0.8858
   85MOL0     O11364   3.531   8.962   1.313 -0.2086 -0.5199  0.3801
   85MOL0     C11365   3.543   8.947   1.179 -0.0434  0.3887 -0.0199
   85MOL0     C11366   3.422   8.948   1.109 -0.9914 -0.2344 -0.4564
   85MOL0     C11367   3.421   8.938   0.971 -0.5288 -0.1880  0.2180
   85MOL0     C11368   3.292   8.896   0.908 -0.2929  0.2275 -0.1860
   85MOL0     C11369   3.547   8.947   0.899 -0.5166 -0.0225  0.0200
   85MOL0     C11370   3.560   8.950   0.748 -0.5200 -0.3441  0.3330
   85MOL0     O11371   3.681   8.919   0.689  0.0346  0.2204  0.8129
   85MOL0     C11372   3.692   8.931   0.551 -0.1660  0.6269  0.0057
   85MOL0     C11373   3.619   8.854   0.456 -0.1470  0.3687 -0.2221
   85MOL0     C11374   3.637   8.884   0.321  0.1973  0.2799 -1.5767
   85MOL0     C11375   3.714   8.990   0.281 -1.1218  0.4914  0.1612
   85MOL0     O11376   3.709   9.010   0.145 -0.3990 -0.9089  0.8908
   85MOL0     C11377   3.734   9.145   0.092  0.0774 -0.2187 -0.4651
   85MOL0     C11378   3.871   9.145   0.022  0.1089 -0.4041 -0.4960
   85MOL0     C11379   3.867   9.049  -0.109  0.2538 -0.8104  0.8530
   85MOL0     C11380   3.982   8.955  -0.141  0.2705  0.0705 -0.2273
   85MOL0     C11381   3.943   8.847  -0.247  0.2588  0.9185 -0.2347
   85MOL0     C11382   4.074   8.784  -0.304  0.4349  0.1616 -0.5158
   85MOL0     C11383   4.057   8.703  -0.434  0.2127 -0.0191  0.9913
   85MOL0     C11384   4.179   8.621  -0.442  0.5331 -0.3809  0.3048
   85MOL0    Cl11385   4.178   8.514  -0.595 -0.4265 -0.5667  0.1941
   85MOL0     C11386   3.801   9.052   0.371  0.8165  0.1486 -0.3408
   85MOL0     C11387   3.782   9.030   0.506 -0.1609  0.1511  0.4110
   85MOL0     O11388   3.466   8.983   0.687  0.3226  0.2398 -0.2134
   85MOL0     C11389   3.662   8.973   0.976 -0.5872  0.2745 -0.6526
   85MOL0     C11390   3.657   8.965   1.111 -0.6911 -0.0577  0.0260
   85MOL0     N11391   3.805   9.250   1.808 -0.5057 -0.0366 -0.7546
   85MOL0     N11392   3.778   9.330   1.909  0.3763  1.0132 -0.1470
   85MOL0     C11393   3.803  10.171   1.786  0.4538  0.0027  0.0085
   85MOL0     C11394   3.898  10.273   1.820  0.2344  1.4373 -0.4001
   85MOL0     C11395   4.187  10.630   1.770  0.1318  0.4134 -0.2185
   85MOL0     C11396   4.195  10.727   1.871 -0.0048 -1.1462 -0.9733
   85MOL0     C11397   4.312  10.810   1.871  0.2380  0.9973  0.7761
   85MOL0     C11398   4.412  10.800   1.778 -0.8323 -0.7002 -0.3545
   85MOL0     O11399   4.530  10.872   1.778  0.0368 -0.0382 -0.3156
   85MOL0     C11400   4.548  10.991   1.839  0.2615 -0.4374 -0.4285
   85MOL0     C11401   4.689  11.033   1.846 -0.3608  0.3093  0.0110
   85MOL0     C11402   4.739  11.098   1.722  1.3350  0.0407  0.3592
   85MOL0     C11403   4.769  11.007   1.604  1.3240 -0.7545 -0.4151
   85MOL0     C11404   4.837  11.073   1.495 -0.0740  0.5212  1.0470
   85MOL0     C11405   4.903  11.138   1.418  0.4297 -0.0383 -0.3122
   85MOL0     C11406   4.397  10.701   1.673 -0.2620 -0.7261  0.5908
   85MOL0     C11407   4.289  10.618   1.678  0.0337  0.1816  0.3774
   85MOL0     H11408   4.080  10.222   1.525  0.6167  2.0960  0.4624
   85MOL0     H11409   3.920  10.056   1.492 -0.8455  0.7492  0.7454
   85MOL0     H11410   3.720   9.839   1.555 -1.7809  1.4134 -0.6464
   85MOL0     H11411   3.834   9.882   1.691 -0.3200  2.2627  0.9018
   85MOL0     H11412   3.680   9.694   1.772 -1.4509  0.6289 -0.0618
   85MOL0     H11413   3.696   9.833   1.865  0.1742 -1.3640  0.4182
   85MOL0     H11414   3.467   9.901   1.820 -0.3076 -0.2117 -0.4189
   85MOL0     H11415   3.456   9.877   1.661 -1.9749  0.0818  0.2151
   85MOL0     H11416   3.325   9.720   1.723  0.9917 -0.6306 -1.6232
   85MOL0     H11417   3.457   9.610   1.730 -3.9345 -2.0953  0.1978
   85MOL0     H11418   3.488   9.711   1.977  1.0547 -0.1376 -2.0027
   85MOL0     H11419   3.322   9.763   1.954  0.3319  0.7580 -0.7711
   85MOL0     H11420   3.327   9.552   2.084 -0.4871  1.9023 -0.0510
   85MOL0     H11421   3.233   9.525   1.943 -0.2753 -1.2450  1.2854
   85MOL0     H11422   3.384   9.338   1.994 -0.6987  0.5978  1.0119
   85MOL0     H11423   3.411   9.408   1.832 -0.7702 -3.3828  1.5806
   85MOL0     H11424   3.566   9.451   2.085  1.2677  1.7928 -0.8091
   85MOL0     H11425   3.599   9.526   1.931 -1.4769 -1.0466 -1.5043
   85MOL0     H11426   3.503   9.175   1.859 -0.4166  1.8157  1.2316
   85MOL0     H11427   3.766   9.089   1.605 -0.8071  1.8025 -0.8408
   85MOL0     H11428   3.729   8.968   1.736  4.3603  3.1893  1.9206
   85MOL0     H11429   3.481   9.045   1.687  0.5626  2.9840  1.1311
   85MOL0     H11430   3.568   8.919   1.587  3.1112  0.5209 -2.4154
   85MOL0     H11431   3.563   9.228   1.518  2.6868 -0.1355 -1.7733
   85MOL0     H11432   3.423   9.120   1.488  0.3024  1.4666  0.7071
   85MOL0     H11433   3.699   9.047   1.401 -0.5057 -1.8580 -0.1090
   85MOL0     H11434   3.611   9.166   1.298  0.3387 -0.6286 -1.1221
   85MOL0     H11435   3.326   8.955   1.159  0.5869 -0.1308  2.8347
   85MOL0     H11436   3.212   8.970   0.921  2.7313  3.7212  0.1196
   85MOL0     H11437   3.305   8.855   0.807 -0.0770  1.2006 -0.5649
   85MOL0     H11438   3.266   8.806   0.964 -1.1004  1.3849  1.4108
   85MOL0     H11439   3.548   8.778   0.487  0.3716  0.7506  2.1009
   85MOL0     H11440   3.575   8.828   0.252 -2.9354  0.5943  0.7923
   85MOL0     H11441   3.656   9.175   0.022 -1.7265  0.3089  1.6543
   85MOL0     H11442   3.724   9.215   0.176 -0.6780 -2.0768  1.0639
   85MOL0     H11443   3.899   9.245  -0.014  0.7365  0.2714  1.6977
   85MOL0     H11444   3.947   9.112   0.094 -0.3835 -2.7005 -0.9381
   85MOL0     H11445   3.860   9.121  -0.191 -0.5100 -0.0741  1.5360
   85MOL0     H11446   3.772   8.994  -0.111 -0.1262 -0.1629 -0.7783
   85MOL0     H11447   4.058   9.022  -0.181 -0.3307  1.1628  0.3904
   85MOL0     H11448   4.021   8.912  -0.048  0.4067 -0.0362 -0.3344
   85MOL0     H11449   3.884   8.898  -0.323 -0.2988  0.8203  0.1247
   85MOL0     H11450   3.886   8.764  -0.205 -1.2534  0.7111 -2.5124
   85MOL0     H11451   4.149   8.864  -0.300 -0.6562  1.1910 -0.1276
   85MOL0     H11452   4.117   8.711  -0.235 -2.1806 -2.1150 -1.1421
   85MOL0     H11453   4.046   8.773  -0.518 -4.3124  0.4717  1.7239
   85MOL0     H11454   3.968   8.640  -0.426  0.3013 -0.8441 -2.6579
   85MOL0     H11455   4.180   8.541  -0.367  1.0255  0.7015  1.4857
   85MOL0     H11456   4.273   8.674  -0.427  0.2430 -0.4172  2.4436
   85MOL0     H11457   3.871   9.130   0.345 -4.0583  4.5947 -1.9290
   85MOL0     H11458   3.836   9.087   0.581  2.3311  0.9907 -1.8887
   85MOL0     H11459   3.764   8.984   0.940  0.1942  0.7007  1.5108
   85MOL0     H11460   3.757   8.968   1.153 -0.0245 -0.0334 -1.5041
   85MOL0     H11461   3.716  10.171   1.851 -1.1203 -2.1281 -1.9327
   85MOL0     H11462   3.867  10.334   1.905  0.2491  1.2094 -0.2325
   85MOL0     H11463   4.117  10.744   1.944  1.3470  3.1014 -0.1955
   85MOL0     H11464   4.322  10.886   1.948  1.1286  0.7893  0.8821
   85MOL0     H11465   4.496  11.076   1.794 -0.3168 -0.0583  0.8948
   85MOL0     H11466   4.511  10.991   1.943  1.4179  1.4891  0.0284
   85MOL0     H11467   4.757  10.949   1.860  0.6596  0.5091 -2.9805
   85MOL0     H11468   4.710  11.095   1.934 -1.8324 -2.3372  2.3914
   85MOL0     H11469   4.836  11.141   1.751  1.1434 -0.2650  1.5186
   85MOL0     H11470   4.671  11.181   1.701 -1.3087 -2.6515 -3.0044
   85MOL0     H11471   4.676  10.966   1.562  0.6723  0.1209  0.1362
   85MOL0     H11472   4.832  10.928   1.643  0.9841 -0.0573  1.6562
   85MOL0     H11473   4.953  11.180   1.332 -1.0546  0.1419 -1.1245
   85MOL0     H11474   4.483  10.711   1.608  0.3284  1.5864  1.6005
   85MOL0     H11475   4.282  10.530   1.614  2.7449  1.2496 -1.5697
   86MOL0     O11476   2.639   8.027   9.287  0.6451  0.1451 -0.1152
   86MOL0     C11477   2.602   7.980   9.178  0.1565 -0.3278 -0.0669
   86MOL0     O11478   2.537   8.052   9.085 -0.3594  0.5064  0.2693
   86MOL0     C11479   2.483   8.167   9.105 -0.2176  0.6050  0.0684
   86MOL0     C11480   2.566   8.280   9.109  0.7971 -0.7468 -1.0020
   86MOL0     C11481   2.508   8.404   9.162 -0.3462  1.5929  0.4797
   86MOL0     C11482   2.378   8.413   9.199 -0.0262  0.1787  0.7657
   86MOL0     O11483   2.312   8.531   9.225 -0.2138  0.1263  0.0170
   86MOL0     C11484   2.393   8.644   9.246 -0.7771 -1.0458 -0.3496
   86MOL0     C11485   2.322   8.776   9.274 -0.2167  0.0608 -0.2176
   86MOL0     C11486   2.388   8.909   9.241  0.1773  0.1414 -1.1720
   86MOL0     C11487   2.534   8.919   9.306 -0.7534  0.1295  0.3781
   86MOL0     C11488   2.574   9.065   9.333 -0.6407 -0.3465  0.4586
   86MOL0     C11489   2.479   9.129   9.446  0.6869 -0.2315 -0.4944
   86MOL0     C11490   2.549   9.247   9.522  0.6651 -0.1549  0.4866
   86MOL0     C11491   2.592   9.350   9.421  0.3072  0.4789 -0.5025
   86MOL0     N11492   2.646   9.469   9.481 -0.0328  1.1611 -0.2350
   86MOL0     C11493   2.718   9.569   9.415 -0.4376  0.5088 -0.2625
   86MOL0     C11494   2.760   9.649   9.506 -0.3311 -0.0614 -0.3369
   86MOL0     C11495   2.861   9.764   9.497 -0.0046 -1.0483  0.2634
   86MOL0     C11496   3.000   9.714   9.489 -0.1896  1.1540  0.0228
   86MOL0     C11497   3.095   9.830   9.494 -0.0917 -0.4062  0.9405
   86MOL0     C11498   3.240   9.798   9.448  0.6871 -0.4262 -0.2560
   86MOL0     O11499   3.329   9.912   9.447  0.3200  0.1497 -0.0051
   86MOL0     C11500   3.444   9.918   9.372  0.0562  0.0945 -0.0541
   86MOL0     C11501   3.480   9.819   9.278  0.1190  0.1236 -0.0066
   86MOL0     C11502   3.582   9.842   9.181 -0.2192 -1.3290 -0.1520
   86MOL0     C11503   3.587   9.737   9.075 -0.1065  0.4182  0.9982
   86MOL0     C11504   3.662   9.967   9.194  0.9321  0.3835 -0.0372
   86MOL0     C11505   3.767  10.011   9.098 -0.1465 -0.5982 -1.0733
   86MOL0     O11506   3.821  10.136   9.122 -0.0578  0.6107 -0.3566
   86MOL0     C11507   3.919  10.169   9.032  0.2407 -0.5758  0.2945
   86MOL0     C11508   3.911  10.282   8.946 -0.8495 -0.5846 -0.3982
   86MOL0     C11509   4.015  10.307   8.856  0.0453  0.8882  0.6556
   86MOL0     C11510   4.140  10.231   8.867  0.7382 -0.6453  1.8534
   86MOL0     O11511   4.240  10.258   8.773 -0.5469 -0.6539 -0.0875
   86MOL0     C11512   4.260  10.144   8.684  0.0553  0.9746 -1.2224
   86MOL0     C11513   4.407  10.118   8.642  0.7975 -0.3540  1.1000
   86MOL0     C11514   4.470   9.995   8.716  0.8823 -0.6195  0.8517
   86MOL0     C11515   4.614   9.989   8.703 -0.9518  0.3640 -0.2889
   86MOL0     C11516   4.680   9.885   8.797  0.3514 -0.3966 -0.0539
   86MOL0     C11517   4.827   9.920   8.794 -0.0721  0.0857 -0.6216
   86MOL0     C11518   4.908   9.837   8.892 -0.0314  0.2778 -0.6412
   86MOL0     C11519   5.044   9.902   8.933  0.3203  0.7282  0.5891
   86MOL0    Cl11520   5.147   9.908   8.791  0.1106 -0.2751 -0.3125
   86MOL0     C11521   4.144  10.124   8.957 -1.1766 -0.2899  0.1346
   86MOL0     C11522   4.045  10.096   9.042 -0.0338 -0.3581 -1.2766
   86MOL0     O11523   3.807   9.916   9.025 -0.8494 -0.3944  0.3837
   86MOL0     C11524   3.626  10.054   9.297 -1.1582  0.1160  1.1160
   86MOL0     C11525   3.523  10.031   9.390  0.2765 -0.6218  0.0207
   86MOL0     N11526   2.714   9.604   9.625  0.5038 -0.3771 -0.5244
   86MOL0     N11527   2.641   9.501   9.614 -0.7284  0.6026  0.5219
   86MOL0     C11528   2.295   8.300   9.187 -0.1848 -0.0757  0.3823
   86MOL0     C11529   2.347   8.174   9.145 -0.1644 -0.5879 -0.7901
   86MOL0     C11530   2.664   7.861   9.143 -0.1355  0.3222  0.2475
   86MOL0     C11531   2.604   7.777   9.051 -0.8879  0.7056  0.9687
   86MOL0     C11532   2.681   7.666   8.998  0.1621 -0.4864  0.0481
   86MOL0     C11533   2.807   7.638   9.063 -0.3616 -0.1881  1.1382
   86MOL0     O11534   2.873   7.545   8.994  0.5489 -0.0578 -0.1809
   86MOL0     C11535   3.018   7.533   8.992 -0.0885  0.4117  0.8868
   86MOL0     C11536   3.066   7.596   8.860 -0.5617 -1.1537 -0.5127
   86MOL0     C11537   3.042   7.511   8.738 -0.1319  0.8127  0.6735
   86MOL0     C11538   3.111   7.564   8.611  0.0571 -0.5819 -0.3856
   86MOL0     C11539   3.074   7.478   8.496 -0.3082 -0.7771 -0.7107
   86MOL0     C11540   3.026   7.416   8.402  0.1990 -0.1577  0.2994
   86MOL0     C11541   2.861   7.719   9.167 -1.0304  0.6729  0.4232
   86MOL0     C11542   2.784   7.827   9.211  0.2903  0.0820 -1.1025
   86MOL0     H11543   2.671   8.267   9.081  0.2699 -4.0254 -1.9494
   86MOL0     H11544   2.576   8.487   9.178  1.8962 -0.2681  1.1663
   86MOL0     H11545   2.476   8.627   9.315 -0.3785 -0.1979 -0.6068
   86MOL0     H11546   2.432   8.664   9.146 -1.5577  0.9362 -0.2972
   86MOL0     H11547   2.244   8.777   9.197 -1.4450  2.5031  0.9458
   86MOL0     H11548   2.282   8.769   9.375 -2.2638  1.0543 -0.9060
   86MOL0     H11549   2.394   8.941   9.137  3.2157  1.4342 -0.6901
   86MOL0     H11550   2.321   8.982   9.288 -1.8876 -2.0472 -0.4859
   86MOL0     H11551   2.531   8.863   9.400  0.5240  0.4414  0.6214
   86MOL0     H11552   2.608   8.865   9.247  0.0800 -0.0702  1.5816
   86MOL0     H11553   2.678   9.065   9.365 -0.9399 -3.1782  1.7017
   86MOL0     H11554   2.565   9.131   9.246 -2.2758  0.9564  1.5399
   86MOL0     H11555   2.379   9.153   9.409 -1.1654 -2.2295  2.6913
   86MOL0     H11556   2.473   9.049   9.521  1.2685  0.4273  0.2813
   86MOL0     H11557   2.492   9.299   9.599  0.3687  3.7978 -2.0846
   86MOL0     H11558   2.634   9.200   9.571  0.6754 -0.3064  0.3270
   86MOL0     H11559   2.501   9.390   9.375  0.0691  0.7303  0.1831
   86MOL0     H11560   2.661   9.302   9.351 -1.7597 -1.4674 -1.3343
   86MOL0     H11561   2.755   9.578   9.313 -1.9030 -1.8998 -1.0777
   86MOL0     H11562   2.837   9.815   9.403 -0.6817 -3.5468 -1.0128
   86MOL0     H11563   2.851   9.824   9.588 -1.5191 -1.2591  0.2637
   86MOL0     H11564   3.024   9.666   9.393  0.3341  0.5027  0.4730
   86MOL0     H11565   3.022   9.640   9.566 -4.0120 -3.2370 -2.5864
   86MOL0     H11566   3.096   9.873   9.594 -0.4664  2.5850 -0.2293
   86MOL0     H11567   3.068   9.913   9.429  0.4541  0.5301  1.8843
   86MOL0     H11568   3.232   9.756   9.348  0.5258 -2.2799  0.4897
   86MOL0     H11569   3.275   9.720   9.517 -0.4160  1.0675  2.1451
   86MOL0     H11570   3.422   9.728   9.270 -2.8145  1.5562  2.7711
   86MOL0     H11571   3.687   9.694   9.079  0.0632  0.7896  0.7995
   86MOL0     H11572   3.509   9.661   9.067  1.5807 -1.2833 -0.4184
   86MOL0     H11573   3.585   9.785   8.977  1.1789  1.1483  1.3059
   86MOL0     H11574   3.826  10.349   8.958  0.5507  0.8427  2.6169
   86MOL0     H11575   4.031  10.390   8.788  2.3423  0.9653  1.2003
   86MOL0     H11576   4.224  10.048   8.721  0.5588  0.4675 -2.0203
   86MOL0     H11577   4.201  10.155   8.593 -2.5583 -0.5582  0.1681
   86MOL0     H11578   4.416  10.104   8.534  2.9285  1.7846  0.9172
   86MOL0     H11579   4.462  10.208   8.671  2.0912 -0.4148 -0.9377
   86MOL0     H11580   4.426   9.902   8.679  1.3434  0.4251 -2.7021
   86MOL0     H11581   4.443   9.999   8.822  2.1638  2.1019  1.1502
   86MOL0     H11582   4.662   9.970   8.606 -0.6334  1.4019 -0.3467
   86MOL0     H11583   4.639  10.088   8.740  0.1264 -0.8752  2.5738
   86MOL0     H11584   4.677   9.782   8.758  4.5341 -1.7000  2.4060
   86MOL0     H11585   4.628   9.886   8.893  1.0582  0.3391  0.3289
   86MOL0     H11586   4.865   9.901   8.693 -1.1407 -0.0210 -1.0177
   86MOL0     H11587   4.832  10.028   8.811 -1.9492 -0.1931  2.4826
   86MOL0     H11588   4.922   9.734   8.857  1.5338 -1.2973  3.8150
   86MOL0     H11589   4.855   9.828   8.987  2.3639  2.6642  1.0667
   86MOL0     H11590   5.086   9.845   9.016 -0.4079 -0.1049  0.3999
   86MOL0     H11591   5.031  10.005   8.968 -0.9816  1.3347 -1.4824
   86MOL0     H11592   4.238  10.072   8.969 -1.2498 -1.4659 -3.2638
   86MOL0     H11593   4.073  10.016   9.111 -0.5638  0.0140 -0.6206
   86MOL0     H11594   3.691  10.140   9.312 -2.1098  1.0920 -0.1087
   86MOL0     H11595   3.502  10.108   9.464  1.1657 -0.0750 -0.2750
   86MOL0     H11596   2.188   8.313   9.199 -0.4627 -0.8791 -1.0540
   86MOL0     H11597   2.279   8.090   9.140 -1.1912  0.0864  0.9935
   86MOL0     H11598   2.506   7.801   9.012 -0.7725  2.0121  1.4143
   86MOL0     H11599   2.646   7.616   8.908  1.5009 -1.2032 -0.1027
   86MOL0     H11600   3.069   7.578   9.077  0.0023  1.5647  0.2434
   86MOL0     H11601   3.049   7.429   8.979 -0.2907  0.5473 -1.0563
   86MOL0     H11602   3.167   7.634   8.880 -1.0141 -0.5278  0.7256
   86MOL0     H11603   3.007   7.683   8.830  0.4375 -0.8756 -1.7331
   86MOL0     H11604   2.937   7.485   8.724  0.3995 -3.0582  2.5659
   86MOL0     H11605   3.100   7.419   8.749  1.1564  1.0666 -2.9110
   86MOL0     H11606   3.218   7.563   8.630 -0.1938 -1.6829  1.1718
   86MOL0     H11607   3.079   7.664   8.580 -0.5253  0.0345  1.9812
   86MOL0     H11608   3.010   7.371   8.306 -0.1974  2.9393 -1.2078
   86MOL0     H11609   2.952   7.705   9.225 -1.1014  1.7205  0.8061
   86MOL0     H11610   2.820   7.894   9.288 -0.2110 -2.1969  1.2525
   87MOL0     O11611   4.694  10.159   1.635 -0.1916 -0.4706 -0.1060
   87MOL0     C11612   4.628  10.169   1.530  0.4738  0.8838  0.8276
   87MOL0     O11613   4.616  10.284   1.458  0.0396 -0.6277  0.7057
   87MOL0     C11614   4.734  10.362   1.457  0.1833 -0.1611  0.5527
   87MOL0     C11615   4.743  10.489   1.497  0.6867  0.0415  0.0778
   87MOL0     C11616   4.867  10.556   1.501 -0.3004  0.0455  0.2335
   87MOL0     C11617   4.981  10.489   1.470  0.4016  0.3338 -0.2545
   87MOL0     O11618   5.096  10.565   1.484  0.5138  1.0160  1.0598
   87MOL0     C11619   5.219  10.545   1.405 -0.0191  0.7388  0.3690
   87MOL0     C11620   5.323  10.662   1.414  0.0659 -0.8324 -0.3449
   87MOL0     C11621   5.301  10.787   1.333  1.9344 -0.0373 -0.5260
   87MOL0     C11622   5.155  10.799   1.277 -0.4118  0.4376 -0.5078
   87MOL0     C11623   5.121  10.939   1.215 -0.9620 -1.5669  0.5926
   87MOL0     C11624   4.994  10.964   1.133  0.3659 -0.4145  0.0410
   87MOL0     C11625   4.992  11.086   1.041 -0.1665  0.3203 -0.1213
   87MOL0     C11626   4.853  11.145   0.992  0.3397  0.8398 -0.3244
   87MOL0     N11627   4.863  11.290   1.006  0.4349  0.3039  0.0107
   87MOL0     C11628   4.920  11.383   0.919  1.8755  0.4543  0.3679
   87MOL0     C11629   4.876  11.502   0.970 -0.4054  0.1604  0.8748
   87MOL0     C11630   4.912  11.642   0.917  0.7852  0.5082  0.2244
   87MOL0     C11631   4.801  11.698   0.830  0.1631 -0.4148  0.1166
   87MOL0     C11632   4.837  11.832   0.768  0.6548  0.3972 -0.9177
   87MOL0     C11633   4.837  11.837   0.613 -0.2185 -0.6816 -1.0001
   87MOL0     O11634   4.949  11.764   0.573  0.1628 -0.9518 -0.4209
   87MOL0     C11635   4.961  11.732   0.444  0.2123  0.9345  1.2821
   87MOL0     C11636   5.040  11.623   0.409 -0.1766 -0.6023 -0.7828
   87MOL0     C11637   5.053  11.586   0.273  0.3800 -0.8602 -0.1806
   87MOL0     C11638   5.138  11.457   0.234  0.1461 -0.6752  0.7437
   87MOL0     C11639   4.995  11.660   0.168 -0.0514  0.1116  0.5593
   87MOL0     C11640   5.026  11.641   0.026 -0.2002  0.5841 -0.2711
   87MOL0     O11641   5.148  11.607  -0.023  0.4098 -0.8922 -0.3400
   87MOL0     C11642   5.169  11.574  -0.157 -0.2534  0.6658  0.0746
   87MOL0     C11643   5.129  11.656  -0.266 -0.1986  1.1739  1.0511
   87MOL0     C11644   5.168  11.628  -0.396 -0.3056  0.8860 -0.2851
   87MOL0     C11645   5.256  11.519  -0.419 -0.0569  0.1835  0.1023
   87MOL0     O11646   5.284  11.485  -0.549 -0.5125 -0.3016  0.1905
   87MOL0     C11647   5.348  11.356  -0.586  0.7731 -0.2673 -0.4359
   87MOL0     C11648   5.332  11.347  -0.737 -0.1606 -0.3750  0.7504
   87MOL0     C11649   5.435  11.426  -0.813  0.6982  0.0927  0.3405
   87MOL0     C11650   5.568  11.338  -0.805  0.4867  0.2291 -0.3075
   87MOL0     C11651   5.703  11.414  -0.821  0.5114 -0.0014 -0.3111
   87MOL0     C11652   5.688  11.548  -0.904 -0.7969  0.4702 -0.0952
   87MOL0     C11653   5.831  11.601  -0.933 -0.4866 -0.3571  0.0164
   87MOL0     C11654   5.811  11.755  -0.938 -0.3527  0.0848 -0.4291
   87MOL0    Cl11655   5.702  11.806  -1.068 -0.4133  0.3352 -0.1913
   87MOL0     C11656   5.292  11.438  -0.306  0.7312 -0.4784  0.5619
   87MOL0     C11657   5.258  11.473  -0.183 -0.7321 -0.1223 -0.9149
   87MOL0     O11658   4.933  11.663  -0.047  0.2041  0.2270  0.6167
   87MOL0     C11659   4.920  11.772   0.208  0.0485 -0.2607  0.4894
   87MOL0     C11660   4.905  11.805   0.341 -0.4290  0.7647 -1.2220
   87MOL0     N11661   4.821  11.481   1.092  0.0779  0.5209 -0.6471
   87MOL0     N11662   4.810  11.354   1.113  0.6229 -0.0423 -0.3339
   87MOL0     C11663   4.977  10.354   1.426  0.4712 -0.5389 -0.6682
   87MOL0     C11664   4.850  10.301   1.410  0.8627 -0.7499 -0.4036
   87MOL0     C11665   4.569  10.052   1.463  0.2051  0.5046 -1.0236
   87MOL0     C11666   4.559  10.048   1.328 -0.1257  0.9665 -0.9384
   87MOL0     C11667   4.513   9.930   1.272 -0.0078 -0.0658  0.3695
   87MOL0     C11668   4.487   9.807   1.349  1.4738  1.3330 -0.1017
   87MOL0     O11669   4.441   9.685   1.296  0.0810 -0.9351  0.7870
   87MOL0     C11670   4.418   9.678   1.150 -0.2989 -0.4081  0.0266
   87MOL0     C11671   4.545   9.610   1.083  0.2278 -0.3199 -0.0343
   87MOL0     C11672   4.527   9.604   0.930 -0.0915 -0.6324  0.8339
   87MOL0     C11673   4.541   9.459   0.870  0.3623 -0.2642 -0.0086
   87MOL0     C11674   4.530   9.463   0.719  0.8530  0.4059 -0.6882
   87MOL0     C11675   4.518   9.444   0.601  0.2968 -0.2575  0.5846
   87MOL0     C11676   4.475   9.820   1.488  0.1384 -0.7511  0.6329
   87MOL0     C11677   4.529   9.935   1.539  0.0757 -0.5342 -0.3593
   87MOL0     H11678   4.654  10.536   1.537  0.1864  1.9859 -3.0148
   87MOL0     H11679   4.895  10.654   1.537 -0.8228  0.2835  0.0030
   87MOL0     H11680   5.269  10.453   1.435 -0.8207  0.2650  0.2746
   87MOL0     H11681   5.186  10.523   1.303  2.1224 -0.6560 -0.0795
   87MOL0     H11682   5.354  10.687   1.516  3.6110  0.5707 -1.6098
   87MOL0     H11683   5.418  10.624   1.376  1.3486  0.0102  1.8074
   87MOL0     H11684   5.314  10.864   1.410  0.8919 -1.6258  1.3433
   87MOL0     H11685   5.383  10.814   1.266  1.5910 -1.2082 -1.4474
   87MOL0     H11686   5.138  10.728   1.195 -1.8176 -1.7888  1.5620
   87MOL0     H11687   5.078  10.769   1.349  0.1081  1.3805  0.4600
   87MOL0     H11688   5.123  11.015   1.294  0.9221  0.5727 -1.3430
   87MOL0     H11689   5.195  10.958   1.136 -0.4576 -0.6185  1.2674
   87MOL0     H11690   4.997  10.879   1.064  1.4933  0.6874 -1.3078
   87MOL0     H11691   4.911  10.978   1.203  1.5900  1.1394  1.2366
   87MOL0     H11692   5.045  11.159   1.102 -0.9952 -0.7842  2.0021
   87MOL0     H11693   5.048  11.064   0.949 -1.6889 -1.3611 -0.7051
   87MOL0     H11694   4.779  11.100   1.060  1.2188  0.8928  0.7088
   87MOL0     H11695   4.842  11.104   0.891  0.8375 -1.2478  0.4018
   87MOL0     H11696   4.974  11.361   0.827 -1.2869 -1.1331 -1.2688
   87MOL0     H11697   4.932  11.701   1.007  2.5030  0.4577 -0.1045
   87MOL0     H11698   5.004  11.628   0.860 -0.7941  0.8689 -2.6390
   87MOL0     H11699   4.706  11.703   0.883  0.2032  1.4983  0.0994
   87MOL0     H11700   4.797  11.625   0.748 -2.5154  0.4180 -0.6061
   87MOL0     H11701   4.929  11.868   0.815 -0.0439 -0.0618  0.8550
   87MOL0     H11702   4.757  11.901   0.796  0.2650 -0.4024 -0.0015
   87MOL0     H11703   4.850  11.943   0.589  1.5866 -0.2916  1.3237
   87MOL0     H11704   4.749  11.783   0.579 -0.1121 -0.6771 -1.2827
   87MOL0     H11705   5.102  11.562   0.475  1.8502  2.2817  0.2054
   87MOL0     H11706   5.086  11.399   0.157 -3.6326  1.8239  1.1063
   87MOL0     H11707   5.236  11.484   0.194 -0.5168  3.0735  1.2447
   87MOL0     H11708   5.160  11.408   0.329  2.8937  1.1766  1.1746
   87MOL0     H11709   5.057  11.730  -0.235 -1.1500  0.7299 -0.0004
   87MOL0     H11710   5.136  11.679  -0.486 -1.6960  2.0328  0.8347
   87MOL0     H11711   5.453  11.348  -0.556  0.9367 -0.3612 -1.0348
   87MOL0     H11712   5.298  11.272  -0.536 -1.7691  0.9418 -0.7750
   87MOL0     H11713   5.341  11.240  -0.756  0.9424 -0.3261  0.9133
   87MOL0     H11714   5.232  11.374  -0.770  0.6456 -0.9316 -2.4139
   87MOL0     H11715   5.453  11.522  -0.764  1.0514 -0.3403  1.0674
   87MOL0     H11716   5.394  11.417  -0.914 -0.3092 -3.2090  0.9341
   87MOL0     H11717   5.584  11.277  -0.716  3.7307  3.1863  1.3698
   87MOL0     H11718   5.573  11.265  -0.886 -1.5949  1.7535 -1.9153
   87MOL0     H11719   5.776  11.340  -0.856  1.9017  0.3076  1.7483
   87MOL0     H11720   5.737  11.432  -0.719 -0.8651  1.0662 -0.0138
   87MOL0     H11721   5.642  11.535  -1.003 -0.1399 -0.0574 -0.3369
   87MOL0     H11722   5.634  11.618  -0.839 -0.5872  0.2051  0.3621
   87MOL0     H11723   5.872  11.563  -1.027 -1.1550  0.7107 -0.7311
   87MOL0     H11724   5.893  11.577  -0.846 -2.2591 -1.2438  1.0659
   87MOL0     H11725   5.903  11.806  -0.966 -0.5813  1.1244  0.6121
   87MOL0     H11726   5.781  11.787  -0.838 -2.5544 -0.3979 -0.8692
   87MOL0     H11727   5.350  11.348  -0.320  0.6501 -0.6070  1.0138
   87MOL0     H11728   5.274  11.412  -0.095 -1.3435  0.5745 -0.3070
   87MOL0     H11729   4.871  11.849   0.149 -2.3114 -0.8790  1.5142
   87MOL0     H11730   4.839  11.888   0.361 -1.1957 -0.7287  4.0176
   87MOL0     H11731   5.062  10.288   1.414 -0.5744 -2.1971  0.5780
   87MOL0     H11732   4.847  10.202   1.367 -3.4499 -0.2307 -1.8697
   87MOL0     H11733   4.586  10.133   1.267  0.8959 -0.2640 -2.2995
   87MOL0     H11734   4.511   9.932   1.163  0.9814  0.9039  0.3593
   87MOL0     H11735   4.339   9.606   1.128 -0.5983  0.2281 -1.0629
   87MOL0     H11736   4.378   9.772   1.111  1.3137 -0.0302 -0.7913
   87MOL0     H11737   4.553   9.509   1.125  0.0450 -0.9027 -1.3224
   87MOL0     H11738   4.636   9.666   1.101 -0.4055  0.6388  0.2247
   87MOL0     H11739   4.605   9.659   0.878 -2.3216 -0.0381 -2.1628
   87MOL0     H11740   4.432   9.646   0.897  0.1271 -0.2953  0.6306
   87MOL0     H11741   4.459   9.398   0.908 -1.4622  3.5212  2.8761
   87MOL0     H11742   4.637   9.418   0.903 -0.4872 -0.6483  2.0927
   87MOL0     H11743   4.493   9.444   0.497 -2.9293  3.3496  1.1347
   87MOL0     H11744   4.439   9.736   1.545 -1.8918 -0.9101 -0.7860
   87MOL0     H11745   4.541   9.933   1.647 -0.8411  0.9064 -0.2065
   88MOL0     O11746   1.898  11.065   7.034  0.5873  0.4174  0.4494
   88MOL0     C11747   1.945  10.958   7.060 -0.2855  0.6375  0.2459
   88MOL0     O11748   1.906  10.872   7.159  0.5583 -0.3848 -0.4119
   88MOL0     C11749   1.776  10.866   7.203  0.0316 -0.3474  0.2398
   88MOL0     C11750   1.742  10.803   7.323 -1.5506 -0.9155  0.4059
   88MOL0     C11751   1.617  10.805   7.373 -0.5078 -0.2406  0.0153
   88MOL0     C11752   1.518  10.864   7.305  0.2164  0.1488  0.2198
   88MOL0     O11753   1.392  10.859   7.370  0.3672 -0.2941  0.2001
   88MOL0     C11754   1.284  10.904   7.292  0.3856 -0.1958 -0.2125
   88MOL0     C11755   1.164  10.936   7.370  0.3687 -0.0058  0.7629
   88MOL0     C11756   1.162  11.090   7.400 -1.2152 -0.0011  0.3647
   88MOL0     C11757   1.040  11.119   7.482 -0.9319  0.5446 -0.9495
   88MOL0     C11758   1.025  11.270   7.513  0.2408  0.3213 -0.4366
   88MOL0     C11759   0.913  11.291   7.608 -0.7797  0.4499  0.3227
   88MOL0     C11760   0.891  11.429   7.668  0.0301  0.0583 -0.4456
   88MOL0     C11761   0.765  11.450   7.753  0.4425 -0.6572 -0.7647
   88MOL0     N11762   0.757  11.364   7.881  0.5839 -0.2837  0.1772
   88MOL0     C11763   0.855  11.310   7.967  0.1058  0.6854 -0.5612
   88MOL0     C11764   0.793  11.252   8.072 -0.1133 -0.0285 -1.1714
   88MOL0     C11765   0.858  11.196   8.195  0.2275 -1.2708  0.0991
   88MOL0     C11766   0.997  11.126   8.183  0.7811 -0.0927  0.4199
   88MOL0     C11767   0.986  10.992   8.100 -0.5346 -0.2500 -0.0937
   88MOL0     C11768   1.123  10.917   8.106 -0.2481 -0.3993 -0.1335
   88MOL0     O11769   1.181  10.893   7.975  0.4814 -0.3349 -0.5636
   88MOL0     C11770   1.247  10.991   7.920 -0.7524 -0.3931  0.7331
   88MOL0     C11771   1.297  11.108   7.976 -0.4604 -0.6876 -0.4374
   88MOL0     C11772   1.368  11.198   7.900 -0.5655  0.0757 -0.4893
   88MOL0     C11773   1.433  11.304   7.977 -0.1384 -0.2649  0.5886
   88MOL0     C11774   1.389  11.182   7.760  0.3839 -0.0038  0.1173
   88MOL0     C11775   1.444  11.276   7.665  0.9515 -1.1192 -0.5888
   88MOL0     O11776   1.452  11.246   7.528 -0.7554  0.0859  0.2390
   88MOL0     C11777   1.545  11.305   7.440  0.0938 -0.2880  0.6426
   88MOL0     C11778   1.614  11.213   7.355 -0.2056 -1.1032  0.3550
   88MOL0     C11779   1.716  11.270   7.275 -0.2783  0.6416  0.3327
   88MOL0     C11780   1.740  11.408   7.263  0.0403  0.0667  0.0743
   88MOL0     O11781   1.829  11.466   7.173 -1.1353 -0.0804 -0.1004
   88MOL0     C11782   1.825  11.423   7.034  0.0749  0.6659  0.1134
   88MOL0     C11783   1.943  11.433   6.945  0.5203 -0.0074  0.5006
   88MOL0     C11784   2.073  11.400   7.008 -0.7142 -0.8467  0.0364
   88MOL0     C11785   2.206  11.429   6.914 -0.1201  0.0934 -0.2191
   88MOL0     C11786   2.334  11.346   6.952  0.4796  0.1218  0.2308
   88MOL0     C11787   2.469  11.393   6.902  0.0743 -0.6446 -0.2787
   88MOL0     C11788   2.523  11.514   6.980  1.0149 -0.8221  0.2351
   88MOL0     C11789   2.603  11.619   6.908  0.0187  0.3320 -0.3447
   88MOL0    Cl11790   2.757  11.553   6.858 -0.1506 -0.2210  0.1413
   88MOL0     C11791   1.672  11.489   7.344  0.1493 -0.3886  0.4613
   88MOL0     C11792   1.569  11.447   7.430 -0.8021  0.6597  0.8611
   88MOL0     O11793   1.504  11.376   7.714  0.6467  0.7932 -0.3651
   88MOL0     C11794   1.355  11.057   7.711 -0.8392 -1.0004 -0.0604
   88MOL0     C11795   1.275  10.976   7.783 -1.0420 -0.7337 -0.6637
   88MOL0     N11796   0.657  11.246   8.043  0.4508 -0.6563 -0.5790
   88MOL0     N11797   0.640  11.314   7.928  0.0895 -0.5881 -1.1058
   88MOL0     C11798   1.542  10.909   7.175 -0.4377 -0.8870 -0.6342
   88MOL0     C11799   1.670  10.910   7.118  0.2918 -0.2964 -0.4798
   88MOL0     C11800   2.068  10.898   6.993 -0.2079 -0.2080  0.5062
   88MOL0     C11801   2.134  10.767   7.024  0.1235  0.1557 -0.9668
   88MOL0     C11802   2.233  10.711   6.942 -0.7977  0.5515 -0.2160
   88MOL0     C11803   2.275  10.786   6.834  0.6039  0.7451 -0.7625
   88MOL0     O11804   2.372  10.730   6.753  1.2070 -0.0639 -0.3378
   88MOL0     C11805   2.317  10.641   6.648 -0.1842  0.2335  0.1890
   88MOL0     C11806   2.226  10.699   6.539 -0.1157 -0.2728  0.7202
   88MOL0     C11807   2.300  10.797   6.455  0.7504 -0.3866  0.9587
   88MOL0     C11808   2.207  10.859   6.338 -0.7770 -0.2732 -0.0652
   88MOL0     C11809   2.300  10.907   6.248 -0.1795 -0.7978  0.8323
   88MOL0     C11810   2.389  10.960   6.178  0.5512 -0.2035 -0.0490
   88MOL0     C11811   2.218  10.911   6.797 -0.5035  0.8350  0.5187
   88MOL0     C11812   2.119  10.964   6.876 -0.3464 -0.1003 -0.0309
   88MOL0     H11813   1.827  10.774   7.384 -0.6090 -0.3788 -0.6066
   88MOL0     H11814   1.597  10.770   7.475 -4.5906  0.3937 -0.3882
   88MOL0     H11815   1.313  10.996   7.241  1.3067 -0.5136 -0.2845
   88MOL0     H11816   1.275  10.827   7.214 -0.4631  0.7222 -1.0612
   88MOL0     H11817   1.074  10.917   7.312  0.7848  2.9787 -1.0634
   88MOL0     H11818   1.156  10.871   7.457 -0.1348  1.5547  1.9137
   88MOL0     H11819   1.255  11.113   7.453 -1.5132  3.5513 -0.4217
   88MOL0     H11820   1.153  11.147   7.307 -3.8082  0.3132  0.7356
   88MOL0     H11821   0.956  11.085   7.420  0.9429 -2.7400 -1.8944
   88MOL0     H11822   1.034  11.064   7.577 -1.1848 -0.9127 -1.7791
   88MOL0     H11823   1.118  11.320   7.544  0.8489  0.1141 -1.8500
   88MOL0     H11824   0.981  11.310   7.421  2.0734 -1.1009 -2.0286
   88MOL0     H11825   0.820  11.255   7.564 -1.7422  1.2757  1.6116
   88MOL0     H11826   0.946  11.228   7.691  1.6024  2.0734  0.7225
   88MOL0     H11827   0.970  11.439   7.743 -0.0466 -2.4803  0.0679
   88MOL0     H11828   0.902  11.503   7.588  0.5413 -0.7340 -1.1211
   88MOL0     H11829   0.683  11.430   7.683  1.8681 -1.2416 -2.3281
   88MOL0     H11830   0.772  11.556   7.779 -0.5099 -0.9884  1.0182
   88MOL0     H11831   0.960  11.335   7.955 -0.1363  2.5282  0.8206
   88MOL0     H11832   0.868  11.281   8.264  4.2310  0.6661 -2.4509
   88MOL0     H11833   0.778  11.130   8.229 -0.9750  0.9840  2.0226
   88MOL0     H11834   1.021  11.081   8.280  0.3089 -1.2472  0.0069
   88MOL0     H11835   1.083  11.185   8.149 -0.3531  0.5709 -1.4395
   88MOL0     H11836   0.965  11.010   7.994 -2.9624  0.2137  0.4025
   88MOL0     H11837   0.904  10.928   8.133 -0.4532 -0.5650 -0.4979
   88MOL0     H11838   1.107  10.817   8.146 -3.6702 -0.3042 -1.0199
   88MOL0     H11839   1.198  10.964   8.172  0.2768 -0.3479 -0.7540
   88MOL0     H11840   1.292  11.141   8.080  0.7045  1.5600 -1.0411
   88MOL0     H11841   1.440  11.297   8.085  3.8630  0.4863  0.5267
   88MOL0     H11842   1.538  11.308   7.947  0.1220  3.0787  1.5173
   88MOL0     H11843   1.382  11.396   7.944 -1.2586 -1.0403  0.1123
   88MOL0     H11844   1.575  11.115   7.380  1.2000 -1.0954  2.9071
   88MOL0     H11845   1.782  11.205   7.219 -2.7042 -0.4662 -1.4353
   88MOL0     H11846   1.815  11.315   7.044 -0.1513  0.6728 -0.0327
   88MOL0     H11847   1.733  11.455   6.983  0.3481 -1.4335 -1.8628
   88MOL0     H11848   1.931  11.355   6.869 -1.9891 -0.4698  1.2762
   88MOL0     H11849   1.932  11.532   6.900 -0.5256 -0.1361  0.4372
   88MOL0     H11850   2.065  11.295   7.039 -3.0980 -0.2221  1.8124
   88MOL0     H11851   2.084  11.457   7.100  2.0021  1.5488 -1.5763
   88MOL0     H11852   2.184  11.413   6.809  1.1509  0.4811 -0.5635
   88MOL0     H11853   2.229  11.536   6.927  0.0318  0.4079 -2.7142
   88MOL0     H11854   2.333  11.243   6.915  1.4577  0.2345 -0.1416
   88MOL0     H11855   2.329  11.329   7.060  1.0648 -3.4983 -0.1819
   88MOL0     H11856   2.538  11.308   6.908  1.3608  0.4795  2.6321
   88MOL0     H11857   2.465  11.415   6.795 -1.5994  3.2012  0.4345
   88MOL0     H11858   2.584  11.485   7.066 -1.4686  1.8150  3.1531
   88MOL0     H11859   2.442  11.563   7.037  0.1868 -1.8199 -0.0528
   88MOL0     H11860   2.628  11.701   6.975  1.9112 -2.0221  2.0267
   88MOL0     H11861   2.544  11.654   6.822  0.2665  1.4711 -0.0754
   88MOL0     H11862   1.688  11.593   7.318 -0.3534 -0.6905 -1.1558
   88MOL0     H11863   1.517  11.518   7.494  1.5229  0.4271  3.1787
   88MOL0     H11864   1.384  11.027   7.611 -0.6666  0.6094 -0.5201
   88MOL0     H11865   1.239  10.883   7.741 -2.5565  0.7202 -2.7748
   88MOL0     H11866   1.461  10.948   7.114 -1.0281  4.2325  2.7618
   88MOL0     H11867   1.675  10.952   7.018  1.7557 -0.8509 -0.6696
   88MOL0     H11868   2.114  10.713   7.115  1.1843 -1.2474 -1.5313
   88MOL0     H11869   2.272  10.612   6.967  3.8281  2.2872  0.5364
   88MOL0     H11870   2.398  10.596   6.590  0.4671  2.2872 -0.5865
   88MOL0     H11871   2.257  10.561   6.692  0.3358 -0.0559  0.3790
   88MOL0     H11872   2.132  10.737   6.580 -1.4521 -1.3901 -1.1291
   88MOL0     H11873   2.199  10.620   6.468  4.0055 -1.5614  0.3032
   88MOL0     H11874   2.376  10.733   6.408 -1.1078 -0.6386 -1.9518
   88MOL0     H11875   2.333  10.876   6.523  2.1632 -0.9502  0.9654
   88MOL0     H11876   2.130  10.930   6.368 -1.8282 -0.7091 -1.6071
   88MOL0     H11877   2.158  10.767   6.305  0.6225 -0.6690 -1.1336
   88MOL0     H11878   2.465  11.018   6.129 -0.6895  2.3331  0.8270
   88MOL0     H11879   2.253  10.973   6.715 -1.6848  0.8515  0.0058
   88MOL0     H11880   2.076  11.059   6.846  0.3654  0.2625  0.0874
   89MOL0     O11881   6.836   5.803   2.624  0.3184  0.7627  0.1879
   89MOL0     C11882   6.767   5.755   2.532  0.1946 -0.2964  0.0442
   89MOL0     O11883   6.740   5.819   2.416 -0.2655  0.0082 -0.8880
   89MOL0     C11884   6.781   5.952   2.402 -0.1672  0.7496  0.3619
   89MOL0     C11885   6.881   5.980   2.308  0.0497 -0.7143 -0.0706
   89MOL0     C11886   6.910   6.114   2.266 -0.5425  0.2161 -0.1920
   89MOL0     C11887   6.846   6.212   2.326 -0.3826  1.3727  0.8271
   89MOL0     O11888   6.880   6.332   2.267 -0.9045  0.9094  0.0747
   89MOL0     C11889   6.789   6.439   2.291 -0.3790 -0.1433  0.7558
   89MOL0     C11890   6.834   6.569   2.205 -0.1951  1.8053  0.6143
   89MOL0     C11891   6.760   6.703   2.234  0.3528 -0.7603 -0.4071
   89MOL0     C11892   6.761   6.742   2.383 -0.9609  0.2585 -0.2043
   89MOL0     C11893   6.694   6.879   2.400 -0.1816  0.8306  0.1904
   89MOL0     C11894   6.722   6.938   2.540  0.1623  0.1673  0.3898
   89MOL0     C11895   6.595   7.011   2.604 -0.1312 -0.3137  0.4291
   89MOL0     C11896   6.614   7.166   2.622 -0.6264  0.5827  0.3723
   89MOL0     N11897   6.666   7.241   2.506 -0.2123  0.2887  0.3919
   89MOL0     C11898   6.792   7.277   2.506  0.4878  0.6694 -0.2661
   89MOL0     C11899   6.824   7.307   2.380 -1.2249 -0.2332  1.1651
   89MOL0     C11900   6.952   7.343   2.322  0.4694  0.9398  1.0358
   89MOL0     C11901   7.063   7.241   2.307 -1.0976  0.0534 -0.3578
   89MOL0     C11902   7.023   7.106   2.258 -0.6461 -0.7682 -0.1728
   89MOL0     C11903   7.141   7.013   2.263  1.4206  0.7931 -0.5347
   89MOL0     O11904   7.167   6.976   2.407  0.5738 -0.8645 -0.5060
   89MOL0     C11905   7.111   6.866   2.470 -0.5477 -0.5793 -0.2816
   89MOL0     C11906   7.139   6.733   2.438  0.3908  0.3865  0.9324
   89MOL0     C11907   7.089   6.628   2.517 -0.2043  1.0091 -0.5684
   89MOL0     C11908   7.121   6.480   2.472 -0.3998  0.8902 -0.4551
   89MOL0     C11909   7.012   6.656   2.638  0.5275  0.4067  0.2968
   89MOL0     C11910   6.954   6.539   2.725  0.4100 -0.2893 -0.2654
   89MOL0     O11911   7.035   6.436   2.750 -0.2578 -0.4000 -0.3942
   89MOL0     C11912   7.000   6.335   2.832  0.2713  0.4485  0.3992
   89MOL0     C11913   6.953   6.214   2.777  0.0556  0.5221 -0.7383
   89MOL0     C11914   6.944   6.101   2.854 -0.0558  0.1519  0.6547
   89MOL0     C11915   6.968   6.092   2.989 -0.4141 -0.3437  1.0779
   89MOL0     O11916   6.949   5.992   3.079  0.0118  0.5838  0.2794
   89MOL0     C11917   6.906   5.865   3.010 -0.0700  0.0312  0.3755
   89MOL0     C11918   6.855   5.758   3.101 -0.4712  0.1507  0.4989
   89MOL0     C11919   6.712   5.801   3.146  0.1640 -0.0104 -0.0606
   89MOL0     C11920   6.660   5.707   3.250 -0.2872 -0.5609  0.0911
   89MOL0     C11921   6.508   5.716   3.268 -0.1321 -0.0804 -0.3323
   89MOL0     C11922   6.438   5.846   3.280  0.3201 -1.1954  0.0415
   89MOL0     C11923   6.446   5.921   3.411 -0.0482 -0.4396 -0.9172
   89MOL0     C11924   6.342   6.041   3.422  1.3108 -0.2163  0.2321
   89MOL0    Cl11925   6.339   6.112   3.592 -0.2230  0.2983  0.3308
   89MOL0     C11926   7.003   6.217   3.050 -0.3642  0.0214  0.1818
   89MOL0     C11927   7.024   6.334   2.967 -0.7894  0.4582 -0.0275
   89MOL0     O11928   6.855   6.568   2.797  0.0266  0.1334 -0.3646
   89MOL0     C11929   7.004   6.786   2.687 -0.9061 -0.1067  0.1921
   89MOL0     C11930   7.051   6.892   2.597 -0.5147  0.3362  0.5131
   89MOL0     N11931   6.717   7.289   2.305  0.3850  1.0726  0.1874
   89MOL0     N11932   6.623   7.241   2.384  0.9526 -1.2340  0.4910
   89MOL0     C11933   6.738   6.183   2.422 -0.0808 -0.4498 -0.3461
   89MOL0     C11934   6.709   6.055   2.471 -0.1558  0.2002 -0.3586
   89MOL0     C11935   6.728   5.608   2.556 -0.1409 -0.1799  0.1164
   89MOL0     C11936   6.646   5.527   2.468 -0.1765 -0.0823 -0.1165
   89MOL0     C11937   6.621   5.390   2.492 -0.0396 -0.7863  0.9869
   89MOL0     C11938   6.672   5.319   2.596 -0.3140  0.1172 -1.2971
   89MOL0     O11939   6.636   5.183   2.604  0.5345  0.7249 -0.8406
   89MOL0     C11940   6.667   5.112   2.728 -1.0834 -0.3709 -0.0805
   89MOL0     C11941   6.577   5.171   2.836  0.2165 -0.8683  1.3178
   89MOL0     C11942   6.497   5.059   2.902 -0.2602  0.5248 -1.4870
   89MOL0     C11943   6.386   5.014   2.807  1.9571 -0.1347 -0.2705
   89MOL0     C11944   6.312   4.903   2.874  0.3910 -0.5135 -0.1806
   89MOL0     C11945   6.259   4.813   2.926  0.5474  0.5736 -1.1389
   89MOL0     C11946   6.754   5.399   2.681  0.1333  0.1935 -0.4566
   89MOL0     C11947   6.792   5.531   2.657  0.5383  0.0760 -0.1204
   89MOL0     H11948   6.933   5.896   2.263  0.7197 -0.6713  0.6039
   89MOL0     H11949   6.978   6.132   2.183 -0.2362  1.1597  0.2488
   89MOL0     H11950   6.692   6.418   2.246  0.0272  1.6838 -1.1471
   89MOL0     H11951   6.784   6.459   2.399 -3.0469  0.2457  0.6268
   89MOL0     H11952   6.940   6.592   2.221  0.2815  0.3315 -0.2626
   89MOL0     H11953   6.822   6.541   2.100 -0.6049 -3.5432  1.8110
   89MOL0     H11954   6.820   6.776   2.180 -1.1242 -1.9500 -4.0088
   89MOL0     H11955   6.657   6.696   2.197 -0.4604  2.3750  0.9813
   89MOL0     H11956   6.710   6.672   2.451 -1.0043 -2.1968 -2.5737
   89MOL0     H11957   6.866   6.732   2.411 -0.7335 -1.5190 -1.4644
   89MOL0     H11958   6.732   6.950   2.325 -0.7945 -3.1719 -4.4310
   89MOL0     H11959   6.590   6.864   2.369 -0.0298  2.0360 -1.0127
   89MOL0     H11960   6.739   6.846   2.597 -1.4810 -1.7560 -1.9743
   89MOL0     H11961   6.806   7.006   2.524  1.1036 -0.2958  2.8704
   89MOL0     H11962   6.506   7.007   2.540 -0.2451 -0.5553  0.6034
   89MOL0     H11963   6.567   6.959   2.695 -1.9343 -2.0934 -1.0533
   89MOL0     H11964   6.663   7.182   2.718  1.5148 -2.6354 -0.0261
   89MOL0     H11965   6.512   7.199   2.644 -2.2400 -3.8131  0.5134
   89MOL0     H11966   6.852   7.281   2.596 -0.5648 -1.1965  0.5812
   89MOL0     H11967   6.928   7.394   2.228 -1.3498  1.4318  1.7301
   89MOL0     H11968   6.997   7.427   2.376  1.7331 -0.1544  1.7239
   89MOL0     H11969   7.127   7.235   2.396  1.6729  2.4751 -2.0282
   89MOL0     H11970   7.133   7.269   2.228 -0.3597  1.7922  0.8519
   89MOL0     H11971   6.989   7.113   2.154  2.9130  1.3684 -1.3398
   89MOL0     H11972   6.934   7.069   2.310 -3.0020  0.4192 -3.0636
   89MOL0     H11973   7.232   7.041   2.210  0.4167 -0.7680 -3.2903
   89MOL0     H11974   7.106   6.923   2.211  3.3187  1.3939 -3.0406
   89MOL0     H11975   7.190   6.708   2.346 -1.8328 -1.4917  0.1263
   89MOL0     H11976   7.051   6.407   2.514 -0.7959 -0.0353 -2.5480
   89MOL0     H11977   7.127   6.473   2.363  2.6167  0.9892 -0.3847
   89MOL0     H11978   7.215   6.437   2.507 -0.1949  0.6659 -1.2546
   89MOL0     H11979   6.943   6.209   2.669 -3.1690  0.5595 -0.5215
   89MOL0     H11980   6.904   6.013   2.804  1.4201  0.3189 -0.8992
   89MOL0     H11981   6.829   5.881   2.934  1.9103 -0.4599 -1.8537
   89MOL0     H11982   6.990   5.819   2.958  2.1393  3.0776  0.9861
   89MOL0     H11983   6.847   5.673   3.033 -0.8167  0.9299 -0.4680
   89MOL0     H11984   6.918   5.742   3.189 -0.1472  1.1180  0.4628
   89MOL0     H11985   6.639   5.811   3.066  1.4738  0.5856 -1.2285
   89MOL0     H11986   6.702   5.902   3.188  3.0753  0.8696 -1.2015
   89MOL0     H11987   6.706   5.610   3.234  1.0018 -0.3370  2.1143
   89MOL0     H11988   6.703   5.736   3.346  0.8091  1.1052 -0.8448
   89MOL0     H11989   6.488   5.657   3.357  0.4643 -2.1269 -1.4754
   89MOL0     H11990   6.461   5.661   3.185 -1.2526 -0.6885  0.6820
   89MOL0     H11991   6.480   5.910   3.201  2.9421 -0.6914  1.7059
   89MOL0     H11992   6.330   5.837   3.267 -0.3311  4.6867 -1.7264
   89MOL0     H11993   6.542   5.963   3.444 -0.0252 -0.7292 -0.6168
   89MOL0     H11994   6.436   5.849   3.492  2.5238  1.5655  1.3660
   89MOL0     H11995   6.242   6.008   3.395  0.3382  1.2864  1.7804
   89MOL0     H11996   6.355   6.121   3.349  0.9828  0.3529  0.7837
   89MOL0     H11997   7.018   6.215   3.157  0.9201 -2.7269  0.0530
   89MOL0     H11998   7.071   6.421   3.011 -1.5787  0.4365  0.8855
   89MOL0     H11999   6.950   6.815   2.777 -0.4579  0.7029  0.2059
   89MOL0     H12000   7.036   6.994   2.628  0.2817  0.8501 -0.7373
   89MOL0     H12001   6.673   6.264   2.453  0.2707 -0.3665  0.1735
   89MOL0     H12002   6.609   6.040   2.511 -0.1177  1.0851  0.0750
   89MOL0     H12003   6.614   5.579   2.378  1.0275 -0.5634 -0.8402
   89MOL0     H12004   6.574   5.335   2.410 -0.7137  1.4483 -0.1985
   89MOL0     H12005   6.649   5.008   2.701 -0.4187 -0.4273 -0.3379
   89MOL0     H12006   6.770   5.131   2.759 -0.0967  0.0679 -3.2360
   89MOL0     H12007   6.505   5.244   2.798  0.8697 -1.0259 -0.2867
   89MOL0     H12008   6.641   5.217   2.912  0.2380  1.9683 -0.2861
   89MOL0     H12009   6.460   5.081   3.003  1.9419 -1.1104 -0.2335
   89MOL0     H12010   6.565   4.976   2.924 -0.7452  0.7411  1.2525
   89MOL0     H12011   6.417   4.966   2.713  1.4554 -0.8256 -0.0965
   89MOL0     H12012   6.321   5.100   2.787  3.0470  0.3277 -1.9853
   89MOL0     H12013   6.208   4.738   2.982 -1.5962  2.4471 -0.4584
   89MOL0     H12014   6.796   5.350   2.768  1.1976  0.9345 -0.5462
   89MOL0     H12015   6.849   5.574   2.739 -0.9661 -0.8845  1.4983
   90MOL0     O12016   7.582   9.541   2.196 -0.7530 -0.5060  0.2757
   90MOL0     C12017   7.565   9.477   2.092 -0.2114 -0.7993  0.5681
   90MOL0     O12018   7.589   9.516   1.961  0.6221 -0.7295  0.7784
   90MOL0     C12019   7.691   9.607   1.953  0.4814 -0.7436  0.0158
   90MOL0     C12020   7.670   9.743   1.907 -1.1432  0.8606 -0.5133
   90MOL0     C12021   7.783   9.834   1.913  1.3050  0.1676  0.2651
   90MOL0     C12022   7.909   9.796   1.941  0.9274  0.5384 -0.1601
   90MOL0     O12023   8.011   9.882   1.939 -1.1759  0.4129 -0.1566
   90MOL0     C12024   7.986  10.030   1.948  0.2105  0.1197  0.0084
   90MOL0     C12025   7.989  10.090   1.805 -0.2614  0.4469  0.7240
   90MOL0     C12026   7.987  10.239   1.800 -0.2874 -0.7733 -0.5802
   90MOL0     C12027   8.018  10.299   1.666  0.4554 -0.7635 -0.4164
   90MOL0     C12028   8.019  10.449   1.669  0.3900  0.1937 -0.5147
   90MOL0     C12029   8.004  10.506   1.532  0.6743 -0.0756  1.0482
   90MOL0     C12030   8.072  10.638   1.509  0.7221 -0.6963 -0.2608
   90MOL0     C12031   8.039  10.673   1.359 -0.0333 -0.2101 -0.8288
   90MOL0     N12032   8.128  10.790   1.328  0.1914  0.9590  0.2312
   90MOL0     C12033   8.083  10.913   1.287 -1.3273 -0.5171 -1.0332
   90MOL0     C12034   8.190  10.969   1.237 -0.3941  0.5335  0.5250
   90MOL0     C12035   8.185  11.113   1.176 -0.3627 -0.1947  0.1694
   90MOL0     C12036   8.233  11.225   1.277  0.0344  1.2984 -0.5198
   90MOL0     C12037   8.236  11.357   1.213  0.0677 -0.0249  0.7690
   90MOL0     C12038   8.313  11.472   1.282 -0.1201  0.2725 -0.0713
   90MOL0     O12039   8.322  11.589   1.206  0.5590  0.3271 -0.7497
   90MOL0     C12040   8.404  11.604   1.099 -0.1230  0.3234  0.5971
   90MOL0     C12041   8.505  11.511   1.071  0.2434  0.7879  0.4054
   90MOL0     C12042   8.598  11.527   0.971  0.0686  0.5838 -0.4207
   90MOL0     C12043   8.690  11.403   0.955 -0.5139  0.2756 -0.5325
   90MOL0     C12044   8.604  11.637   0.890  0.5318 -0.4648  0.5084
   90MOL0     C12045   8.679  11.646   0.765  0.8159  0.4395 -0.3820
   90MOL0     O12046   8.702  11.767   0.722  0.6757 -0.2310 -0.0005
   90MOL0     C12047   8.776  11.772   0.608  0.1383 -0.5883 -0.0873
   90MOL0     C12048   8.734  11.869   0.509  0.0730 -0.9326 -0.3715
   90MOL0     C12049   8.798  11.887   0.390 -1.3053 -0.4752  1.1593
   90MOL0     C12050   8.914  11.811   0.372 -0.8571  0.0355  0.0337
   90MOL0     O12051   8.949  11.830   0.238 -0.7726  0.1968 -0.1496
   90MOL0     C12052   9.036  11.724   0.185  0.3556 -0.6915 -0.1778
   90MOL0     C12053   9.102  11.760   0.050 -0.2418 -0.0062  0.0292
   90MOL0     C12054   8.989  11.752  -0.063  0.9529  1.1603  0.5775
   90MOL0     C12055   9.039  11.798  -0.208 -0.1480 -0.0778 -0.3892
   90MOL0     C12056   8.970  11.724  -0.327 -0.4408  0.6888  0.2938
   90MOL0     C12057   9.003  11.575  -0.355 -0.3357  0.6673 -0.3693
   90MOL0     C12058   9.157  11.555  -0.377  0.0456  0.6655 -0.2298
   90MOL0     C12059   9.184  11.416  -0.432 -0.2917 -0.2850 -0.3304
   90MOL0    Cl12060   9.335  11.367  -0.368  0.5772  0.2808  0.3353
   90MOL0     C12061   8.955  11.714   0.459 -0.0163 -0.8584 -0.0865
   90MOL0     C12062   8.891  11.702   0.571 -0.4449  0.2996 -0.7613
   90MOL0     O12063   8.703  11.540   0.701  0.8472  0.7282 -0.3769
   90MOL0     C12064   8.502  11.734   0.909 -0.1267  0.0303  0.8477
   90MOL0     C12065   8.400  11.712   1.011  0.5512  0.4218  0.5663
   90MOL0     N12066   8.304  10.884   1.250 -0.3902  0.8155  0.0519
   90MOL0     N12067   8.262  10.782   1.320 -0.1869 -0.1020  1.0663
   90MOL0     C12068   7.931   9.656   1.966  1.0324  0.1114 -1.1546
   90MOL0     C12069   7.825   9.571   1.978  0.0190 -0.4670 -0.3302
   90MOL0     C12070   7.522   9.338   2.109  0.0718 -0.5853  0.9569
   90MOL0     C12071   7.521   9.255   1.992  0.7457 -0.4332 -0.0719
   90MOL0     C12072   7.483   9.125   1.985 -0.1111 -1.0871 -0.7827
   90MOL0     C12073   7.460   9.054   2.108  0.1805  0.4707 -0.2739
   90MOL0     O12074   7.437   8.917   2.114  0.7453 -0.1769  0.1264
   90MOL0     C12075   7.376   8.850   2.005  0.5517 -0.3557  0.4711
   90MOL0     C12076   7.308   8.724   2.051  0.5228 -0.9788  0.9342
   90MOL0     C12077   7.210   8.670   1.951  0.0865  0.3072 -0.0200
   90MOL0     C12078   7.134   8.552   1.998  0.1781  0.5313 -0.2291
   90MOL0     C12079   7.213   8.443   2.062 -0.7933  1.2483 -0.9143
   90MOL0     C12080   7.289   8.356   2.112  0.0892  0.1579  0.9997
   90MOL0     C12081   7.481   9.127   2.227 -0.0053  0.0685  0.1483
   90MOL0     C12082   7.498   9.266   2.221 -0.5311  0.2961 -0.4840
   90MOL0     H12083   7.577   9.792   1.879 -0.9123  1.3605 -0.4156
   90MOL0     H12084   7.748   9.930   1.878 -3.5165 -1.1169  0.7616
   90MOL0     H12085   7.889  10.039   1.997 -0.5172 -2.1128 -0.8885
   90MOL0     H12086   8.060  10.077   2.013 -0.5225 -0.4889  1.3138
   90MOL0     H12087   8.074  10.058   1.744 -1.5888  2.5025 -2.5140
   90MOL0     H12088   7.912  10.042   1.743 -0.8489  4.0280 -1.6601
   90MOL0     H12089   7.887  10.274   1.828 -0.1591  2.7040 -3.6945
   90MOL0     H12090   8.058  10.282   1.870 -1.1468  1.6792 -1.0992
   90MOL0     H12091   8.118  10.260   1.644 -0.2707 -3.2482  0.3716
   90MOL0     H12092   7.939  10.255   1.606 -0.4167 -0.4374  0.4749
   90MOL0     H12093   7.947  10.494   1.739  2.6072  1.8247  0.8508
   90MOL0     H12094   8.116  10.480   1.710  0.1559 -0.7911  0.8458
   90MOL0     H12095   8.064  10.438   1.471  0.8440  0.1695  0.9409
   90MOL0     H12096   7.897  10.500   1.513  0.6006 -1.5092  1.7987
   90MOL0     H12097   8.028  10.706   1.583 -1.1325 -2.6596  0.5569
   90MOL0     H12098   8.176  10.631   1.543  0.1077 -0.1835  1.9062
   90MOL0     H12099   7.932  10.693   1.347 -0.7871 -2.5012  1.2526
   90MOL0     H12100   8.058  10.591   1.290 -0.0651  0.9682 -2.2674
   90MOL0     H12101   7.982  10.952   1.281  0.1134  3.4115 -2.9755
   90MOL0     H12102   8.263  11.108   1.099  1.6786 -3.9649  2.1532
   90MOL0     H12103   8.086  11.131   1.133  0.5353 -1.2210 -2.5502
   90MOL0     H12104   8.336  11.201   1.303 -0.3541  1.9009  1.8380
   90MOL0     H12105   8.163  11.228   1.361 -1.4914 -1.8625 -1.4713
   90MOL0     H12106   8.136  11.395   1.191  1.0535  0.3275 -4.8319
   90MOL0     H12107   8.272  11.335   1.112 -3.3352  0.4400 -0.6916
   90MOL0     H12108   8.414  11.442   1.312  0.4878  0.6951 -1.5805
   90MOL0     H12109   8.251  11.489   1.370  3.2464  4.0819  1.8643
   90MOL0     H12110   8.511  11.420   1.130  1.8086 -1.0242 -2.3565
   90MOL0     H12111   8.643  11.341   0.878 -3.0246  1.1417  0.2002
   90MOL0     H12112   8.791  11.438   0.931 -1.6698  2.5505 -2.4863
   90MOL0     H12113   8.702  11.343   1.046  1.7675 -1.8629 -2.1222
   90MOL0     H12114   8.651  11.933   0.537  0.1875 -0.5897 -0.8155
   90MOL0     H12115   8.769  11.951   0.307  2.0424 -2.2994 -1.6884
   90MOL0     H12116   9.118  11.701   0.254 -1.7987 -0.3811  2.6529
   90MOL0     H12117   8.969  11.639   0.170 -1.1136  0.2149  0.9234
   90MOL0     H12118   9.149  11.859   0.047 -1.8975  0.8074 -0.8827
   90MOL0     H12119   9.172  11.681   0.022 -0.3160 -0.2233  0.4521
   90MOL0     H12120   8.915  11.823  -0.023  3.5872  2.9872  2.6232
   90MOL0     H12121   8.947  11.652  -0.072 -3.2803  2.9434 -3.3290
   90MOL0     H12122   9.031  11.907  -0.215 -1.1700 -0.2485 -4.8133
   90MOL0     H12123   9.147  11.780  -0.209 -0.3453 -1.6658  1.3488
   90MOL0     H12124   8.978  11.784  -0.418  0.3927  0.5236  0.2511
   90MOL0     H12125   8.865  11.740  -0.300 -0.6802 -0.1781 -0.0893
   90MOL0     H12126   8.970  11.517  -0.269  1.1675  1.5366  0.8434
   90MOL0     H12127   8.949  11.552  -0.447 -1.3353  0.7313  0.1896
   90MOL0     H12128   9.207  11.567  -0.280  1.9383 -1.8440 -0.7928
   90MOL0     H12129   9.202  11.626  -0.447 -3.3772  2.9963 -0.3107
   90MOL0     H12130   9.188  11.423  -0.541 -2.3073 -2.1780 -0.5888
   90MOL0     H12131   9.105  11.344  -0.408  1.4227 -1.6714  1.5344
   90MOL0     H12132   9.039  11.649   0.440  2.1793  2.2383 -1.7376
   90MOL0     H12133   8.934  11.624   0.634  4.6989  2.2408 -1.3827
   90MOL0     H12134   8.493  11.807   0.829 -1.1686  0.2995  1.1939
   90MOL0     H12135   8.314  11.777   1.021 -0.7754 -1.1017 -0.5467
   90MOL0     H12136   8.032   9.623   1.992  0.6575  0.3379  0.7375
   90MOL0     H12137   7.830   9.467   2.007 -0.2090 -0.2028  0.6887
   90MOL0     H12138   7.541   9.304   1.897  1.6887  1.5070  1.0684
   90MOL0     H12139   7.479   9.070   1.892  1.4002 -3.5217  0.4975
   90MOL0     H12140   7.294   8.910   1.964  1.6206  1.0810  0.3950
   90MOL0     H12141   7.450   8.830   1.927 -2.4081  0.2484 -2.7663
   90MOL0     H12142   7.263   8.742   2.149 -0.3558 -0.4959  0.4555
   90MOL0     H12143   7.389   8.652   2.060  1.4143  0.1640  2.4172
   90MOL0     H12144   7.261   8.637   1.860  0.7933  0.1397  0.4332
   90MOL0     H12145   7.124   8.729   1.918 -2.9144 -4.6518 -2.3815
   90MOL0     H12146   7.071   8.504   1.923 -1.6171 -0.9218  2.0933
   90MOL0     H12147   7.063   8.587   2.073 -1.4567  0.4559 -1.6931
   90MOL0     H12148   7.362   8.281   2.136  3.2676  2.4695 -0.5961
   90MOL0     H12149   7.464   9.089   2.327 -1.5978  1.2511  0.3580
   90MOL0     H12150   7.515   9.311   2.319 -0.3899 -1.3331  0.2828
   91MOL0     O12151   7.628   2.601   5.379  0.0033 -0.5056  0.3944
   91MOL0     C12152   7.701   2.538   5.456  0.4740 -0.8728  0.1825
   91MOL0     O12153   7.700   2.407   5.485  0.5039 -0.2396  0.1874
   91MOL0     C12154   7.636   2.324   5.390  0.3318  0.0045 -1.0032
   91MOL0     C12155   7.695   2.308   5.268  1.0320 -0.9044  0.0257
   91MOL0     C12156   7.638   2.227   5.171  0.3438  0.7220 -0.5425
   91MOL0     C12157   7.514   2.167   5.189  0.7210  0.4206  0.5889
   91MOL0     O12158   7.455   2.093   5.086  0.5402 -0.2414 -0.3424
   91MOL0     C12159   7.328   2.144   5.047  0.2334  0.2738  0.0875
   91MOL0     C12160   7.238   2.040   4.982  0.3878 -0.3794 -0.1849
   91MOL0     C12161   7.094   2.082   4.973 -0.4200  0.3354  0.8055
   91MOL0     C12162   7.079   2.193   4.864  0.6218  0.6551  0.7011
   91MOL0     C12163   6.941   2.248   4.842  0.9847  0.4633  0.7288
   91MOL0     C12164   6.871   2.307   4.962 -0.3140 -0.1309 -0.0131
   91MOL0     C12165   6.734   2.382   4.924  0.5481  0.0051 -0.2007
   91MOL0     C12166   6.619   2.280   4.905  0.6671  0.0384 -0.2732
   91MOL0     N12167   6.515   2.332   4.818  0.0521  0.2123  0.3363
   91MOL0     C12168   6.520   2.342   4.682  0.4907  0.2493  0.3627
   91MOL0     C12169   6.422   2.416   4.648 -0.0378  0.7493 -0.3987
   91MOL0     C12170   6.383   2.454   4.503  0.7741  0.0309  0.1794
   91MOL0     C12171   6.276   2.354   4.448  1.3885  0.3563 -0.1809
   91MOL0     C12172   6.334   2.234   4.368 -0.0221 -0.5419  1.1468
   91MOL0     C12173   6.234   2.131   4.323  0.3578  0.3012  0.3808
   91MOL0     O12174   6.133   2.201   4.241 -0.3489  0.1718 -0.3037
   91MOL0     C12175   6.042   2.121   4.174 -0.1286 -0.8243  0.2624
   91MOL0     C12176   6.002   1.993   4.209 -0.1026  0.0101  0.7623
   91MOL0     C12177   5.909   1.919   4.140 -0.1162  0.0870 -1.2024
   91MOL0     C12178   5.876   1.790   4.203  0.0774 -0.1086  0.3512
   91MOL0     C12179   5.834   1.982   4.028  0.5114 -0.1879 -0.0564
   91MOL0     C12180   5.728   1.936   3.943 -0.4375 -0.8854  0.2525
   91MOL0     O12181   5.673   1.829   3.994 -0.7355  0.0364 -0.3313
   91MOL0     C12182   5.565   1.761   3.940  0.5970 -0.0738 -0.3587
   91MOL0     C12183   5.489   1.677   4.029 -0.4084  0.7577  0.2343
   91MOL0     C12184   5.408   1.576   3.983 -0.2354  0.4107  0.0697
   91MOL0     C12185   5.373   1.574   3.847 -0.1645 -0.3730 -0.0996
   91MOL0     O12186   5.292   1.475   3.797 -0.6303 -0.0413  0.3398
   91MOL0     C12187   5.197   1.409   3.874  0.9371  0.1743 -0.6039
   91MOL0     C12188   5.096   1.338   3.780 -0.0217 -0.7248  0.3156
   91MOL0     C12189   4.984   1.282   3.863  0.3977 -0.2464  0.7783
   91MOL0     C12190   4.874   1.209   3.766  0.0827  0.4403 -0.0442
   91MOL0     C12191   4.759   1.141   3.850  1.0512  0.2168 -0.1134
   91MOL0     C12192   4.664   1.256   3.904 -0.2963  0.5195 -0.1869
   91MOL0     C12193   4.543   1.185   3.968  0.5393  0.2677 -1.2586
   91MOL0     C12194   4.480   1.273   4.075  0.0748 -0.4837 -0.3371
   91MOL0    Cl12195   4.575   1.289   4.222  0.2441  0.2965  0.0309
   91MOL0     C12196   5.437   1.654   3.756 -0.1782 -0.4453  0.3810
   91MOL0     C12197   5.542   1.748   3.802  0.6819 -0.1944  0.0033
   91MOL0     O12198   5.702   1.988   3.834  0.2814  0.3473 -0.3075
   91MOL0     C12199   5.876   2.117   3.998  0.5581  0.7676  0.3009
   91MOL0     C12200   5.979   2.179   4.064  0.3279 -0.6036  0.1116
   91MOL0     N12201   6.357   2.455   4.764 -0.7296 -0.7406 -0.0078
   91MOL0     N12202   6.416   2.405   4.869 -0.2726 -0.3716  0.4873
   91MOL0     C12203   7.457   2.177   5.313 -0.2706  0.5106 -0.7915
   91MOL0     C12204   7.516   2.253   5.409  0.5883 -0.2580 -0.6497
   91MOL0     C12205   7.805   2.621   5.516 -0.5721 -0.9328 -0.4680
   91MOL0     C12206   7.929   2.559   5.551 -0.8805  0.2405  1.2927
   91MOL0     C12207   8.040   2.640   5.590  0.3130 -0.7734  0.1188
   91MOL0     C12208   8.009   2.771   5.644 -0.5590 -0.0219  0.3779
   91MOL0     O12209   8.110   2.841   5.694 -0.1142 -0.6217 -0.0809
   91MOL0     C12210   8.133   2.963   5.625 -0.5002 -0.5311 -0.0707
   91MOL0     C12211   8.128   3.084   5.721 -1.0274 -0.4875 -0.1522
   91MOL0     C12212   8.207   3.206   5.659 -0.0838  0.4819 -1.2153
   91MOL0     C12213   8.232   3.307   5.778 -0.4931  1.1243 -0.2633
   91MOL0     C12214   8.104   3.358   5.829  0.2220  0.1841 -0.2000
   91MOL0     C12215   7.990   3.392   5.861  0.0259  0.0324 -0.8720
   91MOL0     C12216   7.886   2.820   5.626  0.9083 -0.7629 -1.2196
   91MOL0     C12217   7.791   2.751   5.558  0.9849  0.3541  0.1123
   91MOL0     H12218   7.791   2.348   5.238  1.0209  0.0862  1.2021
   91MOL0     H12219   7.692   2.202   5.080  1.4961  1.4745 -0.0912
   91MOL0     H12220   7.281   2.186   5.137 -3.6203  0.4650 -1.7967
   91MOL0     H12221   7.334   2.225   4.974 -3.2364  2.1447  1.6066
   91MOL0     H12222   7.272   2.003   4.886  0.2348 -1.9752  0.3551
   91MOL0     H12223   7.236   1.961   5.058  0.6821  1.3026  1.6918
   91MOL0     H12224   7.018   2.007   4.947  1.2047 -1.2505  0.4430
   91MOL0     H12225   7.058   2.110   5.072  1.0213 -1.5916  1.9257
   91MOL0     H12226   7.140   2.282   4.884 -0.5241  2.4832 -2.9300
   91MOL0     H12227   7.121   2.163   4.767  1.6333 -3.3305  2.1680
   91MOL0     H12228   6.961   2.320   4.762  4.7134 -3.7585 -2.6744
   91MOL0     H12229   6.878   2.176   4.789  1.7605  1.7963 -2.2147
   91MOL0     H12230   6.841   2.227   5.030  1.6702  0.7658  2.0785
   91MOL0     H12231   6.927   2.378   5.024 -0.1315  1.3469 -1.7814
   91MOL0     H12232   6.709   2.439   5.014  4.5342  1.1957  0.3296
   91MOL0     H12233   6.752   2.452   4.842  1.4706 -1.6266 -1.4492
   91MOL0     H12234   6.581   2.246   5.002 -0.8422 -1.8103 -1.4405
   91MOL0     H12235   6.660   2.190   4.856  2.8920  0.9220 -0.1525
   91MOL0     H12236   6.603   2.312   4.619  0.4674  3.9585 -1.7267
   91MOL0     H12237   6.336   2.552   4.513  3.2102  1.3732 -0.7063
   91MOL0     H12238   6.467   2.471   4.435  0.8122  3.1541  0.8536
   91MOL0     H12239   6.207   2.404   4.379  0.4430  2.8934  2.4349
   91MOL0     H12240   6.201   2.324   4.522  0.0832  0.2553 -1.5021
   91MOL0     H12241   6.402   2.175   4.429 -0.9983 -0.7772  2.0399
   91MOL0     H12242   6.392   2.266   4.280 -1.2241 -1.1091  0.1050
   91MOL0     H12243   6.194   2.069   4.404  2.6690 -1.6397  0.1664
   91MOL0     H12244   6.287   2.069   4.250  0.9701  1.9919 -0.6614
   91MOL0     H12245   6.034   1.950   4.304 -0.1509  0.0819  0.8114
   91MOL0     H12246   5.782   1.793   4.258  1.2159 -1.4344  2.5289
   91MOL0     H12247   5.879   1.706   4.132 -0.0729  0.9271 -0.9050
   91MOL0     H12248   5.959   1.771   4.272  2.1814  1.7792 -1.5001
   91MOL0     H12249   5.502   1.693   4.135  2.9374  0.8958 -0.0814
   91MOL0     H12250   5.356   1.505   4.048  1.5768 -1.4129 -0.3761
   91MOL0     H12251   5.235   1.331   3.939  2.0857  1.3920  0.2341
   91MOL0     H12252   5.149   1.481   3.941  2.6811 -0.4380  1.3796
   91MOL0     H12253   5.064   1.411   3.706 -4.4058 -1.2919  1.3113
   91MOL0     H12254   5.139   1.255   3.723 -0.2001  0.2551 -1.3179
   91MOL0     H12255   4.935   1.371   3.903 -2.2277 -1.3856  0.2872
   91MOL0     H12256   5.027   1.220   3.942  0.5975 -2.4291 -0.9411
   91MOL0     H12257   4.834   1.281   3.694  1.5188  0.2887 -1.0456
   91MOL0     H12258   4.915   1.135   3.696 -1.2340 -1.7901  1.4023
   91MOL0     H12259   4.796   1.070   3.925 -0.1970  0.0683  0.3909
   91MOL0     H12260   4.704   1.079   3.778 -1.6124 -1.2904  2.9389
   91MOL0     H12261   4.714   1.304   3.989  1.3520  0.0348 -0.8455
   91MOL0     H12262   4.621   1.315   3.823 -1.4909 -1.7443 -1.2791
   91MOL0     H12263   4.584   1.092   4.008 -2.1376 -0.5669 -0.2836
   91MOL0     H12264   4.460   1.167   3.899 -2.8915  0.6555  2.3735
   91MOL0     H12265   4.384   1.235   4.109  0.7989 -1.5427  0.6097
   91MOL0     H12266   4.470   1.377   4.045 -1.7167 -0.3917  0.4307
   91MOL0     H12267   5.420   1.634   3.651  1.9536 -0.2484 -0.0615
   91MOL0     H12268   5.584   1.813   3.726  0.9535 -2.0289 -1.4935
   91MOL0     H12269   5.839   2.163   3.906  0.3430 -1.6821 -0.9307
   91MOL0     H12270   6.006   2.281   4.038 -3.6344  0.6245  0.2081
   91MOL0     H12271   7.366   2.122   5.334  1.1367 -1.1875  1.3018
   91MOL0     H12272   7.475   2.254   5.509  1.4031 -1.8339 -0.2660
   91MOL0     H12273   7.948   2.455   5.529 -0.0139  0.2634  1.8872
   91MOL0     H12274   8.131   2.592   5.623 -0.6639 -0.5959  3.4681
   91MOL0     H12275   8.230   2.956   5.575 -0.9154  0.0519 -0.9780
   91MOL0     H12276   8.057   2.979   5.548 -4.4171  1.3496  3.7183
   91MOL0     H12277   8.177   3.062   5.816  0.8560  1.9321 -0.4590
   91MOL0     H12278   8.024   3.114   5.732 -1.5291 -2.3142  0.3364
   91MOL0     H12279   8.157   3.247   5.571  0.1584  0.0173 -1.5752
   91MOL0     H12280   8.306   3.166   5.634 -1.2829 -3.3578 -0.4395
   91MOL0     H12281   8.302   3.385   5.747 -0.9385  1.7999  0.4214
   91MOL0     H12282   8.291   3.264   5.860  0.2362  1.6780 -0.4913
   91MOL0     H12283   7.885   3.407   5.875 -0.6072 -1.8717 -2.9233
   91MOL0     H12284   7.860   2.918   5.663 -0.4070 -1.9770  1.3152
   91MOL0     H12285   7.702   2.808   5.531  0.6216  0.1327  0.8115
   92MOL0     O12286  10.465   1.479   6.602 -0.3180  1.2653 -0.3829
   92MOL0     C12287  10.369   1.487   6.669  0.1480 -0.0331  1.1462
   92MOL0     O12288  10.365   1.553   6.790  0.6043  0.8174  0.2812
   92MOL0     C12289  10.476   1.620   6.842  0.4656 -0.7900 -0.1870
   92MOL0     C12290  10.607   1.575   6.845  0.4345 -0.9767  1.1474
   92MOL0     C12291  10.704   1.656   6.895 -0.4203  0.0662 -0.4228
   92MOL0     C12292  10.672   1.778   6.968 -0.3233 -0.5158 -0.3438
   92MOL0     O12293  10.769   1.843   7.042  0.0114  0.6172  0.0254
   92MOL0     C12294  10.751   1.978   7.097  0.1317 -0.0683 -0.7031
   92MOL0     C12295  10.725   1.974   7.249  0.7768  0.4515 -0.6588
   92MOL0     C12296  10.591   1.898   7.293 -0.7184  0.3919  0.5352
   92MOL0     C12297  10.576   1.924   7.445 -0.0664 -0.0948 -0.0122
   92MOL0     C12298  10.448   1.862   7.501  0.5232  0.6728 -0.5779
   92MOL0     C12299  10.469   1.844   7.651 -0.2778 -0.5297 -0.5547
   92MOL0     C12300  10.331   1.874   7.708  0.0782  0.5185 -0.2349
   92MOL0     C12301  10.232   1.761   7.683  0.3990 -1.5192  0.3976
   92MOL0     N12302  10.276   1.637   7.754  0.1902 -0.3581 -0.8446
   92MOL0     C12303  10.255   1.624   7.893  0.1896 -0.4973 -0.5461
   92MOL0     C12304  10.302   1.497   7.911 -0.3535  0.4651 -0.4811
   92MOL0     C12305  10.300   1.418   8.044 -0.3745  0.2664 -0.3831
   92MOL0     C12306  10.317   1.497   8.183 -0.0220  1.0305 -0.7460
   92MOL0     C12307  10.335   1.406   8.308 -0.5751  1.1024  0.0123
   92MOL0     C12308  10.369   1.491   8.425  0.0108 -0.4911  0.4626
   92MOL0     O12309  10.506   1.538   8.409  0.5571  0.2165  0.5475
   92MOL0     C12310  10.547   1.656   8.456  0.2396 -0.4367  0.2692
   92MOL0     C12311  10.477   1.735   8.544  0.3939  0.1108  0.0468
   92MOL0     C12312  10.518   1.855   8.601 -0.2055 -0.1150 -0.0940
   92MOL0     C12313  10.423   1.960   8.658  0.1903  0.5204 -0.7050
   92MOL0     C12314  10.657   1.883   8.588  0.2586 -0.2579 -0.0246
   92MOL0     C12315  10.725   1.991   8.664  0.1010 -0.1037  0.5460
   92MOL0     O12316  10.838   2.035   8.610  0.7933  0.7666 -0.5330
   92MOL0     C12317  10.928   2.115   8.681  0.4336 -1.1580 -0.1255
   92MOL0     C12318  11.057   2.070   8.697 -0.7123  0.9197 -0.0045
   92MOL0     C12319  11.168   2.155   8.726  0.1614 -0.9336 -0.2469
   92MOL0     C12320  11.148   2.290   8.745  0.3221 -0.4993  0.5923
   92MOL0     O12321  11.251   2.389   8.759 -0.3716 -0.1287 -0.6235
   92MOL0     C12322  11.375   2.347   8.815 -0.9452  0.1391  0.4439
   92MOL0     C12323  11.448   2.482   8.834 -0.4974 -0.0366  0.2397
   92MOL0     C12324  11.417   2.550   8.967 -0.4232  0.1361  0.7849
   92MOL0     C12325  11.536   2.640   9.016  0.1035  0.4631  0.0009
   92MOL0     C12326  11.590   2.761   8.939 -0.5884  0.8486  0.8258
   92MOL0     C12327  11.694   2.842   9.017 -0.1276 -0.0907 -0.0347
   92MOL0     C12328  11.712   2.977   8.935 -0.2006 -0.4446 -0.1016
   92MOL0     C12329  11.595   3.076   8.949 -1.0216 -0.2455 -0.1628
   92MOL0    Cl12330  11.657   3.219   8.857  0.3364  0.3277 -0.2413
   92MOL0     C12331  11.015   2.336   8.730  0.7052 -0.0021  0.0655
   92MOL0     C12332  10.904   2.250   8.702 -0.2114  0.0326  0.3604
   92MOL0     O12333  10.679   2.037   8.769  0.4029 -0.2056  0.9213
   92MOL0     C12334  10.740   1.797   8.513  0.3854 -0.5743 -0.4754
   92MOL0     C12335  10.684   1.698   8.436  0.0904 -0.0973 -0.2133
   92MOL0     N12336  10.359   1.451   7.796 -0.4037  0.5907 -0.8692
   92MOL0     N12337  10.338   1.532   7.697 -0.0738 -0.4808  0.0571
   92MOL0     C12338  10.537   1.814   6.968  0.1527 -0.4737  0.1588
   92MOL0     C12339  10.442   1.740   6.900 -0.3162 -0.0485 -0.1089
   92MOL0     C12340  10.239   1.435   6.613  0.3366 -0.1039  0.7224
   92MOL0     C12341  10.236   1.335   6.515  0.1926  0.2784  0.3018
   92MOL0     C12342  10.118   1.286   6.461  0.6966 -0.1840  0.2408
   92MOL0     C12343   9.997   1.344   6.503  0.6972  0.5973 -0.0643
   92MOL0     O12344   9.878   1.302   6.473  0.5939  0.0389  0.4697
   92MOL0     C12345   9.841   1.192   6.378 -0.9120  0.0283  0.2220
   92MOL0     C12346   9.734   1.093   6.425 -0.8743  0.0640 -0.3860
   92MOL0     C12347   9.622   1.167   6.501  0.7164 -0.0990 -0.6188
   92MOL0     C12348   9.639   1.133   6.652  0.0005 -0.0369 -0.0064
   92MOL0     C12349   9.536   1.188   6.741  0.0078  0.1090  0.6657
   92MOL0     C12350   9.453   1.252   6.813 -0.5467  0.8685  0.6421
   92MOL0     C12351   9.996   1.446   6.597  0.4400 -0.3533  0.0670
   92MOL0     C12352  10.115   1.484   6.655 -0.8781 -0.5109 -0.8715
   92MOL0     H12353  10.634   1.490   6.783  0.0340  0.1161 -0.6193
   92MOL0     H12354  10.807   1.627   6.876 -0.6576 -0.5279 -0.8231
   92MOL0     H12355  10.851   2.024   7.097  1.4143 -2.4393  2.3982
   92MOL0     H12356  10.685   2.048   7.045  2.1571  1.5194 -1.2797
   92MOL0     H12357  10.806   1.930   7.309 -0.1384 -0.1665  0.1502
   92MOL0     H12358  10.710   2.075   7.289 -1.5290  0.4674 -1.4361
   92MOL0     H12359  10.511   1.939   7.231  2.1454  0.6393 -3.3379
   92MOL0     H12360  10.612   1.793   7.272  3.5902  0.6884  2.1503
   92MOL0     H12361  10.659   1.873   7.494 -0.9323 -1.5545 -0.0155
   92MOL0     H12362  10.570   2.032   7.464  0.1783  0.3608 -2.2376
   92MOL0     H12363  10.363   1.927   7.475  1.9878  2.7721 -0.3157
   92MOL0     H12364  10.432   1.760   7.465 -2.6996  1.4560 -1.7139
   92MOL0     H12365  10.504   1.742   7.673  2.0500 -0.0153 -1.5390
   92MOL0     H12366  10.551   1.910   7.682 -0.3583 -0.5508 -0.2952
   92MOL0     H12367  10.343   1.875   7.817  1.2205 -3.7456 -0.1563
   92MOL0     H12368  10.293   1.973   7.680 -0.3590  0.6711  0.8469
   92MOL0     H12369  10.237   1.734   7.577 -0.3240 -2.4224  0.5805
   92MOL0     H12370  10.127   1.786   7.703 -0.3815 -2.8777 -1.6073
   92MOL0     H12371  10.194   1.695   7.948 -3.2741 -1.0172 -3.3965
   92MOL0     H12372  10.211   1.356   8.058  1.8532 -2.5701  3.5892
   92MOL0     H12373  10.378   1.341   8.041 -0.4838  0.1716 -0.8993
   92MOL0     H12374  10.231   1.563   8.192  0.7160  1.7429  2.2831
   92MOL0     H12375  10.398   1.570   8.175  1.0308  0.3431  2.2811
   92MOL0     H12376  10.407   1.325   8.300 -2.8449 -1.6092  3.8221
   92MOL0     H12377  10.241   1.353   8.321  0.1592  0.1138  1.6997
   92MOL0     H12378  10.357   1.426   8.513 -1.0095 -0.3506  0.4459
   92MOL0     H12379  10.305   1.580   8.432  1.2506  0.3433  1.8024
   92MOL0     H12380  10.373   1.710   8.565  1.0985 -2.1426  1.1838
   92MOL0     H12381  10.333   1.961   8.595  0.1200  0.0840 -0.6213
   92MOL0     H12382  10.392   1.955   8.763 -1.7077 -2.5126 -1.2641
   92MOL0     H12383  10.476   2.055   8.649  2.4199 -0.7438 -2.0528
   92MOL0     H12384  11.066   1.962   8.692  2.4320  0.9910  1.6263
   92MOL0     H12385  11.265   2.107   8.718  0.0815 -0.7527 -3.3171
   92MOL0     H12386  11.373   2.282   8.903 -0.4353 -2.1215 -1.1259
   92MOL0     H12387  11.432   2.289   8.742 -1.5240 -2.1085  1.6971
   92MOL0     H12388  11.552   2.449   8.841 -0.9903 -1.4312  1.5243
   92MOL0     H12389  11.432   2.549   8.748  4.0692  0.6060 -0.3387
   92MOL0     H12390  11.386   2.474   9.039 -0.4453 -0.1715  0.4535
   92MOL0     H12391  11.335   2.622   8.956 -1.9715 -1.2540  2.5685
   92MOL0     H12392  11.503   2.671   9.116  0.0897 -3.4959  1.3949
   92MOL0     H12393  11.614   2.564   9.028  1.7650  1.7454 -1.9864
   92MOL0     H12394  11.503   2.822   8.912  0.6768  2.1681 -0.4431
   92MOL0     H12395  11.629   2.729   8.842  0.9975 -0.9113  1.9802
   92MOL0     H12396  11.665   2.868   9.120  0.9838 -0.9959  0.5277
   92MOL0     H12397  11.788   2.786   9.021  2.4470  3.9056  2.0947
   92MOL0     H12398  11.719   2.954   8.829 -0.1075  2.1399 -0.7188
   92MOL0     H12399  11.800   3.035   8.964 -1.1975  0.7598  0.6186
   92MOL0     H12400  11.581   3.099   9.055 -0.9745 -1.2907  0.0848
   92MOL0     H12401  11.497   3.039   8.914  0.6534 -1.4537 -4.2202
   92MOL0     H12402  11.014   2.444   8.745  1.7521  0.2004 -1.1311
   92MOL0     H12403  10.809   2.299   8.686  1.5325  2.8119 -2.5108
   92MOL0     H12404  10.841   1.835   8.501 -0.4901  1.3708 -2.1979
   92MOL0     H12405  10.736   1.638   8.362  1.3714  1.8526 -0.9574
   92MOL0     H12406  10.493   1.907   7.002  0.2124 -0.1142 -0.6974
   92MOL0     H12407  10.338   1.772   6.891 -0.4929 -0.9478 -1.4917
   92MOL0     H12408  10.332   1.301   6.477  0.2209  2.1276 -1.4542
   92MOL0     H12409  10.129   1.217   6.378 -0.3926  2.1518 -1.9679
   92MOL0     H12410   9.805   1.234   6.284 -0.6459 -0.4004 -0.0782
   92MOL0     H12411   9.927   1.128   6.357 -2.2865 -1.5020 -1.0053
   92MOL0     H12412   9.783   1.023   6.493  0.1143  1.4997  0.4470
   92MOL0     H12413   9.690   1.037   6.342  1.8126 -4.4795  0.8811
   92MOL0     H12414   9.527   1.146   6.451  1.3922 -1.4785 -1.3832
   92MOL0     H12415   9.625   1.275   6.483 -3.5161  0.1675 -0.7868
   92MOL0     H12416   9.732   1.181   6.682  0.9376 -0.8225 -1.5388
   92MOL0     H12417   9.645   1.029   6.685  1.6228  0.6670  2.1578
   92MOL0     H12418   9.387   1.291   6.888  0.0368 -1.8563  2.7008
   92MOL0     H12419   9.904   1.489   6.635  0.5774 -1.1125  1.2973
   92MOL0     H12420  10.113   1.573   6.718 -0.5898 -0.5942 -0.7443
   93MOL0     O12421   8.392   1.593   8.315  0.7878  0.5245 -0.2839
   93MOL0     C12422   8.481   1.550   8.247  0.2364 -0.5434  0.1488
   93MOL0     O12423   8.516   1.416   8.240  0.2885  0.4361  0.6931
   93MOL0     C12424   8.413   1.316   8.257  0.2225 -0.2251 -0.9598
   93MOL0     C12425   8.463   1.204   8.326 -0.1361 -0.3769  0.4068
   93MOL0     C12426   8.382   1.092   8.363  0.5059 -0.0920  0.9410
   93MOL0     C12427   8.251   1.094   8.325  0.2131 -0.9167 -0.1021
   93MOL0     O12428   8.174   0.984   8.368  0.3918 -0.5444  0.0557
   93MOL0     C12429   8.131   0.891   8.265  0.1106  0.0943 -0.2331
   93MOL0     C12430   7.977   0.868   8.302 -0.4261 -0.7536 -0.9338
   93MOL0     C12431   7.889   0.791   8.199 -0.1172  0.0953 -0.0829
   93MOL0     C12432   7.827   0.874   8.085  0.8158 -0.7114 -0.5566
   93MOL0     C12433   7.707   0.805   8.028  0.7292 -0.0312  0.7284
   93MOL0     C12434   7.619   0.892   7.941 -0.1926  0.6453 -0.4551
   93MOL0     C12435   7.482   0.829   7.919  0.0430  0.6021  0.0059
   93MOL0     C12436   7.398   0.916   7.820  1.2024 -0.4251  0.1277
   93MOL0     N12437   7.261   0.872   7.826  0.2095  0.9397  0.3547
   93MOL0     C12438   7.181   0.819   7.733  0.0830 -0.1338  0.8318
   93MOL0     C12439   7.055   0.823   7.774 -0.2021 -0.7732  0.6416
   93MOL0     C12440   6.938   0.814   7.685  0.5102 -0.3039 -0.4478
   93MOL0     C12441   6.912   0.949   7.612  0.7731 -0.4893 -0.3944
   93MOL0     C12442   6.756   0.962   7.577  0.1321 -0.0827  0.2857
   93MOL0     C12443   6.733   1.038   7.454  0.4331 -1.0497 -0.7397
   93MOL0     O12444   6.585   1.054   7.443 -0.0192 -0.6421  0.0936
   93MOL0     C12445   6.530   1.137   7.346  1.2227  0.6628  0.1703
   93MOL0     C12446   6.590   1.254   7.289  0.8306  0.7485  0.1182
   93MOL0     C12447   6.515   1.332   7.196  0.2174 -0.6680  0.5343
   93MOL0     C12448   6.581   1.461   7.143 -0.0116 -0.4375  0.3138
   93MOL0     C12449   6.382   1.293   7.161 -0.1850 -0.2047  0.9110
   93MOL0     C12450   6.300   1.366   7.055  0.9185  0.7340 -0.3644
   93MOL0     O12451   6.361   1.426   6.954  0.1470  0.5286  0.0692
   93MOL0     C12452   6.283   1.509   6.871 -0.2475  0.2457  0.5927
   93MOL0     C12453   6.238   1.632   6.913 -0.7071  0.6532  0.2463
   93MOL0     C12454   6.170   1.717   6.827  0.3630  0.5449  0.1831
   93MOL0     C12455   6.155   1.680   6.696  0.9992  0.8183  0.2852
   93MOL0     O12456   6.080   1.770   6.623 -0.2665 -0.3533 -0.3101
   93MOL0     C12457   6.044   1.738   6.484  1.3766 -0.0969 -0.0910
   93MOL0     C12458   5.938   1.835   6.417  0.5371 -0.2412 -0.5460
   93MOL0     C12459   5.975   1.985   6.402  0.2681 -0.0620 -0.4684
   93MOL0     C12460   6.065   2.034   6.285 -0.1989 -0.3032 -0.4028
   93MOL0     C12461   6.095   2.183   6.295  0.8550 -0.2794 -0.1625
   93MOL0     C12462   6.144   2.236   6.157  0.3433 -0.1279  0.0151
   93MOL0     C12463   6.029   2.293   6.072 -0.8046  0.1312  0.2139
   93MOL0     C12464   6.068   2.403   5.962  0.4332  0.6265 -0.5563
   93MOL0    Cl12465   6.192   2.348   5.832 -0.2800 -0.2306  0.3201
   93MOL0     C12466   6.197   1.559   6.653 -0.6490 -0.3145 -0.2549
   93MOL0     C12467   6.264   1.474   6.733  0.0754 -0.8757  0.3233
   93MOL0     O12468   6.180   1.376   7.082 -0.0855 -0.4644 -0.6561
   93MOL0     C12469   6.330   1.170   7.205  0.0788 -0.9837 -0.2429
   93MOL0     C12470   6.402   1.098   7.296 -0.1437 -0.7782  0.3824
   93MOL0     N12471   7.057   0.849   7.909 -0.3482 -0.5538  0.4180
   93MOL0     N12472   7.175   0.897   7.932  0.2142  1.7487  0.3289
   93MOL0     C12473   8.198   1.212   8.271  0.0403 -0.3979 -0.1504
   93MOL0     C12474   8.270   1.329   8.241 -0.5151  0.8764  0.6320
   93MOL0     C12475   8.558   1.649   8.179 -0.0540 -0.1312  0.0586
   93MOL0     C12476   8.517   1.780   8.173 -0.2686  0.9920  0.4079
   93MOL0     C12477   8.605   1.885   8.129 -0.8621  0.2522 -0.5076
   93MOL0     C12478   8.726   1.853   8.077 -0.7663 -0.7433  1.0184
   93MOL0     O12479   8.811   1.946   8.015  0.3814 -0.1847 -0.3123
   93MOL0     C12480   8.803   2.081   8.055 -0.0851 -0.9285  0.1138
   93MOL0     C12481   8.937   2.151   8.017  0.4991  0.4499 -0.1684
   93MOL0     C12482   8.926   2.217   7.875 -0.1441  0.8277  0.7925
   93MOL0     C12483   9.064   2.259   7.826  0.0640  0.0694 -0.3631
   93MOL0     C12484   9.107   2.370   7.913  0.5439 -0.4082 -0.7060
   93MOL0     C12485   9.133   2.475   7.965  0.8847 -0.2232 -0.0759
   93MOL0     C12486   8.770   1.719   8.071 -0.5233 -0.1012  0.2878
   93MOL0     C12487   8.683   1.622   8.131 -0.1167  0.2561  0.4227
   93MOL0     H12488   8.570   1.201   8.344  0.0249  2.6646  0.5656
   93MOL0     H12489   8.421   0.996   8.393  3.8482  1.3244  1.6218
   93MOL0     H12490   8.136   0.939   8.166  1.6471  2.0878  0.7429
   93MOL0     H12491   8.191   0.800   8.262  0.2317  0.1873 -1.6293
   93MOL0     H12492   7.984   0.822   8.401  1.5045 -0.1792 -0.7582
   93MOL0     H12493   7.940   0.970   8.310  4.0104  1.3815 -3.6211
   93MOL0     H12494   7.953   0.712   8.158  1.2916  1.4005 -0.4957
   93MOL0     H12495   7.811   0.743   8.260  0.2956  1.4186  1.5692
   93MOL0     H12496   7.793   0.966   8.133 -1.8121 -2.6695  1.6963
   93MOL0     H12497   7.901   0.891   8.007 -0.7334 -2.6647 -2.6157
   93MOL0     H12498   7.739   0.724   7.963  2.0546  0.9000  0.1819
   93MOL0     H12499   7.643   0.755   8.102 -3.3447 -2.6655 -3.9362
   93MOL0     H12500   7.604   0.992   7.982 -0.7989  0.7023 -0.8066
   93MOL0     H12501   7.667   0.910   7.845  1.7944  2.3625  0.7866
   93MOL0     H12502   7.489   0.729   7.874 -0.1954 -1.6384  4.3760
   93MOL0     H12503   7.439   0.821   8.019  0.7964  1.8592  0.4561
   93MOL0     H12504   7.415   0.914   7.712  1.1066  2.3496 -0.0237
   93MOL0     H12505   7.389   1.018   7.858  1.9830 -0.0123 -0.7584
   93MOL0     H12506   7.214   0.780   7.637  0.1927  1.5576  0.1360
   93MOL0     H12507   6.950   0.727   7.620 -1.9527 -1.2103  0.1831
   93MOL0     H12508   6.850   0.801   7.749  0.1515 -0.0801 -0.8913
   93MOL0     H12509   6.982   0.966   7.530  1.8463 -1.2670  0.3297
   93MOL0     H12510   6.927   1.026   7.689  0.5365  1.3224 -2.0981
   93MOL0     H12511   6.696   1.005   7.658  0.9564 -1.2940  1.5886
   93MOL0     H12512   6.704   0.866   7.565 -0.9454  0.1483  2.6149
   93MOL0     H12513   6.758   0.980   7.365 -2.3468 -1.2268 -1.4847
   93MOL0     H12514   6.785   1.134   7.446 -2.5893  0.7507 -0.4880
   93MOL0     H12515   6.687   1.297   7.314  0.3230  4.1471 -2.9823
   93MOL0     H12516   6.650   1.430   7.064  2.8860 -0.4813  2.6795
   93MOL0     H12517   6.512   1.540   7.109 -2.0078 -2.5502 -0.8180
   93MOL0     H12518   6.628   1.509   7.229 -1.5508 -0.1982  1.0548
   93MOL0     H12519   6.239   1.651   7.020 -2.2572  1.0099  0.2128
   93MOL0     H12520   6.126   1.810   6.862 -0.9071 -0.7619  2.3453
   93MOL0     H12521   6.137   1.756   6.430  0.9890  2.2162 -0.0816
   93MOL0     H12522   6.009   1.634   6.485 -0.6539  0.5137 -1.4993
   93MOL0     H12523   5.919   1.788   6.320 -0.8462 -0.8259 -0.0187
   93MOL0     H12524   5.844   1.829   6.473 -0.5421 -1.2682 -2.3546
   93MOL0     H12525   6.012   2.014   6.501  3.9574  2.0469 -2.2277
   93MOL0     H12526   5.884   2.044   6.385  0.5859 -0.0507 -2.3085
   93MOL0     H12527   6.156   1.977   6.307  0.5372 -0.3622 -3.1711
   93MOL0     H12528   6.026   2.007   6.186 -0.2734 -2.4983  0.1822
   93MOL0     H12529   6.176   2.199   6.367  1.2530 -0.6621 -0.5133
   93MOL0     H12530   6.003   2.228   6.332 -0.4545 -1.7312 -1.5309
   93MOL0     H12531   6.205   2.324   6.183 -1.4560  0.2711  3.3625
   93MOL0     H12532   6.197   2.161   6.096 -1.1898  0.7537 -2.5763
   93MOL0     H12533   5.958   2.343   6.138  0.3427  0.6264  1.1283
   93MOL0     H12534   5.977   2.215   6.016  1.2900 -0.4654 -1.0372
   93MOL0     H12535   6.120   2.491   6.001  1.9666 -1.1542  1.7499
   93MOL0     H12536   5.969   2.429   5.924 -1.4442 -1.8280  2.1745
   93MOL0     H12537   6.194   1.537   6.547  2.7811  1.5677 -0.8773
   93MOL0     H12538   6.305   1.381   6.696  0.5746 -1.5304  2.3760
   93MOL0     H12539   6.235   1.132   7.168 -0.3018  1.6032 -2.1609
   93MOL0     H12540   6.361   1.000   7.318 -3.8122  0.5131  0.0016
   93MOL0     H12541   8.091   1.217   8.254 -0.6347 -1.0494  3.3274
   93MOL0     H12542   8.214   1.420   8.220  0.1952  1.4742  1.2281
   93MOL0     H12543   8.424   1.810   8.219 -2.3610 -2.6582 -1.0418
   93MOL0     H12544   8.570   1.988   8.131 -0.7262  0.3214  2.2341
   93MOL0     H12545   8.709   2.130   8.025  0.3627  2.0331  2.9472
   93MOL0     H12546   8.787   2.102   8.161  0.5556  1.2330 -0.1520
   93MOL0     H12547   9.014   2.073   8.011  0.5351  0.5083 -0.4928
   93MOL0     H12548   8.977   2.218   8.094  1.7783 -0.7776  0.2748
   93MOL0     H12549   8.853   2.298   7.884 -0.2348  0.5837  2.4651
   93MOL0     H12550   8.884   2.153   7.797 -1.8244  1.5179  1.0933
   93MOL0     H12551   9.049   2.288   7.721 -3.9554 -0.4774 -0.0751
   93MOL0     H12552   9.123   2.167   7.826 -1.1601 -0.8202  2.5329
   93MOL0     H12553   9.149   2.580   7.978 -1.2929  0.1506 -0.0385
   93MOL0     H12554   8.872   1.704   8.036 -0.8146 -3.6491  0.5818
   93MOL0     H12555   8.725   1.523   8.142 -0.0933  0.5442  3.8931
   94MOL0     O12556  10.235   4.991   7.071  0.4247  1.4144  0.1295
   94MOL0     C12557  10.271   5.010   6.960  0.3144  0.3929  0.1376
   94MOL0     O12558  10.356   4.923   6.883  0.3513 -0.8259 -0.0704
   94MOL0     C12559  10.375   4.792   6.916 -0.0935  0.2274  0.1525
   94MOL0     C12560  10.497   4.738   6.885  0.4982  0.0519 -0.7208
   94MOL0     C12561  10.535   4.607   6.921  0.7372  0.4198 -0.3980
   94MOL0     C12562  10.448   4.539   7.003 -0.6537  0.2197  0.3243
   94MOL0     O12563  10.491   4.406   7.030  0.1887  0.3812 -0.5002
   94MOL0     C12564  10.466   4.362   7.162  0.5825 -0.9743  0.1527
   94MOL0     C12565  10.558   4.239   7.194  0.9362 -0.4007 -0.1236
   94MOL0     C12566  10.543   4.126   7.089  0.6171  0.8325 -0.7276
   94MOL0     C12567  10.592   3.990   7.132  0.3170  0.2683 -0.0868
   94MOL0     C12568  10.591   3.898   7.014 -0.4759  0.5179  0.0142
   94MOL0     C12569  10.669   3.768   7.044 -0.4604 -0.2013 -0.4911
   94MOL0     C12570  10.709   3.689   6.924  0.9497  0.4484 -0.5465
   94MOL0     C12571  10.780   3.555   6.953 -0.6702  0.1318 -0.1136
   94MOL0     N12572  10.921   3.576   6.997 -0.3985  0.2347 -0.4334
   94MOL0     C12573  11.022   3.565   6.909 -0.6309 -0.0111 -0.9792
   94MOL0     C12574  11.132   3.609   6.979 -1.4803  0.0053  0.6805
   94MOL0     C12575  11.280   3.629   6.941  0.4520 -0.2543  0.0737
   94MOL0     C12576  11.298   3.737   6.831  1.0001  0.3545  0.7931
   94MOL0     C12577  11.418   3.834   6.852  0.1043  1.4320  0.5474
   94MOL0     C12578  11.402   3.911   6.979  0.4020  0.1841 -0.1211
   94MOL0     O12579  11.497   4.025   6.982 -0.0645  0.1840  0.7167
   94MOL0     C12580  11.464   4.130   6.900  0.0894  1.8254 -0.1166
   94MOL0     C12581  11.331   4.167   6.865 -1.4533 -0.1936  0.0813
   94MOL0     C12582  11.315   4.274   6.777 -0.1138 -0.9270  0.6089
   94MOL0     C12583  11.169   4.289   6.739 -1.0551  0.4060  0.2623
   94MOL0     C12584  11.419   4.347   6.722 -0.8283 -0.2754 -0.1659
   94MOL0     C12585  11.416   4.460   6.627  0.0770  0.1967  0.4929
   94MOL0     O12586  11.523   4.536   6.622 -0.0373  0.1497 -0.5186
   94MOL0     C12587  11.511   4.667   6.573  0.1109  0.9636 -0.0085
   94MOL0     C12588  11.479   4.778   6.653  0.2572 -0.1061 -0.3418
   94MOL0     C12589  11.455   4.912   6.605  0.6005 -0.5970 -0.0732
   94MOL0     C12590  11.459   4.926   6.467 -0.0547  0.9218 -0.7766
   94MOL0     O12591  11.427   5.038   6.388  0.0427 -0.1018 -1.0198
   94MOL0     C12592  11.390   5.157   6.443 -0.7027 -0.4534 -0.2333
   94MOL0     C12593  11.417   5.279   6.358 -0.4923 -0.9193 -0.0422
   94MOL0     C12594  11.570   5.285   6.317 -0.0189  0.2950  0.1046
   94MOL0     C12595  11.634   5.425   6.318 -0.5898 -0.5456 -1.1399
   94MOL0     C12596  11.783   5.394   6.291 -0.3003 -0.3313 -0.7885
   94MOL0     C12597  11.863   5.526   6.306  0.2814  0.4798  0.1695
   94MOL0     C12598  12.019   5.495   6.286 -0.4862  1.0019 -0.6346
   94MOL0     C12599  12.076   5.400   6.388 -0.0248  0.4912  0.2480
   94MOL0    Cl12600  12.013   5.454   6.540  0.0190  0.2466  0.2374
   94MOL0     C12601  11.467   4.812   6.392 -0.1188 -0.0912  1.0384
   94MOL0     C12602  11.495   4.684   6.432  1.3313 -0.7122 -0.4355
   94MOL0     O12603  11.312   4.498   6.579  0.0463 -0.0619  0.6005
   94MOL0     C12604  11.551   4.299   6.749 -0.4124  0.5000 -0.2017
   94MOL0     C12605  11.572   4.195   6.837 -0.3969 -0.8441  0.1273
   94MOL0     N12606  11.096   3.615   7.110 -0.7154  0.3507  0.2365
   94MOL0     N12607  10.969   3.601   7.120  0.6506  0.0458 -0.2891
   94MOL0     C12608  10.328   4.596   7.047  0.5602  0.0786  1.2435
   94MOL0     C12609  10.290   4.721   6.998  0.0536 -0.9265 -1.0595
   94MOL0     C12610  10.254   5.134   6.896 -0.5453  0.5167 -0.6988
   94MOL0     C12611  10.304   5.160   6.764  0.4541 -0.4785 -0.1680
   94MOL0     C12612  10.277   5.282   6.700  0.6067  0.4211 -0.3723
   94MOL0     C12613  10.209   5.379   6.764  0.7845 -1.8169 -0.3979
   94MOL0     O12614  10.172   5.502   6.700 -0.1767  0.0691 -0.5893
   94MOL0     C12615  10.212   5.540   6.570 -0.1449 -1.4529  1.3875
   94MOL0     C12616  10.137   5.671   6.547 -0.3798 -0.2370 -1.1221
   94MOL0     C12617  10.197   5.793   6.633  0.1853  0.9188 -0.5363
   94MOL0     C12618  10.139   5.930   6.589 -0.9437  0.6461 -0.3886
   94MOL0     C12619  10.191   6.033   6.688 -0.4446  0.2967 -0.8937
   94MOL0     C12620  10.229   6.118   6.770  0.2761  0.1498  0.2463
   94MOL0     C12621  10.161   5.362   6.893  0.5915 -0.1549  0.2688
   94MOL0     C12622  10.187   5.243   6.955 -0.4605  0.6994  0.2939
   94MOL0     H12623  10.569   4.802   6.834  2.3220 -1.5806 -0.3028
   94MOL0     H12624  10.624   4.549   6.897  0.8980  0.6986 -0.4740
   94MOL0     H12625  10.489   4.440   7.235 -1.4978 -2.4980  2.6092
   94MOL0     H12626  10.364   4.323   7.171  0.6631 -1.5498 -1.1282
   94MOL0     H12627  10.657   4.286   7.192  0.5381  1.2628  5.0686
   94MOL0     H12628  10.544   4.194   7.293  0.2278 -2.6416 -1.1770
   94MOL0     H12629  10.436   4.117   7.064  0.4410  0.8859 -0.0112
   94MOL0     H12630  10.598   4.155   6.999  1.4522  3.2768  0.4950
   94MOL0     H12631  10.697   4.006   7.160  0.9160 -1.1915 -1.3598
   94MOL0     H12632  10.517   3.962   7.207 -0.7046  0.5644 -0.9738
   94MOL0     H12633  10.491   3.878   6.974  0.0880  1.7746 -2.1377
   94MOL0     H12634  10.649   3.952   6.939 -1.8000 -0.6187 -1.8941
   94MOL0     H12635  10.755   3.794   7.107 -0.1662  1.6487 -1.5544
   94MOL0     H12636  10.609   3.706   7.112  0.0439  0.6285  0.7592
   94MOL0     H12637  10.612   3.655   6.886 -0.2531 -0.1985  2.7402
   94MOL0     H12638  10.770   3.755   6.862  3.9670 -0.5630  1.1460
   94MOL0     H12639  10.776   3.491   6.864  0.1306 -1.2347  0.8040
   94MOL0     H12640  10.724   3.504   7.033 -1.4302  0.9567 -0.0982
   94MOL0     H12641  11.017   3.532   6.805  1.5011 -2.1524 -0.5076
   94MOL0     H12642  11.348   3.652   7.024 -0.1640  0.7422  0.3153
   94MOL0     H12643  11.308   3.530   6.904 -1.9078 -0.5553 -1.0779
   94MOL0     H12644  11.202   3.790   6.822  0.3413 -1.1547 -2.1466
   94MOL0     H12645  11.320   3.687   6.737 -0.7192 -2.2532  1.6424
   94MOL0     H12646  11.418   3.905   6.769 -1.0877  6.4170  4.3178
   94MOL0     H12647  11.516   3.786   6.850  0.8983  3.0038 -0.3108
   94MOL0     H12648  11.406   3.855   7.073 -1.5944  1.6836  0.9505
   94MOL0     H12649  11.299   3.948   6.985  1.0171  1.8878  0.7996
   94MOL0     H12650  11.240   4.116   6.896 -1.3588 -0.6326 -0.3487
   94MOL0     H12651  11.116   4.335   6.823 -1.4408 -1.2960  0.9914
   94MOL0     H12652  11.152   4.363   6.660  1.2728 -0.0813 -0.7827
   94MOL0     H12653  11.123   4.193   6.715  0.5402 -1.0713  2.6844
   94MOL0     H12654  11.484   4.767   6.761 -0.7371  0.1526 -0.2557
   94MOL0     H12655  11.463   4.994   6.676 -3.4813 -1.3803  1.5781
   94MOL0     H12656  11.281   5.154   6.446 -0.7237 -2.0013 -1.6005
   94MOL0     H12657  11.443   5.176   6.537 -1.7209  0.6916  0.1400
   94MOL0     H12658  11.343   5.294   6.278  0.9655  0.3266 -1.2344
   94MOL0     H12659  11.397   5.365   6.423 -0.8184 -1.0681  0.0575
   94MOL0     H12660  11.583   5.244   6.217  0.9306 -0.4702  0.5278
   94MOL0     H12661  11.611   5.209   6.384  1.7104  1.3341  0.2757
   94MOL0     H12662  11.594   5.475   6.230  2.5164  3.1678 -0.7396
   94MOL0     H12663  11.604   5.481   6.407 -0.6002 -0.8689 -0.9357
   94MOL0     H12664  11.800   5.354   6.191  1.8352 -0.3781 -0.4533
   94MOL0     H12665  11.815   5.318   6.363 -2.8190 -1.0348 -0.3332
   94MOL0     H12666  11.838   5.595   6.225  3.1950  4.9532  2.6330
   94MOL0     H12667  11.827   5.581   6.393  0.4335  0.1582  0.4386
   94MOL0     H12668  12.080   5.585   6.291  0.1123  0.5758  3.0378
   94MOL0     H12669  12.029   5.441   6.192 -2.3432  2.0563 -1.4990
   94MOL0     H12670  12.185   5.411   6.385 -0.1084  3.4624  2.8151
   94MOL0     H12671  12.053   5.296   6.363 -1.5656  0.6501  0.8991
   94MOL0     H12672  11.476   4.829   6.285  0.7399  3.3600  1.5481
   94MOL0     H12673  11.522   4.605   6.362  0.2418  0.5417 -2.3457
   94MOL0     H12674  11.642   4.348   6.716  3.0146 -2.3789  3.7685
   94MOL0     H12675  11.674   4.166   6.860  0.2334  1.2922  0.3010
   94MOL0     H12676  10.253   4.541   7.103  0.8016 -5.5028 -3.0216
   94MOL0     H12677  10.193   4.763   7.022  0.0582  1.9403 -4.9793
   94MOL0     H12678  10.377   5.100   6.711  0.3579  1.1522 -2.2834
   94MOL0     H12679  10.327   5.294   6.604  2.0235  0.9739  0.4056
   94MOL0     H12680  10.318   5.559   6.550 -0.9854  2.4666 -0.4563
   94MOL0     H12681  10.170   5.475   6.494 -3.0243  2.8779 -1.1737
   94MOL0     H12682  10.031   5.648   6.562 -0.6049 -1.2903 -3.8134
   94MOL0     H12683  10.145   5.692   6.440 -1.0125 -0.4998 -1.2237
   94MOL0     H12684  10.303   5.784   6.605  1.2461 -4.2326  3.6412
   94MOL0     H12685  10.197   5.765   6.738  1.8121 -0.8913 -0.9588
   94MOL0     H12686  10.030   5.934   6.587 -1.4051 -2.6185  4.1112
   94MOL0     H12687  10.189   5.958   6.495 -1.9010  2.8942 -0.3034
   94MOL0     H12688  10.243   6.196   6.842  2.3719  1.1307 -1.1500
   94MOL0     H12689  10.098   5.438   6.938  1.1252  0.0875  0.6170
   94MOL0     H12690  10.151   5.229   7.056  0.9810 -0.1754  0.7042
   95MOL0     O12691   2.054   0.707   4.937  0.2755  0.0378  0.2174
   95MOL0     C12692   2.022   0.771   4.840  0.0961 -0.2019  0.5302
   95MOL0     O12693   1.896   0.810   4.804 -0.5514 -0.4643 -0.0472
   95MOL0     C12694   1.795   0.809   4.899  0.6345  0.1921 -0.2601
   95MOL0     C12695   1.779   0.918   4.979 -0.0867 -0.7478  0.1631
   95MOL0     C12696   1.698   0.916   5.100 -0.2726  0.5635  0.9729
   95MOL0     C12697   1.637   0.795   5.136  0.3225 -0.4680 -0.8156
   95MOL0     O12698   1.574   0.783   5.259  0.0200  1.0243 -0.7422
   95MOL0     C12699   1.618   0.866   5.372  0.0967  0.3355  0.7312
   95MOL0     C12700   1.622   0.785   5.497 -0.2730 -0.7846 -0.7236
   95MOL0     C12701   1.636   0.634   5.480 -0.2378  0.3749  0.0566
   95MOL0     C12702   1.640   0.566   5.619 -0.8657 -0.3344  0.0999
   95MOL0     C12703   1.672   0.407   5.608  0.5946 -0.4588  1.0716
   95MOL0     C12704   1.819   0.381   5.606  0.2127  0.3416  1.1212
   95MOL0     C12705   1.853   0.234   5.597  0.4022  0.4706 -0.4674
   95MOL0     C12706   1.989   0.202   5.683  0.3893  0.3060  0.2211
   95MOL0     N12707   2.108   0.260   5.623 -0.1680  0.4394  1.1145
   95MOL0     C12708   2.161   0.369   5.682 -0.0882 -0.5139  0.0110
   95MOL0     C12709   2.227   0.434   5.584  0.4135  0.5692  0.0493
   95MOL0     C12710   2.286   0.568   5.604  0.6744 -0.3139 -0.1500
   95MOL0     C12711   2.185   0.682   5.635  0.2691  0.6392 -0.3923
   95MOL0     C12712   2.247   0.804   5.702  0.1389 -0.1409 -0.0355
   95MOL0     C12713   2.147   0.911   5.736  0.4800  0.6433  0.4251
   95MOL0     O12714   2.040   0.872   5.826  0.4865 -0.1754  0.0862
   95MOL0     C12715   1.953   0.971   5.856  1.1718  0.5411  0.2606
   95MOL0     C12716   1.819   0.948   5.828 -0.1674  0.6562  0.4831
   95MOL0     C12717   1.723   1.041   5.848 -0.0973  0.2047 -1.3438
   95MOL0     C12718   1.572   1.010   5.825 -0.2492 -0.0910  0.0372
   95MOL0     C12719   1.763   1.171   5.892 -0.6008 -0.1299  0.1514
   95MOL0     C12720   1.676   1.286   5.915  0.1634  0.1797 -0.2301
   95MOL0     O12721   1.583   1.313   5.822 -0.3545  0.7299 -0.3063
   95MOL0     C12722   1.503   1.422   5.836  0.2973  1.2531 -0.2117
   95MOL0     C12723   1.367   1.416   5.890 -0.7361  0.8623 -0.7805
   95MOL0     C12724   1.295   1.534   5.897  0.3832  0.1404 -0.2711
   95MOL0     C12725   1.340   1.654   5.835  1.4883 -0.5808  0.4790
   95MOL0     O12726   1.257   1.765   5.836  0.2832  1.1247  1.1449
   95MOL0     C12727   1.327   1.885   5.864 -0.0603 -0.3951 -0.9105
   95MOL0     C12728   1.317   1.981   5.744  0.3268  0.3490  1.7407
   95MOL0     C12729   1.351   2.126   5.775 -0.0981  0.2427 -0.5035
   95MOL0     C12730   1.314   2.225   5.662 -0.6229  0.1451  0.4780
   95MOL0     C12731   1.327   2.360   5.725 -0.4677  0.0830 -1.4746
   95MOL0     C12732   1.265   2.460   5.634 -0.7497  0.4085 -0.2452
   95MOL0     C12733   1.373   2.512   5.538 -0.0871 -0.5954  0.0710
   95MOL0     C12734   1.326   2.639   5.471  0.6939  0.1328 -0.8846
   95MOL0    Cl12735   1.390   2.649   5.306 -0.0113  0.2924 -0.5892
   95MOL0     C12736   1.466   1.652   5.775 -0.7160  0.3475 -0.2090
   95MOL0     C12737   1.543   1.538   5.779 -0.2281 -0.7434 -0.1811
   95MOL0     O12738   1.697   1.355   6.016  0.5558  0.0634 -0.4666
   95MOL0     C12739   1.903   1.193   5.919  0.8623 -0.3327  0.0321
   95MOL0     C12740   1.996   1.091   5.906  0.6337  0.9577 -0.3604
   95MOL0     N12741   2.207   0.366   5.464 -1.0288 -0.6874  0.4091
   95MOL0     N12742   2.129   0.266   5.488 -0.8531  0.2879  0.5545
   95MOL0     C12743   1.647   0.686   5.052 -0.5085 -0.3645 -0.3039
   95MOL0     C12744   1.721   0.695   4.935  0.9381  0.4856 -0.5088
   95MOL0     C12745   2.127   0.833   4.768 -1.2685  0.2765  0.3843
   95MOL0     C12746   2.104   0.934   4.678  0.5662 -0.1002 -0.7769
   95MOL0     C12747   2.205   0.981   4.602  0.1174  0.1913 -0.7196
   95MOL0     C12748   2.335   0.936   4.610  1.0121  0.1545  0.0439
   95MOL0     O12749   2.432   0.973   4.530 -0.0607 -0.2971  0.0529
   95MOL0     C12750   2.517   1.055   4.601  0.7779  0.8612 -0.0623
   95MOL0     C12751   2.540   1.200   4.536 -0.2586 -0.4161  0.5653
   95MOL0     C12752   2.584   1.180   4.389 -0.7685  1.0001 -0.4274
   95MOL0     C12753   2.693   1.283   4.351  0.4384 -0.9065 -0.4612
   95MOL0     C12754   2.824   1.258   4.426  0.4033 -0.0664  0.0870
   95MOL0     C12755   2.922   1.255   4.489 -0.1784  0.5519  0.1561
   95MOL0     C12756   2.362   0.834   4.700 -0.4836 -0.3647 -0.1086
   95MOL0     C12757   2.258   0.773   4.768  0.3186  0.7285 -0.6362
   95MOL0     H12758   1.835   1.010   4.965 -2.5850  0.6431 -1.6366
   95MOL0     H12759   1.702   1.001   5.167  1.5674 -0.8081  2.6997
   95MOL0     H12760   1.726   0.879   5.358 -0.1128  0.5007 -0.9289
   95MOL0     H12761   1.567   0.963   5.375  3.3452  2.2434 -0.2601
   95MOL0     H12762   1.697   0.812   5.572 -0.9075  0.0956 -0.3869
   95MOL0     H12763   1.524   0.796   5.544  0.9719 -3.4590  3.0305
   95MOL0     H12764   1.549   0.596   5.425 -0.3287 -2.8344  2.1947
   95MOL0     H12765   1.719   0.600   5.417 -0.5041 -1.1401  0.4952
   95MOL0     H12766   1.727   0.604   5.674 -1.0875 -4.8488  4.3624
   95MOL0     H12767   1.541   0.578   5.665 -0.5656  3.7713  0.0340
   95MOL0     H12768   1.629   0.348   5.689 -0.9736  0.3112  0.8456
   95MOL0     H12769   1.627   0.380   5.512  1.3862  1.3440  0.1254
   95MOL0     H12770   1.864   0.432   5.520 -0.4922 -1.8078 -0.6017
   95MOL0     H12771   1.866   0.420   5.697 -0.2383  4.1258 -0.0642
   95MOL0     H12772   1.777   0.166   5.636  1.6904 -0.9819 -0.3789
   95MOL0     H12773   1.865   0.230   5.489  0.1951  3.3645 -0.6902
   95MOL0     H12774   2.004   0.094   5.693  1.5507  0.4344 -0.0212
   95MOL0     H12775   1.985   0.233   5.788  2.6387 -0.1190  0.4773
   95MOL0     H12776   2.149   0.388   5.788 -1.7156 -1.7751  0.0963
   95MOL0     H12777   2.348   0.557   5.693 -0.5919 -2.2715  0.5387
   95MOL0     H12778   2.348   0.599   5.518  0.7943  1.4034  0.5169
   95MOL0     H12779   2.099   0.647   5.693 -2.0309  0.7352 -3.4672
   95MOL0     H12780   2.144   0.712   5.538 -0.7789 -0.0525 -0.1741
   95MOL0     H12781   2.319   0.853   5.635 -0.6250 -0.4958 -1.1454
   95MOL0     H12782   2.305   0.781   5.792 -0.0109  0.6797  0.2830
   95MOL0     H12783   2.105   0.956   5.646  1.7592  2.8194  0.8346
   95MOL0     H12784   2.211   0.983   5.788  1.1211  1.7559 -1.8221
   95MOL0     H12785   1.797   0.847   5.797 -1.1706  0.7837  0.7440
   95MOL0     H12786   1.553   1.036   5.721  2.2383 -0.2683 -0.5334
   95MOL0     H12787   1.550   0.904   5.840 -2.5552  0.1788 -1.0408
   95MOL0     H12788   1.513   1.063   5.901 -1.5865 -1.6821  0.1624
   95MOL0     H12789   1.332   1.321   5.929  0.3282  0.7351 -0.0944
   95MOL0     H12790   1.196   1.544   5.938  1.3423  1.1028  1.9597
   95MOL0     H12791   1.268   1.941   5.938 -0.9547  1.9737 -3.2343
   95MOL0     H12792   1.429   1.880   5.902 -0.9730 -1.5643  1.6450
   95MOL0     H12793   1.389   1.948   5.668  0.9391 -0.2482  2.5710
   95MOL0     H12794   1.222   1.975   5.689  0.9152 -2.3301  0.8473
   95MOL0     H12795   1.457   2.144   5.797 -0.5736  0.3792  1.8588
   95MOL0     H12796   1.301   2.162   5.865 -0.5248  1.1963 -1.1059
   95MOL0     H12797   1.388   2.223   5.582 -2.5706 -2.0914 -1.4424
   95MOL0     H12798   1.214   2.211   5.620 -0.7292  0.7298  0.5309
   95MOL0     H12799   1.421   2.398   5.767 -0.9358  2.3630 -2.3603
   95MOL0     H12800   1.267   2.363   5.817  1.4842 -0.7954 -0.0938
   95MOL0     H12801   1.182   2.414   5.580 -0.3387 -1.4045  0.6016
   95MOL0     H12802   1.241   2.550   5.691  1.1569 -0.1802  1.6534
   95MOL0     H12803   1.397   2.434   5.465 -1.9349 -2.0703  0.9712
   95MOL0     H12804   1.461   2.526   5.602 -0.2874 -2.8211  0.8988
   95MOL0     H12805   1.357   2.727   5.528 -3.5706  0.2800  1.6120
   95MOL0     H12806   1.218   2.650   5.466  0.8304  1.2718 -1.7908
   95MOL0     H12807   1.491   1.739   5.717 -1.5444 -1.2193 -3.0895
   95MOL0     H12808   1.637   1.527   5.727  1.0639  0.9668  1.6062
   95MOL0     H12809   1.932   1.287   5.965  0.1508 -1.4010  2.8856
   95MOL0     H12810   2.099   1.103   5.938  0.2454  3.7505  0.0737
   95MOL0     H12811   1.612   0.590   5.088 -2.9063  0.9817  1.3038
   95MOL0     H12812   1.738   0.594   4.897  2.2008 -1.8215  5.0469
   95MOL0     H12813   2.008   0.985   4.676 -0.8166 -2.3153  2.0505
   95MOL0     H12814   2.183   1.067   4.541 -0.8218  2.5273  2.6371
   95MOL0     H12815   2.493   1.084   4.704 -1.8817 -1.7682  0.1987
   95MOL0     H12816   2.613   1.004   4.614 -0.6435 -1.7296  1.1659
   95MOL0     H12817   2.626   1.236   4.594  1.8784 -4.9363  0.6987
   95MOL0     H12818   2.451   1.262   4.546  2.0626  3.3429 -0.1994
   95MOL0     H12819   2.497   1.186   4.324 -1.7984 -0.7984  0.7143
   95MOL0     H12820   2.628   1.080   4.386 -2.7387 -0.0041  1.5298
   95MOL0     H12821   2.654   1.383   4.371  0.9335 -1.0866  1.6427
   95MOL0     H12822   2.718   1.276   4.245 -1.9418 -1.9018 -1.0267
   95MOL0     H12823   3.005   1.252   4.557 -1.9524 -1.8785  2.4199
   95MOL0     H12824   2.463   0.794   4.700 -0.7536 -1.2473  2.2932
   95MOL0     H12825   2.277   0.682   4.823 -1.6833  1.0414  0.6476
   96MOL0     O12826   8.298   9.284   0.941  0.2288  0.7284 -0.1938
   96MOL0     C12827   8.242   9.310   1.044 -0.4901 -0.1532 -0.8156
   96MOL0     O12828   8.273   9.410   1.131  0.2025  0.4235  0.8396
   96MOL0     C12829   8.360   9.513   1.105 -0.0979  1.9728 -0.0100
   96MOL0     C12830   8.364   9.601   1.214 -0.3103  0.2766 -0.0857
   96MOL0     C12831   8.453   9.703   1.210 -0.9539 -0.8811 -0.0884
   96MOL0     C12832   8.530   9.729   1.094 -0.0633 -0.2086  0.5072
   96MOL0     O12833   8.637   9.820   1.091  0.1802  1.0824 -0.3689
   96MOL0     C12834   8.630   9.926   1.184  0.3782  0.4253  0.6090
   96MOL0     C12835   8.695  10.050   1.120  0.4734 -0.8685  0.1445
   96MOL0     C12836   8.841  10.037   1.100 -0.7580 -0.0517  0.1401
   96MOL0     C12837   8.923  10.053   1.229  0.9056  0.2340  0.7182
   96MOL0     C12838   9.068  10.005   1.209 -1.0049 -1.2955 -1.5590
   96MOL0     C12839   9.080   9.854   1.214  0.7912 -0.7554 -0.5598
   96MOL0     C12840   9.235   9.813   1.208  0.4069 -0.5111  0.0679
   96MOL0     C12841   9.249   9.658   1.218 -0.5425 -0.0369 -1.1038
   96MOL0     N12842   9.392   9.632   1.179  0.0648  0.3285 -0.3467
   96MOL0     C12843   9.422   9.521   1.105  0.1416  1.1429  0.1461
   96MOL0     C12844   9.552   9.492   1.133 -0.7721 -0.7609  0.7267
   96MOL0     C12845   9.620   9.378   1.068 -1.2778  1.4080 -0.6243
   96MOL0     C12846   9.695   9.283   1.159  0.6781  0.6067 -1.0052
   96MOL0     C12847   9.603   9.184   1.229 -0.2550 -0.4577 -0.5709
   96MOL0     C12848   9.684   9.064   1.279 -1.0945  0.5875 -0.3774
   96MOL0     O12849   9.619   8.942   1.285  0.6392 -0.2495  1.3828
   96MOL0     C12850   9.523   8.922   1.377  0.6207  0.4513 -0.5674
   96MOL0     C12851   9.472   9.006   1.481  0.7963 -0.7356  0.0956
   96MOL0     C12852   9.363   8.983   1.564  0.4363  0.5403  0.0407
   96MOL0     C12853   9.306   9.088   1.646  0.2819  0.4863  0.3125
   96MOL0     C12854   9.307   8.844   1.554 -0.4028  0.2904 -0.1359
   96MOL0     C12855   9.178   8.794   1.623  0.1898  0.2270 -0.3560
   96MOL0     O12856   9.102   8.894   1.671  1.1063 -0.8500 -0.2368
   96MOL0     C12857   8.967   8.882   1.642  0.5690 -0.1280 -0.3717
   96MOL0     C12858   8.874   8.867   1.750 -0.4006  0.2308  0.2344
   96MOL0     C12859   8.737   8.846   1.735  0.0442 -0.0259  0.5099
   96MOL0     C12860   8.695   8.838   1.597 -0.5360 -0.5790 -0.0982
   96MOL0     O12861   8.565   8.816   1.584  0.4195  0.6599  0.1252
   96MOL0     C12862   8.514   8.783   1.455  0.2255  0.3823  0.0909
   96MOL0     C12863   8.552   8.641   1.407  0.1502  1.0333  0.6458
   96MOL0     C12864   8.481   8.588   1.281 -0.5751 -0.2494 -0.1484
   96MOL0     C12865   8.476   8.435   1.266 -0.3325 -0.8356  0.5044
   96MOL0     C12866   8.332   8.392   1.301  0.2091 -0.8009 -0.6265
   96MOL0     C12867   8.323   8.239   1.308 -0.2882  0.1712 -0.1833
   96MOL0     C12868   8.411   8.180   1.416  0.2431 -0.6643 -0.3306
   96MOL0     C12869   8.382   8.033   1.433 -0.0049  0.1308  0.0882
   96MOL0    Cl12870   8.469   7.971   1.587 -0.1770  0.1391 -0.0353
   96MOL0     C12871   8.785   8.852   1.493 -0.0879 -0.8573 -0.4868
   96MOL0     C12872   8.916   8.892   1.512 -0.2311  0.3034  0.2053
   96MOL0     O12873   9.154   8.673   1.647  0.1313  0.6835  0.1410
   96MOL0     C12874   9.365   8.762   1.452 -0.2343  0.1003 -1.1964
   96MOL0     C12875   9.471   8.797   1.373  0.4738  0.2200  0.0810
   96MOL0     N12876   9.590   9.567   1.235  0.8798  0.1715 -0.9901
   96MOL0     N12877   9.492   9.651   1.265 -0.4911  1.2570 -0.2459
   96MOL0     C12878   8.523   9.647   0.980 -0.5528 -0.3531 -0.1126
   96MOL0     C12879   8.445   9.531   0.992 -0.0149  0.3037 -0.1969
   96MOL0     C12880   8.131   9.222   1.080  0.2040  1.1839 -0.2764
   96MOL0     C12881   8.069   9.134   0.985  0.0800 -0.0933  0.3650
   96MOL0     C12882   7.963   9.051   1.015 -0.1160  0.2527 -0.2572
   96MOL0     C12883   7.882   9.069   1.137  0.2374  0.1504 -0.5131
   96MOL0     O12884   7.756   9.007   1.143  0.3920 -0.4038 -0.4474
   96MOL0     C12885   7.717   8.973   1.277 -1.2169 -0.2148 -0.3055
   96MOL0     C12886   7.607   8.867   1.285  0.2917  0.1749 -0.0188
   96MOL0     C12887   7.636   8.761   1.187  0.3940  0.2295 -0.3475
   96MOL0     C12888   7.750   8.681   1.223  0.4522 -0.6064  0.6896
   96MOL0     C12889   7.772   8.590   1.111 -1.3368  0.6291  0.1212
   96MOL0     C12890   7.777   8.502   1.024 -0.3093 -0.3337 -0.6211
   96MOL0     C12891   7.929   9.164   1.231 -0.2908  0.4846 -0.6708
   96MOL0     C12892   8.057   9.225   1.208  0.3371 -0.8944  0.6713
   96MOL0     H12893   8.321   9.586   1.312 -0.9573  4.2222  0.3844
   96MOL0     H12894   8.453   9.765   1.300 -1.0283  0.1327 -0.7658
   96MOL0     H12895   8.529   9.963   1.203  0.2629  1.6266 -1.9436
   96MOL0     H12896   8.664   9.902   1.285 -2.0208  1.2191  1.6887
   96MOL0     H12897   8.644  10.080   1.028 -1.1426 -1.3737  0.8537
   96MOL0     H12898   8.675  10.135   1.186 -0.9299 -1.6452  0.7548
   96MOL0     H12899   8.861   9.939   1.056  2.2877 -0.0606  1.2978
   96MOL0     H12900   8.877  10.122   1.040  0.6639  0.8299  2.0978
   96MOL0     H12901   8.917  10.159   1.257 -1.4912  0.9888 -2.0796
   96MOL0     H12902   8.882  10.000   1.315 -1.3453  2.0225  0.8483
   96MOL0     H12903   9.114  10.049   1.120 -0.7229  2.2824  0.1479
   96MOL0     H12904   9.127  10.050   1.289 -1.5690  2.5171 -3.0384
   96MOL0     H12905   9.044   9.806   1.305 -0.4976  3.7233  1.5899
   96MOL0     H12906   9.028   9.821   1.124 -0.9103  0.1100  0.0602
   96MOL0     H12907   9.282   9.848   1.115 -0.5550  1.0124  0.1249
   96MOL0     H12908   9.288   9.868   1.286 -1.6935 -0.4666  1.5469
   96MOL0     H12909   9.178   9.612   1.149 -0.5110  1.9373 -2.5092
   96MOL0     H12910   9.221   9.618   1.316  1.3705 -1.9774 -1.2548
   96MOL0     H12911   9.356   9.461   1.044  0.7603 -0.0535  0.6237
   96MOL0     H12912   9.548   9.315   1.014  1.1678 -0.8627 -1.4607
   96MOL0     H12913   9.693   9.413   0.994 -0.4678 -1.8727 -1.5496
   96MOL0     H12914   9.754   9.328   1.240 -0.7908 -1.2542  1.2117
   96MOL0     H12915   9.758   9.221   1.094 -1.7972 -2.7486 -0.4572
   96MOL0     H12916   9.536   9.131   1.161 -0.2906 -1.2640  0.0680
   96MOL0     H12917   9.561   9.241   1.312 -2.0981 -2.6925  0.1468
   96MOL0     H12918   9.720   9.075   1.382 -2.0365 -1.1945  0.1750
   96MOL0     H12919   9.776   9.042   1.225 -1.4899 -1.7637 -0.1678
   96MOL0     H12920   9.503   9.110   1.488 -0.3013 -0.4284  0.5992
   96MOL0     H12921   9.372   9.173   1.668 -2.1013  1.6716  3.8387
   96MOL0     H12922   9.216   9.116   1.591  0.3985 -0.0951 -0.1751
   96MOL0     H12923   9.273   9.052   1.744  2.1941 -0.0063  0.8149
   96MOL0     H12924   8.914   8.873   1.851 -0.5559 -1.8074  0.4478
   96MOL0     H12925   8.664   8.829   1.813 -2.4474  0.2029 -1.6258
   96MOL0     H12926   8.404   8.780   1.456  0.1925  0.2347 -1.5311
   96MOL0     H12927   8.537   8.858   1.378 -2.1828  0.1356 -0.9718
   96MOL0     H12928   8.660   8.640   1.390  0.0677 -1.5205 -0.2288
   96MOL0     H12929   8.537   8.570   1.489  0.9284 -0.1233 -0.1717
   96MOL0     H12930   8.529   8.630   1.192 -0.8575 -0.3127 -0.3325
   96MOL0     H12931   8.384   8.639   1.283  0.7704  2.6333 -1.7410
   96MOL0     H12932   8.505   8.413   1.163  0.5581 -4.9442  1.4777
   96MOL0     H12933   8.545   8.381   1.331  1.5389  1.1897  0.3457
   96MOL0     H12934   8.276   8.436   1.218  1.8821 -3.2043 -3.2326
   96MOL0     H12935   8.316   8.433   1.401 -2.2976 -1.4660 -0.7020
   96MOL0     H12936   8.220   8.204   1.322 -0.1619  0.7660  2.8937
   96MOL0     H12937   8.357   8.210   1.208 -1.6502 -1.0485 -0.3220
   96MOL0     H12938   8.396   8.236   1.508 -2.5380 -1.3804 -0.2731
   96MOL0     H12939   8.520   8.182   1.405  0.8774 -0.6736  4.1971
   96MOL0     H12940   8.428   7.987   1.345  0.4376  0.9862 -0.1472
   96MOL0     H12941   8.273   8.024   1.435  0.0432 -0.5057 -0.0005
   96MOL0     H12942   8.744   8.845   1.393 -2.2927 -4.7348  0.5181
   96MOL0     H12943   8.979   8.928   1.432 -1.4611  1.4286 -0.3007
   96MOL0     H12944   9.323   8.662   1.448  0.2854 -0.3425  1.7745
   96MOL0     H12945   9.503   8.723   1.300  1.6291  0.9671 -0.1957
   96MOL0     H12946   8.594   9.660   0.899  1.2627  1.7429  1.6579
   96MOL0     H12947   8.460   9.455   0.916 -0.9941 -1.5655  1.3986
   96MOL0     H12948   8.112   9.134   0.886  0.3192 -1.1070  0.4638
   96MOL0     H12949   7.930   8.979   0.941  2.2738 -1.6889  0.4581
   96MOL0     H12950   7.804   8.931   1.328 -0.7289 -1.6397 -2.2011
   96MOL0     H12951   7.671   9.066   1.312 -0.9111 -0.1768  0.0027
   96MOL0     H12952   7.515   8.913   1.250 -0.0207 -1.1598 -0.9961
   96MOL0     H12953   7.591   8.834   1.388  0.6079 -2.7493 -0.8331
   96MOL0     H12954   7.641   8.795   1.083 -0.0823  1.0648 -0.1102
   96MOL0     H12955   7.547   8.697   1.188  0.4504  0.1124  1.8494
   96MOL0     H12956   7.737   8.637   1.322 -3.5528 -0.1448  0.5061
   96MOL0     H12957   7.838   8.747   1.223 -0.4013  0.5692  0.9821
   96MOL0     H12958   7.773   8.426   0.949  2.2319 -2.2316  1.0065
   96MOL0     H12959   7.882   9.191   1.326  0.4992  1.2470 -0.4774
   96MOL0     H12960   8.098   9.278   1.294 -1.3956  1.1986  0.2746
   97MOL0     O12961   7.915  10.215   5.650 -0.2974 -0.5734 -0.3158
   97MOL0     C12962   7.850  10.120   5.602  0.1207  1.1816 -0.0480
   97MOL0     O12963   7.828   9.998   5.664 -0.8637 -0.0201  0.9523
   97MOL0     C12964   7.890   9.981   5.791 -0.5335  1.4437 -0.3545
   97MOL0     C12965   7.806   9.935   5.892  0.3781 -0.9160 -0.4528
   97MOL0     C12966   7.859   9.921   6.025  0.0757 -0.5271 -0.1659
   97MOL0     C12967   8.003   9.923   6.043  0.0975 -0.1141  0.1522
   97MOL0     O12968   8.077   9.890   6.156  0.3206 -0.4419 -0.2762
   97MOL0     C12969   8.010   9.837   6.266  0.4170  0.1685  1.0261
   97MOL0     C12970   8.106   9.802   6.380 -0.0695  0.1260 -0.0518
   97MOL0     C12971   8.159   9.927   6.469 -0.3388  0.0179  1.2421
   97MOL0     C12972   8.300   9.968   6.420 -1.1094  0.1005  0.7311
   97MOL0     C12973   8.293  10.120   6.392 -0.6531 -0.4820  0.6325
   97MOL0     C12974   8.425  10.167   6.329 -0.8698  0.2101 -0.5548
   97MOL0     C12975   8.534  10.162   6.426 -0.0208  0.2531  0.0769
   97MOL0     C12976   8.634  10.273   6.408  0.0802  0.4080  0.5108
   97MOL0     N12977   8.586  10.408   6.399  0.5090  0.1066 -0.1414
   97MOL0     C12978   8.578  10.491   6.282  0.8528 -0.1747  0.8355
   97MOL0     C12979   8.492  10.592   6.316  0.0566 -0.4217 -1.2688
   97MOL0     C12980   8.444  10.695   6.221  0.1876  0.5684  0.2347
   97MOL0     C12981   8.484  10.837   6.265  0.0061  0.3655 -0.1224
   97MOL0     C12982   8.412  10.932   6.169  0.4214 -0.0746 -0.1670
   97MOL0     C12983   8.461  10.945   6.025 -0.3566  0.5836  0.3057
   97MOL0     O12984   8.426  11.070   5.959 -0.2660  0.2165 -0.1966
   97MOL0     C12985   8.464  11.091   5.826  0.1460  0.2212  0.3295
   97MOL0     C12986   8.381  11.175   5.757  0.4819 -0.9684  0.5677
   97MOL0     C12987   8.389  11.192   5.620  0.3609 -0.0450 -0.2091
   97MOL0     C12988   8.286  11.285   5.565  0.0984 -0.2713  0.2497
   97MOL0     C12989   8.483  11.118   5.544  0.1107 -0.4653 -0.4651
   97MOL0     C12990   8.507  11.135   5.402 -0.6479  0.4342 -0.0758
   97MOL0     O12991   8.423  11.218   5.328  0.2801 -0.2605  0.1504
   97MOL0     C12992   8.448  11.232   5.198 -0.1749 -0.5436  0.0694
   97MOL0     C12993   8.552  11.317   5.157  0.2078 -0.0444 -0.1211
   97MOL0     C12994   8.582  11.325   5.020 -0.7248 -0.8134  0.1569
   97MOL0     C12995   8.522  11.246   4.923  0.2692 -0.1629 -0.1453
   97MOL0     O12996   8.556  11.268   4.793 -0.1334  0.3625 -0.0726
   97MOL0     C12997   8.504  11.170   4.695  0.4321 -0.1383 -0.5489
   97MOL0     C12998   8.563  11.175   4.563 -0.5864 -0.3266  0.1494
   97MOL0     C12999   8.719  11.152   4.573 -0.5175 -0.5770  0.0374
   97MOL0     C13000   8.763  11.002   4.554 -0.9061  1.3330 -0.9026
   97MOL0     C13001   8.898  10.999   4.492  0.2062 -0.5685 -0.8145
   97MOL0     C13002   9.012  11.046   4.585  0.4330 -0.0152  0.3409
   97MOL0     C13003   9.145  11.017   4.512  1.1350 -0.1949 -0.8454
   97MOL0     C13004   9.199  11.128   4.428  0.0487 -1.2130 -0.4683
   97MOL0    Cl13005   9.264  11.268   4.539  0.0466  0.0169  0.2037
   97MOL0     C13006   8.423  11.157   4.964 -0.2910  0.0262  0.0818
   97MOL0     C13007   8.390  11.143   5.098  0.0820  0.0830 -1.1525
   97MOL0     O13008   8.601  11.075   5.349  0.5552  0.4369 -0.2737
   97MOL0     C13009   8.572  11.035   5.621  0.2016  0.1455  0.8453
   97MOL0     C13010   8.563  11.022   5.754 -0.7070  0.0530  0.0887
   97MOL0     N13011   8.455  10.577   6.451 -0.3349 -0.0691  0.5700
   97MOL0     N13012   8.504  10.468   6.492 -0.2679 -0.6875  0.2675
   97MOL0     C13013   8.077   9.957   5.937 -0.6575  1.2855  0.0829
   97MOL0     C13014   8.029   9.977   5.809 -1.0190 -0.0316 -0.3572
   97MOL0     C13015   7.787  10.147   5.466  0.6542 -0.1915 -0.6096
   97MOL0     C13016   7.686  10.069   5.404 -0.2141  0.8825  0.2151
   97MOL0     C13017   7.644  10.099   5.281  1.0563  0.9511 -0.0864
   97MOL0     C13018   7.682  10.205   5.199  0.1332 -0.3779 -0.0769
   97MOL0     O13019   7.619  10.228   5.081 -0.1050  0.3136 -0.5854
   97MOL0     C13020   7.587  10.360   5.033  0.0890  0.6544  1.5638
   97MOL0     C13021   7.707  10.390   4.929 -0.2826  0.0991 -0.0689
   97MOL0     C13022   7.684  10.536   4.870 -0.8852 -0.3672 -0.5086
   97MOL0     C13023   7.759  10.564   4.746 -0.2495  0.0011  0.5162
   97MOL0     C13024   7.696  10.668   4.672 -0.7634 -0.9579  0.6249
   97MOL0     C13025   7.647  10.777   4.628 -0.0054 -0.8546 -1.5043
   97MOL0     C13026   7.782  10.283   5.259 -0.4061 -0.2483 -0.6518
   97MOL0     C13027   7.833  10.254   5.390 -0.1330  0.3100  0.6348
   97MOL0     H13028   7.698   9.933   5.882 -0.1293  4.4616  0.8983
   97MOL0     H13029   7.789   9.921   6.108 -1.9225  0.9066 -1.7613
   97MOL0     H13030   7.934   9.906   6.303 -0.1708  0.9239 -1.4128
   97MOL0     H13031   7.948   9.755   6.228  1.1039  0.6174 -1.1773
   97MOL0     H13032   8.047   9.735   6.444 -1.3038 -0.0586 -1.3101
   97MOL0     H13033   8.185   9.748   6.326 -1.6361  0.3198 -2.7680
   97MOL0     H13034   8.092  10.012   6.453  0.9401  0.5598 -1.8964
   97MOL0     H13035   8.165   9.899   6.575  0.7185 -1.8339  0.7366
   97MOL0     H13036   8.369   9.945   6.502 -0.9165 -0.0362  0.5316
   97MOL0     H13037   8.330   9.930   6.322  2.7198  3.2398  0.4528
   97MOL0     H13038   8.220  10.141   6.313  2.4383 -2.3409 -3.0672
   97MOL0     H13039   8.272  10.164   6.490 -0.4277 -3.6677  2.2124
   97MOL0     H13040   8.446  10.108   6.239  0.6718  1.0281 -0.7633
   97MOL0     H13041   8.415  10.274   6.306  1.1176  0.4676 -0.3830
   97MOL0     H13042   8.508  10.182   6.531  3.0797  1.1084  0.7869
   97MOL0     H13043   8.579  10.063   6.426  1.1991  0.6682  3.5320
   97MOL0     H13044   8.695  10.264   6.318 -1.5187 -0.8989 -0.5154
   97MOL0     H13045   8.703  10.257   6.492  1.0700 -0.2971 -0.4176
   97MOL0     H13046   8.600  10.473   6.177 -0.5162  1.4431  0.2143
   97MOL0     H13047   8.471  10.674   6.117 -3.0886  2.2444 -1.0979
   97MOL0     H13048   8.335  10.702   6.221 -0.2372 -3.2373 -1.8308
   97MOL0     H13049   8.588  10.867   6.247 -0.5171  1.3656 -1.6695
   97MOL0     H13050   8.458  10.853   6.370 -0.1709 -1.7463  0.2119
   97MOL0     H13051   8.407  11.031   6.216 -2.2835 -0.1398 -0.1550
   97MOL0     H13052   8.306  10.909   6.157  0.6382 -0.0692 -2.6559
   97MOL0     H13053   8.430  10.867   5.955  1.8513  1.5673 -1.8910
   97MOL0     H13054   8.569  10.935   6.042 -0.2996  0.6836  0.0023
   97MOL0     H13055   8.319  11.234   5.822  1.0571  2.2957 -1.5722
   97MOL0     H13056   8.209  11.315   5.637  1.5656  0.4008  1.5953
   97MOL0     H13057   8.344  11.371   5.531 -1.0673  0.7289  0.7227
   97MOL0     H13058   8.232  11.224   5.492 -2.0005  1.1283  0.5729
   97MOL0     H13059   8.599  11.378   5.233  2.2173 -1.8630  0.1851
   97MOL0     H13060   8.651  11.403   4.989 -2.6102  0.5706 -0.7909
   97MOL0     H13061   8.518  11.064   4.719  0.8685 -0.3618 -1.7004
   97MOL0     H13062   8.397  11.190   4.691  0.6286  2.1498  2.2485
   97MOL0     H13063   8.525  11.093   4.501  2.3306 -1.7800  0.0996
   97MOL0     H13064   8.542  11.269   4.512 -2.6211 -2.1015 -2.5686
   97MOL0     H13065   8.753  11.189   4.670  1.2991  0.1121 -0.8164
   97MOL0     H13066   8.768  11.224   4.507  1.1819 -0.4098  1.4048
   97MOL0     H13067   8.756  10.954   4.652  1.4434 -1.6234 -2.0447
   97MOL0     H13068   8.691  10.956   4.486 -1.5978 -0.6653  1.0594
   97MOL0     H13069   8.898  11.070   4.409  2.8988 -0.3877 -0.7590
   97MOL0     H13070   8.921  10.900   4.452  3.5688 -0.0143 -0.5852
   97MOL0     H13071   8.997  11.147   4.626  1.4675  0.9838 -1.5775
   97MOL0     H13072   9.015  10.965   4.658 -0.2920 -1.4605 -1.1830
   97MOL0     H13073   9.121  10.933   4.446 -4.2065 -0.3755  0.8018
   97MOL0     H13074   9.214  10.986   4.591 -1.3667 -2.2382  0.6868
   97MOL0     H13075   9.115  11.153   4.362  0.4608 -0.1425 -0.6071
   97MOL0     H13076   9.273  11.096   4.355  0.5400  0.3114 -0.6826
   97MOL0     H13077   8.366  11.098   4.893  2.0620 -3.0678  0.5068
   97MOL0     H13078   8.313  11.074   5.133  1.2449 -0.7338 -0.1248
   97MOL0     H13079   8.647  10.982   5.562 -0.1525 -1.7320  1.9919
   97MOL0     H13080   8.633  10.953   5.800  0.4242  0.3094 -1.1814
   97MOL0     H13081   8.184   9.963   5.956 -1.2752  0.5471  5.2177
   97MOL0     H13082   8.092  10.005   5.725  0.7292  2.8467  1.7433
   97MOL0     H13083   7.648   9.977   5.447 -0.3465  1.2676  0.9274
   97MOL0     H13084   7.557  10.043   5.247  0.8136  1.2643  0.0166
   97MOL0     H13085   7.485  10.360   4.994  0.7803  0.8492 -0.3564
   97MOL0     H13086   7.587  10.432   5.115 -2.6278  3.3958 -0.6081
   97MOL0     H13087   7.693  10.327   4.841 -1.8501 -2.2120  1.7227
   97MOL0     H13088   7.803  10.379   4.979  1.5171 -1.1902 -3.4572
   97MOL0     H13089   7.711  10.613   4.943 -1.6435 -1.4549  0.9683
   97MOL0     H13090   7.577  10.543   4.850 -0.9220  0.4150 -0.1197
   97MOL0     H13091   7.776  10.472   4.690 -0.7946 -1.1859  2.2379
   97MOL0     H13092   7.860  10.600   4.769  0.0506 -0.6463  0.2302
   97MOL0     H13093   7.594  10.868   4.612 -0.0576 -0.1441  2.0644
   97MOL0     H13094   7.825  10.364   5.201 -0.3797 -1.0986 -1.8754
   97MOL0     H13095   7.909  10.321   5.429  0.7865  0.6963 -1.6613
   98MOL0     O13096   6.957   5.381   4.891  0.7044 -0.5702  0.3406
   98MOL0     C13097   6.925   5.503   4.867 -0.3048 -0.4772 -0.6315
   98MOL0     O13098   7.007   5.609   4.904 -0.2704 -0.3972 -0.1213
   98MOL0     C13099   7.139   5.588   4.929 -0.6766 -0.3143 -0.4813
   98MOL0     C13100   7.178   5.648   5.047  0.2256 -0.0499 -0.9262
   98MOL0     C13101   7.305   5.622   5.099  0.9774  0.4611  0.3642
   98MOL0     C13102   7.395   5.539   5.033  0.4847  0.3400 -0.0333
   98MOL0     O13103   7.524   5.532   5.083 -0.1988  0.3983 -0.8964
   98MOL0     C13104   7.609   5.435   5.034 -0.0362 -0.0756  0.0752
   98MOL0     C13105   7.570   5.306   5.093  1.0719 -0.1159 -0.1005
   98MOL0     C13106   7.684   5.211   5.120 -1.6035  0.5991  0.7898
   98MOL0     C13107   7.758   5.196   4.991  1.3517 -0.5705 -0.1806
   98MOL0     C13108   7.874   5.102   4.979 -0.1967 -0.0305  0.0104
   98MOL0     C13109   7.820   4.959   4.994  0.4828 -0.1771 -0.3899
   98MOL0     C13110   7.928   4.856   4.978  0.0970 -0.7707 -0.2405
   98MOL0     C13111   7.893   4.712   5.003  0.8540 -0.4897 -0.6019
   98MOL0     N13112   7.962   4.619   4.915  0.1646  0.9069 -0.2129
   98MOL0     C13113   8.085   4.552   4.932 -0.1372 -0.3183  0.0106
   98MOL0     C13114   8.076   4.446   4.843 -0.8058 -0.4818  0.3518
   98MOL0     C13115   8.194   4.348   4.833 -0.9051  0.4088  1.3644
   98MOL0     C13116   8.158   4.211   4.766 -0.0493 -0.3552  0.0672
   98MOL0     C13117   8.097   4.214   4.625  0.2790 -0.5106 -0.3544
   98MOL0     C13118   8.049   4.086   4.573 -0.3383 -0.1246  0.1849
   98MOL0     O13119   8.151   3.993   4.611  0.1113 -0.0242 -0.2586
   98MOL0     C13120   8.156   3.867   4.572 -0.6786 -0.3542  0.7214
   98MOL0     C13121   8.274   3.791   4.596  0.5360  0.8861  0.7307
   98MOL0     C13122   8.280   3.654   4.552  0.2600  0.2159 -0.1897
   98MOL0     C13123   8.407   3.575   4.589  1.0588 -0.1234 -0.9986
   98MOL0     C13124   8.178   3.589   4.487 -0.0565 -1.0458 -0.4448
   98MOL0     C13125   8.189   3.454   4.428 -0.3475  0.1307 -0.4539
   98MOL0     O13126   8.243   3.358   4.505  0.0631  0.3419 -0.8772
   98MOL0     C13127   8.200   3.230   4.489  0.3193  0.0978 -0.5013
   98MOL0     C13128   8.200   3.165   4.372 -0.1215 -0.3698 -0.5517
   98MOL0     C13129   8.156   3.034   4.353 -0.0698 -0.2675 -0.7314
   98MOL0     C13130   8.105   2.957   4.465  0.0009 -0.8682  0.7637
   98MOL0     O13131   8.054   2.829   4.439 -0.0737 -0.2422  0.4957
   98MOL0     C13132   7.995   2.759   4.539  0.0658  0.9313  0.1485
   98MOL0     C13133   7.892   2.656   4.489 -0.1836  0.5041 -0.2732
   98MOL0     C13134   7.766   2.723   4.431  0.0596  1.0160  0.2429
   98MOL0     C13135   7.670   2.619   4.365  0.2812  0.6896  0.8847
   98MOL0     C13136   7.572   2.684   4.269  0.3201  0.3719  1.3732
   98MOL0     C13137   7.435   2.605   4.255  0.1291  0.8452 -0.7656
   98MOL0     C13138   7.428   2.478   4.164 -0.9992 -0.2332 -0.0316
   98MOL0     C13139   7.530   2.366   4.194 -0.3407  0.6833 -0.0488
   98MOL0    Cl13140   7.691   2.362   4.102 -0.2329  0.0903 -0.1735
   98MOL0     C13141   8.103   3.029   4.590 -0.2362  0.3759  0.3867
   98MOL0     C13142   8.138   3.162   4.598 -0.4393  0.1296  0.0776
   98MOL0     O13143   8.145   3.438   4.315  0.1448 -0.6127 -0.5859
   98MOL0     C13144   8.067   3.672   4.454  0.0852  0.4659  0.3325
   98MOL0     C13145   8.052   3.799   4.505 -0.0595  1.3022 -0.0225
   98MOL0     N13146   7.948   4.441   4.789  0.6470 -0.2025  0.1198
   98MOL0     N13147   7.882   4.543   4.826 -0.2655 -1.1487  0.1227
   98MOL0     C13148   7.353   5.471   4.916  0.6536 -0.0118  0.3380
   98MOL0     C13149   7.225   5.502   4.860  0.3896 -0.4063 -0.3744
   98MOL0     C13150   6.781   5.542   4.833 -0.4467  0.1618  0.0246
   98MOL0     C13151   6.712   5.650   4.876 -0.7577  0.4220  0.3914
   98MOL0     C13152   6.578   5.675   4.837 -0.7010  0.2628  0.8665
   98MOL0     C13153   6.515   5.580   4.749  0.8309 -0.0950 -0.4211
   98MOL0     O13154   6.385   5.584   4.725  0.2264  0.8901 -0.2673
   98MOL0     C13155   6.315   5.708   4.712 -0.5307  0.2708  0.1416
   98MOL0     C13156   6.251   5.758   4.844  1.3107 -0.1627  0.4520
   98MOL0     C13157   6.130   5.857   4.806 -0.8731 -0.2595 -0.0140
   98MOL0     C13158   6.200   5.984   4.751  0.4592 -0.3806  0.8913
   98MOL0     C13159   6.087   6.063   4.691 -0.5942 -0.7412 -0.8965
   98MOL0     C13160   5.989   6.126   4.651  0.4536 -0.4158  0.6686
   98MOL0     C13161   6.583   5.462   4.710 -0.8542  0.9045  0.3822
   98MOL0     C13162   6.718   5.454   4.753  0.0913  1.4019  0.6837
   98MOL0     H13163   7.121   5.721   5.104  2.6038  0.5507  0.8564
   98MOL0     H13164   7.341   5.670   5.189  0.9797  3.5877 -1.1731
   98MOL0     H13165   7.604   5.422   4.926 -2.1124 -0.2304  0.1569
   98MOL0     H13166   7.706   5.465   5.076  0.8597 -2.1281 -0.4383
   98MOL0     H13167   7.516   5.328   5.187 -1.0437  2.5078 -1.7690
   98MOL0     H13168   7.496   5.256   5.030 -0.2110 -1.3608  2.2190
   98MOL0     H13169   7.748   5.253   5.198 -1.4726  3.3688 -0.6883
   98MOL0     H13170   7.642   5.113   5.145  2.4709 -2.2637 -2.2449
   98MOL0     H13171   7.688   5.181   4.908  2.7693 -2.4312 -1.1065
   98MOL0     H13172   7.809   5.293   4.981  3.1998 -1.6026 -1.5489
   98MOL0     H13173   7.910   5.129   4.879  0.7026  0.2608  0.4028
   98MOL0     H13174   7.945   5.138   5.055 -1.4754  1.0238  0.7465
   98MOL0     H13175   7.786   4.943   5.097  3.5131  0.6382  0.8529
   98MOL0     H13176   7.731   4.957   4.931  1.5659  1.2913 -2.0391
   98MOL0     H13177   7.959   4.871   4.874  3.3502 -1.5160  0.5283
   98MOL0     H13178   8.018   4.887   5.032  0.5127  0.0183 -1.3444
   98MOL0     H13179   7.785   4.703   4.987  0.8029 -0.0610 -0.5119
   98MOL0     H13180   7.904   4.669   5.103 -2.3035 -1.2182 -0.4661
   98MOL0     H13181   8.169   4.579   4.995  0.2119  1.4350 -1.1408
   98MOL0     H13182   8.279   4.391   4.779  1.6915 -1.2646  3.8192
   98MOL0     H13183   8.245   4.335   4.929  2.0597  5.9453  0.9835
   98MOL0     H13184   8.094   4.151   4.831  0.9187 -1.0090  0.4414
   98MOL0     H13185   8.250   4.152   4.765 -0.6540 -1.3044 -1.0609
   98MOL0     H13186   8.178   4.248   4.560 -0.2937 -0.2493 -0.9389
   98MOL0     H13187   8.017   4.288   4.630  0.0218 -0.8600  2.4338
   98MOL0     H13188   8.031   4.098   4.466 -0.9292 -1.8627  0.0550
   98MOL0     H13189   7.960   4.061   4.631 -0.0017  1.3210  1.4158
   98MOL0     H13190   8.351   3.847   4.648  0.0233  0.5106  1.9083
   98MOL0     H13191   8.451   3.526   4.502  0.0953  0.3057 -1.7396
   98MOL0     H13192   8.476   3.646   4.636 -1.4846  2.8340 -1.4704
   98MOL0     H13193   8.376   3.489   4.650  2.3443 -0.9682 -1.4826
   98MOL0     H13194   8.252   3.217   4.291  1.1325  0.1804  0.5659
   98MOL0     H13195   8.155   2.985   4.256 -1.7968 -2.5864  0.3608
   98MOL0     H13196   8.068   2.716   4.608  0.1336 -1.3999 -1.2772
   98MOL0     H13197   7.931   2.824   4.599 -1.7548 -0.6409 -0.0002
   98MOL0     H13198   7.948   2.589   4.423  2.1367  2.5331 -0.5072
   98MOL0     H13199   7.866   2.599   4.578  2.6118  2.2560  1.8352
   98MOL0     H13200   7.799   2.801   4.362  2.7681  0.2165  0.4893
   98MOL0     H13201   7.699   2.764   4.507  0.7214 -0.5932  1.7729
   98MOL0     H13202   7.718   2.540   4.306 -5.3410 -2.2495 -0.4433
   98MOL0     H13203   7.621   2.572   4.451  0.8718 -1.4874  0.0970
   98MOL0     H13204   7.625   2.694   4.173  0.3869 -0.5755  1.3060
   98MOL0     H13205   7.553   2.785   4.307 -0.9464  0.5443  0.3249
   98MOL0     H13206   7.412   2.580   4.359  5.0415  2.7652  1.0670
   98MOL0     H13207   7.357   2.665   4.208 -0.9165 -0.7205 -1.1016
   98MOL0     H13208   7.441   2.512   4.061  4.3675  1.3270  0.8215
   98MOL0     H13209   7.328   2.439   4.181 -0.0438 -2.9824 -0.2116
   98MOL0     H13210   7.467   2.278   4.182  0.9124 -0.2621  0.0954
   98MOL0     H13211   7.563   2.365   4.299  0.5374 -1.6145 -0.2969
   98MOL0     H13212   8.079   2.989   4.688  1.5660  0.4173  0.8895
   98MOL0     H13213   8.130   3.202   4.699  2.9238  0.2461  0.4150
   98MOL0     H13214   7.977   3.638   4.402  0.7980 -3.4154  1.3062
   98MOL0     H13215   7.968   3.860   4.471  0.9129  1.1044 -3.1433
   98MOL0     H13216   7.403   5.389   4.865 -3.0180 -1.3085 -1.5115
   98MOL0     H13217   7.190   5.443   4.777 -1.8068 -1.9527  1.5165
   98MOL0     H13218   6.768   5.716   4.941  0.1236 -0.9502  1.0792
   98MOL0     H13219   6.527   5.768   4.861  0.5466  1.0170  0.6374
   98MOL0     H13220   6.366   5.784   4.652 -1.6228 -2.0552 -4.1319
   98MOL0     H13221   6.250   5.685   4.627  1.0840 -0.7442 -0.8711
   98MOL0     H13222   6.319   5.825   4.898  2.0277  0.4052 -1.1140
   98MOL0     H13223   6.218   5.677   4.910 -1.5460  0.6009  0.0953
   98MOL0     H13224   6.081   5.887   4.899 -0.7237  2.8892 -0.8713
   98MOL0     H13225   6.058   5.802   4.745 -1.0146 -0.8270  0.6397
   98MOL0     H13226   6.258   5.962   4.661 -1.8318  2.8926 -1.6519
   98MOL0     H13227   6.258   6.042   4.823  2.5017 -1.8687  0.5228
   98MOL0     H13228   5.902   6.172   4.607 -1.0009 -2.6002  1.0843
   98MOL0     H13229   6.530   5.389   4.650  0.8285 -0.3159  0.3260
   98MOL0     H13230   6.760   5.356   4.738 -4.3927 -0.7705  0.6624
   99MOL0     O13231   8.941   7.666   3.109 -0.1829 -0.6383 -0.5742
   99MOL0     C13232   9.051   7.641   3.058 -0.0756 -0.5907 -0.6971
   99MOL0     O13233   9.084   7.524   2.994  0.6064 -0.3961  0.7397
   99MOL0     C13234   8.985   7.448   2.940  0.1300 -0.7967 -0.8026
   99MOL0     C13235   8.938   7.471   2.806 -0.1809 -0.1896  0.1941
   99MOL0     C13236   8.824   7.400   2.755  0.9777 -0.7589  0.3919
   99MOL0     C13237   8.758   7.304   2.836  1.0419  1.3711 -0.0012
   99MOL0     O13238   8.638   7.238   2.807 -0.3161  1.0709 -0.0045
   99MOL0     C13239   8.619   7.175   2.676 -0.7803 -0.8622 -0.1267
   99MOL0     C13240   8.487   7.228   2.629  0.1236 -0.0634  0.4668
   99MOL0     C13241   8.502   7.284   2.495  0.2479  0.2749  0.5844
   99MOL0     C13242   8.368   7.351   2.446 -0.7366 -0.1967 -0.9097
   99MOL0     C13243   8.384   7.393   2.299 -0.5742  0.4066 -0.3257
   99MOL0     C13244   8.261   7.482   2.240 -0.3112 -0.5582 -0.0785
   99MOL0     C13245   8.279   7.479   2.088  1.0011  0.5257 -0.5177
   99MOL0     C13246   8.149   7.512   2.021 -0.3937 -0.1679  0.6364
   99MOL0     N13247   8.156   7.498   1.870  0.2252 -0.5392 -0.4377
   99MOL0     C13248   8.118   7.586   1.774 -0.1578 -0.4621  0.5432
   99MOL0     C13249   8.110   7.513   1.655 -0.0842 -0.0540 -0.1071
   99MOL0     C13250   8.060   7.576   1.527  1.1652  0.3313  0.6251
   99MOL0     C13251   8.176   7.666   1.468  1.1484  0.5348 -0.2912
   99MOL0     C13252   8.280   7.574   1.411  0.5153  0.1087 -0.1319
   99MOL0     C13253   8.413   7.615   1.469  0.4764 -0.0452 -0.2045
   99MOL0     O13254   8.523   7.557   1.400  0.1604 -0.4699 -1.5846
   99MOL0     C13255   8.645   7.615   1.416  0.0202  0.5599 -0.3035
   99MOL0     C13256   8.679   7.691   1.525 -0.0882  0.4273 -0.1724
   99MOL0     C13257   8.808   7.735   1.536  0.1435  0.6813  0.7673
   99MOL0     C13258   8.849   7.808   1.653 -0.2942  0.8417 -0.4480
   99MOL0     C13259   8.904   7.712   1.424  0.1009  0.0450 -0.2119
   99MOL0     C13260   9.027   7.788   1.420  0.0291 -0.3249  0.6077
   99MOL0     O13261   9.040   7.904   1.468  0.6047 -0.9312  0.4015
   99MOL0     C13262   9.145   7.981   1.425 -0.1851  0.6131 -0.0598
   99MOL0     C13263   9.123   8.050   1.299 -1.1187  0.5128  0.2627
   99MOL0     C13264   9.232   8.129   1.251 -0.3559 -0.4269 -0.2466
   99MOL0     C13265   9.349   8.141   1.327 -0.0187  0.5306  0.1424
   99MOL0     O13266   9.442   8.203   1.262 -0.2937 -0.2993  0.4344
   99MOL0     C13267   9.541   8.286   1.334  0.4022  0.3181 -0.0387
   99MOL0     C13268   9.621   8.379   1.237  0.9903  0.5036 -0.1575
   99MOL0     C13269   9.751   8.440   1.289  0.1625 -0.0926 -0.6986
   99MOL0     C13270   9.816   8.552   1.203  0.3132  0.4847 -0.6953
   99MOL0     C13271   9.898   8.635   1.302 -0.2565  0.6457  0.2292
   99MOL0     C13272   9.991   8.721   1.215 -0.8506  0.3067 -0.3570
   99MOL0     C13273  10.106   8.776   1.297 -0.0072 -0.7419  0.2223
   99MOL0     C13274  10.211   8.851   1.208 -0.0638 -0.5771  0.0342
   99MOL0    Cl13275  10.341   8.942   1.310  0.5912 -0.0678 -0.0440
   99MOL0     C13276   9.362   8.076   1.451  1.0630  0.6295  0.5957
   99MOL0     C13277   9.258   8.000   1.509 -0.9202 -0.3803  0.5714
   99MOL0     O13278   9.124   7.732   1.356  0.2889 -0.2709  0.2765
   99MOL0     C13279   8.872   7.634   1.320 -1.0791 -0.3674  0.0208
   99MOL0     C13280   8.733   7.593   1.308 -0.2944  0.4368 -0.6999
   99MOL0     N13281   8.184   7.397   1.681 -0.0504 -0.7906  0.0027
   99MOL0     N13282   8.198   7.381   1.810 -0.4414 -0.5446  0.0829
   99MOL0     C13283   8.803   7.285   2.970  0.6750  0.6849 -0.4230
   99MOL0     C13284   8.916   7.358   3.024  0.3937  0.8451 -0.0735
   99MOL0     C13285   9.153   7.745   3.087  0.0139  0.3189  0.0264
   99MOL0     C13286   9.291   7.715   3.038 -0.1900  0.7917 -0.4775
   99MOL0     C13287   9.393   7.819   3.050  0.6995  0.4795 -0.0556
   99MOL0     C13288   9.362   7.938   3.117  0.1662  0.9441 -0.4344
   99MOL0     O13289   9.445   8.048   3.129 -0.1158  0.6453  0.1028
   99MOL0     C13290   9.583   8.032   3.140 -0.3617  0.4090 -0.8608
   99MOL0     C13291   9.612   7.953   3.269  0.1814 -1.4086  0.0764
   99MOL0     C13292   9.761   7.941   3.308  0.5461  0.9605 -0.2365
   99MOL0     C13293   9.833   7.861   3.192  0.1957 -0.9167 -0.6740
   99MOL0     C13294   9.974   7.841   3.226 -1.5254 -0.3505 -0.7038
   99MOL0     C13295  10.091   7.826   3.257  1.4120 -0.0284  0.2574
   99MOL0     C13296   9.237   7.957   3.173 -0.3312 -0.1158  0.4495
   99MOL0     C13297   9.135   7.867   3.166 -0.1148 -0.5246  0.5375
   99MOL0     H13298   8.980   7.559   2.758  0.3756 -1.3947 -1.6193
   99MOL0     H13299   8.790   7.443   2.661  2.2214  0.0001  0.2663
   99MOL0     H13300   8.697   7.207   2.606 -1.1054 -1.5541 -0.8131
   99MOL0     H13301   8.619   7.066   2.679 -1.3430 -0.9762 -2.5948
   99MOL0     H13302   8.411   7.151   2.638 -1.0875  1.1732  1.2980
   99MOL0     H13303   8.447   7.306   2.695  1.8105  0.9761  0.3223
   99MOL0     H13304   8.581   7.359   2.499 -1.4821  2.1643  2.3294
   99MOL0     H13305   8.535   7.207   2.425  1.3513 -0.5486  1.9679
   99MOL0     H13306   8.288   7.277   2.455 -0.8002 -0.2399 -1.7505
   99MOL0     H13307   8.345   7.435   2.512  2.1962 -1.3773  1.8971
   99MOL0     H13308   8.481   7.442   2.292 -1.9241  3.1963 -0.7681
   99MOL0     H13309   8.393   7.300   2.242 -1.3334 -0.3613  0.7545
   99MOL0     H13310   8.169   7.439   2.282 -1.1353  2.4037  1.4571
   99MOL0     H13311   8.276   7.586   2.272 -0.1452 -1.1015  1.7342
   99MOL0     H13312   8.352   7.550   2.048  1.8501  0.7571  1.3164
   99MOL0     H13313   8.314   7.382   2.054  3.2480  0.2716  2.1452
   99MOL0     H13314   8.132   7.619   2.040  2.2581  0.7813 -1.5273
   99MOL0     H13315   8.074   7.440   2.053  0.1746  0.5127  3.8029
   99MOL0     H13316   8.083   7.688   1.785  3.9219  1.1738  0.2072
   99MOL0     H13317   8.041   7.496   1.455 -1.1276  0.8879  0.5153
   99MOL0     H13318   7.962   7.622   1.539  0.5138 -0.6748 -0.5616
   99MOL0     H13319   8.217   7.715   1.556 -1.0353  0.0405  1.0847
   99MOL0     H13320   8.129   7.730   1.392 -4.6484 -1.6140  0.9285
   99MOL0     H13321   8.279   7.570   1.302 -0.7896 -0.5615 -0.1121
   99MOL0     H13322   8.266   7.467   1.427 -1.0104 -0.5305 -4.4597
   99MOL0     H13323   8.424   7.582   1.572  0.0821 -3.2863 -1.0984
   99MOL0     H13324   8.431   7.723   1.471  0.0391  0.0351 -0.3671
   99MOL0     H13325   8.617   7.720   1.609  3.2459 -0.1610  2.7046
   99MOL0     H13326   8.813   7.766   1.747  1.5530  0.2234  0.0111
   99MOL0     H13327   8.958   7.811   1.661 -0.3006  0.9713 -0.4046
   99MOL0     H13328   8.814   7.912   1.653 -3.9167 -0.2069  0.4991
   99MOL0     H13329   9.034   8.029   1.240 -0.1330  0.1328 -1.1624
   99MOL0     H13330   9.234   8.170   1.150  2.3408 -0.6428 -0.3491
   99MOL0     H13331   9.495   8.356   1.405 -1.5781  0.2015 -1.1504
   99MOL0     H13332   9.615   8.216   1.374  0.2630  0.4087  0.3772
   99MOL0     H13333   9.641   8.338   1.137  0.7017 -1.6371  0.6067
   99MOL0     H13334   9.560   8.470   1.234  1.0027  0.4865 -1.5176
   99MOL0     H13335   9.823   8.357   1.288 -0.1476 -0.3942 -2.9754
   99MOL0     H13336   9.731   8.480   1.389  0.3335 -0.6172 -0.4522
   99MOL0     H13337   9.878   8.517   1.120  2.8520  2.9512  0.0188
   99MOL0     H13338   9.731   8.608   1.163 -1.4209 -2.4101 -1.3790
   99MOL0     H13339   9.963   8.569   1.359 -0.6058  0.6747  0.6674
   99MOL0     H13340   9.848   8.698   1.377 -0.6574  0.2611  0.2835
   99MOL0     H13341  10.029   8.657   1.135 -2.4378 -0.9741 -0.1543
   99MOL0     H13342   9.939   8.811   1.182 -2.0149  1.1126  3.2349
   99MOL0     H13343  10.167   8.697   1.342 -0.5108 -1.2764 -0.0252
   99MOL0     H13344  10.057   8.836   1.374 -0.0447  3.4236 -2.6656
   99MOL0     H13345  10.156   8.914   1.138 -0.9208 -2.2207 -0.8318
   99MOL0     H13346  10.264   8.773   1.153  0.5634  1.2422 -2.0765
   99MOL0     H13347   9.460   8.076   1.499  1.3511  1.3851  0.0436
   99MOL0     H13348   9.249   7.956   1.609 -1.9790 -0.3175  0.5177
   99MOL0     H13349   8.944   7.611   1.242 -1.2949 -2.6147  0.4048
   99MOL0     H13350   8.699   7.533   1.224  1.9430  0.0480 -1.3819
   99MOL0     H13351   8.752   7.225   3.045 -1.3716  3.9146  1.0329
   99MOL0     H13352   8.954   7.351   3.126  1.3912  0.5254 -0.4530
   99MOL0     H13353   9.317   7.623   2.987  1.0530  0.5177  0.6027
   99MOL0     H13354   9.494   7.805   3.012  0.9437  0.9633  0.3954
   99MOL0     H13355   9.625   7.987   3.050 -4.0735 -0.2755 -2.3976
   99MOL0     H13356   9.625   8.134   3.145 -2.4285  1.2413  0.7395
   99MOL0     H13357   9.558   7.858   3.268  0.0943 -1.4404  2.1277
   99MOL0     H13358   9.560   8.021   3.338  0.2848  1.5686 -2.5224
   99MOL0     H13359   9.760   7.874   3.394 -0.6610 -1.3716 -1.9424
   99MOL0     H13360   9.807   8.037   3.332  2.5518 -0.0014 -0.0619
   99MOL0     H13361   9.817   7.904   3.093 -0.4556 -2.2709 -1.1901
   99MOL0     H13362   9.785   7.763   3.204  1.7760 -1.6348  0.1093
   99MOL0     H13363  10.198   7.824   3.269  1.7761  1.7364 -1.9736
   99MOL0     H13364   9.216   8.049   3.227  1.4553 -0.5878  2.0699
   99MOL0     H13365   9.039   7.884   3.212 -0.9412 -0.9459 -0.9678
  100MOL0     O13366   5.108   2.789   2.115 -0.1045  0.2557 -0.6994
  100MOL0     C13367   5.227   2.828   2.116  0.1043 -0.0315  1.0146
  100MOL0     O13368   5.337   2.746   2.121  0.8794  0.8649  0.1761
  100MOL0     C13369   5.327   2.613   2.094 -1.0513 -0.2204  0.2278
  100MOL0     C13370   5.419   2.532   2.176  0.3626 -0.2791 -0.8418
  100MOL0     C13371   5.421   2.393   2.162  0.1891  0.2007 -0.5127
  100MOL0     C13372   5.335   2.334   2.071  0.9240  0.5165 -0.4144
  100MOL0     O13373   5.350   2.191   2.068 -0.0688 -0.3473 -0.4611
  100MOL0     C13374   5.249   2.125   1.992  0.1460  0.6180 -0.5692
  100MOL0     C13375   5.306   1.996   1.954 -0.0920  0.6552  0.9701
  100MOL0     C13376   5.204   1.919   1.871  0.2608  0.1742 -0.4647
  100MOL0     C13377   5.270   1.833   1.763 -0.5763  0.3567 -0.2964
  100MOL0     C13378   5.349   1.710   1.814  0.0011 -0.4788  1.2091
  100MOL0     C13379   5.457   1.658   1.722 -0.3011  0.3236  0.3629
  100MOL0     C13380   5.526   1.524   1.759 -0.7339 -0.9645 -1.2669
  100MOL0     C13381   5.584   1.445   1.641 -0.7685  0.1940  0.1595
  100MOL0     N13382   5.474   1.367   1.575 -0.4367  0.4906  0.3887
  100MOL0     C13383   5.423   1.265   1.637  1.0479  0.1938 -0.2052
  100MOL0     C13384   5.352   1.196   1.547  0.3974 -0.3042 -0.3047
  100MOL0     C13385   5.278   1.069   1.571  0.2746 -0.7736  0.2260
  100MOL0     C13386   5.377   0.961   1.551 -0.4030 -0.0340  0.3611
  100MOL0     C13387   5.310   0.833   1.502  0.1272 -1.0143  0.1166
  100MOL0     C13388   5.430   0.738   1.483  0.1668  0.2190 -1.2378
  100MOL0     O13389   5.367   0.613   1.449 -0.1253  0.5182 -0.2841
  100MOL0     C13390   5.404   0.509   1.524  0.0205  0.8813  0.0489
  100MOL0     C13391   5.316   0.450   1.615 -1.1020 -0.0582  0.1916
  100MOL0     C13392   5.366   0.361   1.703 -0.0172  0.0149  0.6768
  100MOL0     C13393   5.271   0.316   1.819 -0.4406 -0.2500 -0.7414
  100MOL0     C13394   5.501   0.306   1.686  0.4497 -0.3170 -1.1116
  100MOL0     C13395   5.556   0.181   1.761  0.5179  0.2536 -0.0762
  100MOL0     O13396   5.665   0.117   1.708  0.4901 -0.1488 -0.2334
  100MOL0     C13397   5.733   0.029   1.782  0.2199 -0.1972  0.1537
  100MOL0     C13398   5.819   0.052   1.894  0.2257 -0.4920 -0.8325
  100MOL0     C13399   5.871  -0.061   1.955 -0.5948  0.3814 -0.0456
  100MOL0     C13400   5.842  -0.191   1.922  0.2983 -0.2981 -0.5509
  100MOL0     O13401   5.875  -0.301   2.000  0.0073  0.0608  0.6672
  100MOL0     C13402   5.763  -0.386   2.025 -0.3769 -0.4288 -0.0876
  100MOL0     C13403   5.777  -0.483   2.143  0.2748 -0.3839 -0.2905
  100MOL0     C13404   5.865  -0.596   2.119  0.2454 -0.8383 -0.5421
  100MOL0     C13405   5.850  -0.716   2.208 -0.1857 -0.4654 -0.1300
  100MOL0     C13406   5.932  -0.830   2.153 -0.6736  0.0025 -0.6174
  100MOL0     C13407   5.897  -0.964   2.219 -0.0691  0.6247  0.9722
  100MOL0     C13408   6.004  -1.074   2.174  0.7044 -0.2654  0.3082
  100MOL0     C13409   5.993  -1.199   2.260  0.3627  0.0970  0.2091
  100MOL0    Cl13410   6.004  -1.163   2.437  0.4754 -0.5282  0.6874
  100MOL0     C13411   5.763  -0.216   1.808 -0.3948 -0.1595  0.2568
  100MOL0     C13412   5.716  -0.108   1.737  0.5170 -0.4523  0.1852
  100MOL0     O13413   5.509   0.155   1.865 -0.0579  0.2066  0.5430
  100MOL0     C13414   5.571   0.347   1.573 -0.4920  0.0480  0.3753
  100MOL0     C13415   5.527   0.458   1.500 -1.0157  0.6034  0.2846
  100MOL0     N13416   5.376   1.264   1.425 -0.1817 -0.2699  0.1145
  100MOL0     N13417   5.443   1.376   1.447  0.0048  0.9547  0.1410
  100MOL0     C13418   5.239   2.411   1.990 -0.2962  0.4231 -0.9517
  100MOL0     C13419   5.233   2.550   2.009 -0.3526  0.8193  0.2340
  100MOL0     C13420   5.257   2.962   2.163 -0.7980 -0.7184  1.0429
  100MOL0     C13421   5.386   2.997   2.201 -0.4616 -0.0921 -0.6433
  100MOL0     C13422   5.414   3.116   2.256 -0.1370 -1.3285 -0.5099
  100MOL0     C13423   5.323   3.223   2.262  0.1193 -0.7824  0.5431
  100MOL0     O13424   5.347   3.352   2.309 -0.1566 -0.4126 -0.2415
  100MOL0     C13425   5.460   3.369   2.399 -0.2598  1.1134 -0.6817
  100MOL0     C13426   5.444   3.492   2.478 -0.1287 -1.1340 -0.0013
  100MOL0     C13427   5.440   3.620   2.384  0.3307 -0.2809  0.1923
  100MOL0     C13428   5.448   3.752   2.468 -0.8438  0.0796 -0.1602
  100MOL0     C13429   5.472   3.868   2.378 -0.9244  0.6458 -0.1569
  100MOL0     C13430   5.504   3.959   2.311  0.2698 -0.3569 -0.1143
  100MOL0     C13431   5.197   3.192   2.228  0.7361  0.2591  0.4254
  100MOL0     C13432   5.159   3.055   2.185  0.2724 -0.7190  0.2793
  100MOL0     H13433   5.484   2.586   2.245 -0.9670 -1.9192  1.8934
  100MOL0     H13434   5.480   2.329   2.227  0.9600 -1.2268 -2.5118
  100MOL0     H13435   5.156   2.119   2.049  0.3949  3.1601  0.2002
  100MOL0     H13436   5.227   2.182   1.901 -2.3368  1.4550  0.4795
  100MOL0     H13437   5.397   2.018   1.898  0.5195  3.8891  3.0218
  100MOL0     H13438   5.344   1.939   2.039  1.4798  0.7798  0.3845
  100MOL0     H13439   5.142   1.857   1.937 -1.6302  1.7962 -0.6142
  100MOL0     H13440   5.144   1.994   1.819 -0.9436 -0.7970 -0.5460
  100MOL0     H13441   5.190   1.792   1.701  2.8212 -5.5708 -1.5233
  100MOL0     H13442   5.337   1.896   1.703  0.8052  0.2182  1.0525
  100MOL0     H13443   5.400   1.734   1.908  1.0194 -0.6930  0.7233
  100MOL0     H13444   5.271   1.634   1.824 -2.4139  1.2135 -2.5645
  100MOL0     H13445   5.414   1.650   1.622  2.1434 -1.5758 -0.6391
  100MOL0     H13446   5.517   1.749   1.713 -1.4826  0.8973 -3.7711
  100MOL0     H13447   5.602   1.548   1.834 -1.6763 -0.8385 -0.3228
  100MOL0     H13448   5.464   1.457   1.820  0.8535 -0.9487  0.4566
  100MOL0     H13449   5.641   1.376   1.703  0.7720 -0.7330 -2.1215
  100MOL0     H13450   5.647   1.495   1.567 -3.1929  1.6833 -1.0316
  100MOL0     H13451   5.448   1.243   1.740 -4.1608 -2.0694  0.9061
  100MOL0     H13452   5.226   1.063   1.667 -4.0564 -4.4358 -1.9595
  100MOL0     H13453   5.202   1.068   1.493 -0.2576  0.8165  0.6859
  100MOL0     H13454   5.427   0.946   1.647 -0.2529 -2.2476 -0.0043
  100MOL0     H13455   5.448   1.000   1.477  0.4682  0.7010  1.5428
  100MOL0     H13456   5.252   0.853   1.411  0.8387  1.6306  0.1615
  100MOL0     H13457   5.235   0.791   1.569 -0.6062 -1.4681 -0.9567
  100MOL0     H13458   5.475   0.735   1.582 -0.5997  0.9055 -0.8543
  100MOL0     H13459   5.504   0.772   1.410 -1.3080 -1.1180 -3.4729
  100MOL0     H13460   5.218   0.495   1.624 -1.0130  1.2770 -3.5865
  100MOL0     H13461   5.285   0.393   1.896  0.8309  0.1388 -1.3323
  100MOL0     H13462   5.172   0.313   1.772 -1.1901  1.2720  0.6520
  100MOL0     H13463   5.280   0.220   1.870 -4.4727  0.2638  1.3127
  100MOL0     H13464   5.848   0.152   1.924  0.0537 -1.2166  1.9849
  100MOL0     H13465   5.939  -0.036   2.036  0.6789  0.1394 -1.0141
  100MOL0     H13466   5.671  -0.330   2.047  0.0721  0.3154 -0.0815
  100MOL0     H13467   5.743  -0.445   1.935  4.0239 -2.7264  0.1744
  100MOL0     H13468   5.821  -0.439   2.233 -1.4845 -1.1174  0.9784
  100MOL0     H13469   5.682  -0.518   2.184  0.3126  1.1632  1.2251
  100MOL0     H13470   5.966  -0.555   2.120  0.7974 -2.1537  0.1657
  100MOL0     H13471   5.860  -0.635   2.017  3.5354  0.5565 -1.3441
  100MOL0     H13472   5.878  -0.693   2.311 -2.1676 -1.8262  0.7780
  100MOL0     H13473   5.744  -0.739   2.221  0.2952 -3.4155 -0.8823
  100MOL0     H13474   6.033  -0.796   2.177 -0.9203  1.1059 -1.0853
  100MOL0     H13475   5.917  -0.830   2.045  2.2487  1.9921 -1.1294
  100MOL0     H13476   5.873  -0.948   2.324  0.8252 -4.5347  2.2612
  100MOL0     H13477   5.807  -0.998   2.168  1.2875  1.0957 -1.9616
  100MOL0     H13478   6.105  -1.034   2.184  1.1041 -1.7599  3.6446
  100MOL0     H13479   5.986  -1.092   2.068 -0.8467  0.3071  0.4505
  100MOL0     H13480   6.074  -1.263   2.222 -2.4292 -1.1987 -4.2580
  100MOL0     H13481   5.912  -1.271   2.246  1.2671 -1.8546  3.6482
  100MOL0     H13482   5.731  -0.318   1.788 -1.7798  0.1936  0.5861
  100MOL0     H13483   5.653  -0.111   1.648  1.0687  3.2640 -0.5077
  100MOL0     H13484   5.663   0.298   1.541 -0.6432 -1.1434  1.6722
  100MOL0     H13485   5.584   0.488   1.413  2.3333  0.7329  2.3488
  100MOL0     H13486   5.169   2.366   1.919  0.4928 -1.0467 -0.8471
  100MOL0     H13487   5.168   2.606   1.942  1.7866  1.3600 -1.5435
  100MOL0     H13488   5.464   2.923   2.217  0.8813  1.5198  0.6607
  100MOL0     H13489   5.514   3.142   2.289  0.0797  1.3815 -2.9149
  100MOL0     H13490   5.450   3.286   2.470 -2.0688 -1.9867 -4.1813
  100MOL0     H13491   5.548   3.358   2.335  0.1905  1.7717 -0.1822
  100MOL0     H13492   5.516   3.506   2.560  1.0428  0.1432 -1.2097
  100MOL0     H13493   5.342   3.493   2.519 -1.9222  0.5004 -3.9754
  100MOL0     H13494   5.344   3.614   2.331  0.9240  1.5798 -1.1964
  100MOL0     H13495   5.524   3.607   2.315 -0.3664  0.5785 -0.8584
  100MOL0     H13496   5.525   3.750   2.545 -2.6265  1.8993  1.8027
  100MOL0     H13497   5.349   3.762   2.515  0.4810  3.4339  2.3109
  100MOL0     H13498   5.536   4.045   2.256  1.0463 -0.4266  0.2202
  100MOL0     H13499   5.126   3.271   2.204 -3.1043 -2.9676  0.1644
  100MOL0     H13500   5.056   3.032   2.157 -0.4899  3.8518 -1.5555
  101MOL0     O13501   5.580   4.676   1.114  0.4155 -0.8717  0.1759
  101MOL0     C13502   5.460   4.677   1.093 -0.2874  0.4535 -0.0775
  101MOL0     O13503   5.396   4.575   1.029  0.6682  0.4627 -0.2240
  101MOL0     C13504   5.473   4.491   0.959  0.1419  0.3054  0.4114
  101MOL0     C13505   5.471   4.360   1.004  0.1214  0.0944  1.0282
  101MOL0     C13506   5.517   4.251   0.927 -0.2346  0.5331  0.2367
  101MOL0     C13507   5.565   4.290   0.796 -0.3732  0.3571  0.8060
  101MOL0     O13508   5.612   4.193   0.716  0.3324 -0.6283 -0.4704
  101MOL0     C13509   5.600   4.052   0.739  0.1532 -0.0319 -0.6979
  101MOL0     C13510   5.463   3.999   0.709  0.3678 -0.0259 -0.0344
  101MOL0     C13511   5.463   3.840   0.726  0.5966 -0.4436  0.8258
  101MOL0     C13512   5.483   3.802   0.866 -0.4868  0.1154 -0.1328
  101MOL0     C13513   5.442   3.657   0.883  0.2890  0.0716  1.0391
  101MOL0     C13514   5.470   3.627   1.031 -0.4106 -0.1316 -0.2494
  101MOL0     C13515   5.441   3.478   1.055 -0.0765  0.9867  0.2144
  101MOL0     C13516   5.562   3.392   1.032 -0.5943 -0.0339 -0.0103
  101MOL0     N13517   5.558   3.267   1.099  0.7234  0.3737  0.4334
  101MOL0     C13518   5.622   3.244   1.221  0.1439 -0.0644  0.3209
  101MOL0     C13519   5.572   3.125   1.254  0.1195  0.3057 -0.5126
  101MOL0     C13520   5.606   3.043   1.376  0.0598  0.4790  0.6380
  101MOL0     C13521   5.744   3.088   1.426  0.6370 -0.3484  0.2610
  101MOL0     C13522   5.778   3.046   1.571  0.9933  0.8970  0.3481
  101MOL0     C13523   5.804   2.891   1.575 -0.2179  0.1114  0.1989
  101MOL0     O13524   5.945   2.872   1.557 -0.7119 -0.3947  0.4156
  101MOL0     C13525   5.994   2.749   1.514 -0.0478 -0.2730 -0.2236
  101MOL0     C13526   6.128   2.737   1.489  0.0964 -0.0865  0.2201
  101MOL0     C13527   6.194   2.611   1.477 -0.4605 -0.4732 -0.0541
  101MOL0     C13528   6.337   2.600   1.489 -0.0266 -0.2219 -0.3370
  101MOL0     C13529   6.113   2.497   1.455  0.0970 -0.4018  0.5748
  101MOL0     C13530   6.171   2.358   1.450 -0.4215 -0.3462  1.1969
  101MOL0     O13531   6.298   2.339   1.399 -0.2937  0.0820 -0.1845
  101MOL0     C13532   6.359   2.222   1.437  0.2210  0.3405 -0.8280
  101MOL0     C13533   6.399   2.211   1.569  0.4044 -0.9730  0.4076
  101MOL0     C13534   6.470   2.098   1.609  0.5882 -0.6449 -0.2420
  101MOL0     C13535   6.494   1.990   1.523 -0.8450  0.3750  0.2330
  101MOL0     O13536   6.562   1.869   1.565  1.3206  0.3287  0.1576
  101MOL0     C13537   6.531   1.805   1.687  0.2131 -0.1745  0.1636
  101MOL0     C13538   6.627   1.680   1.705 -0.3047  0.5830 -0.7828
  101MOL0     C13539   6.632   1.620   1.843  0.6045  0.7959 -0.4069
  101MOL0     C13540   6.732   1.505   1.873 -0.0519 -0.9363 -0.0936
  101MOL0     C13541   6.848   1.579   1.940  0.3157 -0.1543 -0.1547
  101MOL0     C13542   6.952   1.483   2.007 -0.1490 -0.3487  0.5520
  101MOL0     C13543   7.013   1.385   1.905  0.1304  0.6918  0.1632
  101MOL0     C13544   7.104   1.437   1.792 -0.7189  0.3915 -0.0513
  101MOL0    Cl13545   7.257   1.513   1.867  0.0650 -0.3508  0.0328
  101MOL0     C13546   6.451   2.000   1.386 -0.7772 -0.0368  0.3453
  101MOL0     C13547   6.383   2.115   1.344  0.1626 -0.4875 -0.4944
  101MOL0     O13548   6.097   2.270   1.479  0.4021 -0.2008  1.3128
  101MOL0     C13549   5.971   2.506   1.475 -0.2879 -0.0406 -0.1675
  101MOL0     C13550   5.915   2.633   1.514  0.0961 -0.1778 -0.2206
  101MOL0     N13551   5.474   3.085   1.165 -0.5465  0.0081 -0.6209
  101MOL0     N13552   5.461   3.172   1.076  0.7713 -0.6243  0.7997
  101MOL0     C13553   5.585   4.423   0.759  0.3809 -0.6099  0.4439
  101MOL0     C13554   5.537   4.521   0.842 -0.1070 -0.0131 -0.0518
  101MOL0     C13555   5.378   4.788   1.153 -0.6473  0.0361  0.5221
  101MOL0     C13556   5.442   4.878   1.239  0.9100  0.3274  0.5689
  101MOL0     C13557   5.371   4.987   1.300  0.0127  0.5591  0.3889
  101MOL0     C13558   5.234   4.990   1.295  0.9370 -0.2895  0.4752
  101MOL0     O13559   5.161   5.087   1.366 -0.5539 -0.1451 -0.0806
  101MOL0     C13560   5.232   5.179   1.463  0.0595  0.0737 -0.0552
  101MOL0     C13561   5.133   5.294   1.504  0.6341 -0.7720 -0.3132
  101MOL0     C13562   5.185   5.402   1.607 -0.2199  0.1470 -0.2773
  101MOL0     C13563   5.314   5.474   1.584 -0.1222  0.2549  0.2867
  101MOL0     C13564   5.312   5.591   1.678 -0.4920 -0.3758 -0.3690
  101MOL0     C13565   5.296   5.681   1.760  0.3020 -0.8852 -0.4086
  101MOL0     C13566   5.166   4.897   1.217 -0.3807  0.4266 -0.6231
  101MOL0     C13567   5.243   4.799   1.148  0.6624  0.3562 -0.4612
  101MOL0     H13568   5.404   4.351   1.089 -0.1299  2.2062  1.1035
  101MOL0     H13569   5.507   4.153   0.972  0.9817  0.1844 -0.2163
  101MOL0     H13570   5.674   4.001   0.677  0.5378 -0.7778  0.3462
  101MOL0     H13571   5.619   4.026   0.844 -4.4961 -4.3640 -0.4914
  101MOL0     H13572   5.383   4.055   0.758 -2.4441 -0.4156 -3.7701
  101MOL0     H13573   5.442   4.032   0.607  0.3079  0.3195  0.0851
  101MOL0     H13574   5.367   3.807   0.683  1.9072 -1.1904 -1.7116
  101MOL0     H13575   5.548   3.794   0.676  1.2716 -0.2960  1.8241
  101MOL0     H13576   5.589   3.804   0.889 -0.4015  0.9490 -0.5807
  101MOL0     H13577   5.432   3.876   0.928  0.8700  2.4416 -1.6822
  101MOL0     H13578   5.336   3.638   0.867  0.7541 -0.7249 -1.5973
  101MOL0     H13579   5.502   3.599   0.813  3.1829 -0.4505  3.7077
  101MOL0     H13580   5.571   3.660   1.057 -0.1307 -0.5957 -0.7167
  101MOL0     H13581   5.397   3.690   1.083 -1.8967  0.7148 -3.1820
  101MOL0     H13582   5.399   3.455   1.153 -0.2123 -1.3468 -0.3336
  101MOL0     H13583   5.355   3.437   1.001 -1.2349  1.0688  1.9415
  101MOL0     H13584   5.653   3.438   1.072  0.2159  0.9237 -2.7146
  101MOL0     H13585   5.576   3.374   0.925 -0.2052 -3.3408  0.4759
  101MOL0     H13586   5.695   3.313   1.263 -1.2987  3.0419 -1.8930
  101MOL0     H13587   5.521   3.061   1.442  0.3923 -2.2609  1.9347
  101MOL0     H13588   5.610   2.937   1.349 -0.5312  0.5491  0.2443
  101MOL0     H13589   5.735   3.197   1.430  0.1913 -0.1914 -2.6470
  101MOL0     H13590   5.817   3.071   1.345  0.3718 -2.8929  0.4739
  101MOL0     H13591   5.690   3.087   1.621  0.6757  3.9322 -2.2946
  101MOL0     H13592   5.868   3.102   1.598  2.5339 -1.4102  0.2552
  101MOL0     H13593   5.762   2.840   1.488  0.5098  1.6587 -1.1142
  101MOL0     H13594   5.763   2.851   1.668 -3.0287  0.2956 -0.8600
  101MOL0     H13595   6.194   2.823   1.486 -0.3325  0.2303 -0.6724
  101MOL0     H13596   6.376   2.600   1.387  0.4107  3.1109 -0.2821
  101MOL0     H13597   6.370   2.696   1.532 -1.3315  0.3830 -0.6423
  101MOL0     H13598   6.364   2.517   1.554 -0.5512 -1.0534 -1.1601
  101MOL0     H13599   6.377   2.302   1.624 -0.5564 -0.1554 -1.2695
  101MOL0     H13600   6.529   2.096   1.701  0.5275  0.7027 -0.1583
  101MOL0     H13601   6.539   1.877   1.769  0.5424  0.2610 -0.2474
  101MOL0     H13602   6.424   1.783   1.683  0.7369 -2.7928 -2.3437
  101MOL0     H13603   6.596   1.601   1.636 -1.8402 -2.3580  2.8706
  101MOL0     H13604   6.734   1.694   1.691  0.1221  2.2607  2.8730
  101MOL0     H13605   6.528   1.586   1.850  1.8197 -3.3612  0.4727
  101MOL0     H13606   6.642   1.691   1.925 -1.7452 -1.4135  1.9894
  101MOL0     H13607   6.695   1.422   1.934  3.8750 -1.3029  2.0912
  101MOL0     H13608   6.775   1.459   1.784  0.4433 -1.0869  0.2183
  101MOL0     H13609   6.827   1.633   2.032 -3.1910 -1.7763  0.1482
  101MOL0     H13610   6.896   1.637   1.861 -1.9135  0.2370 -1.3006
  101MOL0     H13611   7.036   1.536   2.053  2.4950 -0.8837 -3.2081
  101MOL0     H13612   6.902   1.428   2.086  0.0199 -0.3327  0.6702
  101MOL0     H13613   6.928   1.329   1.863  1.5123 -1.9310  0.6173
  101MOL0     H13614   7.070   1.308   1.958  0.3282 -0.9788 -2.2882
  101MOL0     H13615   7.053   1.506   1.725  0.9894 -0.6430 -2.6140
  101MOL0     H13616   7.125   1.361   1.716  0.7207  3.6093 -3.1740
  101MOL0     H13617   6.476   1.921   1.315 -1.7337 -1.7333  1.8004
  101MOL0     H13618   6.350   2.129   1.241  1.9868 -1.4761 -1.2437
  101MOL0     H13619   5.922   2.410   1.489  2.6179 -1.3885  2.0370
  101MOL0     H13620   5.809   2.635   1.537 -0.0655 -3.0995 -0.4216
  101MOL0     H13621   5.633   4.448   0.665 -2.4797 -1.3909 -1.3128
  101MOL0     H13622   5.552   4.617   0.794  2.3215 -0.0915  0.4627
  101MOL0     H13623   5.549   4.888   1.255  1.4030 -0.5912 -1.8225
  101MOL0     H13624   5.415   5.070   1.355 -3.0990  0.2733  3.7055
  101MOL0     H13625   5.270   5.118   1.545  2.0001 -1.6790 -2.1307
  101MOL0     H13626   5.311   5.234   1.410 -0.2619  2.6911  1.9683
  101MOL0     H13627   5.040   5.254   1.544 -0.2051  1.1645 -0.2350
  101MOL0     H13628   5.111   5.358   1.418 -1.8244 -3.7595 -2.1060
  101MOL0     H13629   5.200   5.354   1.704 -1.3977 -0.1088 -0.2047
  101MOL0     H13630   5.100   5.471   1.616 -1.6074 -1.6338  1.0743
  101MOL0     H13631   5.304   5.510   1.482  0.6278  0.4659  0.2776
  101MOL0     H13632   5.400   5.406   1.582 -0.2230  0.1430 -0.7226
  101MOL0     H13633   5.275   5.767   1.821  0.7438  1.6311 -3.5047
  101MOL0     H13634   5.057   4.897   1.215 -0.5181 -3.8416 -1.1163
  101MOL0     H13635   5.186   4.727   1.090  0.2119 -0.2503  0.7124
  102MOL0     O13636   2.632  10.530   2.333 -0.4423  0.5522 -0.0204
  102MOL0     C13637   2.558  10.553   2.231  0.1587  0.5844  0.1420
  102MOL0     O13638   2.541  10.675   2.173  0.2813 -0.4642 -0.5653
  102MOL0     C13639   2.594  10.788   2.211 -0.5378 -0.3523 -0.0214
  102MOL0     C13640   2.581  10.884   2.114 -0.9772 -0.1519  0.1164
  102MOL0     C13641   2.652  11.007   2.131  1.2821 -0.3100  0.8279
  102MOL0     C13642   2.704  11.051   2.252 -0.1055  0.0461  0.8508
  102MOL0     O13643   2.751  11.185   2.291  1.0647 -0.1641 -0.1759
  102MOL0     C13644   2.762  11.290   2.193 -0.0749 -0.6119  0.4046
  102MOL0     C13645   2.625  11.344   2.160 -0.0347  0.5743  0.2876
  102MOL0     C13646   2.611  11.470   2.075  0.3133 -0.4776 -0.6821
  102MOL0     C13647   2.647  11.440   1.932 -0.5360  0.5181 -0.3749
  102MOL0     C13648   2.635  11.562   1.835  0.3707  1.0597 -0.5415
  102MOL0     C13649   2.620  11.520   1.691  0.6079 -0.1541  0.8198
  102MOL0     C13650   2.748  11.466   1.639 -1.2547 -0.3339 -0.4362
  102MOL0     C13651   2.737  11.437   1.490  0.9511  0.6287 -0.2558
  102MOL0     N13652   2.857  11.369   1.432  0.0431 -0.3540 -0.5885
  102MOL0     C13653   2.947  11.301   1.497 -0.2285  0.4005 -0.0626
  102MOL0     C13654   3.016  11.226   1.406 -0.1547  0.2744  0.3882
  102MOL0     C13655   3.127  11.129   1.452 -0.2322 -1.2556  0.0005
  102MOL0     C13656   3.090  10.985   1.503  0.6067 -0.9428  0.3228
  102MOL0     C13657   3.211  10.895   1.538 -0.6981  0.3544  0.6703
  102MOL0     C13658   3.156  10.755   1.569 -0.2687 -0.2514  0.3981
  102MOL0     O13659   3.263  10.658   1.565 -0.4283  0.0547  0.0489
  102MOL0     C13660   3.233  10.538   1.627 -0.1928 -1.1677  0.3001
  102MOL0     C13661   3.342  10.457   1.657 -0.1098  0.1769  0.4682
  102MOL0     C13662   3.339  10.334   1.715  0.8796  1.4644 -0.1414
  102MOL0     C13663   3.465  10.251   1.736  0.3377 -0.4623 -0.4070
  102MOL0     C13664   3.200  10.284   1.738  0.1452 -1.1167 -0.0149
  102MOL0     C13665   3.160  10.154   1.799 -0.5876  0.1071  0.3875
  102MOL0     O13666   3.031  10.145   1.860 -0.2574  0.1004  0.8194
  102MOL0     C13667   2.977  10.035   1.923 -0.1903  0.1279  0.6837
  102MOL0     C13668   3.017   9.901   1.892 -0.5523  0.7031  0.8398
  102MOL0     C13669   2.950   9.790   1.947  0.5444  1.0874  0.3950
  102MOL0     C13670   2.824   9.818   2.009 -1.2117 -0.0925 -0.4972
  102MOL0     O13671   2.752   9.704   2.055  0.6886 -0.2249 -0.6033
  102MOL0     C13672   2.718   9.609   1.952 -0.0287 -0.0034  0.9607
  102MOL0     C13673   2.631   9.499   2.011 -0.1698  0.4824 -0.3328
  102MOL0     C13674   2.726   9.396   2.079  0.6999  0.2542  0.1520
  102MOL0     C13675   2.662   9.259   2.093  0.5934  0.0863  0.4833
  102MOL0     C13676   2.740   9.155   2.172 -0.3654  0.6688  0.0766
  102MOL0     C13677   2.896   9.155   2.144  0.9410  0.2067 -0.1610
  102MOL0     C13678   2.934   9.084   2.017  0.0952 -0.3293  0.4115
  102MOL0     C13679   3.070   9.124   1.969 -0.4554 -0.2424 -0.9220
  102MOL0    Cl13680   3.198   9.121   2.097  0.0754  0.5015 -0.3374
  102MOL0     C13681   2.793   9.942   2.046 -0.2405  0.1671 -0.5534
  102MOL0     C13682   2.860  10.051   1.994 -0.0991  0.2426 -1.2082
  102MOL0     O13683   3.243  10.066   1.791  0.2339  0.0553  0.8528
  102MOL0     C13684   3.087  10.366   1.708 -0.0868 -0.2679  1.2512
  102MOL0     C13685   3.103  10.489   1.657 -1.0691 -0.4996 -0.4219
  102MOL0     N13686   2.966  11.255   1.284  0.0146  0.5228 -1.2097
  102MOL0     N13687   2.862  11.333   1.302 -0.1263 -0.7466  0.3607
  102MOL0     C13688   2.702  10.950   2.351 -1.7462  0.5031  0.2856
  102MOL0     C13689   2.654  10.821   2.337  0.5108  0.1974 -0.2517
  102MOL0     C13690   2.497  10.427   2.172  0.9646  0.7532 -0.0890
  102MOL0     C13691   2.407  10.431   2.066 -0.2644 -0.6295 -0.5347
  102MOL0     C13692   2.367  10.306   2.013 -0.8283  0.3960  0.6313
  102MOL0     C13693   2.399  10.188   2.073  0.9999 -0.2205  0.2177
  102MOL0     O13694   2.345  10.066   2.035  0.1102  1.1605 -0.8811
  102MOL0     C13695   2.208  10.075   1.997 -0.2165 -0.1278  1.2466
  102MOL0     C13696   2.158   9.932   1.988  0.8392 -0.2334 -0.0687
  102MOL0     C13697   2.235   9.854   1.886 -0.2021 -0.0049 -1.2076
  102MOL0     C13698   2.145   9.755   1.822 -0.2553 -0.0071 -0.5336
  102MOL0     C13699   2.092   9.657   1.913 -0.4551 -0.9393  0.8651
  102MOL0     C13700   2.052   9.591   2.009  0.1277 -0.2331 -0.0997
  102MOL0     C13701   2.496  10.187   2.175  0.2604 -0.5200  0.3299
  102MOL0     C13702   2.550  10.302   2.224  0.7350 -0.6306 -0.1788
  102MOL0     H13703   2.524  10.865   2.024  3.0168 -0.8201 -2.5366
  102MOL0     H13704   2.627  11.083   2.059 -3.1955  0.0104  2.4275
  102MOL0     H13705   2.829  11.373   2.218 -1.0828  0.4514 -0.2916
  102MOL0     H13706   2.805  11.238   2.107  0.6027  0.4188  0.1013
  102MOL0     H13707   2.561  11.268   2.115  0.7697  1.1700 -1.9708
  102MOL0     H13708   2.574  11.366   2.254 -1.3687 -0.2275 -0.2180
  102MOL0     H13709   2.509  11.509   2.077  0.9308  1.2955 -1.1519
  102MOL0     H13710   2.665  11.551   2.126 -0.2366  0.7588 -1.9772
  102MOL0     H13711   2.753  11.416   1.929 -0.1704  1.9433  0.1960
  102MOL0     H13712   2.591  11.354   1.895 -0.0754  0.7297 -1.6063
  102MOL0     H13713   2.554  11.630   1.863 -0.1283 -0.3344  1.6138
  102MOL0     H13714   2.723  11.627   1.845  0.7638  0.3483  0.8848
  102MOL0     H13715   2.546  11.440   1.682 -0.0650  0.5845 -0.6204
  102MOL0     H13716   2.589  11.607   1.632 -4.5048  1.2285  4.8512
  102MOL0     H13717   2.830  11.538   1.650 -2.1337  1.1516 -2.7777
  102MOL0     H13718   2.780  11.374   1.690 -0.4964 -0.8683 -1.8233
  102MOL0     H13719   2.717  11.520   1.421 -0.8573 -1.6783 -2.7110
  102MOL0     H13720   2.651  11.370   1.488  2.0117 -0.9938 -4.9939
  102MOL0     H13721   2.952  11.282   1.603 -1.8180 -0.0678 -0.0577
  102MOL0     H13722   3.205  11.127   1.376 -0.0430  0.0558  0.1379
  102MOL0     H13723   3.174  11.176   1.539  0.3387 -1.5573 -0.1410
  102MOL0     H13724   3.018  10.957   1.425 -1.2015  0.5231  1.3679
  102MOL0     H13725   3.030  10.989   1.595 -1.5683  0.1713 -1.0580
  102MOL0     H13726   3.267  10.933   1.623 -0.9611  0.7085  0.6898
  102MOL0     H13727   3.275  10.883   1.450  1.6364  2.6300  1.9080
  102MOL0     H13728   3.079  10.727   1.496 -0.2667 -0.8225  0.6035
  102MOL0     H13729   3.116  10.765   1.670  1.5838 -1.4520  1.3080
  102MOL0     H13730   3.439  10.499   1.632 -1.0568  2.0666 -0.2287
  102MOL0     H13731   3.552  10.304   1.697  2.1475 -2.4563  0.7179
  102MOL0     H13732   3.489  10.242   1.843  2.8131  0.1518 -0.8647
  102MOL0     H13733   3.465  10.148   1.698 -1.7938 -1.7437  2.5578
  102MOL0     H13734   3.102   9.876   1.830 -1.7231 -2.1387  0.1906
  102MOL0     H13735   2.970   9.689   1.913 -1.1960  0.5796  0.7680
  102MOL0     H13736   2.669   9.664   1.871 -0.5182 -3.0603 -0.9544
  102MOL0     H13737   2.802   9.557   1.905 -0.0310  0.3951  0.5030
  102MOL0     H13738   2.557   9.539   2.081 -1.0552 -0.8319 -0.4871
  102MOL0     H13739   2.578   9.453   1.928  0.5117 -1.4628  0.2655
  102MOL0     H13740   2.745   9.434   2.180  0.3040  0.3879  0.1752
  102MOL0     H13741   2.819   9.387   2.021 -1.8839  0.5753 -4.4827
  102MOL0     H13742   2.571   9.276   2.152 -1.1396 -0.5232 -1.8732
  102MOL0     H13743   2.631   9.218   1.997  1.2627 -3.5342  1.6863
  102MOL0     H13744   2.697   9.054   2.161 -0.8300  0.8021  0.6060
  102MOL0     H13745   2.729   9.184   2.277  0.5646  2.4488 -0.2859
  102MOL0     H13746   2.945   9.252   2.146  1.9695 -0.2192 -2.1030
  102MOL0     H13747   2.941   9.086   2.216 -2.6942 -2.5098 -0.1656
  102MOL0     H13748   2.859   9.102   1.939 -0.6384  0.2146  1.2129
  102MOL0     H13749   2.929   8.975   2.027 -0.7736 -0.3236  0.1391
  102MOL0     H13750   3.071   9.229   1.940  1.1284  0.1485  0.3997
  102MOL0     H13751   3.093   9.060   1.884 -0.5403 -4.0274  1.6369
  102MOL0     H13752   2.700   9.957   2.099 -0.4071 -0.5361 -0.6443
  102MOL0     H13753   2.808  10.147   2.001 -2.2027 -0.9438  1.1211
  102MOL0     H13754   2.981  10.345   1.716 -0.3529  0.3540 -0.2799
  102MOL0     H13755   3.009  10.542   1.648  0.2562  2.2852  0.8767
  102MOL0     H13756   2.741  10.977   2.448 -1.1165  0.3234  0.0872
  102MOL0     H13757   2.650  10.753   2.422 -1.6191  0.8631  0.2440
  102MOL0     H13758   2.372  10.522   2.019 -1.4316 -2.2105 -2.9101
  102MOL0     H13759   2.291  10.314   1.935  0.9198 -1.6280 -1.4526
  102MOL0     H13760   2.138  10.113   2.072 -1.3535 -1.8935  1.1253
  102MOL0     H13761   2.205  10.131   1.903 -0.1468 -0.8206  0.8235
  102MOL0     H13762   2.054   9.939   1.955 -0.4260 -1.5614  3.2276
  102MOL0     H13763   2.163   9.880   2.084 -2.5867 -0.1638  0.2791
  102MOL0     H13764   2.305   9.794   1.945 -1.0876  0.6834  0.6505
  102MOL0     H13765   2.288   9.910   1.809  0.8492 -1.0305 -1.2578
  102MOL0     H13766   2.201   9.695   1.751  1.6465  1.3768 -0.2868
  102MOL0     H13767   2.066   9.815   1.776 -0.1322  2.1216  1.7867
  102MOL0     H13768   2.016   9.543   2.099 -5.0318  1.2542 -1.0098
  102MOL0     H13769   2.529  10.094   2.219  1.2544 -0.5132 -0.3825
  102MOL0     H13770   2.629  10.295   2.298  2.1851  3.1266 -1.1594
  103MOL0     O13771   7.693   4.439   8.463  0.3031  0.6932 -0.4761
  103MOL0     C13772   7.784   4.517   8.458 -1.1003  0.0897 -0.6192
  103MOL0     O13773   7.903   4.497   8.378  0.6529 -0.0928  0.0179
  103MOL0     C13774   7.909   4.411   8.271 -0.5756 -0.2148 -0.0031
  103MOL0     C13775   8.042   4.362   8.249 -0.2960 -0.6452  0.1058
  103MOL0     C13776   8.075   4.268   8.153 -0.4668 -0.1654  0.8006
  103MOL0     C13777   7.971   4.216   8.071 -0.2903 -0.4113 -0.2613
  103MOL0     O13778   7.972   4.122   7.979  0.4648  0.0675  0.6876
  103MOL0     C13779   8.080   4.035   7.965 -0.5449 -0.6951  0.3382
  103MOL0     C13780   8.051   3.884   7.944 -0.9634  0.0302  0.2335
  103MOL0     C13781   7.964   3.869   7.817  0.7048 -0.2643 -0.3889
  103MOL0     C13782   8.061   3.892   7.688  0.4831 -0.2987  0.4995
  103MOL0     C13783   7.973   3.897   7.559  0.2808  0.1695 -0.5334
  103MOL0     C13784   7.951   3.756   7.500 -0.6644 -0.0426 -0.9999
  103MOL0     C13785   7.873   3.748   7.368  0.1846 -0.2786 -0.0849
  103MOL0     C13786   7.725   3.777   7.371  0.1540 -0.1521  0.3861
  103MOL0     N13787   7.662   3.770   7.241  0.6906  0.3767 -0.9499
  103MOL0     C13788   7.698   3.811   7.115  0.3598 -0.3270 -0.7708
  103MOL0     C13789   7.595   3.777   7.033  0.2868  0.6191 -0.5048
  103MOL0     C13790   7.579   3.817   6.880  0.5096 -0.0401 -0.4680
  103MOL0     C13791   7.685   3.735   6.796  0.5411 -0.4616  0.3558
  103MOL0     C13792   7.832   3.789   6.806  0.2497  0.3437 -0.1241
  103MOL0     C13793   7.945   3.683   6.838  0.1324 -0.0333 -0.0187
  103MOL0     O13794   7.899   3.639   6.963 -0.1867 -0.5364  0.4535
  103MOL0     C13795   7.910   3.506   6.994  0.0881 -1.3125 -0.8603
  103MOL0     C13796   7.994   3.416   6.928 -0.1825 -0.2456 -0.2658
  103MOL0     C13797   7.989   3.273   6.953  1.0590 -0.1955 -0.2554
  103MOL0     C13798   8.064   3.177   6.869 -0.5268 -0.3899  0.4865
  103MOL0     C13799   7.885   3.231   7.041 -0.1316  0.2159  0.3727
  103MOL0     C13800   7.849   3.093   7.079  0.5808 -0.0140  0.4851
  103MOL0     O13801   7.769   3.068   7.186 -0.3450  0.8603 -0.7221
  103MOL0     C13802   7.702   2.949   7.176  0.0666 -0.1038 -0.6472
  103MOL0     C13803   7.557   2.937   7.177 -0.7824 -0.1598  0.6101
  103MOL0     C13804   7.489   2.816   7.160  0.3841  0.2433 -0.3697
  103MOL0     C13805   7.561   2.708   7.132  0.5895  0.8551 -0.0642
  103MOL0     O13806   7.485   2.597   7.093 -0.6513 -0.1887 -0.0601
  103MOL0     C13807   7.525   2.480   7.163  0.8492 -0.1775  0.7574
  103MOL0     C13808   7.430   2.448   7.288 -0.0246 -0.7631  1.5991
  103MOL0     C13809   7.476   2.307   7.319  0.3730  0.6841 -0.7907
  103MOL0     C13810   7.362   2.212   7.375 -0.3959 -1.0676 -0.5042
  103MOL0     C13811   7.417   2.086   7.438  0.4204 -0.7689 -0.9313
  103MOL0     C13812   7.305   2.016   7.520  0.5434  0.7106  0.3871
  103MOL0     C13813   7.353   1.898   7.595  0.9467  1.1904 -0.5196
  103MOL0     C13814   7.249   1.827   7.686  0.6666 -0.0873 -0.3642
  103MOL0    Cl13815   7.118   1.785   7.575 -0.1190  0.1940  0.2397
  103MOL0     C13816   7.701   2.711   7.133 -0.5484  0.4193 -0.3650
  103MOL0     C13817   7.772   2.828   7.158 -0.0965  0.4510  0.0266
  103MOL0     O13818   7.897   3.003   7.012  0.4358  0.6319  0.1486
  103MOL0     C13819   7.813   3.326   7.117  0.1797 -0.7754 -0.3982
  103MOL0     C13820   7.825   3.465   7.094  0.2634 -0.1267  0.1761
  103MOL0     N13821   7.489   3.730   7.113  0.4494 -0.2279  0.6741
  103MOL0     N13822   7.532   3.725   7.230  0.2797  0.5900 -0.4919
  103MOL0     C13823   7.841   4.269   8.091  0.6890  0.6007 -0.2176
  103MOL0     C13824   7.810   4.357   8.189  0.3781 -0.8844  0.1952
  103MOL0     C13825   7.782   4.616   8.570  0.1601  0.0419  0.4010
  103MOL0     C13826   7.668   4.636   8.645 -0.1765 -0.1035  0.7837
  103MOL0     C13827   7.669   4.730   8.742  0.3318 -1.1177 -0.1083
  103MOL0     C13828   7.784   4.807   8.770 -0.4594 -0.0462 -0.6176
  103MOL0     O13829   7.768   4.884   8.877 -0.6053 -0.1137 -0.9719
  103MOL0     C13830   7.881   4.974   8.915 -0.1681 -0.6960 -0.1100
  103MOL0     C13831   7.849   5.022   9.061 -0.7350 -0.5009  0.1296
  103MOL0     C13832   7.926   5.146   9.116  0.3923 -0.5020 -0.3765
  103MOL0     C13833   7.849   5.247   9.186  0.7635 -1.2235  0.9131
  103MOL0     C13834   7.737   5.316   9.124 -0.5441 -0.1169 -0.1478
  103MOL0     C13835   7.642   5.386   9.080 -1.2008 -0.2734  0.9110
  103MOL0     C13836   7.897   4.793   8.696 -0.9502  0.8494 -0.0034
  103MOL0     C13837   7.893   4.699   8.595 -0.3975  0.1552 -0.7911
  103MOL0     H13838   8.124   4.396   8.310  1.6898 -3.1337 -0.9802
  103MOL0     H13839   8.177   4.240   8.131  0.1228  2.1773  0.3069
  103MOL0     H13840   8.133   4.074   7.877 -1.2220 -2.0367 -0.7106
  103MOL0     H13841   8.136   4.032   8.059 -1.4512  1.4468  1.0045
  103MOL0     H13842   8.151   3.844   7.927 -0.6510  1.9013 -3.4826
  103MOL0     H13843   8.003   3.840   8.032 -0.5952  1.4911  1.1910
  103MOL0     H13844   7.920   3.769   7.810 -3.1576  1.2486  0.1672
  103MOL0     H13845   7.882   3.941   7.809  2.4272  1.6118 -2.9282
  103MOL0     H13846   8.099   3.994   7.695 -1.8690  0.9160 -2.5260
  103MOL0     H13847   8.140   3.817   7.678 -0.1631 -0.8770 -0.4495
  103MOL0     H13848   7.879   3.950   7.581 -0.2301 -0.4566 -1.1644
  103MOL0     H13849   8.029   3.963   7.492 -0.6517  0.4778 -1.0314
  103MOL0     H13850   8.053   3.717   7.492  1.1463  4.0441 -0.3665
  103MOL0     H13851   7.902   3.702   7.582 -0.1229  2.4797  1.1239
  103MOL0     H13852   7.921   3.829   7.312  2.0571  0.7233  2.7106
  103MOL0     H13853   7.895   3.650   7.324 -2.3957 -0.0880 -2.0040
  103MOL0     H13854   7.727   3.882   7.400  3.4624 -0.3518  1.3495
  103MOL0     H13855   7.667   3.717   7.442  2.6173 -2.8289  0.3357
  103MOL0     H13856   7.796   3.851   7.092  0.3863 -0.1062 -0.2820
  103MOL0     H13857   7.474   3.795   6.857  0.0914  1.3073  0.0167
  103MOL0     H13858   7.597   3.923   6.862 -0.1609 -0.0193 -1.0558
  103MOL0     H13859   7.660   3.741   6.689  0.5657  0.6910  0.3952
  103MOL0     H13860   7.672   3.630   6.823  1.8736 -0.2876  1.8256
  103MOL0     H13861   7.841   3.872   6.876 -1.1439 -1.1565  1.9524
  103MOL0     H13862   7.867   3.833   6.712 -1.5516  0.9764 -0.5368
  103MOL0     H13863   8.037   3.741   6.844  0.5769 -0.4021 -2.5168
  103MOL0     H13864   7.957   3.612   6.756  2.1737  0.7731 -0.4716
  103MOL0     H13865   8.065   3.459   6.859  1.8976  0.7301  2.3006
  103MOL0     H13866   7.995   3.118   6.807 -0.1765 -0.3808  0.0826
  103MOL0     H13867   8.129   3.238   6.806  1.3984 -1.2840  1.5102
  103MOL0     H13868   8.126   3.096   6.909 -2.1150 -1.5746  0.6715
  103MOL0     H13869   7.500   3.027   7.197 -1.6200  0.5175 -3.8910
  103MOL0     H13870   7.381   2.817   7.166  0.4184  2.8981  4.4786
  103MOL0     H13871   7.511   2.398   7.092  0.6881 -2.0426  2.8222
  103MOL0     H13872   7.624   2.491   7.207  1.6887  1.7993 -1.4526
  103MOL0     H13873   7.458   2.515   7.370  5.1288 -0.5095 -0.0077
  103MOL0     H13874   7.325   2.451   7.256  0.4956  0.0777 -0.1409
  103MOL0     H13875   7.546   2.312   7.403 -1.0265 -2.5025  0.7284
  103MOL0     H13876   7.520   2.254   7.235 -2.2040 -2.2509 -0.4566
  103MOL0     H13877   7.300   2.266   7.448 -1.6191 -0.0782 -2.1947
  103MOL0     H13878   7.293   2.183   7.295 -0.3977  1.1524 -1.3800
  103MOL0     H13879   7.492   2.121   7.509 -3.5363  2.4614  2.2152
  103MOL0     H13880   7.457   2.027   7.356  0.1717 -0.0477 -1.5823
  103MOL0     H13881   7.266   2.082   7.598  0.7444  1.2293  0.0611
  103MOL0     H13882   7.235   1.989   7.440  1.9802  0.4249 -0.8193
  103MOL0     H13883   7.419   1.941   7.671  1.4662 -0.3527 -0.0757
  103MOL0     H13884   7.412   1.825   7.539  3.2877 -1.0577  4.3577
  103MOL0     H13885   7.201   1.892   7.759 -2.1619  0.8374 -2.8168
  103MOL0     H13886   7.293   1.738   7.730  0.2225 -0.8595 -1.4362
  103MOL0     H13887   7.760   2.621   7.126  3.2193  2.6229  0.0372
  103MOL0     H13888   7.879   2.819   7.176 -0.6509 -3.4605  2.5666
  103MOL0     H13889   7.732   3.298   7.184  0.4464 -0.8647 -0.1108
  103MOL0     H13890   7.750   3.524   7.145  2.1205  0.3761  2.5110
  103MOL0     H13891   7.752   4.236   8.039  0.7796  1.6746 -1.0825
  103MOL0     H13892   7.710   4.394   8.206  1.5961  3.2587 -0.4630
  103MOL0     H13893   7.577   4.583   8.620  0.7830 -2.8450  2.6044
  103MOL0     H13894   7.583   4.744   8.806  0.2794 -1.9528  0.0062
  103MOL0     H13895   7.986   4.944   8.921  0.9286  2.8595  0.5726
  103MOL0     H13896   7.882   5.058   8.846  1.8887 -0.0197  0.6706
  103MOL0     H13897   7.868   4.942   9.133 -0.9393  0.1189  0.8914
  103MOL0     H13898   7.742   5.043   9.065 -0.7567 -0.8138  1.8858
  103MOL0     H13899   7.980   5.179   9.026  2.0422 -0.5885  0.5327
  103MOL0     H13900   8.000   5.112   9.189 -0.8416  0.2311  1.2799
  103MOL0     H13901   7.914   5.332   9.208  0.6874 -0.8532 -0.2411
  103MOL0     H13902   7.812   5.204   9.279 -2.1105  2.7496  1.8298
  103MOL0     H13903   7.567   5.455   9.048 -1.8506 -1.7971 -1.0332
  103MOL0     H13904   7.998   4.834   8.702 -0.1485 -0.9528 -0.5800
  103MOL0     H13905   7.982   4.683   8.535 -1.2219  0.0991 -2.0324
  104MOL0     O13906   4.376  10.518  10.696 -0.7427 -0.1771  0.6893
  104MOL0     C13907   4.461  10.473  10.615 -0.8649  0.2048 -0.3461
  104MOL0     O13908   4.573  10.535  10.571 -0.1823 -0.6088 -0.3921
  104MOL0     C13909   4.621  10.635  10.641  0.2067  0.2945 -0.7050
  104MOL0     C13910   4.748  10.617  10.690  0.2906 -0.3642 -0.1769
  104MOL0     C13911   4.816  10.727  10.748  0.5830  0.3398 -0.1434
  104MOL0     C13912   4.755  10.845  10.777  0.2163  0.6410 -0.0236
  104MOL0     O13913   4.799  10.941  10.865  0.4235 -0.8470 -0.0701
  104MOL0     C13914   4.900  10.896  10.961 -0.1345  0.3403  0.3103
  104MOL0     C13915   4.894  10.965  11.097  0.0993  0.8023  0.7647
  104MOL0     C13916   4.921  11.120  11.080  0.0442  0.8833 -0.2241
  104MOL0     C13917   4.880  11.183  11.211  1.2911 -0.8933 -0.3862
  104MOL0     C13918   4.900  11.348  11.211  0.3540  1.2292 -0.5061
  104MOL0     C13919   4.828  11.433  11.114  0.4007 -0.0845  0.1704
  104MOL0     C13920   4.684  11.414  11.089 -0.3207 -0.4490 -0.1751
  104MOL0     C13921   4.576  11.441  11.193 -0.7386  0.4068 -0.4123
  104MOL0     N13922   4.548  11.590  11.188 -0.1269  0.2365  1.1549
  104MOL0     C13923   4.610  11.696  11.251  0.2723 -0.6356 -0.7256
  104MOL0     C13924   4.539  11.803  11.219  1.3643  0.0475 -0.0910
  104MOL0     C13925   4.539  11.949  11.262 -0.1168  0.5312 -0.1343
  104MOL0     C13926   4.678  11.999  11.323 -0.4913  1.7411  0.6818
  104MOL0     C13927   4.677  12.146  11.366 -0.1412 -0.6881  0.1456
  104MOL0     C13928   4.817  12.195  11.406  0.4236  0.2257  0.1287
  104MOL0     O13929   4.866  12.096  11.490  0.7718 -1.2806 -0.0071
  104MOL0     C13930   4.892  12.141  11.612  0.0539  0.5046  0.1298
  104MOL0     C13931   4.808  12.142  11.719 -0.1701  0.5314  0.6075
  104MOL0     C13932   4.839  12.209  11.839 -0.4717  0.5599  0.1669
  104MOL0     C13933   4.733  12.204  11.947 -0.1674  0.3316 -0.6636
  104MOL0     C13934   4.961  12.280  11.842  0.5110 -0.8047  0.3055
  104MOL0     C13935   5.000  12.365  11.959 -0.7672  0.2659  0.3663
  104MOL0     O13936   5.121  12.430  11.957 -0.0231  1.1079  0.2647
  104MOL0     C13937   5.140  12.555  12.007  0.4396  0.2457 -0.6754
  104MOL0     C13938   5.267  12.603  12.008 -0.5436  0.5380 -0.7175
  104MOL0     C13939   5.297  12.739  12.029  0.4295  1.0085 -0.0223
  104MOL0     C13940   5.197  12.829  12.049  0.3842 -0.6106  0.5220
  104MOL0     O13941   5.234  12.965  12.065 -0.6119  1.3031 -0.1219
  104MOL0     C13942   5.164  13.021  12.174 -0.8011 -0.0033 -0.1499
  104MOL0     C13943   5.233  13.148  12.206 -0.0178 -0.2519 -0.3700
  104MOL0     C13944   5.208  13.197  12.345 -0.0224 -0.7309  0.8666
  104MOL0     C13945   5.198  13.354  12.354 -0.5236 -0.0293 -0.1623
  104MOL0     C13946   5.160  13.376  12.501 -1.4272 -0.7077  0.5547
  104MOL0     C13947   5.016  13.401  12.507  0.0117 -0.0560 -0.9457
  104MOL0     C13948   4.961  13.416  12.652 -0.2447  0.4975  0.9565
  104MOL0     C13949   4.913  13.279  12.705  0.2699 -0.3257 -0.2181
  104MOL0    Cl13950   4.782  13.323  12.816  0.1800 -0.1227  0.4837
  104MOL0     C13951   5.066  12.790  12.052  0.0568  0.3844 -0.1171
  104MOL0     C13952   5.034  12.651  12.033 -0.0613 -0.2243 -0.1290
  104MOL0     O13953   4.932  12.360  12.060 -0.3933  0.0182  0.1835
  104MOL0     C13954   5.049  12.269  11.732 -0.3561 -0.0318  0.3725
  104MOL0     C13955   5.020  12.198  11.625  0.5983 -0.0113 -0.2268
  104MOL0     N13956   4.445  11.768  11.129 -0.2672 -0.0120 -0.7949
  104MOL0     N13957   4.441  11.642  11.121  0.1192 -0.0177  0.4103
  104MOL0     C13958   4.616  10.855  10.752 -0.6384  0.0683  0.2003
  104MOL0     C13959   4.549  10.752  10.680 -0.9315 -0.4061 -0.9944
  104MOL0     C13960   4.426  10.347  10.544  0.3001 -0.2320 -0.9681
  104MOL0     C13961   4.510  10.290  10.443  0.2348  0.6144 -1.0436
  104MOL0     C13962   4.492  10.157  10.393  0.2979 -1.7683 -0.3121
  104MOL0     C13963   4.395  10.071  10.446 -0.1322  0.3016  0.4701
  104MOL0     O13964   4.371   9.939  10.412 -0.1764 -0.1279 -0.3275
  104MOL0     C13965   4.453   9.885  10.310  0.4962  0.4633 -0.8828
  104MOL0     C13966   4.431   9.729  10.294 -0.0466 -0.6983 -0.5474
  104MOL0     C13967   4.308   9.692  10.214  0.9092 -0.7302  0.6204
  104MOL0     C13968   4.275   9.542  10.227 -0.0217  0.7665 -0.9599
  104MOL0     C13969   4.379   9.455  10.171 -0.4050  0.3640  0.1204
  104MOL0     C13970   4.455   9.376  10.128 -0.2058  0.3720 -0.5567
  104MOL0     C13971   4.317  10.121  10.549 -0.1437 -1.0509 -0.1987
  104MOL0     C13972   4.322  10.261  10.593 -0.7200 -0.4659  0.3364
  104MOL0     H13973   4.801  10.524  10.673  0.5935 -0.6979  2.1999
  104MOL0     H13974   4.919  10.708  10.775  0.5292  0.2952  0.0276
  104MOL0     H13975   4.891  10.791  10.989 -4.8173  1.0099  2.1559
  104MOL0     H13976   4.993  10.920  10.909  0.4576 -1.0550  0.6782
  104MOL0     H13977   4.796  10.928  11.129  0.6050  0.6514  2.2471
  104MOL0     H13978   4.968  10.902  11.148 -2.4639 -5.5302 -2.2241
  104MOL0     H13979   5.026  11.144  11.059 -0.1876 -1.0885 -4.9517
  104MOL0     H13980   4.871  11.150  10.988 -3.8470 -0.5405  1.1939
  104MOL0     H13981   4.772  11.170  11.229  1.5189 -0.2991  1.6807
  104MOL0     H13982   4.930  11.137  11.296  0.4826  0.6672  0.9916
  104MOL0     H13983   4.874  11.370  11.315 -1.5850 -2.8285  0.0411
  104MOL0     H13984   5.004  11.381  11.215 -0.2696  3.2192  1.3719
  104MOL0     H13985   4.852  11.536  11.144  3.0272 -0.9430  1.3592
  104MOL0     H13986   4.884  11.409  11.023  0.2074  2.1655 -0.6067
  104MOL0     H13987   4.652  11.475  11.004 -1.8413  1.8051  1.8435
  104MOL0     H13988   4.676  11.307  11.069  1.8742 -0.4731 -1.1903
  104MOL0     H13989   4.616  11.415  11.291  0.2708  0.8702 -0.6938
  104MOL0     H13990   4.488  11.381  11.167  0.0681 -1.1411  0.2815
  104MOL0     H13991   4.696  11.682  11.316 -0.2508  0.2843  0.1908
  104MOL0     H13992   4.508  12.014  11.181  0.6259  3.2625  1.6496
  104MOL0     H13993   4.456  11.959  11.333 -0.5881 -1.2846 -0.3754
  104MOL0     H13994   4.759  11.985  11.250  0.7667  2.6358  1.8555
  104MOL0     H13995   4.690  11.933  11.409 -0.7853 -4.3463 -3.3421
  104MOL0     H13996   4.603  12.156  11.446  0.0941 -0.7156  0.3688
  104MOL0     H13997   4.641  12.203  11.280  1.5012 -2.5534 -1.8982
  104MOL0     H13998   4.807  12.293  11.454  2.5550 -0.3089  1.7955
  104MOL0     H13999   4.881  12.214  11.320  0.5400  1.9544  0.5515
  104MOL0     H14000   4.716  12.085  11.704  0.0353  0.2614  0.3556
  104MOL0     H14001   4.644  12.156  11.906 -2.1269  2.2427  1.1124
  104MOL0     H14002   4.766  12.144  12.033 -1.8068 -0.4417 -0.5420
  104MOL0     H14003   4.707  12.305  11.979  0.7175  0.5114 -0.4766
  104MOL0     H14004   5.346  12.530  11.993 -1.7203 -0.5382 -1.8212
  104MOL0     H14005   5.393  12.790  12.039  2.0101 -1.9893  1.6074
  104MOL0     H14006   5.058  13.050  12.173  0.0573  3.9518  2.1495
  104MOL0     H14007   5.171  12.960  12.265 -1.1595  0.4176  0.1629
  104MOL0     H14008   5.341  13.139  12.190 -0.3102 -0.4915 -2.5386
  104MOL0     H14009   5.205  13.229  12.138 -2.6402 -0.6802  0.0745
  104MOL0     H14010   5.289  13.155  12.404  1.0771  1.0544  0.7042
  104MOL0     H14011   5.107  13.170  12.379 -0.1632 -2.9055 -1.0364
  104MOL0     H14012   5.297  13.389  12.326  0.0206 -0.7500  0.8075
  104MOL0     H14013   5.127  13.405  12.288 -0.0568  0.8109 -0.0234
  104MOL0     H14014   5.215  13.464  12.533 -3.0226 -0.1177  1.7521
  104MOL0     H14015   5.198  13.298  12.567  1.5659 -0.3385 -0.5906
  104MOL0     H14016   4.993  13.488  12.445  1.6366 -0.0824 -1.6261
  104MOL0     H14017   4.956  13.324  12.458 -0.5373  1.2714 -2.4395
  104MOL0     H14018   4.880  13.490  12.651 -1.0003 -0.2090 -2.4338
  104MOL0     H14019   5.046  13.451  12.711  1.2185 -1.0734 -0.1375
  104MOL0     H14020   4.999  13.256  12.768 -1.2022 -3.8992  0.7941
  104MOL0     H14021   4.890  13.205  12.627 -2.1696  0.0353  0.0654
  104MOL0     H14022   4.990  12.865  12.074  2.0949  3.1923 -2.0153
  104MOL0     H14023   4.928  12.628  12.031 -0.0307 -0.3261 -2.0420
  104MOL0     H14024   5.145  12.315  11.753 -0.4672  0.9227 -1.0346
  104MOL0     H14025   5.094  12.188  11.546 -0.9015 -1.6621 -1.5202
  104MOL0     H14026   4.567  10.941  10.796 -0.1008  0.3905  0.1802
  104MOL0     H14027   4.444  10.746  10.655 -1.7962  2.6996  1.2034
  104MOL0     H14028   4.587  10.356  10.403 -0.1639  1.2517 -0.7740
  104MOL0     H14029   4.546  10.119  10.308 -1.2836  0.3467 -2.3875
  104MOL0     H14030   4.428   9.936  10.216  1.9387 -0.7165 -1.9614
  104MOL0     H14031   4.560   9.903  10.322  0.1610  1.1753  1.6624
  104MOL0     H14032   4.426   9.699  10.399  0.1854  1.3592  0.0808
  104MOL0     H14033   4.515   9.686  10.239  0.4148  2.1172 -2.2361
  104MOL0     H14034   4.330   9.704  10.107  4.3272 -4.9982  0.5260
  104MOL0     H14035   4.231   9.761  10.248  0.2564 -0.8193 -0.6223
  104MOL0     H14036   4.176   9.534  10.181 -0.5237  1.6501 -0.0965
  104MOL0     H14037   4.252   9.514  10.330 -1.8012 -0.4216 -1.6313
  104MOL0     H14038   4.525   9.321  10.068  2.9297  0.6778  2.4978
  104MOL0     H14039   4.260  10.047  10.604  1.4501 -1.8630  0.4244
  104MOL0     H14040   4.255  10.294  10.672 -1.3490  2.4663 -1.2620
  105MOL0     O14041   8.142   1.080   8.877  0.3091 -0.0804 -0.3960
  105MOL0     C14042   8.198   1.137   8.783  0.7056  0.9319  0.2027
  105MOL0     O14043   8.312   1.101   8.725  0.0121  0.1722 -0.3788
  105MOL0     C14044   8.356   0.975   8.755 -0.9721 -0.1722 -0.2010
  105MOL0     C14045   8.329   0.857   8.686 -0.2148  0.0424 -0.4393
  105MOL0     C14046   8.378   0.734   8.732  0.5052 -1.0225 -0.0904
  105MOL0     C14047   8.445   0.726   8.854 -0.8041  0.6158 -0.6907
  105MOL0     O14048   8.478   0.605   8.916 -0.4357  0.0820  0.1695
  105MOL0     C14049   8.404   0.486   8.888  1.0481 -0.6109 -0.1388
  105MOL0     C14050   8.400   0.394   9.010 -0.6808  0.3818 -0.0418
  105MOL0     C14051   8.299   0.284   8.994 -1.3523 -0.6066 -0.2840
  105MOL0     C14052   8.358   0.142   9.015 -0.4516  0.0036  0.1507
  105MOL0     C14053   8.234   0.057   9.011  0.2919 -0.7485  0.5155
  105MOL0     C14054   8.264  -0.092   9.013 -0.8282 -0.1377  0.0492
  105MOL0     C14055   8.158  -0.174   9.096 -0.1296  0.5249  0.2057
  105MOL0     C14056   8.170  -0.174   9.250 -0.0792 -0.2188 -0.3080
  105MOL0     N14057   8.111  -0.291   9.308  0.2469  0.2674  1.0025
  105MOL0     C14058   7.980  -0.337   9.284  0.9856  0.2673  0.6161
  105MOL0     C14059   7.967  -0.453   9.345  1.0315 -0.3820 -0.8848
  105MOL0     C14060   7.829  -0.532   9.360  0.0856  0.0511 -0.5125
  105MOL0     C14061   7.782  -0.509   9.502  1.0693 -0.5902  0.2560
  105MOL0     C14062   7.673  -0.598   9.543  0.5695  0.1390  0.7045
  105MOL0     C14063   7.652  -0.569   9.695  0.4073 -0.2499  0.1825
  105MOL0     O14064   7.749  -0.616   9.793  0.1026 -0.2662  0.6627
  105MOL0     C14065   7.721  -0.590   9.921  0.0949  0.0679 -0.5340
  105MOL0     C14066   7.604  -0.522   9.972  0.5314  1.4771  0.6690
  105MOL0     C14067   7.592  -0.493  10.106 -0.1468 -0.2490 -0.5984
  105MOL0     C14068   7.463  -0.419  10.141 -1.1943 -0.3852 -0.1390
  105MOL0     C14069   7.699  -0.502  10.198 -0.2886  0.5680  1.4305
  105MOL0     C14070   7.690  -0.494  10.350 -1.1826  0.1597  0.1228
  105MOL0     O14071   7.578  -0.538  10.419 -0.6155 -0.8585 -0.2067
  105MOL0     C14072   7.570  -0.539  10.557  0.5522  0.0623  0.6212
  105MOL0     C14073   7.640  -0.631  10.630  0.1014 -0.0730  0.5395
  105MOL0     C14074   7.602  -0.665  10.760  0.2086 -0.3727 -0.2100
  105MOL0     C14075   7.510  -0.581  10.824 -0.5572  0.4759  0.5315
  105MOL0     O14076   7.468  -0.605  10.954 -0.0405  0.1849  0.4426
  105MOL0     C14077   7.574  -0.560  11.043 -0.5137  0.0718  0.1250
  105MOL0     C14078   7.581  -0.407  11.059 -0.1306 -0.6084  0.0829
  105MOL0     C14079   7.465  -0.349  11.147 -0.2047 -0.0326  0.3661
  105MOL0     C14080   7.471  -0.381  11.299  0.8081  0.7083 -0.2714
  105MOL0     C14081   7.337  -0.385  11.374  0.1387 -0.0672  0.3135
  105MOL0     C14082   7.252  -0.258  11.368  0.8925  0.4177 -0.3846
  105MOL0     C14083   7.135  -0.281  11.462  0.5418 -0.3578  0.1123
  105MOL0     C14084   7.051  -0.156  11.475 -1.0010 -0.0263 -1.2520
  105MOL0    Cl14085   6.971  -0.133  11.322 -0.1202  0.4095  0.2655
  105MOL0     C14086   7.455  -0.469  10.758  0.3017  0.1661  0.4479
  105MOL0     C14087   7.477  -0.452  10.620 -1.1518 -0.1594 -0.5226
  105MOL0     O14088   7.786  -0.434  10.402  0.6961  0.3069 -0.0558
  105MOL0     C14089   7.808  -0.578  10.144 -0.6860  0.7357 -0.9385
  105MOL0     C14090   7.825  -0.615  10.011  0.5756 -0.0845  0.0720
  105MOL0     N14091   8.089  -0.482   9.402 -0.6134 -0.2016  0.1144
  105MOL0     N14092   8.176  -0.390   9.372  0.1235 -0.2522  0.2014
  105MOL0     C14093   8.481   0.842   8.926  0.8640  0.1085  0.3081
  105MOL0     C14094   8.442   0.968   8.873 -0.5258  0.1229 -0.4737
  105MOL0     C14095   8.139   1.266   8.728 -0.8061 -0.2406  0.8496
  105MOL0     C14096   8.024   1.314   8.780 -0.4782 -0.0773 -0.7809
  105MOL0     C14097   7.972   1.435   8.735  0.9750  0.4416  0.1410
  105MOL0     C14098   8.034   1.511   8.634  0.3123  0.4604  0.0663
  105MOL0     O14099   7.979   1.627   8.578 -0.4319  0.1251 -0.3139
  105MOL0     C14100   7.962   1.724   8.691  0.0574  0.0994  0.2639
  105MOL0     C14101   8.089   1.813   8.710 -0.5620  0.7819 -0.2353
  105MOL0     C14102   8.130   1.885   8.582  0.2068 -0.2245 -0.0540
  105MOL0     C14103   8.247   1.981   8.606  0.6789  0.1751  0.7624
  105MOL0     C14104   8.289   2.044   8.483 -0.7136  0.1181  0.7402
  105MOL0     C14105   8.337   2.079   8.373  0.4047  0.4622  1.1575
  105MOL0     C14106   8.140   1.445   8.567  0.2325  0.3903  0.9345
  105MOL0     C14107   8.197   1.322   8.617  0.3059 -1.0264  0.0370
  105MOL0     H14108   8.261   0.855   8.601 -2.2736 -3.6176  1.0246
  105MOL0     H14109   8.357   0.649   8.667  1.0679 -0.3899 -1.1222
  105MOL0     H14110   8.300   0.520   8.874  0.5396 -1.4317  1.4048
  105MOL0     H14111   8.445   0.452   8.793  2.8956  2.0451 -0.3779
  105MOL0     H14112   8.496   0.345   9.028 -1.3399 -2.1391 -2.5545
  105MOL0     H14113   8.364   0.460   9.090  1.0791  1.0258  0.2612
  105MOL0     H14114   8.207   0.304   9.049 -2.1452 -1.6674 -1.1689
  105MOL0     H14115   8.271   0.291   8.888 -0.5029  2.3520 -0.3969
  105MOL0     H14116   8.426   0.113   8.935  2.8417  1.5797  2.1768
  105MOL0     H14117   8.407   0.140   9.113 -0.1210  0.5997 -0.0011
  105MOL0     H14118   8.179   0.096   9.097 -0.0519  0.2871 -0.1595
  105MOL0     H14119   8.165   0.070   8.927  3.1603  1.0669 -1.7472
  105MOL0     H14120   8.236  -0.127   8.913 -3.4736  1.9519 -0.0640
  105MOL0     H14121   8.367  -0.118   9.039 -1.0402  2.6246  4.7910
  105MOL0     H14122   8.063  -0.121   9.085  0.3016  1.7343  1.8424
  105MOL0     H14123   8.142  -0.272   9.051 -5.4174  1.3085 -0.2274
  105MOL0     H14124   8.124  -0.080   9.280  2.4160  1.7115 -2.0077
  105MOL0     H14125   8.277  -0.177   9.273 -0.5600  0.0121  2.2093
  105MOL0     H14126   7.910  -0.298   9.210  1.3985 -1.3210 -0.6868
  105MOL0     H14127   7.746  -0.513   9.291 -3.5229 -1.2462  3.1031
  105MOL0     H14128   7.851  -0.639   9.349  1.0377  0.2909 -1.0455
  105MOL0     H14129   7.758  -0.403   9.519  1.6999 -0.7430  2.4158
  105MOL0     H14130   7.861  -0.525   9.576  0.9782  0.7552  0.6799
  105MOL0     H14131   7.706  -0.701   9.531  1.1796  0.5061 -1.1553
  105MOL0     H14132   7.583  -0.582   9.483  0.7549  0.6665  0.5605
  105MOL0     H14133   7.560  -0.619   9.727  0.0479  1.5539  2.2748
  105MOL0     H14134   7.614  -0.466   9.702 -2.1207 -1.1765  1.3939
  105MOL0     H14135   7.519  -0.503   9.907  1.1877 -1.0252 -1.0686
  105MOL0     H14136   7.433  -0.419  10.246 -2.3584 -0.3783 -0.4537
  105MOL0     H14137   7.473  -0.315  10.108  3.5419 -0.0955  1.3989
  105MOL0     H14138   7.379  -0.463  10.087 -2.0098 -0.0062  0.7915
  105MOL0     H14139   7.702  -0.697  10.570  0.8637  2.8023 -2.0626
  105MOL0     H14140   7.633  -0.753  10.816  0.0161 -0.2509  0.0928
  105MOL0     H14141   7.545  -0.595  11.143 -1.0418  2.9921  1.1013
  105MOL0     H14142   7.667  -0.614  11.021 -1.2174  0.1445 -3.7502
  105MOL0     H14143   7.670  -0.373  11.113 -1.2199  0.4070  1.3249
  105MOL0     H14144   7.571  -0.362  10.960 -1.2571 -0.4880  0.2366
  105MOL0     H14145   7.375  -0.390  11.101  0.4670  0.3854 -1.4002
  105MOL0     H14146   7.461  -0.241  11.133 -3.8216  0.2817  2.4666
  105MOL0     H14147   7.511  -0.483  11.309 -0.3664  0.0561 -1.8227
  105MOL0     H14148   7.531  -0.306  11.351  4.7001 -2.3506  0.1588
  105MOL0     H14149   7.351  -0.407  11.480  3.1633  0.4958  0.1078
  105MOL0     H14150   7.276  -0.472  11.347  2.2474 -2.2223  2.0634
  105MOL0     H14151   7.308  -0.171  11.402  0.6982 -0.3989  2.2127
  105MOL0     H14152   7.200  -0.243  11.273  0.9850  1.1882 -0.3178
  105MOL0     H14153   7.170  -0.318  11.559  2.6966 -0.6343 -0.7188
  105MOL0     H14154   7.073  -0.364  11.424 -0.5891 -0.2246  1.5765
  105MOL0     H14155   7.109  -0.066  11.499 -1.4969 -0.5232  2.4137
  105MOL0     H14156   6.970  -0.180  11.545  0.6173 -3.2828 -0.3131
  105MOL0     H14157   7.381  -0.407  10.808  0.2203 -2.1301  3.4101
  105MOL0     H14158   7.433  -0.369  10.566  0.3325  0.6162 -0.5858
  105MOL0     H14159   7.887  -0.586  10.218 -1.1522 -2.2138 -0.6332
  105MOL0     H14160   7.915  -0.662   9.972  0.9501 -2.2487  3.1998
  105MOL0     H14161   8.533   0.828   9.021 -3.4505 -3.0507  2.5041
  105MOL0     H14162   8.484   1.053   8.927  2.0417 -2.1037  1.2719
  105MOL0     H14163   7.978   1.261   8.862 -0.7555  1.1394 -0.1215
  105MOL0     H14164   7.881   1.477   8.776 -0.0405 -0.7253 -0.8839
  105MOL0     H14165   7.877   1.790   8.671 -1.7702 -2.1757  0.0625
  105MOL0     H14166   7.928   1.674   8.782 -0.8477  0.5755  0.1993
  105MOL0     H14167   8.172   1.751   8.745 -1.0229  0.0347 -0.4467
  105MOL0     H14168   8.065   1.880   8.794  2.8299 -0.7048  2.1698
  105MOL0     H14169   8.043   1.937   8.540  1.2266  0.0692 -1.9073
  105MOL0     H14170   8.169   1.815   8.509  1.3045  1.5352 -1.2195
  105MOL0     H14171   8.332   1.919   8.636  0.9774 -0.3128 -0.9798
  105MOL0     H14172   8.227   2.048   8.691  0.0971 -1.2592  1.7965
  105MOL0     H14173   8.378   2.123   8.285 -0.6842  1.4925  1.1238
  105MOL0     H14174   8.186   1.475   8.473  2.4860 -2.5966  0.9229
  105MOL0     H14175   8.285   1.276   8.574  2.0752 -1.4382  3.6679
  106MOL0     O14176   4.269   1.284   3.252  0.3341 -0.4880  0.0080
  106MOL0     C14177   4.382   1.310   3.291 -0.5729  0.6539 -0.4056
  106MOL0     O14178   4.495   1.240   3.257 -0.7395  0.0083 -0.5709
  106MOL0     C14179   4.498   1.144   3.165  0.2765 -0.3160 -0.1370
  106MOL0     C14180   4.630   1.125   3.111 -0.4185 -0.0925 -0.6532
  106MOL0     C14181   4.665   1.012   3.039 -0.3627 -0.1667 -0.9112
  106MOL0     C14182   4.572   0.910   3.023  0.0474  0.5481  0.1101
  106MOL0     O14183   4.621   0.803   2.954 -0.1626 -0.1397  0.3912
  106MOL0     C14184   4.532   0.718   2.896  0.0523 -0.1716 -0.3483
  106MOL0     C14185   4.593   0.626   2.788 -0.3993 -0.2717 -0.2967
  106MOL0     C14186   4.621   0.712   2.663  0.5447  0.0579 -0.2017
  106MOL0     C14187   4.698   0.625   2.559  1.2246 -0.1402  0.3854
  106MOL0     C14188   4.727   0.696   2.435 -0.1665  0.6783  0.4942
  106MOL0     C14189   4.822   0.819   2.450 -0.1900  0.7827 -0.1652
  106MOL0     C14190   4.842   0.893   2.315  0.6531  0.5605 -1.4766
  106MOL0     C14191   4.927   1.019   2.352 -0.4111 -0.8795  0.4915
  106MOL0     N14192   4.965   1.068   2.221  1.1248  0.3088 -0.2880
  106MOL0     C14193   4.931   1.194   2.168 -0.8066  0.6656  0.1034
  106MOL0     C14194   5.022   1.208   2.070 -0.2623 -0.3570  0.4422
  106MOL0     C14195   5.024   1.311   1.957  0.3808  0.2176 -1.1275
  106MOL0     C14196   5.164   1.361   1.917  0.6642  0.4756 -0.5036
  106MOL0     C14197   5.248   1.410   2.036 -0.0898 -0.3138  0.4987
  106MOL0     C14198   5.182   1.531   2.123 -0.7895 -0.3428  0.6941
  106MOL0     O14199   5.282   1.619   2.168  0.4084  0.0284 -0.1743
  106MOL0     C14200   5.246   1.725   2.240  0.0977 -0.3914  0.3109
  106MOL0     C14201   5.356   1.809   2.274  0.4108  0.0394 -1.0765
  106MOL0     C14202   5.343   1.938   2.344  0.3760 -0.1231  0.3653
  106MOL0     C14203   5.472   2.016   2.362 -0.3572  1.2593 -0.4273
  106MOL0     C14204   5.208   1.972   2.385 -0.9953 -0.0962 -1.7734
  106MOL0     C14205   5.180   2.082   2.475 -0.3129 -1.1058  0.0134
  106MOL0     O14206   5.056   2.139   2.443  0.2023  0.1043 -0.3553
  106MOL0     C14207   5.044   2.277   2.450  0.7388 -0.1088 -0.5958
  106MOL0     C14208   4.926   2.331   2.518 -1.0317  0.3870 -0.2648
  106MOL0     C14209   4.916   2.471   2.557 -0.2833  0.2174  0.6292
  106MOL0     C14210   5.018   2.556   2.520 -0.5889  0.2359  0.0850
  106MOL0     O14211   5.010   2.687   2.544  0.1024  0.0492  0.4727
  106MOL0     C14212   5.003   2.715   2.692 -0.5699  1.0108  0.3813
  106MOL0     C14213   4.970   2.857   2.717  0.1409 -0.8016 -0.0060
  106MOL0     C14214   5.064   2.960   2.653 -0.0822  0.6418  0.2607
  106MOL0     C14215   5.210   2.922   2.674  0.3212  0.5441  0.9203
  106MOL0     C14216   5.324   3.015   2.637 -0.3048  0.1044 -0.5942
  106MOL0     C14217   5.344   3.141   2.719 -0.0348  0.2081  0.5989
  106MOL0     C14218   5.368   3.111   2.875 -0.1716  0.4821 -1.4276
  106MOL0     C14219   5.428   3.232   2.941  0.2346 -0.7570  0.4813
  106MOL0    Cl14220   5.318   3.375   2.921 -0.1899  0.2278 -0.5586
  106MOL0     C14221   5.138   2.503   2.456 -0.9727  0.0351 -0.6685
  106MOL0     C14222   5.146   2.369   2.423 -0.4024  0.3245  0.4832
  106MOL0     O14223   5.268   2.130   2.552 -0.1953 -0.4583  0.4367
  106MOL0     C14224   5.099   1.889   2.343 -0.1458  1.5338  0.5664
  106MOL0     C14225   5.122   1.765   2.272  0.9546 -0.6563 -0.4903
  106MOL0     N14226   5.117   1.103   2.069  0.4562 -0.6523 -0.6916
  106MOL0     N14227   5.074   1.015   2.156  0.6752  0.2989 -0.5109
  106MOL0     C14228   4.449   0.925   3.072  0.7632 -0.9478 -0.1475
  106MOL0     C14229   4.404   1.042   3.151 -0.4364 -1.3653  1.0768
  106MOL0     C14230   4.390   1.418   3.388  0.1442 -0.1514  0.3374
  106MOL0     C14231   4.506   1.503   3.379 -0.3947  0.0358  0.8087
  106MOL0     C14232   4.510   1.617   3.460 -0.5563 -0.0339  0.2468
  106MOL0     C14233   4.396   1.650   3.539  0.0952  0.0442  0.3748
  106MOL0     O14234   4.388   1.753   3.634  0.5289 -1.0366 -0.2458
  106MOL0     C14235   4.452   1.881   3.599 -0.4795 -0.3046  0.3962
  106MOL0     C14236   4.597   1.894   3.658 -0.0349  0.1407 -0.0605
  106MOL0     C14237   4.624   2.055   3.687 -0.8973 -0.3374  0.7258
  106MOL0     C14238   4.550   2.108   3.814 -0.5320 -0.3850 -0.0176
  106MOL0     C14239   4.539   2.258   3.804  0.6046  0.5239 -0.5772
  106MOL0     C14240   4.535   2.374   3.778  0.3504 -0.5774 -0.2146
  106MOL0     C14241   4.285   1.566   3.543 -0.4760  1.3056 -0.1879
  106MOL0     C14242   4.284   1.443   3.473  0.0905 -0.0349 -0.1382
  106MOL0     H14243   4.695   1.210   3.129 -0.5911  0.2372 -1.5590
  106MOL0     H14244   4.766   1.014   3.001  0.7909  2.3096  1.9383
  106MOL0     H14245   4.483   0.660   2.975 -1.9894  3.1518  1.0559
  106MOL0     H14246   4.451   0.771   2.844 -0.5753 -1.0324 -0.2747
  106MOL0     H14247   4.680   0.571   2.825 -1.6927 -0.8451  2.0841
  106MOL0     H14248   4.525   0.544   2.762 -0.7873  0.6301 -2.3123
  106MOL0     H14249   4.517   0.727   2.632  0.9052  0.3375 -1.3418
  106MOL0     H14250   4.669   0.808   2.685 -1.9106  1.2318  0.3677
  106MOL0     H14251   4.786   0.585   2.611  1.2704  3.1450  3.1845
  106MOL0     H14252   4.632   0.545   2.524  0.9492  1.5881 -3.5917
  106MOL0     H14253   4.780   0.618   2.381 -1.1038 -0.7332  1.5582
  106MOL0     H14254   4.637   0.724   2.379 -1.2653 -3.8457 -0.3435
  106MOL0     H14255   4.784   0.886   2.528 -1.8167 -0.0611 -0.1843
  106MOL0     H14256   4.913   0.776   2.492 -1.1659 -1.6254 -0.3715
  106MOL0     H14257   4.874   0.827   2.234  1.2448  0.3297 -1.0659
  106MOL0     H14258   4.746   0.934   2.283  1.4114 -0.1148 -5.0205
  106MOL0     H14259   5.011   0.998   2.419  1.0208 -2.9924 -1.7991
  106MOL0     H14260   4.853   1.092   2.386 -2.1730 -1.1980 -2.3407
  106MOL0     H14261   4.847   1.259   2.193 -0.9967  0.0224  1.2101
  106MOL0     H14262   4.974   1.271   1.868 -2.7930  0.3217  0.4789
  106MOL0     H14263   4.957   1.388   1.995 -2.3255 -3.1013  1.5142
  106MOL0     H14264   5.144   1.435   1.839  0.3558  0.6072 -0.3030
  106MOL0     H14265   5.230   1.288   1.870  1.5157  0.7742  0.2166
  106MOL0     H14266   5.345   1.441   1.997  0.9757 -1.6337  1.9763
  106MOL0     H14267   5.260   1.322   2.099 -2.1732 -0.3124  0.9909
  106MOL0     H14268   5.136   1.489   2.213  1.8747 -2.2445  1.2805
  106MOL0     H14269   5.117   1.597   2.064  3.9540  1.6993 -2.9817
  106MOL0     H14270   5.447   1.767   2.233  0.6099 -0.4024 -0.2158
  106MOL0     H14271   5.534   1.952   2.426 -0.4241  3.2475  1.7637
  106MOL0     H14272   5.525   2.016   2.266  2.4965  1.3680  1.0471
  106MOL0     H14273   5.464   2.123   2.384  2.1671  0.9399  2.6778
  106MOL0     H14274   4.849   2.258   2.541  0.2541 -0.0872  3.2984
  106MOL0     H14275   4.824   2.521   2.583  0.1237  2.0684 -1.1914
  106MOL0     H14276   4.920   2.658   2.733  2.1261 -1.8404  2.3063
  106MOL0     H14277   5.095   2.680   2.740 -1.1138 -1.1936 -0.1011
  106MOL0     H14278   4.877   2.886   2.668  1.0364  1.3291 -0.5796
  106MOL0     H14279   4.966   2.887   2.822 -1.8010  1.6985 -0.6943
  106MOL0     H14280   5.032   3.058   2.688  1.2119  0.6172  1.6046
  106MOL0     H14281   5.055   2.959   2.544 -1.6762  1.3976  0.3546
  106MOL0     H14282   5.233   2.896   2.778  2.1477 -1.0567  0.1752
  106MOL0     H14283   5.225   2.825   2.625  0.8561 -0.7421  3.4633
  106MOL0     H14284   5.306   3.046   2.533 -6.7749 -0.5771 -0.0734
  106MOL0     H14285   5.420   2.964   2.644 -1.0052 -1.3648 -1.1346
  106MOL0     H14286   5.429   3.200   2.683  1.2214 -1.8714 -0.0200
  106MOL0     H14287   5.252   3.200   2.706  0.0212  0.6039  1.9052
  106MOL0     H14288   5.431   3.024   2.895  2.0615  1.5995 -3.0236
  106MOL0     H14289   5.279   3.082   2.931  0.7082 -1.9712 -1.1777
  106MOL0     H14290   5.524   3.248   2.891 -0.2431  2.4480  0.4022
  106MOL0     H14291   5.445   3.198   3.044 -2.0262 -2.1982  0.4565
  106MOL0     H14292   5.232   2.553   2.434 -0.3485 -1.1954 -0.9199
  106MOL0     H14293   5.239   2.333   2.379  0.2576 -0.1408  2.1598
  106MOL0     H14294   4.997   1.896   2.380 -0.5312  0.8472 -0.3048
  106MOL0     H14295   5.033   1.703   2.261 -0.8812  1.0846  2.8634
  106MOL0     H14296   4.372   0.849   3.062 -2.3393  2.1933 -2.4301
  106MOL0     H14297   4.305   1.050   3.196  0.0804  1.2073  1.9281
  106MOL0     H14298   4.582   1.480   3.305 -1.1881  1.6978 -0.5992
  106MOL0     H14299   4.606   1.668   3.466 -0.3563 -0.5313  1.9390
  106MOL0     H14300   4.447   1.894   3.491 -0.2082 -3.5027 -0.0816
  106MOL0     H14301   4.382   1.941   3.658 -1.5674 -2.6963  1.6811
  106MOL0     H14302   4.674   1.852   3.592  0.2073  1.0564 -0.3831
  106MOL0     H14303   4.603   1.840   3.753 -1.1196 -1.3361 -0.7891
  106MOL0     H14304   4.586   2.101   3.595 -2.4171 -1.8446  0.5456
  106MOL0     H14305   4.731   2.075   3.696 -0.4399 -2.1929 -0.1491
  106MOL0     H14306   4.613   2.082   3.899 -2.6943 -0.7264  1.5524
  106MOL0     H14307   4.455   2.055   3.827 -1.8649  0.6426 -4.0695
  106MOL0     H14308   4.526   2.476   3.746 -1.3582  0.0667  2.0556
  106MOL0     H14309   4.203   1.590   3.610 -0.8489  1.0372 -0.5458
  106MOL0     H14310   4.196   1.379   3.471 -1.3916  1.7045  2.7002
  107MOL0     O14311   1.595   4.126   6.548 -0.2245  0.0257  0.1065
  107MOL0     C14312   1.583   4.197   6.646  0.4626  0.6261 -0.4038
  107MOL0     O14313   1.667   4.187   6.764 -0.6799 -0.2286  0.2728
  107MOL0     C14314   1.734   4.073   6.784 -1.0578 -0.3280  0.0033
  107MOL0     C14315   1.856   4.088   6.839 -0.8350  0.1269 -0.0017
  107MOL0     C14316   1.925   3.971   6.879  0.1487  0.0801  0.2042
  107MOL0     C14317   1.856   3.850   6.876 -0.5179 -0.3338  0.1659
  107MOL0     O14318   1.914   3.739   6.925 -0.3158 -0.0974 -0.1126
  107MOL0     C14319   1.840   3.692   7.042 -0.1743  0.4034 -0.2809
  107MOL0     C14320   1.924   3.579   7.117  0.9811  0.5255  0.7186
  107MOL0     C14321   2.048   3.640   7.187 -0.4338  1.1545 -0.1084
  107MOL0     C14322   2.141   3.539   7.262 -0.6130  0.4163  0.3752
  107MOL0     C14323   2.268   3.605   7.323  0.1516  0.6820  0.7835
  107MOL0     C14324   2.237   3.694   7.444  0.0253  0.3285  0.0216
  107MOL0     C14325   2.202   3.607   7.569 -1.2034  0.4159  0.2773
  107MOL0     C14326   2.185   3.693   7.680  0.8888  0.7287 -0.4677
  107MOL0     N14327   2.062   3.764   7.673 -0.7252 -0.6816 -0.0000
  107MOL0     C14328   2.055   3.900   7.644  0.3989  1.2473 -1.0516
  107MOL0     C14329   1.922   3.926   7.646  0.0148  0.0715  0.0122
  107MOL0     C14330   1.843   4.043   7.588  0.2859  0.3513  0.7625
  107MOL0     C14331   1.784   4.001   7.456 -0.6443 -0.0620 -1.0170
  107MOL0     C14332   1.873   4.012   7.334  0.2313  0.5771 -0.9707
  107MOL0     C14333   1.885   4.146   7.293 -0.1743 -0.2182  0.7276
  107MOL0     O14334   1.993   4.222   7.351 -1.0858  0.4264 -0.3418
  107MOL0     C14335   2.122   4.172   7.344  0.7959 -0.1172  0.4221
  107MOL0     C14336   2.209   4.217   7.445 -0.5700 -0.2921 -0.4588
  107MOL0     C14337   2.349   4.176   7.436  0.5080  0.3701 -0.5817
  107MOL0     C14338   2.431   4.233   7.548  0.5512  0.1243  1.3870
  107MOL0     C14339   2.398   4.091   7.338 -0.2768  0.4704 -0.2607
  107MOL0     C14340   2.536   4.037   7.330  0.6304 -0.0618 -0.4482
  107MOL0     O14341   2.552   3.902   7.295 -0.0206 -0.0606  0.2583
  107MOL0     C14342   2.678   3.862   7.269 -0.1672  0.6297  0.1514
  107MOL0     C14343   2.703   3.803   7.134  1.3487 -0.7420 -0.2921
  107MOL0     C14344   2.831   3.754   7.106 -0.2069  0.5573  0.1591
  107MOL0     C14345   2.927   3.757   7.203 -0.4837 -0.1098 -0.7685
  107MOL0     O14346   3.051   3.692   7.197  1.6313 -0.7504  0.8513
  107MOL0     C14347   3.042   3.560   7.228 -0.1077  0.5369 -0.2061
  107MOL0     C14348   3.190   3.512   7.234  0.4698 -0.1421  0.5870
  107MOL0     C14349   3.268   3.611   7.319  0.4156  0.5216  0.2236
  107MOL0     C14350   3.410   3.568   7.346 -0.7309  0.3196  0.3033
  107MOL0     C14351   3.467   3.656   7.460 -0.5691 -0.0984  0.7723
  107MOL0     C14352   3.614   3.607   7.495 -0.0420  0.5686  0.4486
  107MOL0     C14353   3.667   3.686   7.621 -0.3593  0.2592 -0.4621
  107MOL0     C14354   3.824   3.701   7.627 -0.8735  0.0455 -0.1770
  107MOL0    Cl14355   3.912   3.536   7.621 -0.0875  0.1989 -0.4857
  107MOL0     C14356   2.890   3.804   7.335 -0.4432  0.3012  0.6676
  107MOL0     C14357   2.776   3.859   7.367 -0.1543 -0.4246  0.0635
  107MOL0     O14358   2.630   4.117   7.333 -0.3821  0.1304  0.7095
  107MOL0     C14359   2.313   4.058   7.237  1.4863  0.2713  0.2500
  107MOL0     C14360   2.173   4.088   7.242  0.5968  0.1959 -0.5216
  107MOL0     N14361   1.856   3.817   7.688 -0.1257  0.1949  0.5542
  107MOL0     N14362   1.937   3.719   7.711 -0.2188 -0.8041 -0.3494
  107MOL0     C14363   1.723   3.840   6.814 -0.6292  0.2326 -0.8874
  107MOL0     C14364   1.663   3.957   6.776  0.7736 -0.6355  0.0302
  107MOL0     C14365   1.500   4.312   6.637 -0.6907  0.2072 -0.1350
  107MOL0     C14366   1.457   4.347   6.507 -0.2115 -0.7330 -0.7826
  107MOL0     C14367   1.381   4.468   6.494 -0.3579  0.1713  0.0296
  107MOL0     C14368   1.330   4.544   6.601  0.7086  0.2949 -0.1572
  107MOL0     O14369   1.246   4.656   6.578  0.4930 -0.0179 -0.5210
  107MOL0     C14370   1.177   4.723   6.684  0.5311  0.2789  0.0601
  107MOL0     C14371   1.263   4.810   6.776 -0.5579 -0.1738 -0.8217
  107MOL0     C14372   1.382   4.887   6.704  1.8437  0.4096 -0.5684
  107MOL0     C14373   1.464   4.983   6.787 -0.4748 -0.1473  0.8856
  107MOL0     C14374   1.373   5.089   6.834  0.3265  0.0993 -0.7059
  107MOL0     C14375   1.293   5.151   6.891  0.5770  0.6012  0.4474
  107MOL0     C14376   1.360   4.493   6.722 -0.2899  1.0358  0.0879
  107MOL0     C14377   1.444   4.383   6.740  0.9237 -0.9889 -0.2210
  107MOL0     H14378   1.901   4.181   6.872 -0.7462 -0.7205  2.4553
  107MOL0     H14379   2.030   3.970   6.908 -0.0635  2.6492  1.3899
  107MOL0     H14380   1.825   3.773   7.113 -1.7122 -1.3326  1.4822
  107MOL0     H14381   1.742   3.659   7.005  0.1016  0.6684 -1.2917
  107MOL0     H14382   1.864   3.528   7.192 -1.9394  1.8344 -0.5763
  107MOL0     H14383   1.969   3.508   7.047  3.1751  1.7403  0.7978
  107MOL0     H14384   2.104   3.701   7.116  1.1965  1.2079  1.1561
  107MOL0     H14385   2.015   3.710   7.265 -0.3894  0.1708  0.8304
  107MOL0     H14386   2.086   3.476   7.332  0.0274 -2.1165 -1.2947
  107MOL0     H14387   2.173   3.468   7.185  0.1398  0.2225  0.8620
  107MOL0     H14388   2.330   3.521   7.357  0.6496  0.6243 -0.2364
  107MOL0     H14389   2.332   3.655   7.250 -1.1331 -1.7714 -2.2399
  107MOL0     H14390   2.325   3.758   7.457  1.6687 -1.5140 -1.4236
  107MOL0     H14391   2.155   3.761   7.416 -0.8426 -1.2168 -1.2726
  107MOL0     H14392   2.104   3.559   7.562 -0.8726 -0.2210 -0.1219
  107MOL0     H14393   2.284   3.538   7.592 -0.1612  1.3831 -0.4741
  107MOL0     H14394   2.276   3.754   7.689  1.7245 -0.5291 -0.1586
  107MOL0     H14395   2.180   3.640   7.776 -0.8099  1.2029 -0.2551
  107MOL0     H14396   2.132   3.959   7.595  1.4292 -0.8042 -2.0533
  107MOL0     H14397   1.751   4.071   7.639  0.4252  3.9481 -0.6348
  107MOL0     H14398   1.892   4.140   7.572  0.3719  0.0799 -0.8339
  107MOL0     H14399   1.690   4.056   7.448 -1.5348 -1.4923 -0.7219
  107MOL0     H14400   1.769   3.893   7.466  3.0363 -0.5452  6.2043
  107MOL0     H14401   1.812   3.958   7.261 -1.1651 -0.2156  0.7079
  107MOL0     H14402   1.963   3.956   7.356  0.2433  1.7146  2.3967
  107MOL0     H14403   1.788   4.192   7.315 -0.6874 -1.4688  1.1263
  107MOL0     H14404   1.916   4.141   7.188  1.4551  1.9967  1.0168
  107MOL0     H14405   2.167   4.287   7.517 -1.1021  1.0643 -2.0277
  107MOL0     H14406   2.506   4.160   7.579  3.9112  2.9037  0.4507
  107MOL0     H14407   2.490   4.318   7.512  0.9156 -1.1789 -1.3591
  107MOL0     H14408   2.372   4.251   7.639 -1.9034 -0.0070 -0.0806
  107MOL0     H14409   2.618   3.801   7.066  0.6594 -1.1879  0.5648
  107MOL0     H14410   2.853   3.711   7.009  1.7501 -2.0331  1.6350
  107MOL0     H14411   2.996   3.539   7.325  2.9526 -3.7018  0.6504
  107MOL0     H14412   2.993   3.502   7.149 -0.9096 -3.0663  2.6448
  107MOL0     H14413   3.207   3.418   7.287 -3.3880 -0.6004  1.3284
  107MOL0     H14414   3.222   3.519   7.130  0.5104  0.3730  0.6309
  107MOL0     H14415   3.221   3.639   7.414  0.1408  2.4268 -0.4131
  107MOL0     H14416   3.275   3.705   7.263 -0.4606  1.3567  1.4639
  107MOL0     H14417   3.395   3.470   7.393 -0.1699  0.7734  1.4789
  107MOL0     H14418   3.480   3.563   7.262 -0.3681  1.2475  0.5424
  107MOL0     H14419   3.409   3.646   7.552  1.3831 -3.2926  1.8143
  107MOL0     H14420   3.484   3.760   7.430  0.7398 -0.4848  0.1157
  107MOL0     H14421   3.617   3.499   7.512 -1.4587 -0.0228 -2.4120
  107MOL0     H14422   3.677   3.626   7.408  1.0771  1.7131  1.4581
  107MOL0     H14423   3.640   3.640   7.716  1.6539 -0.8956 -0.3924
  107MOL0     H14424   3.611   3.779   7.633 -0.4612  0.0064  1.1953
  107MOL0     H14425   3.849   3.756   7.718 -3.5066  0.2587  0.5086
  107MOL0     H14426   3.862   3.764   7.546  0.1459 -0.4735 -0.1143
  107MOL0     H14427   2.967   3.812   7.411 -3.0625 -2.3621  3.8930
  107MOL0     H14428   2.770   3.911   7.462  1.8705  0.9181 -0.4655
  107MOL0     H14429   2.348   3.989   7.161  3.8303 -0.9420  2.2966
  107MOL0     H14430   2.103   4.061   7.164 -1.4378 -0.7568  1.4999
  107MOL0     H14431   1.683   3.739   6.806  0.7248 -0.3939 -0.1944
  107MOL0     H14432   1.558   3.960   6.750  0.2817 -1.3171  1.8167
  107MOL0     H14433   1.493   4.298   6.417  0.5064  1.0067 -1.4671
  107MOL0     H14434   1.340   4.498   6.398  1.3362 -1.1511 -1.1911
  107MOL0     H14435   1.100   4.792   6.648 -0.7699 -0.6533  0.9691
  107MOL0     H14436   1.130   4.647   6.748  3.0526 -0.9486  0.5725
  107MOL0     H14437   1.308   4.760   6.862  0.1030  1.9866  0.1631
  107MOL0     H14438   1.194   4.879   6.827  2.2436 -0.0955  3.3396
  107MOL0     H14439   1.339   4.937   6.617 -0.9982 -1.7114 -0.5192
  107MOL0     H14440   1.443   4.808   6.660  2.1312  0.3786 -0.1309
  107MOL0     H14441   1.543   5.015   6.718  0.2199 -1.2654  1.1454
  107MOL0     H14442   1.514   4.936   6.872  0.7908 -0.8727 -0.2289
  107MOL0     H14443   1.228   5.210   6.953 -0.6080  0.8925 -1.0274
  107MOL0     H14444   1.325   4.546   6.810 -0.6255  0.9894 -0.0147
  107MOL0     H14445   1.464   4.358   6.844 -2.1268  2.3201  1.3747
  108MOL0     O14446   7.384   9.583   9.261  0.5033  0.0272  0.0044
  108MOL0     C14447   7.288   9.600   9.192  0.7942 -1.0789  0.6782
  108MOL0     O14448   7.153   9.602   9.232 -0.1524  0.2943  0.2158
  108MOL0     C14449   7.116   9.611   9.361  0.2179 -0.2852  0.2530
  108MOL0     C14450   7.184   9.676   9.459 -0.8297 -0.4612 -0.5907
  108MOL0     C14451   7.129   9.717   9.578  0.2783  0.0667 -0.3132
  108MOL0     C14452   7.003   9.678   9.609  0.1568  0.1847  0.6111
  108MOL0     O14453   6.929   9.693   9.721 -0.5352 -0.1151 -0.1836
  108MOL0     C14454   6.992   9.762   9.834  0.0298  1.0315  0.1619
  108MOL0     C14455   6.924   9.714   9.963 -0.4983  0.3408  0.1290
  108MOL0     C14456   6.983   9.772  10.092 -1.1984 -0.0609 -0.3625
  108MOL0     C14457   6.887   9.770  10.214  0.0668 -0.2843 -0.5205
  108MOL0     C14458   6.932   9.868  10.319  0.2921  0.4407 -0.6396
  108MOL0     C14459   6.843   9.843  10.444  0.9560 -0.5298  0.1469
  108MOL0     C14460   6.701   9.875  10.423  0.3617 -0.5037 -0.3580
  108MOL0     C14461   6.606   9.869  10.549 -0.4420  0.8533 -0.0324
  108MOL0     N14462   6.591  10.000  10.607  0.4027 -0.1350 -0.1452
  108MOL0     C14463   6.491  10.087  10.579 -0.1133 -0.4116 -0.2025
  108MOL0     C14464   6.539  10.205  10.630 -0.6012  0.9772 -0.3855
  108MOL0     C14465   6.459  10.331  10.636  0.2883 -0.2908  0.2241
  108MOL0     C14466   6.548  10.450  10.625 -0.1003 -1.1197 -0.5806
  108MOL0     C14467   6.626  10.457  10.488  0.2684  0.6390 -0.2761
  108MOL0     C14468   6.688  10.592  10.462  0.1767 -0.2585  0.0381
  108MOL0     O14469   6.586  10.700  10.432  0.5542  0.1650  0.0615
  108MOL0     C14470   6.531  10.694  10.311 -0.2333 -0.2072  0.5975
  108MOL0     C14471   6.445  10.807  10.293  0.0333 -0.4057  0.4398
  108MOL0     C14472   6.384  10.820  10.164 -0.3798 -0.0927 -0.7046
  108MOL0     C14473   6.293  10.943  10.156 -0.0419 -0.1752  0.2611
  108MOL0     C14474   6.416  10.730  10.061  0.8409 -0.3667  0.4004
  108MOL0     C14475   6.354  10.737   9.929  0.7287 -0.1992 -0.2489
  108MOL0     O14476   6.396  10.647   9.840  0.5612 -0.5179 -0.4135
  108MOL0     C14477   6.314  10.654   9.729  0.3970  0.0794 -0.2300
  108MOL0     C14478   6.368  10.711   9.614 -0.3248  0.6250 -0.2206
  108MOL0     C14479   6.292  10.693   9.495 -1.3349  0.1273 -0.0855
  108MOL0     C14480   6.178  10.608   9.498 -0.2837  0.1919  1.1140
  108MOL0     O14481   6.116  10.568   9.381  0.0246 -0.2416 -0.1057
  108MOL0     C14482   6.191  10.445   9.343 -0.4565  0.0518 -0.2526
  108MOL0     C14483   6.088  10.347   9.275  0.7533 -0.0667 -0.0815
  108MOL0     C14484   6.029  10.397   9.142  0.3270 -0.1308 -0.2004
  108MOL0     C14485   5.946  10.286   9.066 -0.4498  0.7356 -0.4710
  108MOL0     C14486   5.814  10.230   9.123  0.6801 -0.0135  0.2815
  108MOL0     C14487   5.739  10.123   9.040  0.5751  0.5118 -0.1081
  108MOL0     C14488   5.599  10.086   9.097  0.3165 -0.1061  0.0614
  108MOL0     C14489   5.601  10.044   9.241  0.1696 -0.1371 -0.1457
  108MOL0    Cl14490   5.432   9.989   9.274 -0.7971  0.1170  0.1207
  108MOL0     C14491   6.132  10.552   9.614  0.0694 -0.7989  0.4368
  108MOL0     C14492   6.204  10.569   9.726 -0.5498 -0.5290 -0.8074
  108MOL0     O14493   6.284  10.831   9.912 -0.9513  0.1258 -0.2807
  108MOL0     C14494   6.505  10.628  10.087 -0.1361 -0.2801  0.0415
  108MOL0     C14495   6.566  10.612  10.207  0.0876  0.3281  0.4673
  108MOL0     N14496   6.656  10.171  10.695 -0.1647  0.0774 -0.0976
  108MOL0     N14497   6.696  10.058  10.678 -0.1930  0.2810 -0.1594
  108MOL0     C14498   6.928   9.599   9.518  0.1061  0.0661 -0.7856
  108MOL0     C14499   6.987   9.579   9.389  0.8501 -0.2599 -1.2167
  108MOL0     C14500   7.323   9.618   9.049 -0.2440  0.3295  0.2374
  108MOL0     C14501   7.219   9.628   8.958  0.5858  0.2954 -0.0065
  108MOL0     C14502   7.238   9.618   8.819  0.3508 -0.4878 -0.1615
  108MOL0     C14503   7.363   9.625   8.765  0.6465 -0.3119 -0.2832
  108MOL0     O14504   7.371   9.622   8.628  0.1969 -0.6557  0.4336
  108MOL0     C14505   7.502   9.613   8.565  0.2694  0.6831  0.7559
  108MOL0     C14506   7.548   9.459   8.573 -0.9064 -0.9227 -0.3426
  108MOL0     C14507   7.699   9.439   8.574 -0.2262 -0.2759  0.7766
  108MOL0     C14508   7.772   9.493   8.698 -0.1932 -0.6962  0.0391
  108MOL0     C14509   7.733   9.416   8.820 -0.2166  0.0123  0.0084
  108MOL0     C14510   7.729   9.361   8.929  0.3040 -0.6008 -0.7511
  108MOL0     C14511   7.467   9.636   8.853  0.9412 -0.4152 -0.2327
  108MOL0     C14512   7.457   9.632   9.002 -0.4560  0.5587  0.3448
  108MOL0     H14513   7.285   9.707   9.435 -1.1901 -1.3012 -3.5999
  108MOL0     H14514   7.178   9.791   9.641  1.3405 -0.5624 -0.3897
  108MOL0     H14515   7.086   9.709   9.852 -0.3270 -0.1696 -1.3018
  108MOL0     H14516   7.014   9.868   9.818  0.4723  0.6972 -1.5993
  108MOL0     H14517   6.816   9.727   9.967 -0.7630 -0.3368 -2.9376
  108MOL0     H14518   6.938   9.607   9.979  0.7490  0.3415 -0.8368
  108MOL0     H14519   7.072   9.719  10.129  0.5312  3.9857  1.8951
  108MOL0     H14520   7.007   9.878  10.083 -0.4941  0.2516  3.5888
  108MOL0     H14521   6.782   9.779  10.183 -0.2587 -0.7259  0.4115
  108MOL0     H14522   6.881   9.673  10.263  0.6053 -0.3662 -0.6218
  108MOL0     H14523   7.039   9.857  10.341  0.4029  2.1688 -0.2199
  108MOL0     H14524   6.915   9.972  10.289  0.2229  0.9375  1.0667
  108MOL0     H14525   6.863   9.743  10.483  2.9907 -0.2798 -0.1620
  108MOL0     H14526   6.872   9.914  10.522 -0.2131 -0.0471  0.1711
  108MOL0     H14527   6.701   9.972  10.373 -2.6572  0.1728  0.7296
  108MOL0     H14528   6.666   9.799  10.352 -0.2634  4.0886 -5.6432
  108MOL0     H14529   6.653   9.801  10.621  0.8151 -0.1932 -1.7639
  108MOL0     H14530   6.507   9.833  10.520 -0.2443  0.7264 -0.5550
  108MOL0     H14531   6.391  10.061  10.542  0.3043 -1.3585 -0.7123
  108MOL0     H14532   6.388  10.322  10.553  3.5361  0.4338 -2.8583
  108MOL0     H14533   6.398  10.346  10.725  0.3822  3.4364 -0.2104
  108MOL0     H14534   6.609  10.440  10.715  2.2768  0.8256 -1.8582
  108MOL0     H14535   6.498  10.543  10.654 -1.5164 -2.1765  0.5081
  108MOL0     H14536   6.577  10.419  10.399  1.8017 -3.4164  0.3958
  108MOL0     H14537   6.705  10.381  10.495  0.6841  1.0642 -0.3257
  108MOL0     H14538   6.755  10.592  10.376 -2.0316  0.6788 -1.8074
  108MOL0     H14539   6.732  10.628  10.555 -3.7199  2.7948  0.9835
  108MOL0     H14540   6.414  10.874  10.372  0.1146  0.9877 -0.6606
  108MOL0     H14541   6.199  10.916  10.108 -1.1103  0.7738  1.7083
  108MOL0     H14542   6.264  11.000  10.246 -3.1571 -1.6110  0.2704
  108MOL0     H14543   6.324  11.025  10.090 -4.8068  0.8646 -1.1104
  108MOL0     H14544   6.457  10.773   9.621 -1.8145  3.3049 -2.9182
  108MOL0     H14545   6.320  10.737   9.400  3.2509 -0.3815  0.8274
  108MOL0     H14546   6.263  10.472   9.265 -2.4454  1.2508 -1.7676
  108MOL0     H14547   6.229  10.398   9.434 -2.9564 -0.7014  0.4909
  108MOL0     H14548   6.137  10.255   9.244  0.8885 -0.4439  1.2164
  108MOL0     H14549   6.004  10.317   9.338 -1.4809  0.3478 -2.6768
  108MOL0     H14550   6.108  10.422   9.070 -0.2869  2.1941 -0.1322
  108MOL0     H14551   5.959  10.480   9.156 -2.0228 -2.3688  2.4340
  108MOL0     H14552   5.923  10.332   8.970 -1.9150  0.1552 -0.4320
  108MOL0     H14553   6.007  10.197   9.053  0.4048  1.2261  0.0452
  108MOL0     H14554   5.746  10.310   9.153 -0.0710 -1.0751  1.5014
  108MOL0     H14555   5.852  10.181   9.213  0.6194  0.6639  0.6793
  108MOL0     H14556   5.718  10.162   8.940 -0.5112  0.2738  0.0117
  108MOL0     H14557   5.796  10.036   9.007 -2.1332 -1.8856  1.0464
  108MOL0     H14558   5.562  10.004   9.034  0.8605  1.1458 -1.9612
  108MOL0     H14559   5.532  10.170   9.079  1.3183  0.6421 -0.2333
  108MOL0     H14560   5.616  10.131   9.306 -1.9106 -1.8649  2.8841
  108MOL0     H14561   5.672   9.968   9.275  5.2787  1.7136 -5.0276
  108MOL0     H14562   6.050  10.481   9.612 -0.1438 -0.5406 -0.5292
  108MOL0     H14563   6.181  10.512   9.816 -0.2112 -1.0838 -1.0693
  108MOL0     H14564   6.533  10.556  10.011  0.8935 -0.6319  0.7459
  108MOL0     H14565   6.636  10.529  10.210  0.5511  0.2933 -3.9395
  108MOL0     H14566   6.828   9.573   9.554  0.5689  0.8292  1.2091
  108MOL0     H14567   6.918   9.528   9.322 -1.3160 -0.4331  1.0105
  108MOL0     H14568   7.118   9.624   8.997 -0.0595  1.5983 -1.4298
  108MOL0     H14569   7.165   9.618   8.739 -2.9237  0.0494  2.5671
  108MOL0     H14570   7.497   9.648   8.461  0.0250  2.1252  1.2387
  108MOL0     H14571   7.568   9.684   8.615 -0.5316  2.2695 -0.3690
  108MOL0     H14572   7.505   9.398   8.493 -0.5453 -2.5917  0.6748
  108MOL0     H14573   7.525   9.420   8.673  0.0011  2.4211  1.3141
  108MOL0     H14574   7.736   9.484   8.482 -0.8871 -1.2153  0.0234
  108MOL0     H14575   7.726   9.333   8.575 -0.0181 -0.2640  3.3401
  108MOL0     H14576   7.749   9.600   8.696 -2.2810 -1.1038 -0.9470
  108MOL0     H14577   7.881   9.480   8.697 -0.2297 -1.4023  1.5144
  108MOL0     H14578   7.728   9.325   9.030 -0.0796  2.4023  0.4110
  108MOL0     H14579   7.566   9.639   8.808 -0.2365 -0.4574 -2.9828
  108MOL0     H14580   7.545   9.633   9.066 -1.0605 -1.9477  1.3370
  109MOL0     O14581   1.202   1.191   8.362 -0.0576 -0.0054  0.3010
  109MOL0     C14582   1.167   1.160   8.249 -0.8855  0.2230  0.3780
  109MOL0     O14583   1.047   1.170   8.196  0.0698 -1.1753 -0.2471
  109MOL0     C14584   0.944   1.256   8.247  0.3571 -0.3059  0.3736
  109MOL0     C14585   0.966   1.351   8.349 -1.0961 -0.3598  1.3252
  109MOL0     C14586   0.859   1.432   8.384  0.6772  0.4389 -0.0522
  109MOL0     C14587   0.734   1.418   8.322 -0.2391 -0.0529  0.3326
  109MOL0     O14588   0.623   1.486   8.371 -0.9104  0.1474  0.8394
  109MOL0     C14589   0.622   1.626   8.376 -0.0240  0.4725  0.1464
  109MOL0     C14590   0.575   1.680   8.514  0.8954  1.5106 -0.0241
  109MOL0     C14591   0.430   1.642   8.537 -0.2786 -0.4214 -0.5060
  109MOL0     C14592   0.365   1.679   8.674  1.0766 -0.3923 -0.2041
  109MOL0     C14593   0.217   1.638   8.686  0.3979  0.1747 -0.1447
  109MOL0     C14594   0.205   1.483   8.695 -0.4505  0.5172  0.3788
  109MOL0     C14595   0.064   1.439   8.718  0.4533 -0.5720 -0.9581
  109MOL0     C14596   0.047   1.282   8.700 -0.6666  0.0721 -0.2091
  109MOL0     N14597  -0.097   1.246   8.731 -0.4175  0.1627  0.7342
  109MOL0     C14598  -0.167   1.259   8.846  0.5233  0.7215 -0.7365
  109MOL0     C14599  -0.278   1.188   8.833 -0.6840 -0.2993  1.1374
  109MOL0     C14600  -0.392   1.201   8.921 -0.6861 -0.4709 -0.4013
  109MOL0     C14601  -0.500   1.092   8.895 -0.1825  0.6065  0.4324
  109MOL0     C14602  -0.619   1.139   8.969 -0.1100 -0.6865  1.2158
  109MOL0     C14603  -0.730   1.045   9.000 -0.4089  0.5132 -0.0136
  109MOL0     O14604  -0.710   0.946   9.105  0.1147  0.1568 -0.5069
  109MOL0     C14605  -0.832   0.922   9.174 -0.1442 -0.1325 -0.3507
  109MOL0     C14606  -0.816   0.894   9.307 -0.0695 -0.3501 -0.7565
  109MOL0     C14607  -0.927   0.892   9.399 -0.2429 -0.5183  0.2251
  109MOL0     C14608  -0.894   0.873   9.541  0.5344  0.0649  0.8613
  109MOL0     C14609  -1.058   0.890   9.350  1.8461  0.0978  0.1765
  109MOL0     C14610  -1.184   0.864   9.432 -0.1576  0.0493  0.2873
  109MOL0     O14611  -1.286   0.945   9.402 -0.3281  0.1884 -0.4522
  109MOL0     C14612  -1.415   0.888   9.438 -0.4102  0.6771 -0.5092
  109MOL0     C14613  -1.439   0.750   9.429  0.1891  0.4203  0.6766
  109MOL0     C14614  -1.563   0.683   9.459 -0.0773  0.5584  0.3108
  109MOL0     C14615  -1.670   0.767   9.484 -0.2949 -0.8206 -1.1752
  109MOL0     O14616  -1.801   0.730   9.524 -0.3355  0.1050 -0.0467
  109MOL0     C14617  -1.820   0.606   9.592  0.4008 -0.0875  0.2556
  109MOL0     C14618  -1.884   0.506   9.502 -0.2711  0.1632  0.2333
  109MOL0     C14619  -2.039   0.498   9.518 -0.8754 -0.4169 -0.3752
  109MOL0     C14620  -2.111   0.418   9.413  0.4423  0.8089  0.5285
  109MOL0     C14621  -2.255   0.396   9.467 -0.1045 -0.0992 -1.2180
  109MOL0     C14622  -2.349   0.525   9.455 -0.1750  0.1216  0.8503
  109MOL0     C14623  -2.473   0.528   9.548 -0.0667  0.6364 -0.0162
  109MOL0     C14624  -2.433   0.570   9.689 -0.3575 -0.5562  0.0380
  109MOL0    Cl14625  -2.578   0.582   9.797 -0.2247 -0.3766  0.3356
  109MOL0     C14626  -1.648   0.914   9.471  1.3545 -0.5482 -0.0299
  109MOL0     C14627  -1.518   0.970   9.454  0.3282 -0.4323 -0.0990
  109MOL0     O14628  -1.179   0.786   9.524  0.4282  0.2795 -0.1423
  109MOL0     C14629  -1.069   0.908   9.211 -0.2693  0.2189 -0.0384
  109MOL0     C14630  -0.965   0.937   9.125 -0.5174  0.5868  0.0974
  109MOL0     N14631  -0.265   1.109   8.727  0.1302  0.4675  0.3756
  109MOL0     N14632  -0.155   1.143   8.667 -0.2758  0.8124  1.1961
  109MOL0     C14633   0.711   1.323   8.226  0.2911 -0.3570  0.2905
  109MOL0     C14634   0.812   1.233   8.191  0.0151 -0.3235  0.7632
  109MOL0     C14635   1.262   1.089   8.159  0.1860 -0.1261  0.6785
  109MOL0     C14636   1.389   1.042   8.203  0.5969 -1.1489  0.5390
  109MOL0     C14637   1.483   0.990   8.112  0.4510  0.1158 -0.1857
  109MOL0     C14638   1.451   0.961   7.978 -0.1038 -0.0397  0.3575
  109MOL0     O14639   1.536   0.907   7.882  0.4260 -0.2865 -0.1186
  109MOL0     C14640   1.678   0.918   7.906  1.0125 -0.1936  0.7396
  109MOL0     C14641   1.730   0.776   7.915 -0.2044 -0.0360  0.3158
  109MOL0     C14642   1.880   0.782   7.972  0.9891 -0.7300  0.2685
  109MOL0     C14643   1.913   0.661   8.032 -0.8530  1.2716 -0.0899
  109MOL0     C14644   1.922   0.550   7.935  0.3645 -0.6156  0.0012
  109MOL0     C14645   1.951   0.446   7.885 -0.3726 -0.4210 -0.0331
  109MOL0     C14646   1.322   1.002   7.934 -0.9510 -0.2436 -0.3588
  109MOL0     C14647   1.229   1.061   8.024 -0.2916 -0.0234  0.4534
  109MOL0     H14648   1.066   1.363   8.390  0.3421 -1.8954 -1.4599
  109MOL0     H14649   0.885   1.512   8.452 -0.7945 -0.0711  1.1496
  109MOL0     H14650   0.710   1.679   8.339 -0.1748  0.9455  0.4531
  109MOL0     H14651   0.545   1.658   8.305  0.6603  5.9334  1.4062
  109MOL0     H14652   0.645   1.638   8.586  0.9720 -0.7504 -1.3102
  109MOL0     H14653   0.583   1.789   8.524 -1.7437  1.9177 -1.1666
  109MOL0     H14654   0.365   1.688   8.463 -2.6458  0.1309  1.7803
  109MOL0     H14655   0.423   1.533   8.528  0.8085 -0.6131  0.6002
  109MOL0     H14656   0.417   1.628   8.756 -1.8370 -1.7477  0.9363
  109MOL0     H14657   0.369   1.787   8.689  0.8465 -0.2688 -0.9934
  109MOL0     H14658   0.184   1.689   8.777  1.8550 -0.5578  0.8475
  109MOL0     H14659   0.161   1.673   8.600  1.5170  1.5240 -0.3603
  109MOL0     H14660   0.230   1.437   8.600  0.6974  0.4260  0.7137
  109MOL0     H14661   0.268   1.448   8.778 -2.1012  0.3488  1.6218
  109MOL0     H14662   0.033   1.447   8.823 -1.9094 -4.6406 -1.1453
  109MOL0     H14663   0.001   1.504   8.657  0.0300  0.9083  0.9620
  109MOL0     H14664   0.115   1.240   8.775  0.4436  0.0281 -1.2205
  109MOL0     H14665   0.083   1.252   8.602 -0.4228  3.5112 -1.3085
  109MOL0     H14666  -0.136   1.328   8.924  3.0347 -1.0579 -0.0248
  109MOL0     H14667  -0.353   1.204   9.023 -0.5339 -0.6437 -0.4532
  109MOL0     H14668  -0.442   1.294   8.893 -0.2688 -0.3610 -0.7881
  109MOL0     H14669  -0.469   0.995   8.936 -3.8974 -0.6204  0.7324
  109MOL0     H14670  -0.522   1.085   8.788 -1.6185  3.3298  0.4781
  109MOL0     H14671  -0.657   1.226   8.915  3.2933 -1.8150 -3.6721
  109MOL0     H14672  -0.588   1.165   9.070 -0.2249 -1.4594  1.4579
  109MOL0     H14673  -0.760   0.984   8.915 -0.7413  1.3882 -0.5404
  109MOL0     H14674  -0.821   1.104   9.017 -1.3433 -0.6548 -0.8159
  109MOL0     H14675  -0.718   0.882   9.353  0.1280 -2.7711 -1.6509
  109MOL0     H14676  -0.903   0.765   9.555 -0.9290  0.1290  0.5585
  109MOL0     H14677  -0.797   0.915   9.568 -1.4226  4.2706  2.2392
  109MOL0     H14678  -0.960   0.923   9.612  0.6320  1.6498 -0.1050
  109MOL0     H14679  -1.358   0.684   9.401 -1.1936 -0.5822 -1.2257
  109MOL0     H14680  -1.574   0.576   9.453  2.1785  0.2923  0.0237
  109MOL0     H14681  -1.728   0.575   9.643  0.3890  2.7870  2.2564
  109MOL0     H14682  -1.886   0.612   9.679 -0.3604  2.5711 -0.4130
  109MOL0     H14683  -1.865   0.519   9.395 -4.9026 -0.3717 -0.8648
  109MOL0     H14684  -1.837   0.408   9.516  0.7348  0.3413 -1.5712
  109MOL0     H14685  -2.076   0.601   9.518 -3.0153 -1.1354  0.3649
  109MOL0     H14686  -2.059   0.459   9.617  4.3560 -1.4528  0.5897
  109MOL0     H14687  -2.115   0.477   9.321  3.0018 -0.5727 -0.5720
  109MOL0     H14688  -2.063   0.321   9.401 -0.7363  0.4251 -1.5929
  109MOL0     H14689  -2.245   0.347   9.564 -1.3180 -3.3515 -2.6001
  109MOL0     H14690  -2.312   0.319   9.413 -3.6067  0.1704  1.6875
  109MOL0     H14691  -2.298   0.622   9.454 -1.4569  0.8406 -0.9776
  109MOL0     H14692  -2.385   0.512   9.352 -0.3289 -0.9097  1.0200
  109MOL0     H14693  -2.531   0.435   9.548 -0.1828  0.6113  2.9845
  109MOL0     H14694  -2.541   0.609   9.521 -0.8796  1.2989  3.5143
  109MOL0     H14695  -2.390   0.669   9.669  0.7895 -1.2374 -0.9528
  109MOL0     H14696  -2.361   0.506   9.740 -0.2988  0.8545  1.8363
  109MOL0     H14697  -1.736   0.975   9.485  1.0880 -0.7533 -0.7837
  109MOL0     H14698  -1.491   1.075   9.463  1.5309 -0.8044  0.7758
  109MOL0     H14699  -1.171   0.917   9.175 -0.7876  3.8593  1.8641
  109MOL0     H14700  -0.980   0.972   9.023 -1.1288  0.0925  0.0045
  109MOL0     H14701   0.608   1.312   8.195  0.1619  0.2312  0.4922
  109MOL0     H14702   0.816   1.165   8.107  0.9093  1.5972 -0.8418
  109MOL0     H14703   1.396   1.042   8.312  0.4451  2.5883  0.6557
  109MOL0     H14704   1.578   0.977   8.162  1.0979  1.5526 -0.9794
  109MOL0     H14705   1.727   0.981   7.831  0.8220 -1.1412 -0.2141
  109MOL0     H14706   1.709   0.969   7.997  1.6318  2.5089 -0.8690
  109MOL0     H14707   1.736   0.723   7.819  2.0041  1.1227 -0.2760
  109MOL0     H14708   1.653   0.730   7.977 -2.5725  2.5487 -0.4971
  109MOL0     H14709   1.895   0.864   8.042 -1.2393  0.7981 -0.8940
  109MOL0     H14710   1.950   0.804   7.891  1.1973 -2.8757 -0.2095
  109MOL0     H14711   1.851   0.626   8.114  1.1129 -1.5491  0.3130
  109MOL0     H14712   2.006   0.681   8.086 -1.6091 -0.1799  1.8410
  109MOL0     H14713   1.982   0.362   7.825 -3.2898 -0.5665 -1.5085
  109MOL0     H14714   1.295   0.963   7.837  1.3060 -0.1456 -1.1019
  109MOL0     H14715   1.124   1.064   7.997 -0.5356 -0.1755  1.3680
  110MOL0     O14716   5.745   1.658   9.417 -1.0509 -0.8221 -0.0514
  110MOL0     C14717   5.767   1.605   9.303  0.3963 -0.3609 -1.1221
  110MOL0     O14718   5.728   1.480   9.274 -0.3020  0.1151  0.9499
  110MOL0     C14719   5.682   1.404   9.382  0.0874  0.3920  0.5796
  110MOL0     C14720   5.760   1.290   9.428 -1.3827 -0.7938 -0.2095
  110MOL0     C14721   5.709   1.205   9.534 -0.5015  0.1241  0.1426
  110MOL0     C14722   5.583   1.235   9.587  0.9185 -0.3906  0.1352
  110MOL0     O14723   5.536   1.153   9.676 -0.5545 -0.1397 -0.6599
  110MOL0     C14724   5.566   1.193   9.817  0.2933 -0.5796 -0.1884
  110MOL0     C14725   5.495   1.090   9.912  0.3334  0.2922 -0.0309
  110MOL0     C14726   5.343   1.089   9.895  0.4271  0.1334  0.2493
  110MOL0     C14727   5.286   0.991   9.996 -0.1849  0.0227  0.2703
  110MOL0     C14728   5.148   0.939   9.948  0.6394  0.4520  0.6332
  110MOL0     C14729   5.079   0.865  10.058 -0.3839 -0.7407  0.1457
  110MOL0     C14730   4.949   0.797  10.018  0.3609  1.2122 -0.6319
  110MOL0     C14731   4.851   0.749  10.132  0.0140 -0.1411  0.7398
  110MOL0     N14732   4.759   0.856  10.165  0.2936 -0.4236 -0.1496
  110MOL0     C14733   4.627   0.850  10.212  0.0127 -0.0897  0.0493
  110MOL0     C14734   4.573   0.970  10.201  0.4580 -0.1788  0.5187
  110MOL0     C14735   4.425   1.008  10.218  0.1990 -0.4294 -1.3375
  110MOL0     C14736   4.365   0.967  10.346  0.1938 -0.2718 -0.4937
  110MOL0     C14737   4.451   1.010  10.460 -0.2815  0.1784 -0.1242
  110MOL0     C14738   4.403   0.969  10.596  0.6682  0.0560 -0.0089
  110MOL0     O14739   4.281   1.028  10.625 -0.5926 -1.1410  0.4093
  110MOL0     C14740   4.278   1.104  10.745  0.6650  0.3557  0.0213
  110MOL0     C14741   4.369   1.204  10.783  0.5507  0.7316  0.9080
  110MOL0     C14742   4.360   1.289  10.894 -0.4903 -0.9711 -0.0565
  110MOL0     C14743   4.464   1.389  10.925  0.3538  0.6922 -0.1777
  110MOL0     C14744   4.238   1.281  10.972  1.2792  0.8581  0.0303
  110MOL0     C14745   4.209   1.350  11.096  0.2790 -0.3105 -0.0850
  110MOL0     O14746   4.218   1.260  11.204 -0.9594  0.1927 -0.7632
  110MOL0     C14747   4.224   1.307  11.334  0.2882 -1.5035  0.8054
  110MOL0     C14748   4.133   1.289  11.435 -0.2117 -0.4151  0.4998
  110MOL0     C14749   4.148   1.329  11.567 -0.2395  0.3814 -0.7204
  110MOL0     C14750   4.271   1.407  11.597  0.4741  0.2022 -0.4263
  110MOL0     O14751   4.302   1.449  11.728 -0.8654  0.5226  0.0442
  110MOL0     C14752   4.232   1.388  11.841 -0.2256 -0.0114  0.0836
  110MOL0     C14753   4.330   1.382  11.962 -0.1332  0.0299  0.5121
  110MOL0     C14754   4.266   1.315  12.085  0.1176 -0.2548 -0.2664
  110MOL0     C14755   4.289   1.404  12.205 -0.0538  0.1230  0.5807
  110MOL0     C14756   4.193   1.521  12.225 -0.5659  0.1612 -0.2977
  110MOL0     C14757   4.042   1.480  12.228 -0.1378  0.1363  0.3084
  110MOL0     C14758   4.007   1.380  12.342  0.0304 -0.7768  0.4156
  110MOL0     C14759   3.866   1.309  12.333 -0.4412  0.0520 -0.4048
  110MOL0    Cl14760   3.741   1.442  12.294 -0.0277  0.6371  0.1451
  110MOL0     C14761   4.354   1.447  11.493  0.1944 -0.8384  0.4165
  110MOL0     C14762   4.333   1.401  11.358 -0.1342 -0.3165 -0.2019
  110MOL0     O14763   4.182   1.467  11.099  0.1497  0.4292  0.4718
  110MOL0     C14764   4.155   1.171  10.945  0.5369 -0.8912  0.1039
  110MOL0     C14765   4.173   1.080  10.831 -0.1462  0.0724 -0.3103
  110MOL0     N14766   4.671   1.056  10.145 -0.4491 -0.5548  0.6045
  110MOL0     N14767   4.785   0.986  10.134 -0.2037 -0.5617  0.1441
  110MOL0     C14768   5.511   1.345   9.547  0.0940  0.6049 -1.1384
  110MOL0     C14769   5.552   1.423   9.441  0.7664  0.5949 -1.2162
  110MOL0     C14770   5.857   1.689   9.206 -0.3528  0.1574  0.1684
  110MOL0     C14771   5.900   1.814   9.236 -0.1894  0.7288 -0.8046
  110MOL0     C14772   5.958   1.893   9.134  1.0969  0.2138  0.2018
  110MOL0     C14773   5.966   1.841   8.998  0.6972 -0.2438 -1.1562
  110MOL0     O14774   6.038   1.890   8.892  0.1471  0.2803 -0.0092
  110MOL0     C14775   6.109   2.009   8.897 -0.4348 -0.5527 -0.0644
  110MOL0     C14776   6.031   2.145   8.903  0.1502 -0.0251 -0.2662
  110MOL0     C14777   6.117   2.272   8.863  0.2424  0.1460  0.0170
  110MOL0     C14778   6.068   2.400   8.889 -0.1430 -0.4486  0.2996
  110MOL0     C14779   5.927   2.412   8.864 -0.5397 -0.5653 -0.4726
  110MOL0     C14780   5.811   2.439   8.849  0.1719 -0.0493 -0.5737
  110MOL0     C14781   5.907   1.719   8.978 -0.8478 -0.3541 -0.2780
  110MOL0     C14782   5.864   1.638   9.080  0.4633  0.7251 -0.3033
  110MOL0     H14783   5.853   1.276   9.374 -0.0311 -0.8515  2.0257
  110MOL0     H14784   5.758   1.116   9.571  2.8544  0.5951 -2.6662
  110MOL0     H14785   5.674   1.179   9.826  1.3176  4.8858 -0.5439
  110MOL0     H14786   5.546   1.298   9.837  0.0797  0.0023 -2.9528
  110MOL0     H14787   5.529   0.987   9.898  0.8167  0.6942 -2.1763
  110MOL0     H14788   5.503   1.129  10.014 -0.8454  0.7577 -0.1042
  110MOL0     H14789   5.303   1.190   9.903  2.2398  1.4018 -4.0974
  110MOL0     H14790   5.330   1.049   9.795  0.7836 -0.2259  0.3425
  110MOL0     H14791   5.360   0.911  10.004  0.0832  0.4675  3.6839
  110MOL0     H14792   5.276   1.031  10.097 -0.9009  0.6559 -0.0463
  110MOL0     H14793   5.100   1.028   9.906  3.7959  1.6381 -0.8109
  110MOL0     H14794   5.150   0.870   9.863 -0.5439  3.0860 -1.7073
  110MOL0     H14795   5.150   0.792  10.099 -2.0109 -2.1736  0.5674
  110MOL0     H14796   5.054   0.939  10.135 -0.4571 -1.7888  1.1661
  110MOL0     H14797   4.893   0.868   9.956 -0.7269 -0.6657 -1.9000
  110MOL0     H14798   4.977   0.706   9.964 -2.8467  0.7904 -1.8160
  110MOL0     H14799   4.907   0.716  10.219  2.9931 -2.3425 -1.7956
  110MOL0     H14800   4.788   0.666  10.098 -1.2867  1.2685 -0.4778
  110MOL0     H14801   4.577   0.758  10.240  1.9879 -0.9167  1.0700
  110MOL0     H14802   4.409   1.116  10.212  1.1581  0.2496  3.6590
  110MOL0     H14803   4.380   0.963  10.129  3.3198 -3.7916 -1.4809
  110MOL0     H14804   4.350   0.859  10.337 -0.3663 -0.5628  2.6914
  110MOL0     H14805   4.270   1.021  10.351 -0.2367 -1.0944  0.8371
  110MOL0     H14806   4.488   1.113  10.458  2.9219 -0.8518 -0.8699
  110MOL0     H14807   4.545   0.954  10.455 -0.9449 -1.0444  0.5628
  110MOL0     H14808   4.487   0.983  10.664  0.1694 -1.0987  0.8927
  110MOL0     H14809   4.401   0.860  10.592  3.8513 -0.1700  1.5459
  110MOL0     H14810   4.456   1.200  10.719  0.2531 -0.7661  0.5702
  110MOL0     H14811   4.531   1.386  10.839 -2.5723 -3.3020 -2.6602
  110MOL0     H14812   4.425   1.491  10.928  1.6658  1.1975  1.0908
  110MOL0     H14813   4.525   1.374  11.015  0.0536  1.9847  0.2686
  110MOL0     H14814   4.051   1.223  11.409  0.2445 -1.9628  2.6259
  110MOL0     H14815   4.069   1.294  11.632  1.4341 -3.4842 -0.4543
  110MOL0     H14816   4.138   1.438  11.866 -0.6191 -1.3071  1.3502
  110MOL0     H14817   4.198   1.288  11.813 -1.7575  0.4868  0.0683
  110MOL0     H14818   4.416   1.320  11.934 -0.0323  0.9934 -1.5282
  110MOL0     H14819   4.366   1.483  11.983  0.1716  0.4203 -1.6565
  110MOL0     H14820   4.319   1.222  12.105 -1.9434 -1.2395  0.9978
  110MOL0     H14821   4.163   1.281  12.075  0.1148 -0.3336  0.0322
  110MOL0     H14822   4.280   1.340  12.293 -0.5929 -1.5612 -0.6404
  110MOL0     H14823   4.390   1.447  12.201  0.0918 -0.2419 -2.9515
  110MOL0     H14824   4.221   1.598  12.153  2.0272  1.5338  1.9584
  110MOL0     H14825   4.223   1.581  12.312  0.0501 -1.2715  0.5238
  110MOL0     H14826   3.985   1.572  12.247  0.2923  1.3115 -3.3560
  110MOL0     H14827   4.012   1.430  12.135 -0.1147  0.8473 -0.0940
  110MOL0     H14828   4.007   1.446  12.429 -2.4263  2.1474 -1.5533
  110MOL0     H14829   4.079   1.300  12.360  0.5585 -0.6130 -0.8260
  110MOL0     H14830   3.845   1.265  12.431 -1.3164  2.5786  0.6040
  110MOL0     H14831   3.852   1.232  12.256  0.6125  1.5712 -2.2135
  110MOL0     H14832   4.423   1.527  11.517 -2.3823  1.3229  1.1345
  110MOL0     H14833   4.398   1.445  11.283  0.2299  3.7278  2.1878
  110MOL0     H14834   4.084   1.145  11.023 -1.0920  2.0625 -0.2409
  110MOL0     H14835   4.114   0.992  10.805 -1.6424  0.7248  0.7325
  110MOL0     H14836   5.415   1.350   9.597  1.2467  3.0925  1.1101
  110MOL0     H14837   5.482   1.493   9.397 -1.1919 -2.1293 -2.7511
  110MOL0     H14838   5.897   1.856   9.335  0.1839  0.3328 -0.6220
  110MOL0     H14839   5.982   1.991   9.172 -0.5425  0.0688  1.7444
  110MOL0     H14840   6.168   2.003   8.989  0.6504 -2.2693 -0.8103
  110MOL0     H14841   6.178   2.019   8.813 -2.6041  2.2902 -1.6723
  110MOL0     H14842   5.990   2.149   9.004  1.3377  1.3016  0.2005
  110MOL0     H14843   5.945   2.152   8.836  0.6170 -2.5809 -1.2249
  110MOL0     H14844   6.149   2.266   8.758 -0.1205 -4.3470 -0.0358
  110MOL0     H14845   6.210   2.266   8.919  0.6215  2.2195 -0.3168
  110MOL0     H14846   6.122   2.478   8.835  0.4864  0.7500  2.4969
  110MOL0     H14847   6.098   2.429   8.990  0.7820  1.8435 -0.5640
  110MOL0     H14848   5.710   2.471   8.835  0.1168  0.1251  0.1823
  110MOL0     H14849   5.915   1.685   8.875 -0.8882  1.2461 -0.8387
  110MOL0     H14850   5.838   1.534   9.064  1.9571  0.0947  1.0864
  111MOL0     O14851   6.404   2.394   2.710  0.6115  1.1576  0.0448
  111MOL0     C14852   6.304   2.445   2.659  0.3434  0.2664 -0.6335
  111MOL0     O14853   6.203   2.371   2.606  0.1721 -0.1881 -0.4372
  111MOL0     C14854   6.204   2.236   2.632 -0.7085 -0.8948 -0.4518
  111MOL0     C14855   6.218   2.178   2.756  0.2569 -0.0582  0.4563
  111MOL0     C14856   6.193   2.047   2.781  0.3260 -0.3192 -0.0243
  111MOL0     C14857   6.172   1.949   2.683 -0.3721  0.1056  0.6747
  111MOL0     O14858   6.153   1.819   2.713 -0.4536  0.0317 -0.2838
  111MOL0     C14859   6.084   1.732   2.617  0.7229 -1.3529  0.3770
  111MOL0     C14860   6.006   1.634   2.700 -0.1752  0.7403 -0.9766
  111MOL0     C14861   6.103   1.541   2.775  0.8724 -0.2554 -1.5106
  111MOL0     C14862   6.023   1.428   2.856  0.7525 -0.2885  0.5696
  111MOL0     C14863   6.118   1.335   2.926 -0.3947  0.8962 -0.8917
  111MOL0     C14864   6.171   1.384   3.067 -1.2926 -0.0017  0.6787
  111MOL0     C14865   6.278   1.295   3.125 -0.4490 -0.3768 -0.2534
  111MOL0     C14866   6.414   1.302   3.058  0.4808  0.4036  0.6389
  111MOL0     N14867   6.514   1.220   3.132  0.0061 -0.3071 -0.0898
  111MOL0     C14868   6.648   1.254   3.138 -0.6930  0.3703 -0.4584
  111MOL0     C14869   6.697   1.181   3.235 -1.5209 -0.0698  0.5004
  111MOL0     C14870   6.846   1.174   3.290  0.1127  0.4092 -0.3679
  111MOL0     C14871   6.912   1.313   3.291 -0.6187  0.5090 -0.7198
  111MOL0     C14872   7.045   1.315   3.383 -0.6197 -0.3505  0.0668
  111MOL0     C14873   7.122   1.444   3.380  0.8636 -0.1284 -0.3850
  111MOL0     O14874   7.193   1.451   3.254 -0.0935  0.2072 -0.4836
  111MOL0     C14875   7.265   1.556   3.214  0.3029  1.4167  0.7451
  111MOL0     C14876   7.244   1.688   3.256 -0.0181  0.2299  0.7805
  111MOL0     C14877   7.289   1.802   3.190 -0.4248  0.1049 -0.2989
  111MOL0     C14878   7.250   1.940   3.240  0.6640 -0.1997 -0.2067
  111MOL0     C14879   7.363   1.776   3.070  0.0651 -0.6798 -0.2995
  111MOL0     C14880   7.426   1.886   2.985 -0.5322  1.6136  0.3138
  111MOL0     O14881   7.461   1.998   3.046 -0.5123 -0.3868  0.5396
  111MOL0     C14882   7.548   2.080   2.981  0.6489 -0.3518 -0.2730
  111MOL0     C14883   7.515   2.218   2.965 -1.2512  0.0786 -0.5775
  111MOL0     C14884   7.608   2.308   2.895  1.1525 -0.6611  0.2264
  111MOL0     C14885   7.723   2.268   2.839 -0.9184 -0.3162  0.3090
  111MOL0     O14886   7.812   2.353   2.774 -0.2285  0.9694 -0.0646
  111MOL0     C14887   7.789   2.488   2.733 -0.1968 -0.6884 -0.4021
  111MOL0     C14888   7.832   2.585   2.849  0.3009  0.2380  0.0573
  111MOL0     C14889   7.803   2.727   2.825  0.5543 -0.0548  0.6848
  111MOL0     C14890   7.875   2.796   2.701 -0.7114  0.2378 -1.0326
  111MOL0     C14891   7.878   2.944   2.730 -0.0770 -0.6458 -0.4662
  111MOL0     C14892   7.923   3.028   2.609  0.0013 -0.2478  1.2368
  111MOL0     C14893   7.822   3.035   2.493  0.5564  0.1643 -0.6485
  111MOL0     C14894   7.853   3.142   2.394 -0.4163 -0.6103 -0.2197
  111MOL0    Cl14895   7.726   3.177   2.279  0.1834  0.5274  0.3753
  111MOL0     C14896   7.750   2.135   2.859 -1.0968  0.2348  0.3507
  111MOL0     C14897   7.671   2.045   2.924 -0.2844  0.4980  0.0802
  111MOL0     O14898   7.468   1.849   2.871  0.0903 -0.0556  0.4254
  111MOL0     C14899   7.386   1.642   3.021 -0.1862 -0.1673 -1.2444
  111MOL0     C14900   7.341   1.534   3.096  0.4680  0.4386  0.1191
  111MOL0     N14901   6.605   1.098   3.274  0.5134  0.9156 -0.0583
  111MOL0     N14902   6.491   1.125   3.227 -0.0958  0.5456 -0.4633
  111MOL0     C14903   6.160   2.010   2.550 -0.0013  0.0232  0.1638
  111MOL0     C14904   6.163   2.148   2.530 -0.2430 -0.4548  0.3310
  111MOL0     C14905   6.302   2.600   2.672  0.2332 -0.1811 -0.2519
  111MOL0     C14906   6.394   2.662   2.763  0.1142  0.3452  0.8878
  111MOL0     C14907   6.407   2.805   2.760  0.4046 -0.0607  0.2301
  111MOL0     C14908   6.297   2.876   2.701 -0.3279 -1.4543  0.1498
  111MOL0     O14909   6.288   3.017   2.700  0.1045 -0.0096 -0.1074
  111MOL0     C14910   6.363   3.091   2.801 -0.1228 -0.1437  0.3499
  111MOL0     C14911   6.316   3.230   2.813 -0.4820  0.5135  0.4117
  111MOL0     C14912   6.383   3.324   2.925 -0.1151 -0.6309  0.5973
  111MOL0     C14913   6.315   3.463   2.927 -0.1453  0.4043 -0.4970
  111MOL0     C14914   6.336   3.526   2.801 -0.6964 -0.7568 -0.2841
  111MOL0     C14915   6.365   3.559   2.687  0.8667  0.4553 -0.5051
  111MOL0     C14916   6.193   2.816   2.625  0.3781  0.7072 -0.0708
  111MOL0     C14917   6.202   2.673   2.606  0.3347 -1.1061  0.3460
  111MOL0     H14918   6.234   2.238   2.845  1.1558  0.6837 -0.1874
  111MOL0     H14919   6.202   2.009   2.882  4.2351 -0.6867 -0.3514
  111MOL0     H14920   6.023   1.784   2.542 -0.3910 -4.1742 -0.8170
  111MOL0     H14921   6.145   1.681   2.542 -3.0193 -0.9127 -3.3777
  111MOL0     H14922   5.949   1.697   2.768 -2.4457 -1.7536 -0.4151
  111MOL0     H14923   5.931   1.577   2.645 -1.3784  0.5713  0.7606
  111MOL0     H14924   6.182   1.498   2.712  0.4192 -2.7706 -0.4999
  111MOL0     H14925   6.147   1.599   2.856  0.5384 -1.3812 -0.4811
  111MOL0     H14926   5.950   1.469   2.925 -3.6401 -2.3722 -2.3820
  111MOL0     H14927   5.966   1.370   2.783  0.4749  0.0878  0.4835
  111MOL0     H14928   6.069   1.246   2.964  0.2412  1.9571  2.7487
  111MOL0     H14929   6.204   1.301   2.867  0.4528  0.8448  0.3524
  111MOL0     H14930   6.214   1.484   3.072 -2.4892  0.6933 -1.4287
  111MOL0     H14931   6.086   1.395   3.135 -0.1420 -1.3830  2.4209
  111MOL0     H14932   6.272   1.320   3.232 -4.1672 -0.0894 -0.3906
  111MOL0     H14933   6.236   1.194   3.129 -2.4211  0.4345  1.6043
  111MOL0     H14934   6.448   1.406   3.059  1.3538  0.1857 -1.5041
  111MOL0     H14935   6.403   1.281   2.952 -0.8341  2.0072  0.4223
  111MOL0     H14936   6.707   1.326   3.080  0.7248 -0.5976 -0.2796
  111MOL0     H14937   6.850   1.139   3.393  0.9133 -1.0253 -0.8646
  111MOL0     H14938   6.907   1.104   3.232 -0.7389  2.0513 -3.5236
  111MOL0     H14939   6.836   1.380   3.331 -1.4722  0.1756 -1.7459
  111MOL0     H14940   6.932   1.349   3.190  0.0888 -1.5709 -1.3678
  111MOL0     H14941   7.115   1.237   3.351  0.0599 -1.0838  3.0087
  111MOL0     H14942   7.025   1.296   3.489  0.7706 -2.5034 -0.0012
  111MOL0     H14943   7.193   1.435   3.463 -1.3310 -1.1462  1.5072
  111MOL0     H14944   7.050   1.524   3.402 -1.4222 -1.6263 -2.0537
  111MOL0     H14945   7.170   1.711   3.333 -0.1982  2.1127  0.1025
  111MOL0     H14946   7.258   2.019   3.166  1.5444  0.4397  0.5510
  111MOL0     H14947   7.144   1.940   3.265  0.2164  0.2208 -1.9706
  111MOL0     H14948   7.312   1.979   3.321  3.0524  4.0902 -3.6954
  111MOL0     H14949   7.428   2.246   3.025  0.8314  1.2335  2.1081
  111MOL0     H14950   7.581   2.411   2.875 -2.7897 -1.7790 -1.2228
  111MOL0     H14951   7.857   2.516   2.653 -0.7600  3.0926  0.2784
  111MOL0     H14952   7.690   2.511   2.692 -0.3837  0.6315  0.7235
  111MOL0     H14953   7.778   2.551   2.937  0.3881  1.8399  0.7496
  111MOL0     H14954   7.937   2.563   2.871  1.0209 -0.4624 -3.4435
  111MOL0     H14955   7.838   2.779   2.915  0.7483 -3.2572  2.6229
  111MOL0     H14956   7.695   2.739   2.812  0.2299  0.6345  3.4039
  111MOL0     H14957   7.975   2.754   2.688 -0.5328  0.7396 -1.3106
  111MOL0     H14958   7.833   2.774   2.602  1.1621  2.3939 -2.4089
  111MOL0     H14959   7.933   2.966   2.821 -2.8492 -1.1464  1.4587
  111MOL0     H14960   7.775   2.970   2.758  0.1917 -0.9617  0.8441
  111MOL0     H14961   7.935   3.130   2.648 -0.7419 -0.4475  1.9995
  111MOL0     H14962   8.022   3.002   2.570 -0.0158  3.5922 -2.1169
  111MOL0     H14963   7.729   3.058   2.546 -0.2192 -1.0687 -1.4458
  111MOL0     H14964   7.813   2.935   2.452  1.0727 -1.7063  3.3320
  111MOL0     H14965   7.945   3.113   2.343 -1.3348  0.4319 -2.5725
  111MOL0     H14966   7.872   3.235   2.450  3.0756 -0.0546 -2.0112
  111MOL0     H14967   7.841   2.094   2.816 -0.6302  3.2925 -1.9394
  111MOL0     H14968   7.701   1.941   2.938 -4.1121 -1.2457 -2.9059
  111MOL0     H14969   7.437   1.617   2.929 -2.9531 -1.4234 -2.5771
  111MOL0     H14970   7.341   1.437   3.048 -3.5021  0.4597 -0.2909
  111MOL0     H14971   6.138   1.944   2.467 -0.7082  0.1013  0.2793
  111MOL0     H14972   6.148   2.201   2.437 -2.6428  1.5924  1.7294
  111MOL0     H14973   6.453   2.592   2.823  0.2411 -1.6775 -1.4588
  111MOL0     H14974   6.488   2.863   2.803 -0.7801  1.2617  0.7585
  111MOL0     H14975   6.362   3.032   2.893  0.8933 -0.2505  0.3028
  111MOL0     H14976   6.470   3.100   2.778 -0.4399  0.2960 -1.0728
  111MOL0     H14977   6.209   3.220   2.831 -0.1134 -3.5837  1.1977
  111MOL0     H14978   6.313   3.278   2.715 -0.6894 -1.6691 -0.7030
  111MOL0     H14979   6.490   3.340   2.906  0.0515 -1.6571  0.5850
  111MOL0     H14980   6.373   3.273   3.021  1.2606 -0.3654  0.9085
  111MOL0     H14981   6.353   3.528   3.006  0.7867  0.3476 -0.8859
  111MOL0     H14982   6.206   3.450   2.930 -0.1353  0.5367  0.9236
  111MOL0     H14983   6.392   3.574   2.584 -0.1900  1.2641 -0.6884
  111MOL0     H14984   6.115   2.881   2.587  3.6037  3.0301 -3.3979
  111MOL0     H14985   6.129   2.615   2.550 -1.0468  2.7946 -2.4376
  112MOL0     O14986   2.376   4.887   6.636  0.7510 -1.0795 -0.4503
  112MOL0     C14987   2.342   4.879   6.756 -1.0404  0.1206 -1.0302
  112MOL0     O14988   2.404   4.806   6.857 -0.6283  0.3062 -0.6210
  112MOL0     C14989   2.540   4.763   6.834 -0.4359 -0.3686 -0.2132
  112MOL0     C14990   2.563   4.629   6.839 -0.4532  0.6672 -0.4856
  112MOL0     C14991   2.686   4.581   6.798  0.2169  0.9337  0.2749
  112MOL0     C14992   2.798   4.669   6.784  0.2109  0.3593 -0.5395
  112MOL0     O14993   2.917   4.619   6.749 -0.0772  0.2121  0.2110
  112MOL0     C14994   3.001   4.634   6.865  0.3781 -0.6943 -0.3076
  112MOL0     C14995   3.124   4.541   6.844 -0.0581  0.4715  0.4833
  112MOL0     C14996   3.097   4.388   6.825  0.0119 -0.5207  0.1774
  112MOL0     C14997   3.004   4.323   6.921  0.0493  0.0474  0.5837
  112MOL0     C14998   2.992   4.174   6.881 -1.1412  1.2147 -0.2663
  112MOL0     C14999   2.903   4.097   6.983 -1.2916 -0.1527 -0.4335
  112MOL0     C15000   2.765   4.154   7.026 -0.6042 -0.5757 -0.0447
  112MOL0     C15001   2.648   4.101   6.946 -1.2017 -0.0655 -0.5575
  112MOL0     N15002   2.508   4.157   6.954  0.2063 -0.3316 -0.4934
  112MOL0     C15003   2.488   4.298   6.973 -0.5864  0.6336  0.0233
  112MOL0     C15004   2.351   4.310   6.960 -0.0151  0.2552 -0.0447
  112MOL0     C15005   2.264   4.432   6.989  0.1996 -0.1747 -0.2337
  112MOL0     C15006   2.303   4.511   7.124  0.3686 -0.3518  0.5012
  112MOL0     C15007   2.194   4.612   7.159  0.4376  0.1826  0.3098
  112MOL0     C15008   2.104   4.560   7.275  0.7087 -0.0426 -0.1480
  112MOL0     O15009   1.998   4.656   7.304  0.2849 -0.6407  0.0377
  112MOL0     C15010   1.869   4.630   7.274 -0.2887 -0.5515 -0.2664
  112MOL0     C15011   1.822   4.526   7.192  0.2334 -0.5239  0.4383
  112MOL0     C15012   1.688   4.512   7.153 -0.4619  0.1184  0.5123
  112MOL0     C15013   1.634   4.395   7.062 -0.1501 -0.1526  0.5945
  112MOL0     C15014   1.600   4.610   7.202 -0.4661  0.1247 -0.4561
  112MOL0     C15015   1.461   4.638   7.160  1.0923 -0.0355 -0.1928
  112MOL0     O15016   1.371   4.674   7.261  0.8051 -0.9679 -0.3757
  112MOL0     C15017   1.244   4.705   7.220 -0.2172  0.7117 -0.7878
  112MOL0     C15018   1.215   4.795   7.117 -0.0355 -1.0510  0.2516
  112MOL0     C15019   1.078   4.816   7.088 -0.0867 -0.0220 -0.2167
  112MOL0     C15020   0.976   4.769   7.175  0.5981 -0.4615  0.8424
  112MOL0     O15021   0.849   4.827   7.160  0.5923 -0.2244 -1.1576
  112MOL0     C15022   0.720   4.761   7.152 -0.3335 -0.6609 -0.2615
  112MOL0     C15023   0.695   4.709   7.016 -0.5902  0.3224  0.5645
  112MOL0     C15024   0.648   4.813   6.909  0.3036 -0.2298 -0.9906
  112MOL0     C15025   0.771   4.905   6.869 -0.7084  0.6526 -0.5566
  112MOL0     C15026   0.732   5.000   6.750  0.1812  0.5561 -0.7723
  112MOL0     C15027   0.855   5.092   6.725  0.0357 -0.0370  0.1620
  112MOL0     C15028   0.802   5.233   6.698  0.0458  0.1675 -0.0691
  112MOL0     C15029   0.911   5.320   6.630 -0.7138  0.0139  0.9040
  112MOL0    Cl15030   1.037   5.399   6.728 -0.3534 -0.4186 -0.3849
  112MOL0     C15031   1.003   4.675   7.269 -0.3225  0.3636 -0.2538
  112MOL0     C15032   1.143   4.634   7.288  0.0719 -0.1852  0.9736
  112MOL0     O15033   1.430   4.583   7.048  0.4690 -0.7567  0.0174
  112MOL0     C15034   1.648   4.713   7.277 -0.2245 -0.3401 -0.3409
  112MOL0     C15035   1.777   4.722   7.323  0.3629  0.7435  0.0469
  112MOL0     N15036   2.298   4.191   6.934  0.0919 -0.2452  0.0576
  112MOL0     N15037   2.392   4.102   6.936  0.2504  0.3693  1.4057
  112MOL0     C15038   2.778   4.808   6.790 -1.1194 -0.2503  0.4004
  112MOL0     C15039   2.649   4.855   6.803  0.6668  0.1920  0.0018
  112MOL0     C15040   2.198   4.912   6.782 -0.1084 -0.2143 -1.2139
  112MOL0     C15041   2.157   4.891   6.915  0.3187 -0.5997 -0.5376
  112MOL0     C15042   2.022   4.911   6.950 -1.1289  0.3746 -0.0009
  112MOL0     C15043   1.930   4.976   6.865  0.2887 -0.2862 -0.3845
  112MOL0     O15044   1.795   4.999   6.927 -0.1712 -0.0088 -0.7962
  112MOL0     C15045   1.812   5.063   7.055  0.1034  0.2014 -0.2609
  112MOL0     C15046   1.710   5.169   7.043  0.6568 -0.6155  0.3397
  112MOL0     C15047   1.709   5.247   7.181  0.6041  0.1551  0.0761
  112MOL0     C15048   1.632   5.170   7.290 -0.7899 -0.1570  0.3480
  112MOL0     C15049   1.490   5.178   7.300  1.4954  0.2251  0.6254
  112MOL0     C15050   1.368   5.173   7.303  0.7852  0.7751 -0.2031
  112MOL0     C15051   1.975   5.006   6.736  0.8570  0.2220 -0.3761
  112MOL0     C15052   2.106   4.970   6.692  0.1138  0.2949  0.3602
  112MOL0     H15053   2.482   4.559   6.858 -0.3364  1.0728  1.7572
  112MOL0     H15054   2.707   4.476   6.788 -1.4459  0.4588  1.2769
  112MOL0     H15055   3.036   4.737   6.879 -2.9452  0.3756  1.1308
  112MOL0     H15056   2.950   4.625   6.962  0.4129 -0.2116 -0.2411
  112MOL0     H15057   3.181   4.574   6.757 -1.1492 -1.4699 -1.0597
  112MOL0     H15058   3.187   4.553   6.932  2.5467 -0.5681 -1.1344
  112MOL0     H15059   3.071   4.366   6.721  0.5447  0.3237 -0.1455
  112MOL0     H15060   3.196   4.345   6.844  0.3054  0.7695  1.8269
  112MOL0     H15061   3.051   4.335   7.019 -0.8145 -1.4445  1.2120
  112MOL0     H15062   2.909   4.376   6.930 -0.1857 -0.5325  1.8448
  112MOL0     H15063   2.960   4.151   6.778 -0.9961 -0.9995  0.1232
  112MOL0     H15064   3.094   4.138   6.894 -1.7814 -0.7433 -0.2995
  112MOL0     H15065   2.874   4.000   6.942 -4.6535 -0.1539  1.5271
  112MOL0     H15066   2.963   4.072   7.071 -2.6261  0.9368  0.8540
  112MOL0     H15067   2.757   4.130   7.133  2.3217  0.8630  0.5917
  112MOL0     H15068   2.758   4.263   7.032  1.1530 -0.1868 -3.1925
  112MOL0     H15069   2.646   3.995   6.974 -1.5570  1.1683  5.3354
  112MOL0     H15070   2.673   4.120   6.841 -1.5474  0.0362 -0.6221
  112MOL0     H15071   2.561   4.376   6.989  1.1882 -0.2405 -3.0448
  112MOL0     H15072   2.284   4.498   6.904  1.3233 -0.4901 -0.2296
  112MOL0     H15073   2.157   4.411   6.993 -0.2987  2.0079 -0.6227
  112MOL0     H15074   2.401   4.560   7.118  1.0045 -1.6924 -0.3726
  112MOL0     H15075   2.299   4.444   7.210  0.3923  1.2032  1.7637
  112MOL0     H15076   2.113   4.623   7.087 -0.5876  2.3664  1.6541
  112MOL0     H15077   2.239   4.710   7.179  1.3418 -0.0620 -0.4824
  112MOL0     H15078   2.158   4.533   7.366  1.9907  1.9020 -0.2800
  112MOL0     H15079   2.056   4.465   7.251 -4.1040  2.0077  0.1947
  112MOL0     H15080   1.894   4.454   7.155 -0.3863 -0.7768 -0.2894
  112MOL0     H15081   1.691   4.302   7.072 -1.5633 -1.0506  0.7031
  112MOL0     H15082   1.527   4.380   7.079 -0.6012  0.2649 -1.5430
  112MOL0     H15083   1.654   4.429   6.960 -0.0665 -2.1120 -0.0911
  112MOL0     H15084   1.300   4.821   7.055 -0.6705  0.8613  0.1347
  112MOL0     H15085   1.037   4.886   7.015 -0.9288  1.0877  1.2706
  112MOL0     H15086   0.723   4.679   7.225  0.8835  0.6983  1.2792
  112MOL0     H15087   0.641   4.830   7.182 -1.5914 -1.7873 -0.9100
  112MOL0     H15088   0.791   4.668   6.982  0.9269  2.0668  2.4874
  112MOL0     H15089   0.634   4.619   7.026  0.7265 -0.6607  0.1132
  112MOL0     H15090   0.564   4.873   6.946 -1.4925 -2.4390 -1.2088
  112MOL0     H15091   0.598   4.770   6.821 -3.9988  0.1854  0.9791
  112MOL0     H15092   0.790   4.965   6.958  3.4475 -2.5060  1.0010
  112MOL0     H15093   0.859   4.842   6.852 -1.2881 -0.1046 -0.8197
  112MOL0     H15094   0.635   5.048   6.765  0.5090  1.5277 -1.6266
  112MOL0     H15095   0.722   4.950   6.654  0.0653  0.8314 -0.9031
  112MOL0     H15096   0.927   5.089   6.806 -0.0217 -1.0536  0.1946
  112MOL0     H15097   0.902   5.058   6.632  0.1775  0.1574  0.1635
  112MOL0     H15098   0.779   5.275   6.797  1.3657  1.3196 -0.2335
  112MOL0     H15099   0.703   5.237   6.651 -0.6512  1.7605  1.4324
  112MOL0     H15100   0.865   5.402   6.573  1.6070  1.0269  0.3653
  112MOL0     H15101   0.976   5.261   6.564  1.2957  2.6099  0.3643
  112MOL0     H15102   0.927   4.628   7.330 -1.7247  1.3488 -1.1755
  112MOL0     H15103   1.182   4.565   7.362  0.3943 -1.7483 -0.5843
  112MOL0     H15104   1.584   4.800   7.291 -2.9834 -2.3660  0.6086
  112MOL0     H15105   1.807   4.802   7.390 -4.6251  1.9814  1.2636
  112MOL0     H15106   2.860   4.878   6.780 -0.7081 -0.6068  1.1874
  112MOL0     H15107   2.616   4.958   6.796 -2.6112 -0.6504  1.2123
  112MOL0     H15108   2.222   4.845   6.988 -2.1675 -1.0726  1.5243
  112MOL0     H15109   2.013   4.886   7.055  2.4478  1.3218  0.6567
  112MOL0     H15110   1.781   4.986   7.126 -0.7489 -3.2549 -4.0480
  112MOL0     H15111   1.907   5.117   7.065 -0.0285  0.5741 -1.0089
  112MOL0     H15112   1.608   5.130   7.034 -0.2113  1.6319 -0.2101
  112MOL0     H15113   1.731   5.234   6.958 -0.0894 -2.0579 -1.0014
  112MOL0     H15114   1.646   5.331   7.152  0.8828 -0.2413 -1.8363
  112MOL0     H15115   1.803   5.295   7.208  0.7522  0.2592 -0.5927
  112MOL0     H15116   1.664   5.219   7.383 -1.4046 -1.0482  1.0371
  112MOL0     H15117   1.656   5.064   7.285  0.0418 -0.0336  1.3129
  112MOL0     H15118   1.262   5.159   7.298  0.1298  3.5355  2.8164
  112MOL0     H15119   1.899   5.053   6.675  0.9368  0.2022 -0.4908
  112MOL0     H15120   2.124   4.997   6.588  1.4155  0.1576  0.5307
  113MOL0     O15121   5.770  10.376   6.188  0.0563  0.4637  0.5968
  113MOL0     C15122   5.709  10.402   6.084 -1.2474 -0.6248  0.8147
  113MOL0     O15123   5.588  10.445   6.078 -0.3096 -0.4539 -0.3158
  113MOL0     C15124   5.522  10.435   6.193  0.2210 -0.1844 -0.4885
  113MOL0     C15125   5.408  10.348   6.202  0.0893  0.7272 -0.4047
  113MOL0     C15126   5.324  10.361   6.307  0.7419 -0.0664 -0.1345
  113MOL0     C15127   5.339  10.456   6.416  0.6750 -0.5057 -0.0146
  113MOL0     O15128   5.249  10.473   6.523 -0.1999 -0.9413  0.0548
  113MOL0     C15129   5.114  10.417   6.507 -0.6130 -0.4876  0.4850
  113MOL0     C15130   5.020  10.431   6.619  0.0732 -1.2460 -0.1341
  113MOL0     C15131   5.019  10.583   6.660  0.1337  1.0737  0.6908
  113MOL0     C15132   4.937  10.603   6.790 -0.9859  0.4471  0.7489
  113MOL0     C15133   4.984  10.721   6.863  0.0291 -0.3693 -0.5354
  113MOL0     C15134   4.884  10.768   6.970  0.0273 -0.9270 -0.0675
  113MOL0     C15135   4.945  10.906   7.020 -0.2162  0.3635  0.2481
  113MOL0     C15136   4.889  10.934   7.159  0.8877  0.2161  0.7014
  113MOL0     N15137   4.942  11.049   7.232 -0.2581  0.4318  0.2947
  113MOL0     C15138   4.863  11.156   7.273  0.3310  0.0852  1.3160
  113MOL0     C15139   4.956  11.230   7.350  0.8246  0.8541  0.6859
  113MOL0     C15140   4.918  11.371   7.388  1.1012 -0.3953  0.2605
  113MOL0     C15141   4.941  11.392   7.541  0.4649  0.5899  0.1206
  113MOL0     C15142   4.881  11.530   7.583 -0.5774  0.0431  0.4275
  113MOL0     C15143   4.730  11.553   7.564  0.3898  0.3581  0.2416
  113MOL0     O15144   4.658  11.482   7.660  0.6372  0.2397  0.1478
  113MOL0     C15145   4.524  11.471   7.665  0.2896 -1.3698 -0.5207
  113MOL0     C15146   4.461  11.363   7.731  0.7962  0.3631  0.6723
  113MOL0     C15147   4.330  11.351   7.747  1.3635 -0.2472  0.5710
  113MOL0     C15148   4.278  11.222   7.814 -1.1422  0.4270  0.0022
  113MOL0     C15149   4.245  11.462   7.699 -1.2072  0.4165 -0.7608
  113MOL0     C15150   4.099  11.473   7.725 -0.1349 -0.3686  0.5033
  113MOL0     O15151   4.048  11.592   7.689 -0.5963 -0.8294  0.2383
  113MOL0     C15152   3.972  11.669   7.777  0.0524  1.1813  0.2147
  113MOL0     C15153   3.971  11.652   7.920 -0.1410 -0.0756  1.1279
  113MOL0     C15154   3.895  11.726   8.009  0.7828 -0.2380  1.1770
  113MOL0     C15155   3.800  11.812   7.947 -0.0438 -0.9130 -0.0839
  113MOL0     O15156   3.722  11.891   8.029 -0.7297 -0.2063 -0.9883
  113MOL0     C15157   3.577  11.881   8.031 -0.1749 -0.4370 -0.5939
  113MOL0     C15158   3.531  12.025   8.059 -0.4665  0.6072  0.6719
  113MOL0     C15159   3.395  12.061   7.987 -0.0848 -1.1336  0.7267
  113MOL0     C15160   3.346  12.199   8.048 -0.0204  0.3653  0.7095
  113MOL0     C15161   3.253  12.255   7.951  0.3492  0.2150  0.2691
  113MOL0     C15162   3.210  12.401   7.981  0.3108  1.2294 -0.2427
  113MOL0     C15163   3.124  12.393   8.111  1.0282 -0.6455  0.4424
  113MOL0     C15164   3.082  12.522   8.151  0.3974 -0.6782 -1.0081
  113MOL0    Cl15165   2.908  12.564   8.094  0.5275 -0.3738 -0.0354
  113MOL0     C15166   3.799  11.836   7.803 -0.2451 -0.0602  0.0166
  113MOL0     C15167   3.884  11.765   7.718 -1.0820 -0.4719 -0.8359
  113MOL0     O15168   4.043  11.381   7.782 -1.0892 -1.1410 -0.1449
  113MOL0     C15169   4.311  11.582   7.643 -0.0379 -0.3965 -1.2502
  113MOL0     C15170   4.447  11.572   7.616 -0.0868 -0.5206 -0.5941
  113MOL0     N15171   5.076  11.156   7.365  0.4364 -0.4976 -0.1034
  113MOL0     N15172   5.065  11.043   7.299  0.4911 -0.6081 -1.3156
  113MOL0     C15173   5.453  10.537   6.405  0.5175  0.5314 -0.0975
  113MOL0     C15174   5.540  10.530   6.302 -0.1036 -0.2653 -0.4066
  113MOL0     C15175   5.795  10.413   5.958  0.5260 -0.3488 -0.9513
  113MOL0     C15176   5.752  10.414   5.823 -0.0163 -0.3179  0.0349
  113MOL0     C15177   5.839  10.421   5.712  0.2122  0.2655  0.8272
  113MOL0     C15178   5.981  10.446   5.736  0.5198  0.0877  0.0854
  113MOL0     O15179   6.088  10.442   5.647 -0.1630 -0.6275 -0.8996
  113MOL0     C15180   6.052  10.405   5.516 -0.2852 -0.4340  1.2655
  113MOL0     C15181   6.191  10.392   5.439  0.6196 -0.5367  0.4403
  113MOL0     C15182   6.170  10.425   5.290 -0.7600  0.4845  0.3798
  113MOL0     C15183   6.307  10.402   5.229  0.2401 -1.4167  0.1754
  113MOL0     C15184   6.402  10.514   5.261 -0.5545  0.0601  0.0533
  113MOL0     C15185   6.488  10.593   5.304  0.0313 -0.0277  0.8891
  113MOL0     C15186   6.030  10.445   5.868  0.7177 -0.3999  0.3267
  113MOL0     C15187   5.937  10.438   5.977  1.4630 -0.3580 -0.9615
  113MOL0     H15188   5.369  10.279   6.127  1.7148 -2.5943  1.5757
  113MOL0     H15189   5.236  10.298   6.320  1.9267 -1.3641  2.2407
  113MOL0     H15190   5.071  10.451   6.413  0.0562 -3.0789 -0.8509
  113MOL0     H15191   5.104  10.310   6.485 -0.4719 -0.3621 -0.2104
  113MOL0     H15192   4.918  10.406   6.588 -1.1891  0.0859  2.6025
  113MOL0     H15193   5.038  10.361   6.701  1.3334  0.0467  0.7434
  113MOL0     H15194   5.123  10.611   6.680  0.2371  2.6880 -1.6988
  113MOL0     H15195   4.983  10.661   6.592 -0.9410  3.0668  3.3485
  113MOL0     H15196   4.829  10.596   6.772 -0.9849 -0.7616  1.1576
  113MOL0     H15197   4.963  10.514   6.846  0.5611 -0.6640 -1.5847
  113MOL0     H15198   5.089  10.713   6.894  0.5114 -0.0411 -1.9853
  113MOL0     H15199   4.989  10.803   6.792 -0.2817  1.2495  1.2326
  113MOL0     H15200   4.791  10.787   6.916  1.0425  2.0945 -0.9452
  113MOL0     H15201   4.856  10.698   7.050  0.2919 -0.1731  0.6927
  113MOL0     H15202   5.054  10.902   7.027  0.1139 -0.6445 -3.2982
  113MOL0     H15203   4.918  10.983   6.947 -1.1069  0.1786  0.3671
  113MOL0     H15204   4.902  10.844   7.220  2.5160 -1.7329 -2.3104
  113MOL0     H15205   4.779  10.940   7.161  0.7803 -1.3122  2.4073
  113MOL0     H15206   4.766  11.173   7.226  1.7597  0.1668 -1.8379
  113MOL0     H15207   4.979  11.433   7.322 -0.5713 -0.2427 -1.2084
  113MOL0     H15208   4.818  11.401   7.354  0.3843 -1.7313  1.0926
  113MOL0     H15209   5.046  11.384   7.569  0.3260  2.7634  1.4881
  113MOL0     H15210   4.894  11.321   7.611  1.7962 -3.0913 -2.4108
  113MOL0     H15211   4.945  11.605   7.534  3.4347 -1.9247  2.1544
  113MOL0     H15212   4.894  11.544   7.691  0.7014 -2.5533  0.6770
  113MOL0     H15213   4.693  11.525   7.465 -0.9634  2.2446  0.1686
  113MOL0     H15214   4.701  11.656   7.586 -2.5083 -0.3177 -0.0272
  113MOL0     H15215   4.530  11.282   7.753 -1.3758 -2.8770 -3.0544
  113MOL0     H15216   4.200  11.171   7.756 -0.2268 -0.2165 -0.6986
  113MOL0     H15217   4.358  11.147   7.819 -0.4856  1.2016  2.4344
  113MOL0     H15218   4.255  11.233   7.920  1.7947  2.0466  0.5963
  113MOL0     H15219   4.061  11.608   7.962  0.9504  1.2429  0.2390
  113MOL0     H15220   3.899  11.715   8.117  2.2968  0.3430  1.1895
  113MOL0     H15221   3.541  11.857   7.931  0.1299  0.0025 -0.8157
  113MOL0     H15222   3.543  11.805   8.102 -1.4349  2.5117  2.2289
  113MOL0     H15223   3.520  12.044   8.167  0.5377  1.3443  0.6563
  113MOL0     H15224   3.610  12.084   8.013 -0.0860 -1.5053 -1.5558
  113MOL0     H15225   3.322  11.985   8.014  1.1183 -2.3798  0.6075
  113MOL0     H15226   3.408  12.068   7.879 -0.2205 -2.3970  0.6147
  113MOL0     H15227   3.283  12.158   8.128 -3.0316 -0.9001 -2.0770
  113MOL0     H15228   3.427  12.268   8.072 -0.1913  0.3125  1.4677
  113MOL0     H15229   3.168  12.189   7.933 -2.0987  3.1383  0.3414
  113MOL0     H15230   3.315  12.265   7.862  1.2920  1.4741  1.0330
  113MOL0     H15231   3.298  12.463   7.999  1.6497 -0.9558  1.1906
  113MOL0     H15232   3.153  12.449   7.900 -0.3163  3.0552  1.2202
  113MOL0     H15233   3.186  12.353   8.192 -2.7405 -6.1860  1.1906
  113MOL0     H15234   3.040  12.326   8.091  1.7849 -1.4646 -0.0040
  113MOL0     H15235   3.153  12.591   8.105  3.5023 -2.1141  1.3089
  113MOL0     H15236   3.072  12.531   8.260 -0.3943 -2.0349 -0.9408
  113MOL0     H15237   3.736  11.904   7.746  3.9920  3.3005 -1.1981
  113MOL0     H15238   3.883  11.760   7.610  1.8125 -1.1652 -0.9290
  113MOL0     H15239   4.259  11.671   7.608  2.5212  1.5482 -0.3972
  113MOL0     H15240   4.487  11.656   7.560  0.2942 -2.5886 -3.7025
  113MOL0     H15241   5.467  10.605   6.489  0.4473 -1.2802  1.4458
  113MOL0     H15242   5.615  10.606   6.284 -1.0662  0.6483 -0.6414
  113MOL0     H15243   5.645  10.410   5.801 -0.0488  0.3611  0.0446
  113MOL0     H15244   5.801  10.420   5.611  1.8577  0.0152  0.1832
  113MOL0     H15245   5.983  10.320   5.517 -0.8951 -0.0435 -1.2195
  113MOL0     H15246   6.000  10.489   5.469  5.1258  0.9948 -3.1539
  113MOL0     H15247   6.244  10.297   5.456  2.4409  0.6466  1.7271
  113MOL0     H15248   6.255  10.471   5.478 -2.4448  2.2901  0.1550
  113MOL0     H15249   6.141  10.527   5.263  0.0251  1.6089  3.4168
  113MOL0     H15250   6.116  10.348   5.234  2.1309 -2.4561  1.3308
  113MOL0     H15251   6.295  10.394   5.120  3.6550 -3.2383 -0.2310
  113MOL0     H15252   6.354  10.305   5.247  0.8452 -0.9998  0.8946
  113MOL0     H15253   6.562  10.660   5.344 -1.5655  1.0246  2.2335
  113MOL0     H15254   6.136  10.465   5.881  0.8941 -0.3223 -1.1123
  113MOL0     H15255   5.979  10.454   6.075 -2.3239 -0.5891  0.8806
  114MOL0     O15256   6.997   4.969   5.698 -0.1718 -1.2682  0.3084
  114MOL0     C15257   6.963   4.859   5.729 -0.1201 -0.0192  0.3836
  114MOL0     O15258   6.862   4.782   5.662 -0.5558  0.8123 -0.1974
  114MOL0     C15259   6.811   4.828   5.546 -0.4625  0.8736  0.1578
  114MOL0     C15260   6.677   4.857   5.536 -0.2655 -0.7378  0.2056
  114MOL0     C15261   6.627   4.923   5.424  0.8951  0.6033 -0.1763
  114MOL0     C15262   6.715   4.946   5.319 -0.2668 -0.7311  0.6093
  114MOL0     O15263   6.665   4.995   5.198  0.7987  0.4603 -0.3298
  114MOL0     C15264   6.722   5.115   5.158  0.0564  0.2170 -0.4695
  114MOL0     C15265   6.623   5.223   5.189  0.2584 -0.4301 -0.0876
  114MOL0     C15266   6.670   5.360   5.145 -1.1444 -0.1491  0.1159
  114MOL0     C15267   6.737   5.440   5.261 -0.2487 -0.1059 -0.0485
  114MOL0     C15268   6.802   5.576   5.220 -0.3134  0.5364 -0.6380
  114MOL0     C15269   6.866   5.651   5.339 -0.7043 -0.5699 -0.2603
  114MOL0     C15270   6.869   5.803   5.338  1.0816 -0.2765  0.2808
  114MOL0     C15271   6.725   5.870   5.333 -0.6271  0.5686  0.0132
  114MOL0     N15272   6.670   5.945   5.222  0.7403  0.2444 -1.7399
  114MOL0     C15273   6.745   6.034   5.154 -0.7205  0.4302  0.7902
  114MOL0     C15274   6.663   6.072   5.055 -0.7434 -0.3797 -0.2241
  114MOL0     C15275   6.684   6.147   4.933  0.3708  0.3399  0.1855
  114MOL0     C15276   6.647   6.069   4.816  0.8058 -0.4645  0.3008
  114MOL0     C15277   6.700   6.113   4.674  0.3255  0.1077  0.4138
  114MOL0     C15278   6.679   6.031   4.559 -0.1694  0.9633 -0.2526
  114MOL0     O15279   6.541   6.016   4.530  0.7469 -0.1927  0.1449
  114MOL0     C15280   6.509   5.942   4.412  0.5540  0.0491 -0.5888
  114MOL0     C15281   6.526   5.809   4.417 -0.0961  0.5800 -0.5497
  114MOL0     C15282   6.478   5.723   4.318 -0.3902 -0.5408  0.4214
  114MOL0     C15283   6.477   5.575   4.350 -1.1586  0.4540  0.0194
  114MOL0     C15284   6.411   5.779   4.204  0.1534 -0.3963 -0.2033
  114MOL0     C15285   6.366   5.706   4.086  0.1480 -0.0622 -0.5636
  114MOL0     O15286   6.326   5.779   3.985 -0.8032 -0.4118 -0.7080
  114MOL0     C15287   6.291   5.726   3.857 -0.2162  0.0127 -0.1554
  114MOL0     C15288   6.322   5.604   3.797  0.5311 -0.0043 -0.1998
  114MOL0     C15289   6.283   5.569   3.663 -0.3597 -0.9689 -0.5244
  114MOL0     C15290   6.226   5.661   3.581  0.3362 -0.5328 -0.0159
  114MOL0     O15291   6.188   5.614   3.461 -0.1897  0.0451  0.3076
  114MOL0     C15292   6.084   5.696   3.394  0.4714  1.3702 -0.2200
  114MOL0     C15293   6.006   5.596   3.301  0.3289 -0.5520 -0.5620
  114MOL0     C15294   6.105   5.515   3.208  0.5163 -0.6168 -0.4213
  114MOL0     C15295   6.035   5.432   3.102  0.5324  0.1274 -0.2837
  114MOL0     C15296   6.126   5.341   3.016  0.2102 -0.0116 -0.4391
  114MOL0     C15297   6.234   5.408   2.934 -0.4417 -0.4435  1.0380
  114MOL0     C15298   6.360   5.422   3.014 -0.2139 -0.0916  0.2764
  114MOL0     C15299   6.487   5.487   2.948 -0.9137  0.4432  0.6341
  114MOL0    Cl15300   6.648   5.460   3.032  0.0548  0.0954  0.1724
  114MOL0     C15301   6.205   5.795   3.636 -0.5098 -0.1932 -0.4333
  114MOL0     C15302   6.228   5.818   3.774  0.1229 -0.7146  0.0809
  114MOL0     O15303   6.349   5.583   4.095  0.7429  0.0549 -0.2109
  114MOL0     C15304   6.395   5.918   4.204  0.8123  0.2491 -0.7146
  114MOL0     C15305   6.443   5.999   4.314  1.4024  0.7003  0.1361
  114MOL0     N15306   6.536   6.011   5.071 -0.5273 -0.4052 -0.5537
  114MOL0     N15307   6.545   5.937   5.164 -0.5712  0.5691 -0.7454
  114MOL0     C15308   6.852   4.917   5.317 -1.0747 -1.0415 -0.9841
  114MOL0     C15309   6.897   4.852   5.435 -0.0837  0.9664  0.0116
  114MOL0     C15310   7.023   4.793   5.845 -0.3967 -1.5878  0.2266
  114MOL0     C15311   7.094   4.871   5.940 -0.7305 -0.8199  0.4798
  114MOL0     C15312   7.158   4.818   6.052 -0.5555  0.4710  0.2709
  114MOL0     C15313   7.150   4.680   6.079 -0.9281  0.1905  0.3043
  114MOL0     O15314   7.249   4.634   6.162  0.4960 -0.2852 -0.5580
  114MOL0     C15315   7.277   4.502   6.130  0.3946  0.1614 -0.1001
  114MOL0     C15316   7.423   4.459   6.175  0.0297  0.3054  0.1211
  114MOL0     C15317   7.446   4.305   6.175  0.0246  0.6037  0.0791
  114MOL0     C15318   7.431   4.246   6.030 -0.0222 -0.2264 -0.3601
  114MOL0     C15319   7.499   4.116   6.020 -0.9331 -0.9720 -0.6763
  114MOL0     C15320   7.556   4.008   6.005  0.4242  0.1970  0.2381
  114MOL0     C15321   7.062   4.608   5.995  0.1320 -0.3103 -0.3475
  114MOL0     C15322   7.007   4.660   5.880  0.3943 -0.7691  0.1606
  114MOL0     H15323   6.613   4.837   5.621 -0.4127  1.0276  0.5451
  114MOL0     H15324   6.520   4.931   5.406  0.3325 -4.6384 -0.9744
  114MOL0     H15325   6.815   5.138   5.209  0.3927 -3.0321  0.5911
  114MOL0     H15326   6.727   5.108   5.049 -0.7404  2.3693 -0.7006
  114MOL0     H15327   6.526   5.200   5.145 -1.1302 -0.4579  2.7216
  114MOL0     H15328   6.605   5.227   5.297 -2.0294  0.4329 -0.4343
  114MOL0     H15329   6.739   5.348   5.061 -1.0832  0.1371  0.1239
  114MOL0     H15330   6.578   5.414   5.121 -0.5105 -0.0385 -2.4402
  114MOL0     H15331   6.662   5.462   5.338  1.1079  1.4176  0.9028
  114MOL0     H15332   6.816   5.369   5.286  1.8065  1.9371 -0.3357
  114MOL0     H15333   6.881   5.556   5.147 -0.6625 -2.1875 -0.3859
  114MOL0     H15334   6.730   5.645   5.176  0.7363  2.6668  0.8036
  114MOL0     H15335   6.823   5.616   5.433  1.4095  2.0847  1.8527
  114MOL0     H15336   6.970   5.616   5.343 -2.1506 -5.6365  0.4342
  114MOL0     H15337   6.932   5.828   5.424  1.7139 -0.3351 -0.1522
  114MOL0     H15338   6.927   5.837   5.251  1.6251 -1.7542  0.0244
  114MOL0     H15339   6.721   5.941   5.417  0.0558 -0.5929  1.0707
  114MOL0     H15340   6.655   5.787   5.349 -0.3200  0.5699  1.5713
  114MOL0     H15341   6.852   6.046   5.147 -0.4467 -2.2078 -1.0655
  114MOL0     H15342   6.636   6.244   4.948  1.4097  0.8356  0.3807
  114MOL0     H15343   6.793   6.152   4.929  0.6203 -2.6938  0.9707
  114MOL0     H15344   6.538   6.081   4.807  1.0786  2.8226  0.0840
  114MOL0     H15345   6.673   5.963   4.825  3.0845 -0.3580 -3.1439
  114MOL0     H15346   6.809   6.117   4.686  0.2656 -1.7817  2.0092
  114MOL0     H15347   6.661   6.210   4.642  0.2619  0.3249  1.1485
  114MOL0     H15348   6.714   5.929   4.578 -1.1008  0.2390 -2.1503
  114MOL0     H15349   6.735   6.048   4.467  0.8985 -0.4613  0.0967
  114MOL0     H15350   6.574   5.760   4.501  0.9450 -0.9918 -2.0202
  114MOL0     H15351   6.373   5.543   4.360 -0.2951 -2.2563  1.2516
  114MOL0     H15352   6.525   5.516   4.272 -1.8864 -0.7473  0.4474
  114MOL0     H15353   6.519   5.556   4.450  1.4559 -0.3126 -1.1449
  114MOL0     H15354   6.383   5.531   3.848  1.3585  1.7303  1.4232
  114MOL0     H15355   6.307   5.467   3.633  0.1250 -1.4016  1.2094
  114MOL0     H15356   6.009   5.740   3.460 -1.5542 -2.1347  0.0997
  114MOL0     H15357   6.123   5.780   3.336 -0.2177  2.6622  1.1457
  114MOL0     H15358   5.948   5.520   3.355  1.9055 -2.5278 -1.4986
  114MOL0     H15359   5.925   5.642   3.244 -0.5249 -4.2335 -2.7073
  114MOL0     H15360   6.164   5.439   3.260  0.7251 -0.5992 -0.6304
  114MOL0     H15361   6.179   5.585   3.169  0.3987  0.7626  1.6608
  114MOL0     H15362   5.973   5.363   3.161  0.4213  2.3751  2.4151
  114MOL0     H15363   5.975   5.497   3.037 -0.8848 -1.3717 -0.5489
  114MOL0     H15364   6.048   5.300   2.951 -3.0535  2.7446  1.3796
  114MOL0     H15365   6.166   5.262   3.079 -0.6281 -0.3895 -0.3644
  114MOL0     H15366   6.257   5.340   2.852 -0.0918  0.9149 -0.0366
  114MOL0     H15367   6.196   5.506   2.902 -1.5982 -0.9096  0.9386
  114MOL0     H15368   6.389   5.322   3.049 -3.4139 -0.9398  0.8876
  114MOL0     H15369   6.338   5.479   3.104 -0.0921  1.3437 -0.5799
  114MOL0     H15370   6.467   5.593   2.961 -1.7915  0.1715  1.6161
  114MOL0     H15371   6.492   5.454   2.844 -2.1679 -2.9311  1.4906
  114MOL0     H15372   6.148   5.865   3.575 -0.0912  0.0636 -0.5309
  114MOL0     H15373   6.210   5.919   3.810  0.2358 -0.4819 -0.4995
  114MOL0     H15374   6.346   5.968   4.122 -0.7971  1.5446  0.9535
  114MOL0     H15375   6.429   6.106   4.320  1.3417  0.9841 -3.1862
  114MOL0     H15376   6.924   4.939   5.239 -0.6609  1.4745  0.0096
  114MOL0     H15377   6.995   4.805   5.435  0.9433  2.9780 -0.0402
  114MOL0     H15378   7.100   4.979   5.928  3.8245 -0.9476 -0.3810
  114MOL0     H15379   7.228   4.883   6.103  0.6498 -1.6190  1.4448
  114MOL0     H15380   7.193   4.439   6.162 -0.5724  1.6538  0.3922
  114MOL0     H15381   7.284   4.492   6.021 -0.9181  0.2581 -0.2072
  114MOL0     H15382   7.435   4.487   6.280  1.4051  0.9373 -0.1844
  114MOL0     H15383   7.502   4.513   6.122  0.3012 -1.0153 -0.8818
  114MOL0     H15384   7.370   4.259   6.240  0.5956  1.7537  1.6223
  114MOL0     H15385   7.545   4.276   6.211  1.1287  2.3252 -1.4095
  114MOL0     H15386   7.482   4.299   5.949  0.9009  0.3128  0.5442
  114MOL0     H15387   7.325   4.230   6.008 -0.7543 -0.2538  2.7017
  114MOL0     H15388   7.601   3.915   5.977 -2.4527 -0.2995 -3.5869
  114MOL0     H15389   7.030   4.508   6.023 -0.2074 -2.0100 -5.6526
  114MOL0     H15390   6.947   4.595   5.817 -2.0525 -1.1921  2.7146
  115MOL0     O15391   0.052   0.699   3.062  0.6031  0.1310  0.5155
  115MOL0     C15392   0.163   0.711   3.015 -0.3946  0.3120 -0.1927
  115MOL0     O15393   0.193   0.753   2.890  0.0567 -0.7362 -0.8412
  115MOL0     C15394   0.105   0.844   2.829  0.2475  0.2458 -1.5402
  115MOL0     C15395  -0.009   0.906   2.878  0.2748 -0.5534 -0.2179
  115MOL0     C15396  -0.091   0.985   2.796 -0.9321  0.3129 -0.1352
  115MOL0     C15397  -0.056   1.021   2.668 -0.3831  0.6242  0.2555
  115MOL0     O15398  -0.140   1.102   2.590  1.1349 -0.2404  0.0971
  115MOL0     C15399  -0.151   1.079   2.443 -0.5322 -0.1908  0.6222
  115MOL0     C15400  -0.263   1.161   2.393  0.1042  0.1193  0.2948
  115MOL0     C15401  -0.252   1.178   2.239 -0.0644 -0.4288 -0.2982
  115MOL0     C15402  -0.380   1.268   2.191  0.2366  0.1183 -0.1427
  115MOL0     C15403  -0.402   1.241   2.043 -0.0115 -0.4042  0.2800
  115MOL0     C15404  -0.452   1.359   1.960 -0.5317  0.4455 -0.0491
  115MOL0     C15405  -0.493   1.320   1.814  0.5762  0.4754  0.0088
  115MOL0     C15406  -0.526   1.437   1.725 -0.6362  0.4457  0.8442
  115MOL0     N15407  -0.417   1.530   1.725  0.2104 -0.4144  0.8554
  115MOL0     C15408  -0.306   1.528   1.644 -0.5404  1.0762  0.3788
  115MOL0     C15409  -0.243   1.647   1.677 -0.2998  0.4919 -0.2431
  115MOL0     C15410  -0.114   1.698   1.608  0.8617 -0.1042  0.4174
  115MOL0     C15411  -0.115   1.698   1.448 -0.2603  0.5908 -0.0085
  115MOL0     C15412   0.037   1.692   1.410  0.1770 -0.4785  0.3996
  115MOL0     C15413   0.053   1.666   1.257  0.5423  0.2843 -0.1163
  115MOL0     O15414   0.187   1.621   1.228  0.9853 -0.5625 -0.6983
  115MOL0     C15415   0.277   1.709   1.163 -0.6869 -0.4409  0.1257
  115MOL0     C15416   0.254   1.841   1.130  0.5426 -0.8409  0.1061
  115MOL0     C15417   0.344   1.928   1.071 -0.1001  1.3912  0.1256
  115MOL0     C15418   0.283   2.059   1.025  0.2815 -0.5217 -0.3098
  115MOL0     C15419   0.460   1.865   1.025 -0.5660 -0.5812 -0.1173
  115MOL0     C15420   0.570   1.948   0.954 -0.2563 -0.1320 -0.3466
  115MOL0     O15421   0.670   1.876   0.887 -0.4807  0.0775 -0.3579
  115MOL0     C15422   0.793   1.926   0.872 -0.2136  0.6454 -0.2501
  115MOL0     C15423   0.861   2.013   0.962  0.4265 -1.1516  0.0218
  115MOL0     C15424   0.994   2.034   0.943  0.1750 -0.7769  0.2051
  115MOL0     C15425   1.065   1.981   0.828 -0.2663 -0.6859 -0.1784
  115MOL0     O15426   1.201   2.004   0.797 -0.6236  0.5698  0.6228
  115MOL0     C15427   1.277   2.090   0.884 -1.6726 -0.4607 -0.2136
  115MOL0     C15428   1.344   2.182   0.780 -0.1804 -0.4058 -0.5375
  115MOL0     C15429   1.425   2.287   0.856  0.5774 -0.0156 -0.4718
  115MOL0     C15430   1.467   2.397   0.749 -0.0004  0.5913 -0.3948
  115MOL0     C15431   1.526   2.518   0.816  0.3851 -0.2696 -0.1624
  115MOL0     C15432   1.667   2.505   0.882  0.0214 -0.0761 -0.1398
  115MOL0     C15433   1.727   2.644   0.932  1.1746  0.5511  0.1845
  115MOL0     C15434   1.871   2.639   0.980  0.1445  0.5155 -0.0792
  115MOL0    Cl15435   1.891   2.533   1.118 -0.1356 -0.3902 -0.2991
  115MOL0     C15436   0.994   1.902   0.737  1.2479  0.4104  1.0247
  115MOL0     C15437   0.862   1.879   0.761  0.0969  0.4512 -0.4885
  115MOL0     O15438   0.573   2.069   0.969  0.3385 -0.1765  0.0756
  115MOL0     C15439   0.489   1.733   1.060 -1.1161 -0.1172  0.7909
  115MOL0     C15440   0.399   1.658   1.130  0.0523  0.2416  0.3151
  115MOL0     N15441  -0.324   1.725   1.761  0.9250  0.0699  0.0511
  115MOL0     N15442  -0.418   1.650   1.783 -1.0253  0.3165  0.4481
  115MOL0     C15443   0.066   0.966   2.623 -0.9313 -0.1235 -0.6494
  115MOL0     C15444   0.141   0.880   2.698  0.3328  1.4686 -0.1498
  115MOL0     C15445   0.282   0.684   3.110  0.1045  0.1222  0.1142
  115MOL0     C15446   0.259   0.626   3.237  0.0006 -0.7289  0.0649
  115MOL0     C15447   0.351   0.609   3.335 -0.0188 -0.7497  0.5870
  115MOL0     C15448   0.484   0.650   3.310  0.6616 -0.4731  0.4540
  115MOL0     O15449   0.570   0.609   3.407  0.5315  0.0150 -0.2840
  115MOL0     C15450   0.666   0.713   3.441  0.1422  0.7109  0.3812
  115MOL0     C15451   0.606   0.840   3.503 -0.5606 -0.3153 -0.3995
  115MOL0     C15452   0.581   0.833   3.645 -0.0324 -0.4584  0.5725
  115MOL0     C15453   0.486   0.944   3.688 -0.3464 -0.1717 -0.2955
  115MOL0     C15454   0.520   0.993   3.825 -0.0837  0.6510  0.4460
  115MOL0     C15455   0.550   1.009   3.945  0.1130 -0.1447 -0.3821
  115MOL0     C15456   0.515   0.693   3.183  0.0740  0.1456 -1.0349
  115MOL0     C15457   0.419   0.707   3.085 -0.4792 -0.3344  0.0930
  115MOL0     H15458  -0.058   0.902   2.975 -0.4995  0.0970 -0.5709
  115MOL0     H15459  -0.188   1.023   2.828  0.2638  0.2211  4.2836
  115MOL0     H15460  -0.065   1.134   2.405 -0.6339  1.2478  2.3497
  115MOL0     H15461  -0.155   0.977   2.404  1.5998  1.0725 -3.5100
  115MOL0     H15462  -0.357   1.118   2.426 -0.1298  1.3551  1.3405
  115MOL0     H15463  -0.256   1.258   2.443  1.2104  0.1608  0.0986
  115MOL0     H15464  -0.157   1.218   2.201 -0.2732 -1.1375 -1.6204
  115MOL0     H15465  -0.261   1.079   2.193 -1.1943 -0.2569 -0.4594
  115MOL0     H15466  -0.467   1.232   2.246 -0.1879  0.3538 -0.6457
  115MOL0     H15467  -0.374   1.377   2.202  1.6477  0.1425 -0.8093
  115MOL0     H15468  -0.311   1.205   1.995 -0.7311  1.5441 -2.8812
  115MOL0     H15469  -0.486   1.171   2.048 -1.2103  1.0302  1.4475
  115MOL0     H15470  -0.542   1.383   2.016 -1.6560 -1.7344 -0.8079
  115MOL0     H15471  -0.383   1.443   1.949  1.2723 -1.0463 -0.8073
  115MOL0     H15472  -0.414   1.260   1.767  2.3031  0.9329  2.2031
  115MOL0     H15473  -0.584   1.259   1.815  0.6436  0.3844  0.7394
  115MOL0     H15474  -0.612   1.493   1.765  0.7644  5.3718 -2.1718
  115MOL0     H15475  -0.556   1.417   1.622 -2.3845 -0.5619  1.4893
  115MOL0     H15476  -0.278   1.470   1.557 -2.6306  1.3038 -0.5265
  115MOL0     H15477  -0.098   1.802   1.638 -0.0915  0.8512 -2.1324
  115MOL0     H15478  -0.034   1.636   1.650  0.3497  0.1716  1.8757
  115MOL0     H15479  -0.156   1.791   1.408  0.2871  1.8782  2.1991
  115MOL0     H15480  -0.159   1.603   1.419  0.2938  0.0967  0.7170
  115MOL0     H15481   0.078   1.605   1.461  2.6064 -0.2335 -0.9880
  115MOL0     H15482   0.081   1.790   1.426 -1.1737  0.4850 -1.3604
  115MOL0     H15483   0.024   1.759   1.207  1.0951  0.3429 -0.3292
  115MOL0     H15484  -0.014   1.587   1.220  0.3318  0.2059  0.4170
  115MOL0     H15485   0.165   1.886   1.172  2.3085  4.2897 -0.9715
  115MOL0     H15486   0.174   2.061   1.016  0.3329  0.6976 -0.8246
  115MOL0     H15487   0.320   2.137   1.093  0.0974 -0.6511 -0.0623
  115MOL0     H15488   0.323   2.083   0.926 -0.6097  1.3339 -0.2578
  115MOL0     H15489   0.816   2.054   1.052  3.2996  1.5315  0.4066
  115MOL0     H15490   1.044   2.087   1.024  0.5316  0.6853 -0.9273
  115MOL0     H15491   1.212   2.157   0.941  0.8372  1.9613  0.0193
  115MOL0     H15492   1.359   2.049   0.944  2.0558  4.7546 -1.0235
  115MOL0     H15493   1.402   2.139   0.698  0.2963  1.7270 -1.3764
  115MOL0     H15494   1.259   2.232   0.733  0.1775  0.2144 -0.5320
  115MOL0     H15495   1.510   2.237   0.902 -2.8723 -4.7356  1.6790
  115MOL0     H15496   1.366   2.330   0.937 -1.4165 -2.5134 -0.4573
  115MOL0     H15497   1.539   2.363   0.674  0.7628  1.0588  0.1082
  115MOL0     H15498   1.377   2.430   0.697 -2.0192  3.2438  4.2237
  115MOL0     H15499   1.460   2.559   0.892 -1.3829  1.9654 -2.6882
  115MOL0     H15500   1.544   2.598   0.743 -0.4177  0.7643  0.7495
  115MOL0     H15501   1.672   2.442   0.971 -2.4649 -1.1612 -0.6798
  115MOL0     H15502   1.733   2.459   0.807  0.1707  0.9730 -0.6613
  115MOL0     H15503   1.673   2.687   1.016  0.9266 -0.2041  0.4234
  115MOL0     H15504   1.718   2.718   0.852  0.0894  0.4169  0.1645
  115MOL0     H15505   1.897   2.738   1.019 -0.9789  2.2366 -3.3121
  115MOL0     H15506   1.948   2.622   0.904 -0.0149 -3.2928  0.3928
  115MOL0     H15507   1.041   1.861   0.648 -1.0249 -1.0467  0.4111
  115MOL0     H15508   0.804   1.828   0.684 -2.5974 -0.2051  1.7868
  115MOL0     H15509   0.583   1.687   1.029  0.6259  2.1615  2.2719
  115MOL0     H15510   0.415   1.552   1.147  2.1371  0.4913  0.2621
  115MOL0     H15511   0.092   0.985   2.520 -0.2443 -2.3571 -0.9455
  115MOL0     H15512   0.236   0.852   2.653 -0.7120  0.9214 -2.1018
  115MOL0     H15513   0.160   0.599   3.272  1.0216 -3.6055  1.0582
  115MOL0     H15514   0.314   0.564   3.426 -1.7319 -1.6622 -0.5176
  115MOL0     H15515   0.747   0.665   3.496  0.8569 -1.4103 -2.3025
  115MOL0     H15516   0.722   0.753   3.356  0.2216  2.7084  1.3142
  115MOL0     H15517   0.509   0.860   3.456 -1.6753 -1.2102  1.3993
  115MOL0     H15518   0.672   0.924   3.481  0.1799 -0.6317  0.5280
  115MOL0     H15519   0.671   0.848   3.705  0.0338  0.5229  0.2373
  115MOL0     H15520   0.527   0.745   3.681 -0.2866 -0.5411 -0.0039
  115MOL0     H15521   0.387   0.897   3.691  1.2643 -3.9153  1.3845
  115MOL0     H15522   0.501   1.030   3.624 -0.4737 -0.9264 -1.3607
  115MOL0     H15523   0.589   1.041   4.039 -0.4840  1.7552 -0.7477
  115MOL0     H15524   0.620   0.710   3.165  0.1321 -1.1964 -2.1322
  115MOL0     H15525   0.456   0.737   2.987  1.3445 -1.4689  0.3935
  116MOL0     O15526   4.516   8.561  10.830 -0.1822 -0.3664  0.6224
  116MOL0     C15527   4.599   8.480  10.790 -0.0530  0.1042 -0.0638
  116MOL0     O15528   4.703   8.515  10.698  0.2802 -0.6388 -0.3800
  116MOL0     C15529   4.715   8.641  10.641  0.3152 -0.3783 -0.4242
  116MOL0     C15530   4.726   8.635  10.498  0.0578  0.7378 -0.5885
  116MOL0     C15531   4.739   8.748  10.428 -0.7546  0.0644  0.1807
  116MOL0     C15532   4.726   8.876  10.488  0.7253  0.0792 -0.4882
  116MOL0     O15533   4.744   8.981  10.401  0.3640  0.9247 -0.1571
  116MOL0     C15534   4.709   9.104  10.459  0.1834  0.1424 -0.1142
  116MOL0     C15535   4.688   9.186  10.330 -0.9594 -0.1406  0.5004
  116MOL0     C15536   4.819   9.212  10.254  0.1128  0.0250  0.0027
  116MOL0     C15537   4.934   9.255  10.343 -0.6052  0.1723  0.4196
  116MOL0     C15538   5.044   9.328  10.254 -0.1554 -0.2718 -0.2088
  116MOL0     C15539   5.190   9.330  10.313 -0.6662 -0.1128  0.2956
  116MOL0     C15540   5.252   9.461  10.319 -0.2645 -0.5196  0.3425
  116MOL0     C15541   5.290   9.529  10.185  0.3270 -0.3822 -0.2557
  116MOL0     N15542   5.386   9.457  10.109  0.3041 -0.2368 -0.5407
  116MOL0     C15543   5.512   9.433  10.147  0.0003  0.7621 -0.3117
  116MOL0     C15544   5.567   9.360  10.044 -0.3249 -0.5277  0.1479
  116MOL0     C15545   5.705   9.312  10.034  0.3351 -0.7745  0.6777
  116MOL0     C15546   5.735   9.214  10.142 -0.7631  0.0547  0.3774
  116MOL0     C15547   5.883   9.172  10.145  0.0929 -0.1801  0.1496
  116MOL0     C15548   5.979   9.272  10.201  0.6074 -0.9013  0.1620
  116MOL0     O15549   6.101   9.207  10.199 -0.4356 -0.8845 -0.2355
  116MOL0     C15550   6.219   9.265  10.222 -0.4048 -1.0381  0.3132
  116MOL0     C15551   6.236   9.388  10.288 -0.7812 -0.8448 -0.0031
  116MOL0     C15552   6.364   9.437  10.309  0.5687 -0.6949 -0.2110
  116MOL0     C15553   6.368   9.581  10.371 -0.2767 -0.3969 -0.0147
  116MOL0     C15554   6.476   9.374  10.252 -0.1846  0.4913  0.2141
  116MOL0     C15555   6.615   9.432  10.254  0.4696  0.9804  0.5374
  116MOL0     O15556   6.707   9.336  10.281 -0.4835 -0.7987 -0.1194
  116MOL0     C15557   6.834   9.379  10.315 -0.2108 -0.9119 -0.2543
  116MOL0     C15558   6.861   9.435  10.441 -0.1674 -0.4632  0.7025
  116MOL0     C15559   7.000   9.477  10.468  0.3748  0.0558 -0.2602
  116MOL0     C15560   7.099   9.459  10.371 -0.1689 -0.4094 -0.0576
  116MOL0     O15561   7.228   9.511  10.372 -0.1533 -0.0464 -0.2187
  116MOL0     C15562   7.246   9.607  10.481  0.6113 -0.5708 -0.1270
  116MOL0     C15563   7.374   9.674  10.439  0.0135 -0.0220 -0.4248
  116MOL0     C15564   7.338   9.789  10.337 -0.6425  0.4819  0.7761
  116MOL0     C15565   7.465   9.865  10.294 -0.2511 -0.0516  0.7009
  116MOL0     C15566   7.435   9.988  10.204  1.2312  0.9158 -0.5640
  116MOL0     C15567   7.386   9.967  10.064  0.0162  0.4646  0.7815
  116MOL0     C15568   7.400  10.095   9.972 -0.5552  0.6938  0.3362
  116MOL0     C15569   7.283  10.128   9.877 -0.0805  0.2326 -0.4676
  116MOL0    Cl15570   7.280   9.997   9.761  0.2912  0.1510  0.1608
  116MOL0     C15571   7.062   9.408  10.249 -0.5939 -0.7007  0.0738
  116MOL0     C15572   6.933   9.371  10.225 -0.4476  0.7290  1.2209
  116MOL0     O15573   6.636   9.549  10.267  0.1168  0.0226 -0.1119
  116MOL0     C15574   6.466   9.253  10.191  0.7390 -0.3460 -1.1162
  116MOL0     C15575   6.334   9.202  10.180 -1.4509 -0.3195 -0.2147
  116MOL0     N15576   5.465   9.325   9.961  0.1054 -0.5323 -0.2187
  116MOL0     N15577   5.358   9.382  10.005 -0.5539  0.3841  1.2245
  116MOL0     C15578   4.713   8.883  10.628 -0.3056  0.8119  0.5948
  116MOL0     C15579   4.703   8.765  10.704 -0.6048  0.3388  0.0963
  116MOL0     C15580   4.578   8.346  10.833 -0.3479  0.0107 -0.4420
  116MOL0     C15581   4.660   8.248  10.779  0.5847 -0.0468 -0.6671
  116MOL0     C15582   4.641   8.115  10.826  0.1499  0.5157  0.6955
  116MOL0     C15583   4.558   8.079  10.927  0.1108  0.2452 -1.0777
  116MOL0     O15584   4.565   7.946  10.968 -0.7543  0.1761 -0.4618
  116MOL0     C15585   4.529   7.903  11.107  0.0041  0.0007  0.4038
  116MOL0     C15586   4.621   7.974  11.224  0.9092 -0.0027  0.2511
  116MOL0     C15587   4.606   7.908  11.369  0.7200  0.6232  1.5384
  116MOL0     C15588   4.461   7.932  11.423  0.0958 -0.3517 -0.6657
  116MOL0     C15589   4.462   7.857  11.551 -0.0112 -0.4927  0.0518
  116MOL0     C15590   4.471   7.784  11.648  0.0353 -0.2385  0.9896
  116MOL0     C15591   4.491   8.186  10.992  0.6470 -0.0255 -0.5971
  116MOL0     C15592   4.491   8.315  10.937  0.5619  0.5136 -0.0847
  116MOL0     H15593   4.731   8.540  10.446  1.8101  0.7490 -0.5106
  116MOL0     H15594   4.765   8.753  10.323 -0.6379  2.3399  0.2533
  116MOL0     H15595   4.612   9.107  10.510  0.6238  1.9894  0.6970
  116MOL0     H15596   4.778   9.141  10.535  0.1189 -0.6697  0.3513
  116MOL0     H15597   4.619   9.137  10.260  0.5150 -1.2305 -0.2737
  116MOL0     H15598   4.649   9.278  10.372  1.1230 -0.1193  2.5528
  116MOL0     H15599   4.849   9.119  10.204  1.3919  0.4857 -0.1404
  116MOL0     H15600   4.789   9.285  10.178 -3.1342 -0.0315  1.0772
  116MOL0     H15601   4.910   9.331  10.418  0.6194  0.4434  0.5635
  116MOL0     H15602   4.967   9.171  10.404 -3.6594 -2.1029 -0.8020
  116MOL0     H15603   5.050   9.276  10.158  0.9683  0.7112 -0.6891
  116MOL0     H15604   5.013   9.432  10.245  3.1575  0.9529  0.8716
  116MOL0     H15605   5.197   9.276  10.407 -0.4796 -1.1087 -0.2792
  116MOL0     H15606   5.257   9.270  10.251 -0.1826 -0.7517  1.4148
  116MOL0     H15607   5.191   9.535  10.371  1.5920  1.4871 -0.1631
  116MOL0     H15608   5.344   9.448  10.377  0.1733  2.1080  0.3766
  116MOL0     H15609   5.332   9.625  10.216  1.0310 -0.9487  0.6027
  116MOL0     H15610   5.198   9.550  10.130 -2.4482 -2.4960  3.1415
  116MOL0     H15611   5.562   9.477  10.233 -3.3427  1.4384  1.4782
  116MOL0     H15612   5.706   9.255   9.941 -3.0830 -0.1974  0.1549
  116MOL0     H15613   5.773   9.397  10.023 -1.7790  0.9868  0.5982
  116MOL0     H15614   5.679   9.121  10.126 -2.4570  0.5598  2.8222
  116MOL0     H15615   5.694   9.250  10.237 -3.2813 -0.9565 -0.2403
  116MOL0     H15616   5.923   9.153  10.045  0.9696  0.5113  0.3478
  116MOL0     H15617   5.890   9.073  10.189  1.8907 -1.3306 -2.4271
  116MOL0     H15618   5.947   9.276  10.306 -1.1289 -0.0584 -0.3738
  116MOL0     H15619   5.984   9.366  10.145 -0.2119 -0.7890  0.2714
  116MOL0     H15620   6.152   9.449  10.320  0.4866  0.8556  0.1841
  116MOL0     H15621   6.388   9.566  10.478  0.6338 -5.5060 -0.6355
  116MOL0     H15622   6.439   9.655  10.334 -2.6909  1.0921 -1.9693
  116MOL0     H15623   6.268   9.625  10.358 -0.3731 -1.1284 -2.1057
  116MOL0     H15624   6.777   9.446  10.509 -0.4451  0.9830  0.1667
  116MOL0     H15625   7.029   9.513  10.566 -1.1989 -0.1201  0.3023
  116MOL0     H15626   7.171   9.684  10.499  1.0043 -0.4746  1.2133
  116MOL0     H15627   7.277   9.561  10.575  0.8133 -0.6049 -0.2080
  116MOL0     H15628   7.430   9.706  10.528  0.3045  1.6815 -1.1743
  116MOL0     H15629   7.426   9.598  10.381 -1.9611  1.2359 -4.1378
  116MOL0     H15630   7.277   9.871  10.376 -0.0092  2.0817 -1.3730
  116MOL0     H15631   7.285   9.759  10.245  0.0126  0.0259  0.5410
  116MOL0     H15632   7.515   9.902  10.384 -2.8788 -0.1117  2.3123
  116MOL0     H15633   7.526   9.802  10.229 -1.0918  1.3132 -1.5503
  116MOL0     H15634   7.535  10.032  10.209  3.3013 -3.3868  3.4940
  116MOL0     H15635   7.363  10.053  10.255 -1.6081 -3.2998  1.3466
  116MOL0     H15636   7.452   9.887  10.029 -0.1274 -0.2484  2.0890
  116MOL0     H15637   7.283   9.933  10.077 -0.0280  0.8231  1.3797
  116MOL0     H15638   7.491  10.093   9.912 -0.9075 -0.7870 -0.1798
  116MOL0     H15639   7.425  10.177  10.040 -0.1262 -0.9566  2.2802
  116MOL0     H15640   7.291  10.215   9.811 -1.9819  0.0531 -0.9830
  116MOL0     H15641   7.194  10.139   9.940 -1.8781 -1.6375 -2.5349
  116MOL0     H15642   7.148   9.414  10.184 -1.1614  0.2214 -0.6158
  116MOL0     H15643   6.898   9.340  10.127  1.8739 -2.1657  1.1448
  116MOL0     H15644   6.548   9.194  10.149  0.2324 -1.2051 -0.9240
  116MOL0     H15645   6.313   9.104  10.138 -0.3298 -0.5533 -0.2540
  116MOL0     H15646   4.695   8.979  10.677 -1.7916  1.4346 -1.0190
  116MOL0     H15647   4.703   8.764  10.813 -1.1211 -0.6211  0.0926
  116MOL0     H15648   4.727   8.269  10.696 -0.5940 -0.0802 -1.6575
  116MOL0     H15649   4.698   8.034  10.780  0.6552  1.6105 -0.6841
  116MOL0     H15650   4.425   7.932  11.123  0.0329  1.9704 -2.2060
  116MOL0     H15651   4.534   7.795  11.123 -1.5440  0.1347  2.0563
  116MOL0     H15652   4.606   8.082  11.235  1.5210  0.2854 -1.3947
  116MOL0     H15653   4.729   7.969  11.205  0.9322  3.6449 -1.5278
  116MOL0     H15654   4.684   7.956  11.428  1.7971  0.8373 -0.0034
  116MOL0     H15655   4.623   7.800  11.359 -3.1017  0.1185 -2.9226
  116MOL0     H15656   4.388   7.908  11.345  0.7988 -0.7984 -1.2050
  116MOL0     H15657   4.444   8.034  11.457  2.5235  0.3572 -1.3659
  116MOL0     H15658   4.479   7.707  11.723 -2.3262 -2.2724 -0.6839
  116MOL0     H15659   4.427   8.174  11.079  0.0746 -3.3151 -1.3424
  116MOL0     H15660   4.437   8.397  10.983  2.0431  0.9497  0.9320
  117MOL0     O15661  10.367   4.534   8.394 -0.2878 -0.5770  0.2009
  117MOL0     C15662  10.296   4.591   8.477 -0.3523 -0.1667  0.5171
  117MOL0     O15663  10.189   4.534   8.550  0.0804  0.0519 -0.0556
  117MOL0     C15664  10.173   4.402   8.539  1.2179  0.5039 -0.3105
  117MOL0     C15665  10.132   4.345   8.414  0.0226 -0.5376 -0.5746
  117MOL0     C15666  10.136   4.208   8.384  0.1786 -0.3110  1.2342
  117MOL0     C15667  10.182   4.125   8.484  0.2831 -0.4211 -0.9715
  117MOL0     O15668  10.181   3.998   8.452  0.7655  0.4256 -0.1379
  117MOL0     C15669  10.262   3.912   8.540  0.0900  0.3432  0.6111
  117MOL0     C15670  10.255   3.765   8.481 -0.4848  0.0435  0.4997
  117MOL0     C15671  10.350   3.671   8.548 -0.5509  0.1528  0.9129
  117MOL0     C15672  10.346   3.684   8.694 -0.1584  0.2417  0.1194
  117MOL0     C15673  10.430   3.571   8.768  0.3929  0.4223 -0.5436
  117MOL0     C15674  10.530   3.634   8.873  0.6274  0.5498  0.6046
  117MOL0     C15675  10.631   3.527   8.918  0.2936  0.0162 -0.8552
  117MOL0     C15676  10.588   3.447   9.050  0.0921  0.0348  0.2381
  117MOL0     N15677  10.628   3.532   9.165 -0.0116  0.4263  0.7385
  117MOL0     C15678  10.554   3.632   9.217 -0.1699  0.1316 -0.4295
  117MOL0     C15679  10.637   3.708   9.283 -0.8665  0.0850  0.4285
  117MOL0     C15680  10.571   3.839   9.332  0.5526  0.4123 -0.2640
  117MOL0     C15681  10.667   3.963   9.301 -0.9346 -0.6839  0.2938
  117MOL0     C15682  10.620   4.101   9.320 -0.0119 -1.4056  0.4678
  117MOL0     C15683  10.730   4.204   9.284 -0.9005  0.3978 -0.0582
  117MOL0     O15684  10.855   4.173   9.347  0.0312  0.3073 -0.4090
  117MOL0     C15685  10.927   4.264   9.415  0.4668  0.4802 -0.1278
  117MOL0     C15686  11.039   4.219   9.482  0.2644 -0.2354 -0.4934
  117MOL0     C15687  11.123   4.302   9.566  1.0635  0.5505  0.9010
  117MOL0     C15688  11.232   4.220   9.636 -0.1054  0.0187 -1.0674
  117MOL0     C15689  11.095   4.441   9.567 -1.6024 -0.1355  1.0386
  117MOL0     C15690  11.175   4.553   9.635  1.0908 -0.1171 -0.1575
  117MOL0     O15691  11.250   4.504   9.737  0.9999  0.1310 -0.5244
  117MOL0     C15692  11.312   4.583   9.829 -0.5981  0.2495 -0.7291
  117MOL0     C15693  11.312   4.540   9.959  0.1280  0.3193  0.0011
  117MOL0     C15694  11.384   4.607  10.059  0.0667  0.7559 -0.0228
  117MOL0     C15695  11.465   4.719  10.021  0.6697 -0.8098  0.3772
  117MOL0     O15696  11.520   4.779  10.126  0.5731 -0.0458  0.6673
  117MOL0     C15697  11.650   4.835  10.120 -0.9969 -0.7766 -0.0215
  117MOL0     C15698  11.700   4.870  10.261 -0.8091  0.5826 -1.4533
  117MOL0     C15699  11.732   4.730  10.330 -0.4516  0.0600  0.4537
  117MOL0     C15700  11.778   4.735  10.472  1.0920 -0.5700 -0.8467
  117MOL0     C15701  11.671   4.736  10.586  0.9067 -0.6052 -0.7241
  117MOL0     C15702  11.593   4.873  10.608 -0.0999  0.4101  0.0215
  117MOL0     C15703  11.677   5.003  10.624  0.1545  0.5128  0.2057
  117MOL0     C15704  11.569   5.117  10.634 -0.6705  0.1692  0.2378
  117MOL0    Cl15705  11.437   5.132  10.508  0.3055  0.2152  0.0259
  117MOL0     C15706  11.476   4.759   9.887  0.1563  0.2962 -0.5697
  117MOL0     C15707  11.397   4.692   9.796 -0.0104 -0.3089  0.3456
  117MOL0     O15708  11.155   4.673   9.612  0.4479  1.1505  0.4143
  117MOL0     C15709  10.992   4.481   9.482 -0.0586 -0.0449 -0.1101
  117MOL0     C15710  10.900   4.400   9.411  0.0981 -0.4199 -0.8997
  117MOL0     N15711  10.766   3.674   9.261 -0.9071 -0.4160  0.2612
  117MOL0     N15712  10.760   3.564   9.190 -0.2105 -0.0925 -0.3312
  117MOL0     C15713  10.224   4.183   8.617  0.2733  0.6031  0.8192
  117MOL0     C15714  10.210   4.315   8.640 -0.1469 -0.8903  0.4047
  117MOL0     C15715  10.312   4.739   8.493  1.5706  0.4418 -0.0496
  117MOL0     C15716  10.250   4.805   8.595 -0.4077  0.3929 -0.0408
  117MOL0     C15717  10.275   4.939   8.617 -0.3826 -0.1196  0.6120
  117MOL0     C15718  10.358   5.008   8.533  0.2677  1.3239  1.1331
  117MOL0     O15719  10.367   5.143   8.562  1.2347  0.0216  0.3368
  117MOL0     C15720  10.401   5.242   8.466  0.6470  0.3744  0.7641
  117MOL0     C15721  10.389   5.378   8.530 -0.2713  0.2145  0.3779
  117MOL0     C15722  10.509   5.431   8.611  0.7920  0.3712 -0.0809
  117MOL0     C15723  10.493   5.569   8.652  0.0475  0.0368 -0.5691
  117MOL0     C15724  10.518   5.663   8.550 -0.3912  0.3428 -0.0402
  117MOL0     C15725  10.554   5.748   8.475  1.0555 -0.1012 -1.5223
  117MOL0     C15726  10.426   4.947   8.424  0.2230  0.1610  0.4300
  117MOL0     C15727  10.397   4.806   8.404  0.1868 -0.1910  0.3187
  117MOL0     H15728  10.109   4.413   8.332  6.9181  3.0798 -0.2086
  117MOL0     H15729  10.109   4.175   8.284 -0.4901  2.0431  0.5719
  117MOL0     H15730  10.364   3.950   8.542 -0.1156  1.3897 -2.7208
  117MOL0     H15731  10.219   3.919   8.641  0.5455 -0.4039  0.8650
  117MOL0     H15732  10.155   3.722   8.478 -0.2716 -0.4689  0.5871
  117MOL0     H15733  10.282   3.764   8.375 -1.7548 -1.4116  0.1543
  117MOL0     H15734  10.321   3.569   8.524 -4.6468  1.8515 -2.6147
  117MOL0     H15735  10.453   3.694   8.517 -1.6220  2.1898 -1.5388
  117MOL0     H15736  10.393   3.781   8.714  1.2749 -0.3491 -0.2545
  117MOL0     H15737  10.245   3.698   8.733 -1.1993 -0.2221 -2.2747
  117MOL0     H15738  10.368   3.509   8.832  1.2911 -3.3559 -3.0103
  117MOL0     H15739  10.487   3.504   8.702  4.5657  1.1496  1.9174
  117MOL0     H15740  10.583   3.721   8.833  0.1379  1.2791  1.5236
  117MOL0     H15741  10.467   3.667   8.956 -0.1520  0.3913  0.0919
  117MOL0     H15742  10.631   3.445   8.845 -1.2368 -1.2233  0.4634
  117MOL0     H15743  10.727   3.577   8.937 -0.6828  3.2664 -3.4826
  117MOL0     H15744  10.644   3.353   9.047  0.5356  0.3073 -0.1888
  117MOL0     H15745  10.481   3.422   9.041  0.1761 -0.1756 -0.2294
  117MOL0     H15746  10.449   3.646   9.196 -0.6417 -3.0410 -0.7260
  117MOL0     H15747  10.467   3.842   9.297  0.9902  0.9252 -1.5670
  117MOL0     H15748  10.567   3.834   9.441 -4.8839  0.0981 -0.1991
  117MOL0     H15749  10.696   3.959   9.196  2.2437  3.4839  0.7859
  117MOL0     H15750  10.764   3.953   9.349  0.2275  1.8599 -1.3387
  117MOL0     H15751  10.595   4.115   9.425 -3.2945  4.5462 -0.7004
  117MOL0     H15752  10.539   4.137   9.256  1.3685  1.2914  0.0763
  117MOL0     H15753  10.689   4.299   9.317  2.8065  1.0651  3.4073
  117MOL0     H15754  10.749   4.208   9.176  1.8258  1.6763  0.3708
  117MOL0     H15755  11.050   4.112   9.486  3.9864  0.0656  2.1423
  117MOL0     H15756  11.258   4.264   9.733  0.7051 -0.6256 -0.9863
  117MOL0     H15757  11.193   4.122   9.666  2.9176 -0.6388  1.2032
  117MOL0     H15758  11.320   4.202   9.575  0.0305  0.9097 -1.1466
  117MOL0     H15759  11.249   4.463  10.003 -2.3798  3.1252  1.7559
  117MOL0     H15760  11.360   4.568  10.157 -1.4498  0.9469 -0.2927
  117MOL0     H15761  11.718   4.760  10.077  0.9074 -0.3493  2.0586
  117MOL0     H15762  11.659   4.926  10.060  2.8210 -2.3089 -2.2154
  117MOL0     H15763  11.787   4.937  10.253 -0.6522  0.2202 -3.2991
  117MOL0     H15764  11.612   4.912  10.309 -1.1693 -0.4968 -1.1342
  117MOL0     H15765  11.823   4.686  10.290 -0.3350 -1.3466  2.1141
  117MOL0     H15766  11.649   4.659  10.324 -0.2059 -0.5858  3.2370
  117MOL0     H15767  11.838   4.645  10.486  0.7154 -0.4057  2.9424
  117MOL0     H15768  11.847   4.820  10.475  3.0473 -1.9201 -3.6877
  117MOL0     H15769  11.715   4.721  10.684  2.2602 -0.0325 -1.2200
  117MOL0     H15770  11.600   4.660  10.552  2.2472 -2.2489  0.0610
  117MOL0     H15771  11.526   4.893  10.524  0.1671 -3.1913 -1.2428
  117MOL0     H15772  11.532   4.864  10.698 -3.1776  1.8242 -1.7589
  117MOL0     H15773  11.747   5.024  10.542  0.4073 -0.3648  0.1849
  117MOL0     H15774  11.743   4.983  10.709  0.5001 -0.2809 -0.2399
  117MOL0     H15775  11.625   5.211  10.647  0.3431  0.0095 -2.3773
  117MOL0     H15776  11.518   5.117  10.731 -0.8699  0.7324  0.1353
  117MOL0     H15777  11.549   4.833   9.855  0.4872 -0.2719 -1.1676
  117MOL0     H15778  11.394   4.726   9.692  0.3867  3.3463  1.3788
  117MOL0     H15779  10.964   4.585   9.478  1.0254  0.3561  1.5335
  117MOL0     H15780  10.822   4.455   9.360  1.2707 -0.1147 -2.4514
  117MOL0     H15781  10.267   4.122   8.695 -0.6147 -0.7134  0.3128
  117MOL0     H15782  10.252   4.365   8.727  1.9989 -0.7024 -0.6829
  117MOL0     H15783  10.176   4.755   8.657  0.2779 -3.4112 -1.9314
  117MOL0     H15784  10.232   4.986   8.705 -1.8611 -1.8247  0.8534
  117MOL0     H15785  10.507   5.227   8.442  0.1230  0.5734 -1.9551
  117MOL0     H15786  10.337   5.241   8.377  1.9266 -2.5788 -0.2436
  117MOL0     H15787  10.297   5.387   8.588 -1.4689  0.8389 -1.4986
  117MOL0     H15788  10.390   5.443   8.442  1.2805 -0.3982 -0.1014
  117MOL0     H15789  10.602   5.413   8.556  1.6464  2.0802  0.7133
  117MOL0     H15790  10.529   5.368   8.698 -0.1152 -2.2309 -1.6533
  117MOL0     H15791  10.565   5.587   8.732  0.9815  1.8264 -1.7577
  117MOL0     H15792  10.391   5.581   8.690 -1.2192  0.6424 -3.7743
  117MOL0     H15793  10.593   5.817   8.403 -1.0649 -1.4164 -4.1037
  117MOL0     H15794  10.494   5.002   8.360 -1.8021  1.3572 -0.7913
  117MOL0     H15795  10.446   4.754   8.322 -0.4870  2.3900 -1.8759
  118MOL0     O15796  10.841   1.557   4.135  1.2007 -0.2182  0.4402
  118MOL0     C15797  10.901   1.558   4.238 -0.4189 -0.7595 -0.8785
  118MOL0     O15798  10.863   1.628   4.355  0.4858  0.9426 -0.3289
  118MOL0     C15799  10.734   1.652   4.382  0.9009 -0.2742  0.7135
  118MOL0     C15800  10.649   1.742   4.299 -0.9511 -0.2728  0.2086
  118MOL0     C15801  10.513   1.763   4.338  0.2327 -0.3652 -0.0512
  118MOL0     C15802  10.448   1.697   4.445  0.3184 -0.4256  0.0525
  118MOL0     O15803  10.322   1.746   4.471 -0.1607 -0.3029  0.2278
  118MOL0     C15804  10.248   1.675   4.575 -0.6229  0.1209 -0.1978
  118MOL0     C15805  10.099   1.708   4.564 -0.5017 -0.2338 -0.1446
  118MOL0     C15806  10.020   1.654   4.443  0.3018 -1.2931 -0.6563
  118MOL0     C15807   9.969   1.516   4.471  1.3595  0.4857  0.0650
  118MOL0     C15808   9.917   1.452   4.340  0.3858  0.1268  0.1528
  118MOL0     C15809   9.844   1.313   4.357  0.2290  0.3839  0.5794
  118MOL0     C15810   9.784   1.275   4.223  0.0799 -0.4385  0.9847
  118MOL0     C15811   9.886   1.238   4.119 -0.0920 -0.5066  0.0763
  118MOL0     N15812   9.822   1.185   3.995 -0.0592 -0.5914 -0.0502
  118MOL0     C15813   9.852   1.241   3.870 -0.5458 -0.4054 -0.4513
  118MOL0     C15814   9.796   1.152   3.788  0.5899  0.0039  0.2071
  118MOL0     C15815   9.801   1.149   3.639 -0.6058  0.0877  0.2835
  118MOL0     C15816   9.672   1.205   3.577  0.7534  0.4957  0.2254
  118MOL0     C15817   9.656   1.160   3.428 -0.3146 -0.7306 -0.3886
  118MOL0     C15818   9.519   1.203   3.372  0.8188 -0.5137 -0.0411
  118MOL0     O15819   9.507   1.345   3.378  0.3471  0.6439 -0.0659
  118MOL0     C15820   9.556   1.420   3.275 -0.3780 -0.6926  0.6037
  118MOL0     C15821   9.599   1.382   3.145  0.2460 -0.6309 -0.1285
  118MOL0     C15822   9.623   1.482   3.043 -0.0482  0.3897 -0.9322
  118MOL0     C15823   9.689   1.432   2.913  0.7285 -0.4439 -0.0314
  118MOL0     C15824   9.598   1.616   3.067  0.2107 -0.6663  0.1329
  118MOL0     C15825   9.626   1.725   2.971  0.7352  0.9702 -0.6321
  118MOL0     O15826   9.663   1.844   3.025  0.0534 -0.1406  0.2559
  118MOL0     C15827   9.666   1.962   2.960  0.1759 -0.1785  1.6249
  118MOL0     C15828   9.695   1.990   2.827  0.0495  0.3380 -0.0489
  118MOL0     C15829   9.712   2.117   2.778  0.0690  0.5772 -0.0739
  118MOL0     C15830   9.706   2.222   2.865 -1.0055  0.6142 -0.5806
  118MOL0     O15831   9.725   2.347   2.811 -0.1922  0.0093  0.4024
  118MOL0     C15832   9.727   2.454   2.913  0.1450 -0.6466 -0.3397
  118MOL0     C15833   9.798   2.584   2.855  0.2148 -0.2035 -0.2778
  118MOL0     C15834   9.802   2.701   2.949  0.2647  0.3896  0.0837
  118MOL0     C15835   9.861   2.664   3.083 -0.8400 -0.3028  0.5385
  118MOL0     C15836   9.885   2.785   3.191  0.9991 -0.8863  0.4800
  118MOL0     C15837   9.961   2.904   3.138 -0.5502 -0.5436 -0.4520
  118MOL0     C15838   9.926   3.019   3.226 -0.1026 -0.3692 -0.2595
  118MOL0     C15839   9.970   3.006   3.375  0.0271  0.1706 -0.6992
  118MOL0    Cl15840  10.138   2.942   3.370  0.0065 -0.6373 -0.2507
  118MOL0     C15841   9.682   2.200   2.997  0.1356  0.3449 -0.4176
  118MOL0     C15842   9.660   2.069   3.043 -1.3311  0.6006 -0.5988
  118MOL0     O15843   9.587   1.702   2.862 -0.5195  0.1914  1.6053
  118MOL0     C15844   9.548   1.653   3.190 -0.3566  1.0119 -0.5664
  118MOL0     C15845   9.521   1.553   3.284  1.2217  0.1725  0.4191
  118MOL0     N15846   9.730   1.058   3.869  0.8630  0.8967  0.2099
  118MOL0     N15847   9.735   1.082   3.992  1.0342 -0.3250 -1.0860
  118MOL0     C15848  10.518   1.594   4.503 -0.2327  0.3400 -1.2937
  118MOL0     C15849  10.657   1.580   4.474 -0.2266 -0.0467  0.4139
  118MOL0     C15850  11.032   1.495   4.239  0.7027 -0.3963  1.0015
  118MOL0     C15851  11.070   1.387   4.155  0.5672 -0.5516  0.3742
  118MOL0     C15852  11.191   1.324   4.153 -0.7718  1.5614  0.0031
  118MOL0     C15853  11.281   1.361   4.255 -0.0886 -0.6324  0.2621
  118MOL0     O15854  11.400   1.292   4.285  0.1095 -0.2210  0.3633
  118MOL0     C15855  11.417   1.159   4.245  0.2811  0.7300 -0.1693
  118MOL0     C15856  11.566   1.115   4.273 -1.1988 -0.4465  0.6967
  118MOL0     C15857  11.608   0.984   4.208  0.1560  0.8681  1.0143
  118MOL0     C15858  11.643   1.003   4.060 -0.3347  0.4752  0.2562
  118MOL0     C15859  11.749   1.107   4.041 -0.0739  0.5010 -1.0685
  118MOL0     C15860  11.840   1.186   4.016 -0.7886  0.0801  0.0708
  118MOL0     C15861  11.245   1.458   4.346 -0.2022 -1.3186  0.0113
  118MOL0     C15862  11.120   1.525   4.339 -0.1182  0.0143 -0.2111
  118MOL0     H15863  10.696   1.805   4.224 -1.8152  0.4054  0.2062
  118MOL0     H15864  10.460   1.837   4.279 -0.5644 -1.8356 -1.2576
  118MOL0     H15865  10.251   1.566   4.576 -2.7159  0.0059 -1.3905
  118MOL0     H15866  10.291   1.707   4.670  0.9160 -3.9521  0.6658
  118MOL0     H15867  10.048   1.664   4.650 -1.2449 -1.0173 -0.9628
  118MOL0     H15868  10.094   1.817   4.563  0.1805 -0.0788  2.9810
  118MOL0     H15869   9.937   1.720   4.415 -0.0755 -1.2781  0.4345
  118MOL0     H15870  10.079   1.652   4.351  0.1403  0.2149 -0.8295
  118MOL0     H15871  10.058   1.453   4.483  1.4573  0.8298  1.1920
  118MOL0     H15872   9.901   1.493   4.554  3.9224 -2.1011  1.6526
  118MOL0     H15873   9.844   1.527   4.305 -0.3790 -0.6723 -0.0010
  118MOL0     H15874  10.002   1.433   4.275 -1.0497 -3.4749 -0.8908
  118MOL0     H15875   9.919   1.239   4.385 -0.8914 -1.0773 -0.1663
  118MOL0     H15876   9.767   1.324   4.433  1.0742 -0.3706  1.5590
  118MOL0     H15877   9.720   1.188   4.238 -0.6077 -0.3882 -1.3040
  118MOL0     H15878   9.732   1.361   4.180  0.8935 -1.0597 -1.3814
  118MOL0     H15879   9.956   1.162   4.157  2.5608  2.9053  2.7827
  118MOL0     H15880   9.937   1.333   4.099 -1.3035 -0.1637 -1.5868
  118MOL0     H15881   9.914   1.329   3.857  0.7409 -0.9622  1.4785
  118MOL0     H15882   9.896   1.200   3.624 -0.0515 -0.5113  1.5883
  118MOL0     H15883   9.822   1.043   3.622 -0.9417  0.1397 -0.4898
  118MOL0     H15884   9.679   1.314   3.571  3.0372  0.4757  1.2314
  118MOL0     H15885   9.576   1.175   3.618  0.8688 -1.2378 -0.7153
  118MOL0     H15886   9.668   1.053   3.410 -1.1653 -1.2486  1.8261
  118MOL0     H15887   9.739   1.204   3.372  1.1039 -3.6607 -0.7471
  118MOL0     H15888   9.436   1.158   3.428 -1.9314  0.9437 -2.6473
  118MOL0     H15889   9.520   1.176   3.266 -0.4454 -0.7500 -0.0154
  118MOL0     H15890   9.618   1.280   3.117  2.9726 -0.8798  2.1430
  118MOL0     H15891   9.632   1.448   2.821  0.8491 -2.4271 -0.5046
  118MOL0     H15892   9.767   1.507   2.905  2.4539 -1.9163  1.9354
  118MOL0     H15893   9.738   1.335   2.925  0.7245 -0.6154 -1.2542
  118MOL0     H15894   9.719   1.904   2.766  0.9968  0.9597 -0.5802
  118MOL0     H15895   9.722   2.141   2.673 -0.0831 -1.6988 -0.6689
  118MOL0     H15896   9.629   2.488   2.945 -0.2649  1.3609 -3.2979
  118MOL0     H15897   9.792   2.429   2.997  4.1730  1.2261 -2.5834
  118MOL0     H15898   9.903   2.568   2.831 -0.2367 -2.1196 -1.1628
  118MOL0     H15899   9.743   2.607   2.763 -0.3155 -2.1666 -0.4954
  118MOL0     H15900   9.702   2.742   2.966 -0.0965 -1.0811  1.7939
  118MOL0     H15901   9.867   2.778   2.906  1.3274 -0.2828  0.4527
  118MOL0     H15902   9.791   2.593   3.128 -1.2502  1.0926  2.2000
  118MOL0     H15903   9.956   2.613   3.065  0.2482  1.7776  0.1066
  118MOL0     H15904   9.921   2.744   3.286 -0.4647 -3.0930  0.1743
  118MOL0     H15905   9.786   2.815   3.226  1.4696 -0.0927  1.1570
  118MOL0     H15906  10.066   2.878   3.127  0.2582  1.9547  0.6353
  118MOL0     H15907   9.926   2.927   3.037  0.1329 -0.6635 -0.7230
  118MOL0     H15908   9.820   3.043   3.224 -0.5002 -1.9852 -1.7634
  118MOL0     H15909   9.977   3.106   3.183 -1.0363 -1.3680 -3.7363
  118MOL0     H15910   9.906   2.954   3.447  2.0949  0.2805  1.3254
  118MOL0     H15911   9.975   3.104   3.424 -0.2500 -0.2073  0.0969
  118MOL0     H15912   9.677   2.277   3.073  0.2346 -0.9244  0.9026
  118MOL0     H15913   9.643   2.063   3.151  0.4415 -3.3085 -0.3746
  118MOL0     H15914   9.523   1.756   3.214 -0.2264  0.8695  0.2024
  118MOL0     H15915   9.467   1.582   3.374  0.0521  0.5345 -0.3811
  118MOL0     H15916  10.467   1.548   4.587  0.1028  1.4591 -0.4541
  118MOL0     H15917  10.711   1.516   4.543 -0.6124  3.0842  3.8987
  118MOL0     H15918  11.006   1.365   4.070  0.0201  3.1808 -0.3612
  118MOL0     H15919  11.223   1.250   4.081  2.5144  0.6463  2.1363
  118MOL0     H15920  11.353   1.099   4.310  0.0493  1.9474  0.7682
  118MOL0     H15921  11.385   1.132   4.144 -1.5790 -0.8739  0.7642
  118MOL0     H15922  11.591   1.093   4.377  1.7802 -2.1953 -0.2563
  118MOL0     H15923  11.628   1.200   4.244 -0.5325 -0.5092  1.8795
  118MOL0     H15924  11.520   0.920   4.216  0.4431  0.2797 -0.2780
  118MOL0     H15925  11.688   0.937   4.267 -0.9797 -0.5627  1.4766
  118MOL0     H15926  11.553   1.028   4.003 -1.6263 -1.8687  1.1498
  118MOL0     H15927  11.683   0.910   4.019 -0.1764  1.4659 -1.9789
  118MOL0     H15928  11.923   1.250   3.996  1.5475 -1.7764  2.8445
  118MOL0     H15929  11.309   1.493   4.426  1.9836 -1.7420 -1.4845
  118MOL0     H15930  11.101   1.595   4.420  0.8223 -2.3971  2.2515
  119MOL0     O15931   5.302   3.976   1.535 -0.5165  0.1633  0.2877
  119MOL0     C15932   5.340   3.871   1.478 -0.2093  0.2857  0.5881
  119MOL0     O15933   5.436   3.861   1.383 -0.4389 -0.0836 -0.5671
  119MOL0     C15934   5.516   3.955   1.331  0.4565  0.6346 -0.3658
  119MOL0     C15935   5.615   3.900   1.244  0.6497 -0.4046  0.5592
  119MOL0     C15936   5.706   3.986   1.181  0.0984 -0.8865  0.8423
  119MOL0     C15937   5.703   4.129   1.201 -0.4097  0.7361 -0.3474
  119MOL0     O15938   5.798   4.197   1.133 -0.8167  1.0398  0.0598
  119MOL0     C15939   5.822   4.333   1.173  0.9414  0.2256 -0.4840
  119MOL0     C15940   5.951   4.385   1.111  0.0540 -1.0402 -0.1408
  119MOL0     C15941   5.925   4.447   0.973  0.4738  0.6444 -0.0294
  119MOL0     C15942   6.056   4.452   0.883  0.1761  0.6574 -0.4278
  119MOL0     C15943   6.007   4.484   0.734 -0.6940 -0.0188 -0.9866
  119MOL0     C15944   5.933   4.617   0.721  1.0947  0.3227 -0.4715
  119MOL0     C15945   6.015   4.739   0.767 -0.1052  0.7462  0.0550
  119MOL0     C15946   5.932   4.863   0.782  0.8256 -0.0096 -0.5627
  119MOL0     N15947   5.919   4.896   0.923 -0.3167 -0.1866  0.3665
  119MOL0     C15948   5.852   4.826   1.024 -0.5794 -0.3770  1.0428
  119MOL0     C15949   5.903   4.875   1.141  0.3233  0.3216 -0.0864
  119MOL0     C15950   5.865   4.820   1.276  0.8621 -0.4794 -0.3633
  119MOL0     C15951   5.989   4.741   1.340  0.5159 -0.2731  1.2902
  119MOL0     C15952   6.037   4.803   1.464 -0.1064 -1.1019 -0.2031
  119MOL0     C15953   6.111   4.936   1.432  0.7837 -0.7140 -0.0168
  119MOL0     O15954   6.122   5.008   1.549  0.6702 -1.1960 -0.6502
  119MOL0     C15955   6.181   5.130   1.560  0.1444  1.3231  0.2450
  119MOL0     C15956   6.239   5.194   1.448  1.1568  0.1606 -0.4254
  119MOL0     C15957   6.288   5.326   1.462 -0.2196 -0.7603 -1.1036
  119MOL0     C15958   6.332   5.404   1.337 -0.0183  0.7213  0.3134
  119MOL0     C15959   6.307   5.373   1.594  0.6374  0.0754 -0.7079
  119MOL0     C15960   6.366   5.503   1.627 -0.6279  0.0587 -0.3203
  119MOL0     O15961   6.455   5.566   1.532  0.8397  0.6042  0.5405
  119MOL0     C15962   6.511   5.689   1.546 -0.5971 -0.2536  1.2617
  119MOL0     C15963   6.648   5.697   1.502  0.4170 -0.7743 -0.7194
  119MOL0     C15964   6.716   5.818   1.510  0.1306 -0.2293 -0.4494
  119MOL0     C15965   6.652   5.940   1.544 -0.7057 -0.1485 -0.3976
  119MOL0     O15966   6.709   6.060   1.559 -0.4294 -0.1789  0.6205
  119MOL0     C15967   6.850   6.070   1.563 -0.9933  0.7203 -0.0246
  119MOL0     C15968   6.897   6.213   1.580 -0.5545 -0.2277  0.5974
  119MOL0     C15969   6.856   6.282   1.450 -1.9172  0.3117  0.1338
  119MOL0     C15970   6.937   6.422   1.439  0.3433  1.2558 -1.1899
  119MOL0     C15971   6.899   6.497   1.319 -0.3288 -0.4330  0.0994
  119MOL0     C15972   6.968   6.632   1.306  0.2799 -0.0569 -0.6903
  119MOL0     C15973   6.866   6.735   1.337  0.6855 -0.6739  0.2296
  119MOL0     C15974   6.744   6.757   1.235 -0.1366  0.6419  0.5167
  119MOL0    Cl15975   6.785   6.829   1.079 -0.1383 -0.3164 -0.1921
  119MOL0     C15976   6.518   5.932   1.577 -0.3836  0.0088  0.1681
  119MOL0     C15977   6.451   5.811   1.581  0.2931 -0.3517 -0.7758
  119MOL0     O15978   6.349   5.555   1.736  0.8853 -0.6445 -1.1590
  119MOL0     C15979   6.259   5.308   1.706 -0.5469  0.6703  0.4963
  119MOL0     C15980   6.185   5.186   1.687 -0.6728  0.3324  0.3902
  119MOL0     N15981   5.984   4.988   1.105 -0.5943  0.0509 -0.7286
  119MOL0     N15982   6.002   4.982   0.981 -0.2295  0.3913 -0.3187
  119MOL0     C15983   5.602   4.176   1.283 -0.1321 -0.8944 -0.0713
  119MOL0     C15984   5.504   4.094   1.343  0.2721 -0.2302 -0.9187
  119MOL0     C15985   5.280   3.751   1.536  0.2648  0.8040  1.4103
  119MOL0     C15986   5.347   3.635   1.540 -1.5764 -0.6589 -0.5680
  119MOL0     C15987   5.295   3.522   1.597 -0.1385  0.1618 -0.1181
  119MOL0     C15988   5.173   3.529   1.665 -1.0870 -0.9751 -0.9220
  119MOL0     O15989   5.127   3.414   1.720 -0.6497  0.1725  0.2788
  119MOL0     C15990   5.027   3.404   1.823 -0.5975  0.3504  0.7848
  119MOL0     C15991   4.992   3.251   1.834  1.0403  0.1676  0.0892
  119MOL0     C15992   4.875   3.232   1.924  0.6909 -0.3326  0.2390
  119MOL0     C15993   4.747   3.232   1.841  0.3075  0.6964 -0.0775
  119MOL0     C15994   4.639   3.218   1.936  0.0789  0.3887  0.6945
  119MOL0     C15995   4.530   3.230   2.000  0.7027  0.2148  1.3082
  119MOL0     C15996   5.104   3.650   1.669 -0.0303 -0.2594  0.1248
  119MOL0     C15997   5.155   3.762   1.607  0.8358 -0.2330 -1.3081
  119MOL0     H15998   5.634   3.793   1.242  0.9543 -0.3552  0.7660
  119MOL0     H15999   5.785   3.936   1.125  1.0302  2.2668 -0.9166
  119MOL0     H16000   5.732   4.384   1.138 -0.4245 -2.2510 -0.7988
  119MOL0     H16001   5.823   4.333   1.282  2.1134 -2.3324 -0.4272
  119MOL0     H16002   5.991   4.470   1.167 -2.1378  2.2265 -3.0243
  119MOL0     H16003   6.023   4.304   1.120 -0.5021 -1.9074 -2.6240
  119MOL0     H16004   5.845   4.387   0.930  0.8635 -0.5551  0.8728
  119MOL0     H16005   5.878   4.543   0.994 -0.3984 -0.3403  3.0148
  119MOL0     H16006   6.135   4.514   0.928 -1.5592  0.9158  2.4937
  119MOL0     H16007   6.101   4.353   0.891  3.7336  2.2521  2.0033
  119MOL0     H16008   6.101   4.487   0.677 -0.3722 -3.3074 -0.8713
  119MOL0     H16009   5.946   4.395   0.717  1.0212 -1.0465 -2.1493
  119MOL0     H16010   5.900   4.632   0.617  2.4166  1.4480 -0.7682
  119MOL0     H16011   5.840   4.625   0.777  1.3310  2.2990 -0.2637
  119MOL0     H16012   6.062   4.730   0.865 -1.7169  1.7732  0.9670
  119MOL0     H16013   6.101   4.759   0.702 -0.4752 -3.5780 -2.1239
  119MOL0     H16014   5.831   4.856   0.741  0.1653  1.3279  0.7656
  119MOL0     H16015   5.985   4.943   0.730  2.1324 -0.6143 -0.2015
  119MOL0     H16016   5.776   4.754   0.997  1.6522 -1.8145 -2.1277
  119MOL0     H16017   5.845   4.900   1.348 -1.2678 -0.3454 -1.0478
  119MOL0     H16018   5.782   4.750   1.276 -1.8854  2.5069  1.7063
  119MOL0     H16019   6.075   4.741   1.273 -0.6773  1.5348 -0.3389
  119MOL0     H16020   5.953   4.640   1.363 -2.3660  0.7943  1.9114
  119MOL0     H16021   6.106   4.745   1.526 -0.3171 -1.5219 -0.3522
  119MOL0     H16022   5.954   4.823   1.532 -0.1976  2.6743 -1.2053
  119MOL0     H16023   6.059   4.985   1.349  2.3945 -1.1553 -1.3522
  119MOL0     H16024   6.207   4.916   1.382  0.9036  1.6957 -0.8549
  119MOL0     H16025   6.210   5.170   1.347 -0.4762  0.2015  0.0125
  119MOL0     H16026   6.330   5.513   1.341  0.0133  0.7783 -0.8812
  119MOL0     H16027   6.432   5.364   1.318  0.2511  2.1150 -1.4567
  119MOL0     H16028   6.274   5.377   1.248 -1.3542  1.3292  0.9727
  119MOL0     H16029   6.695   5.610   1.457 -0.3641 -0.6342 -1.8394
  119MOL0     H16030   6.817   5.808   1.472  1.1415  2.7759  1.0917
  119MOL0     H16031   6.901   6.000   1.631 -0.5290 -0.8021 -1.8466
  119MOL0     H16032   6.893   6.030   1.471 -2.5998 -3.3742  0.7613
  119MOL0     H16033   6.854   6.273   1.661 -0.2809 -0.8967  1.2443
  119MOL0     H16034   7.006   6.225   1.590 -0.1105  1.8710 -3.9019
  119MOL0     H16035   6.749   6.299   1.431 -1.5523 -0.7649 -3.9956
  119MOL0     H16036   6.894   6.221   1.367 -3.9940 -0.5543 -0.2499
  119MOL0     H16037   6.906   6.480   1.526  1.5391  1.0047 -0.5725
  119MOL0     H16038   7.047   6.425   1.441  0.3317  2.4410 -1.4753
  119MOL0     H16039   6.790   6.498   1.306 -0.5251 -2.3964  1.2125
  119MOL0     H16040   6.933   6.436   1.235  1.0457  0.6651 -0.1880
  119MOL0     H16041   7.051   6.647   1.374 -1.7952 -1.8800  2.5142
  119MOL0     H16042   6.997   6.641   1.201  2.4839 -0.0522 -0.1165
  119MOL0     H16043   6.901   6.838   1.352 -3.3628  0.5634  2.7747
  119MOL0     H16044   6.835   6.711   1.439 -1.5987  2.4872  0.4371
  119MOL0     H16045   6.666   6.825   1.269 -2.1689  1.0255 -4.1684
  119MOL0     H16046   6.694   6.662   1.212 -0.0326  1.3607 -3.3332
  119MOL0     H16047   6.464   6.024   1.596 -2.2363 -1.8124  5.6104
  119MOL0     H16048   6.346   5.814   1.609  0.7912 -1.4878  1.5101
  119MOL0     H16049   6.260   5.341   1.809 -0.4794  2.1431  0.0489
  119MOL0     H16050   6.121   5.149   1.767  0.1807  1.3643  1.6032
  119MOL0     H16051   5.578   4.282   1.275  1.9715 -0.3267  0.5239
  119MOL0     H16052   5.426   4.132   1.409  1.5762 -1.3833  1.4238
  119MOL0     H16053   5.448   3.624   1.502 -1.8744 -0.2023 -1.5140
  119MOL0     H16054   5.339   3.423   1.591  0.2222  0.3843 -1.3149
  119MOL0     H16055   5.074   3.445   1.912 -0.8855  0.7778  0.7396
  119MOL0     H16056   4.932   3.455   1.805 -0.8029 -1.1586 -3.8128
  119MOL0     H16057   5.081   3.203   1.875  2.5833  1.4955 -1.5080
  119MOL0     H16058   4.986   3.206   1.734  0.0394 -1.3098  0.7748
  119MOL0     H16059   4.879   3.304   2.006  3.5179 -2.5266  2.2380
  119MOL0     H16060   4.888   3.135   1.972  2.3138 -0.1619  0.2102
  119MOL0     H16061   4.728   3.160   1.760 -1.1046 -1.4749  2.0490
  119MOL0     H16062   4.738   3.329   1.792 -1.3246  2.0684  2.6611
  119MOL0     H16063   4.425   3.243   2.012  0.3286 -3.6994  3.8558
  119MOL0     H16064   5.017   3.653   1.733 -0.8736 -3.9669 -0.6218
  119MOL0     H16065   5.101   3.855   1.601  0.3896 -0.4719 -1.0484
  120MOL0     O16066   2.967  10.095   7.342  0.4136 -0.9935  0.3990
  120MOL0     C16067   2.952  10.174   7.435  0.1089 -0.1318  0.7502
  120MOL0     O16068   2.841  10.241   7.468 -1.0818 -0.2599 -0.1048
  120MOL0     C16069   2.729  10.248   7.392  0.1240 -1.2793  0.7258
  120MOL0     C16070   2.653  10.126   7.387 -0.1097 -0.4722 -0.4894
  120MOL0     C16071   2.525  10.114   7.332  0.2819  0.0270  0.0739
  120MOL0     C16072   2.458  10.234   7.289  0.3188 -0.5470  0.1113
  120MOL0     O16073   2.325  10.235   7.242  0.6710  0.0825 -0.0000
  120MOL0     C16074   2.305  10.129   7.142  0.2427 -0.8829 -1.1379
  120MOL0     C16075   2.250  10.190   7.010  0.0609  0.2911 -0.0133
  120MOL0     C16076   2.167  10.094   6.933  0.7783 -0.2286 -0.3082
  120MOL0     C16077   2.072  10.183   6.840 -0.3177 -0.7946 -0.6028
  120MOL0     C16078   1.980  10.092   6.763 -0.0910 -0.1573  0.8253
  120MOL0     C16079   1.906  10.145   6.639 -0.3921  0.5323  0.5299
  120MOL0     C16080   1.812  10.259   6.675  0.4539 -0.0581  0.1506
  120MOL0     C16081   1.782  10.358   6.558  0.0547  1.3551 -0.6366
  120MOL0     N16082   1.701  10.306   6.450 -0.4494  0.7665 -0.2270
  120MOL0     C16083   1.706  10.364   6.326 -0.3123  0.2272  0.5921
  120MOL0     C16084   1.619  10.301   6.241  0.0239  0.1209 -0.9720
  120MOL0     C16085   1.611  10.311   6.090  0.7565  0.3650  0.0051
  120MOL0     C16086   1.540  10.451   6.048  0.7508 -0.2412  0.1922
  120MOL0     C16087   1.525  10.481   5.910  0.0219  0.0787  0.4717
  120MOL0     C16088   1.420  10.591   5.887  0.6054 -0.4801  0.0066
  120MOL0     O16089   1.474  10.710   5.940 -0.8401 -0.4966 -0.2535
  120MOL0     C16090   1.395  10.823   5.942  0.7385  0.2154  0.0030
  120MOL0     C16091   1.259  10.824   5.918 -0.1856 -0.4541  0.0613
  120MOL0     C16092   1.172  10.935   5.945  0.4813 -0.0848 -0.2122
  120MOL0     C16093   1.029  10.918   5.915  0.4145  1.1942 -0.0617
  120MOL0     C16094   1.219  11.059   5.973 -0.0168 -0.9947 -0.0627
  120MOL0     C16095   1.148  11.195   5.956 -0.7869  0.9496 -0.4469
  120MOL0     O16096   1.040  11.206   5.878 -0.7082  0.1688 -0.1618
  120MOL0     C16097   0.991  11.324   5.859 -0.5805 -0.2487 -0.1083
  120MOL0     C16098   1.021  11.393   5.738 -0.3575  0.7129 -0.5572
  120MOL0     C16099   0.960  11.516   5.709  0.6208 -0.3667 -1.0556
  120MOL0     C16100   0.895  11.585   5.819 -0.5419  0.2683 -0.2531
  120MOL0     O16101   0.851  11.700   5.777 -0.3991  0.3329  0.7797
  120MOL0     C16102   0.817  11.806   5.856 -0.0877 -0.0838  0.0928
  120MOL0     C16103   0.669  11.828   5.841 -0.0129 -0.0794 -0.0989
  120MOL0     C16104   0.609  11.928   5.948 -0.3293 -0.7015 -0.0408
  120MOL0     C16105   0.468  11.977   5.899 -0.3706 -0.6726 -0.6396
  120MOL0     C16106   0.429  12.115   5.967  0.3641 -0.1574 -0.7360
  120MOL0     C16107   0.413  12.099   6.126 -0.4230  0.0828 -0.5962
  120MOL0     C16108   0.417  12.237   6.201 -0.7273 -0.3408 -0.0834
  120MOL0     C16109   0.363  12.217   6.348 -0.4422  0.5607  0.0297
  120MOL0    Cl16110   0.373  12.364   6.451 -0.0583  0.1171  0.3999
  120MOL0     C16111   0.889  11.521   5.952  0.5224 -0.1992  0.1467
  120MOL0     C16112   0.925  11.391   5.964 -0.0889  1.0163  0.4748
  120MOL0     O16113   1.222  11.284   6.004 -0.0679  0.4011  0.3874
  120MOL0     C16114   1.361  11.064   5.990 -0.1731  0.2451 -1.2488
  120MOL0     C16115   1.445  10.946   5.987  0.0889 -0.0341  0.6459
  120MOL0     N16116   1.554  10.201   6.325  0.7904  0.5654 -0.0990
  120MOL0     N16117   1.615  10.193   6.448 -0.5386 -0.1135  0.5950
  120MOL0     C16118   2.530  10.360   7.290  0.0852  0.3609  0.6450
  120MOL0     C16119   2.664  10.369   7.337 -0.2719  0.2271 -0.4688
  120MOL0     C16120   3.076  10.215   7.507  1.0495 -0.5031  0.0376
  120MOL0     C16121   3.068  10.314   7.605 -0.9692 -0.4108 -0.9988
  120MOL0     C16122   3.184  10.364   7.666 -0.7466  0.0800  0.1995
  120MOL0     C16123   3.309  10.325   7.614  0.2995  0.2883 -0.8085
  120MOL0     O16124   3.425  10.391   7.660  0.4376  0.4133  0.5641
  120MOL0     C16125   3.537  10.427   7.573 -0.7926  0.3916 -0.1551
  120MOL0     C16126   3.626  10.538   7.612  0.9718 -0.4022  0.0295
  120MOL0     C16127   3.767  10.541   7.541 -0.5285 -0.4879 -0.8919
  120MOL0     C16128   3.764  10.578   7.397 -0.5193  0.0680  1.6657
  120MOL0     C16129   3.745  10.719   7.374 -0.7398  1.4839 -0.0051
  120MOL0     C16130   3.731  10.831   7.361  0.2910 -0.0931  0.5362
  120MOL0     C16131   3.316  10.226   7.513 -0.6879 -0.2115 -0.3851
  120MOL0     C16132   3.199  10.184   7.459  0.2236 -0.0923 -0.3834
  120MOL0     H16133   2.696  10.033   7.423 -0.4456 -0.4882 -0.1215
  120MOL0     H16134   2.494  10.011   7.320  1.5697 -0.2895 -0.8386
  120MOL0     H16135   2.384  10.056   7.123 -0.5498 -1.7894 -1.0862
  120MOL0     H16136   2.219  10.070   7.176 -1.4835  1.2487 -1.5866
  120MOL0     H16137   2.197  10.283   7.031  0.1207  0.6652 -1.4406
  120MOL0     H16138   2.336  10.230   6.956 -0.8975  0.7091 -1.2906
  120MOL0     H16139   2.228  10.018   6.883  1.1956  1.2512 -2.2204
  120MOL0     H16140   2.091  10.055   7.000  1.0757  1.7165  1.2567
  120MOL0     H16141   2.019  10.266   6.887  2.5705  1.4417 -0.9810
  120MOL0     H16142   2.135  10.236   6.767  0.6492  2.5236  2.3436
  120MOL0     H16143   2.042  10.012   6.721 -0.8758  0.6013 -1.9870
  120MOL0     H16144   1.908  10.041   6.827 -1.6243 -0.3341 -0.9562
  120MOL0     H16145   1.976  10.162   6.557 -0.1277 -1.2144  0.3359
  120MOL0     H16146   1.836  10.071   6.599 -2.8318  2.1057  1.6965
  120MOL0     H16147   1.716  10.212   6.699  1.5012 -3.7973 -2.2515
  120MOL0     H16148   1.846  10.302   6.770  1.2347 -0.9121  0.2687
  120MOL0     H16149   1.879  10.390   6.520  0.3144  0.9327 -0.3313
  120MOL0     H16150   1.749  10.454   6.599 -1.9115  1.2535 -1.8462
  120MOL0     H16151   1.767  10.449   6.297 -1.6544  1.0120 -0.0185
  120MOL0     H16152   1.713  10.310   6.049  0.8195  0.4622  0.1597
  120MOL0     H16153   1.562  10.224   6.046  1.9289 -1.3442  1.9045
  120MOL0     H16154   1.591  10.539   6.089 -0.4103  2.3383 -3.3298
  120MOL0     H16155   1.451  10.444   6.111  0.0267  0.5816 -0.6992
  120MOL0     H16156   1.508  10.387   5.857  0.3327  0.5064 -0.4007
  120MOL0     H16157   1.621  10.525   5.879 -0.5426  1.3497  0.4665
  120MOL0     H16158   1.330  10.556   5.938 -0.9573  1.4171 -1.2894
  120MOL0     H16159   1.405  10.589   5.778  3.2117 -1.0140 -0.4103
  120MOL0     H16160   1.207  10.735   5.883 -0.4404  0.5004 -2.1698
  120MOL0     H16161   0.962  10.997   5.951 -0.2426  1.1291 -1.1058
  120MOL0     H16162   1.008  10.918   5.807 -0.8271  2.5643  0.1404
  120MOL0     H16163   1.008  10.821   5.961  2.3006  2.7123  4.5579
  120MOL0     H16164   1.082  11.337   5.668  2.5874  2.5024  0.4322
  120MOL0     H16165   0.982  11.563   5.614  1.8722 -0.2484 -0.7202
  120MOL0     H16166   0.846  11.796   5.961  0.5494  0.5751 -0.0152
  120MOL0     H16167   0.875  11.891   5.818  1.6073  0.2523  3.1269
  120MOL0     H16168   0.634  11.850   5.740  0.1432 -1.6797 -0.5259
  120MOL0     H16169   0.618  11.734   5.864  1.3224 -0.8495 -0.1834
  120MOL0     H16170   0.672  12.018   5.955 -1.8891  0.7461 -2.6914
  120MOL0     H16171   0.591  11.886   6.047 -1.8522  1.5581  0.7257
  120MOL0     H16172   0.462  11.990   5.791 -2.1981 -2.5473 -0.8236
  120MOL0     H16173   0.386  11.909   5.923 -0.8795  0.5983  1.5290
  120MOL0     H16174   0.328  12.150   5.942 -0.5218 -0.9179  1.5226
  120MOL0     H16175   0.492  12.191   5.920 -1.3867  2.0308  0.2227
  120MOL0     H16176   0.320  12.045   6.147 -0.6852  0.1797 -1.4539
  120MOL0     H16177   0.491  12.032   6.163 -1.3472 -0.4420  0.4755
  120MOL0     H16178   0.352  12.309   6.149 -0.3544 -1.1675 -1.7690
  120MOL0     H16179   0.517  12.280   6.201  1.9912 -5.7263  0.4053
  120MOL0     H16180   0.432  12.152   6.403  0.7957  4.3552  3.4242
  120MOL0     H16181   0.263  12.174   6.335 -1.4915  2.4925  1.2346
  120MOL0     H16182   0.825  11.572   6.023 -2.3336  1.5277 -3.3317
  120MOL0     H16183   0.905  11.332   6.052  0.4193 -1.9881 -1.3046
  120MOL0     H16184   1.412  11.157   6.014 -1.6385  0.2809  2.4037
  120MOL0     H16185   1.550  10.951   6.011  0.0920 -0.3759  0.7110
  120MOL0     H16186   2.489  10.453   7.253  3.1105  0.5717 -2.7594
  120MOL0     H16187   2.723  10.460   7.328  2.1467 -1.1550  0.3548
  120MOL0     H16188   2.970  10.335   7.647 -0.2430 -0.7445  1.0190
  120MOL0     H16189   3.186  10.444   7.740 -2.0372  1.1936 -0.9332
  120MOL0     H16190   3.595  10.334   7.573 -3.1071 -1.1298 -0.3621
  120MOL0     H16191   3.512  10.457   7.471  1.7355  2.1130 -0.3659
  120MOL0     H16192   3.644  10.528   7.720  0.8816 -2.3560 -0.1052
  120MOL0     H16193   3.564  10.627   7.594  0.7195 -0.7071 -0.6412
  120MOL0     H16194   3.820  10.447   7.558  1.1628  0.2943 -1.5949
  120MOL0     H16195   3.842  10.608   7.582  3.5177 -2.6352 -4.0761
  120MOL0     H16196   3.684  10.527   7.342  1.3002  0.1737 -1.3230
  120MOL0     H16197   3.860  10.552   7.349 -1.7115 -1.1282 -0.2260
  120MOL0     H16198   3.698  10.933   7.351  1.5975  0.4049  1.0731
  120MOL0     H16199   3.410  10.188   7.476 -0.4447 -1.9569  1.8376
  120MOL0     H16200   3.199  10.128   7.366 -1.0582  0.1933 -0.5742
  121MOL0     O16201   7.146   8.781  11.485  0.2962  0.1002  0.0701
  121MOL0     C16202   7.165   8.664  11.523  0.5262  0.5686  2.0567
  121MOL0     O16203   7.186   8.630  11.641  0.3561  0.6297  0.0998
  121MOL0     C16204   7.192   8.738  11.735  0.7417  1.6196  0.0905
  121MOL0     C16205   7.079   8.783  11.792 -0.2158  0.0400 -0.7051
  121MOL0     C16206   7.094   8.906  11.860  0.9813 -0.2476  0.1428
  121MOL0     C16207   7.217   8.964  11.878  0.1339 -0.8560  0.3462
  121MOL0     O16208   7.203   9.083  11.956 -0.6970 -0.1792  0.4206
  121MOL0     C16209   7.319   9.161  11.958  0.6592 -0.4124  0.3851
  121MOL0     C16210   7.273   9.295  12.026 -0.1326 -0.2901 -0.4089
  121MOL0     C16211   7.278   9.295  12.183 -0.2052 -0.2104  0.4099
  121MOL0     C16212   7.215   9.409  12.261  0.3185 -0.3600 -0.2346
  121MOL0     C16213   7.294   9.538  12.267  0.2091  0.3138 -0.0052
  121MOL0     C16214   7.440   9.520  12.300 -0.8059  0.0449 -0.5289
  121MOL0     C16215   7.512   9.653  12.283  0.1308 -0.1223 -0.3863
  121MOL0     C16216   7.662   9.634  12.305  0.8773 -0.5411 -0.7039
  121MOL0     N16217   7.731   9.739  12.231 -0.6750  0.2899  0.8828
  121MOL0     C16218   7.757   9.866  12.280 -0.4424  0.9205 -0.5392
  121MOL0     C16219   7.759   9.935  12.173  1.1034 -0.6263 -0.3650
  121MOL0     C16220   7.769  10.093  12.180  0.2494  0.5169 -0.0136
  121MOL0     C16221   7.904  10.151  12.153  0.3010 -0.9255  0.7846
  121MOL0     C16222   7.960  10.109  12.021 -0.6616 -0.2928 -0.1280
  121MOL0     C16223   8.066  10.203  11.960 -0.1502  1.2292 -0.3458
  121MOL0     O16224   8.179  10.215  12.045  0.9294  0.4807 -0.2312
  121MOL0     C16225   8.250  10.096  12.057  0.3378  0.8301 -0.5428
  121MOL0     C16226   8.322  10.089  12.178  0.4521  1.3585  0.1064
  121MOL0     C16227   8.410   9.982  12.212  0.5490 -0.3552  0.2393
  121MOL0     C16228   8.471   9.979  12.354  1.8702 -0.1688  0.5780
  121MOL0     C16229   8.428   9.882  12.122  0.0741  0.2340  0.4830
  121MOL0     C16230   8.513   9.769  12.147 -0.1469 -0.3723  0.4699
  121MOL0     O16231   8.456   9.647  12.179 -0.3741 -0.9122 -0.3528
  121MOL0     C16232   8.516   9.529  12.151 -0.5031  0.2237 -0.6898
  121MOL0     C16233   8.629   9.508  12.068  0.1049  0.5780  0.0223
  121MOL0     C16234   8.677   9.380  12.044  0.3111  0.1490  0.1491
  121MOL0     C16235   8.618   9.270  12.097 -1.0548 -0.2397  0.3117
  121MOL0     O16236   8.679   9.151  12.072  0.0131 -0.2598 -0.1598
  121MOL0     C16237   8.691   9.070  12.184 -0.2401  0.2926 -0.4972
  121MOL0     C16238   8.809   8.977  12.164  0.2883  0.3308  0.5623
  121MOL0     C16239   8.943   9.065  12.161  1.1629  0.3716  0.2093
  121MOL0     C16240   9.065   8.980  12.201  1.3966 -0.3284 -1.0114
  121MOL0     C16241   9.181   9.076  12.239 -0.5020 -0.0563  0.4009
  121MOL0     C16242   9.319   9.001  12.244 -0.0623  0.1667 -0.2586
  121MOL0     C16243   9.419   9.093  12.306 -0.4331  0.4634 -0.2084
  121MOL0     C16244   9.554   9.009  12.344  0.2576  0.3315  0.3371
  121MOL0    Cl16245   9.621   8.944  12.193  0.4371 -0.1561 -0.3140
  121MOL0     C16246   8.501   9.290  12.168  0.0170 -0.0827  0.2185
  121MOL0     C16247   8.447   9.415  12.189  0.0651 -0.0795 -0.0875
  121MOL0     O16248   8.627   9.796  12.144 -0.5511  0.6686 -1.1187
  121MOL0     C16249   8.354   9.880  11.999 -0.8649  0.1458  0.8432
  121MOL0     C16250   8.270   9.982  11.969  0.0462 -0.0190  0.3148
  121MOL0     N16251   7.764   9.851  12.062 -0.1892 -0.3690 -0.4909
  121MOL0     N16252   7.747   9.726  12.095  1.0039  0.4858 -0.5409
  121MOL0     C16253   7.344   8.904  11.830  0.7622 -1.2905 -0.8904
  121MOL0     C16254   7.320   8.780  11.764  0.7792 -0.0687  0.6867
  121MOL0     C16255   7.169   8.559  11.419 -0.8873 -0.8839  1.6971
  121MOL0     C16256   7.151   8.596  11.287 -1.1516  0.4113 -0.8487
  121MOL0     C16257   7.166   8.504  11.177 -0.7042 -0.1452  0.6566
  121MOL0     C16258   7.219   8.373  11.203  1.1237  0.3516  0.2160
  121MOL0     O16259   7.225   8.274  11.108 -0.5612 -0.1686 -0.7894
  121MOL0     C16260   7.355   8.225  11.078  0.1467 -0.7348  0.8670
  121MOL0     C16261   7.366   8.163  10.942 -0.1864  0.6668 -0.6196
  121MOL0     C16262   7.514   8.131  10.891  0.7996 -0.1337  0.3941
  121MOL0     C16263   7.503   8.009  10.799  0.7634 -1.0905 -0.1697
  121MOL0     C16264   7.638   7.975  10.738  1.5481 -0.0669 -0.2487
  121MOL0     C16265   7.755   7.956  10.706 -0.2950 -0.7939 -0.4020
  121MOL0     C16266   7.231   8.333  11.333 -0.3138 -0.0328 -0.2983
  121MOL0     C16267   7.205   8.429  11.447 -0.0094 -0.3414  0.4137
  121MOL0     H16268   6.980   8.742  11.773 -0.2143 -1.3514  1.9224
  121MOL0     H16269   7.017   8.971  11.900  1.2565  0.9595 -1.2199
  121MOL0     H16270   7.400   9.112  12.014  2.5905  1.0151 -1.0388
  121MOL0     H16271   7.346   9.172  11.853  0.6506 -0.4407  0.3799
  121MOL0     H16272   7.341   9.374  11.993  0.5522 -0.6297  0.1664
  121MOL0     H16273   7.174   9.324  11.988 -0.4420 -0.2846  0.3920
  121MOL0     H16274   7.227   9.205  12.218 -1.1553 -0.2636 -0.9903
  121MOL0     H16275   7.382   9.277  12.209  0.4025  1.7351 -0.4928
  121MOL0     H16276   7.116   9.432  12.220  1.3007  6.5318  0.1280
  121MOL0     H16277   7.204   9.375  12.364  1.0980 -0.0875 -0.0518
  121MOL0     H16278   7.293   9.597  12.175  0.3467 -1.3173 -1.0793
  121MOL0     H16279   7.259   9.601  12.350 -4.6967  1.2450 -2.4122
  121MOL0     H16280   7.445   9.490  12.405 -0.0966 -1.2790 -0.9270
  121MOL0     H16281   7.481   9.446  12.231  0.6976  1.6119 -1.3911
  121MOL0     H16282   7.491   9.703  12.189  2.1111 -0.1304 -0.8706
  121MOL0     H16283   7.478   9.731  12.352  0.0056  0.5695 -1.2197
  121MOL0     H16284   7.691   9.543  12.252 -0.1460 -0.3331 -1.6400
  121MOL0     H16285   7.696   9.630  12.409  2.1800 -2.2423 -1.1350
  121MOL0     H16286   7.767   9.892  12.385  0.7416  0.0969 -0.4269
  121MOL0     H16287   7.690  10.133  12.116 -1.1911 -1.9594  0.0711
  121MOL0     H16288   7.736  10.113  12.282 -0.0238 -0.8898  0.1987
  121MOL0     H16289   7.971  10.139  12.239  0.8883 -0.2333  0.4388
  121MOL0     H16290   7.884  10.258  12.147 -0.7992 -1.1211  0.7807
  121MOL0     H16291   7.878  10.110  11.949 -2.3589  1.7818  1.6982
  121MOL0     H16292   8.006  10.010  12.021 -1.0122 -0.4668 -1.4353
  121MOL0     H16293   8.010  10.296  11.944 -1.4901  0.2875 -1.3908
  121MOL0     H16294   8.104  10.161  11.866  2.9451  0.5068  1.1005
  121MOL0     H16295   8.313  10.163  12.257 -0.3325  2.3249 -0.8742
  121MOL0     H16296   8.453   9.882  12.402  2.1183 -0.3246  0.3629
  121MOL0     H16297   8.579   9.997  12.351  2.0197 -1.1031 -0.6693
  121MOL0     H16298   8.434  10.057  12.421  3.0195  2.2987 -1.4733
  121MOL0     H16299   8.682   9.591  12.022 -0.3046  1.5643  1.2572
  121MOL0     H16300   8.768   9.374  11.986 -1.8623 -1.9050 -3.3562
  121MOL0     H16301   8.695   9.128  12.277 -2.2301 -1.2992  0.6425
  121MOL0     H16302   8.595   9.018  12.188 -0.2117  0.1848 -1.1576
  121MOL0     H16303   8.817   8.895  12.237 -0.7282 -0.8609 -0.6161
  121MOL0     H16304   8.816   8.925  12.068  0.1420 -0.1585  0.8124
  121MOL0     H16305   8.924   9.147  12.232  0.4555  1.2142 -0.9122
  121MOL0     H16306   8.956   9.104  12.060 -0.9246 -0.7045 -0.5283
  121MOL0     H16307   9.048   8.914  12.287  1.4537 -0.4296 -1.0769
  121MOL0     H16308   9.088   8.914  12.116  0.7860  0.2866 -1.6607
  121MOL0     H16309   9.174   9.098  12.346 -1.5071  2.0211 -0.0460
  121MOL0     H16310   9.178   9.173  12.190 -0.1504  0.4855  1.4371
  121MOL0     H16311   9.305   8.902  12.288  2.9407 -1.2773 -2.1484
  121MOL0     H16312   9.355   8.989  12.141  0.1413 -1.7330 -0.0078
  121MOL0     H16313   9.390   9.140  12.401 -0.2374  2.9111 -1.2690
  121MOL0     H16314   9.450   9.177  12.242  0.8261  1.1813  1.2821
  121MOL0     H16315   9.538   8.924  12.412  0.3112 -0.6561 -0.8582
  121MOL0     H16316   9.631   9.072  12.391 -0.1362 -0.1570  1.6822
  121MOL0     H16317   8.440   9.209  12.206  1.4010 -1.6966 -0.8451
  121MOL0     H16318   8.353   9.408  12.243 -0.5515 -3.2298 -1.3685
  121MOL0     H16319   8.371   9.811  11.917  1.5324  0.8658  0.6577
  121MOL0     H16320   8.227   9.976  11.869  0.5722 -1.7435  0.1741
  121MOL0     H16321   7.443   8.939  11.859  0.4325 -2.4459  1.9215
  121MOL0     H16322   7.404   8.717  11.737  0.5792 -0.3754  0.7697
  121MOL0     H16323   7.126   8.701  11.281  1.2382  1.3336  2.3783
  121MOL0     H16324   7.158   8.548  11.078  1.7888  1.6982  1.1674
  121MOL0     H16325   7.414   8.316  11.073 -1.9862  0.6589 -1.5792
  121MOL0     H16326   7.376   8.158  11.162 -2.2761  0.2726  2.4017
  121MOL0     H16327   7.327   8.236  10.870  0.8623 -0.0323 -1.9334
  121MOL0     H16328   7.316   8.066  10.933  0.2737  0.5139 -1.7650
  121MOL0     H16329   7.581   8.103  10.974 -0.9963  0.4040  2.1144
  121MOL0     H16330   7.557   8.224  10.854  1.5684  1.7061  5.1766
  121MOL0     H16331   7.432   8.034  10.720  1.8215 -0.6425 -1.0127
  121MOL0     H16332   7.474   7.917  10.851  1.2751 -0.1574  1.8626
  121MOL0     H16333   7.854   7.916  10.710 -0.1603 -0.5748 -1.4260
  121MOL0     H16334   7.262   8.234  11.364 -3.0641 -0.9488 -0.2118
  121MOL0     H16335   7.207   8.394  11.550  0.4821 -1.7170 -0.0342
  122MOL0     O16336  11.044   1.436   4.710 -0.1147  0.3999  0.1481
  122MOL0     C16337  11.083   1.421   4.823 -0.2514  0.0668 -0.5115
  122MOL0     O16338  11.158   1.313   4.871 -0.4836 -0.0530  0.6597
  122MOL0     C16339  11.157   1.204   4.783 -0.4551  0.1650 -0.3642
  122MOL0     C16340  11.056   1.114   4.790  0.0886  0.0903 -0.2985
  122MOL0     C16341  11.048   1.006   4.711  0.3343  0.7949  0.4126
  122MOL0     C16342  11.148   0.996   4.614  0.2058  0.2355  0.2607
  122MOL0     O16343  11.154   0.890   4.529  0.7861  0.4931 -0.2513
  122MOL0     C16344  11.156   0.922   4.385 -1.5387 -0.4264  0.5074
  122MOL0     C16345  11.052   0.857   4.289  0.6898 -0.5840 -0.0387
  122MOL0     C16346  11.065   0.710   4.297  0.8132  1.0031  0.4865
  122MOL0     C16347  10.984   0.631   4.193 -0.5329  0.6445  0.8664
  122MOL0     C16348  10.937   0.491   4.250 -0.7408 -1.0844 -1.4931
  122MOL0     C16349  10.900   0.389   4.138 -0.4067 -0.1662  0.7420
  122MOL0     C16350  10.750   0.397   4.095 -0.6554 -0.3887 -0.6674
  122MOL0     C16351  10.692   0.274   4.043  0.4421 -0.3165  0.0698
  122MOL0     N16352  10.595   0.298   3.934  0.1659 -0.1886  0.0031
  122MOL0     C16353  10.638   0.304   3.799  0.1922 -0.0650  0.1219
  122MOL0     C16354  10.530   0.348   3.726 -0.3879  0.1967  0.4776
  122MOL0     C16355  10.525   0.376   3.581 -0.2612  0.4300 -0.0251
  122MOL0     C16356  10.401   0.292   3.521 -0.9815 -0.2682 -0.4078
  122MOL0     C16357  10.384   0.338   3.376  0.0012  0.0701  0.2661
  122MOL0     C16358  10.265   0.267   3.322 -0.5804  0.1440  0.5822
  122MOL0     O16359  10.254   0.292   3.178 -0.4557  0.6889  0.1845
  122MOL0     C16360  10.138   0.274   3.116 -0.0589  0.5595  0.8810
  122MOL0     C16361  10.083   0.145   3.105 -0.2076  0.2763  0.2882
  122MOL0     C16362   9.974   0.119   3.020  1.1724  0.3754 -0.4169
  122MOL0     C16363   9.931  -0.025   3.022  0.2594  0.0586 -0.3119
  122MOL0     C16364   9.912   0.220   2.947 -0.2919 -0.1602  0.4024
  122MOL0     C16365   9.797   0.201   2.843  0.2050 -0.6083  0.3835
  122MOL0     O16366   9.778   0.300   2.750 -0.2153  0.1575 -0.0831
  122MOL0     C16367   9.672   0.284   2.662 -0.6851  0.1922  1.1945
  122MOL0     C16368   9.693   0.213   2.541 -0.1714 -0.5037 -0.3578
  122MOL0     C16369   9.589   0.173   2.466 -0.0964 -0.3013 -0.1117
  122MOL0     C16370   9.451   0.205   2.502  0.1398 -0.5467  0.0226
  122MOL0     O16371   9.353   0.172   2.414  0.9335  0.0561  0.7432
  122MOL0     C16372   9.255   0.086   2.468 -0.3309 -0.0907  0.0466
  122MOL0     C16373   9.200   0.002   2.343  0.5276 -0.3996  0.6239
  122MOL0     C16374   9.137   0.076   2.231 -0.2794  0.2254 -0.6097
  122MOL0     C16375   9.037  -0.008   2.143  0.7831  0.0407  0.1669
  122MOL0     C16376   9.057   0.045   2.006 -0.2567 -0.8123  0.5494
  122MOL0     C16377   8.968  -0.024   1.895 -0.4092  0.0007  0.7016
  122MOL0     C16378   8.821   0.003   1.916  0.1504 -0.2188 -0.0673
  122MOL0     C16379   8.738  -0.100   1.836  0.0633 -0.2396  0.2629
  122MOL0    Cl16380   8.572  -0.035   1.852  0.1851 -0.4457  0.0901
  122MOL0     C16381   9.433   0.283   2.618  0.6560  0.0336  0.9107
  122MOL0     C16382   9.541   0.321   2.693  0.1526  1.2037 -0.6876
  122MOL0     O16383   9.731   0.098   2.855  0.2884 -0.6985 -1.6822
  122MOL0     C16384   9.977   0.348   2.963  0.7251  0.5901  0.8785
  122MOL0     C16385  10.074   0.374   3.053  0.3020 -0.4543 -0.1052
  122MOL0     N16386  10.426   0.370   3.818 -0.5504 -0.4802 -0.4939
  122MOL0     N16387  10.461   0.341   3.937 -0.6055 -0.1490  0.0553
  122MOL0     C16388  11.263   1.071   4.617 -0.3123 -0.1544  0.1288
  122MOL0     C16389  11.274   1.179   4.705 -0.4518 -0.0649 -0.8123
  122MOL0     C16390  11.074   1.536   4.914 -1.0811 -0.4064  0.4638
  122MOL0     C16391  11.020   1.661   4.869  0.7268  0.6275 -1.1946
  122MOL0     C16392  10.997   1.771   4.959  0.3416  0.0839 -0.4270
  122MOL0     C16393  11.025   1.754   5.097 -0.4661 -0.0421  0.3180
  122MOL0     O16394  10.979   1.840   5.190  0.1086 -0.7925  0.1838
  122MOL0     C16395  11.073   1.884   5.294 -0.7292  0.0076  0.2884
  122MOL0     C16396  11.054   2.030   5.336 -0.0388  0.4055  0.6897
  122MOL0     C16397  11.087   2.141   5.242  0.7292  0.1735 -0.1567
  122MOL0     C16398  10.997   2.142   5.118 -0.7998 -0.2642  0.1751
  122MOL0     C16399  10.854   2.145   5.151  0.2606  0.2753  0.1535
  122MOL0     C16400  10.740   2.170   5.176  0.9751  0.3200  0.7485
  122MOL0     C16401  11.072   1.623   5.133  0.7358  0.1746 -0.6338
  122MOL0     C16402  11.108   1.523   5.045  0.1392 -0.3696 -0.0229
  122MOL0     H16403  10.981   1.140   4.865 -0.7213  0.6341 -1.2656
  122MOL0     H16404  10.964   0.938   4.714 -1.1806  2.5383 -0.2263
  122MOL0     H16405  11.150   1.030   4.369 -1.9865 -0.6642 -1.2003
  122MOL0     H16406  11.256   0.904   4.346 -2.3427  0.2528 -2.1201
  122MOL0     H16407  10.955   0.883   4.331  0.3948 -0.7215 -0.6194
  122MOL0     H16408  11.058   0.897   4.187 -2.6973 -0.4982 -0.3286
  122MOL0     H16409  11.172   0.687   4.301  0.7043  0.4856  4.9508
  122MOL0     H16410  11.036   0.682   4.398  0.6744 -0.2751  0.1082
  122MOL0     H16411  10.890   0.682   4.174 -0.6690  0.5852  1.3561
  122MOL0     H16412  11.057   0.623   4.112  3.5482  0.9142  4.1650
  122MOL0     H16413  11.015   0.439   4.307 -1.6122 -1.7235 -0.8535
  122MOL0     H16414  10.863   0.502   4.330  0.3064 -3.7336 -0.0138
  122MOL0     H16415  10.959   0.399   4.047 -0.7828  0.7222  0.5902
  122MOL0     H16416  10.919   0.285   4.166  1.5139 -1.2818 -3.7750
  122MOL0     H16417  10.688   0.407   4.184 -0.2792 -1.3078 -0.2974
  122MOL0     H16418  10.730   0.471   4.016  2.4366 -0.0797 -1.3043
  122MOL0     H16419  10.637   0.224   4.124  1.9786 -2.1443  0.0346
  122MOL0     H16420  10.766   0.206   4.000 -1.9035 -2.2432 -1.1712
  122MOL0     H16421  10.741   0.291   3.767  1.6167  3.7387  2.5106
  122MOL0     H16422  10.504   0.482   3.565 -0.2570  0.6458  1.3208
  122MOL0     H16423  10.615   0.359   3.521 -0.3816 -2.3804  0.4402
  122MOL0     H16424  10.311   0.306   3.581 -0.7483  1.9290 -0.4664
  122MOL0     H16425  10.425   0.185   3.521 -3.3154 -0.8501  0.4765
  122MOL0     H16426  10.469   0.318   3.311 -1.3160  2.4166 -2.3997
  122MOL0     H16427  10.371   0.446   3.372  3.6735  0.6168  0.2395
  122MOL0     H16428  10.173   0.298   3.371  0.2601  0.7509  1.8249
  122MOL0     H16429  10.274   0.162   3.350 -1.2710 -0.3323 -0.8523
  122MOL0     H16430  10.141   0.064   3.146  0.5758  0.2265 -0.8826
  122MOL0     H16431   9.993  -0.088   3.086 -1.7468  0.1725  1.8737
  122MOL0     H16432   9.826  -0.032   3.051  0.0631  1.1165 -0.7295
  122MOL0     H16433   9.959  -0.057   2.921  2.1907 -0.0364  0.2103
  122MOL0     H16434   9.794   0.181   2.520 -0.0498 -0.6713  0.4586
  122MOL0     H16435   9.611   0.123   2.373  3.1875  1.5804 -0.4849
  122MOL0     H16436   9.303   0.019   2.540  1.8063  1.9807  0.7080
  122MOL0     H16437   9.179   0.149   2.516  0.7081 -0.5391  2.4543
  122MOL0     H16438   9.294  -0.042   2.308  2.5989  2.0831  2.5803
  122MOL0     H16439   9.130  -0.065   2.395 -0.0291 -0.2237  0.1094
  122MOL0     H16440   9.212   0.135   2.177  0.1352  1.1053  0.9006
  122MOL0     H16441   9.081   0.148   2.291  2.6443  2.3286 -0.1908
  122MOL0     H16442   9.051  -0.117   2.138 -2.6832 -0.4913 -1.7144
  122MOL0     H16443   8.940   0.020   2.187 -0.0292 -1.4217 -0.5933
  122MOL0     H16444   9.158   0.026   1.967 -0.7895 -0.8320 -0.8860
  122MOL0     H16445   9.059   0.154   2.008  1.4334 -0.8201  1.5944
  122MOL0     H16446   9.010   0.024   1.807  2.5634  0.2181  2.1209
  122MOL0     H16447   8.987  -0.131   1.887  1.6805 -0.2469  5.4610
  122MOL0     H16448   8.787   0.099   1.876 -1.2860 -0.6639  0.0222
  122MOL0     H16449   8.795  -0.017   2.020  1.1433 -0.2843  0.1818
  122MOL0     H16450   8.741  -0.199   1.883 -1.7756  0.0314  1.0356
  122MOL0     H16451   8.768  -0.109   1.731 -0.7542 -1.7817  0.1290
  122MOL0     H16452   9.329   0.302   2.644  0.3483  0.1042 -0.3093
  122MOL0     H16453   9.533   0.378   2.786  1.8184 -0.4472  0.5234
  122MOL0     H16454   9.948   0.424   2.891 -0.2747 -0.1519  0.4696
  122MOL0     H16455  10.113   0.475   3.058  3.7511 -1.5040 -2.2185
  122MOL0     H16456  11.339   1.056   4.541 -0.8480  2.2322 -0.9764
  122MOL0     H16457  11.355   1.251   4.704 -0.6054  0.1352 -2.2813
  122MOL0     H16458  11.004   1.681   4.763  0.1263 -1.7677 -1.6284
  122MOL0     H16459  10.944   1.856   4.918 -3.7056 -2.4258 -0.9111
  122MOL0     H16460  11.053   1.822   5.382  1.4175  2.3777  2.6229
  122MOL0     H16461  11.178   1.881   5.262 -0.7992  0.1540  0.0446
  122MOL0     H16462  11.106   2.044   5.431  2.4601 -4.1159  0.2642
  122MOL0     H16463  10.949   2.043   5.362 -0.5050 -2.4688  0.5819
  122MOL0     H16464  11.191   2.124   5.213  0.4278  0.9473 -1.8004
  122MOL0     H16465  11.070   2.230   5.302 -0.8380  0.7241 -1.3566
  122MOL0     H16466  11.027   2.049   5.068  0.9367 -1.2970  2.9003
  122MOL0     H16467  11.029   2.225   5.054  1.1878 -0.2725  1.0875
  122MOL0     H16468  10.647   2.193   5.224 -0.0386 -0.3356 -0.8453
  122MOL0     H16469  11.087   1.594   5.236  2.8595 -2.7143 -1.6040
  122MOL0     H16470  11.165   1.436   5.075  1.8903  0.4627 -0.7871
  123MOL0     O16471   4.636   2.158   2.398  0.3233  0.2288  1.0049
  123MOL0     C16472   4.558   2.178   2.492  0.9973 -0.6052 -0.5008
  123MOL0     O16473   4.431   2.233   2.470  0.5621 -0.2722  0.5147
  123MOL0     C16474   4.398   2.277   2.342 -0.1259  0.1895 -0.0275
  123MOL0     C16475   4.293   2.217   2.264 -1.1954 -1.0161  0.1373
  123MOL0     C16476   4.278   2.256   2.132 -0.4982  0.9919 -0.5809
  123MOL0     C16477   4.360   2.350   2.071 -0.4848  0.2142 -0.0423
  123MOL0     O16478   4.331   2.384   1.940  0.1210 -0.1857 -0.8719
  123MOL0     C16479   4.347   2.519   1.886 -0.7364 -0.4006  0.2084
  123MOL0     C16480   4.218   2.591   1.917 -0.3596  0.1991  0.4053
  123MOL0     C16481   4.116   2.561   1.814 -0.4917 -0.2645 -0.2924
  123MOL0     C16482   4.008   2.464   1.860 -0.2515 -0.3452  0.0520
  123MOL0     C16483   3.907   2.424   1.748 -0.2592 -0.5204  0.4034
  123MOL0     C16484   3.769   2.420   1.806  0.5829 -0.3853  0.5727
  123MOL0     C16485   3.662   2.340   1.732 -0.1057  0.7592 -0.6953
  123MOL0     C16486   3.677   2.180   1.732 -0.4470 -0.0632 -0.4383
  123MOL0     N16487   3.693   2.123   1.870  0.1141  0.6291 -0.1470
  123MOL0     C16488   3.802   2.124   1.954 -0.1729 -0.0821 -0.1957
  123MOL0     C16489   3.747   2.068   2.069 -0.4371 -0.0641 -0.2152
  123MOL0     C16490   3.817   2.063   2.202 -1.1792  0.2537  0.6788
  123MOL0     C16491   3.974   2.058   2.199 -0.4385  0.4333  0.7080
  123MOL0     C16492   3.999   1.909   2.146  0.2177 -0.7227 -0.1634
  123MOL0     C16493   4.146   1.864   2.144  0.0606  0.6156  0.6234
  123MOL0     O16494   4.194   1.874   2.286 -0.2444 -0.9223  0.2411
  123MOL0     C16495   4.319   1.815   2.311 -0.5290  0.4134 -0.0563
  123MOL0     C16496   4.337   1.687   2.377 -0.6488 -1.1925  0.0959
  123MOL0     C16497   4.462   1.627   2.387 -0.2389 -0.0581  0.4144
  123MOL0     C16498   4.464   1.488   2.431  0.5088 -0.5935  0.3355
  123MOL0     C16499   4.575   1.705   2.357 -0.5146 -0.1455  0.8100
  123MOL0     C16500   4.713   1.657   2.395 -0.0082  0.4377  1.0403
  123MOL0     O16501   4.736   1.551   2.476 -0.0331  0.2106 -0.4199
  123MOL0     C16502   4.857   1.540   2.534  0.4439 -0.0541  0.5639
  123MOL0     C16503   4.902   1.638   2.625 -0.3770 -0.5057  0.6881
  123MOL0     C16504   5.028   1.649   2.663 -0.8654 -1.1930  0.2732
  123MOL0     C16505   5.122   1.563   2.611  0.8455  0.9872  0.7049
  123MOL0     O16506   5.253   1.548   2.657 -0.3852  0.7642  0.3418
  123MOL0     C16507   5.348   1.638   2.604  0.3636  0.4118  0.0218
  123MOL0     C16508   5.494   1.627   2.664 -0.0607  0.7483 -0.8087
  123MOL0     C16509   5.559   1.499   2.611  0.3809 -0.1795 -0.2670
  123MOL0     C16510   5.491   1.366   2.659  0.6367  0.5041 -0.3005
  123MOL0     C16511   5.575   1.241   2.629  0.6044  0.3166  0.3436
  123MOL0     C16512   5.492   1.116   2.598  0.4948 -0.3140 -0.0297
  123MOL0     C16513   5.445   1.108   2.449  0.5105  0.3220 -0.9617
  123MOL0     C16514   5.327   1.002   2.434 -0.0731 -0.9665 -0.8079
  123MOL0    Cl16515   5.356   0.833   2.504 -0.4433  0.3963 -0.1651
  123MOL0     C16516   5.080   1.447   2.530  0.4344  0.2539 -0.3491
  123MOL0     C16517   4.946   1.446   2.480 -0.8076  0.1112 -0.3958
  123MOL0     O16518   4.803   1.719   2.335  0.5283  0.8538 -1.0885
  123MOL0     C16519   4.566   1.836   2.303  0.2049  0.6389  0.6631
  123MOL0     C16520   4.436   1.885   2.272 -1.2515  0.0720  0.8840
  123MOL0     N16521   3.620   2.014   2.047  0.7958 -0.3928 -0.1194
  123MOL0     N16522   3.585   2.055   1.925 -0.1486 -0.8465 -0.1362
  123MOL0     C16523   4.454   2.412   2.152  0.0986  0.2296  0.6880
  123MOL0     C16524   4.484   2.371   2.284  0.4646  0.2507 -0.2880
  123MOL0     C16525   4.587   2.129   2.631  0.6480 -0.5573  0.8482
  123MOL0     C16526   4.705   2.057   2.643 -0.7850  0.2328 -0.3377
  123MOL0     C16527   4.735   1.988   2.766 -0.9223  0.0741 -0.0196
  123MOL0     C16528   4.656   1.993   2.875  0.1671  0.7196  0.0215
  123MOL0     O16529   4.696   1.899   2.970  0.0508  0.7421 -0.0057
  123MOL0     C16530   4.633   1.897   3.096 -0.4877  0.2325 -0.8252
  123MOL0     C16531   4.694   1.799   3.193 -0.1163 -0.3179  0.0052
  123MOL0     C16532   4.825   1.844   3.262  0.0211  0.1236  0.4033
  123MOL0     C16533   4.811   1.987   3.321 -0.8205  0.0681  0.6208
  123MOL0     C16534   4.902   2.006   3.430  1.0918 -0.0698  0.4429
  123MOL0     C16535   4.976   2.038   3.509 -0.4847  0.2077  0.6679
  123MOL0     C16536   4.554   2.085   2.874 -0.0172 -0.1327  0.2355
  123MOL0     C16537   4.512   2.151   2.752 -1.0666  0.7235  0.2700
  123MOL0     H16538   4.225   2.146   2.310 -1.7599 -0.3503  0.3386
  123MOL0     H16539   4.192   2.209   2.086 -1.5306  1.5076  0.7842
  123MOL0     H16540   4.438   2.568   1.923 -0.4979 -0.7886  0.1514
  123MOL0     H16541   4.356   2.518   1.777  1.2129  3.7563  0.1475
  123MOL0     H16542   4.191   2.562   2.019  1.4354  1.3127  1.2416
  123MOL0     H16543   4.240   2.698   1.912  2.0108 -0.2829 -1.4534
  123MOL0     H16544   4.067   2.655   1.789 -0.0839  0.2526  0.7890
  123MOL0     H16545   4.162   2.517   1.725  1.7843 -1.3762  1.3283
  123MOL0     H16546   4.054   2.373   1.900 -0.3891  0.7309  2.8226
  123MOL0     H16547   3.965   2.509   1.949  1.6449  0.4187  0.6289
  123MOL0     H16548   3.901   2.509   1.679 -1.3277 -0.7567  0.1841
  123MOL0     H16549   3.955   2.339   1.699  2.1214  0.5078  0.8464
  123MOL0     H16550   3.777   2.380   1.907  0.0617 -1.4231  0.2257
  123MOL0     H16551   3.733   2.523   1.814 -0.3052 -0.7745  1.8327
  123MOL0     H16552   3.574   2.356   1.796  0.4411  0.1224  0.2502
  123MOL0     H16553   3.649   2.375   1.629 -0.3636  2.6846 -0.0598
  123MOL0     H16554   3.758   2.165   1.660 -1.2216  1.5340 -1.7402
  123MOL0     H16555   3.594   2.128   1.682  1.7636 -2.2078 -2.0997
  123MOL0     H16556   3.904   2.145   1.925 -0.2081  4.5273  2.0208
  123MOL0     H16557   3.793   2.150   2.264  3.5693  1.9258  0.6170
  123MOL0     H16558   3.771   1.980   2.255 -3.2592  0.9383  0.0425
  123MOL0     H16559   4.018   2.069   2.299  2.5749 -2.9994 -0.0299
  123MOL0     H16560   4.018   2.133   2.133  0.1213 -0.7433 -0.2866
  123MOL0     H16561   3.968   1.901   2.041 -1.6318 -2.1644  0.4443
  123MOL0     H16562   3.935   1.839   2.200  0.3196  0.5951  1.7726
  123MOL0     H16563   4.213   1.914   2.073 -0.0657 -2.6275 -2.0371
  123MOL0     H16564   4.159   1.757   2.128  1.1123  0.8427 -0.2218
  123MOL0     H16565   4.250   1.628   2.404 -1.4643 -1.7600 -3.2869
  123MOL0     H16566   4.366   1.438   2.433  0.2362 -0.0534  1.8315
  123MOL0     H16567   4.531   1.427   2.370  2.6512  2.0538 -0.1662
  123MOL0     H16568   4.503   1.495   2.532  2.1565  1.3989 -0.3603
  123MOL0     H16569   4.820   1.699   2.662 -1.6205 -1.8772  0.3052
  123MOL0     H16570   5.060   1.741   2.712 -4.1575  1.3445 -1.9423
  123MOL0     H16571   5.355   1.637   2.495  2.2979 -2.0253  0.0954
  123MOL0     H16572   5.333   1.739   2.642 -1.6544 -0.5444  2.0308
  123MOL0     H16573   5.553   1.714   2.632  0.8031 -0.5471 -2.9041
  123MOL0     H16574   5.494   1.610   2.772  0.1477  0.7831 -0.8026
  123MOL0     H16575   5.653   1.483   2.665 -0.8132 -1.2479  1.6416
  123MOL0     H16576   5.570   1.514   2.503 -2.4623 -3.4401 -1.2013
  123MOL0     H16577   5.478   1.369   2.767  0.6463 -1.4178 -0.2148
  123MOL0     H16578   5.391   1.341   2.621  1.3746 -2.0888 -0.6634
  123MOL0     H16579   5.644   1.224   2.713  0.3063  1.1647  0.7761
  123MOL0     H16580   5.646   1.264   2.549  3.3082 -1.7817  1.9698
  123MOL0     H16581   5.563   1.034   2.613  2.8233  1.5978 -0.2274
  123MOL0     H16582   5.405   1.110   2.665  1.4781  3.2742  1.7953
  123MOL0     H16583   5.522   1.068   2.382  0.3862 -0.2354 -0.7774
  123MOL0     H16584   5.415   1.208   2.416 -0.5482  1.1466  2.1319
  123MOL0     H16585   5.323   1.000   2.325  3.0756  4.2909 -1.4175
  123MOL0     H16586   5.235   1.041   2.477  0.9468 -1.0757  1.6476
  123MOL0     H16587   5.158   1.381   2.492 -1.2913 -0.7420 -2.3628
  123MOL0     H16588   4.928   1.350   2.433  1.5303 -0.4211 -0.2871
  123MOL0     H16589   4.652   1.901   2.287  0.1850  1.1685  2.5348
  123MOL0     H16590   4.438   1.974   2.210  1.5566 -1.3986 -1.3990
  123MOL0     H16591   4.502   2.499   2.110  1.0335 -1.2839 -1.5965
  123MOL0     H16592   4.565   2.426   2.331 -0.7958  3.4171 -1.5613
  123MOL0     H16593   4.770   2.031   2.559 -0.4602  2.6767 -0.9293
  123MOL0     H16594   4.821   1.923   2.755 -1.2451 -0.4454  0.4571
  123MOL0     H16595   4.627   1.997   3.140 -0.4110  0.4264 -1.2523
  123MOL0     H16596   4.538   1.843   3.090  0.9321 -2.4510 -0.9834
  123MOL0     H16597   4.709   1.700   3.149 -2.0001 -0.5021 -0.2939
  123MOL0     H16598   4.623   1.781   3.274  0.6561 -1.3174  0.4887
  123MOL0     H16599   4.900   1.858   3.184 -0.1291  1.1833  0.4291
  123MOL0     H16600   4.857   1.776   3.342  2.1641  0.3059 -0.2471
  123MOL0     H16601   4.709   2.025   3.335 -0.4933  1.6016 -0.8360
  123MOL0     H16602   4.843   2.059   3.246 -3.1802  0.8263  0.2489
  123MOL0     H16603   5.047   2.076   3.581  1.8392 -2.5382  0.0122
  123MOL0     H16604   4.486   2.093   2.958 -1.8471 -0.4011 -1.1455
  123MOL0     H16605   4.422   2.210   2.766 -1.0607  1.4520 -2.3306
  124MOL0     O16606   6.148   3.701   2.978  0.2809  0.1150  0.3601
  124MOL0     C16607   6.050   3.773   2.997  0.1198 -0.9525  0.4996
  124MOL0     O16608   5.928   3.763   2.936 -0.6347 -0.1770  0.4913
  124MOL0     C16609   5.882   3.649   2.866 -1.1125  0.4317  0.1468
  124MOL0     C16610   5.968   3.578   2.780  0.1173 -0.5173 -0.2781
  124MOL0     C16611   5.924   3.469   2.708 -0.1681 -0.8194  0.7349
  124MOL0     C16612   5.795   3.418   2.726  0.3958 -0.4608 -0.1816
  124MOL0     O16613   5.739   3.306   2.659  0.9622 -0.3714 -0.1110
  124MOL0     C16614   5.835   3.228   2.589  0.3677  1.0424  0.5368
  124MOL0     C16615   5.771   3.115   2.507 -0.0254  0.6345 -0.5579
  124MOL0     C16616   5.868   3.021   2.431 -0.1943  0.9758  0.2981
  124MOL0     C16617   5.797   2.897   2.372  1.3470  0.7213 -0.1467
  124MOL0     C16618   5.764   2.786   2.482 -1.0105 -0.6090  0.3789
  124MOL0     C16619   5.720   2.652   2.426 -0.3051  0.7169 -0.5578
  124MOL0     C16620   5.683   2.557   2.537  0.6042 -0.4665 -0.5007
  124MOL0     C16621   5.542   2.579   2.589  1.1313 -0.3926  0.5490
  124MOL0     N16622   5.524   2.470   2.686  0.0465 -1.0806 -0.5331
  124MOL0     C16623   5.521   2.336   2.669  0.0788 -0.4333  0.6195
  124MOL0     C16624   5.528   2.278   2.790 -0.3184 -0.1059 -0.3585
  124MOL0     C16625   5.529   2.132   2.823  0.2021 -0.0387  0.3479
  124MOL0     C16626   5.671   2.074   2.863 -0.4415  0.1779 -1.0347
  124MOL0     C16627   5.739   1.999   2.742  0.9484  0.3270 -0.5449
  124MOL0     C16628   5.810   2.102   2.663 -0.3480 -0.5120  1.1994
  124MOL0     O16629   5.822   2.044   2.528  0.7058  0.6106 -0.9268
  124MOL0     C16630   5.829   2.134   2.422 -0.6803  0.3469  0.2971
  124MOL0     C16631   5.785   2.097   2.302 -0.1623  0.0782  0.1360
  124MOL0     C16632   5.782   2.183   2.188 -0.0610  0.7382  0.1409
  124MOL0     C16633   5.713   2.125   2.062  0.6190 -0.2446  0.3284
  124MOL0     C16634   5.821   2.314   2.205  0.3196 -0.6200 -0.7109
  124MOL0     C16635   5.818   2.412   2.096 -0.2152  0.0364  0.1596
  124MOL0     O16636   5.860   2.534   2.128 -0.1222 -0.3350 -0.1097
  124MOL0     C16637   5.809   2.645   2.065  0.2814  0.0888  0.0435
  124MOL0     C16638   5.687   2.661   1.988 -0.5594 -0.4704  0.4346
  124MOL0     C16639   5.645   2.784   1.943 -0.7640  0.0963 -0.4659
  124MOL0     C16640   5.725   2.897   1.958 -0.1245 -0.0848 -0.1720
  124MOL0     O16641   5.696   3.012   1.891 -0.0173  0.5208  0.5921
  124MOL0     C16642   5.655   3.112   1.976 -0.0890  1.2997  1.0121
  124MOL0     C16643   5.554   3.206   1.909 -0.2224  0.9378 -0.7013
  124MOL0     C16644   5.549   3.346   1.975  0.4786  0.3136  0.3147
  124MOL0     C16645   5.436   3.434   1.920 -0.3743 -0.2188 -0.7865
  124MOL0     C16646   5.415   3.557   2.016  0.2011 -0.6794  0.1824
  124MOL0     C16647   5.347   3.667   1.921 -0.3551 -0.3132  0.6004
  124MOL0     C16648   5.368   3.803   1.989 -0.5272  0.6292 -0.6631
  124MOL0     C16649   5.324   3.923   1.909 -0.3859  0.3135 -0.1362
  124MOL0    Cl16650   5.255   4.052   2.010  0.1333  0.2053 -0.1356
  124MOL0     C16651   5.840   2.885   2.030 -0.1352  0.3462 -0.2759
  124MOL0     C16652   5.884   2.758   2.080 -0.5446  0.0551  0.3203
  124MOL0     O16653   5.781   2.384   1.978 -0.3492 -0.3600 -0.1231
  124MOL0     C16654   5.890   2.347   2.324  0.7203 -1.1476  1.1037
  124MOL0     C16655   5.883   2.261   2.429  0.0196  0.2429 -0.4389
  124MOL0     N16656   5.539   2.377   2.886 -0.4146 -0.7154  0.6173
  124MOL0     N16657   5.539   2.486   2.818 -0.3488  0.7911 -0.7138
  124MOL0     C16658   5.713   3.490   2.817  0.9386  0.4037  0.2798
  124MOL0     C16659   5.756   3.604   2.882 -1.1620  0.7506  0.5308
  124MOL0     C16660   6.074   3.897   3.075  0.0887  0.0931 -0.2751
  124MOL0     C16661   6.204   3.961   3.086 -0.7599 -0.2431  0.0027
  124MOL0     C16662   6.210   4.085   3.150  0.7874  0.2143  0.4685
  124MOL0     C16663   6.096   4.152   3.201 -0.7215 -0.8816 -0.0275
  124MOL0     O16664   6.082   4.279   3.263  0.5348 -0.6789 -0.1498
  124MOL0     C16665   6.188   4.345   3.321 -0.3743  0.1840 -0.6886
  124MOL0     C16666   6.147   4.483   3.366 -0.3942 -0.5822  0.5328
  124MOL0     C16667   6.054   4.504   3.492  1.4901  0.3438  0.3045
  124MOL0     C16668   5.911   4.476   3.467  0.0023  0.0211 -0.8992
  124MOL0     C16669   5.836   4.480   3.597  0.7217  0.3535  0.6586
  124MOL0     C16670   5.767   4.498   3.696  0.0826  0.5769 -1.1114
  124MOL0     C16671   5.977   4.089   3.190  0.2963 -0.1771 -0.1614
  124MOL0     C16672   5.960   3.967   3.124 -0.7704  0.4765 -0.0407
  124MOL0     H16673   6.065   3.623   2.758 -0.6452  0.2777 -2.2874
  124MOL0     H16674   5.994   3.407   2.653 -3.7925 -7.0414  2.1689
  124MOL0     H16675   5.888   3.280   2.509  0.8887 -1.0607 -0.5785
  124MOL0     H16676   5.906   3.181   2.658  1.3144  0.9680 -0.4687
  124MOL0     H16677   5.715   3.045   2.570  1.4037 -0.4969 -0.4798
  124MOL0     H16678   5.694   3.159   2.443 -0.1468  0.2318 -0.6904
  124MOL0     H16679   5.917   3.077   2.351  4.4809 -1.0873  1.4379
  124MOL0     H16680   5.937   2.992   2.510  0.0978  1.4353  0.2141
  124MOL0     H16681   5.703   2.923   2.323  0.6514 -1.1915  0.0654
  124MOL0     H16682   5.864   2.863   2.293 -0.1233  1.7117 -1.8776
  124MOL0     H16683   5.860   2.756   2.524 -0.1467 -0.1783 -1.1985
  124MOL0     H16684   5.705   2.824   2.566  3.2600  1.8411  2.6420
  124MOL0     H16685   5.640   2.672   2.355  1.3151 -2.0823 -3.4909
  124MOL0     H16686   5.802   2.618   2.361 -0.8935 -1.1070 -0.3946
  124MOL0     H16687   5.669   2.458   2.493 -3.7402  1.0397 -3.1102
  124MOL0     H16688   5.758   2.559   2.617  1.1525  0.8238 -1.0119
  124MOL0     H16689   5.466   2.573   2.510 -0.4174  3.2330  1.5204
  124MOL0     H16690   5.524   2.673   2.643 -1.3173 -2.5019  3.7735
  124MOL0     H16691   5.511   2.297   2.568 -4.0682  0.9620  0.2721
  124MOL0     H16692   5.466   2.129   2.913  1.6034  0.9959  1.4117
  124MOL0     H16693   5.478   2.067   2.752  0.3806  1.4158 -1.1784
  124MOL0     H16694   5.662   2.005   2.948 -2.6552  0.5194 -0.9233
  124MOL0     H16695   5.740   2.146   2.908  2.1716 -2.3091 -0.7798
  124MOL0     H16696   5.668   1.941   2.683  0.3528  0.3558  0.1258
  124MOL0     H16697   5.813   1.932   2.787 -0.1593  0.4773  1.6471
  124MOL0     H16698   5.916   2.112   2.688 -0.0416  1.2227 -0.6001
  124MOL0     H16699   5.767   2.202   2.671 -0.1048 -0.4919  2.6312
  124MOL0     H16700   5.777   1.989   2.295  0.3321  0.1224 -1.3597
  124MOL0     H16701   5.654   2.035   2.076 -0.5305 -0.3532 -3.8402
  124MOL0     H16702   5.642   2.200   2.027  0.4989 -0.0408  0.9992
  124MOL0     H16703   5.792   2.101   1.990  1.2518  0.8425  0.6297
  124MOL0     H16704   5.618   2.580   1.971 -2.1399  0.6972  1.0993
  124MOL0     H16705   5.560   2.797   1.877  0.3792  1.2492 -1.8077
  124MOL0     H16706   5.596   3.077   2.061  4.3016 -5.0785  2.1758
  124MOL0     H16707   5.742   3.163   2.017  0.5846  0.5644  0.5222
  124MOL0     H16708   5.581   3.224   1.805  1.2574 -2.1297 -0.9363
  124MOL0     H16709   5.449   3.174   1.912 -1.2796  4.0947  0.5375
  124MOL0     H16710   5.647   3.387   1.947 -0.1613  0.5695 -1.6451
  124MOL0     H16711   5.533   3.333   2.083 -0.4444 -2.4527 -0.0809
  124MOL0     H16712   5.473   3.470   1.823  0.3108 -2.2235 -1.3182
  124MOL0     H16713   5.334   3.401   1.900 -1.0733  1.8702 -0.9128
  124MOL0     H16714   5.512   3.592   2.052 -0.3965  0.2644  0.9127
  124MOL0     H16715   5.354   3.530   2.102  2.2769 -0.8668  1.6757
  124MOL0     H16716   5.390   3.669   1.821 -2.2899  1.1080 -0.2541
  124MOL0     H16717   5.240   3.648   1.915 -0.9735  2.3430  1.9235
  124MOL0     H16718   5.476   3.814   2.006 -0.7954  1.7819  0.5515
  124MOL0     H16719   5.308   3.801   2.080 -0.2176  1.1935 -0.4362
  124MOL0     H16720   5.250   3.892   1.835  1.8166 -0.6801 -2.0614
  124MOL0     H16721   5.407   3.954   1.844 -1.6166  1.6325 -1.1408
  124MOL0     H16722   5.902   2.970   2.056  2.1146 -0.8486 -1.4026
  124MOL0     H16723   5.979   2.738   2.130 -0.2858 -1.8202 -0.8330
  124MOL0     H16724   5.944   2.441   2.327  1.0607 -1.2576 -0.5590
  124MOL0     H16725   5.913   2.280   2.532 -4.8613  1.1289  1.0613
  124MOL0     H16726   5.610   3.457   2.833  0.2513  3.3977  3.2115
  124MOL0     H16727   5.684   3.652   2.947 -0.0861  2.1406  0.7573
  124MOL0     H16728   6.295   3.931   3.036  1.4054  1.3954  2.7187
  124MOL0     H16729   6.311   4.126   3.143 -0.2942  3.1608  0.6597
  124MOL0     H16730   6.238   4.292   3.402 -1.8304 -0.0420  0.0931
  124MOL0     H16731   6.270   4.364   3.250 -1.5218  2.5844 -1.4745
  124MOL0     H16732   6.081   4.523   3.289 -1.0179 -0.8079  0.9421
  124MOL0     H16733   6.235   4.548   3.376 -1.9714  1.9353 -1.0192
  124MOL0     H16734   6.066   4.608   3.524  1.1181  1.0730 -1.7810
  124MOL0     H16735   6.096   4.445   3.574  1.3482 -0.5677 -0.2612
  124MOL0     H16736   5.903   4.376   3.423  0.4015 -0.0485 -0.8172
  124MOL0     H16737   5.872   4.555   3.402  0.2097 -0.7227 -1.9578
  124MOL0     H16738   5.713   4.539   3.779  2.3030  1.0799  0.1472
  124MOL0     H16739   5.889   4.142   3.227  1.3869  2.3084 -0.9292
  124MOL0     H16740   5.859   3.928   3.119 -1.3854  2.1465 -2.4127
  125MOL0     O16741   0.787   8.815   8.756 -0.7101 -0.6351 -0.0682
  125MOL0     C16742   0.687   8.831   8.823 -0.0672 -0.7164  0.0185
  125MOL0     O16743   0.625   8.954   8.821  0.6559 -0.6664 -0.3075
  125MOL0     C16744   0.682   9.043   8.733 -1.4248  0.3833 -0.1782
  125MOL0     C16745   0.777   9.140   8.768  0.0834  0.4155 -0.6710
  125MOL0     C16746   0.842   9.218   8.670 -0.4355 -0.2579  0.6067
  125MOL0     C16747   0.795   9.209   8.540  0.6440 -0.4901  0.8147
  125MOL0     O16748   0.834   9.300   8.432 -0.8609  1.1073 -0.5335
  125MOL0     C16749   0.960   9.385   8.450  1.0192  0.1665 -0.0047
  125MOL0     C16750   0.968   9.478   8.340 -0.1129 -0.1905  0.5092
  125MOL0     C16751   1.100   9.566   8.330 -0.2470  0.0277  0.2377
  125MOL0     C16752   1.139   9.639   8.460  0.0914 -0.3017 -0.0930
  125MOL0     C16753   1.194   9.779   8.431 -0.8056 -0.0089 -0.4868
  125MOL0     C16754   1.304   9.781   8.330 -0.5355 -0.0410 -1.1627
  125MOL0     C16755   1.386   9.911   8.319  0.0503  0.2464 -0.2182
  125MOL0     C16756   1.309  10.026   8.239  0.2468  0.0205  0.6709
  125MOL0     N16757   1.387  10.143   8.222  0.9000 -1.3745 -0.1155
  125MOL0     C16758   1.472  10.192   8.327  0.3403 -0.2770  0.1004
  125MOL0     C16759   1.563  10.272   8.265 -0.2071 -0.4743 -0.1063
  125MOL0     C16760   1.674  10.343   8.347 -0.1810 -0.0944  0.4341
  125MOL0     C16761   1.727  10.473   8.282  0.0307 -0.4547 -0.3513
  125MOL0     C16762   1.833  10.537   8.377  0.2380 -0.0296  0.1581
  125MOL0     C16763   1.882  10.669   8.302  0.6767  0.3886  0.3229
  125MOL0     O16764   1.774  10.759   8.312 -0.1236  0.5953 -0.0826
  125MOL0     C16765   1.786  10.890   8.274 -0.7122  1.3454 -0.0755
  125MOL0     C16766   1.880  10.936   8.181 -0.0920 -0.2404 -0.1142
  125MOL0     C16767   1.923  11.070   8.171  0.4076  0.8825  0.0872
  125MOL0     C16768   2.020  11.084   8.052  0.2212 -0.6366  0.0456
  125MOL0     C16769   1.836  11.162   8.238 -0.7804  0.6766  0.5316
  125MOL0     C16770   1.864  11.307   8.233  0.7849 -0.8050 -0.1933
  125MOL0     O16771   1.760  11.381   8.285  0.1437  0.4659 -0.4978
  125MOL0     C16772   1.761  11.520   8.281 -0.4060  0.6084  0.7516
  125MOL0     C16773   1.704  11.589   8.175  0.2313  0.1850 -0.2719
  125MOL0     C16774   1.679  11.732   8.171 -0.0358  0.8596  0.8239
  125MOL0     C16775   1.738  11.811   8.268 -0.5215 -0.6822 -0.2510
  125MOL0     O16776   1.742  11.949   8.278 -0.0782 -0.2906 -0.4499
  125MOL0     C16777   1.621  12.014   8.229 -1.2573  0.1557 -0.2439
  125MOL0     C16778   1.600  12.146   8.307 -0.3417 -0.3713  0.4746
  125MOL0     C16779   1.610  12.135   8.458  0.7207  0.1827 -0.1067
  125MOL0     C16780   1.570  12.264   8.515 -0.3460 -0.1154 -0.2157
  125MOL0     C16781   1.519  12.256   8.661  1.0108  0.2946 -0.4711
  125MOL0     C16782   1.382  12.174   8.695  0.0275 -0.4115  0.2784
  125MOL0     C16783   1.362  12.176   8.843  0.5556  0.4412  0.0300
  125MOL0     C16784   1.219  12.138   8.874  0.7495  0.2330 -0.4260
  125MOL0    Cl16785   1.174  12.228   9.028  0.2780  0.1593 -0.6105
  125MOL0     C16786   1.797  11.747   8.377 -0.1046 -0.1201  0.0342
  125MOL0     C16787   1.810  11.608   8.383 -0.3321  1.3453  0.5272
  125MOL0     O16788   1.969  11.350   8.195 -0.0428 -0.7723  0.0110
  125MOL0     C16789   1.737  11.111   8.324  0.3738  0.1158  0.4116
  125MOL0     C16790   1.703  10.984   8.343  0.1782  0.3543 -0.5378
  125MOL0     N16791   1.544  10.264   8.123  0.0392  0.0826 -0.2011
  125MOL0     N16792   1.442  10.190   8.101  0.4097 -0.1290  0.2775
  125MOL0     C16793   0.699   9.112   8.498  0.1913 -0.4918 -1.2319
  125MOL0     C16794   0.647   9.027   8.594  1.0571 -0.4684 -0.4554
  125MOL0     C16795   0.637   8.722   8.901  0.1165  0.2608 -0.2938
  125MOL0     C16796   0.530   8.749   8.994  0.5100 -0.5704 -0.2273
  125MOL0     C16797   0.472   8.642   9.050 -1.0410  0.0076 -1.0117
  125MOL0     C16798   0.523   8.509   9.048  0.3307 -0.5743 -0.0188
  125MOL0     O16799   0.463   8.412   9.124 -0.6486 -0.6600 -0.0711
  125MOL0     C16800   0.517   8.281   9.115 -0.7221  0.3743 -0.5300
  125MOL0     C16801   0.424   8.197   9.197  0.0602  0.4266 -0.5954
  125MOL0     C16802   0.487   8.051   9.191  0.3110  0.3002  0.0865
  125MOL0     C16803   0.385   7.936   9.219  0.5011 -0.2172  0.4329
  125MOL0     C16804   0.338   7.876   9.092 -1.6584  0.2236 -0.1414
  125MOL0     C16805   0.298   7.806   8.999  0.1609  0.0810 -0.4937
  125MOL0     C16806   0.626   8.480   8.960 -0.9209  0.0880  0.3887
  125MOL0     C16807   0.676   8.588   8.882 -0.3926  0.7469  0.5564
  125MOL0     H16808   0.813   9.152   8.870 -0.8077  1.9755 -0.5121
  125MOL0     H16809   0.930   9.276   8.695 -0.1533 -1.5737  2.8912
  125MOL0     H16810   0.949   9.440   8.544  2.7297 -1.7772  1.4277
  125MOL0     H16811   1.035   9.306   8.463  0.1855 -0.1961  3.6815
  125MOL0     H16812   0.961   9.424   8.245  1.2606  2.3588 -1.1530
  125MOL0     H16813   0.887   9.551   8.346  0.0864  0.1854 -1.0415
  125MOL0     H16814   1.176   9.492   8.305  0.0221  0.3734  0.0240
  125MOL0     H16815   1.100   9.636   8.246 -0.5655  0.0927  0.2879
  125MOL0     H16816   1.058   9.653   8.532  0.6272 -1.3851  0.7594
  125MOL0     H16817   1.216   9.569   8.496 -1.2234 -2.4568 -1.2750
  125MOL0     H16818   1.113   9.846   8.401 -0.5114  1.9177  2.6182
  125MOL0     H16819   1.235   9.817   8.525  0.3064 -1.8339 -0.1807
  125MOL0     H16820   1.375   9.702   8.357  0.1726  0.5103 -1.4054
  125MOL0     H16821   1.266   9.752   8.231 -0.8240 -2.3850 -0.4367
  125MOL0     H16822   1.427   9.943   8.416  0.3751  2.8499 -1.1298
  125MOL0     H16823   1.474   9.876   8.264  1.4070  2.4897  0.3677
  125MOL0     H16824   1.222  10.054   8.298 -1.7285 -1.1331 -1.5544
  125MOL0     H16825   1.263   9.988   8.148 -1.8510 -1.1173  2.1115
  125MOL0     H16826   1.456  10.176   8.433  0.8206 -0.0908  0.2025
  125MOL0     H16827   1.635  10.375   8.444 -1.5258 -0.0485 -0.0956
  125MOL0     H16828   1.753  10.268   8.359 -1.2695 -1.6541 -1.4805
  125MOL0     H16829   1.639  10.538   8.274 -1.0282 -0.2687  6.3852
  125MOL0     H16830   1.769  10.451   8.184  0.7923 -2.7709  0.4401
  125MOL0     H16831   1.914  10.464   8.376  0.4281  0.1478  1.4605
  125MOL0     H16832   1.789  10.569   8.472 -0.9140 -0.8774 -0.0718
  125MOL0     H16833   1.908  10.643   8.199 -0.9854  0.2466 -0.0900
  125MOL0     H16834   1.974  10.709   8.345  2.1883 -0.3953 -2.0359
  125MOL0     H16835   1.944  10.860   8.137 -1.2547 -1.2499 -0.1169
  125MOL0     H16836   2.063  11.184   8.039  0.9136 -0.9112  0.1938
  125MOL0     H16837   2.104  11.016   8.072  0.9957  0.4518  0.6321
  125MOL0     H16838   1.963  11.044   7.968  2.8763 -1.5094 -1.4355
  125MOL0     H16839   1.671  11.525   8.094 -2.2742  1.1383 -0.1117
  125MOL0     H16840   1.623  11.785   8.095 -1.5010 -0.7813  0.7064
  125MOL0     H16841   1.631  12.038   8.123  2.8999 -0.3004 -0.1246
  125MOL0     H16842   1.538  11.944   8.245  0.6020 -1.8080  1.6512
  125MOL0     H16843   1.674  12.212   8.261 -0.4054 -3.4524 -4.9141
  125MOL0     H16844   1.503  12.186   8.274 -1.0536 -1.3615  1.3004
  125MOL0     H16845   1.716  12.118   8.480  2.2563  3.9131 -3.4331
  125MOL0     H16846   1.553  12.052   8.501 -1.8387  3.1460  2.7694
  125MOL0     H16847   1.666  12.315   8.528  0.6373 -1.9027 -0.0508
  125MOL0     H16848   1.511  12.323   8.446 -0.6500 -1.4450 -1.1308
  125MOL0     H16849   1.507  12.358   8.699 -0.0547 -0.4580  1.3597
  125MOL0     H16850   1.594  12.222   8.733 -1.2255 -1.5299  1.1258
  125MOL0     H16851   1.300  12.209   8.633  1.3885  0.4412 -1.1084
  125MOL0     H16852   1.404  12.072   8.662 -0.6775 -1.0310  1.6435
  125MOL0     H16853   1.390  12.277   8.875  0.8474  0.0295  1.1155
  125MOL0     H16854   1.413  12.099   8.902 -1.5665 -2.8564 -2.0981
  125MOL0     H16855   1.212  12.029   8.886 -1.5810  0.3009 -0.6478
  125MOL0     H16856   1.166  12.148   8.779  4.2864 -1.0058 -2.7331
  125MOL0     H16857   1.840  11.799   8.462  0.0285 -0.8393  0.4136
  125MOL0     H16858   1.863  11.552   8.459  0.8069 -1.0567 -1.8654
  125MOL0     H16859   1.680  11.181   8.384 -1.2888  1.0152 -2.0247
  125MOL0     H16860   1.631  10.956   8.419  1.4272 -1.0929  0.1478
  125MOL0     H16861   0.660   9.095   8.398 -0.4771 -0.7342 -0.9293
  125MOL0     H16862   0.571   8.951   8.580  0.1846  0.1121  0.9461
  125MOL0     H16863   0.491   8.842   9.033 -2.2072 -1.9414  0.6068
  125MOL0     H16864   0.394   8.667   9.122  0.4310 -2.2303  1.5515
  125MOL0     H16865   0.502   8.247   9.012 -3.2778  1.3632 -0.5586
  125MOL0     H16866   0.621   8.266   9.146 -1.2508 -5.3389 -0.4439
  125MOL0     H16867   0.324   8.209   9.154 -0.1520 -4.3975 -2.0345
  125MOL0     H16868   0.419   8.229   9.301  0.9372 -1.2165 -0.0279
  125MOL0     H16869   0.555   8.038   9.275  1.3347  0.0346 -0.7585
  125MOL0     H16870   0.541   8.034   9.097 -0.2493  4.1022 -1.0600
  125MOL0     H16871   0.309   7.955   9.295  0.1968 -1.5950  0.5119
  125MOL0     H16872   0.443   7.852   9.258  0.1749 -0.6893 -0.0743
  125MOL0     H16873   0.244   7.753   8.924  0.2618  0.1097 -0.5868
  125MOL0     H16874   0.671   8.382   8.955  2.7682  1.6369 -0.6174
  125MOL0     H16875   0.770   8.563   8.834  1.4715  2.6755  2.9285
  126MOL0     O16876   7.933   7.746   9.799  0.7566  0.1267 -0.4321
  126MOL0     C16877   7.877   7.858   9.794  0.6203 -0.3996 -0.3638
  126MOL0     O16878   7.894   7.957   9.881 -0.2745 -0.7343 -0.5573
  126MOL0     C16879   7.982   7.962   9.992  0.7884  0.0863 -0.2158
  126MOL0     C16880   7.964   7.854  10.071 -0.9729 -0.4315 -0.1493
  126MOL0     C16881   8.049   7.842  10.179 -1.2462  0.3572  0.1244
  126MOL0     C16882   8.152   7.922  10.205 -0.0399  0.2769 -0.7344
  126MOL0     O16883   8.235   7.888  10.313  0.4635 -0.0373 -0.5501
  126MOL0     C16884   8.316   7.995  10.370  0.7106  0.4717 -0.7088
  126MOL0     C16885   8.372   7.962  10.505  0.2210 -0.7106  0.2519
  126MOL0     C16886   8.473   7.849  10.508 -0.1695  0.6701 -0.5742
  126MOL0     C16887   8.533   7.848  10.653  1.1814  0.6784  0.0030
  126MOL0     C16888   8.448   7.795  10.768  0.7174 -0.6517 -0.1879
  126MOL0     C16889   8.434   7.644  10.782  0.0237  0.1352 -0.5202
  126MOL0     C16890   8.304   7.604  10.872  0.1105  0.0795 -0.0987
  126MOL0     C16891   8.264   7.456  10.867  0.3556  1.0922  0.3563
  126MOL0     N16892   8.132   7.425  10.927 -0.4043 -0.0095  0.3573
  126MOL0     C16893   8.102   7.466  11.057 -0.9759  0.0706  0.3873
  126MOL0     C16894   7.971   7.485  11.060  0.4535  0.8360 -0.3351
  126MOL0     C16895   7.885   7.515  11.183 -0.7815  0.3234 -0.6255
  126MOL0     C16896   7.949   7.626  11.258 -0.4743 -0.1711 -1.4203
  126MOL0     C16897   7.873   7.661  11.392 -0.0404  0.2729 -0.7811
  126MOL0     C16898   7.933   7.784  11.458  0.7246 -0.5390  0.5343
  126MOL0     O16899   8.056   7.762  11.522  0.1732  0.2381 -0.5960
  126MOL0     C16900   8.111   7.870  11.588  0.5431 -0.4106 -0.5192
  126MOL0     C16901   8.035   7.958  11.668  0.7209  0.4009 -0.3797
  126MOL0     C16902   8.092   8.068  11.735 -0.1626  0.6342  0.9777
  126MOL0     C16903   7.996   8.146  11.819  0.4908 -0.3457 -0.4047
  126MOL0     C16904   8.234   8.087  11.720  0.8479  0.1702 -0.1398
  126MOL0     C16905   8.301   8.212  11.784  0.9012  1.1464  0.9294
  126MOL0     O16906   8.414   8.244  11.712 -0.5411  0.0324  0.3684
  126MOL0     C16907   8.462   8.375  11.726 -0.2524 -0.0820  0.7260
  126MOL0     C16908   8.565   8.396  11.820  1.1248  0.3205  0.0316
  126MOL0     C16909   8.612   8.528  11.840  0.0666 -0.3049  0.9856
  126MOL0     C16910   8.557   8.640  11.780  1.1301 -0.9446 -0.9581
  126MOL0     O16911   8.606   8.764  11.801 -0.4581 -0.1208  0.5157
  126MOL0     C16912   8.540   8.882  11.757 -0.5810 -0.4036  0.2428
  126MOL0     C16913   8.651   8.987  11.740  0.4079  0.9232  0.1765
  126MOL0     C16914   8.607   9.099  11.647 -0.5716 -0.3256 -0.1334
  126MOL0     C16915   8.692   9.223  11.664 -0.9931  0.2698 -0.0848
  126MOL0     C16916   8.635   9.359  11.596 -0.4150  0.1799 -0.3998
  126MOL0     C16917   8.741   9.465  11.583 -0.1807  0.1632  0.1629
  126MOL0     C16918   8.819   9.500  11.714  0.8144 -1.1289  0.0875
  126MOL0     C16919   8.869   9.653  11.727  0.9429  1.2718  0.6530
  126MOL0    Cl16920   8.946   9.662  11.889  0.4070 -0.1848  0.0319
  126MOL0     C16921   8.446   8.625  11.697  0.3921 -0.7377  0.1098
  126MOL0     C16922   8.401   8.494  11.672  1.0099  0.1045 -0.1600
  126MOL0     O16923   8.265   8.258  11.891  0.5623  0.0490  0.2425
  126MOL0     C16924   8.310   8.000  11.647 -1.0062 -0.3251 -0.7851
  126MOL0     C16925   8.243   7.895  11.582 -0.1999 -0.2851  0.1743
  126MOL0     N16926   7.929   7.455  10.936  0.4638  0.1610  0.6583
  126MOL0     N16927   8.022   7.422  10.848  0.2221 -0.6290  0.0839
  126MOL0     C16928   8.170   8.038  10.130  0.7784  0.6586 -0.1180
  126MOL0     C16929   8.083   8.058  10.016 -0.1381 -0.2033  0.8146
  126MOL0     C16930   7.758   7.875   9.709 -0.5529  0.3907  0.5979
  126MOL0     C16931   7.715   8.000   9.658  0.6694 -0.8581 -0.7109
  126MOL0     C16932   7.628   8.005   9.550 -1.2514 -0.0400  0.7285
  126MOL0     C16933   7.563   7.891   9.502 -0.4316  0.2128  0.5255
  126MOL0     O16934   7.469   7.906   9.397  0.2524  0.7749  0.1358
  126MOL0     C16935   7.533   7.940   9.273 -0.5438 -0.8638 -0.6986
  126MOL0     C16936   7.600   7.826   9.199  0.0467  0.6256 -0.3212
  126MOL0     C16937   7.499   7.706   9.163  0.0864 -0.9107  0.9119
  126MOL0     C16938   7.582   7.600   9.093 -0.9859  0.3747  0.0269
  126MOL0     C16939   7.605   7.621   8.952  0.1684 -0.3603 -0.9872
  126MOL0     C16940   7.623   7.655   8.837  1.3308 -0.1391  0.2987
  126MOL0     C16941   7.587   7.766   9.561 -0.3650 -0.0941 -0.1229
  126MOL0     C16942   7.687   7.761   9.657 -0.8248  0.0208  0.6585
  126MOL0     H16943   7.875   7.795  10.050 -1.1572 -0.0938 -0.3168
  126MOL0     H16944   8.037   7.761  10.251  3.0084  1.6248  2.6843
  126MOL0     H16945   8.391   8.031  10.299  0.1098 -0.9185 -2.1021
  126MOL0     H16946   8.246   8.079  10.381 -1.7980 -1.2350 -2.5352
  126MOL0     H16947   8.412   8.057  10.541  0.0499  0.5065 -2.5121
  126MOL0     H16948   8.296   7.943  10.582  0.6665 -1.4148  0.5287
  126MOL0     H16949   8.426   7.754  10.480  1.0178  0.2374 -1.1401
  126MOL0     H16950   8.555   7.876  10.441  0.1158  2.2899  0.3751
  126MOL0     H16951   8.625   7.788  10.650 -1.3726 -4.1838  3.7871
  126MOL0     H16952   8.561   7.949  10.683  3.6295  0.1207 -0.2015
  126MOL0     H16953   8.482   7.840  10.862 -0.6778  1.6901 -0.7100
  126MOL0     H16954   8.345   7.826  10.747  1.0628 -1.1071 -2.9279
  126MOL0     H16955   8.415   7.601  10.683  0.5850 -0.1687 -0.5032
  126MOL0     H16956   8.525   7.610  10.833 -0.9019 -1.4095  0.2023
  126MOL0     H16957   8.323   7.635  10.975  2.2677  0.8132 -0.6656
  126MOL0     H16958   8.213   7.652  10.835  0.8686  1.8521  0.2201
  126MOL0     H16959   8.345   7.388  10.894  0.5844  0.9828 -0.5560
  126MOL0     H16960   8.250   7.446  10.759 -1.3778 -0.1966  0.6496
  126MOL0     H16961   8.168   7.492  11.140 -0.0507  2.9347 -1.1087
  126MOL0     H16962   7.779   7.532  11.160 -1.1117  0.9397  1.1692
  126MOL0     H16963   7.878   7.424  11.243 -1.5331  1.9566  1.9375
  126MOL0     H16964   7.957   7.712  11.190 -0.5153 -0.0997 -1.3340
  126MOL0     H16965   8.057   7.619  11.275 -0.4048  0.3617 -1.5954
  126MOL0     H16966   7.880   7.582  11.467 -0.6300  0.1809 -0.8162
  126MOL0     H16967   7.767   7.663  11.364 -0.3384 -0.3390  0.2394
  126MOL0     H16968   7.857   7.821  11.528  0.0536 -1.0749  0.1018
  126MOL0     H16969   7.944   7.868  11.389  0.0113 -1.3551 -0.6114
  126MOL0     H16970   7.931   7.937  11.693  1.2955  0.4201  2.3681
  126MOL0     H16971   8.019   8.125  11.924  1.4216 -1.8556 -0.8841
  126MOL0     H16972   8.011   8.253  11.799  1.6654 -0.8920 -2.7940
  126MOL0     H16973   7.893   8.124  11.791  0.0579 -1.0632  1.6311
  126MOL0     H16974   8.622   8.317  11.868  1.7205  0.7100 -0.0066
  126MOL0     H16975   8.697   8.548  11.905 -1.5788 -0.1733  3.1953
  126MOL0     H16976   8.496   8.868  11.658 -3.5532 -3.0860  1.7721
  126MOL0     H16977   8.467   8.917  11.830 -0.0958 -0.0194  0.5463
  126MOL0     H16978   8.698   9.018  11.834 -0.9767 -0.7282  1.5153
  126MOL0     H16979   8.734   8.940  11.687 -0.5135 -1.7208  0.8654
  126MOL0     H16980   8.512   9.132  11.690 -0.5519 -1.1551  0.5656
  126MOL0     H16981   8.605   9.065  11.543  2.5839  0.6254 -0.6402
  126MOL0     H16982   8.706   9.242  11.770  1.9085 -2.6123  0.1912
  126MOL0     H16983   8.794   9.206  11.628  0.0456  1.9397  1.8854
  126MOL0     H16984   8.546   9.386  11.654  0.8935 -1.7959  2.8204
  126MOL0     H16985   8.605   9.327  11.495  0.5774 -0.8842 -0.3699
  126MOL0     H16986   8.811   9.415  11.515  0.9857 -0.2415  1.5975
  126MOL0     H16987   8.698   9.557  11.544 -1.5143 -1.0164 -1.2503
  126MOL0     H16988   8.897   9.424  11.724  2.0395 -0.2542 -2.1109
  126MOL0     H16989   8.748   9.484  11.795 -1.4361 -0.6507 -1.6827
  126MOL0     H16990   8.788   9.726  11.719 -1.8217 -1.7057 -1.3864
  126MOL0     H16991   8.949   9.673  11.655  3.6910  3.5836  4.0226
  126MOL0     H16992   8.391   8.702  11.644  2.1890  2.2740  2.2813
  126MOL0     H16993   8.319   8.487  11.601  2.2417 -0.2558 -1.5924
  126MOL0     H16994   8.417   8.003  11.636 -1.2257  0.0491 -3.2420
  126MOL0     H16995   8.306   7.822  11.533  1.4456 -1.0869  3.2317
  126MOL0     H16996   8.240   8.118  10.151  0.4029  0.5055  1.9429
  126MOL0     H16997   8.086   8.141   9.947  1.1049  0.2631  1.3904
  126MOL0     H16998   7.762   8.096   9.679 -1.7355  0.2121  0.1587
  126MOL0     H16999   7.608   8.100   9.501  0.4221 -0.5719 -1.1330
  126MOL0     H17000   7.453   7.981   9.210  0.0191 -0.9204 -1.4655
  126MOL0     H17001   7.612   8.014   9.285  0.4988 -1.8425 -1.3210
  126MOL0     H17002   7.683   7.804   9.267  0.9980 -0.2150 -1.7279
  126MOL0     H17003   7.632   7.868   9.104 -1.4482 -1.4034 -1.8109
  126MOL0     H17004   7.420   7.742   9.095  3.1193 -1.4453 -3.3382
  126MOL0     H17005   7.454   7.664   9.253  0.4161 -1.3002  0.8949
  126MOL0     H17006   7.534   7.502   9.103 -0.9380  0.3682  0.1911
  126MOL0     H17007   7.676   7.588   9.149 -0.0034  1.7059 -1.2607
  126MOL0     H17008   7.635   7.679   8.733  1.7634  0.7530  0.5333
  126MOL0     H17009   7.551   7.671   9.523 -0.3682 -0.6454  1.2228
  126MOL0     H17010   7.709   7.660   9.690 -0.6459  0.1452  0.9251
  127MOL0     O17011   4.346   6.375   4.692  0.3731  0.1118 -0.4721
  127MOL0     C17012   4.336   6.252   4.692 -0.1450 -0.4594 -0.8251
  127MOL0     O17013   4.401   6.169   4.778  0.3997  0.4992  0.2340
  127MOL0     C17014   4.495   6.222   4.860 -0.1246 -0.1631  0.4296
  127MOL0     C17015   4.477   6.202   5.004 -0.2311 -0.2062 -0.0409
  127MOL0     C17016   4.553   6.261   5.100 -0.6196  0.5573  0.5995
  127MOL0     C17017   4.668   6.335   5.059  0.0561 -0.4045 -1.2013
  127MOL0     O17018   4.740   6.410   5.135 -0.7308 -0.9356 -0.3107
  127MOL0     C17019   4.734   6.412   5.281 -0.6661  1.0326 -0.4744
  127MOL0     C17020   4.821   6.534   5.325  0.1087  0.4646 -0.1142
  127MOL0     C17021   4.801   6.552   5.469  0.6829  0.2773 -0.3450
  127MOL0     C17022   4.864   6.670   5.530  0.1455  0.3062 -1.9078
  127MOL0     C17023   4.812   6.680   5.677 -0.0874  0.5157 -0.4277
  127MOL0     C17024   4.899   6.797   5.749  0.1224  0.6762  0.7200
  127MOL0     C17025   4.882   6.802   5.903 -0.2485 -0.3376 -0.3781
  127MOL0     C17026   4.754   6.875   5.936 -0.7290  0.7142  0.0576
  127MOL0     N17027   4.790   7.000   6.000  1.0015  0.0188  0.5339
  127MOL0     C17028   4.868   7.101   5.953  0.6900 -0.5268  0.0773
  127MOL0     C17029   4.886   7.181   6.058  1.0119 -0.1911 -0.2551
  127MOL0     C17030   4.975   7.309   6.052 -0.1345 -0.4698  1.0333
  127MOL0     C17031   4.912   7.445   6.073  0.1601  1.3009 -0.9587
  127MOL0     C17032   4.805   7.481   5.965  0.2569  0.1446  0.3102
  127MOL0     C17033   4.747   7.615   6.010 -0.4101  0.3883  0.7265
  127MOL0     O17034   4.845   7.719   5.991  0.0368  1.0555 -0.3739
  127MOL0     C17035   4.816   7.846   6.032  0.0133 -0.1813  0.7947
  127MOL0     C17036   4.722   7.917   5.954  0.4676  0.0714  0.5316
  127MOL0     C17037   4.700   8.050   5.987  0.3090 -1.1568  0.3709
  127MOL0     C17038   4.609   8.127   5.890 -0.5620 -0.2105 -0.2606
  127MOL0     C17039   4.752   8.108   6.107 -0.2673 -0.2968  0.1543
  127MOL0     C17040   4.723   8.237   6.163  0.1058  0.8668 -0.2846
  127MOL0     O17041   4.815   8.281   6.261  0.5548  0.9962 -0.3809
  127MOL0     C17042   4.777   8.393   6.315  0.1852 -0.0185 -0.1556
  127MOL0     C17043   4.828   8.522   6.282 -0.7248  1.6569 -0.5511
  127MOL0     C17044   4.788   8.641   6.342 -0.2755 -0.3430 -0.0705
  127MOL0     C17045   4.721   8.632   6.462  1.6790  0.2927 -0.2730
  127MOL0     O17046   4.689   8.729   6.551 -0.6714  0.1568  0.1842
  127MOL0     C17047   4.742   8.852   6.540 -0.1919 -0.4808 -0.1920
  127MOL0     C17048   4.691   8.946   6.654 -0.7561  0.6901  0.7892
  127MOL0     C17049   4.798   9.002   6.742  0.5763 -0.3259  0.8999
  127MOL0     C17050   4.852   8.901   6.842 -0.3380 -0.1024 -0.2277
  127MOL0     C17051   4.953   8.792   6.794 -0.1132  0.5028  0.3683
  127MOL0     C17052   4.998   8.708   6.913 -0.3641 -0.3540 -0.0755
  127MOL0     C17053   5.118   8.621   6.889 -0.4156 -0.5355  0.4187
  127MOL0     C17054   5.090   8.501   6.799 -0.1740 -0.8844 -0.3291
  127MOL0    Cl17055   5.236   8.419   6.761  0.3978 -0.3512 -0.5995
  127MOL0     C17056   4.666   8.510   6.503 -0.2139 -0.5896 -0.2124
  127MOL0     C17057   4.691   8.392   6.429 -0.5747 -0.1118  0.0574
  127MOL0     O17058   4.611   8.278   6.137  0.6693  0.1230 -0.3248
  127MOL0     C17059   4.844   8.027   6.180  0.5701 -0.3582 -0.6355
  127MOL0     C17060   4.878   7.899   6.143  0.7948  0.3376 -0.7845
  127MOL0     N17061   4.799   7.133   6.161  0.7380 -0.0953 -0.1589
  127MOL0     N17062   4.740   7.026   6.123 -0.2648 -0.5626 -0.3403
  127MOL0     C17063   4.695   6.347   4.924 -0.4550 -0.2059  0.3466
  127MOL0     C17064   4.613   6.294   4.826 -0.1724  0.7399  0.2412
  127MOL0     C17065   4.233   6.184   4.613 -0.3464 -0.4567  0.3771
  127MOL0     C17066   4.211   6.043   4.630 -0.1365 -0.0096 -0.0302
  127MOL0     C17067   4.112   5.964   4.565 -0.1619 -0.0547  0.5746
  127MOL0     C17068   4.036   6.033   4.462  0.0224  0.2350 -0.8295
  127MOL0     O17069   3.925   6.003   4.389 -0.8987 -0.0636 -0.2402
  127MOL0     C17070   3.881   5.871   4.412  0.4252 -0.5265 -0.3025
  127MOL0     C17071   3.738   5.865   4.376 -0.6543 -0.5967 -0.3323
  127MOL0     C17072   3.660   5.734   4.399 -0.5088 -0.7795  0.1480
  127MOL0     C17073   3.514   5.755   4.393  0.6147  0.6273 -0.1488
  127MOL0     C17074   3.438   5.631   4.409  0.4936  1.1577 -0.4406
  127MOL0     C17075   3.371   5.535   4.401  0.7618 -0.0514  0.1715
  127MOL0     C17076   4.067   6.169   4.443 -0.1915  0.9321 -0.5290
  127MOL0     C17077   4.148   6.240   4.523 -0.8860  0.3532  0.8448
  127MOL0     H17078   4.395   6.152   5.056  1.9361 -0.7136  3.1500
  127MOL0     H17079   4.535   6.248   5.207  1.1242  0.7285  0.9457
  127MOL0     H17080   4.636   6.409   5.328 -0.8624 -0.8024 -0.9144
  127MOL0     H17081   4.784   6.317   5.306 -0.9116  0.7910 -0.8784
  127MOL0     H17082   4.927   6.525   5.300  0.1215 -2.1479  0.5513
  127MOL0     H17083   4.784   6.624   5.275  3.6193  1.7249 -0.7319
  127MOL0     H17084   4.692   6.559   5.479  0.7726  1.1032  0.0877
  127MOL0     H17085   4.845   6.466   5.521 -1.6753 -1.5433 -1.1677
  127MOL0     H17086   4.973   6.663   5.523  0.3063  1.1547 -0.6548
  127MOL0     H17087   4.828   6.759   5.477  3.0675  2.3145 -0.7747
  127MOL0     H17088   4.706   6.689   5.700 -1.0330  3.7024 -4.7924
  127MOL0     H17089   4.842   6.583   5.718  0.3071  0.6858 -0.3120
  127MOL0     H17090   5.003   6.770   5.728 -0.6307 -1.8981 -0.0585
  127MOL0     H17091   4.882   6.895   5.704 -0.0311  0.5290  0.4545
  127MOL0     H17092   4.884   6.702   5.949  0.8141 -2.0776 -3.8335
  127MOL0     H17093   4.971   6.851   5.945  1.6586 -3.2904 -0.6594
  127MOL0     H17094   4.691   6.819   6.006  0.2929  0.5009  0.8178
  127MOL0     H17095   4.686   6.901   5.853 -0.4199  4.6167  0.8486
  127MOL0     H17096   4.922   7.115   5.861 -0.2433 -1.5038 -0.6398
  127MOL0     H17097   5.066   7.300   6.112  0.8505  0.9008 -0.1817
  127MOL0     H17098   5.013   7.301   5.950  1.4827  0.4906  1.5208
  127MOL0     H17099   4.985   7.524   6.090  2.0288 -0.9350  3.1877
  127MOL0     H17100   4.856   7.434   6.167  1.5625 -0.6243 -0.2712
  127MOL0     H17101   4.732   7.400   5.972  0.5615 -0.1728 -0.1941
  127MOL0     H17102   4.838   7.478   5.861 -3.3828 -3.1812 -1.0348
  127MOL0     H17103   4.730   7.609   6.118  0.1102  2.4050  0.9511
  127MOL0     H17104   4.650   7.631   5.963 -0.0490 -0.9308 -0.5579
  127MOL0     H17105   4.691   7.875   5.859  1.1402  0.1521  0.2659
  127MOL0     H17106   4.613   8.081   5.791  1.1927 -1.3321  0.3016
  127MOL0     H17107   4.504   8.126   5.921 -0.0686  1.0338  1.6139
  127MOL0     H17108   4.635   8.234   5.890 -0.1667 -0.3057  0.1098
  127MOL0     H17109   4.893   8.540   6.197  1.7614  1.8511  1.2680
  127MOL0     H17110   4.826   8.739   6.314  0.2772 -1.1230 -2.2871
  127MOL0     H17111   4.851   8.854   6.551 -0.2582  1.1003  0.4462
  127MOL0     H17112   4.718   8.906   6.447  4.3873 -0.1466 -1.4457
  127MOL0     H17113   4.634   9.029   6.612  0.2427  0.9396 -0.1231
  127MOL0     H17114   4.616   8.888   6.709 -1.5383  1.6732  0.7921
  127MOL0     H17115   4.752   9.081   6.802 -0.4982  0.8072 -1.2917
  127MOL0     H17116   4.877   9.046   6.681 -0.2441 -0.9892 -0.7232
  127MOL0     H17117   4.888   8.960   6.927  0.6064  3.2425 -2.7166
  127MOL0     H17118   4.764   8.842   6.870  0.2948 -2.3004 -2.5626
  127MOL0     H17119   5.033   8.833   6.731 -1.7449  1.1812 -1.3744
  127MOL0     H17120   4.909   8.726   6.718  1.7348 -0.3663 -0.0120
  127MOL0     H17121   5.036   8.773   6.993 -0.3731 -2.1420  1.4323
  127MOL0     H17122   4.914   8.662   6.967 -0.0010  0.9110  1.6664
  127MOL0     H17123   5.142   8.589   6.991  1.3669  2.3383  1.0062
  127MOL0     H17124   5.202   8.675   6.844 -1.0897 -2.3944 -3.3888
  127MOL0     H17125   5.049   8.539   6.706  0.8623  2.0736  0.2947
  127MOL0     H17126   5.021   8.431   6.847 -1.5211  2.2454  2.7266
  127MOL0     H17127   4.618   8.504   6.600  1.6589 -0.8471  0.7589
  127MOL0     H17128   4.652   8.297   6.463  2.9299 -0.4134  4.0721
  127MOL0     H17129   4.890   8.065   6.271 -0.7180 -0.6074  0.1556
  127MOL0     H17130   4.946   7.839   6.202  1.6573 -0.7736 -2.8524
  127MOL0     H17131   4.774   6.414   4.894  1.1291 -0.9654  2.5698
  127MOL0     H17132   4.629   6.309   4.720 -2.1194  0.3428 -0.1559
  127MOL0     H17133   4.273   5.974   4.687 -2.3593 -0.7208  1.6590
  127MOL0     H17134   4.096   5.865   4.605 -0.6282 -0.1985  0.0339
  127MOL0     H17135   3.937   5.803   4.347  0.7828 -0.3765 -0.1532
  127MOL0     H17136   3.888   5.835   4.516 -2.7738 -2.5232 -0.6335
  127MOL0     H17137   3.717   5.887   4.271 -0.5045  0.1016 -0.2231
  127MOL0     H17138   3.680   5.930   4.442 -0.0960 -1.8522  1.4520
  127MOL0     H17139   3.683   5.687   4.495 -0.0639 -0.8743 -0.0016
  127MOL0     H17140   3.691   5.661   4.324  0.6796  0.9466 -1.1466
  127MOL0     H17141   3.489   5.791   4.293  2.3158 -0.1175 -0.8786
  127MOL0     H17142   3.485   5.824   4.473  0.6997  1.5075 -0.8693
  127MOL0     H17143   3.294   5.460   4.390 -0.2095  0.8483  0.6671
  127MOL0     H17144   4.003   6.216   4.369  0.6646  2.0352 -0.6030
  127MOL0     H17145   4.159   6.348   4.518  2.1545  0.1455  1.0964
  128MOL0     O17146  10.022   6.334  10.984  0.3587 -0.6990  0.0895
  128MOL0     C17147  10.114   6.369  11.055 -0.1054  0.0831 -1.4529
  128MOL0     O17148  10.119   6.472  11.149  0.2154  0.5313 -0.3851
  128MOL0     C17149  10.020   6.562  11.159 -0.1344  0.4798 -1.5033
  128MOL0     C17150   9.882   6.533  11.131  0.6447  0.4648 -1.0287
  128MOL0     C17151   9.792   6.641  11.161  0.7678  0.5650 -1.3415
  128MOL0     C17152   9.832   6.757  11.218 -0.3441 -0.2991  0.7462
  128MOL0     O17153   9.739   6.857  11.243 -0.2162  0.0387  0.2110
  128MOL0     C17154   9.714   6.947  11.128  0.1415  0.1035 -0.4812
  128MOL0     C17155   9.692   7.088  11.193  0.3127 -0.4679 -0.4712
  128MOL0     C17156   9.826   7.124  11.271  0.4705  0.1880  0.6157
  128MOL0     C17157   9.825   7.266  11.333  1.1227  0.4376 -0.1053
  128MOL0     C17158   9.708   7.296  11.427  0.8346  0.4654  0.2287
  128MOL0     C17159   9.693   7.446  11.446  1.9093  0.8854  0.4316
  128MOL0     C17160   9.613   7.473  11.585 -0.4808  0.6548  0.1714
  128MOL0     C17161   9.536   7.606  11.598  0.1639  0.4920 -0.7302
  128MOL0     N17162   9.430   7.619  11.490 -0.1857  0.0366  0.2524
  128MOL0     C17163   9.309   7.553  11.484  0.3872  0.1546  0.1354
  128MOL0     C17164   9.226   7.632  11.398 -0.5716  0.1495  0.7844
  128MOL0     C17165   9.086   7.592  11.360  0.0992  0.1154 -0.5841
  128MOL0     C17166   9.078   7.468  11.268 -0.7652  0.0382  1.1852
  128MOL0     C17167   8.930   7.438  11.226  0.2881 -0.2567 -0.0517
  128MOL0     C17168   8.933   7.305  11.143 -0.5568 -0.5030  0.3849
  128MOL0     O17169   8.820   7.228  11.152 -0.0717 -0.2081  0.1739
  128MOL0     C17170   8.789   7.133  11.060  0.4274 -0.0242  0.0399
  128MOL0     C17171   8.866   7.073  10.970 -0.6506  0.4247 -0.7257
  128MOL0     C17172   8.828   6.968  10.883  0.3239 -0.1862 -1.1547
  128MOL0     C17173   8.932   6.910  10.799  0.5870  0.4279  0.1047
  128MOL0     C17174   8.693   6.921  10.886 -0.7241 -1.5254  0.8923
  128MOL0     C17175   8.642   6.803  10.815 -0.5086  0.6959  0.5999
  128MOL0     O17176   8.525   6.739  10.868 -0.3436 -0.1332 -0.4605
  128MOL0     C17177   8.504   6.606  10.821 -1.3027 -0.2094 -0.7301
  128MOL0     C17178   8.422   6.574  10.713  0.2084 -0.2191  0.6807
  128MOL0     C17179   8.379   6.444  10.680 -1.0978 -0.5924 -0.2458
  128MOL0     C17180   8.436   6.343  10.762 -0.1423 -0.3353 -0.1436
  128MOL0     O17181   8.398   6.216  10.729  0.6872 -0.2505  0.4082
  128MOL0     C17182   8.393   6.113  10.840  0.4847  0.4390  0.1475
  128MOL0     C17183   8.258   6.046  10.823 -1.1914  0.9134  0.2490
  128MOL0     C17184   8.243   5.916  10.902  0.0474  0.5717  0.2892
  128MOL0     C17185   8.319   5.797  10.843  0.2629  0.6278  0.2478
  128MOL0     C17186   8.269   5.660  10.899  0.5975 -0.0666 -0.6171
  128MOL0     C17187   8.320   5.533  10.840  1.1845  0.1162 -0.1390
  128MOL0     C17188   8.311   5.410  10.924  0.3293  0.6895  0.4139
  128MOL0     C17189   8.429   5.318  10.901 -0.3589  0.0450 -0.0691
  128MOL0    Cl17190   8.443   5.203  11.031  0.3247  0.2385 -0.1276
  128MOL0     C17191   8.527   6.383  10.875 -0.4728  1.0510  0.4872
  128MOL0     C17192   8.571   6.515  10.896  0.1122 -0.4194  0.9528
  128MOL0     O17193   8.715   6.765  10.717  0.0315  0.2589  0.1167
  128MOL0     C17194   8.606   7.002  10.961 -1.0601  0.1374  0.1560
  128MOL0     C17195   8.654   7.100  11.046  0.2829  0.1848 -0.3109
  128MOL0     N17196   9.302   7.731  11.345  1.1171 -0.1563 -0.5774
  128MOL0     N17197   9.416   7.719  11.394 -0.1464  0.5344  0.2757
  128MOL0     C17198   9.964   6.771  11.260  0.0660  0.5133 -0.5620
  128MOL0     C17199  10.063   6.675  11.229  0.6987 -0.6109 -0.6528
  128MOL0     C17200  10.243   6.313  11.031  0.0746  1.2393  0.3239
  128MOL0     C17201  10.343   6.311  11.129  0.0635 -0.3190 -0.5583
  128MOL0     C17202  10.472   6.261  11.107 -0.9981  0.6665 -0.1886
  128MOL0     C17203  10.514   6.208  10.987  0.2218 -1.1510 -0.2364
  128MOL0     O17204  10.645   6.164  10.986  0.3686  0.0915  0.5377
  128MOL0     C17205  10.709   6.181  10.864  0.0734  0.0237  0.4395
  128MOL0     C17206  10.773   6.331  10.856  1.1046  0.1487 -0.5686
  128MOL0     C17207  10.826   6.367  10.722  0.6952  1.5755 -0.2246
  128MOL0     C17208  10.741   6.445  10.633  0.3451  0.9521 -0.4512
  128MOL0     C17209  10.596   6.392  10.621  0.0946  0.3818  0.7794
  128MOL0     C17210  10.480   6.360  10.606  0.7817 -0.3298 -0.9161
  128MOL0     C17211  10.410   6.199  10.886  0.5308  0.2883  1.4416
  128MOL0     C17212  10.279   6.250  10.913  0.3979  0.1220  0.8271
  128MOL0     H17213   9.834   6.444  11.090  2.9219 -1.3088 -0.0251
  128MOL0     H17214   9.685   6.623  11.151  0.8810 -0.4518 -0.8946
  128MOL0     H17215   9.803   6.939  11.064  1.7238  2.5681  1.2392
  128MOL0     H17216   9.621   6.930  11.072 -0.1736 -0.2683  0.1499
  128MOL0     H17217   9.656   7.158  11.116 -0.7089 -2.2052 -1.6521
  128MOL0     H17218   9.612   7.078  11.266  2.1049  2.3532  2.1065
  128MOL0     H17219   9.837   7.059  11.359 -1.3209  1.8625  2.1559
  128MOL0     H17220   9.917   7.112  11.212 -1.3938  0.2177 -2.4708
  128MOL0     H17221   9.911   7.290  11.396 -0.1127  2.4085  0.9610
  128MOL0     H17222   9.832   7.337  11.250  0.7503 -0.2541 -0.7331
  128MOL0     H17223   9.622   7.251  11.377  3.6311 -5.2218 -0.2569
  128MOL0     H17224   9.718   7.232  11.515 -0.6139  0.4175  0.3760
  128MOL0     H17225   9.794   7.487  11.439  3.7852 -3.4639 -1.2150
  128MOL0     H17226   9.640   7.476  11.355  0.3589 -1.5893  0.4423
  128MOL0     H17227   9.538   7.394  11.600  0.8411 -0.3952  1.6124
  128MOL0     H17228   9.680   7.459  11.670 -1.9705  0.3358  1.3341
  128MOL0     H17229   9.605   7.690  11.598 -0.9787  1.4632  0.2789
  128MOL0     H17230   9.484   7.612  11.694  1.9860 -0.4053  0.3888
  128MOL0     H17231   9.276   7.463  11.535 -0.6476 -0.5142 -1.6348
  128MOL0     H17232   9.035   7.566  11.453 -0.3245 -2.5618 -1.4608
  128MOL0     H17233   9.034   7.675  11.312  0.3651 -1.3333 -3.6550
  128MOL0     H17234   9.111   7.379  11.323 -1.5985  0.7568  2.9376
  128MOL0     H17235   9.147   7.490  11.187  0.8498 -0.4851  2.3692
  128MOL0     H17236   8.872   7.515  11.175  1.4326  1.4512  1.0934
  128MOL0     H17237   8.871   7.417  11.316 -2.2889 -1.6521 -1.9387
  128MOL0     H17238   9.015   7.239  11.174 -0.1218 -0.0306  0.2520
  128MOL0     H17239   8.954   7.337  11.040 -0.5751  0.8343  0.7862
  128MOL0     H17240   8.969   7.102  10.953  0.3881 -0.6633  2.7218
  128MOL0     H17241   8.923   6.803  10.820 -3.0721 -0.3186 -4.0238
  128MOL0     H17242   8.914   6.917  10.692  0.8243  0.0410  0.0355
  128MOL0     H17243   9.031   6.950  10.825  0.6441  0.1936  0.2543
  128MOL0     H17244   8.388   6.658  10.653 -0.0740 -0.7704  0.0644
  128MOL0     H17245   8.333   6.410  10.588  1.8350  0.3466 -2.2182
  128MOL0     H17246   8.470   6.038  10.823  0.9588  0.7303  0.9485
  128MOL0     H17247   8.403   6.150  10.942  2.8638  1.9041 -0.5343
  128MOL0     H17248   8.190   6.115  10.874 -0.4197  3.4763 -1.9673
  128MOL0     H17249   8.239   6.036  10.716  0.2109 -1.1988  0.1273
  128MOL0     H17250   8.136   5.894  10.911 -0.4063  1.7971 -1.5951
  128MOL0     H17251   8.272   5.944  11.004 -1.9493  3.0481  0.2673
  128MOL0     H17252   8.304   5.794  10.734 -1.2747 -3.2298  0.3963
  128MOL0     H17253   8.427   5.805  10.854  0.2005  0.1964  1.2953
  128MOL0     H17254   8.160   5.663  10.898  0.5424  2.4358  1.3746
  128MOL0     H17255   8.293   5.670  11.006 -1.8895 -0.4052  0.0447
  128MOL0     H17256   8.271   5.511  10.745  0.2912 -3.1091  0.9403
  128MOL0     H17257   8.427   5.553  10.831  1.3621  0.3855  2.0033
  128MOL0     H17258   8.221   5.352  10.901  0.6775 -0.5191  1.9387
  128MOL0     H17259   8.301   5.432  11.030 -1.8985  1.9247  0.0026
  128MOL0     H17260   8.515   5.384  10.885 -0.4113 -0.3171 -2.1637
  128MOL0     H17261   8.405   5.272  10.804  0.3180  1.3966 -0.9055
  128MOL0     H17262   8.580   6.310  10.935 -0.8332  0.7414  0.4285
  128MOL0     H17263   8.636   6.548  10.976  0.8530 -1.2344  0.7126
  128MOL0     H17264   8.501   6.976  10.960 -0.3069 -3.4879  1.1378
  128MOL0     H17265   8.589   7.146  11.119  0.6750  0.6466 -0.2525
  128MOL0     H17266   9.988   6.844  11.337 -1.2562 -0.0125  0.3800
  128MOL0     H17267  10.164   6.684  11.267  0.2096  0.7856  0.4070
  128MOL0     H17268  10.328   6.358  11.226  1.5187 -0.4695 -0.2369
  128MOL0     H17269  10.550   6.267  11.181 -1.0617  2.1740 -0.2237
  128MOL0     H17270  10.791   6.110  10.852  2.1418  2.3811 -0.3055
  128MOL0     H17271  10.652   6.172  10.771  1.2047 -0.2264 -0.2479
  128MOL0     H17272  10.851   6.324  10.932 -1.0821 -1.8720  1.6377
  128MOL0     H17273  10.698   6.403  10.889  1.9081  0.9232 -0.3894
  128MOL0     H17274  10.851   6.281  10.660 -7.8062 -0.8579 -1.6256
  128MOL0     H17275  10.910   6.431  10.750  0.7632  0.4267  2.5292
  128MOL0     H17276  10.786   6.468  10.536 -0.7813  5.2898 -0.1503
  128MOL0     H17277  10.744   6.546  10.676  2.9077  0.1556  1.5228
  128MOL0     H17278  10.383   6.316  10.597  2.0207 -2.9256 -2.9007
  128MOL0     H17279  10.428   6.141  10.796 -0.0293  0.0001  1.5082
  128MOL0     H17280  10.202   6.232  10.839  1.3212 -1.1063  0.1156
  129MOL0     O17281   1.999   8.015   9.080 -0.9884  0.9110 -0.1278
  129MOL0     C17282   1.919   7.924   9.101 -0.0450  0.0249 -0.0412
  129MOL0     O17283   1.807   7.895   9.024  0.0531 -0.8018 -0.4902
  129MOL0     C17284   1.820   7.922   8.890  0.2686  0.7498 -0.0510
  129MOL0     C17285   1.736   8.015   8.837 -0.2623  0.1812  0.1978
  129MOL0     C17286   1.747   8.059   8.702 -0.6389 -0.0903 -0.6350
  129MOL0     C17287   1.856   8.005   8.624  0.2434 -0.9984 -0.1233
  129MOL0     O17288   1.874   8.046   8.492 -0.0495 -0.4252 -0.6931
  129MOL0     C17289   2.003   8.025   8.430 -0.4019  0.4210 -1.4456
  129MOL0     C17290   2.006   8.088   8.289  0.2785  0.5513  0.5270
  129MOL0     C17291   2.006   8.241   8.295 -0.5243 -0.0705  0.2364
  129MOL0     C17292   1.975   8.315   8.159 -0.7549 -0.4931 -0.4728
  129MOL0     C17293   1.981   8.471   8.176 -0.5590  0.4177 -0.5242
  129MOL0     C17294   2.113   8.529   8.109  0.6407 -0.1583 -0.1752
  129MOL0     C17295   2.082   8.540   7.955 -1.0061  0.7863 -0.0546
  129MOL0     C17296   2.211   8.554   7.880 -0.2806  0.3528  0.4685
  129MOL0     N17297   2.280   8.682   7.911  0.7770 -0.2921 -0.7399
  129MOL0     C17298   2.253   8.794   7.847 -0.5369  0.2027  0.1376
  129MOL0     C17299   2.334   8.888   7.907 -0.1758 -0.7106 -0.0048
  129MOL0     C17300   2.326   9.037   7.876  0.7982  1.3997  0.4528
  129MOL0     C17301   2.190   9.071   7.941  0.3033 -0.1926  0.2856
  129MOL0     C17302   2.167   9.226   7.975  0.2690  0.2618  0.3852
  129MOL0     C17303   2.028   9.265   8.007  0.1790  0.5622 -0.5188
  129MOL0     O17304   2.000   9.214   8.134  0.0364  0.9075  0.0186
  129MOL0     C17305   1.919   9.101   8.157 -1.0091  0.1857  0.4234
  129MOL0     C17306   1.830   9.041   8.070  0.3780  0.9856  0.2155
  129MOL0     C17307   1.735   8.942   8.110 -0.8786 -0.2571 -0.2959
  129MOL0     C17308   1.622   8.913   8.020 -0.5025 -0.5574  0.4786
  129MOL0     C17309   1.760   8.884   8.231  0.5353  1.2959  0.4292
  129MOL0     C17310   1.668   8.766   8.267  0.6552  0.6708  0.1141
  129MOL0     O17311   1.726   8.655   8.314 -0.2538  0.5560 -0.4437
  129MOL0     C17312   1.653   8.573   8.402 -0.5374  0.0014 -0.0439
  129MOL0     C17313   1.517   8.535   8.382  0.6299 -0.6446  0.0553
  129MOL0     C17314   1.447   8.457   8.471 -0.8252  0.1835  0.2758
  129MOL0     C17315   1.504   8.425   8.599  0.0977 -0.8136 -0.1864
  129MOL0     O17316   1.429   8.352   8.688  0.4822 -1.0708  0.3539
  129MOL0     C17317   1.304   8.417   8.725 -0.6960  0.1248  0.2554
  129MOL0     C17318   1.208   8.309   8.781 -0.0423  0.0381  1.2764
  129MOL0     C17319   1.266   8.251   8.911 -0.2071  0.4039  0.3212
  129MOL0     C17320   1.168   8.154   8.988  0.0954  0.5393 -0.4944
  129MOL0     C17321   1.143   8.201   9.130  1.2768 -0.0573 -0.0052
  129MOL0     C17322   1.013   8.294   9.141  0.3810 -0.2791 -1.0727
  129MOL0     C17323   0.980   8.340   9.286 -0.5925 -0.4619  0.8319
  129MOL0     C17324   0.997   8.242   9.403 -0.4636  0.6342 -0.1314
  129MOL0    Cl17325   0.938   8.071   9.365 -0.0986  0.5288 -0.6269
  129MOL0     C17326   1.634   8.463   8.625 -0.4815 -0.9227 -0.1737
  129MOL0     C17327   1.709   8.535   8.526 -0.5228  0.5208 -0.1156
  129MOL0     O17328   1.548   8.783   8.253 -0.3032  0.4067  0.0227
  129MOL0     C17329   1.860   8.928   8.319 -0.6541 -0.5220 -0.6526
  129MOL0     C17330   1.928   9.042   8.291  0.2174  0.0969  0.0476
  129MOL0     N17331   2.395   8.838   8.018 -0.0054 -0.4287  0.0386
  129MOL0     N17332   2.366   8.713   8.010 -0.0642 -0.4405 -0.4935
  129MOL0     C17333   1.934   7.899   8.680  0.7643  0.4810 -0.6887
  129MOL0     C17334   1.926   7.861   8.814  0.6088  0.5220  0.0160
  129MOL0     C17335   1.922   7.865   9.233  0.2610  0.7828  0.1779
  129MOL0     C17336   1.836   7.754   9.267 -0.8814  0.4648  0.1968
  129MOL0     C17337   1.851   7.689   9.391  0.2034  0.6205  0.9403
  129MOL0     C17338   1.938   7.733   9.488  0.1000 -0.2999  0.0177
  129MOL0     O17339   1.957   7.676   9.616 -0.0291  0.2294  0.5787
  129MOL0     C17340   1.904   7.539   9.635  0.4470  0.3006  0.2116
  129MOL0     C17341   1.928   7.495   9.782 -0.3518 -0.8081  0.0728
  129MOL0     C17342   1.860   7.363   9.817  0.6852 -0.0949 -0.3163
  129MOL0     C17343   1.706   7.377   9.851 -0.1914  0.2532  0.4828
  129MOL0     C17344   1.629   7.252   9.884  0.5413  0.0099 -0.1691
  129MOL0     C17345   1.579   7.148   9.919 -0.0235 -0.5148  0.4842
  129MOL0     C17346   2.022   7.837   9.456  0.1067 -0.7183  0.6856
  129MOL0     C17347   2.013   7.903   9.327 -0.0527  0.2311 -0.5314
  129MOL0     H17348   1.667   8.064   8.905 -0.2177 -1.9761  1.9088
  129MOL0     H17349   1.676   8.130   8.660  0.7403  2.0384  0.4742
  129MOL0     H17350   2.085   8.069   8.487  0.1585 -1.1315 -1.0259
  129MOL0     H17351   2.024   7.919   8.416  1.1274  0.7169 -1.6004
  129MOL0     H17352   2.099   8.055   8.243  0.3052  1.2801  0.0408
  129MOL0     H17353   1.920   8.063   8.226  1.0483 -0.2747 -0.2082
  129MOL0     H17354   1.939   8.285   8.369 -2.4561 -1.0311 -0.8758
  129MOL0     H17355   2.108   8.266   8.327 -1.2819  1.9683  1.3051
  129MOL0     H17356   2.052   8.281   8.089  0.0087  0.8540 -0.3298
  129MOL0     H17357   1.878   8.285   8.119 -1.1660  0.5531 -0.3145
  129MOL0     H17358   1.893   8.519   8.132 -1.0248 -0.3595 -0.4747
  129MOL0     H17359   1.974   8.491   8.283  2.0740  0.8186 -0.3670
  129MOL0     H17360   2.131   8.633   8.140  2.2073 -1.0687  2.2670
  129MOL0     H17361   2.201   8.472   8.139 -0.5706 -1.4092  1.1718
  129MOL0     H17362   2.035   8.449   7.916  2.7759 -0.7618 -1.3927
  129MOL0     H17363   2.010   8.621   7.936 -2.9308 -0.3338  1.9270
  129MOL0     H17364   2.190   8.528   7.776  1.1167  2.5653 -0.4356
  129MOL0     H17365   2.274   8.472   7.915 -1.7398 -0.8960  0.2920
  129MOL0     H17366   2.180   8.799   7.767 -4.0751  1.2886  3.1511
  129MOL0     H17367   2.412   9.089   7.919 -0.4363  3.8616  0.1086
  129MOL0     H17368   2.331   9.063   7.770  1.5574 -0.6344 -0.0534
  129MOL0     H17369   2.184   9.016   8.035 -1.8126  0.1419  0.3822
  129MOL0     H17370   2.123   9.026   7.867  1.5749  2.2097 -2.5585
  129MOL0     H17371   2.197   9.290   7.891  0.6935 -1.3481 -0.7340
  129MOL0     H17372   2.233   9.244   8.061  1.4090  2.0682 -0.8145
  129MOL0     H17373   1.966   9.229   7.925 -0.9203  2.5312 -0.6243
  129MOL0     H17374   2.018   9.374   8.002  0.5921  0.5598 -4.7671
  129MOL0     H17375   1.835   9.077   7.968 -0.9555  1.6338  0.3630
  129MOL0     H17376   1.618   8.809   7.987  0.5469 -0.3489 -0.3423
  129MOL0     H17377   1.532   8.947   8.073 -0.2472 -1.8467  1.7936
  129MOL0     H17378   1.643   8.967   7.927  2.1224  0.0771  1.3563
  129MOL0     H17379   1.473   8.546   8.284  0.0492 -1.0186  0.2671
  129MOL0     H17380   1.347   8.418   8.454  0.2196 -1.8981 -1.4519
  129MOL0     H17381   1.319   8.490   8.805 -0.3815 -2.3889  2.6293
  129MOL0     H17382   1.265   8.474   8.640  1.0091  0.7869 -0.1296
  129MOL0     H17383   1.109   8.352   8.801 -1.1403 -2.4025  1.5673
  129MOL0     H17384   1.191   8.228   8.710  2.3068  1.5860 -1.2381
  129MOL0     H17385   1.293   8.340   8.969 -2.6855  1.2407  0.3024
  129MOL0     H17386   1.362   8.199   8.907 -0.7240 -0.9107  2.9977
  129MOL0     H17387   1.074   8.142   8.932 -0.9459  1.4503  0.9771
  129MOL0     H17388   1.214   8.055   8.994  0.7507  0.9099  3.0499
  129MOL0     H17389   1.236   8.233   9.178 -0.2390 -0.0997  3.2510
  129MOL0     H17390   1.120   8.107   9.181  0.3461 -0.2658 -0.7842
  129MOL0     H17391   1.033   8.378   9.074  0.5531 -0.2778 -1.0201
  129MOL0     H17392   0.921   8.244   9.108 -2.2376  0.5946  3.8216
  129MOL0     H17393   0.878   8.378   9.283  0.5958  3.4238  2.2153
  129MOL0     H17394   1.040   8.427   9.315 -0.5199  0.2377 -1.2501
  129MOL0     H17395   0.948   8.273   9.496  0.5543  1.1955  0.2357
  129MOL0     H17396   1.106   8.238   9.411 -0.4435  0.1174 -0.6197
  129MOL0     H17397   1.681   8.424   8.714  1.4334 -0.8719 -1.1135
  129MOL0     H17398   1.815   8.557   8.537 -0.6100  1.4769 -0.9642
  129MOL0     H17399   1.860   8.873   8.412  1.9464  1.0059  0.3566
  129MOL0     H17400   2.000   9.087   8.359 -0.8070  1.4142  0.2989
  129MOL0     H17401   2.011   7.848   8.623  1.7284  1.9303 -0.7461
  129MOL0     H17402   1.985   7.790   8.871 -1.4720  0.1671  1.8307
  129MOL0     H17403   1.770   7.707   9.194 -1.4052  2.5825 -0.7911
  129MOL0     H17404   1.789   7.600   9.395  1.9991 -0.9361 -2.2536
  129MOL0     H17405   1.799   7.532   9.607  0.6940 -0.7309 -0.5079
  129MOL0     H17406   1.956   7.476   9.563 -0.1712  0.9480 -0.8214
  129MOL0     H17407   1.892   7.572   9.850  0.0516  0.0474 -0.6732
  129MOL0     H17408   2.037   7.485   9.782 -0.2669 -1.7918  4.2341
  129MOL0     H17409   1.907   7.322   9.907  1.4660 -1.1578 -1.1927
  129MOL0     H17410   1.870   7.288   9.738  2.2023  1.0101 -1.2106
  129MOL0     H17411   1.654   7.417   9.764  3.8045  1.4115 -1.6469
  129MOL0     H17412   1.699   7.441   9.939 -2.7890  0.5924  0.0960
  129MOL0     H17413   1.539   7.055   9.956  1.4857 -1.4394 -0.1392
  129MOL0     H17414   2.101   7.881   9.516  0.3555  1.4693 -1.0675
  129MOL0     H17415   2.088   7.974   9.294  3.6665 -2.4660  1.4218
  130MOL0     O17416   6.826  11.407   7.889 -0.1815  0.1104 -0.6805
  130MOL0     C17417   6.893  11.329   7.830  0.1478  0.0558 -0.4088
  130MOL0     O17418   7.025  11.298   7.864  0.5202 -0.5817  0.2754
  130MOL0     C17419   7.054  11.362   7.983  0.6586 -0.1456  0.1146
  130MOL0     C17420   6.983  11.327   8.104 -0.5564 -0.2928  0.0196
  130MOL0     C17421   7.035  11.376   8.232  0.7522  0.1332 -1.0831
  130MOL0     C17422   7.150  11.449   8.250 -0.8915 -1.1889  0.7040
  130MOL0     O17423   7.185  11.483   8.380 -0.1522 -0.3605 -0.6551
  130MOL0     C17424   7.231  11.618   8.420 -0.3388  0.2747 -0.0894
  130MOL0     C17425   7.184  11.665   8.559 -0.6162  0.6110 -0.2460
  130MOL0     C17426   7.227  11.584   8.680  0.1004  0.3364 -0.6073
  130MOL0     C17427   7.352  11.645   8.748  0.2620  0.3683  0.7698
  130MOL0     C17428   7.336  11.768   8.843 -0.4136 -0.3004  0.1268
  130MOL0     C17429   7.285  11.720   8.990 -0.6360  0.2758 -0.5991
  130MOL0     C17430   7.254  11.839   9.083  0.0244 -0.4396 -0.0192
  130MOL0     C17431   7.114  11.899   9.065  0.3012  0.4623 -0.1708
  130MOL0     N17432   7.003  11.826   9.135  0.4145 -0.1711  0.2574
  130MOL0     C17433   7.007  11.711   9.213 -0.4654 -0.3698 -0.0654
  130MOL0     C17434   6.911  11.712   9.306  1.3453 -0.5833  0.4633
  130MOL0     C17435   6.892  11.618   9.424  0.0736 -1.2165 -0.5066
  130MOL0     C17436   6.836  11.703   9.541 -0.3152  0.6707  0.7446
  130MOL0     C17437   6.823  11.623   9.671 -0.7543 -0.3065  0.0157
  130MOL0     C17438   6.797  11.719   9.781  0.5836  0.2374  0.1168
  130MOL0     O17439   6.773  11.656   9.902 -0.6781  0.4388  0.0864
  130MOL0     C17440   6.853  11.553   9.956 -0.4863 -0.7057 -0.7812
  130MOL0     C17441   6.992  11.561   9.944 -0.0463  0.4105  0.1191
  130MOL0     C17442   7.071  11.472  10.007  0.8179 -0.6201  0.0664
  130MOL0     C17443   7.215  11.504   9.989  0.4071  0.2570  0.4476
  130MOL0     C17444   7.015  11.357  10.069 -0.0150 -1.1879  0.2151
  130MOL0     C17445   7.095  11.249  10.131  0.4865 -0.7669  0.4700
  130MOL0     O17446   7.056  11.197  10.245  0.2024 -0.7061  0.8090
  130MOL0     C17447   7.130  11.097  10.304 -1.0769  0.0016 -0.4528
  130MOL0     C17448   7.138  11.123  10.438  0.0776  0.8461 -0.3558
  130MOL0     C17449   7.174  11.015  10.527  0.7516  0.2164  0.9135
  130MOL0     C17450   7.232  10.903  10.475 -0.7204  1.0414  0.8326
  130MOL0     O17451   7.285  10.792  10.542  0.4644 -0.6379 -0.0207
  130MOL0     C17452   7.246  10.756  10.671  1.0769 -1.3106  0.7161
  130MOL0     C17453   7.109  10.696  10.669  0.4168  0.1137 -0.5250
  130MOL0     C17454   7.085  10.640  10.811  0.2835  0.5613 -0.8322
  130MOL0     C17455   6.936  10.608  10.835  0.2179 -0.2045  0.3934
  130MOL0     C17456   6.917  10.586  10.988 -0.7293 -0.0023  0.5853
  130MOL0     C17457   6.775  10.550  11.012 -0.4420 -0.4762  0.7441
  130MOL0     C17458   6.767  10.513  11.161  0.4561  0.7709 -0.0043
  130MOL0     C17459   6.658  10.609  11.215  0.2989  0.1608 -0.1240
  130MOL0    Cl17460   6.496  10.581  11.142  0.0005 -0.6081 -0.0514
  130MOL0     C17461   7.239  10.891  10.337  0.0159 -1.0964  0.0502
  130MOL0     C17462   7.184  10.980  10.247  0.9100 -0.4533 -0.3433
  130MOL0     O17463   7.175  11.203  10.062  0.1635  0.7790  0.4363
  130MOL0     C17464   6.875  11.358  10.084  0.4920  0.4895 -0.0360
  130MOL0     C17465   6.799  11.459  10.036 -0.5047  0.4888  0.1180
  130MOL0     N17466   6.838  11.827   9.274  0.1105 -0.1094  0.4880
  130MOL0     N17467   6.886  11.896   9.173 -0.2646 -0.1186  0.0094
  130MOL0     C17468   7.213  11.487   8.130 -0.6135 -0.4340 -0.2237
  130MOL0     C17469   7.165  11.452   7.995 -1.0108 -0.0997  1.0826
  130MOL0     C17470   6.841  11.240   7.724 -0.5065 -0.6352 -0.5574
  130MOL0     C17471   6.916  11.129   7.679 -0.8313  1.0939  0.6541
  130MOL0     C17472   6.868  11.045   7.578  0.5463 -0.2285 -0.1475
  130MOL0     C17473   6.746  11.075   7.533  1.2733 -0.4299 -0.1867
  130MOL0     O17474   6.677  11.005   7.443 -0.0792  0.4431 -0.5804
  130MOL0     C17475   6.743  10.966   7.323 -0.2804 -0.6494 -0.1615
  130MOL0     C17476   6.681  10.859   7.239  0.0757  0.7332 -0.3054
  130MOL0     C17477   6.686  10.714   7.312 -0.3717  0.9991  0.1070
  130MOL0     C17478   6.623  10.604   7.225 -0.2818 -0.5861  0.6443
  130MOL0     C17479   6.614  10.471   7.291  0.5158  0.4782  0.1929
  130MOL0     C17480   6.599  10.370   7.351 -0.7019  0.0162 -0.4264
  130MOL0     C17481   6.663  11.181   7.580 -0.0639 -0.0082 -0.5664
  130MOL0     C17482   6.711  11.260   7.675 -1.1972 -0.1492 -0.6104
  130MOL0     H17483   6.896  11.262   8.096  0.3018 -1.4362 -0.3234
  130MOL0     H17484   6.980  11.355   8.323  3.5890  1.6179  1.0947
  130MOL0     H17485   7.340  11.623   8.411 -0.4658 -0.0693 -2.3612
  130MOL0     H17486   7.195  11.691   8.348 -3.3808 -2.8044 -1.9732
  130MOL0     H17487   7.229  11.765   8.556 -0.6520  0.6486  0.3345
  130MOL0     H17488   7.075  11.671   8.568 -0.7657 -2.8411  2.4168
  130MOL0     H17489   7.147  11.558   8.750  0.4802  0.3493 -0.1684
  130MOL0     H17490   7.250  11.483   8.644 -3.0412 -0.1558 -1.6043
  130MOL0     H17491   7.392  11.567   8.814 -1.7541 -3.5123 -2.2153
  130MOL0     H17492   7.428  11.652   8.670  1.2965 -2.0156  1.4661
  130MOL0     H17493   7.434  11.818   8.851  0.3947 -1.4176 -1.9961
  130MOL0     H17494   7.266  11.844   8.809  1.7988  2.3477  1.1242
  130MOL0     H17495   7.200  11.652   8.976  0.8238 -1.6316 -0.6148
  130MOL0     H17496   7.357  11.650   9.033 -2.9031 -0.7434  1.8493
  130MOL0     H17497   7.270  11.825   9.190  1.9485  1.5341  0.0295
  130MOL0     H17498   7.329  11.912   9.052  0.6536 -0.0499  2.2598
  130MOL0     H17499   7.083  11.897   8.960 -0.9627 -1.0345  0.1831
  130MOL0     H17500   7.115  12.001   9.104  1.2498 -0.2327  1.7420
  130MOL0     H17501   7.068  11.625   9.188 -2.0530 -1.4248 -0.4642
  130MOL0     H17502   6.818  11.543   9.396  0.7962 -1.1596 -2.7596
  130MOL0     H17503   6.988  11.570   9.446 -0.8395 -2.4266  1.1558
  130MOL0     H17504   6.735  11.733   9.512 -1.0790 -0.7064  1.8414
  130MOL0     H17505   6.904  11.788   9.552 -2.0992  2.2500  0.0077
  130MOL0     H17506   6.910  11.560   9.691  0.8557  1.7008 -0.3299
  130MOL0     H17507   6.746  11.547   9.660  1.8328 -2.9610 -1.2412
  130MOL0     H17508   6.696  11.760   9.774  0.5540  0.9394  3.2079
  130MOL0     H17509   6.873  11.797   9.797  0.5726  0.4434 -0.7642
  130MOL0     H17510   7.024  11.639   9.877 -2.0090  2.6924  1.6751
  130MOL0     H17511   7.265  11.417   9.945 -1.5789  0.0951 -1.6975
  130MOL0     H17512   7.229  11.587   9.919 -2.6145 -2.1893 -3.5099
  130MOL0     H17513   7.245  11.516  10.093  0.5065 -2.9495  0.8977
  130MOL0     H17514   7.102  11.218  10.477  3.3910  0.8700  3.3043
  130MOL0     H17515   7.175  11.033  10.634 -0.1082 -2.2188  1.4214
  130MOL0     H17516   7.309  10.676  10.711  1.8443 -1.9099 -1.5303
  130MOL0     H17517   7.261  10.844  10.735 -2.0130 -0.1226 -0.0003
  130MOL0     H17518   7.025  10.763  10.649 -2.4328 -2.2632  2.3386
  130MOL0     H17519   7.107  10.623  10.588  0.8402 -0.7003  0.1777
  130MOL0     H17520   7.118  10.707  10.890  2.5918 -2.7155  1.2462
  130MOL0     H17521   7.150  10.554  10.827  0.2779  1.0810  2.7099
  130MOL0     H17522   6.873  10.693  10.807 -1.7401 -2.2763 -1.9810
  130MOL0     H17523   6.897  10.527  10.773 -1.2462 -0.3439  1.4414
  130MOL0     H17524   6.930  10.676  11.047 -0.2640  1.8542 -2.1621
  130MOL0     H17525   6.985  10.508  11.024 -1.0063 -0.6604 -0.2661
  130MOL0     H17526   6.732  10.645  10.980 -1.5781 -0.7019  1.5501
  130MOL0     H17527   6.735  10.474  10.944  4.3196 -1.8979 -0.9140
  130MOL0     H17528   6.857  10.517  11.223  2.6775  1.0972 -3.0494
  130MOL0     H17529   6.724  10.414  11.178  1.9508  0.3711  1.8452
  130MOL0     H17530   6.674  10.716  11.199 -0.4326  0.0623 -1.6841
  130MOL0     H17531   6.660  10.608  11.324 -0.6735  2.9151 -0.0097
  130MOL0     H17532   7.276  10.799  10.292  1.3211  1.2808 -4.3514
  130MOL0     H17533   7.192  10.956  10.142 -1.6268  0.7160 -0.8768
  130MOL0     H17534   6.838  11.278  10.148  1.5892 -0.4641 -0.5451
  130MOL0     H17535   6.693  11.473  10.048 -0.9596 -0.8733 -1.8122
  130MOL0     H17536   7.306  11.541   8.138 -1.8913  2.0084 -1.0488
  130MOL0     H17537   7.210  11.500   7.909  2.0725 -1.4250  1.8452
  130MOL0     H17538   7.018  11.112   7.710 -0.4898  1.6630 -0.1480
  130MOL0     H17539   6.940  10.974   7.539  0.9720 -0.4736  1.0342
  130MOL0     H17540   6.747  11.051   7.254 -1.9810 -2.6292 -2.9003
  130MOL0     H17541   6.849  10.947   7.343  0.4296  1.4580 -1.5526
  130MOL0     H17542   6.730  10.848   7.142  0.2302  2.0898 -0.4012
  130MOL0     H17543   6.578  10.894   7.223  1.1192  3.0942 -2.4600
  130MOL0     H17544   6.624  10.721   7.402 -0.2933 -0.1175  0.2652
  130MOL0     H17545   6.788  10.680   7.329 -1.0619 -0.8896  0.8211
  130MOL0     H17546   6.679  10.592   7.132  2.1342 -3.2268  2.2627
  130MOL0     H17547   6.525  10.639   7.192  2.0421  3.6668 -2.9468
  130MOL0     H17548   6.605  10.286   7.417  0.2907  0.3040 -0.1158
  130MOL0     H17549   6.567  11.202   7.534 -0.0625  0.7962 -0.2121
  130MOL0     H17550   6.653  11.350   7.689  0.0655  0.8761 -1.6719
  131MOL0     O17551   2.701   5.112   9.478 -0.4514 -0.0044 -0.3836
  131MOL0     C17552   2.715   5.075   9.597 -0.7830 -0.2038  0.1411
  131MOL0     O17553   2.791   5.142   9.682 -0.1051 -0.2659 -0.4572
  131MOL0     C17554   2.827   5.276   9.655  1.0871 -0.3687 -0.2621
  131MOL0     C17555   2.731   5.376   9.633 -0.7594  0.2474  0.0325
  131MOL0     C17556   2.753   5.512   9.617 -0.9585 -1.5645 -0.4923
  131MOL0     C17557   2.885   5.561   9.587  0.0397  0.4850  0.2614
  131MOL0     O17558   2.912   5.691   9.562  0.5632 -0.8363  0.6877
  131MOL0     C17559   2.992   5.716   9.442  1.0553 -0.3790 -0.7398
  131MOL0     C17560   2.918   5.661   9.322  0.7326  0.7169  0.1683
  131MOL0     C17561   3.006   5.701   9.201 -0.6556  0.7549  0.8031
  131MOL0     C17562   2.936   5.816   9.125  0.0686  0.9590  0.0640
  131MOL0     C17563   3.001   5.839   8.997 -0.0850 -0.8296  0.9470
  131MOL0     C17564   2.926   5.939   8.909  0.1349 -0.0063  0.4271
  131MOL0     C17565   2.975   5.950   8.771  0.2024 -0.5796  0.6717
  131MOL0     C17566   3.125   5.998   8.767  0.3636 -0.3872  0.1561
  131MOL0     N17567   3.181   6.001   8.633 -0.2070 -0.2038  0.9827
  131MOL0     C17568   3.124   5.974   8.507 -0.9380  0.1891 -0.1557
  131MOL0     C17569   3.231   5.981   8.422  0.2670 -0.3158 -0.0886
  131MOL0     C17570   3.228   5.962   8.273  0.2582 -0.9815 -0.3525
  131MOL0     C17571   3.194   5.816   8.237 -0.5219  0.1675 -0.4002
  131MOL0     C17572   3.164   5.789   8.095 -0.3635 -0.0861  0.4584
  131MOL0     C17573   3.203   5.654   8.034  0.3908  0.0126  0.2878
  131MOL0     O17574   3.170   5.638   7.898  0.5840 -0.5480  0.9767
  131MOL0     C17575   3.252   5.591   7.805 -0.7398  0.2996 -0.3876
  131MOL0     C17576   3.193   5.526   7.692 -0.5970 -0.4508 -0.5305
  131MOL0     C17577   3.274   5.451   7.596  0.3865 -0.6289 -0.2686
  131MOL0     C17578   3.199   5.393   7.475 -0.2338 -0.6526  0.0836
  131MOL0     C17579   3.413   5.442   7.621 -0.0337  0.2671 -1.1749
  131MOL0     C17580   3.500   5.370   7.526  0.0240  0.5922 -0.0948
  131MOL0     O17581   3.579   5.263   7.581  0.6032 -0.2674  0.5059
  131MOL0     C17582   3.639   5.180   7.488  0.2889 -0.3200 -0.9533
  131MOL0     C17583   3.580   5.061   7.458 -0.1106 -0.0654 -0.3545
  131MOL0     C17584   3.629   4.993   7.344 -0.2213  1.0366  0.2410
  131MOL0     C17585   3.747   5.030   7.280 -0.8754 -0.5338  0.7442
  131MOL0     O17586   3.798   4.967   7.173  0.5188  0.7709  0.4976
  131MOL0     C17587   3.881   4.849   7.210  0.6425 -0.3036 -0.7963
  131MOL0     C17588   4.025   4.890   7.197 -0.7384 -0.0664 -0.1775
  131MOL0     C17589   4.100   4.881   7.064  0.6920  0.0855  0.0197
  131MOL0     C17590   4.232   4.932   7.069  0.7966  0.0457 -0.3551
  131MOL0     C17591   4.322   4.940   6.940  0.4257  0.5941 -0.2540
  131MOL0     C17592   4.470   4.972   6.964  0.0269 -0.1954  0.1773
  131MOL0     C17593   4.561   4.902   6.864 -0.2769 -0.6153  0.7361
  131MOL0     C17594   4.539   4.953   6.719 -1.1048  0.8702  0.8831
  131MOL0    Cl17595   4.602   4.809   6.615 -0.3104 -0.0260  0.3666
  131MOL0     C17596   3.800   5.160   7.308  0.1853  0.5598 -0.4838
  131MOL0     C17597   3.750   5.231   7.413  0.0117  0.3436 -0.5782
  131MOL0     O17598   3.493   5.400   7.407  0.2334  0.2621 -0.0983
  131MOL0     C17599   3.468   5.513   7.732 -1.2678 -0.2560 -0.2297
  131MOL0     C17600   3.388   5.579   7.830  0.1486 -0.5069  0.5368
  131MOL0     N17601   3.345   6.017   8.485  0.6071 -0.1661  0.1387
  131MOL0     N17602   3.317   6.022   8.608 -0.1975  0.9228 -0.2566
  131MOL0     C17603   2.989   5.456   9.592 -0.1747  0.0904  0.4677
  131MOL0     C17604   2.951   5.326   9.627 -0.1510  0.2826 -0.2818
  131MOL0     C17605   2.639   4.950   9.649  0.1752  0.1092 -0.1793
  131MOL0     C17606   2.645   4.913   9.786  0.5607  0.9782  0.4861
  131MOL0     C17607   2.587   4.788   9.834 -0.9285 -0.6173 -0.0327
  131MOL0     C17608   2.522   4.707   9.748  0.1841  0.0740  0.1523
  131MOL0     O17609   2.466   4.596   9.805  0.1534  0.1746 -0.5020
  131MOL0     C17610   2.324   4.603   9.792  0.1061  0.5781 -0.2245
  131MOL0     C17611   2.270   4.481   9.886  0.1190  0.3465 -0.5784
  131MOL0     C17612   2.282   4.502  10.037 -0.1173  0.3736  1.0142
  131MOL0     C17613   2.182   4.598  10.088  0.7705 -0.3376  0.1673
  131MOL0     C17614   2.240   4.729  10.088  0.4889  0.8254  0.0379
  131MOL0     C17615   2.305   4.832  10.089 -0.4093  0.5083 -1.0295
  131MOL0     C17616   2.516   4.741   9.612  0.3985  0.8651 -0.1295
  131MOL0     C17617   2.571   4.856   9.564 -0.3070 -0.2584 -0.7075
  131MOL0     H17618   2.631   5.336   9.646  1.3055 -5.5546  0.9272
  131MOL0     H17619   2.677   5.589   9.616 -0.7889 -1.3959 -0.2809
  131MOL0     H17620   2.999   5.826   9.442 -1.5074 -0.1516 -1.9115
  131MOL0     H17621   3.091   5.679   9.469  1.7547  1.2341 -0.9257
  131MOL0     H17622   2.895   5.554   9.323 -2.0164  1.1962 -1.5804
  131MOL0     H17623   2.825   5.717   9.311  0.0296 -0.4584 -0.0240
  131MOL0     H17624   3.097   5.749   9.238  1.5876 -0.7750 -2.2513
  131MOL0     H17625   3.040   5.618   9.138 -0.6799  0.2611  1.4347
  131MOL0     H17626   2.836   5.772   9.117  0.9973 -1.4772  0.7332
  131MOL0     H17627   2.942   5.901   9.193 -2.3726 -0.1045  1.7819
  131MOL0     H17628   3.102   5.874   9.018  1.0022 -2.6550 -0.8245
  131MOL0     H17629   3.011   5.743   8.944 -0.9626 -0.6615  0.4626
  131MOL0     H17630   2.819   5.916   8.907  0.2047 -0.3035  0.1201
  131MOL0     H17631   2.935   6.037   8.956  2.3367 -0.0667  0.2193
  131MOL0     H17632   2.951   5.854   8.726  2.9836 -1.0570  0.0272
  131MOL0     H17633   2.913   6.022   8.717 -0.3834 -0.5981  1.3027
  131MOL0     H17634   3.184   5.933   8.832  1.6349  0.5108 -0.0659
  131MOL0     H17635   3.137   6.096   8.815 -0.7816 -0.2846  0.2633
  131MOL0     H17636   3.021   5.952   8.483 -1.1687  0.2583  0.7256
  131MOL0     H17637   3.161   6.035   8.226  0.3827 -1.2702 -0.9896
  131MOL0     H17638   3.327   5.994   8.242 -1.1531  1.3985 -2.8461
  131MOL0     H17639   3.099   5.791   8.285 -1.0173 -1.2086 -2.0448
  131MOL0     H17640   3.271   5.749   8.277 -1.1491 -1.7102 -2.1974
  131MOL0     H17641   3.219   5.864   8.037  4.0289 -0.1409  4.0480
  131MOL0     H17642   3.056   5.789   8.076 -0.3291  0.4075  0.2528
  131MOL0     H17643   3.180   5.565   8.095 -0.6605  1.6959  2.5059
  131MOL0     H17644   3.311   5.650   8.047  0.3020 -3.9462  1.2333
  131MOL0     H17645   3.087   5.537   7.671 -0.6014  0.0103 -0.2846
  131MOL0     H17646   3.091   5.410   7.466 -0.3638 -1.8865 -1.2216
  131MOL0     H17647   3.228   5.444   7.383 -3.2365 -1.3585 -1.3788
  131MOL0     H17648   3.220   5.285   7.470 -0.8481 -0.7505 -0.7147
  131MOL0     H17649   3.493   5.030   7.514 -0.0637 -0.8675 -0.7180
  131MOL0     H17650   3.586   4.902   7.303  2.8818 -0.9023  0.8548
  131MOL0     H17651   3.858   4.823   7.314  2.6640 -1.5168 -0.5969
  131MOL0     H17652   3.861   4.764   7.144  0.6645 -0.8676 -0.0981
  131MOL0     H17653   4.027   4.991   7.240 -1.9058 -0.4867  0.9245
  131MOL0     H17654   4.073   4.829   7.273 -2.9875 -1.3248  0.3306
  131MOL0     H17655   4.042   4.913   6.977 -0.5042 -1.6852  0.1175
  131MOL0     H17656   4.119   4.774   7.051  0.5165  0.1802 -1.0543
  131MOL0     H17657   4.221   5.035   7.102  0.6014  0.0089 -0.3059
  131MOL0     H17658   4.277   4.889   7.159  1.0205  3.5324  1.3603
  131MOL0     H17659   4.292   5.022   6.874 -1.0135 -1.0167 -1.7186
  131MOL0     H17660   4.309   4.843   6.890  2.7885  0.3093 -0.4167
  131MOL0     H17661   4.483   5.078   6.940 -0.6990 -0.6386 -2.4501
  131MOL0     H17662   4.500   4.952   7.068  0.7971  0.4585  0.0919
  131MOL0     H17663   4.545   4.794   6.872  0.5588 -0.6801  1.7587
  131MOL0     H17664   4.665   4.914   6.894  0.2805 -3.4145  0.2572
  131MOL0     H17665   4.604   5.038   6.696 -0.7342 -0.0932 -2.0940
  131MOL0     H17666   4.436   4.977   6.690 -0.3098  1.6291 -1.6356
  131MOL0     H17667   3.875   5.205   7.243 -0.5470  1.6466 -0.6121
  131MOL0     H17668   3.785   5.333   7.426  0.4574  0.0851  0.3357
  131MOL0     H17669   3.575   5.495   7.736 -1.6579 -3.3914 -1.2737
  131MOL0     H17670   3.437   5.630   7.912  0.5706  1.1183 -0.6837
  131MOL0     H17671   3.087   5.483   9.555 -1.2307  3.2446 -0.3494
  131MOL0     H17672   3.022   5.244   9.617 -3.8695 -3.1003 -1.5220
  131MOL0     H17673   2.689   4.985   9.855  2.1026  0.9180 -0.3996
  131MOL0     H17674   2.608   4.747   9.933 -0.4593  2.2289  1.1549
  131MOL0     H17675   2.286   4.696   9.837 -1.8231 -0.7517  1.0499
  131MOL0     H17676   2.289   4.578   9.692 -1.1301 -1.6297  0.6754
  131MOL0     H17677   2.326   4.387   9.877  0.2765  0.2419  1.2205
  131MOL0     H17678   2.172   4.444   9.855  0.6017 -2.2241  0.7105
  131MOL0     H17679   2.386   4.525  10.062  0.9176  1.7003 -3.5439
  131MOL0     H17680   2.247   4.404  10.070 -1.0012 -0.2660 -1.5773
  131MOL0     H17681   2.153   4.564  10.188 -2.0100 -0.7678 -0.7073
  131MOL0     H17682   2.086   4.587  10.038  1.6979 -4.1521 -1.1529
  131MOL0     H17683   2.342   4.930  10.111 -0.5838  0.0022  1.9060
  131MOL0     H17684   2.477   4.670   9.540 -1.3873  2.0074 -0.3525
  131MOL0     H17685   2.563   4.888   9.461 -0.0242  1.9050 -0.1162
  132MOL0     O17686  11.136  11.421   4.668 -0.5054 -0.7054 -0.1698
  132MOL0     C17687  11.217  11.364   4.738 -0.3983  0.0879 -0.4766
  132MOL0     O17688  11.224  11.366   4.877 -0.7209 -0.7257  1.4114
  132MOL0     C17689  11.122  11.434   4.945  0.8347 -0.4911 -0.0312
  132MOL0     C17690  11.141  11.550   5.020 -0.0754  0.2322 -0.6682
  132MOL0     C17691  11.038  11.615   5.091  0.5849 -0.0208 -0.3702
  132MOL0     C17692  10.908  11.563   5.090 -0.1933 -0.5616  0.4973
  132MOL0     O17693  10.800  11.617   5.159  0.1387  0.2605  0.0175
  132MOL0     C17694  10.716  11.531   5.239 -0.1793 -0.6346  0.8007
  132MOL0     C17695  10.580  11.513   5.170  0.2493  0.1657  0.2743
  132MOL0     C17696  10.496  11.389   5.204  0.4881 -0.6926  0.2549
  132MOL0     C17697  10.571  11.248   5.190 -0.0352  0.2668 -0.1087
  132MOL0     C17698  10.506  11.145   5.284  0.2930  0.5698 -1.1241
  132MOL0     C17699  10.370  11.086   5.245  0.0740  0.5445 -0.2998
  132MOL0     C17700  10.374  11.041   5.096 -0.9252 -1.2126 -0.0665
  132MOL0     C17701  10.262  10.935   5.064 -0.6368  0.1662  0.4332
  132MOL0     N17702  10.214  10.942   4.928  0.7510 -0.2454 -0.2476
  132MOL0     C17703  10.301  10.958   4.821  0.6361  0.9492  0.0685
  132MOL0     C17704  10.222  10.984   4.715 -0.8129 -0.5212 -0.2089
  132MOL0     C17705  10.254  11.000   4.568 -0.1887  0.6263  0.1977
  132MOL0     C17706  10.145  11.081   4.497  0.3615  1.0747 -0.8617
  132MOL0     C17707  10.101  11.024   4.361  0.3453  0.2401 -0.0131
  132MOL0     C17708   9.983  11.095   4.297 -0.0083 -0.8027 -0.0811
  132MOL0     O17709   9.900  11.015   4.212 -0.0778 -0.1078 -0.0066
  132MOL0     C17710   9.780  11.067   4.166 -0.0404 -0.0134 -0.7107
  132MOL0     C17711   9.698  10.979   4.104  0.3789 -0.0495  0.9189
  132MOL0     C17712   9.561  11.020   4.074  0.0761 -0.1930 -0.1765
  132MOL0     C17713   9.484  10.902   4.009  0.3606 -1.0760 -0.7801
  132MOL0     C17714   9.514  11.144   4.121  0.0825 -0.9418  0.6567
  132MOL0     C17715   9.362  11.176   4.124 -0.6244  0.4485 -0.5184
  132MOL0     O17716   9.341  11.299   4.175 -0.3177  0.1727 -0.5513
  132MOL0     C17717   9.228  11.370   4.176  0.3024 -0.7753 -1.5220
  132MOL0     C17718   9.220  11.493   4.247  0.5412  0.6462 -0.5085
  132MOL0     C17719   9.103  11.569   4.249  0.1064  0.4334 -0.2502
  132MOL0     C17720   8.996  11.538   4.165 -0.0806 -0.7868  0.8262
  132MOL0     O17721   8.889  11.616   4.166 -0.1754 -0.7359  0.4898
  132MOL0     C17722   8.825  11.649   4.035 -0.6208 -0.5139  0.0040
  132MOL0     C17723   8.915  11.745   3.962 -1.0102  0.8856 -0.4946
  132MOL0     C17724   8.861  11.790   3.826 -0.3775 -0.6589  0.0364
  132MOL0     C17725   8.732  11.879   3.830  0.7875  0.1762 -0.2222
  132MOL0     C17726   8.680  11.904   3.692  0.7924 -0.3695  0.3007
  132MOL0     C17727   8.782  11.989   3.609  0.4420  0.5440  0.4237
  132MOL0     C17728   8.734  12.083   3.500  0.1304 -0.1089  1.5729
  132MOL0     C17729   8.650  12.018   3.391 -0.2932 -0.0760 -0.4339
  132MOL0    Cl17730   8.718  11.865   3.337 -0.0855 -0.4320 -0.3275
  132MOL0     C17731   9.000  11.421   4.112 -0.7941  0.5209  0.0635
  132MOL0     C17732   9.113  11.338   4.112 -0.1151 -0.9112 -0.0632
  132MOL0     O17733   9.280  11.100   4.078  0.1636  0.1623 -0.5091
  132MOL0     C17734   9.604  11.230   4.178 -0.0938  0.8424 -0.0327
  132MOL0     C17735   9.730  11.189   4.200 -0.4553 -0.0016 -0.3732
  132MOL0     N17736  10.092  10.983   4.774  0.2264  0.4422 -0.8700
  132MOL0     N17737  10.084  10.948   4.887 -0.0652 -0.8662 -0.0521
  132MOL0     C17738  10.886  11.449   5.005  0.2372 -0.7837 -0.5687
  132MOL0     C17739  10.988  11.383   4.942  0.9115  0.5620  0.0507
  132MOL0     C17740  11.327  11.283   4.676 -0.5187  0.2988  0.0197
  132MOL0     C17741  11.345  11.270   4.532  1.3352 -0.4148  0.1487
  132MOL0     C17742  11.449  11.194   4.476  0.2461  0.2531 -0.9670
  132MOL0     C17743  11.532  11.119   4.558 -0.6997 -0.3908  0.4629
  132MOL0     O17744  11.630  11.052   4.486  1.0384  0.2166 -0.0645
  132MOL0     C17745  11.731  10.995   4.569  0.8527  0.4449 -0.4962
  132MOL0     C17746  11.843  10.937   4.492  1.1187  0.2329 -0.8209
  132MOL0     C17747  11.918  10.822   4.579 -0.7956 -0.4899  0.4207
  132MOL0     C17748  12.005  10.738   4.493  0.1334  0.4463  0.5246
  132MOL0     C17749  11.941  10.640   4.401  0.8119  0.4336  0.9270
  132MOL0     C17750  11.904  10.550   4.328  0.0189 -0.1620 -1.0184
  132MOL0     C17751  11.517  11.133   4.692 -0.4476  0.0375  0.5563
  132MOL0     C17752  11.416  11.203   4.750 -0.4632  1.0172  0.4348
  132MOL0     H17753  11.240  11.595   5.025 -0.5015  1.3465 -1.7860
  132MOL0     H17754  11.062  11.694   5.162 -0.9174 -0.1820  0.3613
  132MOL0     H17755  10.773  11.439   5.251  0.3928 -0.6243 -1.4037
  132MOL0     H17756  10.691  11.574   5.337  1.1397  2.1774  0.0241
  132MOL0     H17757  10.514  11.600   5.181  0.3614  0.2877  0.0046
  132MOL0     H17758  10.608  11.520   5.065  4.8195 -0.4515  1.2453
  132MOL0     H17759  10.469  11.401   5.310  2.8664  2.1018  0.6785
  132MOL0     H17760  10.409  11.389   5.137 -0.9682  2.9746  1.8345
  132MOL0     H17761  10.583  11.230   5.083 -2.0594  0.8038 -0.4520
  132MOL0     H17762  10.673  11.254   5.231 -1.4788  0.1726  3.9230
  132MOL0     H17763  10.579  11.064   5.289  0.5106  0.7899 -0.7278
  132MOL0     H17764  10.489  11.187   5.383 -2.7670  0.3526 -1.4545
  132MOL0     H17765  10.343  11.001   5.308  0.6126  0.7014  0.1534
  132MOL0     H17766  10.298  11.167   5.259  2.9348  3.0179  1.2407
  132MOL0     H17767  10.356  11.134   5.042 -1.9047 -1.4651 -0.1990
  132MOL0     H17768  10.473  10.996   5.086 -0.6710 -0.8757  0.8400
  132MOL0     H17769  10.170  10.947   5.123 -1.8679  0.5491 -1.4831
  132MOL0     H17770  10.299  10.833   5.078  0.7822  0.8947  2.5985
  132MOL0     H17771  10.409  10.952   4.816  0.5634 -2.3354  0.1069
  132MOL0     H17772  10.342  11.065   4.560  1.8815 -2.0685 -0.3260
  132MOL0     H17773  10.277  10.904   4.522 -2.6178  0.5218 -0.9604
  132MOL0     H17774  10.187  11.178   4.468 -0.0421  1.1776 -1.1103
  132MOL0     H17775  10.064  11.109   4.564  0.8974  1.1348 -0.2266
  132MOL0     H17776  10.069  10.919   4.365 -1.3334  0.7465  3.1079
  132MOL0     H17777  10.191  11.036   4.300 -0.4310 -2.0134 -1.7589
  132MOL0     H17778  10.009  11.180   4.233  1.1003 -1.7487 -0.9395
  132MOL0     H17779   9.917  11.129   4.377 -1.4743  2.9934 -2.5990
  132MOL0     H17780   9.738  10.880   4.082  0.1028  0.1551 -0.6262
  132MOL0     H17781   9.429  10.953   3.929  1.2804  0.0229 -0.7445
  132MOL0     H17782   9.552  10.829   3.964  3.0295  0.7319  0.0396
  132MOL0     H17783   9.415  10.847   4.073 -0.6613 -1.9901 -2.5799
  132MOL0     H17784   9.308  11.523   4.303  0.5168 -1.4834  0.8082
  132MOL0     H17785   9.115  11.668   4.293  3.3111  0.0876 -0.0802
  132MOL0     H17786   8.805  11.557   3.978 -2.1732  1.0029 -2.0400
  132MOL0     H17787   8.735  11.706   4.058 -0.7108 -1.5797  2.6044
  132MOL0     H17788   8.940  11.826   4.031  1.5091  2.1043 -2.6744
  132MOL0     H17789   9.004  11.691   3.930 -2.1834 -1.3489 -0.2095
  132MOL0     H17790   8.840  11.696   3.773  0.4174 -0.1206 -1.2813
  132MOL0     H17791   8.939  11.841   3.768  1.5444 -3.2919  0.1138
  132MOL0     H17792   8.667  11.820   3.896  0.3675  0.2274 -0.5867
  132MOL0     H17793   8.749  11.975   3.880  1.3638 -1.8202  3.8657
  132MOL0     H17794   8.589  11.958   3.719  0.8723 -1.6856  3.8302
  132MOL0     H17795   8.658  11.810   3.639 -1.3240  0.7354 -0.8996
  132MOL0     H17796   8.830  12.061   3.676 -1.6981  2.0023  0.4869
  132MOL0     H17797   8.864  11.926   3.575  0.0337 -0.0250  0.4719
  132MOL0     H17798   8.820  12.136   3.460 -1.8343  2.4206  0.4232
  132MOL0     H17799   8.669  12.165   3.531  0.0095 -0.1368  1.4001
  132MOL0     H17800   8.646  12.091   3.309 -1.6243 -0.4916 -0.7666
  132MOL0     H17801   8.547  11.998   3.422 -0.2663 -2.8949 -1.8802
  132MOL0     H17802   8.929  11.371   4.047  1.6804 -2.4209 -0.6492
  132MOL0     H17803   9.110  11.246   4.055  0.3973  0.6516 -2.8066
  132MOL0     H17804   9.570  11.324   4.221 -0.9398  1.1517 -1.3463
  132MOL0     H17805   9.781  11.260   4.264 -2.6762  0.6131  0.8333
  132MOL0     H17806  10.785  11.409   5.008 -0.4999  0.8729  3.3297
  132MOL0     H17807  10.973  11.287   4.894  0.9667  0.2230  0.7050
  132MOL0     H17808  11.284  11.329   4.465  0.5039  0.9792  2.0411
  132MOL0     H17809  11.459  11.188   4.369 -2.7107 -1.7236 -1.2451
  132MOL0     H17810  11.776  11.077   4.627 -0.6246  1.7479 -1.1096
  132MOL0     H17811  11.683  10.919   4.630 -0.6922 -1.7313 -4.1229
  132MOL0     H17812  11.916  11.000   4.440 -0.1331 -1.3504 -4.8969
  132MOL0     H17813  11.797  10.881   4.410 -0.2013 -0.2089  0.1881
  132MOL0     H17814  11.851  10.754   4.632  1.1052 -2.5588  0.3423
  132MOL0     H17815  11.989  10.874   4.643  1.3948 -0.5334 -1.8061
  132MOL0     H17816  12.072  10.678   4.554 -0.0687 -0.1341  0.1786
  132MOL0     H17817  12.062  10.807   4.429  0.8378  1.2657  1.9987
  132MOL0     H17818  11.872  10.481   4.253 -1.9568 -0.1369 -0.2655
  132MOL0     H17819  11.584  11.078   4.758  1.0522  1.5611  0.3625
  132MOL0     H17820  11.415  11.203   4.858 -2.3866  0.7231  0.4539
  133MOL0     O17821   7.992  10.627   7.359 -0.8533  0.5102 -0.1608
  133MOL0     C17822   8.086  10.550   7.374 -0.4281  0.7298  0.0197
  133MOL0     O17823   8.138  10.521   7.496 -0.4154  0.5360  0.3593
  133MOL0     C17824   8.099  10.585   7.609 -0.1318 -0.7845  1.2377
  133MOL0     C17825   8.094  10.724   7.623 -0.4800  0.9071  0.5805
  133MOL0     C17826   8.088  10.789   7.743  1.2548  0.0391 -0.1671
  133MOL0     C17827   8.069  10.720   7.857 -0.3690  0.1199  0.3908
  133MOL0     O17828   8.063  10.802   7.970 -0.2962  0.1532  0.1846
  133MOL0     C17829   7.955  10.780   8.065  0.6030 -0.3247 -0.1262
  133MOL0     C17830   8.025  10.750   8.198  0.1300  0.3097 -0.1835
  133MOL0     C17831   7.921  10.709   8.297 -0.0616  0.1001  0.8082
  133MOL0     C17832   7.978  10.738   8.438 -0.5296  0.2596 -0.3397
  133MOL0     C17833   7.879  10.715   8.558 -0.4936  0.8312  0.1246
  133MOL0     C17834   7.759  10.815   8.561 -0.4716  0.0384 -0.3846
  133MOL0     C17835   7.665  10.786   8.679 -1.2049 -0.1966  0.0919
  133MOL0     C17836   7.529  10.845   8.669 -0.7102 -0.3592 -0.2492
  133MOL0     N17837   7.456  10.816   8.557  0.1464  0.8394  1.3061
  133MOL0     C17838   7.445  10.904   8.455 -0.1611 -0.4243  0.1725
  133MOL0     C17839   7.345  10.864   8.372 -0.5060  0.9878  0.0637
  133MOL0     C17840   7.317  10.920   8.231 -0.1876 -0.3004 -0.4726
  133MOL0     C17841   7.443  10.929   8.142  0.6365 -0.2511 -0.2571
  133MOL0     C17842   7.506  10.806   8.085  0.3653  0.4254 -0.8194
  133MOL0     C17843   7.517  10.693   8.193 -0.4729  0.6193 -0.3015
  133MOL0     O17844   7.617  10.605   8.139  0.4125  0.2746  0.9715
  133MOL0     C17845   7.664  10.497   8.202 -0.1023  0.1067  0.0653
  133MOL0     C17846   7.755  10.420   8.132  0.7081 -0.6898  0.2454
  133MOL0     C17847   7.829  10.321   8.199 -0.2348 -0.0368 -0.8342
  133MOL0     C17848   7.933  10.238   8.126  0.0962 -1.3860 -1.4419
  133MOL0     C17849   7.793  10.280   8.331  0.3059 -0.0477  0.3055
  133MOL0     C17850   7.857  10.166   8.400  1.2174 -1.2642  0.2626
  133MOL0     O17851   7.876  10.182   8.532 -0.3770  0.1955  0.0217
  133MOL0     C17852   7.928  10.076   8.595  0.3241  0.1457 -0.5478
  133MOL0     C17853   7.845   9.978   8.645  0.1050 -0.8297 -0.8483
  133MOL0     C17854   7.891   9.871   8.722  0.6692  0.8266  0.4542
  133MOL0     C17855   8.026   9.855   8.750 -0.1625  0.4744  0.4767
  133MOL0     O17856   8.062   9.744   8.820 -0.0557  0.1798  0.4606
  133MOL0     C17857   8.167   9.660   8.765 -0.1205 -0.6161 -0.0392
  133MOL0     C17858   8.240   9.571   8.871 -0.3078  0.1024 -0.2992
  133MOL0     C17859   8.356   9.654   8.935  0.5748 -0.4909 -0.0101
  133MOL0     C17860   8.419   9.570   9.051  0.0580 -0.4892 -1.4157
  133MOL0     C17861   8.561   9.630   9.080  0.9980  0.0556 -0.4455
  133MOL0     C17862   8.638   9.541   9.179  0.2410  0.0829 -0.4612
  133MOL0     C17863   8.773   9.595   9.217  0.2247  0.7405  0.0790
  133MOL0     C17864   8.881   9.619   9.109 -0.4383 -0.0187 -1.0324
  133MOL0    Cl17865   8.907   9.476   9.008  0.0482 -0.2188  0.4792
  133MOL0     C17866   8.117   9.953   8.702  0.7404  0.4845  0.2288
  133MOL0     C17867   8.070  10.060   8.619  0.8969  0.8918 -0.4099
  133MOL0     O17868   7.887  10.068   8.332  0.3814  0.2635  0.5022
  133MOL0     C17869   7.698  10.363   8.399  0.0688  0.1406 -0.0354
  133MOL0     C17870   7.625  10.462   8.335  0.1530 -0.9420 -0.4361
  133MOL0     N17871   7.282  10.761   8.439  0.3076 -0.0855 -0.6844
  133MOL0     N17872   7.345  10.735   8.554  0.7886  0.1675 -0.5768
  133MOL0     C17873   8.059  10.576   7.854  0.6815  0.5655 -0.3198
  133MOL0     C17874   8.093  10.507   7.731 -0.8617 -0.5914  0.4312
  133MOL0     C17875   8.163  10.501   7.260 -0.2839 -0.2562  0.1559
  133MOL0     C17876   8.294  10.448   7.272  0.0258  0.6602 -0.4085
  133MOL0     C17877   8.358  10.383   7.171 -0.3008 -0.0333 -0.2823
  133MOL0     C17878   8.318  10.390   7.039  1.0830 -1.1959 -0.4346
  133MOL0     O17879   8.368  10.331   6.928 -0.6320 -0.3513  0.0906
  133MOL0     C17880   8.501  10.344   6.900  0.4687 -0.6353  1.0591
  133MOL0     C17881   8.587  10.225   6.960 -1.2334 -0.0965  0.6447
  133MOL0     C17882   8.721  10.215   6.888  0.4050 -0.7653  0.2512
  133MOL0     C17883   8.822  10.337   6.897 -0.9167 -0.1355 -0.5942
  133MOL0     C17884   8.850  10.401   7.028  0.2042  1.5438 -0.1404
  133MOL0     C17885   8.871  10.441   7.140 -0.1834 -0.8587  0.1249
  133MOL0     C17886   8.190  10.461   7.025  1.0903  0.2357 -0.2096
  133MOL0     C17887   8.112  10.503   7.135 -0.4102 -0.3484  0.1667
  133MOL0     H17888   8.098  10.789   7.536  0.3534  1.2458  0.8572
  133MOL0     H17889   8.098  10.897   7.747  0.0174  0.1399  0.9394
  133MOL0     H17890   7.896  10.871   8.083  1.0525 -0.5302  2.8360
  133MOL0     H17891   7.898  10.691   8.038  1.6581 -0.6335 -1.3986
  133MOL0     H17892   8.087  10.660   8.185 -2.2280 -1.5661  0.8002
  133MOL0     H17893   8.083  10.834   8.236 -1.6021  2.1169 -1.3673
  133MOL0     H17894   7.824  10.756   8.281 -0.7156 -0.9674  1.4771
  133MOL0     H17895   7.896  10.604   8.277  0.3858 -0.0898  1.2070
  133MOL0     H17896   8.078  10.693   8.448  0.3729  2.2106 -0.1271
  133MOL0     H17897   7.992  10.846   8.447  1.0901  0.0398  0.1584
  133MOL0     H17898   7.846  10.611   8.571  1.3321  0.3543  1.6177
  133MOL0     H17899   7.937  10.734   8.650  1.6133  0.6215 -1.0865
  133MOL0     H17900   7.797  10.917   8.570  1.5367 -0.6048 -0.9549
  133MOL0     H17901   7.707  10.790   8.468  1.3845 -0.6533 -1.3071
  133MOL0     H17902   7.647  10.680   8.698  3.7522 -1.0910  1.1217
  133MOL0     H17903   7.722  10.824   8.764 -0.7825 -1.8697  0.5914
  133MOL0     H17904   7.543  10.952   8.687 -1.0612 -0.4366  0.5676
  133MOL0     H17905   7.469  10.809   8.754 -2.1196  0.3510 -0.9153
  133MOL0     H17906   7.501  10.987   8.413 -3.4247  1.5381 -0.7105
  133MOL0     H17907   7.238  10.856   8.190 -2.4995  2.3535 -0.4956
  133MOL0     H17908   7.263  11.015   8.237 -0.6406 -0.6049  0.8003
  133MOL0     H17909   7.521  10.984   8.196  4.2938 -0.7261 -4.5202
  133MOL0     H17910   7.414  10.994   8.058 -0.1825  3.9452  2.9152
  133MOL0     H17911   7.611  10.826   8.062  0.0986 -1.0934 -3.9005
  133MOL0     H17912   7.459  10.760   7.998 -1.5767  0.2217  0.2795
  133MOL0     H17913   7.421  10.642   8.202 -0.3267  0.4250  0.1924
  133MOL0     H17914   7.555  10.722   8.291 -1.2855  0.4281  0.0798
  133MOL0     H17915   7.770  10.440   8.027 -2.0503 -1.5665 -0.3900
  133MOL0     H17916   7.885  10.146   8.090 -0.5222 -1.4531 -0.4767
  133MOL0     H17917   7.981  10.299   8.049  0.7942  3.1708  2.2377
  133MOL0     H17918   8.022  10.227   8.188 -3.1112 -2.4339  3.5071
  133MOL0     H17919   7.737   9.987   8.631 -0.1534 -0.7142  0.9715
  133MOL0     H17920   7.827   9.788   8.748  2.7722 -0.6407  1.1766
  133MOL0     H17921   8.114   9.601   8.690 -0.5995  0.9092 -0.9512
  133MOL0     H17922   8.238   9.729   8.719 -2.2128 -0.4893 -3.4137
  133MOL0     H17923   8.175   9.540   8.953  1.6075 -2.1643  0.4468
  133MOL0     H17924   8.281   9.488   8.813 -0.2434 -0.9350  1.1872
  133MOL0     H17925   8.336   9.756   8.969  3.6554  0.9646 -2.2113
  133MOL0     H17926   8.429   9.663   8.855  0.7415  1.6640  0.3374
  133MOL0     H17927   8.355   9.567   9.140  2.5009 -4.7315  0.5275
  133MOL0     H17928   8.425   9.464   9.026 -2.0011 -2.3713  4.4275
  133MOL0     H17929   8.537   9.730   9.117  0.2093  1.3502 -4.0915
  133MOL0     H17930   8.612   9.643   8.984  0.2296 -2.2936 -1.2496
  133MOL0     H17931   8.571   9.554   9.264  0.5030  1.4261 -0.4490
  133MOL0     H17932   8.645   9.442   9.133 -0.1179  0.0817 -0.5161
  133MOL0     H17933   8.816   9.534   9.297 -1.7674 -2.2842 -0.9842
  133MOL0     H17934   8.755   9.696   9.257 -1.9435 -0.6286  2.8545
  133MOL0     H17935   8.974   9.665   9.142 -0.8012  0.6390 -0.8987
  133MOL0     H17936   8.845   9.705   9.051  0.0728  2.7339  2.3561
  133MOL0     H17937   8.223   9.951   8.725  0.6248  0.0703  0.7474
  133MOL0     H17938   8.156  10.114   8.581  0.4258  0.3729 -2.3044
  133MOL0     H17939   7.666  10.328   8.497 -3.1538 -1.3536 -1.4694
  133MOL0     H17940   7.552  10.511   8.398 -0.8977 -0.1160 -2.2130
  133MOL0     H17941   8.037  10.520   7.944 -2.3895  0.2149 -1.1567
  133MOL0     H17942   8.110  10.400   7.717 -1.6048 -0.7645  0.7853
  133MOL0     H17943   8.329  10.441   7.374 -2.2117 -0.3702  0.3539
  133MOL0     H17944   8.456  10.337   7.181 -2.1915 -5.3570 -2.5376
  133MOL0     H17945   8.508  10.356   6.792  1.0694  3.8437  1.4006
  133MOL0     H17946   8.532  10.445   6.930 -0.7060  0.1964 -0.3634
  133MOL0     H17947   8.534  10.131   6.942  0.7951 -1.4937  1.4812
  133MOL0     H17948   8.606  10.233   7.068 -0.9898  3.7052  0.4427
  133MOL0     H17949   8.699  10.187   6.785 -1.2522  1.2102 -0.0109
  133MOL0     H17950   8.768  10.129   6.937  1.2849  1.1268  2.9436
  133MOL0     H17951   8.791  10.411   6.823 -1.4382 -1.7731 -2.0930
  133MOL0     H17952   8.918  10.307   6.853  0.5844  1.4072  1.4584
  133MOL0     H17953   8.879  10.465   7.244 -3.4819  0.9272  0.1130
  133MOL0     H17954   8.147  10.502   6.934  0.5493  1.1323  0.4295
  133MOL0     H17955   8.016  10.553   7.125 -1.8560 -2.2308  3.1416
  134MOL0     O17956   2.573   5.664  11.417 -0.4176 -0.5867 -0.1191
  134MOL0     C17957   2.565   5.619  11.307 -0.9276  0.7244  0.3144
  134MOL0     O17958   2.455   5.595  11.234 -0.6457 -0.2669  0.0816
  134MOL0     C17959   2.330   5.613  11.297 -1.1231 -0.0559  0.6574
  134MOL0     C17960   2.242   5.508  11.298 -0.8077 -1.2266 -0.6133
  134MOL0     C17961   2.122   5.521  11.371  0.1178 -0.6751  0.0154
  134MOL0     C17962   2.093   5.641  11.439 -0.1052  0.4909  0.0824
  134MOL0     O17963   1.984   5.661  11.515 -0.1440 -0.8155  0.8091
  134MOL0     C17964   1.873   5.568  11.496  0.8699 -0.4612 -0.1440
  134MOL0     C17965   1.762   5.599  11.597  0.8820  0.2580 -0.3518
  134MOL0     C17966   1.667   5.708  11.553 -0.2836  0.1104  0.6244
  134MOL0     C17967   1.619   5.783  11.674  0.1232  0.6250  0.5400
  134MOL0     C17968   1.490   5.865  11.646  0.0540 -0.1630 -0.1992
  134MOL0     C17969   1.473   5.980  11.749  0.7860  0.6564  0.6714
  134MOL0     C17970   1.343   6.066  11.733 -0.5752  0.5886  0.0082
  134MOL0     C17971   1.342   6.194  11.819  1.0515  0.3752  0.1153
  134MOL0     N17972   1.212   6.263  11.819  0.2829 -0.9343 -0.4148
  134MOL0     C17973   1.092   6.198  11.860 -0.8794  0.5095  0.0112
  134MOL0     C17974   0.999   6.275  11.806  0.0132 -0.2374  0.1172
  134MOL0     C17975   0.854   6.243  11.824  0.2845 -0.1798  1.1751
  134MOL0     C17976   0.815   6.197  11.686  0.6400  0.2205 -0.7221
  134MOL0     C17977   0.662   6.188  11.676  0.9798 -0.5701  0.3292
  134MOL0     C17978   0.592   6.331  11.690  0.4818 -0.2983  0.1221
  134MOL0     O17979   0.647   6.427  11.588  0.4293  0.1557 -0.2664
  134MOL0     C17980   0.610   6.565  11.584 -0.9754  1.0647  1.0057
  134MOL0     C17981   0.687   6.658  11.512 -0.4667 -0.6264 -0.0454
  134MOL0     C17982   0.656   6.795  11.496 -0.1926 -0.2380 -1.0484
  134MOL0     C17983   0.746   6.880  11.401 -0.0327 -0.7208 -0.0700
  134MOL0     C17984   0.531   6.837  11.559  0.4731 -0.4595 -0.3523
  134MOL0     C17985   0.457   6.963  11.546 -0.0572 -0.2304 -0.5795
  134MOL0     O17986   0.325   6.969  11.522 -0.1410  0.4391 -0.3502
  134MOL0     C17987   0.251   7.084  11.533 -0.0292  0.4090  0.3378
  134MOL0     C17988   0.134   7.097  11.456 -0.5511 -1.1323 -0.4549
  134MOL0     C17989   0.066   7.221  11.444  0.3694  0.3701  0.2413
  134MOL0     C17990   0.106   7.330  11.523  0.0838  0.0158 -0.4200
  134MOL0     O17991   0.032   7.451  11.533  0.4629  0.1900  0.2021
  134MOL0     C17992  -0.052   7.447  11.650 -0.7127 -1.2319  0.7918
  134MOL0     C17993  -0.149   7.554  11.649  0.9104 -0.5853 -0.2576
  134MOL0     C17994  -0.094   7.689  11.705 -0.8636  0.1711  0.4534
  134MOL0     C17995  -0.041   7.697  11.845 -0.3683  0.2891 -0.6843
  134MOL0     C17996   0.010   7.838  11.871  0.4327 -0.3829  0.1781
  134MOL0     C17997   0.109   7.846  11.988 -0.0744 -0.4293  0.3900
  134MOL0     C17998   0.134   7.985  12.045 -0.3288  0.5009 -0.0683
  134MOL0     C17999   0.218   8.073  11.955 -0.2126 -0.6227  0.5155
  134MOL0    Cl18000   0.242   8.232  12.054  0.2842  0.6928 -0.3222
  134MOL0     C18001   0.217   7.307  11.608  0.5320 -0.2454  0.2683
  134MOL0     C18002   0.289   7.188  11.616 -0.1230  0.1276  0.3094
  134MOL0     O18003   0.529   7.062  11.558 -0.9693 -0.2416  0.8537
  134MOL0     C18004   0.456   6.742  11.638  0.1957  0.3772  0.0326
  134MOL0     C18005   0.496   6.607  11.647 -0.6730 -0.3602 -0.5453
  134MOL0     N18006   1.063   6.371  11.728  0.7455 -0.4444 -0.3973
  134MOL0     N18007   1.186   6.376  11.753  0.6017  0.0849 -0.2097
  134MOL0     C18008   2.179   5.750  11.430 -1.4363  0.7343  0.1938
  134MOL0     C18009   2.302   5.733  11.360 -0.5911  0.0420  0.0237
  134MOL0     C18010   2.695   5.604  11.241 -0.0478 -0.0952  0.5941
  134MOL0     C18011   2.813   5.640  11.293  0.0922 -0.5459 -0.4157
  134MOL0     C18012   2.932   5.591  11.246  0.6037 -0.5897 -0.3467
  134MOL0     C18013   2.940   5.520  11.132  0.4062  0.4256  0.4016
  134MOL0     O18014   3.066   5.493  11.083  0.0105 -0.5629  0.2104
  134MOL0     C18015   3.089   5.414  10.960  0.0155 -0.9135 -0.0802
  134MOL0     C18016   3.234   5.400  10.915  0.0482 -0.5559 -0.1176
  134MOL0     C18017   3.266   5.299  10.808 -0.1082  0.4374  0.8244
  134MOL0     C18018   3.344   5.332  10.684 -0.1361 -0.6346  0.2490
  134MOL0     C18019   3.266   5.433  10.608  0.2146  0.5368  0.6008
  134MOL0     C18020   3.219   5.513  10.538  0.2364 -0.1085  0.6023
  134MOL0     C18021   2.819   5.467  11.066 -0.1992 -0.6812  0.7358
  134MOL0     C18022   2.700   5.522  11.122 -0.7096 -0.2767 -0.3972
  134MOL0     H18023   2.282   5.418  11.253  2.2033  0.7750 -2.2938
  134MOL0     H18024   2.049   5.440  11.375 -2.3830  1.4526  0.8926
  134MOL0     H18025   1.836   5.579  11.394  1.1902  2.2333 -0.0443
  134MOL0     H18026   1.903   5.466  11.521  2.7188 -0.1569 -0.9131
  134MOL0     H18027   1.702   5.511  11.619  2.1107  0.1197  3.0292
  134MOL0     H18028   1.815   5.628  11.689  0.3608 -0.9658  0.3526
  134MOL0     H18029   1.725   5.778  11.492  0.6970  0.4820  1.9368
  134MOL0     H18030   1.590   5.658  11.493 -0.8263 -0.9367  2.1552
  134MOL0     H18031   1.591   5.721  11.760 -0.3287  1.6261  1.1381
  134MOL0     H18032   1.701   5.849  11.707 -1.4363  1.7969  2.2868
  134MOL0     H18033   1.500   5.914  11.548  1.0852 -1.5613 -0.8309
  134MOL0     H18034   1.411   5.791  11.641 -0.0937 -0.0139 -0.0710
  134MOL0     H18035   1.460   5.931  11.847 -0.3433  3.5875  2.1100
  134MOL0     H18036   1.564   6.038  11.732  0.4449  0.2058 -3.7364
  134MOL0     H18037   1.324   6.100  11.630  1.3690  3.5490  0.4946
  134MOL0     H18038   1.263   5.998  11.764 -0.1543 -0.0705 -0.3361
  134MOL0     H18039   1.414   6.265  11.777  0.2618  0.6686 -0.7722
  134MOL0     H18040   1.383   6.165  11.916 -0.2083 -0.0663  0.5383
  134MOL0     H18041   1.072   6.102  11.906 -0.1023 -0.8358 -2.2877
  134MOL0     H18042   0.842   6.148  11.878 -0.2672 -3.3981 -3.9301
  134MOL0     H18043   0.803   6.333  11.860  0.8270 -0.5045  2.8786
  134MOL0     H18044   0.852   6.099  11.654 -1.6457 -0.1108 -2.6368
  134MOL0     H18045   0.844   6.269  11.609  0.8994 -0.3677 -1.1815
  134MOL0     H18046   0.631   6.113  11.749  1.0416 -0.5739  0.3511
  134MOL0     H18047   0.638   6.144  11.578 -1.9535 -0.0963  0.7657
  134MOL0     H18048   0.608   6.380  11.786 -2.3159  3.1254 -0.9510
  134MOL0     H18049   0.485   6.318  11.671  0.5877  0.5548 -1.1802
  134MOL0     H18050   0.786   6.628  11.480 -0.2528  0.9476 -0.9129
  134MOL0     H18051   0.680   6.954  11.355  1.2813  0.9288  0.6176
  134MOL0     H18052   0.823   6.941  11.449 -1.4116 -0.1643  1.5425
  134MOL0     H18053   0.785   6.820  11.318 -2.1471 -2.9189  0.3960
  134MOL0     H18054   0.104   7.014  11.393 -1.5427 -0.4773 -0.8862
  134MOL0     H18055  -0.016   7.227  11.373  0.7624  1.5088 -0.1334
  134MOL0     H18056  -0.116   7.359  11.643 -2.3001 -0.2207  1.9373
  134MOL0     H18057   0.001   7.447  11.746  1.5506 -0.3968 -0.3704
  134MOL0     H18058  -0.196   7.567  11.551  2.3821  3.4996 -0.6203
  134MOL0     H18059  -0.227   7.518  11.716 -1.2322  0.7029 -1.9408
  134MOL0     H18060  -0.162   7.772  11.685 -1.1410 -0.3834 -1.0857
  134MOL0     H18061  -0.005   7.704  11.643 -0.1820 -0.0566  1.3634
  134MOL0     H18062  -0.119   7.671  11.917  0.8573 -2.0710 -0.1142
  134MOL0     H18063   0.037   7.622  11.860  1.7151  2.4516 -0.0031
  134MOL0     H18064  -0.077   7.903  11.883 -0.5419 -1.6826  0.4007
  134MOL0     H18065   0.075   7.874  11.791  2.0578 -0.4858  1.4040
  134MOL0     H18066   0.071   7.797  12.078  2.2634 -0.6950  1.3230
  134MOL0     H18067   0.205   7.801  11.963 -0.2247  0.1748 -1.4035
  134MOL0     H18068   0.187   7.977  12.140  0.9990 -2.1375 -0.9244
  134MOL0     H18069   0.036   8.027  12.070 -1.1924 -1.5236  0.1852
  134MOL0     H18070   0.180   8.094  11.855 -2.4339 -1.5073  1.1169
  134MOL0     H18071   0.315   8.027  11.936  0.0469 -0.1640  0.7145
  134MOL0     H18072   0.239   7.378  11.687 -0.2803 -1.7450  1.9204
  134MOL0     H18073   0.367   7.175  11.691  1.2590 -0.0558 -1.1056
  134MOL0     H18074   0.358   6.767  11.677  0.0902 -1.1849  0.8849
  134MOL0     H18075   0.438   6.528  11.694 -6.6145  3.1906 -0.9197
  134MOL0     H18076   2.159   5.847  11.474 -0.3379  1.8866 -1.7144
  134MOL0     H18077   2.385   5.802  11.369  0.1747 -0.8012 -0.5080
  134MOL0     H18078   2.817   5.701  11.383  3.4191  0.8581 -1.3682
  134MOL0     H18079   3.021   5.602  11.308 -1.3576  1.2311  2.3497
  134MOL0     H18080   3.042   5.316  10.972 -0.2282 -0.5991  1.8542
  134MOL0     H18081   3.037   5.472  10.883  1.3949 -1.0898 -1.1864
  134MOL0     H18082   3.288   5.377  11.008  0.8726 -0.5018 -0.5795
  134MOL0     H18083   3.269   5.501  10.892  4.6377 -1.9812 -0.3547
  134MOL0     H18084   3.171   5.260  10.769  1.3473 -0.4518 -2.0816
  134MOL0     H18085   3.327   5.214  10.841 -0.6836 -0.6733 -0.8299
  134MOL0     H18086   3.332   5.241  10.625 -0.2733  0.9849 -2.4044
  134MOL0     H18087   3.445   5.365  10.710 -0.3107  0.1946 -0.0994
  134MOL0     H18088   3.180   5.596  10.482 -0.4067 -0.1894  0.9171
  134MOL0     H18089   2.837   5.410  10.975  4.0812  0.8677  0.3782
  134MOL0     H18090   2.604   5.507  11.074 -2.7877 -0.2257  3.3955
  135MOL0     O18091   7.509   3.870  10.521 -0.3321  0.0058  0.1107
  135MOL0     C18092   7.488   3.893  10.405  0.6619  1.0340  0.9647
  135MOL0     O18093   7.582   3.920  10.311 -1.0820 -0.2790 -0.3705
  135MOL0     C18094   7.717   3.892  10.329 -0.1871 -0.6751  0.3986
  135MOL0     C18095   7.801   3.999  10.347 -0.0495  0.3630 -0.3890
  135MOL0     C18096   7.931   3.982  10.389  0.4286 -1.0897  0.3770
  135MOL0     C18097   7.986   3.850  10.386 -0.1265 -1.1967 -0.1287
  135MOL0     O18098   8.109   3.831  10.437 -0.2213 -0.3280  0.8625
  135MOL0     C18099   8.206   3.769  10.354 -0.4920 -0.1977 -0.3071
  135MOL0     C18100   8.339   3.773  10.429  0.1747 -0.2244 -0.3026
  135MOL0     C18101   8.434   3.870  10.365  0.4673 -0.1484  0.9074
  135MOL0     C18102   8.559   3.894  10.441 -0.4495 -0.2209  0.0889
  135MOL0     C18103   8.640   4.006  10.379 -0.1988 -0.3175 -0.3409
  135MOL0     C18104   8.782   3.975  10.427  0.9361 -0.3544 -0.2489
  135MOL0     C18105   8.874   4.097  10.415  0.6560  0.7086 -0.6799
  135MOL0     C18106   9.018   4.078  10.461 -0.6736  0.2667 -0.0367
  135MOL0     N18107   9.099   4.201  10.476 -0.2729 -0.2863 -0.0632
  135MOL0     C18108   9.135   4.271  10.591  0.2227 -0.0229 -0.2748
  135MOL0     C18109   9.201   4.390  10.552 -0.6882  0.2309 -1.3635
  135MOL0     C18110   9.259   4.499  10.632 -0.5317 -1.2059 -0.0628
  135MOL0     C18111   9.140   4.588  10.687 -0.3325  0.1986 -0.2096
  135MOL0     C18112   9.192   4.685  10.795  1.1131 -0.7535  1.0180
  135MOL0     C18113   9.097   4.804  10.825 -0.0880 -0.1669 -0.4612
  135MOL0     O18114   9.096   4.902  10.723  0.1781 -1.3151  0.1548
  135MOL0     C18115   9.037   5.027  10.739 -0.2208 -0.0855 -0.2016
  135MOL0     C18116   8.973   5.067  10.847 -0.5224 -0.1110 -0.4739
  135MOL0     C18117   8.910   5.193  10.869  0.7487  0.6137  0.3555
  135MOL0     C18118   8.854   5.213  11.007  0.5166  0.1675 -0.5942
  135MOL0     C18119   8.913   5.290  10.761  0.0294 -0.0612  0.0225
  135MOL0     C18120   8.852   5.427  10.768 -0.1346  0.2572  0.2025
  135MOL0     O18121   8.911   5.523  10.704  0.3372 -0.6598 -1.0279
  135MOL0     C18122   8.875   5.660  10.716  0.1535  0.2674 -0.2873
  135MOL0     C18123   8.777   5.711  10.802  0.1886 -0.6771  0.0596
  135MOL0     C18124   8.725   5.841  10.776  0.4477 -0.4605 -0.9821
  135MOL0     C18125   8.792   5.921  10.688  0.1941 -0.1400 -0.1080
  135MOL0     O18126   8.749   6.054  10.678 -1.0412  0.3420  0.5000
  135MOL0     C18127   8.820   6.144  10.581  0.9226  0.1868 -0.4803
  135MOL0     C18128   8.742   6.275  10.578  0.6310 -0.0451  0.3896
  135MOL0     C18129   8.740   6.339  10.445 -0.5375 -0.9452 -0.4857
  135MOL0     C18130   8.693   6.480  10.457  0.2311  0.3549 -0.2141
  135MOL0     C18131   8.709   6.548  10.323 -0.3788 -0.6084  0.0355
  135MOL0     C18132   8.671   6.700  10.332 -0.3273  1.5263  0.2483
  135MOL0     C18133   8.791   6.780  10.377  0.2023 -0.1685 -0.0049
  135MOL0     C18134   8.753   6.933  10.377  0.2948  0.4766  0.3928
  135MOL0    Cl18135   8.817   7.020  10.232  0.1075  0.4650  0.1733
  135MOL0     C18136   8.899   5.873  10.611  0.4808 -1.2055 -0.1269
  135MOL0     C18137   8.932   5.737  10.619 -0.0017  0.2571 -0.0289
  135MOL0     O18138   8.738   5.425  10.802  0.2312 -0.0028  0.6291
  135MOL0     C18139   8.969   5.240  10.634 -0.4415 -0.5721  0.9379
  135MOL0     C18140   9.031   5.113  10.629 -0.0606 -0.2048  0.8129
  135MOL0     N18141   9.215   4.387  10.419  0.5347 -0.9778 -1.0276
  135MOL0     N18142   9.142   4.290  10.377 -0.2304  0.2681 -0.1307
  135MOL0     C18143   7.906   3.735  10.349  0.4686 -1.1932 -1.0584
  135MOL0     C18144   7.770   3.760  10.318 -0.5570  0.4285  0.8699
  135MOL0     C18145   7.345   3.904  10.357 -0.3552  0.9641  0.3167
  135MOL0     C18146   7.233   3.894  10.448 -0.6599  0.2111  0.9335
  135MOL0     C18147   7.104   3.903  10.413 -0.3363  0.4673  0.0044
  135MOL0     C18148   7.075   3.911  10.278  0.3488  0.1334  0.0869
  135MOL0     O18149   6.944   3.897  10.228  0.3483  0.1743  0.5310
  135MOL0     C18150   6.836   3.891  10.325 -0.2866  0.1094  0.7838
  135MOL0     C18151   6.707   3.846  10.265 -0.3302  0.0683  1.2696
  135MOL0     C18152   6.620   3.765  10.363  0.2416 -0.5121  1.1498
  135MOL0     C18153   6.472   3.734  10.312  0.7448  0.2714 -0.4168
  135MOL0     C18154   6.409   3.640  10.411  0.2966  0.2953 -0.7895
  135MOL0     C18155   6.343   3.570  10.489  0.1817 -0.0147  0.4149
  135MOL0     C18156   7.184   3.922  10.190 -0.6623  0.9347  0.3811
  135MOL0     C18157   7.315   3.918  10.225 -0.2445  0.8538 -1.0169
  135MOL0     H18158   7.777   4.105  10.344  1.5489  0.8047  0.8755
  135MOL0     H18159   7.985   4.069  10.425  2.8092 -1.1510 -2.7179
  135MOL0     H18160   8.171   3.666  10.340  1.6355 -0.7907 -1.7624
  135MOL0     H18161   8.215   3.829  10.263 -3.9424  4.2069  1.8433
  135MOL0     H18162   8.329   3.804  10.533  3.5224  0.9230 -0.2133
  135MOL0     H18163   8.393   3.679  10.438  4.3579  2.0328  0.3669
  135MOL0     H18164   8.449   3.834  10.263  1.4108 -1.8648  1.6079
  135MOL0     H18165   8.382   3.966  10.356  1.2824  0.2099 -0.0609
  135MOL0     H18166   8.527   3.918  10.543  0.4507 -1.3758  0.6633
  135MOL0     H18167   8.625   3.809  10.458  0.2674  0.1755 -0.6407
  135MOL0     H18168   8.648   4.006  10.270  1.6908  4.5337 -0.4581
  135MOL0     H18169   8.608   4.105  10.414  0.2595 -0.0486 -0.6750
  135MOL0     H18170   8.777   3.947  10.532 -1.9676  0.7342 -0.0261
  135MOL0     H18171   8.836   3.893  10.377  4.2545 -0.4252  2.9835
  135MOL0     H18172   8.872   4.110  10.307 -2.0372 -1.4026 -0.9947
  135MOL0     H18173   8.826   4.181  10.467 -0.9158 -2.0896  2.8235
  135MOL0     H18174   9.074   4.009  10.398 -3.1076 -1.2675 -0.6082
  135MOL0     H18175   9.020   4.038  10.563 -1.3568 -4.1176 -1.5220
  135MOL0     H18176   9.118   4.237  10.693 -1.0091  1.2232 -0.0367
  135MOL0     H18177   9.312   4.451  10.715  0.2613 -2.9122 -1.4843
  135MOL0     H18178   9.335   4.547  10.570 -0.6377 -1.1102 -0.1178
  135MOL0     H18179   9.068   4.520  10.734 -0.5178  1.4707  1.4304
  135MOL0     H18180   9.100   4.648  10.604 -0.1208  0.3035 -0.2370
  135MOL0     H18181   9.288   4.729  10.764 -0.3729  1.0140 -1.4720
  135MOL0     H18182   9.198   4.623  10.885 -1.6886  0.1805  1.9360
  135MOL0     H18183   9.134   4.834  10.924  0.9208 -1.1818 -0.5099
  135MOL0     H18184   9.002   4.756  10.849 -0.4035  1.2478  1.3419
  135MOL0     H18185   8.967   5.000  10.932 -0.2566 -0.9145 -1.0700
  135MOL0     H18186   8.779   5.292  11.005 -0.4038 -0.6721  0.0991
  135MOL0     H18187   8.808   5.125  11.051 -1.2314  1.2410 -0.1878
  135MOL0     H18188   8.932   5.250  11.074  0.0132  1.3313 -0.6221
  135MOL0     H18189   8.742   5.647  10.883  1.9598 -5.0835 -2.2837
  135MOL0     H18190   8.630   5.873  10.818 -1.6570 -2.5569 -3.7808
  135MOL0     H18191   8.924   6.156  10.612 -0.2804  1.3087  3.8053
  135MOL0     H18192   8.816   6.091  10.486  0.0419  1.6081 -1.2575
  135MOL0     H18193   8.640   6.247  10.606  0.4216 -1.2890 -1.4288
  135MOL0     H18194   8.781   6.344  10.653  2.4408 -2.6158  1.9771
  135MOL0     H18195   8.668   6.294  10.377 -0.8255 -2.4946  0.7838
  135MOL0     H18196   8.842   6.337  10.405 -0.1755 -0.5948  0.3949
  135MOL0     H18197   8.589   6.470  10.490  0.7503 -1.7438  0.9388
  135MOL0     H18198   8.757   6.532  10.528  1.8438 -1.1079 -0.5310
  135MOL0     H18199   8.648   6.496  10.248  1.2649 -1.2799 -0.8832
  135MOL0     H18200   8.811   6.540  10.286  0.2092 -2.3767  1.8448
  135MOL0     H18201   8.642   6.729  10.231 -1.1209  2.1033  0.6262
  135MOL0     H18202   8.584   6.706  10.399 -1.1964 -3.7116  0.0029
  135MOL0     H18203   8.877   6.773  10.309  0.3182 -0.2867  0.1553
  135MOL0     H18204   8.815   6.749  10.479 -2.9996 -2.2955  0.2583
  135MOL0     H18205   8.806   6.982  10.459 -0.2863  1.8980 -0.0475
  135MOL0     H18206   8.647   6.949  10.398  0.4646  1.6301  0.4291
  135MOL0     H18207   8.958   5.938  10.548  0.7676 -1.6884 -0.3676
  135MOL0     H18208   9.003   5.682  10.558 -0.0713 -0.2054  0.2985
  135MOL0     H18209   8.968   5.307  10.549  2.8895 -0.1426  1.0770
  135MOL0     H18210   9.081   5.062  10.547 -0.5993 -2.5846  1.8700
  135MOL0     H18211   7.949   3.635  10.355 -0.2417 -1.4330  0.6132
  135MOL0     H18212   7.706   3.673  10.306 -0.6229  0.5683  0.1586
  135MOL0     H18213   7.256   3.892  10.554  2.8426  1.8944  0.3530
  135MOL0     H18214   7.033   3.901  10.495  0.7812  2.6771  1.1009
  135MOL0     H18215   6.866   3.805  10.386  0.8393 -0.1108 -0.0483
  135MOL0     H18216   6.825   3.980  10.387  1.6153  1.3692 -0.5858
  135MOL0     H18217   6.723   3.789  10.173 -0.4272  4.4737 -1.7796
  135MOL0     H18218   6.653   3.928  10.217  2.2489  0.2577 -1.6573
  135MOL0     H18219   6.631   3.821  10.456  0.4665  0.0297  0.8042
  135MOL0     H18220   6.665   3.669  10.387 -2.0218 -2.1554 -0.6732
  135MOL0     H18221   6.466   3.686  10.214 -3.2616  0.3331 -0.3595
  135MOL0     H18222   6.405   3.820  10.298 -1.8189 -1.8824 -2.3811
  135MOL0     H18223   6.313   3.511  10.573  1.6255  0.7670  1.5350
  135MOL0     H18224   7.157   3.930  10.086 -2.3124 -1.6161  0.5108
  135MOL0     H18225   7.400   3.917  10.157  1.4897  0.6566  1.0479
  136MOL0     O18226   0.979   5.304   5.416  0.7527  0.1836 -0.1434
  136MOL0     C18227   0.876   5.358   5.435  0.0538 -0.3300  0.4445
  136MOL0     O18228   0.786   5.310   5.523 -0.4415  0.4688  1.1100
  136MOL0     C18229   0.805   5.192   5.585  0.7421 -0.5572 -0.3404
  136MOL0     C18230   0.914   5.116   5.617  0.6199 -0.9033 -0.6300
  136MOL0     C18231   0.908   4.990   5.670 -0.8148  0.5803 -0.0450
  136MOL0     C18232   0.785   4.930   5.692  0.5036 -0.4985 -0.1336
  136MOL0     O18233   0.778   4.815   5.765  0.8489 -0.1189 -0.1673
  136MOL0     C18234   0.647   4.754   5.817  0.4195 -0.1514  0.7373
  136MOL0     C18235   0.699   4.675   5.938  0.0237 -0.3305 -0.2194
  136MOL0     C18236   0.763   4.545   5.897 -0.5478  0.9856  0.2894
  136MOL0     C18237   0.802   4.471   6.024  0.1870 -0.8180 -0.3475
  136MOL0     C18238   0.858   4.326   5.985 -0.6948  1.0691  0.1884
  136MOL0     C18239   0.936   4.261   6.099 -0.4633 -0.5835  0.4692
  136MOL0     C18240   0.987   4.123   6.061 -1.0629 -0.4060 -0.1266
  136MOL0     C18241   1.079   4.060   6.159  0.0936 -0.5650 -0.5951
  136MOL0     N18242   1.121   3.925   6.123  0.3111  0.4677 -0.4642
  136MOL0     C18243   1.115   3.816   6.201  0.8099 -0.6578 -0.2457
  136MOL0     C18244   1.193   3.733   6.144 -0.3465  0.5026 -0.3362
  136MOL0     C18245   1.229   3.591   6.195  0.2086  0.9807 -0.3044
  136MOL0     C18246   1.211   3.503   6.069 -0.2980 -0.8184  0.0203
  136MOL0     C18247   1.214   3.357   6.114  0.4021 -0.5868 -0.5159
  136MOL0     C18248   1.266   3.270   5.996 -0.1808  0.2986 -0.6144
  136MOL0     O18249   1.164   3.183   5.942 -0.1741 -0.1552 -0.1011
  136MOL0     C18250   1.143   3.058   5.999 -0.2036 -0.6505  0.5357
  136MOL0     C18251   1.190   3.001   6.117 -0.0463 -0.1902 -0.4716
  136MOL0     C18252   1.156   2.866   6.159  0.7944  0.5553  0.3941
  136MOL0     C18253   1.215   2.812   6.296  0.0356 -0.1903 -0.0120
  136MOL0     C18254   1.078   2.785   6.077  0.4243 -0.1236 -0.0058
  136MOL0     C18255   1.052   2.643   6.108 -0.2524  0.2621  0.2445
  136MOL0     O18256   1.049   2.557   6.002 -0.1134  0.7078 -0.2756
  136MOL0     C18257   1.030   2.413   6.003 -0.5353 -0.9184 -0.4412
  136MOL0     C18258   1.002   2.353   5.883  1.0138  0.5983  0.1448
  136MOL0     C18259   0.994   2.216   5.870 -0.5036  0.2377 -0.2751
  136MOL0     C18260   1.001   2.136   5.991 -0.0796  1.0882 -0.6888
  136MOL0     O18261   1.004   1.996   6.007 -0.4376  0.9261  0.6603
  136MOL0     C18262   0.919   1.926   5.921 -0.7642 -0.6095  0.4008
  136MOL0     C18263   0.773   1.917   5.976  0.4882 -0.1090 -0.3846
  136MOL0     C18264   0.764   1.829   6.097 -0.4183  0.6438 -0.7644
  136MOL0     C18265   0.626   1.807   6.154  0.3356  0.3869 -0.5445
  136MOL0     C18266   0.612   1.698   6.264  0.4535  0.0564 -0.2685
  136MOL0     C18267   0.629   1.556   6.217 -0.0558  0.4141  0.1752
  136MOL0     C18268   0.588   1.460   6.324 -0.0081 -0.6286  0.6298
  136MOL0     C18269   0.513   1.338   6.264  0.2381 -0.0065  0.1506
  136MOL0    Cl18270   0.454   1.231   6.396 -0.1780  0.2731  0.2196
  136MOL0     C18271   1.032   2.200   6.108 -0.2387  0.0980  0.7316
  136MOL0     C18272   1.051   2.340   6.118 -0.4994 -0.1268 -0.4435
  136MOL0     O18273   1.010   2.616   6.218 -0.0188 -0.7915 -0.5798
  136MOL0     C18274   1.035   2.850   5.959  1.2178 -0.4183 -0.4478
  136MOL0     C18275   1.063   2.981   5.923  1.1641  0.4814  0.5771
  136MOL0     N18276   1.239   3.783   6.021 -0.0164 -0.2345 -0.0155
  136MOL0     N18277   1.192   3.899   6.012 -0.1554 -0.5303  0.3609
  136MOL0     C18278   0.669   5.005   5.664  0.1119 -0.7741 -0.4328
  136MOL0     C18279   0.678   5.136   5.611  0.1038 -0.0228  0.3288
  136MOL0     C18280   0.836   5.466   5.350  0.1160  0.3589  1.1368
  136MOL0     C18281   0.706   5.540   5.363  0.3465 -0.0749  1.0721
  136MOL0     C18282   0.685   5.664   5.294 -0.0909  0.5212 -0.3968
  136MOL0     C18283   0.786   5.717   5.210 -1.3620  0.6035  0.5271
  136MOL0     O18284   0.747   5.831   5.138  0.0309 -0.3410 -0.3529
  136MOL0     C18285   0.837   5.872   5.040  0.5149  1.0910  0.3652
  136MOL0     C18286   0.795   6.000   4.963  0.7814 -0.2241  0.7750
  136MOL0     C18287   0.897   6.049   4.861 -0.0085 -0.1684 -1.3638
  136MOL0     C18288   0.865   6.192   4.799  0.1024 -0.4575 -0.7022
  136MOL0     C18289   0.748   6.196   4.711 -0.1499 -0.5779 -0.9240
  136MOL0     C18290   0.651   6.218   4.640  0.3247  0.2428 -0.3460
  136MOL0     C18291   0.898   5.633   5.179  0.4223  0.5923  0.4268
  136MOL0     C18292   0.927   5.514   5.253  0.1781  0.0058 -0.2904
  136MOL0     H18293   1.008   5.171   5.622  0.8973 -1.4337  0.4874
  136MOL0     H18294   0.997   4.935   5.698 -2.5637 -3.4839 -1.7517
  136MOL0     H18295   0.578   4.825   5.864 -6.1101 -3.1734 -2.9469
  136MOL0     H18296   0.592   4.695   5.744 -3.4995  3.0415  0.7993
  136MOL0     H18297   0.773   4.728   5.999  0.2860 -0.1927 -0.6576
  136MOL0     H18298   0.618   4.642   6.004 -1.0448  1.4031 -0.6139
  136MOL0     H18299   0.692   4.484   5.840  1.1420 -0.9338  0.1472
  136MOL0     H18300   0.853   4.557   5.837 -0.0661 -2.5458  0.0987
  136MOL0     H18301   0.885   4.516   6.079 -1.2239  1.3637  0.1243
  136MOL0     H18302   0.720   4.469   6.096 -1.5377  0.4069 -2.1846
  136MOL0     H18303   0.771   4.263   5.965  0.7079 -0.4763 -1.3261
  136MOL0     H18304   0.916   4.336   5.893  1.9840  0.9145  1.7230
  136MOL0     H18305   1.022   4.326   6.117 -0.4459 -0.9024  1.6022
  136MOL0     H18306   0.872   4.258   6.187  1.4043 -2.2216  1.8683
  136MOL0     H18307   0.891   4.070   6.054 -0.6555 -1.5731  2.1264
  136MOL0     H18308   1.031   4.118   5.961  4.1430 -1.1307  1.8867
  136MOL0     H18309   1.029   4.057   6.256  1.8047 -2.8056  0.3025
  136MOL0     H18310   1.163   4.126   6.182 -1.4049  0.5312  2.2203
  136MOL0     H18311   1.082   3.797   6.303  1.7633  1.2759  0.4716
  136MOL0     H18312   1.333   3.593   6.227  0.0692 -1.1213  0.4056
  136MOL0     H18313   1.158   3.563   6.273  1.3533  3.2594  1.6831
  136MOL0     H18314   1.284   3.533   5.993 -2.8670  0.8193 -2.0060
  136MOL0     H18315   1.120   3.542   6.022  2.4199  6.9869 -0.2579
  136MOL0     H18316   1.111   3.343   6.146 -0.6793  2.4383 -2.2787
  136MOL0     H18317   1.282   3.335   6.197  0.3674  0.6239 -0.1463
  136MOL0     H18318   1.353   3.207   6.019  0.6980  1.9884  0.8806
  136MOL0     H18319   1.305   3.340   5.921 -2.6874  4.7569  1.8352
  136MOL0     H18320   1.243   3.067   6.185 -1.5551  1.3324 -0.7106
  136MOL0     H18321   1.257   2.712   6.285  0.4152 -0.3750  2.6353
  136MOL0     H18322   1.285   2.887   6.333 -3.2319  3.5803 -0.7319
  136MOL0     H18323   1.126   2.814   6.360 -2.5495  2.1410 -3.2998
  136MOL0     H18324   0.991   2.400   5.786 -0.5652 -1.0796 -0.5538
  136MOL0     H18325   0.984   2.171   5.771 -0.7318  1.4561 -0.8225
  136MOL0     H18326   0.909   1.973   5.823  1.7347 -0.9444 -0.0847
  136MOL0     H18327   0.946   1.820   5.923 -0.8100 -0.7363 -2.1082
  136MOL0     H18328   0.744   2.017   6.011 -0.3458  0.8735 -3.5261
  136MOL0     H18329   0.700   1.894   5.898 -0.8737  1.3300  0.4105
  136MOL0     H18330   0.824   1.874   6.177 -3.3159 -1.0036  2.5701
  136MOL0     H18331   0.804   1.729   6.077  0.0006  0.8891 -1.1928
  136MOL0     H18332   0.589   1.899   6.200 -0.9015  0.7362 -2.1645
  136MOL0     H18333   0.559   1.787   6.070 -0.1048 -0.7482  0.0451
  136MOL0     H18334   0.509   1.699   6.301  0.7620  1.3188  0.6468
  136MOL0     H18335   0.679   1.710   6.350 -0.5672  2.0294  0.2981
  136MOL0     H18336   0.577   1.536   6.123  1.1603  0.3654 -0.5154
  136MOL0     H18337   0.737   1.539   6.209  0.4304  3.4254 -0.6124
  136MOL0     H18338   0.517   1.501   6.397  0.4939 -1.4063  1.5714
  136MOL0     H18339   0.669   1.424   6.389 -1.0328  0.2823  2.4833
  136MOL0     H18340   0.572   1.262   6.212  1.0225 -1.0994  2.5224
  136MOL0     H18341   0.431   1.369   6.199  0.8425 -0.6726 -0.9612
  136MOL0     H18342   1.023   2.135   6.194 -0.7173 -2.0115 -0.8612
  136MOL0     H18343   1.056   2.382   6.217 -1.7788 -0.9263 -0.0039
  136MOL0     H18344   0.964   2.789   5.905 -0.3329  2.2021 -1.5369
  136MOL0     H18345   1.023   3.026   5.832  2.6188  2.3438  0.8004
  136MOL0     H18346   0.571   4.965   5.686  0.3935 -1.3358 -0.1802
  136MOL0     H18347   0.586   5.187   5.586 -1.1488 -2.0587  0.4844
  136MOL0     H18348   0.634   5.502   5.434 -1.1469 -1.0250 -0.8536
  136MOL0     H18349   0.591   5.716   5.314 -0.5112  0.3060 -1.7411
  136MOL0     H18350   0.934   5.884   5.090 -0.1890  0.9457  1.7972
  136MOL0     H18351   0.842   5.796   4.962 -3.8587 -0.6842  1.5560
  136MOL0     H18352   0.781   6.078   5.038  4.3574  1.0576  0.2993
  136MOL0     H18353   0.705   5.982   4.903  0.0452  2.2332  1.0409
  136MOL0     H18354   0.877   5.975   4.783 -0.3265 -1.2673 -0.2760
  136MOL0     H18355   0.996   6.050   4.906 -1.4855 -0.9118  2.2902
  136MOL0     H18356   0.951   6.239   4.750  1.2399  0.8618  2.2791
  136MOL0     H18357   0.858   6.251   4.891 -1.4866 -0.3261 -0.8800
  136MOL0     H18358   0.570   6.246   4.575  0.4415  0.0454 -0.5785
  136MOL0     H18359   0.970   5.661   5.102 -0.5160  0.3753 -0.5527
  136MOL0     H18360   1.023   5.465   5.239  0.6461  0.2088  1.8622
  137MOL0     O18361   5.790   1.496   8.447  0.1488 -0.3783 -0.0515
  137MOL0     C18362   5.763   1.549   8.551 -0.5651  0.8172  0.8631
  137MOL0     O18363   5.806   1.676   8.582  0.7155  0.5511 -0.5988
  137MOL0     C18364   5.868   1.768   8.498  0.3361  0.2793  0.2696
  137MOL0     C18365   5.917   1.740   8.368 -0.0035 -0.1204  0.7141
  137MOL0     C18366   5.999   1.827   8.301 -0.6092 -1.1018 -0.6449
  137MOL0     C18367   6.023   1.957   8.364  0.4136 -0.6827  0.3973
  137MOL0     O18368   6.106   2.046   8.303 -0.7260  0.1086  0.5744
  137MOL0     C18369   6.150   2.160   8.380  1.0702  0.3992 -1.0957
  137MOL0     C18370   6.265   2.241   8.322  0.3162 -0.1413  0.4129
  137MOL0     C18371   6.222   2.292   8.178  0.4281  0.9030 -0.7173
  137MOL0     C18372   6.345   2.354   8.110 -1.4368  0.0412  0.3997
  137MOL0     C18373   6.328   2.409   7.972 -0.1258 -0.1710  0.2707
  137MOL0     C18374   6.433   2.528   7.945 -0.1907  0.3518  0.5991
  137MOL0     C18375   6.439   2.586   7.802  0.0592 -0.1241  0.3908
  137MOL0     C18376   6.492   2.479   7.714  0.1383 -0.1668 -0.3903
  137MOL0     N18377   6.493   2.511   7.575 -0.3564  1.0653  0.7654
  137MOL0     C18378   6.575   2.612   7.525 -0.1250 -0.3465 -0.1286
  137MOL0     C18379   6.582   2.594   7.394 -0.0753 -0.3338 -0.6038
  137MOL0     C18380   6.665   2.676   7.299  0.1936 -0.7738  0.3975
  137MOL0     C18381   6.586   2.809   7.269  0.2223 -0.4635 -0.5272
  137MOL0     C18382   6.603   2.857   7.124  0.7709 -1.9416  0.3386
  137MOL0     C18383   6.746   2.881   7.069  1.1194  0.0307  1.5396
  137MOL0     O18384   6.736   2.973   6.957  0.2896 -0.7301  0.5929
  137MOL0     C18385   6.742   3.113   6.982 -0.1017 -0.6574  0.8171
  137MOL0     C18386   6.754   3.194   6.871 -0.6929  0.6760 -0.3414
  137MOL0     C18387   6.767   3.335   6.883  0.0683 -0.9047 -0.7621
  137MOL0     C18388   6.771   3.429   6.755  0.3605 -0.5915  0.8265
  137MOL0     C18389   6.772   3.389   7.014 -0.2304  0.6371 -0.3268
  137MOL0     C18390   6.807   3.531   7.041 -0.4677 -0.0122 -0.8078
  137MOL0     O18391   6.868   3.554   7.165  0.2999 -0.4461  0.0131
  137MOL0     C18392   6.925   3.682   7.176  0.2180 -0.8459  0.0227
  137MOL0     C18393   7.065   3.701   7.145 -0.6325 -0.2110  0.6140
  137MOL0     C18394   7.120   3.824   7.163 -0.3571 -0.2564  0.6403
  137MOL0     C18395   7.050   3.931   7.222  0.5906 -0.2025  0.2282
  137MOL0     O18396   7.103   4.056   7.246 -0.3367 -0.4361 -0.2779
  137MOL0     C18397   7.242   4.046   7.293  0.4080  0.0440  0.8583
  137MOL0     C18398   7.326   4.124   7.194 -0.8861 -0.2313  0.3836
  137MOL0     C18399   7.481   4.091   7.188  0.3545 -0.9260  0.3250
  137MOL0     C18400   7.577   4.198   7.252 -0.2325  0.4932  0.6819
  137MOL0     C18401   7.710   4.190   7.180 -0.1999 -0.9892  0.1384
  137MOL0     C18402   7.825   4.269   7.260 -0.1576 -0.6570 -0.8284
  137MOL0     C18403   7.955   4.295   7.181  0.6938 -0.3748  0.6624
  137MOL0     C18404   8.071   4.349   7.261 -0.5150  0.0029  0.5185
  137MOL0    Cl18405   8.176   4.221   7.312 -0.0307 -0.0374 -0.1310
  137MOL0     C18406   6.915   3.906   7.258  0.3861  0.6152  0.6144
  137MOL0     C18407   6.857   3.784   7.228 -0.6064  0.6876  0.7392
  137MOL0     O18408   6.780   3.617   6.960  0.5137 -1.1247  0.1337
  137MOL0     C18409   6.777   3.306   7.126 -0.8078 -0.4021  0.2575
  137MOL0     C18410   6.754   3.168   7.103 -0.4019 -0.5432  0.0029
  137MOL0     N18411   6.486   2.502   7.363 -1.1169 -0.3884  0.7202
  137MOL0     N18412   6.439   2.446   7.470  0.2624  0.4369 -0.0926
  137MOL0     C18413   5.970   1.985   8.493  1.1012 -1.1537  0.2630
  137MOL0     C18414   5.902   1.888   8.560  0.9291 -0.2321 -0.0801
  137MOL0     C18415   5.700   1.465   8.658  0.5961 -0.4973 -0.3326
  137MOL0     C18416   5.673   1.332   8.626 -0.6922 -0.5623  0.7611
  137MOL0     C18417   5.596   1.259   8.709  0.2582  1.0040  0.7420
  137MOL0     C18418   5.569   1.302   8.835  0.4536  0.1161 -0.8029
  137MOL0     O18419   5.505   1.224   8.934  0.4523 -0.9689  0.5379
  137MOL0     C18420   5.528   1.081   8.942  0.7385 -0.3154 -0.7139
  137MOL0     C18421   5.662   1.021   8.949 -0.0307 -0.3193  1.1498
  137MOL0     C18422   5.726   1.059   9.074  0.2092  0.8718  0.4925
  137MOL0     C18423   5.880   1.060   9.082 -0.1342  0.2111  0.3480
  137MOL0     C18424   5.926   1.166   8.992 -0.3941 -0.0159 -0.5309
  137MOL0     C18425   5.973   1.266   8.937 -0.9906 -0.1415  0.8517
  137MOL0     C18426   5.588   1.432   8.869 -0.0899 -0.4738  0.0529
  137MOL0     C18427   5.658   1.518   8.783  0.3538  0.1016  0.2386
  137MOL0     H18428   5.906   1.644   8.319  2.9149  0.5304 -1.4765
  137MOL0     H18429   6.042   1.802   8.204  1.1472  0.6686 -0.3862
  137MOL0     H18430   6.064   2.227   8.391  2.5864  2.2061  0.3900
  137MOL0     H18431   6.175   2.121   8.479  0.9893  0.6681 -0.9683
  137MOL0     H18432   6.284   2.332   8.380  0.6444  3.1252 -4.2665
  137MOL0     H18433   6.364   2.195   8.312 -0.3662 -1.2425 -1.8609
  137MOL0     H18434   6.203   2.209   8.109 -1.1323  0.3700  0.3037
  137MOL0     H18435   6.146   2.369   8.190 -0.7242 -0.6322  6.7967
  137MOL0     H18436   6.370   2.435   8.178 -2.2419  0.4170  0.2576
  137MOL0     H18437   6.421   2.276   8.097  2.8964  3.9890 -0.4395
  137MOL0     H18438   6.335   2.325   7.902 -1.4916 -1.8732  2.0378
  137MOL0     H18439   6.234   2.458   7.946  1.4646  2.4137 -0.9312
  137MOL0     H18440   6.400   2.604   8.016  0.4020  1.6215 -0.4275
  137MOL0     H18441   6.522   2.482   7.988  0.3880  1.9118  1.1564
  137MOL0     H18442   6.334   2.609   7.781 -0.6772 -2.1267  1.6035
  137MOL0     H18443   6.513   2.667   7.799  2.9131 -2.4785  1.8753
  137MOL0     H18444   6.436   2.386   7.720 -0.4250  0.1536 -0.5245
  137MOL0     H18445   6.589   2.451   7.754  0.4651 -1.4710 -1.9844
  137MOL0     H18446   6.634   2.695   7.563 -0.5017 -0.8187  1.5782
  137MOL0     H18447   6.759   2.708   7.345  0.9463 -0.0425 -1.5557
  137MOL0     H18448   6.677   2.615   7.209 -1.7227  0.3342 -0.6955
  137MOL0     H18449   6.615   2.876   7.351 -0.5580 -0.4980 -0.2121
  137MOL0     H18450   6.480   2.791   7.291  0.3167  1.1488  1.4929
  137MOL0     H18451   6.534   2.939   7.099  1.3506 -1.2865  0.8647
  137MOL0     H18452   6.575   2.774   7.058  3.9961 -2.8347 -0.0637
  137MOL0     H18453   6.793   2.791   7.031  2.2742  2.4020 -3.5616
  137MOL0     H18454   6.813   2.924   7.144  1.9697  0.7256  0.4113
  137MOL0     H18455   6.753   3.148   6.773  1.6921 -0.4128  0.0806
  137MOL0     H18456   6.699   3.507   6.731  0.2553 -0.6142  1.0636
  137MOL0     H18457   6.869   3.478   6.763 -0.3739  0.9449  0.8824
  137MOL0     H18458   6.767   3.361   6.670 -2.3826 -2.0299  1.9991
  137MOL0     H18459   7.128   3.633   7.089 -2.1344  0.3351 -1.9333
  137MOL0     H18460   7.224   3.834   7.135 -0.3286 -1.2603  0.3498
  137MOL0     H18461   7.249   4.097   7.389 -2.8799  0.4660  1.0028
  137MOL0     H18462   7.289   3.950   7.315  1.0626  0.2425  0.3512
  137MOL0     H18463   7.292   4.110   7.091  2.9718 -0.1807 -1.0584
  137MOL0     H18464   7.318   4.230   7.218 -1.1266 -0.8955  3.7639
  137MOL0     H18465   7.506   4.085   7.082 -2.2664 -1.2405 -0.3613
  137MOL0     H18466   7.504   3.991   7.226 -3.3740 -1.5786  1.3110
  137MOL0     H18467   7.532   4.297   7.237  1.3545  1.3109  1.0507
  137MOL0     H18468   7.590   4.184   7.359  1.9925 -1.5473  0.2250
  137MOL0     H18469   7.696   4.233   7.080 -0.7370 -1.7494 -0.1206
  137MOL0     H18470   7.737   4.086   7.164  2.9421 -0.0495 -1.5800
  137MOL0     H18471   7.793   4.365   7.301 -0.0462 -1.6819  1.9097
  137MOL0     H18472   7.848   4.202   7.344 -3.9023 -1.3712 -0.1829
  137MOL0     H18473   7.924   4.367   7.105  0.5741 -1.9829 -0.9055
  137MOL0     H18474   7.993   4.205   7.130 -2.4204 -2.4516  1.6948
  137MOL0     H18475   8.038   4.413   7.343  1.3645  0.9612  0.5741
  137MOL0     H18476   8.127   4.419   7.198  2.9668 -1.2493  1.9994
  137MOL0     H18477   6.857   3.990   7.294  0.0811  0.5350  0.3264
  137MOL0     H18478   6.756   3.793   7.267  0.2651  3.5871  2.6175
  137MOL0     H18479   6.789   3.342   7.228  2.3362  2.8949 -1.0813
  137MOL0     H18480   6.760   3.102   7.189  2.2904 -0.1196  0.2351
  137MOL0     H18481   5.990   2.083   8.537  1.7970 -0.9348 -0.5087
  137MOL0     H18482   5.864   1.913   8.659 -1.9458  1.1858 -1.4080
  137MOL0     H18483   5.696   1.287   8.530  0.7619 -1.0765  1.3315
  137MOL0     H18484   5.564   1.163   8.672  0.3667  1.8579 -1.7126
  137MOL0     H18485   5.475   1.045   9.031 -0.0365  0.6728 -0.7544
  137MOL0     H18486   5.475   1.035   8.858  3.7073 -4.6600 -0.5264
  137MOL0     H18487   5.711   1.064   8.861 -1.6110 -5.1673 -2.5555
  137MOL0     H18488   5.663   0.912   8.937 -0.8154 -0.7779  4.3562
  137MOL0     H18489   5.692   0.983   9.144 -1.8489  0.4447 -0.8824
  137MOL0     H18490   5.704   1.165   9.093  2.3495  2.4428 -4.0968
  137MOL0     H18491   5.914   0.960   9.055  2.6586  0.7894  1.3949
  137MOL0     H18492   5.915   1.086   9.183  1.8286  1.1288 -0.5211
  137MOL0     H18493   6.026   1.344   8.886 -0.6697 -1.1936 -0.4988
  137MOL0     H18494   5.529   1.470   8.952 -2.0041  1.0765 -1.8945
  137MOL0     H18495   5.666   1.623   8.809  0.3222  0.5803 -1.5282
  138MOL0     O18496   0.275   4.779   9.355  0.9737  0.2846  0.0659
  138MOL0     C18497   0.368   4.849   9.385 -0.8279  0.2616 -0.7363
  138MOL0     O18498   0.372   4.984   9.368  0.1938  0.1062  0.1657
  138MOL0     C18499   0.259   5.041   9.303  0.2311 -0.1007  0.2117
  138MOL0     C18500   0.125   5.028   9.343  0.2649  0.9484  0.2929
  138MOL0     C18501   0.024   5.100   9.280  0.1493 -0.4527 -0.0845
  138MOL0     C18502   0.053   5.179   9.164 -0.6100 -0.6132 -0.4280
  138MOL0     O18503  -0.049   5.238   9.100 -0.7051 -0.5496 -0.3242
  138MOL0     C18504  -0.117   5.148   9.015  0.7055  0.2358  1.7904
  138MOL0     C18505  -0.209   5.222   8.929  0.7360  0.2364  0.2387
  138MOL0     C18506  -0.346   5.254   8.994  0.0241  0.4906 -0.8693
  138MOL0     C18507  -0.340   5.345   9.117 -0.4500  0.5964  0.8907
  138MOL0     C18508  -0.468   5.410   9.161 -0.9906  0.2490  0.4897
  138MOL0     C18509  -0.565   5.308   9.223  0.8650 -0.6792 -0.7925
  138MOL0     C18510  -0.682   5.368   9.298 -0.9646 -0.0529 -0.2025
  138MOL0     C18511  -0.756   5.253   9.371  0.7629 -0.1042  0.4517
  138MOL0     N18512  -0.859   5.309   9.448 -0.5000 -0.6739  0.1875
  138MOL0     C18513  -0.838   5.408   9.545  0.0785  0.5503  0.0464
  138MOL0     C18514  -0.967   5.426   9.601 -0.7621 -0.1756  0.5121
  138MOL0     C18515  -1.007   5.531   9.707  0.4337 -0.7963  0.8130
  138MOL0     C18516  -1.019   5.675   9.662  0.4138  0.7579  1.3312
  138MOL0     C18517  -1.106   5.710   9.547  0.7172 -0.0264  0.4522
  138MOL0     C18518  -1.082   5.841   9.482 -0.0908  0.6678 -0.8849
  138MOL0     O18519  -1.143   5.848   9.355 -0.3939  0.0833  0.1927
  138MOL0     C18520  -1.240   5.943   9.339  0.1789  1.1388 -0.2321
  138MOL0     C18521  -1.368   5.918   9.380  0.7997  1.0437 -0.8599
  138MOL0     C18522  -1.480   6.001   9.362 -1.0992 -0.8244 -1.3839
  138MOL0     C18523  -1.620   5.966   9.429 -0.0434  0.6351 -0.6872
  138MOL0     C18524  -1.462   6.120   9.285 -0.8189 -0.4869 -0.5887
  138MOL0     C18525  -1.569   6.215   9.246  0.3768 -0.2083 -0.7584
  138MOL0     O18526  -1.522   6.343   9.221 -0.3088 -0.7264 -0.7086
  138MOL0     C18527  -1.602   6.439   9.158 -0.2019  1.0696  0.6514
  138MOL0     C18528  -1.659   6.433   9.031 -0.7042 -0.2738  0.3965
  138MOL0     C18529  -1.741   6.532   8.983 -0.3159 -0.2799 -0.0133
  138MOL0     C18530  -1.772   6.644   9.059 -0.4587  0.0055 -0.1304
  138MOL0     O18531  -1.863   6.730   9.006  0.3215 -1.3674 -0.3768
  138MOL0     C18532  -1.914   6.838   9.085 -0.8118  0.2183 -0.0507
  138MOL0     C18533  -2.006   6.792   9.204  0.0710 -0.2213 -0.4480
  138MOL0     C18534  -2.150   6.774   9.163  0.7145  0.1572  0.2307
  138MOL0     C18535  -2.226   6.903   9.122  0.9451 -0.8053  0.4997
  138MOL0     C18536  -2.260   6.994   9.237  0.3710 -0.4103 -0.4497
  138MOL0     C18537  -2.366   7.099   9.215 -0.4375  0.0310 -0.6604
  138MOL0     C18538  -2.377   7.178   9.346  0.2406 -0.0277  0.4515
  138MOL0     C18539  -2.509   7.258   9.357  0.4450 -0.8529  0.1032
  138MOL0    Cl18540  -2.502   7.390   9.228 -0.2512 -0.2057 -0.0620
  138MOL0     C18541  -1.709   6.658   9.182  0.1113 -0.5395  0.2823
  138MOL0     C18542  -1.626   6.560   9.234 -0.0583  0.7991  0.0429
  138MOL0     O18543  -1.686   6.175   9.225  0.4086 -0.0947  0.9948
  138MOL0     C18544  -1.328   6.144   9.246  0.4085 -0.4333  0.7004
  138MOL0     C18545  -1.213   6.059   9.274  0.2247  0.7720  0.1593
  138MOL0     N18546  -1.059   5.342   9.532  0.1674 -0.5107 -0.5297
  138MOL0     N18547  -0.990   5.287   9.434 -0.4099 -0.2068  1.3483
  138MOL0     C18548   0.183   5.168   9.107 -0.3583  0.1677  0.2342
  138MOL0     C18549   0.279   5.106   9.174 -0.1228 -0.2535  0.2709
  138MOL0     C18550   0.489   4.778   9.447 -0.1744 -0.7080 -0.6102
  138MOL0     C18551   0.605   4.851   9.476  0.0024 -0.2388 -0.1935
  138MOL0     C18552   0.703   4.784   9.551 -0.2758 -0.3217  0.8511
  138MOL0     C18553   0.709   4.650   9.592  0.2163  0.3520  1.1508
  138MOL0     O18554   0.797   4.583   9.668  0.7297  0.3580 -0.1526
  138MOL0     C18555   0.924   4.640   9.710  0.4437 -0.0022  0.3439
  138MOL0     C18556   1.053   4.544   9.713 -0.1192  0.2746 -0.6047
  138MOL0     C18557   1.119   4.526   9.573  0.8560 -0.2239  0.0615
  138MOL0     C18558   1.021   4.462   9.476 -0.2352 -0.2587 -0.0085
  138MOL0     C18559   0.954   4.338   9.515  1.1919  0.0533  0.9470
  138MOL0     C18560   0.884   4.244   9.547  0.1321  0.2776 -0.0160
  138MOL0     C18561   0.600   4.576   9.534 -0.3212  0.0487  0.3095
  138MOL0     C18562   0.493   4.641   9.476 -0.4193 -0.4413  0.1429
  138MOL0     H18563   0.100   4.975   9.434  0.5858 -1.4115 -0.9122
  138MOL0     H18564  -0.077   5.102   9.319 -0.3333 -0.6247 -1.2900
  138MOL0     H18565  -0.042   5.099   8.952  1.7110  2.3210  1.3030
  138MOL0     H18566  -0.168   5.074   9.077  0.5728  2.5851  4.6590
  138MOL0     H18567  -0.160   5.304   8.876  0.2718  0.3348 -0.0542
  138MOL0     H18568  -0.245   5.166   8.842  1.8751 -0.1681  0.0153
  138MOL0     H18569  -0.420   5.289   8.922 -1.5463 -2.7181 -1.0086
  138MOL0     H18570  -0.375   5.151   9.019  2.2743 -0.7812 -2.9898
  138MOL0     H18571  -0.296   5.291   9.201 -1.0945 -2.6276 -0.6674
  138MOL0     H18572  -0.259   5.411   9.086  2.0792 -2.7293 -0.1342
  138MOL0     H18573  -0.450   5.475   9.247 -0.8108 -1.5883  1.9221
  138MOL0     H18574  -0.508   5.468   9.077 -2.4064  1.4882  1.9356
  138MOL0     H18575  -0.604   5.251   9.138  0.0623  1.7873 -2.1592
  138MOL0     H18576  -0.515   5.247   9.299 -3.4128 -2.2244  1.1098
  138MOL0     H18577  -0.630   5.428   9.374 -3.0688 -3.2987  4.3218
  138MOL0     H18578  -0.730   5.412   9.211  2.3342  1.1000 -1.5850
  138MOL0     H18579  -0.690   5.192   9.433  4.1948  1.1286 -1.6743
  138MOL0     H18580  -0.806   5.186   9.300 -0.3565 -1.5919  2.5210
  138MOL0     H18581  -0.746   5.447   9.586  1.5634 -0.6691 -1.9826
  138MOL0     H18582  -1.102   5.508   9.756 -1.0532  2.5289 -0.2770
  138MOL0     H18583  -0.925   5.533   9.780 -0.4446 -0.4608  1.8046
  138MOL0     H18584  -0.920   5.704   9.628  0.7167 -1.1393  0.4430
  138MOL0     H18585  -1.060   5.734   9.744 -2.1887  0.9186  0.0110
  138MOL0     H18586  -1.213   5.686   9.560  1.0085 -2.0908 -0.4535
  138MOL0     H18587  -1.082   5.642   9.464 -1.4677  0.8423 -0.9955
  138MOL0     H18588  -0.976   5.863   9.467 -0.5488  1.9894 -2.4667
  138MOL0     H18589  -1.134   5.917   9.542 -1.0635  1.1293 -2.2519
  138MOL0     H18590  -1.390   5.820   9.423  0.6967  2.5663  3.0218
  138MOL0     H18591  -1.680   5.911   9.355 -0.6311  0.4081 -0.0496
  138MOL0     H18592  -1.596   5.913   9.521 -2.2574 -2.3982 -1.7156
  138MOL0     H18593  -1.665   6.059   9.466 -0.6804 -0.7941  2.4007
  138MOL0     H18594  -1.642   6.353   8.960 -2.3886  0.4572 -0.9102
  138MOL0     H18595  -1.777   6.517   8.882 -3.2099 -1.3157  1.0722
  138MOL0     H18596  -1.828   6.894   9.123 -1.3875  0.1881  1.3290
  138MOL0     H18597  -1.965   6.901   9.011  2.2019  0.1924 -2.3488
  138MOL0     H18598  -1.974   6.697   9.248  1.5544 -1.6070 -4.1303
  138MOL0     H18599  -2.008   6.865   9.286 -1.5483 -1.1601  0.3952
  138MOL0     H18600  -2.187   6.727   9.255  0.6019 -0.2584 -0.0207
  138MOL0     H18601  -2.158   6.698   9.084 -1.4580  0.3985  0.1349
  138MOL0     H18602  -2.173   6.956   9.043  0.0791 -1.2807 -0.4233
  138MOL0     H18603  -2.323   6.885   9.073  1.2636 -0.6997 -0.1807
  138MOL0     H18604  -2.170   7.044   9.271 -1.1116  0.8007  1.9234
  138MOL0     H18605  -2.299   6.936   9.322  0.0045  2.1362  1.2112
  138MOL0     H18606  -2.351   7.159   9.124 -0.1583 -1.7001 -1.8021
  138MOL0     H18607  -2.463   7.049   9.207 -0.1461 -0.3336 -2.2345
  138MOL0     H18608  -2.296   7.248   9.369 -0.9639  0.7079  2.7837
  138MOL0     H18609  -2.377   7.106   9.428  1.3681 -3.2506 -2.1878
  138MOL0     H18610  -2.532   7.302   9.454 -2.2108 -0.5833 -0.5761
  138MOL0     H18611  -2.594   7.194   9.333  0.7221 -1.3736  0.4947
  138MOL0     H18612  -1.720   6.748   9.242  2.7421  1.1893 -1.6145
  138MOL0     H18613  -1.584   6.555   9.334 -3.0144 -1.3262  1.3447
  138MOL0     H18614  -1.307   6.227   9.179  1.8858 -1.1558  0.2272
  138MOL0     H18615  -1.114   6.081   9.234 -0.8362 -0.1335 -3.2100
  138MOL0     H18616   0.214   5.227   9.022  2.5766 -0.1243  0.9944
  138MOL0     H18617   0.379   5.112   9.131 -0.2514  0.4857  0.0478
  138MOL0     H18618   0.609   4.953   9.440  1.1524 -0.8612 -1.9898
  138MOL0     H18619   0.792   4.839   9.581 -0.8824 -0.3946  2.9248
  138MOL0     H18620   0.960   4.729   9.658  2.0156 -0.0805  1.2447
  138MOL0     H18621   0.905   4.666   9.814 -0.3119 -2.2947  0.8533
  138MOL0     H18622   1.024   4.453   9.767 -1.6184  1.1901  0.2280
  138MOL0     H18623   1.132   4.586   9.775  2.9501 -2.7194 -2.2017
  138MOL0     H18624   1.212   4.469   9.580  0.5060 -0.9606 -0.9288
  138MOL0     H18625   1.150   4.625   9.538 -0.0743  0.0360 -0.0598
  138MOL0     H18626   1.076   4.444   9.384  0.0121 -3.3217  0.6463
  138MOL0     H18627   0.949   4.539   9.444  1.8625  1.5158 -0.7307
  138MOL0     H18628   0.830   4.153   9.564  3.0188 -1.3226  1.3332
  138MOL0     H18629   0.594   4.468   9.540  2.3434 -0.1569  0.4008
  138MOL0     H18630   0.409   4.577   9.450  1.1843 -1.5194 -2.8886
  139MOL0     O18631   8.893   8.590   4.317  0.0499 -1.2112  0.1483
  139MOL0     C18632   8.893   8.479   4.364 -0.3509 -0.6271 -0.0775
  139MOL0     O18633   8.874   8.452   4.494  0.0465 -0.3205 -0.9052
  139MOL0     C18634   8.850   8.555   4.579  0.5641  0.0477 -0.2398
  139MOL0     C18635   8.719   8.598   4.583 -0.6625 -0.8443 -0.1461
  139MOL0     C18636   8.679   8.704   4.667 -0.1919 -0.9822 -1.1537
  139MOL0     C18637   8.766   8.755   4.758 -0.6081 -0.4376  0.8175
  139MOL0     O18638   8.724   8.859   4.834 -0.1993  0.1984 -0.0065
  139MOL0     C18639   8.826   8.934   4.899 -0.4500 -0.2453  0.6934
  139MOL0     C18640   8.764   9.025   4.995  0.3534 -0.4795 -0.0720
  139MOL0     C18641   8.661   9.122   4.940  0.7137 -0.1478 -0.6648
  139MOL0     C18642   8.707   9.197   4.812  0.6345  0.0381 -0.0157
  139MOL0     C18643   8.592   9.284   4.758  0.4382 -0.4976  0.4339
  139MOL0     C18644   8.522   9.371   4.862 -0.2282  0.1955  0.5462
  139MOL0     C18645   8.629   9.459   4.936  0.0745  0.7290 -0.5320
  139MOL0     C18646   8.576   9.546   5.050 -0.9698 -0.2473 -0.0085
  139MOL0     N18647   8.525   9.453   5.150 -0.1362 -0.4051 -0.3203
  139MOL0     C18648   8.600   9.369   5.222 -0.3314  0.3636 -0.2011
  139MOL0     C18649   8.509   9.318   5.309 -0.5787  0.5918  0.7144
  139MOL0     C18650   8.552   9.215   5.427  0.1723 -0.5403 -0.3629
  139MOL0     C18651   8.608   9.284   5.555  1.0557 -0.7630  0.8147
  139MOL0     C18652   8.627   9.192   5.666 -0.5745 -0.1906  0.7072
  139MOL0     C18653   8.655   9.258   5.804  0.9785  0.4057  0.3497
  139MOL0     O18654   8.539   9.342   5.842 -0.7696 -0.4994 -0.2000
  139MOL0     C18655   8.432   9.302   5.917 -0.3357 -0.1747  0.3540
  139MOL0     C18656   8.375   9.406   5.980  0.2900 -0.3157 -0.0097
  139MOL0     C18657   8.256   9.384   6.046 -0.3700  0.7366 -0.9223
  139MOL0     C18658   8.187   9.512   6.089 -0.1165 -0.5553 -0.7856
  139MOL0     C18659   8.209   9.256   6.077 -1.1080  0.2317 -0.3258
  139MOL0     C18660   8.100   9.220   6.168  0.3969  0.8116 -1.0633
  139MOL0     O18661   8.054   9.092   6.167 -0.5447  0.7090 -0.1670
  139MOL0     C18662   7.938   9.075   6.238 -0.9873 -0.5111 -0.6542
  139MOL0     C18663   7.949   9.041   6.375 -0.5491 -0.0376 -0.6311
  139MOL0     C18664   7.829   9.010   6.447 -0.3942  0.7216 -0.1917
  139MOL0     C18665   7.708   9.027   6.394 -0.2074 -0.9923 -0.6144
  139MOL0     O18666   7.606   9.005   6.479 -0.2129  0.9602 -0.3979
  139MOL0     C18667   7.515   9.105   6.505  0.4172  0.1007  1.2457
  139MOL0     C18668   7.427   9.077   6.639 -0.1081 -0.0997 -0.9559
  139MOL0     C18669   7.407   9.192   6.743  0.3225  1.3360  0.0747
  139MOL0     C18670   7.525   9.191   6.843 -0.4732  0.3224  0.4008
  139MOL0     C18671   7.511   9.303   6.942  0.4516 -0.7651  0.5451
  139MOL0     C18672   7.620   9.325   7.032 -0.0245 -0.1825  0.4050
  139MOL0     C18673   7.655   9.207   7.119 -0.0973 -0.3756  0.5430
  139MOL0     C18674   7.759   9.251   7.216 -0.5625 -0.4206 -0.0575
  139MOL0    Cl18675   7.696   9.344   7.351  0.0231  0.0942 -0.4145
  139MOL0     C18676   7.695   9.065   6.256 -0.0899 -0.1846  0.2796
  139MOL0     C18677   7.815   9.094   6.178  0.4770  0.7817  0.5300
  139MOL0     O18678   8.050   9.311   6.230  0.6503 -0.6093  0.1186
  139MOL0     C18679   8.276   9.153   6.027  0.0885  0.4602 -0.8559
  139MOL0     C18680   8.387   9.170   5.941 -0.4572 -0.3842  0.1934
  139MOL0     N18681   8.382   9.367   5.281  0.7708  1.2295 -1.1397
  139MOL0     N18682   8.394   9.449   5.182  0.5841 -0.6194  0.0023
  139MOL0     C18683   8.897   8.696   4.758  0.1973  0.3718 -1.4518
  139MOL0     C18684   8.945   8.599   4.670 -0.6774 -0.0011 -1.0430
  139MOL0     C18685   8.878   8.363   4.278  0.2496  0.2036  0.4640
  139MOL0     C18686   8.903   8.228   4.319 -0.1317  0.7331  0.0662
  139MOL0     C18687   8.884   8.116   4.239  0.1631 -0.7047  0.3242
  139MOL0     C18688   8.854   8.147   4.105  0.5554  1.0166 -0.0391
  139MOL0     O18689   8.838   8.030   4.030 -0.8323  0.2247  0.5850
  139MOL0     C18690   8.866   8.042   3.890 -0.2352  0.7465  0.0977
  139MOL0     C18691   8.900   7.902   3.826 -0.7979 -0.9653 -0.0727
  139MOL0     C18692   9.043   7.846   3.868 -0.2623 -1.1337 -0.0967
  139MOL0     C18693   9.085   7.730   3.782  0.0630 -0.0151 -0.2941
  139MOL0     C18694   9.103   7.769   3.644 -0.7351 -0.3664  0.1204
  139MOL0     C18695   9.113   7.788   3.523 -0.2008  0.2395  0.4817
  139MOL0     C18696   8.837   8.275   4.052  0.1201 -0.0152 -0.4758
  139MOL0     C18697   8.843   8.385   4.140 -0.1720  0.4267  0.5279
  139MOL0     H18698   8.648   8.550   4.516  0.6200 -1.1522 -1.3191
  139MOL0     H18699   8.579   8.747   4.668 -0.2886 -0.7612  3.9969
  139MOL0     H18700   8.895   8.872   4.957  0.2759 -3.3992 -3.1144
  139MOL0     H18701   8.889   8.986   4.827 -1.4359  0.1824  0.1134
  139MOL0     H18702   8.714   8.968   5.075  2.4409 -0.9849  0.9253
  139MOL0     H18703   8.844   9.080   5.044 -1.8969  1.9463  1.1755
  139MOL0     H18704   8.574   9.063   4.910  1.1197 -0.2361 -1.7219
  139MOL0     H18705   8.634   9.195   5.016 -0.2199  1.9270 -2.8477
  139MOL0     H18706   8.794   9.259   4.835  0.6864  0.5941 -1.6285
  139MOL0     H18707   8.737   9.128   4.732  3.1770  0.5092  0.4291
  139MOL0     H18708   8.615   9.337   4.665  2.6899 -0.4600  0.9672
  139MOL0     H18709   8.515   9.217   4.717 -0.6683  2.7518 -3.4669
  139MOL0     H18710   8.471   9.441   4.796  0.3319 -1.6234 -1.9927
  139MOL0     H18711   8.446   9.327   4.927 -2.8913  1.9088 -1.1969
  139MOL0     H18712   8.709   9.395   4.977  0.5111  1.4923 -0.1704
  139MOL0     H18713   8.690   9.516   4.866  4.8643 -0.6772  1.9673
  139MOL0     H18714   8.493   9.602   5.006 -2.2662 -1.7857  0.4094
  139MOL0     H18715   8.652   9.609   5.099 -3.9407  0.9954  3.4742
  139MOL0     H18716   8.708   9.362   5.215 -0.4558 -0.8263 -1.5149
  139MOL0     H18717   8.465   9.153   5.447 -0.5310 -0.0762 -1.8646
  139MOL0     H18718   8.629   9.141   5.405  1.2863  0.6815 -0.7483
  139MOL0     H18719   8.536   9.360   5.587 -0.0688 -0.8165 -1.3945
  139MOL0     H18720   8.705   9.326   5.526  0.7134 -2.6127 -4.0573
  139MOL0     H18721   8.717   9.134   5.644 -0.2045  0.3675  0.7111
  139MOL0     H18722   8.548   9.120   5.689 -0.8333  0.7444  2.9394
  139MOL0     H18723   8.735   9.333   5.805  0.3874  1.2325  4.0620
  139MOL0     H18724   8.675   9.181   5.879  2.1669  1.3233  1.0153
  139MOL0     H18725   8.418   9.504   5.970 -3.5848  1.5567 -0.3525
  139MOL0     H18726   8.163   9.516   6.196 -4.0705 -1.2109 -1.5148
  139MOL0     H18727   8.248   9.599   6.064  1.9780 -1.8903 -0.5792
  139MOL0     H18728   8.098   9.539   6.033  1.2761  2.7998 -1.6355
  139MOL0     H18729   8.044   9.052   6.427  0.8796 -2.1623 -2.5584
  139MOL0     H18730   7.834   8.994   6.554 -0.8673 -0.2374 -0.2971
  139MOL0     H18731   7.566   9.202   6.509  2.8470 -1.0289 -0.3142
  139MOL0     H18732   7.442   9.104   6.424  0.9479  0.8920  0.7446
  139MOL0     H18733   7.326   9.048   6.610 -1.3137  1.5304  1.2734
  139MOL0     H18734   7.477   8.988   6.681  0.2459 -0.0312 -1.2289
  139MOL0     H18735   7.318   9.172   6.804 -2.2898  0.3996 -3.6996
  139MOL0     H18736   7.400   9.290   6.695  0.8352  0.7917 -1.1225
  139MOL0     H18737   7.520   9.096   6.898 -0.6976  0.1315  0.0557
  139MOL0     H18738   7.609   9.208   6.775 -0.1885 -4.4418 -0.8368
  139MOL0     H18739   7.421   9.291   7.004 -1.3237  1.2436 -1.4347
  139MOL0     H18740   7.491   9.395   6.887 -0.0164 -1.5422 -0.6170
  139MOL0     H18741   7.717   9.339   6.983  1.7948 -4.4377  2.2971
  139MOL0     H18742   7.598   9.417   7.088 -3.7672 -0.7045  0.0764
  139MOL0     H18743   7.687   9.124   7.055  1.1284 -0.9895  1.8892
  139MOL0     H18744   7.564   9.176   7.173 -0.7615 -0.6304 -0.6901
  139MOL0     H18745   7.832   9.316   7.165  2.1878 -0.3305  3.6090
  139MOL0     H18746   7.808   9.160   7.250  0.1484  0.9384  2.8215
  139MOL0     H18747   7.598   9.074   6.208 -0.6827  0.5495  1.5505
  139MOL0     H18748   7.807   9.122   6.074  0.5021 -0.7815  0.0793
  139MOL0     H18749   8.251   9.051   6.053  3.5269 -0.0355  1.0961
  139MOL0     H18750   8.446   9.093   5.893 -0.0210  0.3227 -0.4418
  139MOL0     H18751   8.965   8.730   4.835 -0.6140 -3.5954  1.3496
  139MOL0     H18752   9.044   8.557   4.682 -0.5042  0.4663 -0.8048
  139MOL0     H18753   8.930   8.221   4.423  0.0086 -1.6214 -0.0850
  139MOL0     H18754   8.885   8.013   4.272 -0.9839 -1.8324 -2.7440
  139MOL0     H18755   8.770   8.083   3.857  0.5690  0.7718 -2.4441
  139MOL0     H18756   8.949   8.106   3.857 -0.2977  1.1758  0.7617
  139MOL0     H18757   8.887   7.900   3.718 -0.5818 -1.3361 -0.0954
  139MOL0     H18758   8.835   7.819   3.857 -1.1373 -1.8344 -2.8857
  139MOL0     H18759   9.047   7.805   3.969  2.5665  0.6506  0.6225
  139MOL0     H18760   9.124   7.919   3.864 -0.1687 -1.2654 -0.7678
  139MOL0     H18761   9.004   7.658   3.797  0.2098  0.1725  1.6987
  139MOL0     H18762   9.177   7.686   3.823  1.3764  1.4655 -1.5217
  139MOL0     H18763   9.116   7.792   3.416 -3.8998 -0.9305  0.1634
  139MOL0     H18764   8.803   8.285   3.949  1.8579 -3.7783 -1.5741
  139MOL0     H18765   8.812   8.484   4.108 -0.8502  0.1984  0.4606
  140MOL0     O18766   3.646  11.017   9.321 -0.3917 -0.5941  0.5555
  140MOL0     C18767   3.728  11.025   9.224  0.6482  1.1422  0.9801
  140MOL0     O18768   3.756  11.129   9.151 -0.0266  0.6738 -0.4565
  140MOL0     C18769   3.698  11.253   9.176  0.2962  0.5577 -0.4105
  140MOL0     C18770   3.752  11.325   9.277 -0.1704 -0.4731  0.1502
  140MOL0     C18771   3.699  11.457   9.299 -0.4406 -0.6557  0.5181
  140MOL0     C18772   3.604  11.521   9.211  0.5802  0.4768 -0.5172
  140MOL0     O18773   3.547  11.647   9.222 -0.1136  0.3191 -0.8523
  140MOL0     C18774   3.605  11.742   9.315  0.0384  0.0598  0.6316
  140MOL0     C18775   3.620  11.885   9.268  0.5710 -0.1805 -0.4766
  140MOL0     C18776   3.701  11.908   9.142  0.1362  0.6157  0.9516
  140MOL0     C18777   3.680  12.049   9.075 -0.1114  0.7030  0.2977
  140MOL0     C18778   3.749  12.055   8.944 -0.0509  0.2276 -0.0647
  140MOL0     C18779   3.773  12.193   8.891  0.5147 -0.3633 -0.2952
  140MOL0     C18780   3.655  12.294   8.885 -0.0219 -0.7738 -0.5580
  140MOL0     C18781   3.558  12.285   8.769  0.6535 -0.4272 -0.5479
  140MOL0     N18782   3.460  12.183   8.787 -1.9841 -0.6560  0.1336
  140MOL0     C18783   3.339  12.181   8.845  0.6382 -0.3622  0.1167
  140MOL0     C18784   3.289  12.055   8.828 -0.4727  0.9175  0.4302
  140MOL0     C18785   3.148  12.003   8.866 -0.0175 -0.4640 -0.0095
  140MOL0     C18786   3.134  11.961   9.013  0.0483 -0.3896  0.8177
  140MOL0     C18787   3.245  11.877   9.070  0.0105  0.1132 -0.4755
  140MOL0     C18788   3.279  11.748   8.991 -0.9301  0.4277 -0.6286
  140MOL0     O18789   3.173  11.678   8.934 -0.2596  0.0682 -0.5193
  140MOL0     C18790   3.116  11.595   9.022  1.2342 -0.2364 -0.2144
  140MOL0     C18791   3.111  11.583   9.157  0.2383 -0.3334 -0.5613
  140MOL0     C18792   3.043  11.485   9.222 -0.0418  0.8497  0.1795
  140MOL0     C18793   3.052  11.491   9.372  0.0879 -0.6560  1.3714
  140MOL0     C18794   2.960  11.390   9.153  0.7736 -0.0685  0.1564
  140MOL0     C18795   2.860  11.298   9.216  1.0893  0.2931  0.0256
  140MOL0     O18796   2.780  11.345   9.313  0.7118 -0.5366  0.0209
  140MOL0     C18797   2.684  11.262   9.358  0.0965  0.6296  0.0976
  140MOL0     C18798   2.574  11.233   9.272  0.2870  0.5935 -0.6881
  140MOL0     C18799   2.468  11.149   9.316 -0.0330 -0.1167  0.7634
  140MOL0     C18800   2.473  11.093   9.443 -1.4722 -0.6331 -0.5707
  140MOL0     O18801   2.357  11.032   9.487 -0.0915  0.1777  0.0559
  140MOL0     C18802   2.374  10.918   9.566 -0.1437  0.6195 -0.7523
  140MOL0     C18803   2.246  10.829   9.561 -0.3054 -0.1481  0.4052
  140MOL0     C18804   2.242  10.752   9.688  0.0035  0.1326 -0.3911
  140MOL0     C18805   2.116  10.659   9.687 -0.5031 -0.4188 -0.4907
  140MOL0     C18806   2.112  10.587   9.830  0.9032  0.0294  0.3981
  140MOL0     C18807   2.084  10.437   9.832  0.2208 -0.1750  0.3452
  140MOL0     C18808   2.226  10.376   9.821  0.4589 -0.1240 -0.7918
  140MOL0     C18809   2.206  10.220   9.844  0.4675  0.4378  0.7408
  140MOL0    Cl18810   2.164  10.143   9.685 -0.1549  0.2021 -0.1548
  140MOL0     C18811   2.585  11.108   9.521  0.2715 -0.9160  0.3076
  140MOL0     C18812   2.696  11.194   9.485  0.5677  0.2856  0.2372
  140MOL0     O18813   2.856  11.183   9.183 -0.2694  0.1798  0.6211
  140MOL0     C18814   2.975  11.394   9.019 -0.4264  0.1540 -0.1315
  140MOL0     C18815   3.036  11.493   8.954 -0.3865 -0.1633  0.7135
  140MOL0     N18816   3.382  11.982   8.757 -0.5686  0.0534 -0.2612
  140MOL0     N18817   3.476  12.062   8.720  0.0531 -0.8289  0.6168
  140MOL0     C18818   3.555  11.439   9.112 -0.5349 -0.7149 -0.9126
  140MOL0     C18819   3.598  11.302   9.095 -0.5867 -1.0609  1.2470
  140MOL0     C18820   3.829  10.928   9.214 -0.0321  0.3991  0.6982
  140MOL0     C18821   3.956  10.955   9.159 -0.7246 -0.4480 -0.5412
  140MOL0     C18822   4.055  10.854   9.145  0.6723  0.6569 -0.2250
  140MOL0     C18823   4.022  10.721   9.187 -0.7663  0.3687  0.4377
  140MOL0     O18824   4.122  10.630   9.201  0.8001 -0.1086  0.6589
  140MOL0     C18825   4.241  10.631   9.126 -0.6306 -0.8643 -0.0247
  140MOL0     C18826   4.315  10.497   9.128  0.1596 -0.1669  1.1574
  140MOL0     C18827   4.440  10.493   9.032 -0.2156 -0.4058  0.3576
  140MOL0     C18828   4.479  10.339   9.015  0.4578 -0.2656 -0.0348
  140MOL0     C18829   4.613  10.324   8.959  0.2763 -0.5324 -0.3091
  140MOL0     C18830   4.727  10.293   8.938  0.1269 -1.2393  0.5921
  140MOL0     C18831   3.904  10.698   9.258  0.1940 -0.3351 -0.1656
  140MOL0     C18832   3.810  10.794   9.272  0.1111  0.3422  0.5444
  140MOL0     H18833   3.834  11.295   9.341 -1.1549 -0.9726  1.2163
  140MOL0     H18834   3.734  11.521   9.378 -2.4388  1.6014 -0.2851
  140MOL0     H18835   3.544  11.763   9.404  1.9754  0.5321  1.9210
  140MOL0     H18836   3.706  11.707   9.338  0.3158 -0.3097 -1.0133
  140MOL0     H18837   3.521  11.930   9.254 -0.1639 -1.3051  0.9365
  140MOL0     H18838   3.665  11.929   9.357 -1.7486  0.6343  0.3425
  140MOL0     H18839   3.808  11.894   9.160  0.6236 -2.6296 -3.0011
  140MOL0     H18840   3.680  11.832   9.067  2.5373  0.5531  0.2687
  140MOL0     H18841   3.572  12.067   9.078  0.2164  3.1118  3.9829
  140MOL0     H18842   3.731  12.117   9.144 -1.2622  0.7186  1.1578
  140MOL0     H18843   3.851  12.018   8.960  0.6186  2.3531  1.0426
  140MOL0     H18844   3.691  11.997   8.873 -0.2265  0.1046  0.1778
  140MOL0     H18845   3.853  12.232   8.955 -0.5907  2.6196 -0.5953
  140MOL0     H18846   3.801  12.180   8.786  0.7051 -0.3157 -0.2513
  140MOL0     H18847   3.611  12.295   8.985  1.5053 -1.9473  0.1831
  140MOL0     H18848   3.698  12.394   8.867 -2.4088 -0.1492 -3.7211
  140MOL0     H18849   3.619  12.270   8.679  0.2701 -1.5810 -0.6394
  140MOL0     H18850   3.514  12.385   8.761  0.9252 -0.2922 -0.3350
  140MOL0     H18851   3.288  12.259   8.901  1.0404 -1.8810  2.7845
  140MOL0     H18852   3.065  12.072   8.851 -1.2684 -1.0852  3.2954
  140MOL0     H18853   3.112  11.922   8.802 -0.2304 -3.0065  3.1294
  140MOL0     H18854   3.050  11.891   9.011  0.0553 -0.4045 -1.7542
  140MOL0     H18855   3.106  12.045   9.078 -2.4090 -0.0520 -0.5346
  140MOL0     H18856   3.206  11.854   9.170 -0.5983  1.6864 -0.3157
  140MOL0     H18857   3.339  11.931   9.084  2.5597 -3.6892 -1.3553
  140MOL0     H18858   3.338  11.679   9.053 -1.3105  0.8024  0.1556
  140MOL0     H18859   3.343  11.778   8.908  3.2396  0.1123  2.1856
  140MOL0     H18860   3.175  11.644   9.219  1.1613 -1.0685 -0.7715
  140MOL0     H18861   2.976  11.561   9.406  0.7483  0.5353  0.4829
  140MOL0     H18862   3.036  11.388   9.406  1.0936 -2.1856 -2.2886
  140MOL0     H18863   3.151  11.523   9.407  0.9149 -0.5670 -0.8580
  140MOL0     H18864   2.574  11.267   9.169 -0.4614  0.0134 -0.8844
  140MOL0     H18865   2.393  11.119   9.244  0.9202  2.2061 -1.3141
  140MOL0     H18866   2.467  10.870   9.534 -0.9066  0.6501 -3.1908
  140MOL0     H18867   2.377  10.943   9.672 -0.4531  1.7701 -0.9945
  140MOL0     H18868   2.153  10.885   9.550  0.1964  0.7889  0.7514
  140MOL0     H18869   2.265  10.769   9.472  3.7991  0.2355  0.8349
  140MOL0     H18870   2.257  10.811   9.779 -1.6763 -1.4716  1.0094
  140MOL0     H18871   2.316  10.671   9.682 -0.4405 -0.7042  3.1296
  140MOL0     H18872   2.019  10.707   9.676 -0.6050 -0.3345  0.6066
  140MOL0     H18873   2.139  10.588   9.608 -0.6605 -1.0271  0.0007
  140MOL0     H18874   2.037  10.637   9.892  0.9839 -0.7458  1.1409
  140MOL0     H18875   2.209  10.602   9.878  2.2943 -0.6876 -2.0232
  140MOL0     H18876   2.047  10.415   9.932 -0.7625  1.3347  0.3350
  140MOL0     H18877   2.016  10.414   9.749 -1.0136 -1.1348  1.5661
  140MOL0     H18878   2.286  10.409   9.906 -0.1956  1.9576 -1.0963
  140MOL0     H18879   2.289  10.392   9.733  0.8429  0.7181 -0.3722
  140MOL0     H18880   2.122  10.203   9.911  0.1356  1.5573  0.6332
  140MOL0     H18881   2.300  10.183   9.888  0.0921 -0.1936  1.0316
  140MOL0     H18882   2.602  11.066   9.620 -0.4244  0.7530  1.1816
  140MOL0     H18883   2.783  11.208   9.547  1.5806  0.9927 -1.2758
  140MOL0     H18884   2.925  11.320   8.958  1.9666  0.2501 -2.4031
  140MOL0     H18885   3.047  11.500   8.846  1.0000  0.5640  0.8888
  140MOL0     H18886   3.487  11.480   9.038 -0.6332  2.3867  0.7176
  140MOL0     H18887   3.558  11.247   9.010  1.9817 -0.6905 -0.3394
  140MOL0     H18888   3.959  11.059   9.127 -2.4457 -0.0874  0.3986
  140MOL0     H18889   4.156  10.873   9.110  1.3251 -1.1116  0.6024
  140MOL0     H18890   4.220  10.657   9.022  2.0994  0.5472 -0.3370
  140MOL0     H18891   4.305  10.714   9.159 -0.5279 -0.1312 -1.9633
  140MOL0     H18892   4.238  10.432   9.084  2.3108 -0.3733 -2.7584
  140MOL0     H18893   4.337  10.473   9.232 -3.4444 -0.6025  1.9589
  140MOL0     H18894   4.529  10.545   9.069 -0.0316  0.7514 -1.5538
  140MOL0     H18895   4.408  10.533   8.935  1.0611 -0.2519 -0.0140
  140MOL0     H18896   4.418  10.289   8.938  1.2982  0.1267 -0.9805
  140MOL0     H18897   4.470  10.269   9.098 -4.1131  0.3594  0.2399
  140MOL0     H18898   4.830  10.287   8.910  0.1638  0.9748  0.0443
  140MOL0     H18899   3.892  10.608   9.317  2.2943  1.3262  3.1425
  140MOL0     H18900   3.716  10.762   9.316  1.4943 -2.0444  1.9299
  141MOL0     O18901   9.256   5.470   4.348 -0.0889 -0.5439 -0.1662
  141MOL0     C18902   9.344   5.422   4.422 -0.3696  0.0388 -0.6986
  141MOL0     O18903   9.369   5.455   4.561  0.0017  0.1412 -0.0835
  141MOL0     C18904   9.290   5.553   4.616  0.1811 -0.0396  0.9167
  141MOL0     C18905   9.305   5.679   4.580  0.0262 -1.0602  0.0930
  141MOL0     C18906   9.234   5.785   4.640  0.4568  0.1733  1.1975
  141MOL0     C18907   9.128   5.757   4.734  0.2976  0.7096 -0.5193
  141MOL0     O18908   9.038   5.849   4.771  0.8880  0.1562 -0.6597
  141MOL0     C18909   8.997   5.965   4.686 -0.7804  0.6940 -0.6945
  141MOL0     C18910   8.911   6.065   4.767 -0.0073 -0.2006 -0.9028
  141MOL0     C18911   8.846   6.162   4.683 -0.2154 -0.8540 -0.6674
  141MOL0     C18912   8.721   6.242   4.736 -1.3935  0.5032  0.3116
  141MOL0     C18913   8.673   6.352   4.647  0.7167  0.5578  0.5407
  141MOL0     C18914   8.615   6.283   4.514 -0.5350 -0.2444 -0.0471
  141MOL0     C18915   8.552   6.387   4.426 -0.7965  0.2900 -0.1719
  141MOL0     C18916   8.437   6.474   4.489  0.7190  0.9813 -0.6170
  141MOL0     N18917   8.327   6.507   4.392 -0.8192 -0.1749  0.5356
  141MOL0     C18918   8.334   6.488   4.255 -0.3102 -0.5630 -0.3906
  141MOL0     C18919   8.216   6.529   4.212  0.0839  0.2206 -1.6610
  141MOL0     C18920   8.187   6.521   4.071  0.2883 -0.5579  0.4910
  141MOL0     C18921   8.034   6.463   4.050 -0.7609 -0.8763 -0.8157
  141MOL0     C18922   7.914   6.549   4.086  0.4551 -0.6882 -0.8753
  141MOL0     C18923   7.785   6.468   4.056  0.0439  0.0291  0.8866
  141MOL0     O18924   7.678   6.549   4.093  1.0357 -0.6586  0.0888
  141MOL0     C18925   7.551   6.530   4.049  0.8092 -0.4650  1.2454
  141MOL0     C18926   7.505   6.429   3.955  0.5129 -0.7265 -0.0452
  141MOL0     C18927   7.381   6.436   3.903  0.1893 -0.1233  0.5097
  141MOL0     C18928   7.357   6.331   3.799 -0.3441 -0.1112 -0.8877
  141MOL0     C18929   7.283   6.537   3.944  0.2238 -0.0160 -0.0995
  141MOL0     C18930   7.145   6.547   3.893 -0.9907 -0.6705  0.0933
  141MOL0     O18931   7.051   6.558   3.984 -0.2649 -0.2423 -0.5052
  141MOL0     C18932   6.918   6.551   3.933  0.0290 -0.3464  0.4779
  141MOL0     C18933   6.872   6.458   3.841  0.5707 -0.4226  0.4479
  141MOL0     C18934   6.740   6.458   3.790  0.5652 -0.3197  1.1081
  141MOL0     C18935   6.647   6.544   3.826 -0.3144 -1.5064 -0.1810
  141MOL0     O18936   6.520   6.514   3.780  0.0147 -0.6632 -0.3227
  141MOL0     C18937   6.500   6.578   3.650 -0.1935  0.1165  0.3266
  141MOL0     C18938   6.353   6.564   3.612 -0.4250 -0.9409 -0.8397
  141MOL0     C18939   6.321   6.659   3.496  0.6524  0.9313 -0.1465
  141MOL0     C18940   6.383   6.604   3.368 -0.6736  0.2616 -0.1575
  141MOL0     C18941   6.367   6.704   3.256  0.0595 -0.1069  0.0607
  141MOL0     C18942   6.446   6.665   3.134 -0.6052  0.2009  0.2309
  141MOL0     C18943   6.434   6.762   3.007 -0.1413  0.3125 -0.7295
  141MOL0     C18944   6.450   6.910   3.048 -1.2773  1.3170 -0.0786
  141MOL0    Cl18945   6.592   6.923   3.149  0.2025  0.3129  0.6170
  141MOL0     C18946   6.681   6.622   3.944 -0.0380 -0.0836 -0.1453
  141MOL0     C18947   6.812   6.634   3.992  0.1320 -0.5599  0.3596
  141MOL0     O18948   7.134   6.534   3.769  0.7485 -0.0745 -0.2594
  141MOL0     C18949   7.329   6.630   4.031  0.0006  0.6379 -0.4076
  141MOL0     C18950   7.461   6.630   4.079 -1.0192 -0.2298 -0.4717
  141MOL0     N18951   8.158   6.591   4.316  0.2357 -0.7020  0.8503
  141MOL0     N18952   8.224   6.584   4.421  1.3900 -0.0376 -0.2953
  141MOL0     C18953   9.125   5.628   4.775 -0.1309  0.7895 -0.4215
  141MOL0     C18954   9.210   5.528   4.730  0.0923  0.1274  0.2675
  141MOL0     C18955   9.427   5.305   4.369  1.1154 -1.0339  0.5532
  141MOL0     C18956   9.405   5.247   4.241  0.1788  0.1908 -0.2920
  141MOL0     C18957   9.491   5.150   4.195 -0.0314 -0.3565  0.1435
  141MOL0     C18958   9.603   5.110   4.264  0.0445 -0.2413 -0.1498
  141MOL0     O18959   9.688   5.025   4.197  0.3014  0.4515 -0.7701
  141MOL0     C18960   9.822   5.070   4.171 -0.1761  0.4649 -0.2873
  141MOL0     C18961   9.922   4.944   4.162 -1.1912 -0.5886  0.6780
  141MOL0     C18962  10.070   5.004   4.117  0.1087 -1.6080 -0.9470
  141MOL0     C18963  10.142   5.069   4.226 -0.1391 -0.5234  0.8358
  141MOL0     C18964  10.263   5.132   4.179 -0.1046  1.1249  0.0782
  141MOL0     C18965  10.365   5.188   4.140 -0.0711  0.4329  0.8907
  141MOL0     C18966   9.628   5.160   4.391 -0.0282  0.5948 -0.3311
  141MOL0     C18967   9.542   5.262   4.440  0.2749 -0.0984  0.3111
  141MOL0     H18968   9.379   5.685   4.500 -1.4913  2.3442 -1.2235
  141MOL0     H18969   9.267   5.886   4.615  1.2234  0.3100  2.6725
  141MOL0     H18970   9.082   6.021   4.646  0.4993 -1.5107 -1.2762
  141MOL0     H18971   8.936   5.932   4.601 -0.7903 -1.3985  0.0621
  141MOL0     H18972   8.847   6.010   4.836 -0.4784  2.0342  0.5410
  141MOL0     H18973   8.982   6.122   4.827 -1.1777 -0.8198  1.1650
  141MOL0     H18974   8.933   6.224   4.659  0.5158 -0.5165  2.4971
  141MOL0     H18975   8.814   6.108   4.593  4.1322 -2.4383 -1.4963
  141MOL0     H18976   8.645   6.164   4.745 -0.6739 -0.1366  1.0323
  141MOL0     H18977   8.746   6.273   4.838  3.1648  0.5922 -0.6031
  141MOL0     H18978   8.591   6.402   4.698  0.8324 -0.6888  2.0015
  141MOL0     H18979   8.743   6.435   4.632  0.7003  0.7510  1.4742
  141MOL0     H18980   8.693   6.237   4.452  0.3544  0.1328  0.7708
  141MOL0     H18981   8.528   6.221   4.536 -2.8230  2.4339 -0.9387
  141MOL0     H18982   8.627   6.460   4.396 -0.2192  0.0533  0.6536
  141MOL0     H18983   8.514   6.329   4.341  1.4961 -0.5003 -0.7204
  141MOL0     H18984   8.474   6.569   4.529  1.1727  0.1645  0.9781
  141MOL0     H18985   8.401   6.416   4.574  2.9130  3.0330  1.8518
  141MOL0     H18986   8.413   6.449   4.192 -1.1943  0.1619 -2.0106
  141MOL0     H18987   8.208   6.612   4.014 -2.4205  1.0682  1.8819
  141MOL0     H18988   8.257   6.451   4.024  0.2262 -0.8998  0.9091
  141MOL0     H18989   8.027   6.375   4.114  0.0022 -0.7212 -0.5069
  141MOL0     H18990   8.019   6.428   3.948  0.2302 -0.7811 -1.0113
  141MOL0     H18991   7.912   6.651   4.046  4.6022  2.8327  6.0403
  141MOL0     H18992   7.923   6.567   4.193 -2.4813 -2.5902 -0.2013
  141MOL0     H18993   7.781   6.372   4.109 -1.5865  0.5862  1.8669
  141MOL0     H18994   7.780   6.454   3.947 -1.6201  3.2488  0.4164
  141MOL0     H18995   7.582   6.357   3.928  1.3823  0.3669 -0.5484
  141MOL0     H18996   7.421   6.247   3.827  2.4234  2.6928  2.1404
  141MOL0     H18997   7.255   6.294   3.808 -0.6720  1.0648  0.5329
  141MOL0     H18998   7.372   6.350   3.692  3.6739  0.0669 -0.4646
  141MOL0     H18999   6.943   6.388   3.799 -1.2155 -2.6542  0.9948
  141MOL0     H19000   6.719   6.392   3.706  0.3035 -1.0509  1.7396
  141MOL0     H19001   6.543   6.678   3.650  0.7225 -0.2490  1.4479
  141MOL0     H19002   6.559   6.520   3.578  0.2557  1.8589 -0.7716
  141MOL0     H19003   6.327   6.463   3.579 -1.2505 -1.2529  0.6971
  141MOL0     H19004   6.288   6.580   3.698 -1.9269 -1.2776 -1.8746
  141MOL0     H19005   6.331   6.765   3.519 -0.5065  1.5549 -2.2887
  141MOL0     H19006   6.214   6.638   3.487  1.2226 -1.5361 -3.0334
  141MOL0     H19007   6.490   6.585   3.382 -0.8226 -0.5871 -0.0761
  141MOL0     H19008   6.324   6.514   3.349  0.9000 -0.9225  0.3102
  141MOL0     H19009   6.413   6.796   3.295  0.9448 -0.5193  0.0109
  141MOL0     H19010   6.260   6.720   3.243  0.2010  1.3259  0.4322
  141MOL0     H19011   6.554   6.651   3.144 -0.5754  1.6105  2.7581
  141MOL0     H19012   6.411   6.566   3.103  1.7141  0.1528 -2.6025
  141MOL0     H19013   6.336   6.761   2.959 -0.3366  2.1871 -0.4412
  141MOL0     H19014   6.514   6.730   2.939 -1.2794 -1.0148 -1.5067
  141MOL0     H19015   6.364   6.950   3.102 -1.2327 -1.3119  2.1090
  141MOL0     H19016   6.469   6.967   2.956 -1.2394  1.6902  0.1604
  141MOL0     H19017   6.600   6.679   3.989 -1.0837 -0.0896 -1.9200
  141MOL0     H19018   6.828   6.696   4.080 -2.7327  2.7268 -1.2013
  141MOL0     H19019   7.279   6.717   4.073  1.0157  2.3019 -2.4531
  141MOL0     H19020   7.510   6.713   4.130 -1.1829 -0.5317  0.1941
  141MOL0     H19021   9.065   5.605   4.862 -2.0731  1.7748 -1.4449
  141MOL0     H19022   9.219   5.429   4.773  3.0641 -0.5848 -1.6273
  141MOL0     H19023   9.313   5.280   4.194 -0.3976 -0.7775  0.1454
  141MOL0     H19024   9.481   5.100   4.099  3.0891 -0.6707 -0.1368
  141MOL0     H19025   9.807   5.130   4.081 -2.1820 -3.0399 -2.5162
  141MOL0     H19026   9.865   5.120   4.259  3.7714 -1.7199 -0.7655
  141MOL0     H19027   9.891   4.867   4.090  1.9121 -0.1995 -1.3042
  141MOL0     H19028   9.936   4.902   4.262  2.6144 -0.1264  0.5042
  141MOL0     H19029  10.053   5.070   4.032 -0.2584  0.6129  0.7609
  141MOL0     H19030  10.129   4.917   4.086 -0.0113 -1.7374 -0.8243
  141MOL0     H19031  10.163   4.991   4.301 -1.3906 -2.4316 -0.6976
  141MOL0     H19032  10.086   5.149   4.274 -0.9022  0.2462 -1.2200
  141MOL0     H19033  10.444   5.239   4.090 -1.1429  0.5421 -0.7723
  141MOL0     H19034   9.712   5.128   4.451 -2.0872 -0.3598  2.2212
  141MOL0     H19035   9.561   5.295   4.541 -0.8786  5.1857 -0.9304
  142MOL0     O19036   7.200   4.296   0.464  0.1840 -0.0895 -0.6280
  142MOL0     C19037   7.143   4.368   0.394  0.2075  0.1295  0.6892
  142MOL0     O19038   7.103   4.333   0.265 -0.2180  0.0476 -0.7318
  142MOL0     C19039   7.095   4.195   0.259  0.3305 -0.0768  0.0258
  142MOL0     C19040   7.005   4.120   0.341  0.2034 -0.7255 -0.1293
  142MOL0     C19041   7.003   3.972   0.345 -0.6958  0.1470  0.9862
  142MOL0     C19042   7.100   3.908   0.270 -0.1509 -0.7863  0.9002
  142MOL0     O19043   7.098   3.773   0.247 -0.3628  0.4562 -0.1293
  142MOL0     C19044   6.990   3.681   0.265 -0.0910 -0.1377  0.1429
  142MOL0     C19045   7.006   3.619   0.407 -0.3922  0.7084  0.8430
  142MOL0     C19046   7.155   3.564   0.450  0.5879  0.0501  0.4648
  142MOL0     C19047   7.184   3.424   0.410  0.3328  0.3672 -0.3590
  142MOL0     C19048   7.328   3.372   0.423  0.1370  0.0085 -0.0998
  142MOL0     C19049   7.318   3.215   0.414 -0.8988 -0.5044 -0.1010
  142MOL0     C19050   7.455   3.154   0.419  0.8256  0.7261  0.1818
  142MOL0     C19051   7.546   3.188   0.302  0.2887  0.5616 -0.3480
  142MOL0     N19052   7.654   3.079   0.292  0.4721  0.0248 -0.3411
  142MOL0     C19053   7.734   3.031   0.398  0.1133  0.2394  0.5614
  142MOL0     C19054   7.824   2.955   0.342  0.1241  0.3786 -0.1249
  142MOL0     C19055   7.952   2.900   0.399 -0.0261  0.4059 -0.5892
  142MOL0     C19056   7.941   2.756   0.405  0.3649 -0.3535  0.8848
  142MOL0     C19057   8.074   2.680   0.430  0.2788  0.0235 -0.5339
  142MOL0     C19058   8.082   2.544   0.386 -0.4468  0.0126 -0.6578
  142MOL0     O19059   8.203   2.468   0.408 -1.1156  1.0224 -0.0590
  142MOL0     C19060   8.307   2.467   0.316  1.0410  0.6207  0.1193
  142MOL0     C19061   8.292   2.518   0.188  1.2575  0.9249 -0.3112
  142MOL0     C19062   8.405   2.518   0.103  0.1059 -0.2316 -0.5950
  142MOL0     C19063   8.381   2.573  -0.038  0.6167 -1.0328  0.6675
  142MOL0     C19064   8.528   2.461   0.148 -0.3704  0.8489  0.4527
  142MOL0     C19065   8.640   2.437   0.058 -0.1789 -0.6928 -0.4034
  142MOL0     O19066   8.750   2.391   0.114 -0.0638 -0.4106 -0.2684
  142MOL0     C19067   8.869   2.393   0.053  0.8372  0.1661  0.3068
  142MOL0     C19068   8.892   2.352  -0.083  0.6915 -0.5860 -0.3139
  142MOL0     C19069   9.017   2.386  -0.143  0.4497  0.1844  0.1894
  142MOL0     C19070   9.116   2.450  -0.067  0.0814 -0.9987 -0.1992
  142MOL0     O19071   9.235   2.491  -0.116  0.0518  0.0393 -0.0983
  142MOL0     C19072   9.278   2.422  -0.231 -0.8228  0.6055 -0.1947
  142MOL0     C19073   9.422   2.465  -0.259  0.6738  0.1736  0.1185
  142MOL0     C19074   9.522   2.417  -0.160 -0.2606  0.2393  0.2916
  142MOL0     C19075   9.580   2.279  -0.203  1.7432 -0.4634 -0.4181
  142MOL0     C19076   9.718   2.252  -0.139 -0.5398  0.9916  0.1350
  142MOL0     C19077   9.714   2.186  -0.002 -0.1551  0.2542 -0.3737
  142MOL0     C19078   9.858   2.146   0.046  0.8102 -0.4092 -0.2342
  142MOL0     C19079   9.855   2.127   0.195 -0.5277 -0.5087 -0.4612
  142MOL0    Cl19080   9.997   2.062   0.262 -0.3571 -0.4527  0.5568
  142MOL0     C19081   9.105   2.477   0.067 -0.5644  0.0064 -0.2508
  142MOL0     C19082   8.982   2.452   0.124  0.0378 -0.4670  0.6109
  142MOL0     O19083   8.634   2.468  -0.058  0.2618  0.5385  0.2490
  142MOL0     C19084   8.537   2.410   0.279 -0.7970 -0.2085  0.5710
  142MOL0     C19085   8.427   2.417   0.363  0.0288  0.0922  0.0075
  142MOL0     N19086   7.803   2.950   0.206  0.5748 -1.2659 -0.9334
  142MOL0     N19087   7.705   3.022   0.173  0.6429 -0.5200 -0.0779
  142MOL0     C19088   7.194   3.979   0.199  0.3272 -0.2574  0.5852
  142MOL0     C19089   7.185   4.120   0.196  0.2222  0.5268 -0.3639
  142MOL0     C19090   7.127   4.517   0.428 -0.4211  0.8604  0.0059
  142MOL0     C19091   7.199   4.566   0.538 -0.4327 -0.8311 -0.1994
  142MOL0     C19092   7.205   4.701   0.565 -0.2775 -0.5210 -0.2057
  142MOL0     C19093   7.142   4.793   0.470  0.4674  1.0276 -0.9691
  142MOL0     O19094   7.167   4.929   0.467 -0.7808  0.9008 -0.4996
  142MOL0     C19095   7.218   4.992   0.580  0.9168 -0.0152 -0.0754
  142MOL0     C19096   7.106   5.036   0.672 -0.1897  0.0602  0.1647
  142MOL0     C19097   7.169   5.106   0.795 -0.1566 -0.1162 -0.7905
  142MOL0     C19098   7.064   5.091   0.915 -0.4691  0.3106  0.8335
  142MOL0     C19099   6.927   5.133   0.889 -0.7504 -0.9276  0.7597
  142MOL0     C19100   6.815   5.185   0.867 -0.5249 -0.9517 -0.7599
  142MOL0     C19101   7.068   4.745   0.366 -0.0668  0.2621 -0.8916
  142MOL0     C19102   7.061   4.607   0.339 -0.8900  1.1402 -0.0539
  142MOL0     H19103   6.934   4.177   0.399  0.8266 -1.0606  0.9798
  142MOL0     H19104   6.931   3.916   0.405 -0.2268 -2.8856 -1.0569
  142MOL0     H19105   6.895   3.735   0.265 -0.7203 -1.1308 -2.2683
  142MOL0     H19106   6.973   3.604   0.189 -0.3100  0.6746 -0.6455
  142MOL0     H19107   6.976   3.702   0.471 -0.8628  2.0583 -1.0380
  142MOL0     H19108   6.939   3.532   0.410  1.6794 -0.9561  1.3211
  142MOL0     H19109   7.227   3.633   0.404 -2.6660  4.0056  0.6904
  142MOL0     H19110   7.160   3.578   0.558 -1.6036 -1.5556  0.8380
  142MOL0     H19111   7.119   3.363   0.472  2.3773  0.5564  2.1004
  142MOL0     H19112   7.164   3.402   0.304  1.3428 -2.2538 -0.0691
  142MOL0     H19113   7.385   3.400   0.334  1.3402 -1.9027  0.0104
  142MOL0     H19114   7.375   3.411   0.514  3.9749 -0.2132 -1.8045
  142MOL0     H19115   7.261   3.173   0.498  1.9114 -2.1676  1.1309
  142MOL0     H19116   7.263   3.190   0.323 -1.7052  2.8901 -0.6919
  142MOL0     H19117   7.496   3.189   0.514 -2.4947 -0.3344  2.2107
  142MOL0     H19118   7.438   3.046   0.420 -1.0333  0.9574  2.8555
  142MOL0     H19119   7.592   3.282   0.334  0.5376 -0.1006  1.3384
  142MOL0     H19120   7.491   3.194   0.208 -0.4140  1.5177  0.1034
  142MOL0     H19121   7.712   3.051   0.502 -1.3463  3.3056 -0.2133
  142MOL0     H19122   8.045   2.926   0.348  2.5870 -1.9717  2.4659
  142MOL0     H19123   7.975   2.942   0.498  1.0150  0.9342 -1.0336
  142MOL0     H19124   7.912   2.736   0.302  0.4726  3.9060 -0.1201
  142MOL0     H19125   7.859   2.726   0.472  2.6929 -0.5928  3.8304
  142MOL0     H19126   8.096   2.665   0.537  2.4614  0.5484 -0.8625
  142MOL0     H19127   8.161   2.741   0.401  2.2031 -0.6201  3.1551
  142MOL0     H19128   8.038   2.536   0.286 -4.2304  1.7654  0.6739
  142MOL0     H19129   8.002   2.497   0.443 -0.1601  0.1011 -0.1816
  142MOL0     H19130   8.197   2.550   0.147 -0.0257 -0.4146  1.4371
  142MOL0     H19131   8.287   2.626  -0.051 -1.1007 -4.4930 -3.1863
  142MOL0     H19132   8.466   2.632  -0.073 -0.1965  0.9485  1.8888
  142MOL0     H19133   8.373   2.495  -0.114 -1.3541  0.3559 -0.6404
  142MOL0     H19134   8.803   2.315  -0.134 -1.1531 -0.4394  2.5829
  142MOL0     H19135   9.023   2.367  -0.250 -2.0303  0.9202 -0.1289
  142MOL0     H19136   9.282   2.316  -0.206 -1.3416  0.6744  0.1925
  142MOL0     H19137   9.211   2.452  -0.312  1.2554  2.7577 -1.2405
  142MOL0     H19138   9.460   2.438  -0.358  1.7367  1.9561  0.0096
  142MOL0     H19139   9.424   2.574  -0.267 -0.0129  0.3212  1.5316
  142MOL0     H19140   9.475   2.400  -0.063  0.0181  0.7847  0.5256
  142MOL0     H19141   9.603   2.489  -0.149 -1.7806  2.0041  0.3556
  142MOL0     H19142   9.515   2.191  -0.200  0.7941  0.1038 -2.4938
  142MOL0     H19143   9.596   2.295  -0.311  0.8897  2.6018 -0.1890
  142MOL0     H19144   9.783   2.340  -0.140  0.9584 -0.0887 -0.3127
  142MOL0     H19145   9.773   2.184  -0.203 -2.2406  0.7457 -1.1450
  142MOL0     H19146   9.668   2.259   0.064 -1.3455  0.2107 -1.1340
  142MOL0     H19147   9.663   2.089  -0.011  1.7618 -0.9475  0.8148
  142MOL0     H19148   9.926   2.224   0.011  0.6258 -0.6280 -1.0861
  142MOL0     H19149   9.882   2.049   0.002  0.4871 -1.1039  1.0693
  142MOL0     H19150   9.771   2.060   0.217  0.3962 -1.3104  0.7442
  142MOL0     H19151   9.841   2.227   0.238  1.0635 -1.5271  2.7768
  142MOL0     H19152   9.191   2.510   0.123  0.0824 -1.3383 -0.4043
  142MOL0     H19153   8.974   2.470   0.231  0.2225 -1.1680  0.7495
  142MOL0     H19154   8.629   2.380   0.329  1.0978  1.3160 -1.7789
  142MOL0     H19155   8.440   2.372   0.461 -1.2757 -0.4942 -0.0695
  142MOL0     H19156   7.266   3.930   0.134 -2.3249  1.8344 -4.5421
  142MOL0     H19157   7.264   4.180   0.152 -0.6517  3.0655  1.3096
  142MOL0     H19158   7.238   4.489   0.604 -0.0460 -1.2196 -0.8720
  142MOL0     H19159   7.259   4.729   0.654  0.1576 -2.2804  0.1222
  142MOL0     H19160   7.291   4.935   0.638 -0.8386  0.5587  2.9123
  142MOL0     H19161   7.275   5.075   0.535 -0.4527  0.3219 -1.2729
  142MOL0     H19162   7.058   4.947   0.713  0.7363 -0.1324  0.8427
  142MOL0     H19163   7.032   5.099   0.621 -2.7880 -2.3651  0.7120
  142MOL0     H19164   7.188   5.214   0.789  0.4872  0.1685  3.2708
  142MOL0     H19165   7.266   5.057   0.808  0.4641  1.2973  0.1675
  142MOL0     H19166   7.084   5.155   1.002  3.3241 -0.6332  0.7955
  142MOL0     H19167   7.071   4.988   0.951  0.8730  0.6951  1.7438
  142MOL0     H19168   6.718   5.230   0.856 -1.1754 -2.4844 -1.6451
  142MOL0     H19169   7.030   4.813   0.291 -0.1647  0.6909 -0.4523
  142MOL0     H19170   7.017   4.573   0.247  0.6842  2.8078 -1.5062
  143MOL0     O19171   6.838  10.481   7.646  0.4336  0.7182  0.0098
  143MOL0     C19172   6.738  10.411   7.671  0.5122 -0.4394  1.1757
  143MOL0     O19173   6.728  10.271   7.662 -0.2254 -0.4599  0.5482
  143MOL0     C19174   6.828  10.202   7.597 -0.8013  0.8597  0.9270
  143MOL0     C19175   6.786  10.111   7.501  0.2084 -0.1868  0.6994
  143MOL0     C19176   6.871  10.053   7.408  0.2341 -0.0335 -0.7549
  143MOL0     C19177   7.006  10.099   7.414 -0.0420 -0.2248  0.0194
  143MOL0     O19178   7.089  10.052   7.315 -0.6439 -0.1600  0.2277
  143MOL0     C19179   7.219  10.097   7.286 -0.1327  0.1915 -0.2862
  143MOL0     C19180   7.296  10.039   7.168  0.1845  1.0790  0.1703
  143MOL0     C19181   7.213  10.047   7.040 -0.4961 -0.5893 -0.4029
  143MOL0     C19182   7.263   9.952   6.929  0.4807  0.2545  1.2749
  143MOL0     C19183   7.186   9.956   6.800 -0.6891  0.0560  0.0744
  143MOL0     C19184   7.062   9.868   6.801 -0.3188  0.0877 -0.6660
  143MOL0     C19185   6.944   9.899   6.702  0.1656 -0.4097 -0.0107
  143MOL0     C19186   6.986   9.940   6.563 -0.6181  0.5620 -0.3222
  143MOL0     N19187   6.871   9.962   6.480  0.1617  0.0586  0.3679
  143MOL0     C19188   6.748  10.009   6.514 -0.4433  0.6016 -0.4806
  143MOL0     C19189   6.681  10.012   6.403  0.0466  0.2521 -0.8330
  143MOL0     C19190   6.542  10.073   6.391 -0.0942  0.8960  0.4088
  143MOL0     C19191   6.526  10.206   6.468  1.0441  0.1683  0.6134
  143MOL0     C19192   6.575  10.329   6.391 -0.0717 -0.9628  0.1694
  143MOL0     C19193   6.731  10.331   6.390  0.6203 -0.3583  0.1819
  143MOL0     O19194   6.773  10.351   6.528  0.0537 -0.3187 -0.6523
  143MOL0     C19195   6.908  10.330   6.547 -1.0860 -0.0384 -0.5697
  143MOL0     C19196   7.007  10.335   6.446 -0.1128 -0.0063  0.1077
  143MOL0     C19197   7.137  10.315   6.489 -0.7258  0.5799  0.0754
  143MOL0     C19198   7.228  10.301   6.375  1.2076 -0.0346  1.6246
  143MOL0     C19199   7.177  10.316   6.624  0.1359  0.3121  0.3956
  143MOL0     C19200   7.328  10.316   6.673 -0.5094 -0.9550  1.1176
  143MOL0     O19201   7.425  10.284   6.574 -0.8567 -0.5395 -0.4745
  143MOL0     C19202   7.560  10.279   6.586 -0.1537 -1.0329  0.5340
  143MOL0     C19203   7.641  10.336   6.488  0.6304  0.0296 -0.4174
  143MOL0     C19204   7.776  10.327   6.500  0.4041 -0.5079  0.2022
  143MOL0     C19205   7.837  10.261   6.613  0.5856 -0.2743  0.0090
  143MOL0     O19206   7.972  10.285   6.632  0.0069 -0.4640  0.5371
  143MOL0     C19207   8.030  10.258   6.763  0.4462 -0.5076 -0.1292
  143MOL0     C19208   8.038  10.105   6.782  0.0797 -0.5645 -0.3324
  143MOL0     C19209   8.179  10.064   6.819 -0.3005 -0.1602  0.4720
  143MOL0     C19210   8.185   9.933   6.895  0.9618 -0.0971  0.3572
  143MOL0     C19211   8.334   9.892   6.920 -0.2053  0.2117  0.0294
  143MOL0     C19212   8.360   9.755   6.985 -0.3415  0.4567  0.1834
  143MOL0     C19213   8.300   9.745   7.122 -0.2005 -0.1691  0.3698
  143MOL0     C19214   8.364   9.847   7.230  0.0753  0.2318  0.6360
  143MOL0    Cl19215   8.315   9.786   7.391 -0.2540  0.5047  0.0137
  143MOL0     C19216   7.748  10.210   6.707  0.1024  0.0365 -0.3700
  143MOL0     C19217   7.616  10.215   6.695 -0.2968 -0.3585  0.2550
  143MOL0     O19218   7.351  10.326   6.793 -0.1938 -0.0165  0.0743
  143MOL0     C19219   7.074  10.331   6.720  0.2243  0.1472  0.5801
  143MOL0     C19220   6.943  10.334   6.681 -0.4233  0.0861 -0.0798
  143MOL0     N19221   6.765   9.970   6.293 -0.4089 -0.3861 -0.3385
  143MOL0     N19222   6.885   9.946   6.345 -0.4052  0.6146  0.1979
  143MOL0     C19223   7.055  10.184   7.519  0.7106 -0.3424 -0.6063
  143MOL0     C19224   6.961  10.227   7.609 -0.9988 -0.4664 -0.8904
  143MOL0     C19225   6.603  10.480   7.697  0.0882  0.6130  0.7559
  143MOL0     C19226   6.600  10.616   7.718 -0.6306 -0.6274  0.4873
  143MOL0     C19227   6.482  10.678   7.768  0.3976 -0.9400  0.1084
  143MOL0     C19228   6.361  10.609   7.780  0.3342 -0.2333 -0.9484
  143MOL0     O19229   6.246  10.668   7.821 -0.8363 -0.5028  0.2383
  143MOL0     C19230   6.119  10.602   7.804  0.0363 -0.5909 -0.2685
  143MOL0     C19231   6.018  10.701   7.863  0.2013 -0.9036 -0.5725
  143MOL0     C19232   5.884  10.634   7.852  0.1080 -0.2560  0.4039
  143MOL0     C19233   5.765  10.722   7.888 -0.1790 -0.5472  0.6336
  143MOL0     C19234   5.748  10.818   7.777 -0.1139  0.8935  0.6128
  143MOL0     C19235   5.748  10.893   7.691  0.1425  0.6279  0.1487
  143MOL0     C19236   6.367  10.467   7.755  0.3419 -0.0804  0.0953
  143MOL0     C19237   6.487  10.407   7.721 -0.4731 -0.8496 -0.4686
  143MOL0     H19238   6.680  10.089   7.499 -0.5788  3.1625 -0.2367
  143MOL0     H19239   6.830   9.994   7.327 -1.5711 -0.7670  0.6033
  143MOL0     H19240   7.237  10.205   7.284  2.6879 -0.2192 -1.9591
  143MOL0     H19241   7.294  10.068   7.361  0.0917  0.8118 -0.2594
  143MOL0     H19242   7.382  10.105   7.155  0.8808 -0.3939 -4.4227
  143MOL0     H19243   7.326   9.934   7.171  0.4100  1.1676  1.3870
  143MOL0     H19244   7.107  10.028   7.063 -0.5903 -0.8188 -0.9882
  143MOL0     H19245   7.232  10.148   7.002  0.6497 -0.9424 -0.7922
  143MOL0     H19246   7.360   9.988   6.893 -0.3098  0.3520 -0.9346
  143MOL0     H19247   7.269   9.851   6.970  0.5891  0.3819  1.5763
  143MOL0     H19248   7.159  10.061   6.785  1.6969  0.4578 -2.0114
  143MOL0     H19249   7.252   9.926   6.717 -0.7256 -4.7339  1.4525
  143MOL0     H19250   7.090   9.763   6.802 -0.1347  0.1113  2.0214
  143MOL0     H19251   7.015   9.871   6.899 -0.6699  0.7825 -0.8442
  143MOL0     H19252   6.885   9.808   6.687 -0.7863  0.6162 -3.5145
  143MOL0     H19253   6.892   9.981   6.752  2.3297  1.8600 -1.2197
  143MOL0     H19254   7.060   9.873   6.517 -1.4168  0.1085 -0.9732
  143MOL0     H19255   7.041  10.033   6.579 -0.0155 -0.2308  3.0587
  143MOL0     H19256   6.708  10.039   6.610 -1.7145  1.1370 -1.1596
  143MOL0     H19257   6.512  10.076   6.286  0.4724  0.4588  0.2247
  143MOL0     H19258   6.481   9.991   6.431  2.5212  0.6964  4.5547
  143MOL0     H19259   6.558  10.211   6.572  0.4216  0.5091  0.7992
  143MOL0     H19260   6.419  10.231   6.474  1.5533  3.0744 -0.6083
  143MOL0     H19261   6.537  10.417   6.443  2.8993 -1.0004  2.6345
  143MOL0     H19262   6.528  10.336   6.292 -3.0927 -0.6749  1.5378
  143MOL0     H19263   6.748  10.420   6.328 -2.4348  1.1825  1.3051
  143MOL0     H19264   6.765  10.237   6.346 -1.3574 -0.3534 -1.5516
  143MOL0     H19265   6.975  10.331   6.342 -0.7275 -2.3834  0.3416
  143MOL0     H19266   7.292  10.389   6.366  0.8412  0.0140 -1.7177
  143MOL0     H19267   7.295  10.215   6.385 -0.4170 -1.1848  3.0831
  143MOL0     H19268   7.174  10.297   6.280  2.6684 -3.0045  0.8121
  143MOL0     H19269   7.599  10.397   6.408  0.1678 -0.3834 -0.4898
  143MOL0     H19270   7.841  10.390   6.440  0.5815 -0.9764 -0.0970
  143MOL0     H19271   8.123  10.315   6.773  1.1010 -1.6637  0.6559
  143MOL0     H19272   7.970  10.291   6.848  1.4282 -3.0469  1.6865
  143MOL0     H19273   7.963  10.072   6.854  0.8089  1.9242  1.6736
  143MOL0     H19274   8.009  10.070   6.682 -1.8828  0.0524 -0.0307
  143MOL0     H19275   8.209  10.147   6.884 -2.5322  2.5841 -1.6735
  143MOL0     H19276   8.240  10.053   6.729  1.3199  0.3966  1.4530
  143MOL0     H19277   8.123   9.926   6.985 -3.7161 -3.3502 -2.6594
  143MOL0     H19278   8.119   9.871   6.834 -1.9270  1.2001  1.9456
  143MOL0     H19279   8.377   9.967   6.987  1.6480 -0.8129  0.0245
  143MOL0     H19280   8.384   9.900   6.824  1.2626  2.3356  0.8834
  143MOL0     H19281   8.321   9.671   6.926  2.5803 -1.1595  0.3230
  143MOL0     H19282   8.466   9.728   6.986  0.0429  1.3618 -3.2731
  143MOL0     H19283   8.323   9.648   7.165 -0.4937 -0.0533  0.7979
  143MOL0     H19284   8.192   9.762   7.130 -0.2615 -1.0344  1.6303
  143MOL0     H19285   8.336   9.952   7.216  2.1218  0.4734 -2.4885
  143MOL0     H19286   8.472   9.849   7.216 -0.0335 -0.5774 -0.4433
  143MOL0     H19287   7.790  10.170   6.798 -1.4915 -1.9584 -0.4518
  143MOL0     H19288   7.556  10.173   6.776  0.2104  0.4290  1.0670
  143MOL0     H19289   7.092  10.345   6.826 -2.3805 -1.0559  1.2640
  143MOL0     H19290   6.864  10.346   6.754  1.0060 -5.6369  2.9806
  143MOL0     H19291   7.161  10.204   7.534  0.3706  1.0463  0.0787
  143MOL0     H19292   7.012  10.288   7.683  0.7502  0.8287 -3.0217
  143MOL0     H19293   6.686  10.680   7.699 -2.2651  1.6202  0.1290
  143MOL0     H19294   6.484  10.785   7.784  4.3976 -0.8500  0.1221
  143MOL0     H19295   6.102  10.581   7.698  2.0404 -0.1048 -0.7221
  143MOL0     H19296   6.110  10.506   7.856  0.5026 -1.5968 -1.9508
  143MOL0     H19297   6.023  10.800   7.819 -3.5742 -0.5695 -0.5615
  143MOL0     H19298   6.049  10.708   7.968  1.9755 -2.0054 -0.9774
  143MOL0     H19299   5.877  10.564   7.936 -1.8716 -3.1346 -1.9623
  143MOL0     H19300   5.872  10.579   7.759  3.1913 -0.5570  0.0635
  143MOL0     H19301   5.796  10.776   7.978  2.5909 -2.9352  1.2822
  143MOL0     H19302   5.672  10.667   7.907  1.4250 -2.8121  2.5755
  143MOL0     H19303   5.736  10.951   7.602 -2.4409 -2.4941 -1.7912
  143MOL0     H19304   6.285  10.398   7.770  0.9351 -0.6551  0.7314
  143MOL0     H19305   6.500  10.301   7.705 -0.7943 -0.8093 -0.9853
  144MOL0     O19306   0.728   0.262  11.314  0.4221 -0.1059  0.9508
  144MOL0     C19307   0.669   0.215  11.413  0.1294  0.1084  0.3427
  144MOL0     O19308   0.689   0.102  11.475  0.0795  0.7134  0.4047
  144MOL0     C19309   0.813   0.051  11.490 -0.5664 -0.7031  0.7244
  144MOL0     C19310   0.935   0.124  11.464  1.2078  0.5879  0.3388
  144MOL0     C19311   1.057   0.057  11.489  0.2062 -0.3275 -0.7316
  144MOL0     C19312   1.066  -0.075  11.534 -0.2216 -0.5662 -0.0548
  144MOL0     O19313   1.195  -0.116  11.568  0.5636 -0.5865 -0.7310
  144MOL0     C19314   1.222  -0.256  11.543 -0.3073  0.2383  0.5610
  144MOL0     C19315   1.377  -0.287  11.537  0.2234  0.3923  0.7773
  144MOL0     C19316   1.414  -0.396  11.446 -0.8356 -0.1331  0.2914
  144MOL0     C19317   1.569  -0.409  11.453 -0.2936  1.0847  0.7192
  144MOL0     C19318   1.628  -0.526  11.373 -0.5699  0.0097 -0.4601
  144MOL0     C19319   1.655  -0.657  11.443  0.6569 -0.4859  0.1797
  144MOL0     C19320   1.773  -0.677  11.548  0.1587 -0.5197  0.4389
  144MOL0     C19321   1.904  -0.717  11.474  0.3648  0.2450  0.0349
  144MOL0     N19322   1.890  -0.832  11.383  0.2559 -0.1368 -0.1713
  144MOL0     C19323   1.892  -0.960  11.433 -0.5994 -0.5877  0.4244
  144MOL0     C19324   1.891  -1.038  11.320 -0.2592 -0.5020 -0.0095
  144MOL0     C19325   1.876  -1.196  11.308  0.6976 -0.2739  0.6225
  144MOL0     C19326   1.996  -1.281  11.359  1.0220  0.0512  1.2046
  144MOL0     C19327   1.975  -1.433  11.340  0.7869 -0.2972  0.8663
  144MOL0     C19328   1.913  -1.478  11.208  0.4476 -1.6180 -0.2450
  144MOL0     O19329   1.966  -1.423  11.092 -0.3789 -0.3570  0.2378
  144MOL0     C19330   2.086  -1.483  11.070 -0.7971  0.8281 -0.7488
  144MOL0     C19331   2.198  -1.403  11.095 -0.3326 -0.2159 -0.9495
  144MOL0     C19332   2.327  -1.455  11.074 -0.3666 -0.0015  0.6835
  144MOL0     C19333   2.455  -1.382  11.108  0.3213  0.0118  0.7314
  144MOL0     C19334   2.352  -1.575  11.007 -0.4046  0.2342 -0.6573
  144MOL0     C19335   2.478  -1.637  10.982 -0.0439 -0.1832  0.3667
  144MOL0     O19336   2.513  -1.665  10.854  0.6518  0.6798 -0.1137
  144MOL0     C19337   2.624  -1.732  10.836  0.9747  0.6871 -0.1263
  144MOL0     C19338   2.647  -1.865  10.861 -0.1936  0.5558 -0.5247
  144MOL0     C19339   2.770  -1.926  10.821  0.2457 -0.0840  0.9273
  144MOL0     C19340   2.869  -1.850  10.762 -0.2128 -0.0079 -0.1805
  144MOL0     O19341   2.977  -1.937  10.726  0.0350  0.7310 -0.0774
  144MOL0     C19342   3.056  -1.908  10.619  0.2039  0.5405  0.0214
  144MOL0     C19343   3.150  -2.023  10.581  1.0087 -0.3322 -0.5892
  144MOL0     C19344   3.071  -2.131  10.502  0.0648  0.0128 -0.3615
  144MOL0     C19345   3.099  -2.279  10.541 -0.0269  0.0567  0.0852
  144MOL0     C19346   2.989  -2.384  10.516 -0.1986 -0.1422  0.0588
  144MOL0     C19347   2.987  -2.440  10.373 -0.3760 -0.2571  0.2087
  144MOL0     C19348   2.935  -2.581  10.374  0.2506  0.8278  0.4166
  144MOL0     C19349   2.921  -2.654  10.235  0.8120  0.7994  0.4109
  144MOL0    Cl19350   2.804  -2.583  10.139  0.0755 -0.4441  0.2402
  144MOL0     C19351   2.844  -1.719  10.729 -1.4216 -0.3787 -0.6397
  144MOL0     C19352   2.721  -1.662  10.767  0.6045 -0.4612  1.0114
  144MOL0     O19353   2.541  -1.668  11.079 -0.8851  0.3145  0.5424
  144MOL0     C19354   2.236  -1.651  10.975  0.6154  0.5804  0.0545
  144MOL0     C19355   2.109  -1.610  11.010 -0.5888 -0.0057 -0.6046
  144MOL0     N19356   1.880  -0.949  11.212 -0.6265  1.0411 -0.4555
  144MOL0     N19357   1.889  -0.824  11.246  0.7390  0.4115  0.0170
  144MOL0     C19358   0.948  -0.139  11.574  1.1120  1.4091  0.0136
  144MOL0     C19359   0.825  -0.078  11.549 -0.2818  0.3177  0.6525
  144MOL0     C19360   0.540   0.269  11.443 -0.2502  0.9154  0.4025
  144MOL0     C19361   0.428   0.195  11.484  0.2625 -0.4254  0.2795
  144MOL0     C19362   0.304   0.266  11.507  0.3599  0.4702 -0.5076
  144MOL0     C19363   0.291   0.396  11.490  0.2721  0.0841 -0.2085
  144MOL0     O19364   0.166   0.447  11.519  0.0698  0.2578 -0.1335
  144MOL0     C19365   0.104   0.527  11.416 -0.2513  0.3346 -0.9552
  144MOL0     C19366  -0.052   0.512  11.434  0.0706  0.1285  0.8997
  144MOL0     C19367  -0.144   0.627  11.383  0.7174 -0.4093 -0.1704
  144MOL0     C19368  -0.132   0.630  11.233 -0.2954  0.4105  0.4690
  144MOL0     C19369  -0.212   0.734  11.172 -0.7536  0.1756  0.4415
  144MOL0     C19370  -0.269   0.826  11.112  0.2657 -0.3606 -0.3106
  144MOL0     C19371   0.402   0.465  11.448  0.9998 -0.7422  0.1633
  144MOL0     C19372   0.526   0.407  11.429  1.1479 -0.2142  0.7631
  144MOL0     H19373   0.932   0.222  11.416 -1.6706  0.4078 -0.0016
  144MOL0     H19374   1.140   0.126  11.473 -0.2813  0.1220 -1.3967
  144MOL0     H19375   1.173  -0.328  11.610  1.1392 -0.3509  1.0186
  144MOL0     H19376   1.175  -0.273  11.446 -0.1310  0.5320  0.4230
  144MOL0     H19377   1.433  -0.197  11.509 -0.3733  0.1015 -1.6554
  144MOL0     H19378   1.413  -0.314  11.636  1.1776 -2.7931 -0.2917
  144MOL0     H19379   1.368  -0.484  11.492 -1.5203  1.7619  3.5692
  144MOL0     H19380   1.379  -0.376  11.345  2.0379 -0.9805 -0.9571
  144MOL0     H19381   1.602  -0.322  11.395 -4.1879  0.1425 -3.4595
  144MOL0     H19382   1.620  -0.405  11.550  3.8978  0.8795 -1.2324
  144MOL0     H19383   1.563  -0.543  11.287  0.1968  6.3475 -2.8070
  144MOL0     H19384   1.720  -0.484  11.332 -0.6352  2.2399  1.4317
  144MOL0     H19385   1.558  -0.673  11.492  1.0629 -2.3553  0.4273
  144MOL0     H19386   1.655  -0.731  11.363  1.4573 -3.0321  2.3901
  144MOL0     H19387   1.789  -0.588  11.609  0.0270 -0.9854  1.1714
  144MOL0     H19388   1.753  -0.767  11.607 -6.2127 -0.1904 -0.5189
  144MOL0     H19389   1.982  -0.745  11.546  0.1686 -2.1423 -0.6060
  144MOL0     H19390   1.938  -0.631  11.415  2.2328 -0.4914 -0.0380
  144MOL0     H19391   1.906  -0.984  11.537 -2.4262  3.6545  1.8965
  144MOL0     H19392   1.781  -1.229  11.351 -0.5270  0.5930 -1.3302
  144MOL0     H19393   1.866  -1.205  11.200  1.6053  0.0378  0.5035
  144MOL0     H19394   2.018  -1.261  11.464 -1.3115  1.6131  1.4706
  144MOL0     H19395   2.084  -1.261  11.298 -2.1296  2.6114 -3.0876
  144MOL0     H19396   1.914  -1.479  11.418  3.7451 -4.2654  1.1500
  144MOL0     H19397   2.073  -1.481  11.340  0.6700 -0.5378  0.3246
  144MOL0     H19398   1.807  -1.451  11.213  0.9403  0.4556  4.5392
  144MOL0     H19399   1.920  -1.585  11.184  0.1037 -0.9528 -3.7956
  144MOL0     H19400   2.207  -1.309  11.147  3.1528 -2.3948  2.9693
  144MOL0     H19401   2.497  -1.440  11.191 -1.1267 -1.4126  0.5198
  144MOL0     H19402   2.520  -1.390  11.021 -0.1055 -3.3396  0.5945
  144MOL0     H19403   2.440  -1.280  11.144  2.1266 -0.6001  3.6024
  144MOL0     H19404   2.572  -1.932  10.900  0.8779 -1.5411 -1.8729
  144MOL0     H19405   2.784  -2.033  10.837 -3.1933 -0.4054  2.8760
  144MOL0     H19406   2.996  -1.890  10.530 -1.7888 -0.8904  1.0018
  144MOL0     H19407   3.113  -1.818  10.646 -0.2188  1.0150 -0.6335
  144MOL0     H19408   3.232  -1.981  10.522  0.6049  1.0356 -0.2360
  144MOL0     H19409   3.211  -2.065  10.661  3.6207  0.6414 -1.9736
  144MOL0     H19410   3.090  -2.111  10.397  0.1546  0.0357 -0.3405
  144MOL0     H19411   2.962  -2.124  10.517 -1.0520 -0.6492 -6.0236
  144MOL0     H19412   3.186  -2.303  10.479  1.8182  0.0199  2.5301
  144MOL0     H19413   3.127  -2.284  10.646  0.5197  0.2485 -0.0477
  144MOL0     H19414   2.889  -2.345  10.539  0.3211  1.1129  0.2571
  144MOL0     H19415   2.984  -2.454  10.600  2.4877 -0.1008  0.3375
  144MOL0     H19416   2.927  -2.366  10.321 -1.8600 -0.2341  1.8657
  144MOL0     H19417   3.090  -2.439  10.336 -0.5796 -0.1187 -0.3704
  144MOL0     H19418   2.837  -2.588  10.421  0.4144 -1.4709  0.5494
  144MOL0     H19419   2.992  -2.645  10.443  0.3788 -0.2642 -0.6657
  144MOL0     H19420   2.901  -2.762  10.244  2.2884  0.5741  1.2667
  144MOL0     H19421   3.021  -2.651  10.190  1.3648 -1.5894  1.2843
  144MOL0     H19422   2.916  -1.665  10.669  1.3157 -0.3879  2.3465
  144MOL0     H19423   2.697  -1.557  10.750 -1.5885 -0.9148  1.0688
  144MOL0     H19424   2.254  -1.747  10.927 -2.5763 -1.8437  3.1694
  144MOL0     H19425   2.022  -1.674  10.999 -0.6096 -0.1999  0.5673
  144MOL0     H19426   0.966  -0.237  11.618  0.9845  1.4515  0.1611
  144MOL0     H19427   0.737  -0.125  11.592  1.9147 -1.4836  3.5211
  144MOL0     H19428   0.430   0.087  11.496  0.7051 -0.5731 -1.0098
  144MOL0     H19429   0.218   0.209  11.541 -0.9298  3.0705  0.8414
  144MOL0     H19430   0.135   0.632  11.422  0.2261  0.1416  0.2364
  144MOL0     H19431   0.144   0.499  11.318 -2.1726 -1.9205 -1.1724
  144MOL0     H19432  -0.079   0.505  11.540 -2.4295 -1.1755  0.2485
  144MOL0     H19433  -0.079   0.413  11.396  1.5631  0.2302 -0.5206
  144MOL0     H19434  -0.133   0.722  11.437  0.3187  0.3681 -1.4234
  144MOL0     H19435  -0.243   0.600  11.419  0.1742  2.0328  0.3823
  144MOL0     H19436  -0.179   0.535  11.206  0.3753 -0.0694  0.9735
  144MOL0     H19437  -0.028   0.631  11.199  0.4147  1.1158  2.5095
  144MOL0     H19438  -0.323   0.908  11.067  1.5066 -0.0899 -1.3379
  144MOL0     H19439   0.397   0.571  11.426  3.7802 -0.4889  0.4751
  144MOL0     H19440   0.615   0.463  11.402  2.7562 -1.9191  2.3073
  145MOL0     O19441   4.956   9.111   1.493 -0.5118 -0.1864  0.3937
  145MOL0     C19442   4.876   9.014   1.469 -0.7805  0.4753 -2.1598
  145MOL0     O19443   4.797   8.958   1.558  0.1269 -0.0745  0.0234
  145MOL0     C19444   4.794   8.993   1.694 -0.4496 -0.5926  0.0155
  145MOL0     C19445   4.914   9.032   1.762  0.0902  0.5591 -0.2319
  145MOL0     C19446   4.919   9.058   1.901 -0.0175 -0.5214  0.1128
  145MOL0     C19447   4.799   9.064   1.970 -0.2675  0.0098  1.0325
  145MOL0     O19448   4.797   9.097   2.107 -0.6535 -0.1135 -0.1613
  145MOL0     C19449   4.675   9.156   2.166  1.4910  0.4256  0.8021
  145MOL0     C19450   4.719   9.251   2.277  0.3982 -0.2342 -0.8173
  145MOL0     C19451   4.590   9.315   2.334  0.5596 -0.4742  0.2723
  145MOL0     C19452   4.628   9.440   2.407  0.7722 -0.1471  0.1265
  145MOL0     C19453   4.727   9.427   2.529 -0.1322 -0.4738 -1.4898
  145MOL0     C19454   4.697   9.330   2.642  0.0716 -0.0225  0.2534
  145MOL0     C19455   4.805   9.323   2.753 -0.7171 -0.1255 -0.1516
  145MOL0     C19456   4.775   9.222   2.864  0.4079 -0.3218  0.5704
  145MOL0     N19457   4.807   9.081   2.828  0.6386 -0.6576  1.0734
  145MOL0     C19458   4.920   9.015   2.851  0.7609  0.4291  1.0715
  145MOL0     C19459   4.881   8.888   2.825 -0.4204 -0.1914  0.3772
  145MOL0     C19460   4.976   8.767   2.836  0.0224 -0.4665  0.3049
  145MOL0     C19461   4.908   8.645   2.922  0.5706  0.3965 -0.1007
  145MOL0     C19462   4.852   8.524   2.837 -0.3579  0.1664  0.4955
  145MOL0     C19463   4.968   8.425   2.794 -0.4754  0.6144  0.2246
  145MOL0     O19464   4.910   8.312   2.730  0.4887  0.2515  0.9798
  145MOL0     C19465   4.867   8.345   2.600  0.1061 -0.2837 -0.5046
  145MOL0     C19466   4.910   8.452   2.517 -0.1479 -0.3849 -0.4456
  145MOL0     C19467   4.859   8.469   2.387 -0.5777  0.5434  0.0354
  145MOL0     C19468   4.912   8.592   2.315  1.0408 -1.1672  0.3479
  145MOL0     C19469   4.769   8.367   2.344 -0.4838 -0.8446 -0.1294
  145MOL0     C19470   4.713   8.365   2.201  0.1792  0.6544 -1.3172
  145MOL0     O19471   4.624   8.261   2.192  0.0902  0.5732 -0.0977
  145MOL0     C19472   4.582   8.207   2.079 -0.0587 -0.3558  0.3355
  145MOL0     C19473   4.665   8.197   1.967 -0.7043  0.8883 -0.0084
  145MOL0     C19474   4.621   8.139   1.852  0.0534  0.6194 -0.3673
  145MOL0     C19475   4.494   8.081   1.853  0.0622 -0.5460  0.3420
  145MOL0     O19476   4.444   8.011   1.750  0.5194 -0.3799 -0.3040
  145MOL0     C19477   4.540   7.929   1.678  0.4110 -0.7762  0.6520
  145MOL0     C19478   4.544   7.996   1.533  0.6293  0.2439 -0.1391
  145MOL0     C19479   4.612   7.907   1.427 -0.4960 -0.7093  0.7072
  145MOL0     C19480   4.739   7.843   1.489  0.1233 -0.1819  0.0824
  145MOL0     C19481   4.810   7.770   1.373 -0.0364 -0.8043 -0.0633
  145MOL0     C19482   4.902   7.658   1.426  0.9810  0.0976  0.0594
  145MOL0     C19483   4.992   7.696   1.538  0.2809 -0.6721  0.6878
  145MOL0     C19484   5.037   7.547   1.585 -0.2121 -0.2943 -0.6818
  145MOL0    Cl19485   5.170   7.505   1.470  0.3013 -0.4746  0.0269
  145MOL0     C19486   4.406   8.106   1.959 -0.1690 -0.2051 -0.9065
  145MOL0     C19487   4.462   8.147   2.075 -0.2706  0.4600  0.2865
  145MOL0     O19488   4.731   8.455   2.129  0.3822 -0.4273 -0.2720
  145MOL0     C19489   4.730   8.266   2.435  0.4382 -0.7577  0.9588
  145MOL0     C19490   4.789   8.246   2.557 -0.1900 -0.4385  0.2922
  145MOL0     N19491   4.751   8.878   2.778  0.8826 -0.5099  0.4724
  145MOL0     N19492   4.706   8.996   2.779 -0.5294  0.8236 -0.1325
  145MOL0     C19493   4.680   9.028   1.896  1.5931  0.2576  0.0683
  145MOL0     C19494   4.676   8.982   1.768  0.0208  0.1135  0.7518
  145MOL0     C19495   4.873   8.965   1.337  0.0087  0.4030 -0.4023
  145MOL0     C19496   4.982   8.909   1.269  0.8808 -0.4676  0.2956
  145MOL0     C19497   4.972   8.870   1.135 -1.1680  0.3785  0.0109
  145MOL0     C19498   4.855   8.876   1.070  0.0264  0.8369 -0.3251
  145MOL0     O19499   4.834   8.832   0.945 -0.4105  0.0225  0.6860
  145MOL0     C19500   4.943   8.806   0.853  0.7173  0.4553 -1.1170
  145MOL0     C19501   4.987   8.658   0.871 -1.1220  0.5010  0.6826
  145MOL0     C19502   4.894   8.559   0.794 -0.1142 -0.3157  0.4760
  145MOL0     C19503   4.955   8.419   0.798  1.9581 -0.1478 -0.1602
  145MOL0     C19504   5.078   8.427   0.710  0.1964 -0.5463  0.2590
  145MOL0     C19505   5.175   8.432   0.639  0.0500 -0.3858 -0.5663
  145MOL0     C19506   4.732   8.917   1.134 -0.5866  0.0418  0.2100
  145MOL0     C19507   4.747   8.955   1.270  0.0501 -0.2764  1.1191
  145MOL0     H19508   5.009   9.043   1.710  0.6215 -0.0802  0.5687
  145MOL0     H19509   5.015   9.094   1.937 -0.9425  3.3707 -0.7627
  145MOL0     H19510   4.622   9.215   2.091  0.9904 -1.1676 -0.1387
  145MOL0     H19511   4.606   9.080   2.203  0.8215 -0.5391 -2.1365
  145MOL0     H19512   4.760   9.190   2.358 -1.0908 -2.5655 -1.7024
  145MOL0     H19513   4.800   9.315   2.242  0.7679  0.1937  0.7739
  145MOL0     H19514   4.517   9.338   2.257 -1.4949  1.1202  2.5397
  145MOL0     H19515   4.550   9.242   2.405 -0.5398 -2.6743 -2.4222
  145MOL0     H19516   4.648   9.527   2.344 -2.5976  2.7137  2.6142
  145MOL0     H19517   4.533   9.467   2.455  1.5499  1.9010  0.5992
  145MOL0     H19518   4.813   9.379   2.482 -1.5121 -2.3724 -2.2167
  145MOL0     H19519   4.748   9.521   2.581  3.5266 -1.1162 -1.5366
  145MOL0     H19520   4.601   9.357   2.687 -0.2270  1.5355 -1.2146
  145MOL0     H19521   4.682   9.228   2.605 -1.5272  1.1850 -2.8114
  145MOL0     H19522   4.902   9.299   2.708 -1.5615 -0.4606 -1.8554
  145MOL0     H19523   4.812   9.419   2.804 -0.5209 -1.5765  2.7693
  145MOL0     H19524   4.670   9.237   2.891  0.2471  2.7792 -1.2689
  145MOL0     H19525   4.828   9.253   2.954 -2.3738  0.3169  2.1181
  145MOL0     H19526   5.019   9.049   2.881  0.8056 -1.8103  3.8639
  145MOL0     H19527   4.992   8.706   2.746 -1.7741 -1.3811  0.5461
  145MOL0     H19528   5.067   8.796   2.889 -0.3322 -2.9354  2.4881
  145MOL0     H19529   4.832   8.685   2.989  3.3060  1.3476  2.6390
  145MOL0     H19530   4.982   8.607   2.992 -0.0324 -1.2868 -0.3326
  145MOL0     H19531   4.804   8.569   2.749 -0.2358 -0.7041 -0.0235
  145MOL0     H19532   4.763   8.481   2.886 -0.8881 -0.2959 -0.8376
  145MOL0     H19533   5.015   8.374   2.879 -0.1489  0.3294 -0.1217
  145MOL0     H19534   5.042   8.476   2.732 -2.4421 -0.1760 -3.0002
  145MOL0     H19535   4.983   8.524   2.552 -0.6737  0.1685 -0.4656
  145MOL0     H19536   4.837   8.664   2.281  1.0025 -2.2800 -2.0653
  145MOL0     H19537   4.984   8.643   2.379  2.8359 -1.4796 -1.3357
  145MOL0     H19538   4.969   8.562   2.227 -0.8007 -1.7325 -0.7182
  145MOL0     H19539   4.768   8.229   1.986 -0.5145 -0.0730  0.6346
  145MOL0     H19540   4.689   8.130   1.768 -2.7468  0.5294 -2.7704
  145MOL0     H19541   4.642   7.915   1.716  2.5340  0.1259 -3.9631
  145MOL0     H19542   4.511   7.826   1.657 -1.7943  0.0292 -0.6691
  145MOL0     H19543   4.442   8.024   1.505  1.0144  3.5093  1.2813
  145MOL0     H19544   4.586   8.097   1.536  3.1582 -0.7365  0.1375
  145MOL0     H19545   4.637   7.977   1.347  0.9049 -1.7770  0.1756
  145MOL0     H19546   4.541   7.828   1.400  1.2731 -2.0617 -0.2402
  145MOL0     H19547   4.797   7.919   1.542 -0.2307 -0.8444  1.4608
  145MOL0     H19548   4.704   7.762   1.554  0.2301 -0.6243 -0.3994
  145MOL0     H19549   4.875   7.836   1.314 -0.6764  1.6423  1.8157
  145MOL0     H19550   4.729   7.733   1.309 -2.3928 -3.5328  4.0570
  145MOL0     H19551   4.836   7.579   1.461  1.6059 -1.1874 -1.5326
  145MOL0     H19552   4.957   7.612   1.343 -2.5733 -1.9648 -1.3737
  145MOL0     H19553   4.937   7.725   1.628  1.5650  0.1697  1.2188
  145MOL0     H19554   5.078   7.759   1.516  0.9612 -1.2680  1.5662
  145MOL0     H19555   4.954   7.477   1.574  0.1313 -0.8623  0.2636
  145MOL0     H19556   5.078   7.555   1.686  2.7670  0.6752 -1.8410
  145MOL0     H19557   4.307   8.063   1.949 -0.5298  0.9679 -2.7305
  145MOL0     H19558   4.388   8.152   2.155 -0.5671 -2.6234  0.2957
  145MOL0     H19559   4.662   8.184   2.417  0.1306 -0.3916  0.4481
  145MOL0     H19560   4.773   8.158   2.619  0.2493 -1.6875 -1.3199
  145MOL0     H19561   4.587   9.013   1.950 -1.1254  0.2525 -4.1704
  145MOL0     H19562   4.593   8.934   1.718  0.7576  0.2555 -0.6488
  145MOL0     H19563   5.084   8.905   1.306  1.5619 -0.9779 -1.5236
  145MOL0     H19564   5.065   8.828   1.098 -1.5211 -0.1127 -0.3393
  145MOL0     H19565   4.901   8.826   0.754 -0.6596 -1.8216 -1.0593
  145MOL0     H19566   5.022   8.877   0.880 -0.9496  0.9402  3.5275
  145MOL0     H19567   5.005   8.640   0.978  1.3562 -2.2758 -0.0751
  145MOL0     H19568   5.088   8.658   0.829 -0.3585  0.4547  2.4073
  145MOL0     H19569   4.890   8.584   0.688 -0.3220  2.8350  1.1323
  145MOL0     H19570   4.798   8.551   0.845  0.1555  2.6530  1.6528
  145MOL0     H19571   4.874   8.355   0.760  1.2529  0.4678  0.2695
  145MOL0     H19572   4.988   8.389   0.898  1.4727  1.6384  0.5690
  145MOL0     H19573   5.267   8.444   0.588 -0.8201  0.4748 -1.9852
  145MOL0     H19574   4.643   8.922   1.074 -0.9112  2.1726  0.7731
  145MOL0     H19575   4.662   8.992   1.325 -0.8512  0.1323 -0.4904
  146MOL0     O19576   8.785   1.780   9.082 -0.6414  0.2251 -0.2081
  146MOL0     C19577   8.822   1.677   9.023 -0.1622 -0.3123  0.2298
  146MOL0     O19578   8.816   1.553   9.082 -0.0233  0.1163 -0.7033
  146MOL0     C19579   8.761   1.529   9.207  0.5036 -0.9738 -0.4607
  146MOL0     C19580   8.637   1.463   9.223 -0.1494  0.8989  0.2063
  146MOL0     C19581   8.579   1.462   9.345 -0.0892  0.1756 -0.8564
  146MOL0     C19582   8.631   1.526   9.458  0.0237  0.3781 -0.2005
  146MOL0     O19583   8.552   1.540   9.566  0.2509  1.2310  0.1507
  146MOL0     C19584   8.616   1.565   9.689 -0.6055  0.4217  0.0979
  146MOL0     C19585   8.509   1.614   9.787  0.2902 -0.3563  0.7763
  146MOL0     C19586   8.414   1.503   9.837  0.3477  1.1072  0.0497
  146MOL0     C19587   8.471   1.413   9.938  0.0744 -0.6109  0.2970
  146MOL0     C19588   8.372   1.309   9.998  0.4475 -0.8395  0.2271
  146MOL0     C19589   8.274   1.361  10.105  0.1412 -0.4873  0.0138
  146MOL0     C19590   8.234   1.251  10.197  0.6437 -0.5123 -0.1977
  146MOL0     C19591   8.122   1.293  10.307 -0.2751  0.0775  0.5579
  146MOL0     N19592   7.985   1.307  10.248 -0.2965  1.2892  0.0646
  146MOL0     C19593   7.916   1.207  10.187 -0.3361 -0.0866  0.3063
  146MOL0     C19594   7.799   1.260  10.133 -0.9085  0.4609 -0.6610
  146MOL0     C19595   7.708   1.183  10.043  0.4359 -0.1489 -0.3300
  146MOL0     C19596   7.687   1.251   9.916  0.0550 -0.2627  0.1560
  146MOL0     C19597   7.826   1.281   9.837  0.1267  0.5973 -0.5988
  146MOL0     C19598   7.858   1.425   9.845  0.2656  0.8080 -0.2758
  146MOL0     O19599   7.941   1.437   9.729 -0.0724  0.3133 -0.1158
  146MOL0     C19600   8.019   1.540   9.696 -0.1892 -1.3095  0.0838
  146MOL0     C19601   8.021   1.655   9.773  0.0301 -0.5912 -0.0089
  146MOL0     C19602   8.100   1.771   9.729  0.4219  0.3248 -0.9518
  146MOL0     C19603   8.076   1.898   9.814  0.7274  0.4312 -0.4834
  146MOL0     C19604   8.184   1.758   9.623  0.1581 -0.1113  0.0583
  146MOL0     C19605   8.272   1.863   9.584 -1.2907  1.2980  0.0755
  146MOL0     O19606   8.273   1.882   9.449 -0.2853  0.2932 -0.1649
  146MOL0     C19607   8.370   1.964   9.398 -0.5154 -0.2887 -0.5069
  146MOL0     C19608   8.356   2.110   9.383  0.2115  0.0502 -1.0373
  146MOL0     C19609   8.448   2.187   9.314 -0.6967 -0.2101  0.3695
  146MOL0     C19610   8.573   2.138   9.265  1.7475  0.1472 -0.5161
  146MOL0     O19611   8.661   2.221   9.196 -0.6807  0.1417  0.1900
  146MOL0     C19612   8.780   2.154   9.148 -0.2148  0.1841  1.0116
  146MOL0     C19613   8.859   2.266   9.072  0.1799 -1.0318 -0.0582
  146MOL0     C19614   8.971   2.202   8.978  1.6397  0.3430 -0.6031
  146MOL0     C19615   9.061   2.315   8.929 -0.7298  0.6096  0.3932
  146MOL0     C19616   9.202   2.280   8.881 -0.2636  0.4352  0.3841
  146MOL0     C19617   9.267   2.380   8.771  0.9238  1.1379  0.5593
  146MOL0     C19618   9.417   2.340   8.751 -0.2019  0.8253 -0.4919
  146MOL0     C19619   9.490   2.463   8.705  0.1404  0.7896  0.6523
  146MOL0    Cl19620   9.663   2.426   8.658 -0.1788  0.0970  0.8057
  146MOL0     C19621   8.586   1.993   9.288 -0.8197  0.4641  1.0511
  146MOL0     C19622   8.491   1.912   9.346  0.5368  0.6268  0.3464
  146MOL0     O19623   8.340   1.921   9.666  0.1092 -0.5466  0.8983
  146MOL0     C19624   8.178   1.641   9.550 -0.9302 -0.1033  0.4791
  146MOL0     C19625   8.093   1.537   9.582 -0.3840  0.4555 -0.0455
  146MOL0     N19626   7.796   1.390  10.184 -0.4061 -0.1017 -0.2328
  146MOL0     N19627   7.908   1.415  10.259  0.2254 -1.0775 -0.2726
  146MOL0     C19628   8.758   1.582   9.444  0.0160  0.8878  0.8094
  146MOL0     C19629   8.817   1.585   9.317 -0.3379  0.6664  0.1659
  146MOL0     C19630   8.892   1.691   8.890  0.4060 -0.3111 -0.2078
  146MOL0     C19631   8.920   1.819   8.829 -0.4766  1.1185  0.2082
  146MOL0     C19632   8.974   1.837   8.703 -0.3826 -0.1350 -0.2416
  146MOL0     C19633   9.036   1.735   8.640  0.3476  0.2094 -1.3840
  146MOL0     O19634   9.081   1.746   8.504  1.1923  0.5702  0.6846
  146MOL0     C19635   8.979   1.786   8.403  0.3836 -0.1031 -0.0007
  146MOL0     C19636   9.027   1.908   8.331 -0.1836  0.1566 -0.0406
  146MOL0     C19637   9.163   1.883   8.258 -1.1388 -0.9203 -0.5834
  146MOL0     C19638   9.245   2.015   8.245  0.1018  0.8357 -0.0991
  146MOL0     C19639   9.356   1.993   8.148  0.5834 -0.8147 -1.0273
  146MOL0     C19640   9.452   1.972   8.082  0.3017 -0.0055  0.4915
  146MOL0     C19641   9.032   1.610   8.705  0.1243  1.3679  0.2936
  146MOL0     C19642   8.965   1.590   8.828 -0.5231  0.3975 -0.2051
  146MOL0     H19643   8.589   1.409   9.143  1.0381  3.8480 -2.7466
  146MOL0     H19644   8.486   1.408   9.361 -1.3852  2.9987  2.3277
  146MOL0     H19645   8.662   1.472   9.724 -0.8770  0.0222 -0.5930
  146MOL0     H19646   8.684   1.650   9.683  0.6978 -0.6780 -1.9849
  146MOL0     H19647   8.554   1.661   9.875  2.6150  2.8034 -1.8408
  146MOL0     H19648   8.453   1.687   9.728 -0.2116 -1.8962 -0.7099
  146MOL0     H19649   8.323   1.546   9.881 -1.0480 -1.4666 -0.1337
  146MOL0     H19650   8.380   1.443   9.751  0.4837  2.5315 -1.0348
  146MOL0     H19651   8.560   1.369   9.892  1.1334 -0.3662  2.0113
  146MOL0     H19652   8.517   1.456  10.028 -1.9423 -0.6063  1.3708
  146MOL0     H19653   8.314   1.265   9.916 -1.3071  1.3315  0.2099
  146MOL0     H19654   8.439   1.234  10.040  0.5913 -2.0374 -1.9725
  146MOL0     H19655   8.318   1.443  10.162 -3.0531 -0.0275  2.0687
  146MOL0     H19656   8.184   1.397  10.054 -0.5764 -0.1982  1.4298
  146MOL0     H19657   8.193   1.160  10.151 -1.1417 -0.3107  0.8635
  146MOL0     H19658   8.326   1.238  10.255  1.6122  3.2311 -0.6317
  146MOL0     H19659   8.139   1.393  10.347  0.4655  0.7843 -1.3895
  146MOL0     H19660   8.114   1.224  10.392  1.7097 -1.9331 -0.7491
  146MOL0     H19661   7.955   1.107  10.172  1.7933  1.0584 -2.7004
  146MOL0     H19662   7.740   1.080  10.024  0.6773 -0.6271  2.3666
  146MOL0     H19663   7.610   1.181  10.092  0.1286  2.1858 -0.7377
  146MOL0     H19664   7.634   1.345   9.933 -1.0600 -0.8674  0.0846
  146MOL0     H19665   7.624   1.188   9.853 -1.2772  3.3723 -2.5035
  146MOL0     H19666   7.801   1.261   9.733 -0.9903 -0.1316 -0.2214
  146MOL0     H19667   7.906   1.215   9.872  0.7166  2.3576  1.6761
  146MOL0     H19668   7.897   1.450   9.944 -0.9708  0.6473  0.2746
  146MOL0     H19669   7.775   1.494   9.824  0.1644  1.1316  1.0882
  146MOL0     H19670   7.965   1.665   9.866 -0.1301 -2.8801  0.1812
  146MOL0     H19671   7.969   1.910   9.833  0.2143 -1.0266 -2.1781
  146MOL0     H19672   8.113   1.897   9.916 -0.0629 -0.5338 -0.1839
  146MOL0     H19673   8.118   1.983   9.760 -0.9077  3.0131  2.0625
  146MOL0     H19674   8.268   2.155   9.428  2.1769  2.1550  0.9613
  146MOL0     H19675   8.430   2.292   9.294  0.3603 -0.3849 -1.8086
  146MOL0     H19676   8.839   2.118   9.232  0.0259 -2.9853 -0.3654
  146MOL0     H19677   8.759   2.061   9.094 -3.6374  1.5197 -0.2333
  146MOL0     H19678   8.785   2.318   9.010  1.4852  3.0549  1.5183
  146MOL0     H19679   8.893   2.341   9.144  2.8060 -0.2877 -1.9463
  146MOL0     H19680   8.916   2.156   8.895 -1.5719  2.3204  0.2419
  146MOL0     H19681   9.032   2.125   9.027  0.1148 -0.7667 -0.3791
  146MOL0     H19682   9.007   2.359   8.844 -0.7412  0.1184  0.1396
  146MOL0     H19683   9.079   2.388   9.009  0.6950  1.2200 -0.4651
  146MOL0     H19684   9.206   2.188   8.823  1.1209 -0.7787  2.2708
  146MOL0     H19685   9.270   2.257   8.964  0.3433  0.3908 -0.1195
  146MOL0     H19686   9.207   2.365   8.681 -1.7122 -2.8963  2.6841
  146MOL0     H19687   9.252   2.480   8.812 -0.9635  1.5779 -1.0302
  146MOL0     H19688   9.423   2.272   8.665 -0.3845  0.7825 -0.4714
  146MOL0     H19689   9.455   2.302   8.846  1.3345  0.0737 -1.3733
  146MOL0     H19690   9.484   2.533   8.789  0.7971  1.1217  0.4296
  146MOL0     H19691   9.435   2.493   8.616 -2.3277 -0.4800  1.6519
  146MOL0     H19692   8.675   1.946   9.246 -1.3498 -3.6902  3.9856
  146MOL0     H19693   8.512   1.806   9.345  1.9450  0.8944  0.0307
  146MOL0     H19694   8.240   1.652   9.461  2.0507  0.3717  2.4854
  146MOL0     H19695   8.098   1.446   9.523  1.7420 -2.1470  3.6945
  146MOL0     H19696   8.808   1.641   9.520  0.4075  0.1171  1.1637
  146MOL0     H19697   8.915   1.629   9.300 -0.2040  0.5381  0.5854
  146MOL0     H19698   8.861   1.898   8.874 -2.2533 -1.5029  2.8840
  146MOL0     H19699   8.969   1.936   8.657  3.6266  0.3016 -0.0524
  146MOL0     H19700   8.981   1.698   8.339  0.9557  1.2020 -1.8560
  146MOL0     H19701   8.875   1.799   8.438  0.3071  0.2295 -0.3472
  146MOL0     H19702   9.054   1.980   8.409 -0.9444  0.7704 -0.3365
  146MOL0     H19703   8.951   1.935   8.258  0.9001  1.4033 -0.7535
  146MOL0     H19704   9.140   1.842   8.159  0.6328 -1.2316 -0.9075
  146MOL0     H19705   9.224   1.807   8.308  0.0866 -1.3235 -2.5798
  146MOL0     H19706   9.285   2.048   8.341  0.3710  1.7996 -0.5351
  146MOL0     H19707   9.183   2.093   8.201 -3.3253 -3.0651 -2.9587
  146MOL0     H19708   9.537   1.944   8.024  0.7644  0.5150  0.9172
  146MOL0     H19709   9.087   1.531   8.655 -1.7214 -0.5824  1.2032
  146MOL0     H19710   8.989   1.498   8.879 -0.0805 -0.2735 -1.5893
  147MOL0     O19711  10.607   9.887   7.573  0.1791 -0.6223  0.4068
  147MOL0     C19712  10.651   9.885   7.458  0.8381 -0.5865 -0.2280
  147MOL0     O19713  10.783   9.859   7.432  0.2383  0.2540  0.3823
  147MOL0     C19714  10.856   9.820   7.538 -0.7193 -0.3669 -0.5383
  147MOL0     C19715  10.945   9.918   7.594 -1.0903  0.5542  0.8387
  147MOL0     C19716  11.031   9.872   7.693 -0.8564  0.3772  0.2515
  147MOL0     C19717  11.024   9.737   7.751 -0.2254 -0.0064 -0.5591
  147MOL0     O19718  11.116   9.680   7.838 -0.1886 -0.3229 -0.1813
  147MOL0     C19719  11.239   9.750   7.847  0.0893 -0.2857  0.7353
  147MOL0     C19720  11.351   9.655   7.887  0.1685 -0.6215 -0.9776
  147MOL0     C19721  11.404   9.554   7.780 -0.3184 -1.0186 -0.0788
  147MOL0     C19722  11.510   9.471   7.865  0.3079 -0.4656  0.2800
  147MOL0     C19723  11.595   9.368   7.781  0.8030  0.0264  0.0430
  147MOL0     C19724  11.660   9.276   7.875 -0.3204  0.3841 -0.0196
  147MOL0     C19725  11.561   9.171   7.932 -0.2923  0.5460  0.2034
  147MOL0     C19726  11.640   9.050   7.992 -0.5685  0.1936 -0.0111
  147MOL0     N19727  11.684   9.059   8.126  0.3615  0.3962 -0.8652
  147MOL0     C19728  11.607   9.084   8.236  0.0843  0.1603  0.2964
  147MOL0     C19729  11.684   9.099   8.337 -0.0555 -0.1879 -0.7575
  147MOL0     C19730  11.626   9.129   8.474 -0.4553 -0.3435  0.3862
  147MOL0     C19731  11.536   9.013   8.535 -0.5834 -0.1344 -0.3333
  147MOL0     C19732  11.615   8.876   8.540  0.2476 -0.6821 -0.8951
  147MOL0     C19733  11.541   8.753   8.596 -0.2945  0.0534  0.0464
  147MOL0     O19734  11.456   8.786   8.702 -0.1432  0.2258 -0.5058
  147MOL0     C19735  11.323   8.748   8.682  0.0045 -0.3976 -0.1154
  147MOL0     C19736  11.283   8.633   8.616 -0.2136  0.3313 -0.1008
  147MOL0     C19737  11.152   8.596   8.616  0.3099  0.3073 -0.2960
  147MOL0     C19738  11.117   8.465   8.544  0.8992  0.1243 -0.3928
  147MOL0     C19739  11.054   8.682   8.674  0.2046 -0.2283  0.8621
  147MOL0     C19740  10.907   8.653   8.673 -0.0584 -0.9055  0.3518
  147MOL0     O19741  10.821   8.757   8.665  0.6019  0.5626 -0.1525
  147MOL0     C19742  10.680   8.737   8.652 -0.5118 -0.0028 -0.0204
  147MOL0     C19743  10.616   8.611   8.620 -0.4644  0.6671  0.1572
  147MOL0     C19744  10.477   8.603   8.616  0.1189  0.7767  0.4757
  147MOL0     C19745  10.389   8.707   8.628  0.2087  0.0014  0.0997
  147MOL0     O19746  10.253   8.680   8.615 -0.3694  0.5863  0.2829
  147MOL0     C19747  10.146   8.764   8.662 -0.7169 -0.0249  0.0277
  147MOL0     C19748  10.117   8.718   8.803 -1.1776  0.8024  0.4478
  147MOL0     C19749  10.064   8.824   8.899 -0.1741  0.0458  0.0799
  147MOL0     C19750  10.048   8.780   9.041  0.2748 -0.2944 -0.4404
  147MOL0     C19751  10.021   8.893   9.147  0.1516 -0.2891 -0.2180
  147MOL0     C19752   9.921   8.990   9.086  0.9660 -0.3921  0.5026
  147MOL0     C19753   9.861   9.090   9.187  0.4086 -0.4427 -0.0056
  147MOL0     C19754   9.772   9.194   9.118 -0.3947  1.0616 -0.0698
  147MOL0    Cl19755   9.750   9.343   9.221  0.2459 -0.0393  0.0100
  147MOL0     C19756  10.454   8.833   8.637 -0.1504  0.5260 -0.3354
  147MOL0     C19757  10.589   8.844   8.672  0.8710  0.7478 -0.5685
  147MOL0     O19758  10.877   8.542   8.705  0.8310  0.4381 -0.0219
  147MOL0     C19759  11.096   8.793   8.746  0.6290  1.2340  0.0214
  147MOL0     C19760  11.233   8.827   8.741 -0.3633 -0.4600 -0.4607
  147MOL0     N19761  11.810   9.097   8.302 -0.2006 -0.6793  0.3201
  147MOL0     N19762  11.818   9.070   8.175  0.7139  0.9227  0.5539
  147MOL0     C19763  10.921   9.657   7.709 -0.2960 -0.1244  0.6944
  147MOL0     C19764  10.849   9.693   7.597  0.3356 -0.2088  0.2132
  147MOL0     C19765  10.552   9.914   7.355 -0.5264  0.0390 -0.0031
  147MOL0     C19766  10.417   9.940   7.390 -0.2074 -0.5539  0.4480
  147MOL0     C19767  10.328   9.981   7.296  0.4902 -0.8215 -0.8668
  147MOL0     C19768  10.374  10.011   7.161 -1.2525 -0.5076 -0.2649
  147MOL0     O19769  10.297  10.057   7.060 -0.5847 -0.1770  0.4481
  147MOL0     C19770  10.170  10.107   7.082 -0.1385  0.1423 -0.2609
  147MOL0     C19771  10.125  10.157   6.938  0.3726  0.2374  0.1480
  147MOL0     C19772   9.977  10.176   6.923 -1.2295 -0.8031  0.8591
  147MOL0     C19773   9.938  10.315   6.990  0.4793  0.6643  1.0240
  147MOL0     C19774   9.790  10.308   7.015 -0.3655 -0.5895 -0.1051
  147MOL0     C19775   9.672  10.311   7.036  0.6735  0.1618 -1.6387
  147MOL0     C19776  10.499   9.971   7.133 -0.0282 -0.2183  0.3077
  147MOL0     C19777  10.591   9.921   7.220 -0.1605  0.3918 -0.3266
  147MOL0     H19778  10.961  10.015   7.548  1.5800  1.0704  2.6711
  147MOL0     H19779  11.106   9.942   7.728  1.7515 -1.6106 -1.0222
  147MOL0     H19780  11.269   9.804   7.756  0.6806 -0.4543  0.8281
  147MOL0     H19781  11.232   9.829   7.923 -0.3027  1.5377 -1.0972
  147MOL0     H19782  11.429   9.722   7.925 -1.5076  0.9789 -0.1847
  147MOL0     H19783  11.326   9.595   7.975 -0.3067  1.0570  0.0728
  147MOL0     H19784  11.320   9.497   7.739  0.6186 -1.3090 -1.6837
  147MOL0     H19785  11.450   9.615   7.702  1.0508 -0.1256  1.3694
  147MOL0     H19786  11.571   9.546   7.916  1.2705  0.3459 -1.9531
  147MOL0     H19787  11.451   9.421   7.943 -1.0645 -1.1780 -1.1543
  147MOL0     H19788  11.531   9.314   7.710 -0.6020  0.7955  0.7020
  147MOL0     H19789  11.672   9.412   7.717  3.4312 -0.3191  2.7769
  147MOL0     H19790  11.744   9.226   7.825  1.4036  2.5889  0.4576
  147MOL0     H19791  11.707   9.338   7.953  0.7974 -1.7060  1.0430
  147MOL0     H19792  11.511   9.207   8.022 -3.5269 -0.7619 -0.9316
  147MOL0     H19793  11.479   9.124   7.878  2.9663 -4.8212 -0.8869
  147MOL0     H19794  11.727   9.020   7.933  1.7605  2.4892  1.9655
  147MOL0     H19795  11.573   8.964   7.990  0.9074 -0.9856 -1.0866
  147MOL0     H19796  11.499   9.081   8.237  0.0820  0.3208  0.5879
  147MOL0     H19797  11.705   9.138   8.549 -0.4569  1.3300  0.2159
  147MOL0     H19798  11.574   9.224   8.460 -1.6905 -0.9663  0.6041
  147MOL0     H19799  11.455   9.000   8.463  0.0708 -3.1819 -0.6683
  147MOL0     H19800  11.506   9.043   8.636  1.4721 -2.5524  1.0977
  147MOL0     H19801  11.702   8.900   8.601  0.3334 -1.2095 -0.8014
  147MOL0     H19802  11.657   8.851   8.442 -1.2280 -3.7877 -0.8542
  147MOL0     H19803  11.611   8.674   8.623 -1.1448 -1.4488 -1.8593
  147MOL0     H19804  11.482   8.716   8.512 -1.2556 -0.5130  0.9493
  147MOL0     H19805  11.349   8.553   8.584 -0.6824  0.4027 -1.2642
  147MOL0     H19806  11.011   8.451   8.522  1.5277 -0.2222 -3.7213
  147MOL0     H19807  11.176   8.462   8.453  1.2998 -3.4663 -0.1590
  147MOL0     H19808  11.151   8.380   8.604  0.0201  0.8643  1.2262
  147MOL0     H19809  10.680   8.526   8.598  4.6478  4.1413 -0.2407
  147MOL0     H19810  10.429   8.508   8.592 -0.1519  1.7867 -3.7843
  147MOL0     H19811  10.168   8.870   8.647 -1.9927  0.0002 -2.1252
  147MOL0     H19812  10.054   8.751   8.604 -1.4059  1.3423  0.7364
  147MOL0     H19813  10.049   8.633   8.787 -0.6789  0.3522  0.6758
  147MOL0     H19814  10.207   8.679   8.851  0.1470 -0.1188 -2.5087
  147MOL0     H19815   9.967   8.857   8.861 -0.2448  0.3709  0.5333
  147MOL0     H19816  10.132   8.909   8.899 -0.5487  0.3667  1.0966
  147MOL0     H19817   9.958   8.718   9.048  0.2562 -0.3877 -1.3594
  147MOL0     H19818  10.132   8.720   9.078  0.6066 -0.5661 -1.6049
  147MOL0     H19819  10.107   8.958   9.166  1.1720 -1.0915 -1.8014
  147MOL0     H19820   9.984   8.858   9.243 -0.0268  1.4861  0.3893
  147MOL0     H19821   9.962   9.043   9.000 -2.7594 -0.8361 -1.7567
  147MOL0     H19822   9.841   8.928   9.045  0.2019  1.3467 -0.7405
  147MOL0     H19823   9.944   9.147   9.231 -1.2454  2.3001 -0.2149
  147MOL0     H19824   9.808   9.028   9.260 -0.1544 -0.7335 -0.6581
  147MOL0     H19825   9.674   9.149   9.097  0.9317 -1.5587 -1.0178
  147MOL0     H19826   9.806   9.205   9.015 -2.7561 -0.2954 -1.0746
  147MOL0     H19827  10.395   8.923   8.639 -1.3635 -0.1218 -3.1956
  147MOL0     H19828  10.616   8.947   8.691  3.2061  0.2170 -0.7111
  147MOL0     H19829  11.021   8.845   8.805 -1.8012 -0.4854 -1.3548
  147MOL0     H19830  11.273   8.913   8.794  0.1328  1.6159 -3.9311
  147MOL0     H19831  10.907   9.562   7.760 -2.7013 -0.9640 -1.3580
  147MOL0     H19832  10.767   9.635   7.555 -1.5078  1.4543  1.3448
  147MOL0     H19833  10.390   9.934   7.495  2.8635  1.7793  1.5171
  147MOL0     H19834  10.227  10.006   7.326  1.0913  1.7132 -0.6338
  147MOL0     H19835  10.095  10.037   7.119  1.4240 -1.0159  0.8387
  147MOL0     H19836  10.178  10.193   7.150  2.1397  0.9768 -1.4410
  147MOL0     H19837  10.146  10.074   6.869 -1.1972  0.3704 -0.5355
  147MOL0     H19838  10.193  10.234   6.900 -0.7306  1.3341  0.3452
  147MOL0     H19839   9.928  10.094   6.977  0.2341 -2.1462  0.2438
  147MOL0     H19840   9.960  10.167   6.815  0.6890  1.3578  0.2976
  147MOL0     H19841   9.962  10.397   6.922  2.5626 -0.1288  0.7178
  147MOL0     H19842   9.995  10.322   7.082  0.1791 -0.8624  1.3518
  147MOL0     H19843   9.571  10.293   7.067  1.7581 -1.3669  1.3762
  147MOL0     H19844  10.518   9.967   7.026  0.3755  1.4986  0.2863
  147MOL0     H19845  10.688   9.890   7.182  0.3742 -0.1877  1.4316
  148MOL0     O19846   0.126   9.235  10.021  0.2744 -0.0244  0.6155
  148MOL0     C19847   0.014   9.214  10.069 -0.7387  0.4279  0.6906
  148MOL0     O19848  -0.087   9.145  10.004  0.3195  0.2769  1.0803
  148MOL0     C19849  -0.058   9.111   9.867 -0.3809  0.0048 -1.7432
  148MOL0     C19850  -0.034   9.216   9.772 -0.1757 -0.2588 -0.4146
  148MOL0     C19851  -0.008   9.186   9.637 -0.2563  0.8119 -0.7946
  148MOL0     C19852  -0.026   9.059   9.592  0.2947  0.0322  0.2736
  148MOL0     O19853   0.010   9.035   9.459  0.4779 -0.2114 -0.5639
  148MOL0     C19854  -0.017   8.905   9.400  0.2633  0.6278  0.4584
  148MOL0     C19855  -0.160   8.868   9.383  0.0414 -0.6060 -0.1148
  148MOL0     C19856  -0.236   8.951   9.277  0.3184  0.2658  0.4767
  148MOL0     C19857  -0.239   9.104   9.302 -0.4687 -0.6885  0.0622
  148MOL0     C19858  -0.342   9.176   9.207 -0.0997  0.1537  0.2257
  148MOL0     C19859  -0.319   9.161   9.059 -0.8069  0.8890  0.0786
  148MOL0     C19860  -0.392   9.264   8.980  0.5576 -0.2863 -0.5342
  148MOL0     C19861  -0.329   9.282   8.847 -0.2700 -0.1162  0.4896
  148MOL0     N19862  -0.401   9.382   8.774 -0.5116 -0.2738 -1.5394
  148MOL0     C19863  -0.400   9.516   8.802  0.0003 -0.8909 -0.1455
  148MOL0     C19864  -0.460   9.583   8.698  0.0655 -0.2100 -0.1091
  148MOL0     C19865  -0.493   9.733   8.684 -0.3778  0.4136 -0.0525
  148MOL0     C19866  -0.591   9.786   8.786  0.3959  0.0730 -0.0171
  148MOL0     C19867  -0.645   9.921   8.747  0.2492  0.3314 -0.1651
  148MOL0     C19868  -0.722   9.965   8.867  1.0382 -0.1040  0.0533
  148MOL0     O19869  -0.815  10.064   8.809  0.2994  0.0776  0.1450
  148MOL0     C19870  -0.782  10.195   8.800  0.0192 -0.8416  0.5424
  148MOL0     C19871  -0.893  10.286   8.776  0.2818  0.0972  0.6798
  148MOL0     C19872  -0.874  10.425   8.760  0.0230  0.9598  0.3786
  148MOL0     C19873  -0.987  10.505   8.740  0.2630  0.9069  0.3186
  148MOL0     C19874  -0.741  10.476   8.751 -0.6228  0.3879  0.2829
  148MOL0     C19875  -0.699  10.618   8.709 -0.3653 -0.0360  0.7006
  148MOL0     O19876  -0.570  10.654   8.753 -0.1914 -0.2847 -0.5391
  148MOL0     C19877  -0.532  10.780   8.725 -0.2108  0.4963 -0.6254
  148MOL0     C19878  -0.415  10.806   8.650  0.3277 -0.2012  0.1907
  148MOL0     C19879  -0.364  10.936   8.631 -0.2701 -0.5705 -0.0166
  148MOL0     C19880  -0.416  11.041   8.701  0.4219 -0.2830 -0.1352
  148MOL0     O19881  -0.386  11.173   8.673 -0.1817  0.2214  0.5608
  148MOL0     C19882  -0.448  11.288   8.736 -1.3624 -0.2396 -0.1005
  148MOL0     C19883  -0.423  11.412   8.646  0.3498 -0.8866  0.1123
  148MOL0     C19884  -0.454  11.531   8.735  0.3969  0.2934 -0.3631
  148MOL0     C19885  -0.391  11.656   8.683  0.1356 -1.9109 -0.1222
  148MOL0     C19886  -0.444  11.782   8.751 -0.6919 -0.6311 -0.2083
  148MOL0     C19887  -0.405  11.914   8.683  0.3621  0.4729  0.5505
  148MOL0     C19888  -0.484  12.034   8.746  0.1567 -0.0906  0.8898
  148MOL0     C19889  -0.437  12.164   8.694 -0.0798 -0.9033  0.8972
  148MOL0    Cl19890  -0.538  12.294   8.767  0.1173 -0.2125  0.2920
  148MOL0     C19891  -0.525  11.021   8.784 -0.0614  0.3065  0.5469
  148MOL0     C19892  -0.582  10.890   8.796 -0.0190 -0.0894 -0.5564
  148MOL0     O19893  -0.773  10.684   8.633 -0.5234  0.8269 -0.8271
  148MOL0     C19894  -0.637  10.378   8.779  1.0166 -0.3457 -0.3455
  148MOL0     C19895  -0.655  10.246   8.803 -0.0535  0.3793 -0.3495
  148MOL0     N19896  -0.496   9.477   8.608 -0.1352 -0.1081 -0.8269
  148MOL0     N19897  -0.452   9.368   8.658  0.5909  1.2888  0.4599
  148MOL0     C19898  -0.050   8.951   9.689 -0.0377  0.1842  0.5835
  148MOL0     C19899  -0.065   8.981   9.825 -0.3127 -0.8266 -0.4468
  148MOL0     C19900  -0.027   9.290  10.187  0.7350  0.6597  0.0291
  148MOL0     C19901   0.064   9.384  10.252 -0.2013 -0.3330  0.8179
  148MOL0     C19902   0.026   9.450  10.365  0.0879  0.2150 -0.4802
  148MOL0     C19903  -0.086   9.406  10.433 -0.5313 -0.1175 -0.0727
  148MOL0     O19904  -0.128   9.462  10.553 -0.4814 -0.3769  0.7375
  148MOL0     C19905  -0.075   9.398  10.670  0.6188 -0.1792 -0.3656
  148MOL0     C19906  -0.155   9.443  10.797 -0.0123 -0.1002 -0.0941
  148MOL0     C19907  -0.128   9.579  10.864 -0.3336  0.3853  0.7606
  148MOL0     C19908  -0.234   9.619  10.964 -0.2852 -0.3089  0.3862
  148MOL0     C19909  -0.169   9.725  11.040  0.6291  1.0570 -0.8475
  148MOL0     C19910  -0.116   9.814  11.099  0.2929 -0.0758 -0.5639
  148MOL0     C19911  -0.174   9.320  10.373 -0.5566  0.7194 -0.3112
  148MOL0     C19912  -0.150   9.261  10.249 -0.6872 -0.0847 -0.2861
  148MOL0     H19913  -0.031   9.317   9.813 -0.2323 -1.7921  3.8282
  148MOL0     H19914   0.037   9.252   9.563 -4.8373  1.4317 -3.4695
  148MOL0     H19915   0.031   8.904   9.302 -2.4262  0.8011 -0.9451
  148MOL0     H19916   0.049   8.832   9.448 -0.0191 -1.7245 -2.4163
  148MOL0     H19917  -0.177   8.767   9.343 -1.7414 -0.1870 -0.4831
  148MOL0     H19918  -0.220   8.867   9.474 -3.0851  0.6480 -2.0067
  148MOL0     H19919  -0.187   8.935   9.180 -0.3513  0.8358  0.0341
  148MOL0     H19920  -0.336   8.908   9.265  0.2335  0.4885  0.3885
  148MOL0     H19921  -0.284   9.121   9.401  0.0603  5.3386 -0.3636
  148MOL0     H19922  -0.145   9.159   9.298 -0.2813 -1.0742 -1.2267
  148MOL0     H19923  -0.445   9.147   9.230 -1.5023  3.1262 -1.6836
  148MOL0     H19924  -0.347   9.281   9.239 -2.7607 -0.1839  1.1334
  148MOL0     H19925  -0.212   9.160   9.035 -0.9218  2.4064 -0.6209
  148MOL0     H19926  -0.365   9.065   9.035 -1.5934  0.5186  2.7191
  148MOL0     H19927  -0.501   9.250   8.976  0.0023  2.4941  1.8891
  148MOL0     H19928  -0.378   9.363   9.024  0.1547  0.5907 -2.2702
  148MOL0     H19929  -0.320   9.198   8.778  3.0579 -1.9102  2.8313
  148MOL0     H19930  -0.227   9.311   8.872  0.6887 -0.8402 -2.2171
  148MOL0     H19931  -0.376   9.558   8.900 -4.7117  1.1910  0.3983
  148MOL0     H19932  -0.397   9.779   8.708 -0.4094  0.6766 -0.4343
  148MOL0     H19933  -0.505   9.751   8.577 -3.4183  1.8491  0.4188
  148MOL0     H19934  -0.542   9.782   8.884 -0.9443 -0.1101  0.6655
  148MOL0     H19935  -0.678   9.720   8.776 -0.9918  2.0910 -2.4910
  148MOL0     H19936  -0.707   9.919   8.658  2.1757  0.7013 -1.5765
  148MOL0     H19937  -0.565   9.991   8.725  1.3862 -0.1993  1.9870
  148MOL0     H19938  -0.659  10.006   8.947  4.9510 -2.3524 -1.6477
  148MOL0     H19939  -0.780   9.883   8.910  4.1911 -1.2108  2.5677
  148MOL0     H19940  -0.994  10.246   8.764  0.2913 -0.0609  1.1133
  148MOL0     H19941  -0.981  10.544   8.638  3.8615 -2.9235 -1.2404
  148MOL0     H19942  -1.079  10.447   8.748  2.2861 -2.9357 -1.6414
  148MOL0     H19943  -1.001  10.576   8.823 -0.9466 -1.3862  2.1851
  148MOL0     H19944  -0.352  10.722   8.622 -0.8261  0.1850 -4.2565
  148MOL0     H19945  -0.274  10.955   8.574 -1.9773  5.2434 -1.4500
  148MOL0     H19946  -0.557  11.280   8.743 -1.3548 -1.1304 -0.8842
  148MOL0     H19947  -0.403  11.298   8.835 -0.9746  2.9896 -0.4795
  148MOL0     H19948  -0.317  11.426   8.623  0.4346  0.5227  1.2374
  148MOL0     H19949  -0.477  11.413   8.551  3.3078  3.2727 -1.8458
  148MOL0     H19950  -0.407  11.512   8.831  1.2832 -2.8558 -1.2738
  148MOL0     H19951  -0.559  11.551   8.759  0.3747 -1.3308  1.0838
  148MOL0     H19952  -0.283  11.662   8.696  0.2361 -1.6006 -1.0279
  148MOL0     H19953  -0.410  11.659   8.575  0.6507 -2.6568 -0.2422
  148MOL0     H19954  -0.408  11.797   8.854  1.3642 -2.7920 -0.5259
  148MOL0     H19955  -0.553  11.779   8.765 -0.5020  1.1782  2.5053
  148MOL0     H19956  -0.298  11.932   8.695  0.5415  0.9203 -1.3866
  148MOL0     H19957  -0.431  11.909   8.576 -2.4048 -1.2153  1.1895
  148MOL0     H19958  -0.472  12.036   8.855  2.1380  2.2288  0.7330
  148MOL0     H19959  -0.588  12.024   8.714  0.3093  1.9472 -0.4703
  148MOL0     H19960  -0.450  12.167   8.585  1.3323  2.3489  0.7216
  148MOL0     H19961  -0.337  12.183   8.732 -0.7203  3.3106  0.9283
  148MOL0     H19962  -0.567  11.111   8.827  0.4273  1.5557 -1.4859
  148MOL0     H19963  -0.670  10.877   8.858  0.1371  0.3455 -0.2396
  148MOL0     H19964  -0.537  10.418   8.782  1.5335 -1.5826  2.2070
  148MOL0     H19965  -0.566  10.187   8.823  1.9517  2.1424 -3.3791
  148MOL0     H19966  -0.042   8.850   9.651 -3.1884  0.1878 -0.4192
  148MOL0     H19967  -0.082   8.895   9.889  1.8517 -1.0369 -0.0876
  148MOL0     H19968   0.161   9.416  10.213 -0.1063 -3.0641 -1.5253
  148MOL0     H19969   0.098   9.509  10.421 -0.9130 -0.0573  1.1817
  148MOL0     H19970  -0.084   9.289  10.659  0.9298 -0.4416  1.5511
  148MOL0     H19971   0.029   9.428  10.682  0.8339 -0.6539 -0.9634
  148MOL0     H19972  -0.127   9.366  10.870  1.2796 -0.6332 -1.1009
  148MOL0     H19973  -0.257   9.446  10.758 -0.4118  1.6484  1.0061
  148MOL0     H19974  -0.108   9.647  10.781 -1.2726  1.0207  1.0398
  148MOL0     H19975  -0.032   9.575  10.918 -0.6552 -1.8903  1.2508
  148MOL0     H19976  -0.250   9.529  11.024 -0.8960 -0.1352  0.4887
  148MOL0     H19977  -0.318   9.660  10.908  1.9333  1.5142 -1.8657
  148MOL0     H19978  -0.055   9.891  11.141 -2.6945  2.3494 -0.2992
  148MOL0     H19979  -0.270   9.299  10.419 -0.8305  0.2519 -1.0626
  148MOL0     H19980  -0.216   9.184  10.211  0.3504 -1.6896  1.0039
  149MOL0     O19981   2.687   0.484   0.307 -0.4639  0.0970  0.2262
  149MOL0     C19982   2.674   0.393   0.227 -0.4628  0.4318 -0.2278
  149MOL0     O19983   2.647   0.410   0.090  0.0651 -0.1331  0.1050
  149MOL0     C19984   2.637   0.541   0.049 -0.4209 -1.1021  0.1385
  149MOL0     C19985   2.744   0.630   0.040 -0.6842 -0.9157  1.1258
  149MOL0     C19986   2.731   0.767  -0.003 -0.4930  0.1843 -0.1578
  149MOL0     C19987   2.608   0.823  -0.032 -0.0322  0.3300  0.2927
  149MOL0     O19988   2.595   0.958  -0.055  0.6155 -0.2575  0.2238
  149MOL0     C19989   2.543   0.983  -0.192 -0.2089  0.2065  1.1161
  149MOL0     C19990   2.585   1.121  -0.230  0.6336  0.5248  0.2486
  149MOL0     C19991   2.596   1.126  -0.383  0.2941  0.1542  0.0650
  149MOL0     C19992   2.648   1.268  -0.415  0.2472 -0.9921 -0.0467
  149MOL0     C19993   2.682   1.308  -0.562 -0.1343 -0.3901 -0.0923
  149MOL0     C19994   2.564   1.268  -0.656 -0.4165 -0.1603  0.8263
  149MOL0     C19995   2.592   1.307  -0.808  0.2918 -0.6894 -1.0395
  149MOL0     C19996   2.470   1.393  -0.865  0.3606  0.3838  0.5823
  149MOL0     N19997   2.357   1.317  -0.912  0.2476 -0.2295 -0.9449
  149MOL0     C19998   2.314   1.197  -0.866  0.9335  0.2856 -0.4713
  149MOL0     C19999   2.194   1.176  -0.925 -0.0940 -0.0153  0.1739
  149MOL0     C20000   2.097   1.058  -0.910 -0.4906 -0.4177  0.7493
  149MOL0     C20001   1.956   1.089  -0.902  0.2445  0.3389 -0.1832
  149MOL0     C20002   1.862   0.967  -0.909  0.1055 -0.1638 -0.8203
  149MOL0     C20003   1.875   0.903  -1.041  0.6004 -0.6635 -0.1293
  149MOL0     O20004   1.764   0.826  -1.063 -0.3942 -0.0069 -0.4835
  149MOL0     C20005   1.762   0.695  -1.014 -0.8693  0.4585  0.2194
  149MOL0     C20006   1.819   0.591  -1.086  0.0977  1.2051  0.8964
  149MOL0     C20007   1.851   0.473  -1.036  0.1514  0.0020 -0.1499
  149MOL0     C20008   1.902   0.359  -1.124 -0.1223 -0.7978 -0.5328
  149MOL0     C20009   1.812   0.440  -0.901  0.6223  0.1303  0.2541
  149MOL0     C20010   1.843   0.308  -0.831  0.5776 -0.5569 -0.4772
  149MOL0     O20011   1.795   0.199  -0.899  0.3231 -0.3812 -0.2893
  149MOL0     C20012   1.750   0.095  -0.832 -0.6345  0.4020 -0.9947
  149MOL0     C20013   1.820   0.026  -0.733 -0.3119  0.1494 -0.7291
  149MOL0     C20014   1.772  -0.098  -0.680 -0.5837 -0.9259 -0.0035
  149MOL0     C20015   1.648  -0.140  -0.710  1.0515  0.1585 -0.8527
  149MOL0     O20016   1.594  -0.251  -0.644  0.5861 -0.1543  0.4136
  149MOL0     C20017   1.468  -0.223  -0.580 -0.5931 -0.2561 -0.1340
  149MOL0     C20018   1.374  -0.342  -0.574  0.3338  0.2946  0.1878
  149MOL0     C20019   1.228  -0.290  -0.547  0.0741 -0.6022  0.5758
  149MOL0     C20020   1.205  -0.273  -0.394  0.1170  0.7597  0.1499
  149MOL0     C20021   1.081  -0.176  -0.368 -0.5498 -1.2592 -0.5842
  149MOL0     C20022   0.957  -0.220  -0.456 -0.1855 -0.3151 -0.3207
  149MOL0     C20023   0.825  -0.166  -0.401 -0.8416  0.0279  0.5592
  149MOL0     C20024   0.702  -0.197  -0.487 -0.2570  0.0788  0.2581
  149MOL0    Cl20025   0.703  -0.372  -0.519  0.1372  0.4413 -0.1299
  149MOL0     C20026   1.576  -0.077  -0.809  0.9644 -0.2373 -1.5180
  149MOL0     C20027   1.623   0.037  -0.868 -0.9005 -0.2823  0.8140
  149MOL0     O20028   1.898   0.310  -0.716  0.1051  0.6887 -1.1571
  149MOL0     C20029   1.756   0.541  -0.820  0.4964 -1.0143  0.1028
  149MOL0     C20030   1.732   0.674  -0.878  1.2479 -0.0567 -0.8015
  149MOL0     N20031   2.170   1.289  -1.007  0.1076 -0.4929  0.0646
  149MOL0     N20032   2.266   1.377  -0.995 -0.7283  1.2656  0.9821
  149MOL0     C20033   2.499   0.734  -0.040 -0.6552 -0.2579 -0.3066
  149MOL0     C20034   2.515   0.602   0.001 -0.1013 -0.4147 -0.3992
  149MOL0     C20035   2.719   0.257   0.265 -0.0181  1.2761 -0.2918
  149MOL0     C20036   2.719   0.222   0.401  0.5088 -0.7231  0.4301
  149MOL0     C20037   2.752   0.088   0.432 -0.2412 -0.0022  0.7906
  149MOL0     C20038   2.788   0.001   0.327 -0.2757  0.6919 -0.0920
  149MOL0     O20039   2.800  -0.136   0.351 -0.0803  0.1901  0.0977
  149MOL0     C20040   2.897  -0.179   0.438  0.5766  0.4197  0.4683
  149MOL0     C20041   2.929  -0.325   0.410 -0.1834  0.4372  0.1687
  149MOL0     C20042   2.967  -0.339   0.267  0.4925 -0.0698  0.1201
  149MOL0     C20043   3.091  -0.254   0.226  0.4974  0.0994 -0.1171
  149MOL0     C20044   3.220  -0.318   0.268  0.2017  0.9079  0.3050
  149MOL0     C20045   3.316  -0.373   0.306  0.9528  1.3108 -0.2899
  149MOL0     C20046   2.777   0.039   0.196  0.3210  0.6773  0.1059
  149MOL0     C20047   2.744   0.162   0.166 -0.8992  0.1738 -0.3351
  149MOL0     H20048   2.843   0.592   0.061  1.0513  2.4244 -0.3814
  149MOL0     H20049   2.822   0.824  -0.019 -0.9583  1.7473  2.2562
  149MOL0     H20050   2.582   0.911  -0.264 -3.6578 -2.6271  1.7815
  149MOL0     H20051   2.434   0.976  -0.201 -0.1291 -3.0399  1.5854
  149MOL0     H20052   2.510   1.191  -0.194  0.9969  1.7755 -1.3068
  149MOL0     H20053   2.678   1.132  -0.173  0.6233 -3.1249  1.2645
  149MOL0     H20054   2.673   1.058  -0.421  0.0012  0.1641 -0.5574
  149MOL0     H20055   2.501   1.101  -0.431  0.1075 -0.5087  0.7696
  149MOL0     H20056   2.588   1.344  -0.366  0.1061 -3.1869  3.5385
  149MOL0     H20057   2.747   1.260  -0.368 -0.1409 -0.5657  0.8550
  149MOL0     H20058   2.706   1.415  -0.568 -1.7160  0.1315  1.9160
  149MOL0     H20059   2.775   1.258  -0.589  2.3340  2.2218  2.8888
  149MOL0     H20060   2.552   1.160  -0.659 -0.4735 -0.1820 -2.8814
  149MOL0     H20061   2.471   1.301  -0.609 -1.6048 -2.7209  0.4248
  149MOL0     H20062   2.667   1.387  -0.798  0.0067 -0.3458 -1.5615
  149MOL0     H20063   2.627   1.231  -0.879  1.0542  0.0427 -1.4738
  149MOL0     H20064   2.502   1.460  -0.945  0.0190  3.5541  2.9075
  149MOL0     H20065   2.438   1.457  -0.783  1.5080  1.9145 -0.1197
  149MOL0     H20066   2.369   1.130  -0.801 -0.4472 -1.9249 -1.4394
  149MOL0     H20067   2.117   1.005  -1.003 -1.1192  0.4046  0.1369
  149MOL0     H20068   2.137   0.991  -0.833  0.7577  0.4588  0.9038
  149MOL0     H20069   1.921   1.153  -0.984 -2.6330 -3.4269 -2.1676
  149MOL0     H20070   1.925   1.137  -0.809 -3.7820  0.7197 -1.5346
  149MOL0     H20071   1.760   0.999  -0.886 -0.0109 -0.0237 -1.4970
  149MOL0     H20072   1.892   0.901  -0.827  0.8930  3.0456  1.6809
  149MOL0     H20073   1.960   0.834  -1.035  0.9678 -0.1926  0.1738
  149MOL0     H20074   1.893   0.978  -1.119 -0.9652  1.5782  1.5356
  149MOL0     H20075   1.844   0.618  -1.188  1.1972  1.4032  1.1953
  149MOL0     H20076   1.931   0.383  -1.226  2.7562 -1.8869 -0.0699
  149MOL0     H20077   1.994   0.316  -1.085 -0.7206 -0.3458  1.5277
  149MOL0     H20078   1.823   0.284  -1.139  1.5231 -2.9385  0.8646
  149MOL0     H20079   1.916   0.066  -0.702  3.1987 -4.7125 -3.8035
  149MOL0     H20080   1.835  -0.148  -0.607  1.8301  0.1962 -1.2081
  149MOL0     H20081   1.484  -0.203  -0.473 -1.0745 -0.0571 -0.0968
  149MOL0     H20082   1.421  -0.138  -0.631  2.7247  1.6130 -0.3268
  149MOL0     H20083   1.389  -0.395  -0.668 -0.3820  0.6265 -0.1236
  149MOL0     H20084   1.392  -0.415  -0.494 -1.0674  2.8211  3.0409
  149MOL0     H20085   1.158  -0.368  -0.581 -3.1894  1.8513  1.1759
  149MOL0     H20086   1.200  -0.206  -0.610  0.1455 -2.1854 -1.6893
  149MOL0     H20087   1.177  -0.364  -0.340  3.5203 -1.7020 -1.8312
  149MOL0     H20088   1.292  -0.228  -0.346 -0.8929  2.8400  0.1559
  149MOL0     H20089   1.100  -0.073  -0.400  0.1672 -0.9433  0.7563
  149MOL0     H20090   1.059  -0.165  -0.261  2.4996  0.8492 -0.0417
  149MOL0     H20091   0.970  -0.194  -0.561 -2.8771 -2.8978 -1.4522
  149MOL0     H20092   0.936  -0.327  -0.466 -1.9795 -0.0162 -0.1905
  149MOL0     H20093   0.831  -0.057  -0.398  0.5912  0.1627 -2.9467
  149MOL0     H20094   0.829  -0.201  -0.297  4.2579  0.2228  0.6696
  149MOL0     H20095   0.731  -0.135  -0.572  1.8776 -0.4363  0.5448
  149MOL0     H20096   0.611  -0.170  -0.433 -2.0597  0.3804 -2.7040
  149MOL0     H20097   1.484  -0.124  -0.843 -0.4678  0.6255  0.9039
  149MOL0     H20098   1.567   0.078  -0.952 -1.9980 -4.1611 -0.5482
  149MOL0     H20099   1.733   0.522  -0.716 -1.7838  2.4404  0.3886
  149MOL0     H20100   1.687   0.749  -0.814  3.4842 -0.3575  1.2602
  149MOL0     H20101   2.399   0.774  -0.053 -0.5630  0.6541  1.4253
  149MOL0     H20102   2.424   0.543   0.009 -0.2518  0.0618  2.7581
  149MOL0     H20103   2.691   0.293   0.478 -1.7023 -3.6488  2.5612
  149MOL0     H20104   2.750   0.045   0.532  2.7869 -1.8304  0.1743
  149MOL0     H20105   2.981  -0.110   0.431 -0.4812  1.6526 -0.5832
  149MOL0     H20106   2.865  -0.162   0.541  0.4193  1.7164  0.2256
  149MOL0     H20107   2.846  -0.393   0.434 -1.0210  1.7787  1.2027
  149MOL0     H20108   3.004  -0.370   0.475 -2.1730 -2.4776  0.6414
  149MOL0     H20109   2.880  -0.314   0.207 -0.7466  0.8634  2.1955
  149MOL0     H20110   2.985  -0.443   0.237  3.0664  0.1069  0.7908
  149MOL0     H20111   3.076  -0.148   0.249 -3.4402 -0.3441  0.1427
  149MOL0     H20112   3.084  -0.255   0.117  2.7580  0.5391 -0.3018
  149MOL0     H20113   3.405  -0.429   0.327  1.9307  2.3211 -1.6137
  149MOL0     H20114   2.769  -0.035   0.117  0.1171  0.1480  0.6211
  149MOL0     H20115   2.748   0.182   0.060 -2.6758 -1.0589 -0.6811
  150MOL0     O20116   7.076   0.502   0.963 -0.8169  0.0998 -0.4376
  150MOL0     C20117   7.113   0.604   1.023 -0.1634 -0.3609  0.6472
  150MOL0     O20118   7.245   0.657   1.021  0.0267 -0.1916 -0.0148
  150MOL0     C20119   7.341   0.603   0.949 -0.6433 -0.7402  0.4696
  150MOL0     C20120   7.325   0.547   0.815 -1.0122 -0.0682 -0.0463
  150MOL0     C20121   7.440   0.486   0.761 -0.3952  0.3129  0.2840
  150MOL0     C20122   7.562   0.487   0.833 -0.3749  0.4886  0.2030
  150MOL0     O20123   7.674   0.430   0.781 -0.5353 -0.3863  0.0374
  150MOL0     C20124   7.691   0.425   0.636 -1.0884 -0.3066 -0.0430
  150MOL0     C20125   7.826   0.375   0.595 -0.6992  0.8184  0.2023
  150MOL0     C20126   7.941   0.459   0.662 -0.0257  0.0895 -0.7078
  150MOL0     C20127   7.925   0.607   0.613 -0.6208 -0.3994 -0.1387
  150MOL0     C20128   8.066   0.684   0.632  0.7426 -0.0967 -1.1219
  150MOL0     C20129   8.071   0.828   0.583 -0.0862  0.1096 -0.3582
  150MOL0     C20130   8.189   0.910   0.634  0.2086  1.0526  0.3962
  150MOL0     C20131   8.176   1.057   0.565  0.5734 -0.1423 -0.0798
  150MOL0     N20132   8.296   1.136   0.583  0.5662  0.2400  0.8226
  150MOL0     C20133   8.400   1.111   0.667  0.9172 -0.4598 -0.2740
  150MOL0     C20134   8.486   1.207   0.639  0.6719 -0.1372  0.1286
  150MOL0     C20135   8.605   1.239   0.715 -0.0940  0.5003 -0.5867
  150MOL0     C20136   8.566   1.331   0.844 -0.0150 -0.3244 -0.4096
  150MOL0     C20137   8.609   1.258   0.968  0.1803 -0.5462  0.3772
  150MOL0     C20138   8.521   1.146   1.020  0.5832  0.7007 -0.0194
  150MOL0     O20139   8.580   1.082   1.140  1.1193 -0.4981  0.2744
  150MOL0     C20140   8.575   0.948   1.165  1.1847  0.0313  1.1283
  150MOL0     C20141   8.485   0.864   1.091 -0.5285  0.5480 -0.2456
  150MOL0     C20142   8.477   0.724   1.113 -0.7604 -0.5155  0.0279
  150MOL0     C20143   8.412   0.643   1.004  0.0369  0.5034 -0.8681
  150MOL0     C20144   8.562   0.669   1.215  0.3570 -0.0956 -0.6558
  150MOL0     C20145   8.572   0.521   1.248  0.0090 -0.1098  0.9733
  150MOL0     O20146   8.667   0.476   1.339 -1.2907 -0.2085 -0.3073
  150MOL0     C20147   8.689   0.339   1.337  1.3288  0.6096 -0.0888
  150MOL0     C20148   8.784   0.278   1.254 -0.5686  0.0061  0.7122
  150MOL0     C20149   8.790   0.140   1.245 -0.6023 -0.3229 -0.1525
  150MOL0     C20150   8.711   0.055   1.328 -0.0997 -0.5780  0.1401
  150MOL0     O20151   8.717  -0.080   1.317 -0.6801  0.1465 -0.0922
  150MOL0     C20152   8.721  -0.155   1.442 -0.0165 -0.6659 -0.4854
  150MOL0     C20153   8.680  -0.301   1.414 -0.7191  0.3883 -0.0396
  150MOL0     C20154   8.581  -0.345   1.523  0.9422 -0.3009 -0.9515
  150MOL0     C20155   8.529  -0.490   1.520  0.9373  0.0526  0.6959
  150MOL0     C20156   8.386  -0.499   1.572 -0.7063  0.6183  0.4476
  150MOL0     C20157   8.370  -0.631   1.640 -0.3507 -0.1959  0.0868
  150MOL0     C20158   8.244  -0.631   1.729 -0.5903  0.6652 -0.7494
  150MOL0     C20159   8.275  -0.575   1.872  0.4171  1.0671  0.3327
  150MOL0    Cl20160   8.389  -0.681   1.959  0.2284 -0.2606  0.1888
  150MOL0     C20161   8.620   0.118   1.408  0.5957 -0.1483  0.3280
  150MOL0     C20162   8.613   0.256   1.412  0.2149  0.8553 -0.6364
  150MOL0     O20163   8.484   0.457   1.194 -0.0700  0.0734 -1.0162
  150MOL0     C20164   8.643   0.760   1.287  0.2512  0.4219 -0.3168
  150MOL0     C20165   8.652   0.899   1.266  0.5734 -0.1553  0.9089
  150MOL0     N20166   8.434   1.295   0.544 -0.4001 -0.3642  0.4313
  150MOL0     N20167   8.320   1.239   0.499  0.6117 -0.3926  0.0854
  150MOL0     C20168   7.572   0.552   0.955 -0.6222  0.3751 -0.0421
  150MOL0     C20169   7.466   0.608   1.011 -0.7696  0.3560  0.1793
  150MOL0     C20170   7.009   0.667   1.098  0.5985  0.0134 -0.4306
  150MOL0     C20171   6.873   0.619   1.110 -0.9170  0.3033  0.4478
  150MOL0     C20172   6.772   0.695   1.158 -0.1575 -0.5812 -0.2658
  150MOL0     C20173   6.799   0.823   1.213 -0.2554 -0.2209  0.8195
  150MOL0     O20174   6.696   0.895   1.274  0.3012  0.1163  0.8097
  150MOL0     C20175   6.558   0.859   1.264  0.0736  0.0845  0.8490
  150MOL0     C20176   6.503   0.802   1.389 -0.0040 -0.2348  0.0982
  150MOL0     C20177   6.467   0.917   1.477  0.9039 -0.3262 -0.6471
  150MOL0     C20178   6.326   0.965   1.468  0.1994 -0.6617  0.4767
  150MOL0     C20179   6.278   1.026   1.587 -0.9832  0.0732 -0.0316
  150MOL0     C20180   6.228   1.088   1.680  0.9094  0.1984 -0.0834
  150MOL0     C20181   6.928   0.869   1.213 -0.3840  1.1131  1.1475
  150MOL0     C20182   7.032   0.799   1.150 -0.6733  0.4633 -0.4809
  150MOL0     H20183   7.227   0.551   0.769  0.0709  1.7898 -2.3942
  150MOL0     H20184   7.416   0.431   0.670 -0.9674 -1.2559  1.3279
  150MOL0     H20185   7.618   0.362   0.584 -2.0257  1.0556 -0.4434
  150MOL0     H20186   7.675   0.530   0.607  0.4633  0.5024  1.8364
  150MOL0     H20187   7.840   0.274   0.635  1.1812  1.3445  0.9607
  150MOL0     H20188   7.836   0.372   0.486  0.7785 -0.2737  0.3393
  150MOL0     H20189   7.934   0.446   0.771  3.7396  1.1057 -0.1817
  150MOL0     H20190   8.042   0.424   0.639 -0.2172  0.2496 -1.8565
  150MOL0     H20191   7.899   0.610   0.507  1.0745 -0.8959 -0.5984
  150MOL0     H20192   7.855   0.666   0.673 -0.1032  0.5871 -0.4800
  150MOL0     H20193   8.099   0.675   0.736 -0.1791 -3.4242 -0.9985
  150MOL0     H20194   8.134   0.629   0.565  1.9297  1.4651 -1.2722
  150MOL0     H20195   8.070   0.832   0.474 -3.2622 -2.4919 -0.5722
  150MOL0     H20196   7.982   0.879   0.622  1.2508  1.5047  1.0256
  150MOL0     H20197   8.186   0.925   0.742  2.4091 -2.0460  1.0406
  150MOL0     H20198   8.278   0.851   0.608  0.0227  0.9812 -0.1005
  150MOL0     H20199   8.087   1.115   0.591  0.0592 -1.1681  0.5299
  150MOL0     H20200   8.169   1.033   0.459 -2.4940  1.9582 -0.5078
  150MOL0     H20201   8.397   1.033   0.742 -2.8031 -0.5051 -0.2995
  150MOL0     H20202   8.654   1.149   0.752  3.5861  0.8337 -4.0409
  150MOL0     H20203   8.676   1.276   0.641 -0.2710 -0.5299 -1.3114
  150MOL0     H20204   8.457   1.345   0.840 -0.3313 -1.0427  2.7734
  150MOL0     H20205   8.633   1.417   0.839  0.1954 -0.4753 -5.9352
  150MOL0     H20206   8.619   1.333   1.047  0.4225  1.7302 -1.7086
  150MOL0     H20207   8.707   1.214   0.946  0.1876 -0.7588  0.8252
  150MOL0     H20208   8.508   1.074   0.938  2.6994  0.1020  0.1321
  150MOL0     H20209   8.423   1.187   1.049 -1.1017 -0.9687 -2.8552
  150MOL0     H20210   8.418   0.902   1.015 -1.4591  2.4385  1.4353
  150MOL0     H20211   8.491   0.604   0.939  2.1105  2.2008  0.5023
  150MOL0     H20212   8.349   0.560   1.038  1.6341 -0.6842 -0.7228
  150MOL0     H20213   8.344   0.704   0.943 -1.1236  3.1831  2.7747
  150MOL0     H20214   8.856   0.332   1.193 -2.2015 -0.3342 -1.6517
  150MOL0     H20215   8.853   0.090   1.173  0.4384 -0.6811  0.9793
  150MOL0     H20216   8.818  -0.147   1.492 -1.3760  1.2506  2.1816
  150MOL0     H20217   8.642  -0.113   1.506 -0.7371 -0.9367 -1.1794
  150MOL0     H20218   8.642  -0.310   1.312  4.6924 -3.2980 -2.2151
  150MOL0     H20219   8.756  -0.379   1.427 -1.1753  0.1238  1.2219
  150MOL0     H20220   8.503  -0.269   1.515  3.0995  1.8789 -3.0769
  150MOL0     H20221   8.637  -0.323   1.614 -0.0463 -3.7166  0.6289
  150MOL0     H20222   8.531  -0.542   1.424  2.3197 -2.5407  2.0440
  150MOL0     H20223   8.598  -0.542   1.586 -0.2286 -1.4899  0.7498
  150MOL0     H20224   8.313  -0.485   1.491  1.6514 -0.3740 -2.0283
  150MOL0     H20225   8.365  -0.427   1.651  0.0326  0.4838  0.7661
  150MOL0     H20226   8.370  -0.711   1.565  2.8807  0.2899 -0.5485
  150MOL0     H20227   8.449  -0.647   1.713  1.2818 -1.6304 -1.8807
  150MOL0     H20228   8.199  -0.729   1.743 -2.3185  1.6457  1.3150
  150MOL0     H20229   8.165  -0.576   1.677 -0.9879 -0.3249 -1.2183
  150MOL0     H20230   8.182  -0.546   1.922  0.7701  4.6084 -0.7378
  150MOL0     H20231   8.324  -0.478   1.858  2.7221 -0.1782 -0.5761
  150MOL0     H20232   8.543   0.077   1.473  2.1096 -0.2169  2.1647
  150MOL0     H20233   8.539   0.313   1.467 -1.7058  2.1037 -4.2380
  150MOL0     H20234   8.696   0.726   1.375  1.1788  0.1745 -0.9571
  150MOL0     H20235   8.708   0.954   1.340 -0.9732  0.8525  1.3762
  150MOL0     H20236   7.651   0.582   1.023 -2.7037 -0.8556  3.1522
  150MOL0     H20237   7.463   0.649   1.111 -1.2916 -2.2596  1.3174
  150MOL0     H20238   6.837   0.521   1.081 -3.6841  0.8828  1.6382
  150MOL0     H20239   6.677   0.643   1.171  0.3544 -1.2810  0.8250
  150MOL0     H20240   6.515   0.951   1.224  1.9845  0.8634  0.5071
  150MOL0     H20241   6.534   0.790   1.182  0.0831  0.3208  0.6459
  150MOL0     H20242   6.577   0.737   1.438  1.4535  2.7040  2.1117
  150MOL0     H20243   6.415   0.742   1.365 -0.6809 -0.4565  2.8716
  150MOL0     H20244   6.532   1.003   1.458 -1.8693  1.4579 -2.9118
  150MOL0     H20245   6.485   0.885   1.581  1.7180  2.0103 -0.0094
  150MOL0     H20246   6.252   0.891   1.439 -0.6614  0.5904 -0.6624
  150MOL0     H20247   6.334   1.036   1.385  1.2769 -6.2253 -4.9088
  150MOL0     H20248   6.175   1.151   1.749 -1.4103  2.4049 -3.6038
  150MOL0     H20249   6.943   0.966   1.259 -2.3707  1.6915  0.6374
  150MOL0     H20250   7.132   0.842   1.157 -1.0739  1.3636 -0.1654
  151MOL0     O20251   5.932   0.287   1.232  0.8100 -0.3262 -0.0991
  151MOL0     C20252   5.935   0.394   1.299 -0.2952  1.1861  0.3789
  151MOL0     O20253   5.979   0.406   1.433 -0.1768 -0.7848  0.0241
  151MOL0     C20254   6.045   0.300   1.487 -0.3385  0.1904  0.3702
  151MOL0     C20255   5.971   0.206   1.551 -0.7279  0.7270 -0.5403
  151MOL0     C20256   6.028   0.087   1.591  0.2352 -0.0415  0.5936
  151MOL0     C20257   6.167   0.069   1.573 -0.4193  0.3989 -0.6464
  151MOL0     O20258   6.235  -0.047   1.610 -0.1682 -0.6170  0.9928
  151MOL0     C20259   6.193  -0.143   1.704  0.1462  0.4675 -1.0270
  151MOL0     C20260   6.287  -0.263   1.714 -0.4011 -0.4485  0.3468
  151MOL0     C20261   6.241  -0.357   1.829 -0.7212  0.2030  0.4907
  151MOL0     C20262   6.273  -0.507   1.803 -0.5204 -0.2758  0.5330
  151MOL0     C20263   6.189  -0.606   1.885 -0.2611  0.2945 -0.5604
  151MOL0     C20264   6.264  -0.742   1.905  0.7370 -0.2377 -0.0033
  151MOL0     C20265   6.287  -0.817   1.766 -1.0073 -0.6344 -0.6861
  151MOL0     C20266   6.401  -0.921   1.785  0.0656 -0.6727 -0.3886
  151MOL0     N20267   6.420  -1.014   1.671  0.1454  0.3526 -0.0613
  151MOL0     C20268   6.330  -1.099   1.617  0.6152  0.2637  0.4742
  151MOL0     C20269   6.396  -1.155   1.516  0.4183  0.5947  0.1518
  151MOL0     C20270   6.323  -1.260   1.434  0.2498  0.0392 -0.6235
  151MOL0     C20271   6.397  -1.404   1.434  0.0186 -1.0181  0.6335
  151MOL0     C20272   6.523  -1.418   1.356 -0.1923 -0.0239 -0.1063
  151MOL0     C20273   6.583  -1.561   1.343  0.4703  0.0990  0.5552
  151MOL0     O20274   6.655  -1.566   1.219 -0.1571  0.0578  0.4795
  151MOL0     C20275   6.693  -1.685   1.164  0.0882 -0.4567  0.9946
  151MOL0     C20276   6.688  -1.801   1.231  0.6979  0.6124 -0.0230
  151MOL0     C20277   6.746  -1.918   1.182  0.4381  0.8700 -0.1402
  151MOL0     C20278   6.737  -2.049   1.260  0.1720  0.1226  0.4482
  151MOL0     C20279   6.811  -1.916   1.056 -0.4927  0.6680 -1.0357
  151MOL0     C20280   6.874  -2.030   0.987 -0.5501 -0.6958  0.4103
  151MOL0     O20281   6.833  -2.158   1.010 -0.3576 -0.2056  0.1418
  151MOL0     C20282   6.899  -2.262   0.958 -0.9357 -0.5324  0.3089
  151MOL0     C20283   6.920  -2.282   0.821 -0.7391 -0.1023 -0.0324
  151MOL0     C20284   6.986  -2.405   0.775 -0.0060  0.2364 -0.7290
  151MOL0     C20285   7.025  -2.505   0.862 -1.0709  0.8707  0.7315
  151MOL0     O20286   7.081  -2.620   0.820 -0.1584 -0.1991 -0.2748
  151MOL0     C20287   7.063  -2.684   0.690 -0.2782 -0.4476  0.5103
  151MOL0     C20288   7.201  -2.729   0.644 -0.6981 -0.5982 -0.9043
  151MOL0     C20289   7.255  -2.851   0.711 -0.5726 -0.9248 -0.7095
  151MOL0     C20290   7.178  -2.973   0.666  0.1664  0.3528  1.6523
  151MOL0     C20291   7.174  -3.090   0.773 -1.0634  0.0429  0.7929
  151MOL0     C20292   7.314  -3.122   0.808 -0.3775  0.3770 -0.7170
  151MOL0     C20293   7.329  -3.228   0.926  0.6840  0.6614  0.2123
  151MOL0     C20294   7.360  -3.159   1.053  0.2537  0.1055 -0.3533
  151MOL0    Cl20295   7.261  -3.005   1.082 -0.0486  0.7108  0.3015
  151MOL0     C20296   7.007  -2.480   0.994  0.9217 -0.2093  0.6932
  151MOL0     C20297   6.945  -2.366   1.049  0.7652  0.3982  0.6494
  151MOL0     O20298   6.963  -1.994   0.910  0.3863 -0.1432 -0.3686
  151MOL0     C20299   6.802  -1.792   0.982 -0.5579  1.0588  0.7151
  151MOL0     C20300   6.745  -1.674   1.034  0.2502 -0.3506  0.1242
  151MOL0     N20301   6.520  -1.107   1.504 -0.5899  0.2379  0.3334
  151MOL0     N20302   6.527  -1.014   1.590 -1.7704  0.8913 -0.4545
  151MOL0     C20303   6.248   0.169   1.516 -0.2331  0.0297  1.0632
  151MOL0     C20304   6.185   0.293   1.478 -0.6540  0.3630 -0.2426
  151MOL0     C20305   5.884   0.516   1.234 -0.3644  0.0659  0.0519
  151MOL0     C20306   5.925   0.638   1.282  0.1007 -0.5139 -0.5729
  151MOL0     C20307   5.862   0.752   1.226 -0.2055  0.2580 -1.2390
  151MOL0     C20308   5.761   0.756   1.132  0.8888  0.6303 -0.5121
  151MOL0     O20309   5.713   0.882   1.094  0.8308  0.2338 -0.3103
  151MOL0     C20310   5.590   0.885   1.022  0.6783  0.3215  0.1549
  151MOL0     C20311   5.576   1.031   0.966  0.1404 -0.4696  0.0536
  151MOL0     C20312   5.554   1.153   1.061 -0.2730  0.4040 -0.9503
  151MOL0     C20313   5.494   1.284   0.995  0.5053 -0.6041  0.5148
  151MOL0     C20314   5.610   1.362   0.934  0.3967  0.1449 -0.3598
  151MOL0     C20315   5.710   1.410   0.885  0.1897 -0.4221  1.2984
  151MOL0     C20316   5.719   0.633   1.086  0.5566 -0.6552  0.3189
  151MOL0     C20317   5.779   0.520   1.137 -0.7504  0.8017 -0.2243
  151MOL0     H20318   5.863   0.216   1.553 -1.0716 -0.8806 -4.0548
  151MOL0     H20319   5.980   0.006   1.644  0.6409  0.1721  1.3056
  151MOL0     H20320   6.174  -0.101   1.803  0.9507 -1.2738 -0.0874
  151MOL0     H20321   6.091  -0.172   1.677  0.3959  0.8185 -2.4268
  151MOL0     H20322   6.285  -0.313   1.617 -0.6409  0.0148  0.1067
  151MOL0     H20323   6.385  -0.220   1.737  1.8313 -3.8741 -1.8043
  151MOL0     H20324   6.284  -0.333   1.927  0.6716  3.0845 -0.7059
  151MOL0     H20325   6.132  -0.362   1.830 -0.8393  0.8392 -1.9431
  151MOL0     H20326   6.267  -0.544   1.700  0.9062 -4.0777  1.6355
  151MOL0     H20327   6.373  -0.519   1.845 -0.5630 -0.8320  0.4737
  151MOL0     H20328   6.173  -0.566   1.986  0.9400  0.4824 -0.4380
  151MOL0     H20329   6.095  -0.628   1.834  0.2351  1.1879 -1.8937
  151MOL0     H20330   6.367  -0.729   1.937  1.3440 -1.1832 -1.4892
  151MOL0     H20331   6.215  -0.810   1.977  2.0669 -1.9723 -0.6603
  151MOL0     H20332   6.196  -0.874   1.745 -0.6432 -0.9571 -1.3974
  151MOL0     H20333   6.320  -0.752   1.685 -1.4319  1.7776  0.9773
  151MOL0     H20334   6.380  -0.974   1.878 -0.1017 -4.3173 -2.3226
  151MOL0     H20335   6.498  -0.871   1.792 -0.4253  0.7801 -2.7838
  151MOL0     H20336   6.223  -1.098   1.636 -0.0532 -1.7782 -2.4636
  151MOL0     H20337   6.221  -1.276   1.472  0.1901 -1.0744 -1.1896
  151MOL0     H20338   6.308  -1.229   1.330 -3.1950 -0.7997 -0.5096
  151MOL0     H20339   6.333  -1.475   1.380  3.0251 -3.5276  0.0623
  151MOL0     H20340   6.414  -1.438   1.536  3.9996 -0.0290  0.4831
  151MOL0     H20341   6.592  -1.350   1.407 -1.3130 -0.5071  2.1577
  151MOL0     H20342   6.495  -1.391   1.253  0.3153 -0.2374 -0.3037
  151MOL0     H20343   6.499  -1.632   1.345 -1.9146  2.7650  2.7177
  151MOL0     H20344   6.650  -1.574   1.428  2.3710 -1.2725 -1.0691
  151MOL0     H20345   6.652  -1.809   1.333 -0.4167  3.1698 -0.1340
  151MOL0     H20346   6.655  -2.111   1.222  1.1841  0.0882 -1.8828
  151MOL0     H20347   6.827  -2.111   1.246 -0.1148 -0.1811 -0.0809
  151MOL0     H20348   6.719  -2.034   1.366 -0.3418  1.4099  0.1912
  151MOL0     H20349   6.889  -2.212   0.744 -4.8163 -1.8182 -0.2133
  151MOL0     H20350   7.011  -2.409   0.670 -0.2362 -2.1569 -0.7412
  151MOL0     H20351   6.993  -2.766   0.709  0.9399 -1.5236  0.4628
  151MOL0     H20352   7.013  -2.624   0.614  1.2527 -1.7865 -1.6962
  151MOL0     H20353   7.208  -2.744   0.535  2.8887  1.1950 -1.0975
  151MOL0     H20354   7.276  -2.652   0.668 -1.3235  0.0643 -1.0539
  151MOL0     H20355   7.250  -2.837   0.819 -4.0057  3.1441 -1.1368
  151MOL0     H20356   7.362  -2.865   0.691 -0.3707  0.0987 -0.3787
  151MOL0     H20357   7.078  -2.945   0.631  1.5654  0.7795 -2.5595
  151MOL0     H20358   7.222  -3.016   0.576 -0.4030  1.2559  0.9310
  151MOL0     H20359   7.130  -3.178   0.725 -1.1107  2.2987 -3.8746
  151MOL0     H20360   7.111  -3.063   0.858 -2.8667  1.2686 -0.8323
  151MOL0     H20361   7.367  -3.153   0.717  2.8112  1.3152  0.6792
  151MOL0     H20362   7.373  -3.035   0.836  0.4860 -0.0448 -1.1852
  151MOL0     H20363   7.412  -3.293   0.896 -1.4668 -0.8301 -3.1806
  151MOL0     H20364   7.240  -3.290   0.916 -0.1338  1.7134  0.7863
  151MOL0     H20365   7.467  -3.136   1.065  0.6129 -0.8876 -1.3957
  151MOL0     H20366   7.323  -3.228   1.129 -0.1069 -1.0779 -1.5620
  151MOL0     H20367   7.024  -2.556   1.069  0.1846 -1.0716  0.0005
  151MOL0     H20368   6.942  -2.361   1.158  0.2330 -2.3490  0.8260
  151MOL0     H20369   6.845  -1.764   0.886 -1.2515  1.9866  0.6589
  151MOL0     H20370   6.738  -1.579   0.982  0.8558 -0.2317  0.2529
  151MOL0     H20371   6.355   0.152   1.511 -0.1486  0.1835  2.2222
  151MOL0     H20372   6.240   0.371   1.427 -2.0408 -0.1615 -2.6805
  151MOL0     H20373   5.994   0.653   1.364  0.7378 -1.0765 -0.9938
  151MOL0     H20374   5.880   0.847   1.275 -0.8783 -1.3940  2.5522
  151MOL0     H20375   5.598   0.819   0.936  2.1149  0.6279  0.0263
  151MOL0     H20376   5.508   0.860   1.090  0.9769 -0.3196  0.2842
  151MOL0     H20377   5.503   1.029   0.885  0.8332 -0.1459 -0.5945
  151MOL0     H20378   5.669   1.047   0.911 -1.5052  1.8678 -2.2464
  151MOL0     H20379   5.651   1.179   1.104 -0.0915  1.0734 -1.7467
  151MOL0     H20380   5.483   1.134   1.142  0.8314  0.7813  0.1255
  151MOL0     H20381   5.442   1.347   1.068  1.4201  1.2727 -0.3817
  151MOL0     H20382   5.433   1.268   0.906 -0.4885  2.4783  0.5209
  151MOL0     H20383   5.793   1.460   0.840 -2.8543  2.8722 -1.2558
  151MOL0     H20384   5.637   0.626   1.015  2.0997  0.0895 -1.6385
  151MOL0     H20385   5.737   0.427   1.101 -2.2677  1.7477 -1.0331
  152MOL0     O20386   7.174   2.259   9.035  0.8305 -0.9347 -0.0728
  152MOL0     C20387   7.257   2.186   8.983  0.2787  0.2491  1.0505
  152MOL0     O20388   7.381   2.218   8.953  0.0161 -0.2100  0.5468
  152MOL0     C20389   7.421   2.347   8.976  0.0144 -0.2509 -0.0710
  152MOL0     C20390   7.427   2.405   9.101 -0.2127 -0.0034 -0.6871
  152MOL0     C20391   7.488   2.522   9.126 -0.2011 -0.7803  0.5821
  152MOL0     C20392   7.530   2.605   9.017 -1.3297  0.3365  0.0256
  152MOL0     O20393   7.586   2.731   9.029 -0.0722 -0.1097  1.1578
  152MOL0     C20394   7.546   2.808   9.146  0.1074  0.3684 -0.1812
  152MOL0     C20395   7.653   2.830   9.252  0.8985  0.2368  0.2630
  152MOL0     C20396   7.768   2.914   9.198 -0.1029  0.4507 -0.0339
  152MOL0     C20397   7.725   3.062   9.169 -0.7296 -0.4794 -0.2760
  152MOL0     C20398   7.832   3.142   9.095  0.1458 -0.5389  0.0960
  152MOL0     C20399   7.959   3.167   9.178  0.4434  1.4208 -0.2541
  152MOL0     C20400   7.930   3.225   9.315  0.1763  0.1180 -0.1277
  152MOL0     C20401   7.868   3.360   9.336 -0.4377  0.0322  1.2458
  152MOL0     N20402   7.945   3.463   9.265  0.3058  0.4006 -0.6600
  152MOL0     C20403   8.040   3.550   9.310 -0.1727  0.3764 -0.2587
  152MOL0     C20404   8.083   3.628   9.205  0.3305 -0.3409  0.9021
  152MOL0     C20405   8.185   3.737   9.219  0.1934 -0.4090 -0.0041
  152MOL0     C20406   8.295   3.721   9.109 -0.4567  0.2226  0.3252
  152MOL0     C20407   8.425   3.788   9.145  0.2708 -0.1172  0.0089
  152MOL0     C20408   8.550   3.783   9.054 -0.0457  0.4290 -0.5540
  152MOL0     O20409   8.576   3.911   9.004 -0.2780 -0.2693 -1.0079
  152MOL0     C20410   8.696   3.933   8.937 -0.2190 -0.3750 -0.5047
  152MOL0     C20411   8.796   3.835   8.906 -0.3198 -0.7766  0.1369
  152MOL0     C20412   8.917   3.867   8.835  0.1438 -0.2363 -0.4087
  152MOL0     C20413   8.993   3.740   8.801 -0.4308 -0.0934  0.3710
  152MOL0     C20414   8.940   4.006   8.806 -0.0462 -0.1854 -0.4638
  152MOL0     C20415   9.070   4.057   8.736 -0.2538 -0.1971 -0.6592
  152MOL0     O20416   9.159   3.981   8.670  0.0910 -0.2511 -0.6024
  152MOL0     C20417   9.286   4.026   8.665  0.0930  0.4607  0.0692
  152MOL0     C20418   9.366   4.030   8.783  1.0633  0.7742 -0.1708
  152MOL0     C20419   9.497   4.049   8.765 -0.1525 -0.4006  0.2697
  152MOL0     C20420   9.555   4.071   8.640 -0.0861 -0.2006 -1.6951
  152MOL0     O20421   9.694   4.096   8.635  0.3598  0.2699  0.2962
  152MOL0     C20422   9.742   4.215   8.570 -0.0498 -0.4617  0.1824
  152MOL0     C20423   9.698   4.350   8.604  0.6008 -0.3833 -0.6452
  152MOL0     C20424   9.767   4.460   8.518  0.0852 -0.3720 -0.3536
  152MOL0     C20425   9.689   4.587   8.529  0.1559  0.0539 -0.3258
  152MOL0     C20426   9.748   4.699   8.445  0.4515 -0.4336  0.3928
  152MOL0     C20427   9.893   4.733   8.469  0.9464  0.9126  0.4706
  152MOL0     C20428   9.943   4.869   8.411  0.2795  0.6063 -0.1162
  152MOL0     C20429   9.885   4.994   8.488  1.3000  1.2823  0.0225
  152MOL0    Cl20430   9.952   5.007   8.654  0.6432  0.0764 -0.3140
  152MOL0     C20431   9.475   4.063   8.520  0.2551  0.0215  0.7206
  152MOL0     C20432   9.342   4.033   8.533 -0.0892 -0.1576 -0.4646
  152MOL0     O20433   9.080   4.181   8.733  0.4779  0.0236  0.7618
  152MOL0     C20434   8.848   4.099   8.858 -0.0317  0.2323  0.7318
  152MOL0     C20435   8.730   4.066   8.914  1.1823  0.5714 -0.4451
  152MOL0     N20436   8.008   3.583   9.098  0.7672 -0.1366  0.1515
  152MOL0     N20437   7.922   3.498   9.140 -0.5961 -0.5769  0.6438
  152MOL0     C20438   7.515   2.554   8.885 -0.5851  0.6656 -0.7341
  152MOL0     C20439   7.469   2.426   8.870 -0.3623  0.6823 -0.4807
  152MOL0     C20440   7.228   2.037   8.966 -0.4071  0.2235 -0.2051
  152MOL0     C20441   7.287   1.958   8.864 -0.7535  0.2305 -0.0411
  152MOL0     C20442   7.258   1.820   8.849  0.5820 -1.4103  1.0496
  152MOL0     C20443   7.174   1.767   8.938  0.5352 -0.1102  0.9655
  152MOL0     O20444   7.120   1.647   8.898  0.1057  0.8520 -0.6589
  152MOL0     C20445   7.068   1.557   8.999  0.1166  0.4396 -1.4779
  152MOL0     C20446   7.185   1.480   9.053 -0.2212 -0.1413  0.3140
  152MOL0     C20447   7.246   1.549   9.177  0.2667  0.2220 -0.3549
  152MOL0     C20448   7.373   1.479   9.209  0.0075 -1.7587 -0.8484
  152MOL0     C20449   7.433   1.516   9.344  0.0297  0.1955  0.4717
  152MOL0     C20450   7.492   1.547   9.449  0.0771 -0.6976 -0.5334
  152MOL0     C20451   7.122   1.842   9.043  0.1318 -0.1167 -0.1528
  152MOL0     C20452   7.147   1.972   9.054  0.8080  0.3547 -0.1990
  152MOL0     H20453   7.397   2.334   9.178  1.7900 -1.4558 -1.1612
  152MOL0     H20454   7.494   2.556   9.229  1.5169  1.5491 -0.1930
  152MOL0     H20455   7.481   2.891   9.116 -1.2101 -0.8021 -0.6667
  152MOL0     H20456   7.462   2.755   9.192  1.9516 -2.9305 -0.3028
  152MOL0     H20457   7.620   2.879   9.345  2.1816  0.1043  0.8110
  152MOL0     H20458   7.677   2.728   9.281 -1.9585 -1.1219 -1.6355
  152MOL0     H20459   7.846   2.923   9.274  1.1359 -0.9029 -1.0989
  152MOL0     H20460   7.816   2.853   9.122  0.1756 -0.1126  0.5862
  152MOL0     H20461   7.638   3.065   9.103 -1.7420  0.4396  1.0595
  152MOL0     H20462   7.694   3.102   9.266 -1.7055 -4.3591  1.2428
  152MOL0     H20463   7.866   3.092   9.004  0.3648 -2.1960  1.0662
  152MOL0     H20464   7.791   3.241   9.072  2.1156  0.7854  1.8830
  152MOL0     H20465   8.020   3.077   9.189  3.7169  3.4730 -0.1856
  152MOL0     H20466   8.026   3.235   9.126 -0.3631  2.2625 -0.2249
  152MOL0     H20467   7.885   3.156   9.387  2.3961  0.2724  1.5085
  152MOL0     H20468   8.026   3.240   9.364  1.8092  3.9954 -3.8920
  152MOL0     H20469   7.863   3.402   9.437 -0.1076  0.2019  1.1928
  152MOL0     H20470   7.764   3.352   9.303  0.3904  0.3819 -1.7418
  152MOL0     H20471   8.075   3.545   9.413  1.0103 -1.7669 -0.6993
  152MOL0     H20472   8.128   3.830   9.212  0.6688 -0.0769  0.5069
  152MOL0     H20473   8.218   3.738   9.323  0.3285 -0.5701 -0.0444
  152MOL0     H20474   8.255   3.747   9.011 -0.4924  1.9612  0.7616
  152MOL0     H20475   8.313   3.614   9.095 -2.6043 -0.1521 -0.0176
  152MOL0     H20476   8.465   3.745   9.237  1.4269  0.1360 -0.3585
  152MOL0     H20477   8.406   3.893   9.164  1.1628  0.0231  0.1675
  152MOL0     H20478   8.527   3.702   8.984 -2.7072  1.9846 -1.6305
  152MOL0     H20479   8.635   3.753   9.117 -0.9643  0.5358  0.7772
  152MOL0     H20480   8.765   3.734   8.932 -4.5557  0.6872  1.6216
  152MOL0     H20481   8.997   3.737   8.691  1.0667 -1.4056  0.4261
  152MOL0     H20482   9.094   3.746   8.840 -0.5586  0.6537  0.6113
  152MOL0     H20483   8.946   3.649   8.840 -1.1820  0.4973  0.8796
  152MOL0     H20484   9.320   4.015   8.880 -0.8414  1.4107 -0.9299
  152MOL0     H20485   9.565   4.037   8.849 -0.6641  1.7708  1.0629
  152MOL0     H20486   9.849   4.217   8.588 -0.2737 -2.0532  2.0488
  152MOL0     H20487   9.722   4.206   8.462 -0.0211  2.5856 -0.1592
  152MOL0     H20488   9.592   4.353   8.575  0.8578 -1.6249 -1.8301
  152MOL0     H20489   9.716   4.348   8.712 -0.6736 -1.0661 -0.4246
  152MOL0     H20490   9.766   4.425   8.414 -1.0582 -4.8503  0.9466
  152MOL0     H20491   9.865   4.481   8.562  0.9311 -4.0387 -0.1404
  152MOL0     H20492   9.582   4.577   8.508 -0.2136  0.0972  1.3886
  152MOL0     H20493   9.698   4.625   8.632  0.8852  0.2917 -0.4715
  152MOL0     H20494   9.686   4.788   8.458 -1.3543 -1.1225 -2.4031
  152MOL0     H20495   9.729   4.669   8.341 -2.1929 -0.9181  0.9528
  152MOL0     H20496   9.916   4.723   8.575 -0.9745  0.2283  0.8697
  152MOL0     H20497   9.954   4.654   8.424  2.0385 -0.9456  4.6735
  152MOL0     H20498   9.919   4.878   8.305 -0.0976  1.8294  0.0508
  152MOL0     H20499  10.052   4.863   8.412  0.3666  1.1991 -1.9590
  152MOL0     H20500   9.777   4.980   8.501  0.8536  4.2776  0.3989
  152MOL0     H20501   9.889   5.091   8.437 -3.7548  3.3043  2.7058
  152MOL0     H20502   9.535   4.065   8.430  3.0902  1.5015  2.4665
  152MOL0     H20503   9.291   4.011   8.440  0.5959 -1.8939 -0.4540
  152MOL0     H20504   8.862   4.204   8.836  1.7915 -0.6776 -3.4616
  152MOL0     H20505   8.663   4.151   8.927  2.5863  1.4664  1.2971
  152MOL0     H20506   7.552   2.615   8.803  1.2122 -0.4260 -0.7610
  152MOL0     H20507   7.460   2.376   8.774  2.6228 -0.0078 -0.5175
  152MOL0     H20508   7.340   2.020   8.793  0.6627  0.5441  1.2503
  152MOL0     H20509   7.297   1.766   8.763  0.4363  0.0676  0.0158
  152MOL0     H20510   7.016   1.601   9.084  1.9015  0.0138 -0.1200
  152MOL0     H20511   7.003   1.481   8.955  0.2674 -2.5965  2.9179
  152MOL0     H20512   7.261   1.457   8.977 -1.7752 -2.0734 -0.7469
  152MOL0     H20513   7.145   1.381   9.075 -1.5790  0.7465  2.1209
  152MOL0     H20514   7.179   1.533   9.262 -1.2456 -4.5726 -2.0722
  152MOL0     H20515   7.256   1.657   9.163 -0.8596  0.1426 -2.0715
  152MOL0     H20516   7.436   1.515   9.126 -0.6135  2.1035  0.1634
  152MOL0     H20517   7.350   1.373   9.207  3.6211 -2.7261  0.4315
  152MOL0     H20518   7.554   1.560   9.535 -0.6120 -2.0240  0.2216
  152MOL0     H20519   7.050   1.802   9.113 -0.3488 -0.1581 -0.6649
  152MOL0     H20520   7.089   2.015   9.134 -0.5953 -2.9444  0.7446
  153MOL0     O20521  10.307   8.215   2.322  0.7824 -0.0242  0.1638
  153MOL0     C20522  10.291   8.340   2.343  0.7297  0.0001 -0.0877
  153MOL0     O20523  10.218   8.425   2.277 -0.6005 -0.3919 -0.2446
  153MOL0     C20524  10.154   8.384   2.163 -0.3679  1.0380 -0.7585
  153MOL0     C20525  10.050   8.299   2.180  0.1044  0.2367 -0.3147
  153MOL0     C20526   9.985   8.241   2.076 -0.3976  0.0007  0.2777
  153MOL0     C20527  10.028   8.280   1.944 -0.1700  0.4581 -0.7752
  153MOL0     O20528   9.958   8.208   1.849  0.3326 -0.0394  0.3515
  153MOL0     C20529  10.010   8.207   1.714  0.0625  0.5897 -0.4793
  153MOL0     C20530   9.909   8.148   1.618  0.4667  0.4683 -0.4035
  153MOL0     C20531   9.864   8.006   1.646 -0.2704 -0.5415 -0.0627
  153MOL0     C20532   9.707   8.003   1.635 -0.6304  0.5037  0.1516
  153MOL0     C20533   9.662   7.852   1.641  0.0135 -0.4196  0.4084
  153MOL0     C20534   9.647   7.799   1.786 -0.6063 -0.0974 -0.0634
  153MOL0     C20535   9.549   7.687   1.794  0.2035 -0.5875  0.9104
  153MOL0     C20536   9.402   7.726   1.757  0.0976 -0.0220 -0.0749
  153MOL0     N20537   9.304   7.639   1.822  0.3828 -0.1384  0.1485
  153MOL0     C20538   9.301   7.497   1.821 -1.4940 -0.0787  0.0263
  153MOL0     C20539   9.182   7.456   1.862  0.0402 -0.2106  0.0673
  153MOL0     C20540   9.114   7.320   1.874 -0.1875 -0.1819 -0.5650
  153MOL0     C20541   8.998   7.302   1.772 -0.8961  0.1811  0.1166
  153MOL0     C20542   9.036   7.241   1.641 -0.4693 -0.1921  0.7544
  153MOL0     C20543   9.139   7.339   1.574  0.0906  0.2214  0.1160
  153MOL0     O20544   9.272   7.310   1.602 -0.5824  0.2483  0.2317
  153MOL0     C20545   9.370   7.373   1.529 -0.4343 -0.8005  1.0810
  153MOL0     C20546   9.496   7.310   1.512  0.1067  0.0031  0.7318
  153MOL0     C20547   9.607   7.362   1.439 -0.3190 -0.0428  0.3566
  153MOL0     C20548   9.731   7.270   1.425  0.5236 -0.1892  0.0668
  153MOL0     C20549   9.587   7.501   1.386  0.1879 -0.4646 -0.2131
  153MOL0     C20550   9.683   7.586   1.313  0.6128 -0.8573 -0.2381
  153MOL0     O20551   9.648   7.711   1.254  0.4142 -0.1500  0.0369
  153MOL0     C20552   9.725   7.796   1.181 -0.1599  0.8984  0.2357
  153MOL0     C20553   9.845   7.763   1.112  0.0361  0.0526 -0.0584
  153MOL0     C20554   9.913   7.868   1.051  0.1389  0.7166 -0.0876
  153MOL0     C20555   9.860   7.996   1.037 -0.3274 -0.3546  0.4558
  153MOL0     O20556   9.931   8.095   0.974  0.0662  1.0640 -0.0363
  153MOL0     C20557   9.864   8.203   0.903 -0.3503  0.5946  0.4143
  153MOL0     C20558   9.741   8.152   0.824  0.6181 -0.0500  0.8175
  153MOL0     C20559   9.683   8.241   0.721 -0.4686 -0.3926  1.1073
  153MOL0     C20560   9.561   8.172   0.645 -0.6799  0.0103  0.1018
  153MOL0     C20561   9.497   8.264   0.540  0.8094  0.2186  0.0292
  153MOL0     C20562   9.454   8.180   0.411  0.5790 -0.1472 -1.3237
  153MOL0     C20563   9.361   8.063   0.432  0.3238  0.0647  0.0918
  153MOL0     C20564   9.419   7.922   0.446  0.6479 -0.4333 -0.2687
  153MOL0    Cl20565   9.499   7.857   0.293  0.0195  0.0814 -0.3069
  153MOL0     C20566   9.735   8.020   1.090  0.8007 -0.3558 -0.1887
  153MOL0     C20567   9.668   7.923   1.170  0.0158 -0.9334  0.3294
  153MOL0     O20568   9.801   7.549   1.320 -0.7701  0.0939 -0.1033
  153MOL0     C20569   9.459   7.561   1.397 -1.6581  0.1264 -0.5921
  153MOL0     C20570   9.356   7.502   1.475 -0.0054 -0.5188 -0.6135
  153MOL0     N20571   9.105   7.573   1.888 -0.0528  1.3173  0.5904
  153MOL0     N20572   9.176   7.676   1.852  0.1226  0.6434  0.4878
  153MOL0     C20573  10.144   8.368   1.928 -0.4773  0.2945  0.6522
  153MOL0     C20574  10.207   8.416   2.037  0.8026 -0.4214 -0.0718
  153MOL0     C20575  10.359   8.396   2.466  0.5962  0.4039  0.2037
  153MOL0     C20576  10.458   8.326   2.535 -0.1133  0.0843  0.4550
  153MOL0     C20577  10.508   8.390   2.653  0.2753 -0.2389  0.6794
  153MOL0     C20578  10.462   8.523   2.701 -0.8125  0.4094  0.1076
  153MOL0     O20579  10.522   8.579   2.809  0.5892 -0.6052  0.1545
  153MOL0     C20580  10.660   8.578   2.807 -0.4119 -0.2493  0.0227
  153MOL0     C20581  10.712   8.665   2.908 -1.3279 -0.3130  0.8997
  153MOL0     C20582  10.872   8.648   2.896  0.1698 -0.8488 -0.1659
  153MOL0     C20583  10.944   8.767   2.958  0.0216  0.8330  0.3738
  153MOL0     C20584  10.925   8.887   2.872  0.3522  0.1153  0.3015
  153MOL0     C20585  10.926   8.989   2.806 -0.9374 -0.3118  0.7533
  153MOL0     C20586  10.371   8.589   2.624 -0.8651 -1.3371 -0.1008
  153MOL0     C20587  10.316   8.522   2.517  0.3303 -0.1364  0.0087
  153MOL0     H20588  10.032   8.273   2.284  3.4384  2.8793  1.0937
  153MOL0     H20589   9.900   8.174   2.080 -0.2523 -0.4307 -2.0839
  153MOL0     H20590  10.008   8.312   1.683 -0.6237  0.7754  0.1598
  153MOL0     H20591  10.110   8.165   1.699 -0.6681 -0.3845 -3.1261
  153MOL0     H20592   9.817   8.207   1.616 -3.1124 -4.5238 -0.4687
  153MOL0     H20593   9.961   8.160   1.523 -0.2650 -0.5196 -0.9456
  153MOL0     H20594   9.916   7.940   1.576  1.8553 -0.4361  1.3102
  153MOL0     H20595   9.894   7.958   1.739 -4.1556 -2.6962  0.2834
  153MOL0     H20596   9.660   8.054   1.719  1.0515  0.3072  1.2457
  153MOL0     H20597   9.679   8.050   1.540 -1.6864 -1.3204 -0.5075
  153MOL0     H20598   9.563   7.845   1.594  1.3658 -0.4736 -2.6858
  153MOL0     H20599   9.721   7.785   1.578 -3.8742 -1.0130 -3.0795
  153MOL0     H20600   9.741   7.754   1.820 -1.1770 -0.4155  1.1421
  153MOL0     H20601   9.609   7.870   1.859  2.7568  0.1883  1.5700
  153MOL0     H20602   9.577   7.607   1.725 -1.1311 -1.4243  1.2979
  153MOL0     H20603   9.541   7.654   1.898  0.8867 -0.2536  1.0716
  153MOL0     H20604   9.378   7.705   1.652 -0.8175  0.6889 -0.0118
  153MOL0     H20605   9.381   7.829   1.786  0.4455  0.1649 -0.4656
  153MOL0     H20606   9.386   7.433   1.798  0.1076  1.7367  0.6460
  153MOL0     H20607   9.189   7.241   1.876 -0.3753 -0.5461 -3.5573
  153MOL0     H20608   9.061   7.323   1.970 -0.1300 -2.0899 -0.4392
  153MOL0     H20609   8.959   7.400   1.745  2.0327  0.8032 -2.3174
  153MOL0     H20610   8.928   7.227   1.811  0.0167 -0.5831  0.3210
  153MOL0     H20611   8.944   7.253   1.584 -1.3353  0.4176  2.2387
  153MOL0     H20612   9.064   7.136   1.654  1.7917  0.5149  2.2287
  153MOL0     H20613   9.126   7.441   1.612 -2.1434 -0.5847  1.6883
  153MOL0     H20614   9.116   7.331   1.468 -1.1481 -0.2390  0.4077
  153MOL0     H20615   9.514   7.213   1.558 -1.6660 -0.2591  0.9353
  153MOL0     H20616   9.788   7.310   1.340  1.4323  1.6915  1.4907
  153MOL0     H20617   9.793   7.258   1.514 -0.7896  2.3295  1.4278
  153MOL0     H20618   9.698   7.172   1.389  0.9231 -0.4570  0.4290
  153MOL0     H20619   9.875   7.659   1.109 -1.1154 -0.2680 -2.0717
  153MOL0     H20620  10.008   7.860   0.999  0.2743 -0.1187  0.2667
  153MOL0     H20621   9.840   8.287   0.969  0.8007  1.3513 -0.0893
  153MOL0     H20622   9.942   8.239   0.834 -0.6636  1.9365  0.7340
  153MOL0     H20623   9.767   8.064   0.764 -3.7091  0.9241 -3.0165
  153MOL0     H20624   9.659   8.119   0.887 -0.2733  0.6441  0.0549
  153MOL0     H20625   9.761   8.270   0.649 -0.5332  0.2401  1.2845
  153MOL0     H20626   9.659   8.329   0.781 -0.0095  1.6168 -1.4686
  153MOL0     H20627   9.601   8.084   0.593 -1.5096 -0.2795 -0.0634
  153MOL0     H20628   9.492   8.118   0.711 -0.4099 -4.1667 -2.6622
  153MOL0     H20629   9.562   8.344   0.505  0.0562  2.1162  2.6295
  153MOL0     H20630   9.413   8.317   0.585  1.3209 -1.7474  3.6657
  153MOL0     H20631   9.411   8.254   0.343 -0.9374  0.2387 -0.0004
  153MOL0     H20632   9.549   8.140   0.374 -0.2338 -4.9686  1.0111
  153MOL0     H20633   9.291   8.076   0.348  0.7415 -0.1423 -0.2971
  153MOL0     H20634   9.294   8.081   0.516 -2.2862  0.1784 -1.8842
  153MOL0     H20635   9.338   7.858   0.480 -3.0372  2.7805 -2.1366
  153MOL0     H20636   9.498   7.934   0.520  3.0415 -2.1459 -2.3718
  153MOL0     H20637   9.699   8.123   1.094 -0.9070 -0.6020 -4.4102
  153MOL0     H20638   9.577   7.947   1.224  0.2828  1.2349 -0.0728
  153MOL0     H20639   9.452   7.662   1.359 -0.5022  0.1779 -0.7156
  153MOL0     H20640   9.266   7.561   1.486 -0.6055 -1.5754  0.2880
  153MOL0     H20641  10.180   8.387   1.827  1.4940 -1.1893  1.0215
  153MOL0     H20642  10.300   8.471   2.027  1.2292 -1.2235 -0.5335
  153MOL0     H20643  10.497   8.228   2.511  0.3215 -0.2858  2.4414
  153MOL0     H20644  10.562   8.320   2.716 -1.7724 -2.7352 -0.1336
  153MOL0     H20645  10.688   8.473   2.821 -0.4160 -0.1587  0.7371
  153MOL0     H20646  10.700   8.611   2.711  0.4075 -0.8416  0.1486
  153MOL0     H20647  10.667   8.631   3.002 -0.6875 -2.1129  0.5949
  153MOL0     H20648  10.692   8.772   2.894  0.2380  0.1819  2.1199
  153MOL0     H20649  10.900   8.630   2.792 -2.0659  0.8312 -1.1515
  153MOL0     H20650  10.909   8.561   2.951  3.8238  0.8944  0.4687
  153MOL0     H20651  11.050   8.744   2.972 -0.2836 -0.0938  1.3149
  153MOL0     H20652  10.896   8.781   3.055 -2.1127 -0.1419 -0.4697
  153MOL0     H20653  10.912   9.081   2.752 -1.2743 -0.7956  0.0047
  153MOL0     H20654  10.340   8.688   2.654  3.1897 -1.0197  4.2748
  153MOL0     H20655  10.254   8.591   2.460  3.6894  1.2036 -2.3360
  154MOL0     O20656   1.874  11.111   0.758  0.3161  0.0578 -0.0043
  154MOL0     C20657   1.939  11.212   0.725  0.2379 -1.4963 -0.3351
  154MOL0     O20658   2.079  11.229   0.719  1.2771  0.1687  0.2063
  154MOL0     C20659   2.170  11.129   0.730  0.3483 -0.0109  0.2452
  154MOL0     C20660   2.307  11.156   0.707  0.1631  0.0001  0.2488
  154MOL0     C20661   2.410  11.058   0.738 -0.4107  0.0019  0.0278
  154MOL0     C20662   2.373  10.934   0.799  0.7903 -1.2592  0.3531
  154MOL0     O20663   2.476  10.848   0.832 -0.5313 -0.4342 -0.2553
  154MOL0     C20664   2.446  10.717   0.876 -0.2585  0.1672  0.0211
  154MOL0     C20665   2.572  10.628   0.879 -0.1336  0.5747 -0.4876
  154MOL0     C20666   2.673  10.654   0.998  0.0617 -0.3377 -0.1918
  154MOL0     C20667   2.791  10.559   0.994 -0.1874 -0.2229  0.6358
  154MOL0     C20668   2.884  10.611   1.103 -0.4270  0.7637 -0.0538
  154MOL0     C20669   3.026  10.540   1.102 -1.3115 -0.3632 -0.4071
  154MOL0     C20670   3.100  10.603   1.230  0.8055 -0.1610  0.0844
  154MOL0     C20671   3.241  10.548   1.239 -0.7006 -0.5563  0.3785
  154MOL0     N20672   3.255  10.398   1.243  0.0617 -0.0669  0.1504
  154MOL0     C20673   3.349  10.337   1.322  0.1440 -0.0800 -0.2997
  154MOL0     C20674   3.385  10.220   1.275  0.5314  0.1224  0.2411
  154MOL0     C20675   3.481  10.113   1.326 -0.3416  0.4060 -0.2858
  154MOL0     C20676   3.618  10.151   1.379 -0.0216 -0.5030  0.2516
  154MOL0     C20677   3.710  10.192   1.260 -0.4523 -0.2997  0.8302
  154MOL0     C20678   3.701  10.341   1.233 -0.4491  0.1826 -0.1468
  154MOL0     O20679   3.720  10.402   1.358  0.1208 -0.1633 -0.5443
  154MOL0     C20680   3.695  10.537   1.367 -0.4337  0.3616 -0.3076
  154MOL0     C20681   3.767  10.599   1.476  0.6095  0.4113  0.1511
  154MOL0     C20682   3.745  10.735   1.504  0.1493  1.1450  0.5527
  154MOL0     C20683   3.822  10.783   1.625  0.1072  0.8110 -0.0261
  154MOL0     C20684   3.661  10.818   1.427 -0.7502  0.0250 -0.1826
  154MOL0     C20685   3.617  10.959   1.462 -0.0668  0.7364  0.2522
  154MOL0     O20686   3.691  11.030   1.559  0.4019 -0.2554  0.3141
  154MOL0     C20687   3.651  11.151   1.622  0.0781  0.0072  1.3062
  154MOL0     C20688   3.526  11.214   1.608  0.3873  0.4368  0.0113
  154MOL0     C20689   3.508  11.344   1.654 -0.1002 -0.3757 -1.2242
  154MOL0     C20690   3.609  11.413   1.728 -0.7926  0.2077 -0.3214
  154MOL0     O20691   3.601  11.541   1.770 -0.0111 -0.0696  0.1590
  154MOL0     C20692   3.473  11.602   1.761  0.3022 -1.3526  0.3979
  154MOL0     C20693   3.489  11.750   1.817 -0.5560 -0.7110 -0.1012
  154MOL0     C20694   3.352  11.814   1.841 -0.3072 -0.3181 -0.7177
  154MOL0     C20695   3.363  11.931   1.938  0.2658 -0.8634  0.9474
  154MOL0     C20696   3.222  11.995   1.945 -0.5580  1.2229  0.1468
  154MOL0     C20697   3.140  11.926   2.050  0.0972  1.4307 -0.0887
  154MOL0     C20698   3.001  12.004   2.053  0.5677 -0.2672  0.2541
  154MOL0     C20699   2.889  11.942   2.140 -1.0159 -0.7042  0.3361
  154MOL0    Cl20700   2.855  11.765   2.094 -0.0684 -0.0330  0.0702
  154MOL0     C20701   3.733  11.350   1.735  0.1451 -0.4187 -1.3299
  154MOL0     C20702   3.753  11.222   1.687  0.1285  0.1156  0.1422
  154MOL0     O20703   3.520  11.002   1.403  0.0616  0.3783 -0.5302
  154MOL0     C20704   3.615  10.764   1.304  0.0512  0.8077  0.4861
  154MOL0     C20705   3.630  10.621   1.274 -0.0997 -0.1760 -0.4161
  154MOL0     N20706   3.319  10.205   1.151 -0.0057  0.0720  0.2941
  154MOL0     N20707   3.242  10.314   1.135 -0.0722 -0.6159 -0.1023
  154MOL0     C20708   2.238  10.901   0.805 -0.4764 -0.5510  0.7272
  154MOL0     C20709   2.140  10.999   0.769 -0.4215  1.0216  0.5035
  154MOL0     C20710   1.857  11.332   0.710  1.2475 -0.3444  0.3183
  154MOL0     C20711   1.918  11.461   0.697  0.5457 -0.0705  0.5266
  154MOL0     C20712   1.840  11.569   0.668  1.0087 -0.0949  0.0197
  154MOL0     C20713   1.698  11.572   0.677  0.7199 -0.3810 -0.9412
  154MOL0     O20714   1.619  11.672   0.657  0.0022 -0.5259  0.2544
  154MOL0     C20715   1.661  11.804   0.672  1.0806  0.1574  0.0844
  154MOL0     C20716   1.665  11.877   0.539 -0.4746  0.0806  0.3714
  154MOL0     C20717   1.661  12.028   0.554  0.4599 -0.3835  0.1895
  154MOL0     C20718   1.735  12.111   0.439  0.3739 -0.0127 -0.2426
  154MOL0     C20719   1.647  12.183   0.357  0.1463  0.0232 -0.1163
  154MOL0     C20720   1.559  12.253   0.321  0.3216  0.0812  0.8724
  154MOL0     C20721   1.635  11.454   0.690 -0.0255  0.6250  0.0767
  154MOL0     C20722   1.712  11.340   0.708  0.7805  0.5105 -0.0906
  154MOL0     H20723   2.336  11.247   0.655  0.8033  0.5392  1.4953
  154MOL0     H20724   2.516  11.080   0.727 -0.5619  2.5106  2.3587
  154MOL0     H20725   2.393  10.730   0.970  0.0690 -1.2286  0.4254
  154MOL0     H20726   2.385  10.671   0.798  1.9517 -1.3652 -0.9267
  154MOL0     H20727   2.550  10.521   0.883 -0.7825  0.7360  0.5576
  154MOL0     H20728   2.632  10.651   0.790 -0.5119  2.7791 -0.2379
  154MOL0     H20729   2.697  10.761   0.992 -3.0566  0.4171 -1.4940
  154MOL0     H20730   2.619  10.650   1.093 -0.4103  0.6330 -0.4030
  154MOL0     H20731   2.767  10.453   1.003 -1.8597  0.1356  0.6675
  154MOL0     H20732   2.850  10.578   0.904 -2.5855  1.3874 -0.7146
  154MOL0     H20733   2.905  10.718   1.086 -1.5025  0.7223 -2.0110
  154MOL0     H20734   2.844  10.611   1.204  2.7644 -1.0764  1.3603
  154MOL0     H20735   3.018  10.431   1.108  2.1220 -0.6677  1.9280
  154MOL0     H20736   3.089  10.558   1.014  0.9166  1.2986  1.4055
  154MOL0     H20737   3.087  10.712   1.237  1.3080 -0.1717  1.5665
  154MOL0     H20738   3.051  10.576   1.324  0.9931  1.3372  0.6448
  154MOL0     H20739   3.283  10.601   1.325 -0.8957  2.4269 -1.2063
  154MOL0     H20740   3.300  10.582   1.153 -1.8364 -0.7761 -0.5133
  154MOL0     H20741   3.373  10.373   1.421 -2.1355 -2.7489  1.3800
  154MOL0     H20742   3.425  10.051   1.396  0.5230 -0.5757 -0.4390
  154MOL0     H20743   3.509  10.044   1.246 -1.3111  0.3348 -0.5761
  154MOL0     H20744   3.661  10.056   1.411  3.7127  0.8103 -0.3442
  154MOL0     H20745   3.629  10.217   1.466  1.0224 -0.9460  0.4783
  154MOL0     H20746   3.672  10.147   1.168 -0.1534  0.7759  0.1578
  154MOL0     H20747   3.812  10.155   1.261 -0.1806  0.3598 -0.2543
  154MOL0     H20748   3.597  10.365   1.208 -0.3094  2.6389  1.3319
  154MOL0     H20749   3.768  10.393   1.165 -1.4585 -0.0485 -1.3486
  154MOL0     H20750   3.817  10.536   1.549  0.2527 -1.6313 -1.2913
  154MOL0     H20751   3.880  10.870   1.591  0.3894  0.7875  0.3936
  154MOL0     H20752   3.761  10.809   1.712 -1.7006  2.3843 -1.6781
  154MOL0     H20753   3.895  10.705   1.651 -0.9063 -0.6724 -1.4266
  154MOL0     H20754   3.444  11.171   1.551  0.2621 -0.0586  0.5506
  154MOL0     H20755   3.403  11.370   1.649 -1.2615 -4.2758 -1.0169
  154MOL0     H20756   3.451  11.607   1.653  2.5705 -1.4660 -0.1220
  154MOL0     H20757   3.400  11.547   1.820 -0.1169 -0.1204  1.0719
  154MOL0     H20758   3.557  11.754   1.903  2.0858  2.4863 -2.0935
  154MOL0     H20759   3.542  11.806   1.740 -1.6667 -1.1840 -1.2465
  154MOL0     H20760   3.289  11.742   1.895 -1.6158  1.2514 -0.0208
  154MOL0     H20761   3.313  11.842   1.743 -2.0215 -1.7854 -0.5069
  154MOL0     H20762   3.399  11.902   2.037 -1.3688 -0.2651  1.7568
  154MOL0     H20763   3.437  11.998   1.893 -2.2074  0.2893 -1.7587
  154MOL0     H20764   3.179  11.982   1.845  2.3663 -3.1839 -0.8753
  154MOL0     H20765   3.225  12.104   1.950 -2.1050  1.6318 -3.8122
  154MOL0     H20766   3.123  11.823   2.017 -1.3858  1.3398  0.8718
  154MOL0     H20767   3.193  11.950   2.142 -0.1633  3.3304 -0.4042
  154MOL0     H20768   2.963  11.999   1.950 -2.5000 -0.1870  1.2590
  154MOL0     H20769   3.011  12.111   2.072 -0.1755  0.0684 -1.0802
  154MOL0     H20770   2.795  11.997   2.134 -0.0133  1.5635  2.9961
  154MOL0     H20771   2.922  11.957   2.244  0.5534  0.0611 -0.2335
  154MOL0     H20772   3.815  11.390   1.793 -1.1631  3.1673 -1.7066
  154MOL0     H20773   3.852  11.177   1.689  1.5005  2.7495 -1.8045
  154MOL0     H20774   3.571  10.820   1.222  2.7964  1.2684 -0.7844
  154MOL0     H20775   3.576  10.582   1.189 -2.6175 -1.4090  1.6276
  154MOL0     H20776   2.225  10.797   0.832  0.3143 -0.5146  1.3014
  154MOL0     H20777   2.042  10.952   0.768  0.5929 -1.2016  0.2218
  154MOL0     H20778   2.025  11.473   0.708  0.3234  0.4112  2.5387
  154MOL0     H20779   1.893  11.663   0.651 -0.3448  0.8231  0.7196
  154MOL0     H20780   1.582  11.861   0.722  0.4732 -0.1941 -0.4662
  154MOL0     H20781   1.749  11.804   0.737  1.8897  0.4680 -0.9813
  154MOL0     H20782   1.588  11.854   0.465  1.5493  2.2955 -2.7029
  154MOL0     H20783   1.766  11.871   0.496 -0.4750  2.4884 -0.1206
  154MOL0     H20784   1.708  12.053   0.649  2.2167 -0.7031 -0.5594
  154MOL0     H20785   1.555  12.055   0.563  0.1969 -1.1674 -0.3623
  154MOL0     H20786   1.798  12.040   0.385 -0.6535  1.5880 -3.8465
  154MOL0     H20787   1.803  12.185   0.483  0.7880 -1.6230  2.0238
  154MOL0     H20788   1.484  12.322   0.289  0.8403 -0.2948 -1.2544
  154MOL0     H20789   1.526  11.453   0.693 -0.0429 -0.7505 -0.3893
  154MOL0     H20790   1.651  11.251   0.719  0.2998  0.7489 -0.7433
  155MOL0     O20791   5.035   7.134   5.099  0.2652  0.5381 -0.7456
  155MOL0     C20792   4.949   7.077   5.164  0.4741  0.1110  0.9038
  155MOL0     O20793   4.914   7.105   5.293  0.0960  0.5687  0.1172
  155MOL0     C20794   4.982   7.192   5.370 -0.5400 -0.4596  0.0171
  155MOL0     C20795   4.964   7.327   5.350  0.4031 -0.5865  0.1493
  155MOL0     C20796   5.017   7.427   5.435  1.5480  0.0366 -0.2100
  155MOL0     C20797   5.086   7.382   5.550  0.9237  0.7678 -0.3482
  155MOL0     O20798   5.155   7.469   5.639 -0.5876  0.2414  1.0504
  155MOL0     C20799   5.097   7.590   5.675  0.3838 -0.3237  0.6519
  155MOL0     C20800   5.160   7.650   5.802  0.5803 -0.5413 -0.4562
  155MOL0     C20801   5.309   7.689   5.795  0.9902 -0.0919 -0.5847
  155MOL0     C20802   5.343   7.759   5.935  0.3748  0.4419  0.9011
  155MOL0     C20803   5.375   7.646   6.034 -0.6193  0.0741  0.3863
  155MOL0     C20804   5.367   7.709   6.178 -0.1478  0.4427 -0.5884
  155MOL0     C20805   5.368   7.597   6.291  0.8577 -0.1358 -0.8779
  155MOL0     C20806   5.235   7.522   6.295  0.6555 -0.0033 -0.6374
  155MOL0     N20807   5.223   7.457   6.432  0.1039 -0.3508 -0.4621
  155MOL0     C20808   5.327   7.409   6.511 -0.3651 -0.1523  0.8643
  155MOL0     C20809   5.275   7.396   6.635  0.1919  0.2699 -0.4099
  155MOL0     C20810   5.354   7.327   6.740  0.4490  0.3542  0.9175
  155MOL0     C20811   5.283   7.310   6.877 -0.4998 -0.5155 -0.1019
  155MOL0     C20812   5.335   7.207   6.967  1.3626 -0.2542 -0.0899
  155MOL0     C20813   5.478   7.242   6.993 -0.4932  0.3338 -0.1352
  155MOL0     O20814   5.543   7.159   7.087  0.2915  0.5275 -0.6080
  155MOL0     C20815   5.515   7.185   7.223 -1.2875 -1.0439  0.3654
  155MOL0     C20816   5.580   7.102   7.316  0.2178 -0.0217  0.2742
  155MOL0     C20817   5.555   7.124   7.452 -0.1542  0.0462 -0.4027
  155MOL0     C20818   5.629   7.019   7.545  1.0919 -0.3903  0.8461
  155MOL0     C20819   5.463   7.219   7.499  0.3701  0.6198 -1.1257
  155MOL0     C20820   5.413   7.217   7.640 -1.0601 -0.0684 -0.2578
  155MOL0     O20821   5.280   7.234   7.666  0.1724  0.0446 -0.0897
  155MOL0     C20822   5.251   7.216   7.801  0.3552 -0.1019 -0.5475
  155MOL0     C20823   5.256   7.328   7.881  0.0185  0.0550  0.1395
  155MOL0     C20824   5.250   7.308   8.015 -0.4494 -0.6114 -0.4065
  155MOL0     C20825   5.257   7.184   8.080  0.4908 -0.0312 -0.8332
  155MOL0     O20826   5.259   7.184   8.216  0.6516 -0.2887 -0.0267
  155MOL0     C20827   5.186   7.086   8.306 -0.4980  0.2686  0.4438
  155MOL0     C20828   5.277   6.962   8.338  0.6019 -0.0971  0.3214
  155MOL0     C20829   5.209   6.849   8.438 -0.0113 -0.4165 -0.2087
  155MOL0     C20830   5.065   6.819   8.397 -0.0452 -0.5678 -0.5947
  155MOL0     C20831   5.029   6.680   8.461  0.0076  0.5214 -0.0868
  155MOL0     C20832   4.884   6.663   8.475  0.8511  0.1620 -0.0917
  155MOL0     C20833   4.819   6.668   8.332 -0.0354  0.5088  1.0612
  155MOL0     C20834   4.680   6.616   8.344 -0.9447  0.8871  0.1157
  155MOL0    Cl20835   4.633   6.549   8.187  0.2393  0.2055  0.0428
  155MOL0     C20836   5.254   7.069   7.999  0.5302 -0.5352  0.3103
  155MOL0     C20837   5.261   7.088   7.860 -0.7814  0.0890 -0.3872
  155MOL0     O20838   5.500   7.221   7.731 -0.2755  0.6734 -0.0821
  155MOL0     C20839   5.388   7.299   7.409 -0.3210  0.4449 -0.1507
  155MOL0     C20840   5.414   7.281   7.273 -0.0429 -0.2245 -0.3765
  155MOL0     N20841   5.139   7.418   6.629 -0.3735  1.9067  0.0967
  155MOL0     N20842   5.106   7.468   6.512 -0.1816  0.6820  0.3281
  155MOL0     C20843   5.098   7.248   5.569 -0.5230 -0.3577 -0.4077
  155MOL0     C20844   5.038   7.152   5.494 -0.3844  0.1763 -0.5110
  155MOL0     C20845   4.867   6.984   5.077  0.5340  0.3267 -0.2907
  155MOL0     C20846   4.751   6.914   5.118 -0.1116 -1.4860 -0.2307
  155MOL0     C20847   4.671   6.828   5.038  0.1531 -0.3087  0.1156
  155MOL0     C20848   4.713   6.794   4.911 -0.2235 -0.1494  0.3073
  155MOL0     O20849   4.659   6.705   4.818 -0.7647  0.3477  0.3278
  155MOL0     C20850   4.531   6.644   4.848  0.4125  0.0085  0.2175
  155MOL0     C20851   4.405   6.720   4.817 -0.6259 -0.8976 -0.8920
  155MOL0     C20852   4.382   6.722   4.662  0.8418  0.8202  1.3729
  155MOL0     C20853   4.266   6.798   4.616  0.8596 -0.5104  0.5816
  155MOL0     C20854   4.263   6.769   4.463  0.0971  0.1250  0.2252
  155MOL0     C20855   4.264   6.760   4.339 -0.3284 -0.5877 -0.3145
  155MOL0     C20856   4.841   6.852   4.872  0.3118 -0.1535  0.5616
  155MOL0     C20857   4.908   6.948   4.949  0.5273  0.7136  0.4092
  155MOL0     H20858   4.916   7.359   5.258 -1.4137 -1.6604  0.6779
  155MOL0     H20859   5.005   7.532   5.412  0.7970 -0.1989 -0.9160
  155MOL0     H20860   5.094   7.668   5.598  1.8771 -0.1737  0.7157
  155MOL0     H20861   4.993   7.567   5.702 -0.8586  3.8592  0.1397
  155MOL0     H20862   5.092   7.733   5.825  0.1898 -0.5881 -1.3817
  155MOL0     H20863   5.147   7.579   5.885  1.8310 -0.0225  0.2107
  155MOL0     H20864   5.377   7.605   5.776 -2.1644 -3.4596  1.5201
  155MOL0     H20865   5.318   7.763   5.716  0.2880 -1.9278 -2.4886
  155MOL0     H20866   5.423   7.834   5.928 -1.1961  2.1726  0.9134
  155MOL0     H20867   5.260   7.821   5.970 -0.2062  1.0575 -1.3835
  155MOL0     H20868   5.297   7.569   6.042  0.2114 -0.8933 -0.6420
  155MOL0     H20869   5.472   7.598   6.024 -0.7335 -0.4174  1.5080
  155MOL0     H20870   5.455   7.774   6.188  0.0903  0.1263 -0.6166
  155MOL0     H20871   5.290   7.785   6.192 -2.4076 -1.2625 -2.7601
  155MOL0     H20872   5.450   7.526   6.275  0.9168  0.1627 -2.0378
  155MOL0     H20873   5.397   7.644   6.385  3.1305 -1.8131 -0.6418
  155MOL0     H20874   5.227   7.446   6.217 -1.0814 -3.8152  2.8488
  155MOL0     H20875   5.143   7.579   6.282 -1.1007 -2.7138 -1.0754
  155MOL0     H20876   5.426   7.399   6.468 -1.5499  0.7517 -2.3623
  155MOL0     H20877   5.380   7.232   6.691  0.6786  0.9671 -0.1828
  155MOL0     H20878   5.448   7.379   6.757  0.2940  0.4524  1.4783
  155MOL0     H20879   5.178   7.291   6.856  0.2857 -2.1112 -3.1585
  155MOL0     H20880   5.303   7.398   6.938 -0.6342  0.2129 -1.0870
  155MOL0     H20881   5.327   7.112   6.914 -0.8748  0.3437 -0.9362
  155MOL0     H20882   5.257   7.203   7.044 -0.6842 -1.1384 -2.1248
  155MOL0     H20883   5.477   7.342   7.036 -0.0349 -0.9035  3.0966
  155MOL0     H20884   5.539   7.241   6.902 -1.4600 -0.8122 -0.8032
  155MOL0     H20885   5.648   7.022   7.291 -2.8093 -2.4624 -0.7664
  155MOL0     H20886   5.611   6.925   7.493 -2.1463  1.8239 -2.5900
  155MOL0     H20887   5.732   7.057   7.546  0.9528 -0.0314  1.6176
  155MOL0     H20888   5.585   7.018   7.645 -4.1021 -0.2984 -1.1308
  155MOL0     H20889   5.252   7.426   7.836  1.4898 -0.3416 -0.9171
  155MOL0     H20890   5.239   7.392   8.082 -3.4709 -2.1030  1.1841
  155MOL0     H20891   5.179   7.133   8.405  1.9063  0.8310  0.4233
  155MOL0     H20892   5.085   7.058   8.275 -0.4028 -0.4085  0.7189
  155MOL0     H20893   5.301   6.906   8.247 -3.4527 -0.5344 -0.7012
  155MOL0     H20894   5.364   6.998   8.393 -0.8799  0.5690  2.3513
  155MOL0     H20895   5.213   6.897   8.536 -2.0115  2.9525 -1.5480
  155MOL0     H20896   5.264   6.755   8.436 -0.2667 -0.5598 -0.8124
  155MOL0     H20897   5.003   6.905   8.428  1.7334  0.7910 -0.6423
  155MOL0     H20898   5.047   6.800   8.291 -6.6264 -1.7618  0.2943
  155MOL0     H20899   5.082   6.670   8.557  1.1330 -4.1416 -0.9339
  155MOL0     H20900   5.080   6.602   8.404  3.9305  0.0021  3.5561
  155MOL0     H20901   4.860   6.573   8.533 -0.9156  0.9715  0.4785
  155MOL0     H20902   4.852   6.748   8.534  1.6468  0.4368 -0.0386
  155MOL0     H20903   4.869   6.611   8.254 -2.6625  1.0987 -1.2048
  155MOL0     H20904   4.811   6.770   8.294  0.0621  0.2436  0.3289
  155MOL0     H20905   4.618   6.697   8.383  1.4739  2.2444  1.3409
  155MOL0     H20906   4.684   6.531   8.413  3.3474  0.2159 -0.7181
  155MOL0     H20907   5.244   6.976   8.052  2.7173 -0.9958  0.0210
  155MOL0     H20908   5.245   6.999   7.800 -2.6292 -0.2330  0.4863
  155MOL0     H20909   5.319   7.370   7.454 -1.9619 -0.2858 -1.4108
  155MOL0     H20910   5.371   7.349   7.201  1.8073 -0.6790 -1.9994
  155MOL0     H20911   5.162   7.224   5.653  0.2306 -1.8412 -1.3591
  155MOL0     H20912   5.047   7.047   5.520 -0.6463  0.6405  1.6625
  155MOL0     H20913   4.702   6.932   5.214 -0.7482 -1.7241 -0.5073
  155MOL0     H20914   4.582   6.790   5.089  1.5286 -0.3477  2.6420
  155MOL0     H20915   4.523   6.543   4.807 -3.6187 -0.2951  1.3019
  155MOL0     H20916   4.539   6.632   4.956  2.7077  1.6606  0.3107
  155MOL0     H20917   4.422   6.825   4.842  3.2565 -1.1240 -1.8803
  155MOL0     H20918   4.320   6.671   4.865  1.5349 -1.9357  2.2714
  155MOL0     H20919   4.392   6.620   4.626  1.3071  0.9909  1.0042
  155MOL0     H20920   4.465   6.778   4.619 -1.9487  0.8363 -5.0351
  155MOL0     H20921   4.268   6.905   4.638 -1.3012 -0.0669 -1.0663
  155MOL0     H20922   4.174   6.756   4.656 -0.1137  1.5842  0.6811
  155MOL0     H20923   4.265   6.734   4.235 -1.5136  1.3829 -0.8753
  155MOL0     H20924   4.863   6.814   4.772 -0.8592 -2.9447  1.2609
  155MOL0     H20925   4.991   6.998   4.900  4.1774 -2.5330  2.6139
  156MOL0     O20926  10.822  10.040   0.317 -0.5179  0.2585 -0.4612
  156MOL0     C20927  10.773  10.045   0.202  0.3485  0.5433 -0.1729
  156MOL0     O20928  10.668   9.978   0.148 -0.0646  0.2610  0.2011
  156MOL0     C20929  10.615   9.863   0.196  0.0791  0.4277 -0.2004
  156MOL0     C20930  10.486   9.826   0.149  0.0433  0.2156  0.4777
  156MOL0     C20931  10.428   9.701   0.180 -0.9539  0.7639  0.2360
  156MOL0     C20932  10.501   9.603   0.249 -0.1533  0.7492 -0.9913
  156MOL0     O20933  10.461   9.472   0.279  0.2305 -0.5609  0.3979
  156MOL0     C20934  10.357   9.413   0.212 -0.2664  0.4066 -0.9873
  156MOL0     C20935  10.383   9.263   0.230  0.0352  0.5944 -0.2620
  156MOL0     C20936  10.262   9.175   0.175 -0.3115  0.3601 -0.0565
  156MOL0     C20937  10.246   9.197   0.018  0.4050 -0.1346  0.0889
  156MOL0     C20938  10.127   9.113  -0.036  0.5424 -0.1854  0.1692
  156MOL0     C20939  10.110   9.130  -0.190  0.1978 -0.1299 -0.7550
  156MOL0     C20940  10.081   8.999  -0.256 -1.1747  0.6701 -0.5498
  156MOL0     C20941  10.210   8.918  -0.268  0.5536  0.0645 -0.4391
  156MOL0     N20942  10.178   8.782  -0.327 -0.0032  0.5623 -1.0665
  156MOL0     C20943  10.068   8.700  -0.291 -0.0482 -0.1376 -0.4417
  156MOL0     C20944  10.095   8.580  -0.355 -0.0450 -0.0084  0.3127
  156MOL0     C20945  10.005   8.456  -0.356 -0.5122  0.2734  1.1813
  156MOL0     C20946   9.935   8.435  -0.490 -0.4333 -0.0768 -0.0652
  156MOL0     C20947  10.030   8.422  -0.612  0.3354 -0.1756 -0.4545
  156MOL0     C20948  10.090   8.277  -0.606 -0.1051 -0.5423  0.4638
  156MOL0     O20949  10.218   8.260  -0.677 -0.8441  0.7375 -0.2641
  156MOL0     C20950  10.264   8.138  -0.694  0.2760  0.6339  0.3723
  156MOL0     C20951  10.255   8.093  -0.830 -0.0094  0.0088 -0.5229
  156MOL0     C20952  10.285   7.956  -0.864 -0.2665  0.7016 -0.0964
  156MOL0     C20953  10.248   7.908  -1.003  0.2589 -0.5464  0.2024
  156MOL0     C20954  10.339   7.873  -0.757  0.6599 -1.1153 -0.4134
  156MOL0     C20955  10.390   7.743  -0.778  1.2003  0.4197 -0.4365
  156MOL0     O20956  10.483   7.696  -0.685 -0.0080 -0.2805 -0.1509
  156MOL0     C20957  10.527   7.567  -0.691 -0.2034  0.5443 -0.3483
  156MOL0     C20958  10.503   7.496  -0.569 -0.8123  0.0094  1.1025
  156MOL0     C20959  10.546   7.367  -0.559 -0.3076 -0.5061 -0.0163
  156MOL0     C20960  10.633   7.308  -0.655  0.0474 -0.2806  0.3873
  156MOL0     O20961  10.686   7.188  -0.624 -0.2564  0.0970 -0.3582
  156MOL0     C20962  10.803   7.147  -0.703 -0.1559 -0.0188 -0.2050
  156MOL0     C20963  10.895   7.052  -0.625  0.3256 -1.1605 -1.1203
  156MOL0     C20964  10.911   6.914  -0.697  0.5897  0.6261 -0.4174
  156MOL0     C20965  11.004   6.827  -0.617  0.3570 -0.5753  0.9044
  156MOL0     C20966  11.025   6.686  -0.677 -0.6402 -0.8573  1.2519
  156MOL0     C20967  11.112   6.677  -0.806 -0.7529 -0.0264 -0.4094
  156MOL0     C20968  11.263   6.716  -0.789  0.2218 -0.8365 -0.6979
  156MOL0     C20969  11.347   6.634  -0.693 -0.6264  0.5849 -0.7979
  156MOL0    Cl20970  11.366   6.466  -0.755 -0.2027 -0.0063  0.3300
  156MOL0     C20971  10.646   7.376  -0.782  0.9210 -1.0192 -0.7239
  156MOL0     C20972  10.598   7.511  -0.796  0.5097 -0.2830 -0.6233
  156MOL0     O20973  10.339   7.674  -0.857  0.5045  0.5790 -0.3155
  156MOL0     C20974  10.368   7.930  -0.634 -0.3229 -0.2133 -0.3419
  156MOL0     C20975  10.317   8.060  -0.598  0.2597 -0.4920 -0.0664
  156MOL0     N20976  10.222   8.586  -0.414 -1.5623  0.5101  0.1599
  156MOL0     N20977  10.262   8.715  -0.406  0.4783  0.4925 -0.1987
  156MOL0     C20978  10.630   9.640   0.294 -0.5712 -0.5055 -0.4486
  156MOL0     C20979  10.682   9.766   0.268 -0.2869  0.0254  0.0346
  156MOL0     C20980  10.822  10.157   0.119  0.3321 -0.1713  0.6583
  156MOL0     C20981  10.755  10.189  -0.007 -0.8299  0.8339 -0.1286
  156MOL0     C20982  10.790  10.301  -0.081  0.3739  0.0606 -0.1911
  156MOL0     C20983  10.892  10.388  -0.041  0.0467  0.8987  0.6765
  156MOL0     O20984  10.917  10.500  -0.112 -0.3029 -0.3854 -0.2915
  156MOL0     C20985  10.913  10.633  -0.068 -0.1371 -0.2947 -0.1413
  156MOL0     C20986  10.964  10.714  -0.177 -0.0854  0.8674 -0.5891
  156MOL0     C20987  11.002  10.855  -0.132 -0.0522 -0.1516 -0.0704
  156MOL0     C20988  11.064  10.933  -0.246  0.4837 -0.5410 -0.7992
  156MOL0     C20989  10.992  10.916  -0.375 -0.4753  0.0084 -0.5224
  156MOL0     C20990  10.938  10.916  -0.482  0.4314  0.4060 -0.4698
  156MOL0     C20991  10.973  10.350   0.071  0.3931 -0.0895 -0.2803
  156MOL0     C20992  10.935  10.238   0.154  1.0369 -0.4180 -0.4341
  156MOL0     H20993  10.429   9.897   0.090 -0.6056 -0.9317 -0.2937
  156MOL0     H20994  10.325   9.682   0.152 -1.9697 -0.5617  4.2302
  156MOL0     H20995  10.270   9.462   0.256 -1.9609 -0.3855 -3.2722
  156MOL0     H20996  10.359   9.428   0.104 -2.5013 -5.3823 -2.2039
  156MOL0     H20997  10.479   9.245   0.182  0.2417 -0.3658  0.4774
  156MOL0     H20998  10.394   9.242   0.337 -0.2307 -0.4885 -0.4301
  156MOL0     H20999  10.280   9.067   0.175 -2.0226 -0.1453 -4.4883
  156MOL0     H21000  10.160   9.194   0.211 -0.9579 -0.4867 -1.3481
  156MOL0     H21001  10.224   9.301  -0.008 -0.1260  0.1789  1.7161
  156MOL0     H21002  10.331   9.159  -0.040 -0.5276 -0.7234 -0.9193
  156MOL0     H21003  10.165   9.011  -0.021  0.8068 -0.6871 -3.0334
  156MOL0     H21004  10.030   9.140   0.006  0.0026 -0.9527 -0.5542
  156MOL0     H21005  10.030   9.205  -0.196 -0.7800 -0.8472  1.6789
  156MOL0     H21006  10.191   9.184  -0.238  0.9648 -1.3907 -0.9031
  156MOL0     H21007  10.003   8.941  -0.205 -1.1506 -1.1707 -2.4560
  156MOL0     H21008  10.053   9.031  -0.357 -0.1556 -0.0397 -1.0741
  156MOL0     H21009  10.263   8.912  -0.172  1.4559  2.0477 -0.7545
  156MOL0     H21010  10.277   8.968  -0.339 -0.1845 -0.1400 -1.2959
  156MOL0     H21011   9.977   8.732  -0.243 -1.9041 -1.5967 -2.7956
  156MOL0     H21012  10.083   8.382  -0.337 -0.0433  0.4619  0.0514
  156MOL0     H21013   9.928   8.453  -0.278  1.4524  1.3918  3.2912
  156MOL0     H21014   9.871   8.523  -0.502 -2.0618 -1.5766 -3.4624
  156MOL0     H21015   9.861   8.355  -0.496 -3.5200  2.3789  1.9857
  156MOL0     H21016  10.108   8.497  -0.625 -2.3032  2.3518 -3.9572
  156MOL0     H21017   9.963   8.438  -0.697  1.3877  3.3207 -0.7924
  156MOL0     H21018  10.016   8.208  -0.647  1.3698 -2.2111  0.5224
  156MOL0     H21019  10.091   8.255  -0.499  0.6526 -0.5226  0.4603
  156MOL0     H21020  10.199   8.153  -0.902 -4.9431 -2.6430  0.6824
  156MOL0     H21021  10.195   7.812  -1.004  0.4943 -0.7134  1.7717
  156MOL0     H21022  10.183   7.981  -1.052 -1.0489 -1.3528  0.6556
  156MOL0     H21023  10.334   7.897  -1.070  0.7852 -1.7775  1.0331
  156MOL0     H21024  10.439   7.525  -0.487 -0.0224 -3.0059  2.9668
  156MOL0     H21025  10.508   7.301  -0.481 -3.8469  0.2973 -0.8697
  156MOL0     H21026  10.756   7.093  -0.787 -0.3664  1.3528 -0.9999
  156MOL0     H21027  10.860   7.236  -0.732  0.4025  0.2160  1.5297
  156MOL0     H21028  10.988   7.109  -0.619 -0.4354 -0.0086  0.4455
  156MOL0     H21029  10.856   7.027  -0.525  1.3551  1.4189  0.0061
  156MOL0     H21030  10.951   6.939  -0.796 -2.8480 -0.7749 -2.3087
  156MOL0     H21031  10.811   6.870  -0.700  0.4971  0.4481  2.5081
  156MOL0     H21032  11.099   6.881  -0.623 -0.0165 -0.0970 -2.4411
  156MOL0     H21033  10.982   6.809  -0.511 -0.1165  0.8874  1.0750
  156MOL0     H21034  10.933   6.628  -0.687 -0.1184 -1.2888 -4.5767
  156MOL0     H21035  11.066   6.621  -0.600  0.4379 -1.4994  0.1570
  156MOL0     H21036  11.101   6.575  -0.843 -4.9501 -0.2954  1.0245
  156MOL0     H21037  11.077   6.750  -0.880  0.4664  2.0214  0.9306
  156MOL0     H21038  11.266   6.823  -0.765 -1.1671 -1.3221  1.9943
  156MOL0     H21039  11.310   6.706  -0.887  2.5540  0.1486  0.2413
  156MOL0     H21040  11.311   6.643  -0.589  1.6379  1.6653 -0.0587
  156MOL0     H21041  11.442   6.686  -0.678  1.2741 -3.1915  2.0743
  156MOL0     H21042  10.701   7.330  -0.864  1.8731  0.6936 -1.0963
  156MOL0     H21043  10.619   7.566  -0.888 -1.9206 -1.0597 -1.7324
  156MOL0     H21044  10.430   7.878  -0.562  0.2843  0.9565  0.0082
  156MOL0     H21045  10.337   8.095  -0.497 -0.8308  0.2024 -0.0811
  156MOL0     H21046  10.700   9.581   0.352  1.7514  0.1716 -2.4342
  156MOL0     H21047  10.778   9.786   0.315 -0.4048 -1.2376  0.8316
  156MOL0     H21048  10.676  10.130  -0.052 -1.4821  1.0057  0.7532
  156MOL0     H21049  10.718  10.323  -0.160 -2.8533 -0.7853  2.2763
  156MOL0     H21050  10.815  10.669  -0.036 -1.1488  1.2006 -4.2231
  156MOL0     H21051  10.978  10.640   0.019 -0.4027 -0.9975  0.1213
  156MOL0     H21052  10.883  10.705  -0.250 -1.9404 -0.2844  1.4996
  156MOL0     H21053  11.057  10.672  -0.215 -0.2324 -3.0161  2.6991
  156MOL0     H21054  11.075  10.841  -0.051 -1.4365 -3.4171  0.7331
  156MOL0     H21055  10.929  10.920  -0.083  2.4304  1.3546  1.9230
  156MOL0     H21056  11.167  10.895  -0.250  1.3475  1.5907 -0.2047
  156MOL0     H21057  11.060  11.039  -0.222 -0.4455 -0.5987 -0.6526
  156MOL0     H21058  10.892  10.916  -0.579 -0.8944  3.2525  0.0603
  156MOL0     H21059  11.054  10.419   0.094  1.5704 -1.1964 -0.9855
  156MOL0     H21060  10.998  10.199   0.232  1.4802 -3.7160 -2.2568
  157MOL0     O21061   9.916   6.766   5.379 -0.8777  0.5304 -0.4926
  157MOL0     C21062  10.035   6.804   5.362 -0.1028  0.8651  1.3457
  157MOL0     O21063  10.141   6.713   5.387  0.5736 -0.5220 -0.1526
  157MOL0     C21064  10.110   6.597   5.445  0.5271  0.6232 -0.6518
  157MOL0     C21065  10.038   6.496   5.380  0.2978 -0.3212 -0.4382
  157MOL0     C21066  10.016   6.375   5.438 -0.9847  0.4374 -0.6769
  157MOL0     C21067  10.069   6.343   5.566 -0.2548 -0.3511  1.1945
  157MOL0     O21068  10.030   6.215   5.614 -0.1659 -0.1536 -0.5853
  157MOL0     C21069  10.120   6.146   5.695 -0.1550 -0.2343  0.2731
  157MOL0     C21070  10.034   6.037   5.763 -0.0049  0.4826 -0.4445
  157MOL0     C21071  10.095   5.954   5.878 -0.1751 -0.2401 -0.5997
  157MOL0     C21072  10.184   5.850   5.820  0.7894  0.1096 -1.0595
  157MOL0     C21073  10.255   5.769   5.942  0.6583 -0.2570  0.3217
  157MOL0     C21074  10.301   5.631   5.890  0.5475 -0.6391  0.8341
  157MOL0     C21075  10.344   5.545   6.009  0.8320 -0.4652 -0.3109
  157MOL0     C21076  10.369   5.402   5.968 -0.2657  0.3132 -0.6466
  157MOL0     N21077  10.510   5.367   5.967 -0.3070  0.6164 -1.0472
  157MOL0     C21078  10.601   5.413   5.882  0.2108  0.9278 -0.5668
  157MOL0     C21079  10.722   5.388   5.929 -0.6024  0.1055  0.0403
  157MOL0     C21080  10.850   5.425   5.875 -0.1843  0.5157  0.0800
  157MOL0     C21081  10.935   5.304   5.840 -0.0552  0.5000 -0.6962
  157MOL0     C21082  11.056   5.344   5.764  0.2420  0.7792  0.0840
  157MOL0     C21083  11.118   5.221   5.693 -0.6047 -0.2393 -1.0331
  157MOL0     O21084  11.233   5.267   5.613  0.4112  0.2596  0.1869
  157MOL0     C21085  11.307   5.170   5.562  0.6079  0.8440  0.0993
  157MOL0     C21086  11.254   5.050   5.502 -0.5660  0.3086  0.2926
  157MOL0     C21087  11.344   4.947   5.469  1.4772  0.8302 -0.6375
  157MOL0     C21088  11.283   4.819   5.429 -0.4709  0.9325  0.0608
  157MOL0     C21089  11.482   4.962   5.470 -0.1143  1.3578 -0.1453
  157MOL0     C21090  11.571   4.856   5.424  0.0468  0.9473  0.5398
  157MOL0     O21091  11.667   4.901   5.348  0.0661 -0.7613  0.7134
  157MOL0     C21092  11.784   4.827   5.321  0.5424  0.0078  0.4506
  157MOL0     C21093  11.809   4.743   5.219 -0.0025 -0.3078 -0.0240
  157MOL0     C21094  11.931   4.676   5.215 -0.4468 -0.0406  0.0775
  157MOL0     C21095  12.026   4.691   5.321  0.1105  0.2167  0.7378
  157MOL0     O21096  12.149   4.634   5.289  0.0113 -0.0542  1.1311
  157MOL0     C21097  12.273   4.689   5.338  0.2804 -1.5537  0.2717
  157MOL0     C21098  12.316   4.610   5.467  0.2489  0.8006 -0.3190
  157MOL0     C21099  12.339   4.463   5.449 -0.3118  0.5926 -0.3115
  157MOL0     C21100  12.436   4.401   5.546 -0.6772  0.2669  0.5034
  157MOL0     C21101  12.440   4.246   5.545  0.0518 -0.7839  0.1545
  157MOL0     C21102  12.557   4.194   5.631  0.1037  0.0685  0.2395
  157MOL0     C21103  12.595   4.039   5.610  0.0548 -0.0886 -0.1237
  157MOL0     C21104  12.718   4.016   5.705 -0.1258 -0.9644  0.4325
  157MOL0    Cl21105  12.858   4.080   5.624 -0.0398  0.3766 -0.0549
  157MOL0     C21106  11.998   4.785   5.422 -1.1567 -0.3517  0.7105
  157MOL0     C21107  11.876   4.846   5.421  0.4501 -0.3053 -0.4939
  157MOL0     O21108  11.555   4.732   5.441 -0.0085  0.0924 -0.2136
  157MOL0     C21109  11.538   5.077   5.526  1.1855 -0.7403 -0.9915
  157MOL0     C21110  11.449   5.177   5.563  1.1027  0.1453  0.5099
  157MOL0     N21111  10.702   5.317   6.045 -0.1326  0.1458 -0.8458
  157MOL0     N21112  10.580   5.310   6.075  0.4658  0.0695 -0.9264
  157MOL0     C21113  10.154   6.438   5.627 -0.0467 -0.3448 -0.6324
  157MOL0     C21114  10.184   6.559   5.553  0.1909 -0.0467 -0.8776
  157MOL0     C21115  10.064   6.931   5.307  0.5996  0.4674  0.5871
  157MOL0     C21116  10.196   6.962   5.265 -0.3590  0.2089  0.0854
  157MOL0     C21117  10.227   7.093   5.220  0.1405  0.5052 -0.5428
  157MOL0     C21118  10.130   7.191   5.217  0.1252 -1.0850 -0.7334
  157MOL0     O21119  10.135   7.315   5.153  0.5824 -0.6670  0.0726
  157MOL0     C21120  10.236   7.409   5.180  0.3223 -0.2967  0.7080
  157MOL0     C21121  10.375   7.377   5.116  0.3357 -0.8737  0.5343
  157MOL0     C21122  10.381   7.317   4.976 -0.2806  0.7166  0.8509
  157MOL0     C21123  10.275   7.348   4.881  0.5019  0.8455 -0.5405
  157MOL0     C21124  10.276   7.494   4.850  0.7222  0.8391 -1.3418
  157MOL0     C21125  10.260   7.616   4.845  0.4393 -0.4089  0.8132
  157MOL0     C21126   9.999   7.154   5.245 -0.9268 -1.0892  0.8332
  157MOL0     C21127   9.959   7.029   5.283 -1.6223  0.0220  0.7082
  157MOL0     H21128   9.984   6.525   5.291 -0.8989  0.3681  0.4683
  157MOL0     H21129   9.969   6.298   5.377 -1.1181 -1.9114  2.1418
  157MOL0     H21130  10.196   6.101   5.630 -1.7354 -3.2275  0.3196
  157MOL0     H21131  10.167   6.210   5.770 -1.5496  0.3468  0.6825
  157MOL0     H21132   9.941   6.084   5.796 -0.0022 -0.1668  0.5260
  157MOL0     H21133   9.993   5.967   5.689  3.7799 -2.9660  0.3550
  157MOL0     H21134  10.162   6.018   5.937  0.1319 -2.9561  2.2036
  157MOL0     H21135  10.024   5.905   5.945  0.6730  0.3763  0.7911
  157MOL0     H21136  10.118   5.781   5.767 -3.3794  1.4051  1.8644
  157MOL0     H21137  10.260   5.887   5.752  2.0789 -1.5973 -0.6259
  157MOL0     H21138  10.344   5.820   5.981  0.3616 -0.4206  1.2217
  157MOL0     H21139  10.179   5.761   6.020  3.3235  0.5941  3.2299
  157MOL0     H21140  10.217   5.579   5.843  0.5856  2.7300 -3.5712
  157MOL0     H21141  10.376   5.643   5.811 -0.3230  1.0484  0.2256
  157MOL0     H21142  10.425   5.599   6.059 -0.8321  1.0486  0.8495
  157MOL0     H21143  10.259   5.539   6.078  0.6586 -2.0948 -0.6202
  157MOL0     H21144  10.324   5.382   5.871 -0.5736  0.4804 -0.5400
  157MOL0     H21145  10.321   5.342   6.047  1.2768  0.1708  0.2203
  157MOL0     H21146  10.583   5.478   5.797 -1.6022  1.7253  0.3468
  157MOL0     H21147  10.841   5.493   5.790  0.3887  3.7089  2.4053
  157MOL0     H21148  10.895   5.486   5.954  0.3595 -1.7084  1.5849
  157MOL0     H21149  10.885   5.224   5.786 -3.2995  1.9910 -0.1093
  157MOL0     H21150  10.962   5.270   5.941 -0.0165  1.9988 -0.1692
  157MOL0     H21151  11.135   5.392   5.823  0.2228 -0.8790  1.5306
  157MOL0     H21152  11.026   5.427   5.700  1.2731  2.2285  1.4239
  157MOL0     H21153  11.048   5.151   5.646 -0.7790 -0.9676  0.2532
  157MOL0     H21154  11.160   5.154   5.769 -2.3733 -2.7759 -2.1249
  157MOL0     H21155  11.148   5.038   5.485 -0.7190  1.8456 -0.0208
  157MOL0     H21156  11.305   4.755   5.515 -0.0184 -2.3865 -2.3194
  157MOL0     H21157  11.174   4.811   5.427 -0.4634 -5.0462  2.1542
  157MOL0     H21158  11.325   4.770   5.340 -4.8310 -1.8646 -0.7780
  157MOL0     H21159  11.729   4.727   5.147  2.1799  2.5243 -3.4432
  157MOL0     H21160  11.954   4.616   5.128  0.6338  0.4904 -0.0133
  157MOL0     H21161  12.340   4.677   5.253 -1.3280 -3.7904 -0.7874
  157MOL0     H21162  12.270   4.796   5.361  0.2657 -1.5321  0.1693
  157MOL0     H21163  12.403   4.650   5.520 -1.3587  1.6685  1.8298
  157MOL0     H21164  12.239   4.624   5.543  1.9324 -1.1660  1.8944
  157MOL0     H21165  12.364   4.438   5.345  2.7098  0.8219  0.2738
  157MOL0     H21166  12.240   4.420   5.464 -1.3367  1.2141 -4.1736
  157MOL0     H21167  12.534   4.443   5.522 -0.0613 -0.6732  1.2669
  157MOL0     H21168  12.418   4.432   5.649  0.4743 -0.5618  0.9837
  157MOL0     H21169  12.458   4.222   5.439 -0.2588 -1.2397  0.2040
  157MOL0     H21170  12.339   4.220   5.577 -0.2350 -1.3336 -1.1121
  157MOL0     H21171  12.651   4.236   5.595  0.8495 -1.5736  0.2016
  157MOL0     H21172  12.533   4.202   5.737 -1.3959 -1.0509  0.0117
  157MOL0     H21173  12.611   4.028   5.502 -2.7636  1.5852 -0.8024
  157MOL0     H21174  12.506   3.980   5.637 -1.0053  0.9919 -1.1383
  157MOL0     H21175  12.734   3.908   5.710  3.8802 -0.4744  1.9920
  157MOL0     H21176  12.696   4.058   5.803 -1.8151  0.7815 -0.6244
  157MOL0     H21177  12.056   4.802   5.512 -0.8036 -0.6132  0.5359
  157MOL0     H21178  11.865   4.905   5.511  2.8564 -0.6514  0.0936
  157MOL0     H21179  11.643   5.103   5.523  0.8630  0.4921 -2.4607
  157MOL0     H21180  11.491   5.276   5.584 -0.3425  1.3430 -1.8341
  157MOL0     H21181  10.211   6.428   5.718 -2.0709 -0.3877  0.7076
  157MOL0     H21182  10.243   6.640   5.595  1.1698 -0.7109 -0.9506
  157MOL0     H21183  10.274   6.887   5.264 -2.4006 -2.0505 -1.6352
  157MOL0     H21184  10.325   7.134   5.198  0.2522  2.7824  3.3292
  157MOL0     H21185  10.197   7.506   5.149 -1.2588 -1.0618  0.1982
  157MOL0     H21186  10.260   7.416   5.287  0.4779  0.9547  0.6022
  157MOL0     H21187  10.437   7.316   5.183  2.5124  0.4098 -0.1951
  157MOL0     H21188  10.428   7.473   5.115 -1.3570  0.1425  2.0554
  157MOL0     H21189  10.388   7.209   4.988 -0.4239  0.6514  0.3965
  157MOL0     H21190  10.482   7.335   4.937  0.0832  0.4074  1.6329
  157MOL0     H21191  10.178   7.314   4.919  1.9014  0.5344  3.1809
  157MOL0     H21192  10.287   7.300   4.783  0.7043  1.5007 -0.8426
  157MOL0     H21193  10.241   7.722   4.847 -1.0298 -0.6588  1.2648
  157MOL0     H21194   9.921   7.228   5.225 -0.0390  0.0944  1.5874
  157MOL0     H21195   9.852   7.022   5.300 -2.2214 -0.9257 -2.6504
  158MOL0     O21196   2.761   3.045   5.011  0.5145  0.7711 -0.8251
  158MOL0     C21197   2.795   3.015   4.902 -0.5302 -0.1898 -0.5501
  158MOL0     O21198   2.706   2.996   4.796  0.0666  0.1431 -0.0155
  158MOL0     C21199   2.568   2.998   4.799 -0.6169  0.4552 -0.9024
  158MOL0     C21200   2.508   2.908   4.885  0.2149 -0.4892  0.9308
  158MOL0     C21201   2.372   2.886   4.889  0.5800 -0.1490  0.1082
  158MOL0     C21202   2.286   2.958   4.795  0.0476  0.4458 -0.8138
  158MOL0     O21203   2.146   2.932   4.797 -0.6570  0.2356  0.2295
  158MOL0     C21204   2.059   3.002   4.707 -0.1237  0.3468  0.5955
  158MOL0     C21205   1.925   2.930   4.714  0.1727 -1.1808  0.1562
  158MOL0     C21206   1.923   2.779   4.708  0.4136  0.6145  0.0424
  158MOL0     C21207   1.793   2.720   4.658 -0.6732 -0.5005 -0.0229
  158MOL0     C21208   1.814   2.572   4.653 -0.2030 -0.7309  0.3755
  158MOL0     C21209   1.700   2.478   4.587 -0.4335 -0.1357  0.1583
  158MOL0     C21210   1.732   2.334   4.618  0.1947  0.0603  0.0858
  158MOL0     C21211   1.861   2.286   4.565 -0.8362 -0.0675 -0.6425
  158MOL0     N21212   1.880   2.147   4.600  0.1412 -0.7342  0.1047
  158MOL0     C21213   1.922   2.101   4.726  0.1529 -0.6931 -0.6371
  158MOL0     C21214   1.935   1.963   4.703  0.5226 -0.5274  0.8144
  158MOL0     C21215   1.990   1.864   4.801 -0.9733 -0.4307  0.0545
  158MOL0     C21216   2.081   1.761   4.727  0.2491  0.4527 -0.4723
  158MOL0     C21217   2.201   1.836   4.663 -0.3245  0.6265  0.1526
  158MOL0     C21218   2.319   1.739   4.635  0.0747 -0.0340  0.2666
  158MOL0     O21219   2.273   1.637   4.548  0.2276 -0.7763  0.5733
  158MOL0     C21220   2.291   1.656   4.411  0.7244 -0.3604  0.4344
  158MOL0     C21221   2.313   1.545   4.338  0.7793  0.3261  0.5790
  158MOL0     C21222   2.351   1.547   4.201  0.8393  0.4432 -0.2569
  158MOL0     C21223   2.376   1.409   4.129  0.4308  0.5025  0.2054
  158MOL0     C21224   2.353   1.672   4.126  0.2090  0.0769  0.0198
  158MOL0     C21225   2.378   1.690   3.977 -0.0751 -0.6770  0.2008
  158MOL0     O21226   2.413   1.818   3.940  0.4475 -0.5361 -0.2281
  158MOL0     C21227   2.419   1.858   3.804 -0.4080  0.0926 -0.6662
  158MOL0     C21228   2.304   1.894   3.734 -0.8539  0.6620  0.9501
  158MOL0     C21229   2.320   1.926   3.598 -0.2720  0.1900 -0.3924
  158MOL0     C21230   2.451   1.933   3.537 -0.0379  1.1557  0.3209
  158MOL0     O21231   2.464   1.998   3.420  0.2885  0.5255 -0.1087
  158MOL0     C21232   2.460   2.146   3.421 -0.4293  0.4844  0.2427
  158MOL0     C21233   2.600   2.202   3.468 -1.0759  0.5464  0.7870
  158MOL0     C21234   2.578   2.355   3.490 -0.5835 -0.5574 -0.0246
  158MOL0     C21235   2.537   2.432   3.365  0.2290 -0.6751 -0.6628
  158MOL0     C21236   2.511   2.579   3.416 -1.0946  0.2840  0.8873
  158MOL0     C21237   2.483   2.680   3.305 -1.0059  0.1208  0.2528
  158MOL0     C21238   2.406   2.808   3.345  0.1697  0.6790  0.1977
  158MOL0     C21239   2.368   2.899   3.228  0.9474  0.0492  0.4175
  158MOL0    Cl21240   2.258   2.802   3.122  0.2794 -0.0091 -0.2783
  158MOL0     C21241   2.559   1.885   3.610  0.5882  0.1879 -0.0949
  158MOL0     C21242   2.542   1.844   3.743 -0.0285  0.5499  0.3888
  158MOL0     O21243   2.370   1.595   3.897 -0.2880 -0.4721 -0.0830
  158MOL0     C21244   2.334   1.790   4.206 -0.5185 -0.3373 -0.3030
  158MOL0     C21245   2.308   1.786   4.340  0.5160 -0.3782  0.4664
  158MOL0     N21246   1.873   1.936   4.584  0.8957 -0.0886 -0.3784
  158MOL0     N21247   1.847   2.043   4.525 -0.3274  0.1439  0.8414
  158MOL0     C21248   2.349   3.063   4.712  0.0272  1.0389  0.4302
  158MOL0     C21249   2.492   3.070   4.713  0.2162 -1.0610  1.1328
  158MOL0     C21250   2.945   3.006   4.883  0.3384 -0.7160  0.3674
  158MOL0     C21251   3.034   3.077   4.963  0.1188 -0.0644  0.3512
  158MOL0     C21252   3.164   3.064   4.943  0.2244  0.7507  1.1087
  158MOL0     C21253   3.220   2.980   4.848 -0.5279  0.9515  0.0705
  158MOL0     O21254   3.355   2.961   4.847 -0.4835 -0.8218 -0.3757
  158MOL0     C21255   3.410   2.838   4.783 -0.1165 -0.0056 -1.1516
  158MOL0     C21256   3.551   2.840   4.764  0.0016 -0.6853  0.5523
  158MOL0     C21257   3.642   2.854   4.885  0.6198  0.1814 -0.6439
  158MOL0     C21258   3.611   2.748   4.992  0.4773  0.7348  0.8447
  158MOL0     C21259   3.596   2.608   4.932 -0.5111 -0.2813 -0.0448
  158MOL0     C21260   3.545   2.507   4.888 -0.7860  0.7084 -0.1483
  158MOL0     C21261   3.131   2.911   4.772 -1.3479 -0.1271 -0.8848
  158MOL0     C21262   2.995   2.924   4.779 -0.7775  0.2712  1.0025
  158MOL0     H21263   2.577   2.845   4.940  0.6272  0.4956  1.5712
  158MOL0     H21264   2.333   2.818   4.964  0.1855 -1.6513 -1.3907
  158MOL0     H21265   2.029   3.103   4.734 -1.1345 -0.1814  1.5550
  158MOL0     H21266   2.113   2.995   4.613  3.0270 -1.3676  2.3829
  158MOL0     H21267   1.874   2.967   4.804  1.7676 -1.8100  1.3576
  158MOL0     H21268   1.856   2.968   4.638 -1.1358  0.2390  1.9388
  158MOL0     H21269   1.998   2.757   4.631 -0.3274  0.3275 -0.6179
  158MOL0     H21270   1.963   2.745   4.804  0.7044 -0.6135 -0.4980
  158MOL0     H21271   1.705   2.757   4.712  0.5599  2.2666  0.2366
  158MOL0     H21272   1.788   2.746   4.552  3.4666 -0.0376 -0.2769
  158MOL0     H21273   1.910   2.552   4.606  0.3381 -1.5617  1.7778
  158MOL0     H21274   1.827   2.531   4.753  1.4016 -1.2485 -0.0175
  158MOL0     H21275   1.600   2.500   4.626 -0.5583  0.7187 -0.6004
  158MOL0     H21276   1.701   2.490   4.478 -0.6641 -0.3082  0.1349
  158MOL0     H21277   1.740   2.316   4.726  0.2998 -1.8491 -0.2038
  158MOL0     H21278   1.656   2.261   4.586  1.8593 -1.5679 -0.3634
  158MOL0     H21279   1.947   2.352   4.583  1.2253 -1.8344 -3.1748
  158MOL0     H21280   1.851   2.296   4.457  2.3552  0.8825 -0.9487
  158MOL0     H21281   1.955   2.161   4.810  2.4047  0.1880 -2.0576
  158MOL0     H21282   2.048   1.911   4.880  2.5667  1.4690 -3.3235
  158MOL0     H21283   1.907   1.817   4.855 -1.7757 -0.3674 -1.0879
  158MOL0     H21284   2.022   1.695   4.663 -0.8167  1.9803 -1.1514
  158MOL0     H21285   2.124   1.690   4.798  2.2277  2.8138  0.8539
  158MOL0     H21286   2.231   1.926   4.718 -1.4312  1.4908 -0.5956
  158MOL0     H21287   2.154   1.869   4.569 -2.5742 -2.8896 -0.1230
  158MOL0     H21288   2.353   1.702   4.732 -0.7137 -1.0113  0.1917
  158MOL0     H21289   2.406   1.792   4.593  0.6394 -2.4824 -1.9198
  158MOL0     H21290   2.322   1.455   4.397  2.5923 -0.2295 -0.4616
  158MOL0     H21291   2.448   1.388   4.050 -0.3402 -0.3641 -0.2893
  158MOL0     H21292   2.376   1.323   4.196  3.8194  1.2255  1.3191
  158MOL0     H21293   2.290   1.389   4.064  1.1683  1.2830 -1.0466
  158MOL0     H21294   2.203   1.895   3.773 -2.3281 -1.0713 -2.3866
  158MOL0     H21295   2.231   1.944   3.539 -1.6705 -0.0195  1.5654
  158MOL0     H21296   2.435   2.182   3.321 -2.5418  3.4064  1.6781
  158MOL0     H21297   2.376   2.183   3.480 -1.5359  1.5507 -1.8830
  158MOL0     H21298   2.617   2.165   3.570 -0.6866 -0.4762  0.3598
  158MOL0     H21299   2.690   2.180   3.410  0.4253  2.2302  2.3548
  158MOL0     H21300   2.673   2.406   3.509 -1.1536  1.0357 -1.1478
  158MOL0     H21301   2.515   2.381   3.575 -2.2831 -0.0428 -1.3793
  158MOL0     H21302   2.614   2.432   3.287 -1.9312 -0.0529 -2.9577
  158MOL0     H21303   2.437   2.403   3.332 -2.1092  1.0946  3.9967
  158MOL0     H21304   2.602   2.613   3.466  1.0862 -3.4385 -0.1678
  158MOL0     H21305   2.438   2.575   3.498 -1.5307 -1.2488  0.4523
  158MOL0     H21306   2.581   2.708   3.265 -0.7576  0.7882  1.2731
  158MOL0     H21307   2.419   2.631   3.231 -0.9162  2.0291 -1.1816
  158MOL0     H21308   2.471   2.862   3.415 -1.2577 -0.7266  2.7835
  158MOL0     H21309   2.317   2.773   3.398  0.3010 -0.5968 -0.3878
  158MOL0     H21310   2.457   2.942   3.179  1.4849  0.0024  1.3350
  158MOL0     H21311   2.315   2.989   3.261 -0.9566 -0.8049 -0.1614
  158MOL0     H21312   2.657   1.891   3.565 -0.1038 -2.2415 -2.1003
  158MOL0     H21313   2.618   1.793   3.802 -0.3778  1.4859  1.7112
  158MOL0     H21314   2.341   1.894   4.175 -0.8953 -0.2150  0.0153
  158MOL0     H21315   2.297   1.885   4.382  1.8145  0.2214 -0.5482
  158MOL0     H21316   2.293   3.123   4.641 -2.0803 -0.5371  0.6546
  158MOL0     H21317   2.531   3.140   4.639  1.5092 -1.5072  1.3739
  158MOL0     H21318   2.988   3.149   5.030 -0.4440 -1.1327  1.1585
  158MOL0     H21319   3.234   3.131   4.994  4.8372 -0.5872 -2.7546
  158MOL0     H21320   3.377   2.754   4.845 -0.8222  0.6609 -0.6008
  158MOL0     H21321   3.363   2.824   4.685 -1.4145 -1.6455 -0.3495
  158MOL0     H21322   3.573   2.931   4.707 -0.5017 -2.2574 -2.3266
  158MOL0     H21323   3.591   2.757   4.704  0.0774  1.3498 -2.3971
  158MOL0     H21324   3.634   2.957   4.920 -0.8490 -0.1250 -0.0051
  158MOL0     H21325   3.743   2.831   4.850  1.0403  0.9436  0.0413
  158MOL0     H21326   3.521   2.760   5.051  1.2619  2.8353  1.7195
  158MOL0     H21327   3.699   2.742   5.057  1.7678 -0.5233 -0.9022
  158MOL0     H21328   3.481   2.433   4.846 -2.9859  1.9752  0.7911
  158MOL0     H21329   3.156   2.831   4.703 -3.3385 -0.2323 -1.5437
  158MOL0     H21330   2.921   2.870   4.722 -0.4715 -0.0457  0.9018
  159MOL0     O21331   1.862   2.632   0.466  0.5238 -0.3722 -0.4250
  159MOL0     C21332   1.785   2.546   0.432  0.6315  0.0961  0.1073
  159MOL0     O21333   1.687   2.570   0.338  0.1743 -0.2544 -0.3113
  159MOL0     C21334   1.639   2.699   0.311 -0.8204  0.3842  1.4307
  159MOL0     C21335   1.604   2.724   0.182 -0.2865  0.1202  0.3796
  159MOL0     C21336   1.573   2.858   0.138  0.5987 -0.2755  0.6219
  159MOL0     C21337   1.555   2.960   0.234  0.1007 -1.5384  0.8494
  159MOL0     O21338   1.525   3.088   0.198  0.6693 -0.0670  0.8364
  159MOL0     C21339   1.489   3.122   0.067  0.3317 -0.3758  0.4465
  159MOL0     C21340   1.490   3.277   0.051  0.0616  0.7094 -0.4833
  159MOL0     C21341   1.397   3.346   0.148  0.1930  1.2945  1.0833
  159MOL0     C21342   1.367   3.499   0.128 -0.7027 -0.5513  0.3059
  159MOL0     C21343   1.255   3.559   0.220 -0.2002 -0.2432  0.6049
  159MOL0     C21344   1.255   3.714   0.227 -0.0723  0.1755  0.1538
  159MOL0     C21345   1.395   3.788   0.214  0.9650  0.1172  0.6044
  159MOL0     C21346   1.383   3.937   0.200  0.2320 -0.0921  0.0953
  159MOL0     N21347   1.519   3.997   0.189  0.5201 -0.4970  1.2257
  159MOL0     C21348   1.610   3.986   0.290  0.0677 -0.4036  0.6318
  159MOL0     C21349   1.732   4.001   0.230 -0.2833 -0.1197 -0.0996
  159MOL0     C21350   1.861   4.004   0.312 -0.0506 -0.0498  1.5892
  159MOL0     C21351   1.979   3.939   0.238 -0.3236 -0.0939 -0.4146
  159MOL0     C21352   2.111   3.987   0.297 -0.1999  0.1706 -0.8408
  159MOL0     C21353   2.132   3.946   0.439 -0.7127  0.3017 -0.4460
  159MOL0     O21354   2.240   4.005   0.506 -0.1119 -0.0894 -0.1205
  159MOL0     C21355   2.291   3.979   0.632 -1.2208 -0.4908 -0.1835
  159MOL0     C21356   2.394   4.050   0.689 -0.2042 -0.1868 -0.6250
  159MOL0     C21357   2.448   4.025   0.816  0.2829  0.8100 -0.1670
  159MOL0     C21358   2.569   4.115   0.864 -0.6745 -0.3526  0.0240
  159MOL0     C21359   2.381   3.928   0.899 -0.1248  0.1013  0.2569
  159MOL0     C21360   2.424   3.885   1.035  0.7828  0.6471  0.3379
  159MOL0     O21361   2.549   3.922   1.070  0.6937  0.4423  0.0684
  159MOL0     C21362   2.586   3.917   1.200 -0.0388 -0.2477 -0.2446
  159MOL0     C21363   2.524   3.988   1.304  0.0310  0.2365  0.5311
  159MOL0     C21364   2.569   3.962   1.435 -0.0360 -0.2500 -1.2892
  159MOL0     C21365   2.666   3.871   1.471  0.2693  0.6471 -0.2545
  159MOL0     O21366   2.705   3.848   1.606 -1.2213  0.5077  0.1956
  159MOL0     C21367   2.717   3.706   1.642  1.1328  0.5365 -0.3717
  159MOL0     C21368   2.577   3.638   1.617 -0.0900 -0.6782  0.4909
  159MOL0     C21369   2.469   3.707   1.712  0.0859 -0.0714  0.7449
  159MOL0     C21370   2.322   3.677   1.687 -1.1182 -0.1626 -0.1019
  159MOL0     C21371   2.278   3.541   1.740  0.1498 -0.2105  0.7822
  159MOL0     C21372   2.135   3.522   1.714  0.0051 -0.3188  0.0124
  159MOL0     C21373   2.090   3.393   1.788 -0.3695 -0.4867  0.3433
  159MOL0     C21374   1.959   3.344   1.727 -0.4242  0.1266  0.8740
  159MOL0    Cl21375   1.918   3.170   1.789 -0.0715 -0.1547  0.0406
  159MOL0     C21376   2.725   3.801   1.362  0.2167 -0.1911  0.5749
  159MOL0     C21377   2.688   3.831   1.232  0.6400  0.4754 -0.6390
  159MOL0     O21378   2.341   3.829   1.108 -0.6340 -0.1579  0.1083
  159MOL0     C21379   2.278   3.852   0.842 -0.0031  0.0022  0.7931
  159MOL0     C21380   2.231   3.888   0.720 -0.5168 -0.0355 -0.0797
  159MOL0     N21381   1.711   4.024   0.097 -0.0099 -0.8251 -0.8699
  159MOL0     N21382   1.585   4.017   0.067  0.0947  0.2932 -0.7065
  159MOL0     C21383   1.574   2.923   0.369  0.2938  0.5944  0.2375
  159MOL0     C21384   1.624   2.799   0.406 -0.2341  0.1197  0.1347
  159MOL0     C21385   1.802   2.416   0.488  0.3481  0.7863 -0.6848
  159MOL0     C21386   1.893   2.386   0.599 -0.0764  0.3896 -0.4227
  159MOL0     C21387   1.907   2.262   0.660  0.2697 -0.4002 -0.5839
  159MOL0     C21388   1.807   2.170   0.630  0.5585 -0.0868  0.7435
  159MOL0     O21389   1.815   2.038   0.682  0.3295 -0.3763 -0.4674
  159MOL0     C21390   1.719   2.042   0.793 -0.3803  0.2739 -0.3789
  159MOL0     C21391   1.738   1.910   0.870 -0.3113 -0.3418  0.9033
  159MOL0     C21392   1.887   1.871   0.894  0.6476  0.3256 -0.1166
  159MOL0     C21393   1.916   1.782   1.015 -0.0260 -0.2922 -0.0794
  159MOL0     C21394   2.063   1.747   1.025  1.1824  0.2925 -0.3495
  159MOL0     C21395   2.183   1.755   1.009 -1.6169 -0.3325 -0.3190
  159MOL0     C21396   1.707   2.191   0.530  0.2138 -0.0789 -0.0901
  159MOL0     C21397   1.708   2.316   0.459 -0.1817  0.3435 -0.5701
  159MOL0     H21398   1.597   2.645   0.108  1.5855 -0.6670  0.9834
  159MOL0     H21399   1.525   2.870   0.041  1.5326  0.3396  0.2214
  159MOL0     H21400   1.557   3.070  -0.002  0.1415 -0.9556  0.6909
  159MOL0     H21401   1.390   3.080   0.048  0.7163 -1.7326  1.2325
  159MOL0     H21402   1.592   3.317   0.059  0.2104 -0.0486  1.9760
  159MOL0     H21403   1.460   3.301  -0.052 -1.9219  0.2556 -0.0409
  159MOL0     H21404   1.306   3.286   0.152 -0.1959  0.6230 -5.5622
  159MOL0     H21405   1.442   3.330   0.246 -0.3285  1.6317  1.3861
  159MOL0     H21406   1.454   3.560   0.156 -1.3686  1.9177 -2.5206
  159MOL0     H21407   1.355   3.548   0.031  0.4235  0.6860  0.7431
  159MOL0     H21408   1.155   3.544   0.178  0.7157  1.3049 -2.4584
  159MOL0     H21409   1.257   3.501   0.312  0.4186 -4.0957 -1.6119
  159MOL0     H21410   1.205   3.740   0.133 -0.1138  0.8031  0.3391
  159MOL0     H21411   1.196   3.754   0.310  0.4342 -1.0651  1.1378
  159MOL0     H21412   1.456   3.763   0.300 -1.7224  1.6041  3.1116
  159MOL0     H21413   1.442   3.760   0.119  1.1516  0.9037  0.4520
  159MOL0     H21414   1.338   3.968   0.295  2.3853 -1.7976  1.7816
  159MOL0     H21415   1.327   3.975   0.114 -2.3238  2.1622  2.5316
  159MOL0     H21416   1.580   3.973   0.393 -0.8056 -0.3958  0.3843
  159MOL0     H21417   1.878   4.111   0.326  0.7184 -0.1880  1.7645
  159MOL0     H21418   1.841   3.956   0.408 -1.0690 -1.2948  0.7928
  159MOL0     H21419   1.966   3.969   0.133  0.8224 -0.7528 -0.7658
  159MOL0     H21420   1.969   3.831   0.252 -1.2957  0.0573  0.1725
  159MOL0     H21421   2.124   4.095   0.284  1.5789  0.1519  0.5096
  159MOL0     H21422   2.197   3.940   0.248 -0.3281 -1.1626  0.1683
  159MOL0     H21423   2.156   3.840   0.433 -1.5677  0.1446 -1.6631
  159MOL0     H21424   2.047   3.957   0.507 -0.5912  0.6885 -0.3570
  159MOL0     H21425   2.445   4.113   0.617 -0.7117 -1.1045 -1.8217
  159MOL0     H21426   2.654   4.057   0.901  2.3716  2.9890 -1.1560
  159MOL0     H21427   2.607   4.174   0.780 -1.3951 -1.1566 -0.8878
  159MOL0     H21428   2.535   4.188   0.937 -3.8767  1.2823 -2.8242
  159MOL0     H21429   2.461   4.074   1.282  0.5608  0.5700  0.2998
  159MOL0     H21430   2.513   4.008   1.516  0.6246 -1.1398 -0.3083
  159MOL0     H21431   2.799   3.669   1.579  1.0360  1.4278 -1.0517
  159MOL0     H21432   2.757   3.698   1.743 -2.2314 -0.2997  1.0229
  159MOL0     H21433   2.546   3.635   1.512 -1.1593  0.7750  0.7416
  159MOL0     H21434   2.583   3.534   1.652 -0.6022 -0.2637  1.8408
  159MOL0     H21435   2.470   3.814   1.690 -0.8888 -0.4358 -1.1984
  159MOL0     H21436   2.494   3.686   1.817 -3.9716 -1.0968  1.6952
  159MOL0     H21437   2.260   3.752   1.737  0.0160  0.6241  0.1613
  159MOL0     H21438   2.293   3.683   1.582 -0.0395 -0.5119 -0.4410
  159MOL0     H21439   2.287   3.543   1.849 -0.1127  0.8306  0.7961
  159MOL0     H21440   2.338   3.461   1.698 -1.5139 -1.5406  0.8277
  159MOL0     H21441   2.090   3.615   1.751  1.6858  0.5306 -0.0005
  159MOL0     H21442   2.119   3.510   1.607  0.6743  0.3672 -0.1676
  159MOL0     H21443   2.073   3.413   1.894  3.1776 -0.9021  1.0929
  159MOL0     H21444   2.169   3.317   1.789  0.4604  0.3568  1.5009
  159MOL0     H21445   1.981   3.336   1.620  1.0544  1.6572  1.0403
  159MOL0     H21446   1.874   3.410   1.743 -1.7019 -1.4511  0.9350
  159MOL0     H21447   2.800   3.725   1.382  0.3787 -0.9024 -2.2562
  159MOL0     H21448   2.735   3.774   1.153  3.3556 -2.4304  2.7157
  159MOL0     H21449   2.220   3.783   0.902 -0.4124 -0.7223 -0.3984
  159MOL0     H21450   2.146   3.833   0.680  0.3814  0.2722 -2.6209
  159MOL0     H21451   1.596   2.997   0.445  1.1908  0.5004  0.0707
  159MOL0     H21452   1.656   2.780   0.508  0.2689  0.8092  0.1087
  159MOL0     H21453   1.967   2.463   0.621 -2.3102  2.3466  0.6578
  159MOL0     H21454   1.987   2.233   0.727 -1.0391 -3.0037  0.0223
  159MOL0     H21455   1.755   2.114   0.867  0.8202 -0.8330  0.1380
  159MOL0     H21456   1.612   2.057   0.773 -2.0552 -0.9331  5.6117
  159MOL0     H21457   1.675   1.834   0.824 -2.0910  0.3969  2.0337
  159MOL0     H21458   1.689   1.933   0.966 -0.4114  0.8270  0.5957
  159MOL0     H21459   1.951   1.960   0.893 -2.0579  2.3944 -1.3624
  159MOL0     H21460   1.905   1.811   0.804  1.2225  0.3415 -0.0207
  159MOL0     H21461   1.855   1.693   0.999 -0.4419 -0.1080  0.4851
  159MOL0     H21462   1.865   1.819   1.104 -3.3114  0.5942 -2.1620
  159MOL0     H21463   2.289   1.745   0.998 -1.7143 -2.3001  0.0262
  159MOL0     H21464   1.627   2.118   0.517  1.3229 -1.5002  0.7200
  159MOL0     H21465   1.634   2.331   0.381  0.3616  4.7717 -0.5223
  160MOL0     O21466  10.363   6.030   0.609  0.1258 -0.9306 -0.0260
  160MOL0     C21467  10.313   6.133   0.563 -0.0494 -0.4163  0.5660
  160MOL0     O21468  10.328   6.174   0.432  0.2159 -0.0878  0.7153
  160MOL0     C21469  10.381   6.083   0.345  0.4855 -0.9682  0.2445
  160MOL0     C21470  10.298   6.010   0.277 -0.2423  0.3629  0.3928
  160MOL0     C21471  10.324   5.929   0.165 -0.1552  0.4024 -0.3041
  160MOL0     C21472  10.466   5.913   0.138  0.1265  0.7058 -0.4495
  160MOL0     O21473  10.515   5.820   0.047  0.3459 -1.0948 -0.4832
  160MOL0     C21474  10.437   5.812  -0.073 -0.3070 -0.8101 -0.3694
  160MOL0     C21475  10.464   5.937  -0.171  0.0712 -0.3513  0.1170
  160MOL0     C21476  10.609   5.992  -0.182 -1.3469  1.3532 -0.4035
  160MOL0     C21477  10.689   5.915  -0.285  0.4778  0.2526  0.2279
  160MOL0     C21478  10.826   5.979  -0.308 -0.3402 -0.8323  0.1258
  160MOL0     C21479  10.934   5.880  -0.359 -0.3381 -1.0502 -0.3826
  160MOL0     C21480  11.074   5.957  -0.355  0.7293 -0.2351 -0.3187
  160MOL0     C21481  11.085   6.086  -0.435  0.2461 -0.4823 -0.0993
  160MOL0     N21482  11.230   6.112  -0.458 -0.6136 -0.3346 -0.0438
  160MOL0     C21483  11.295   6.105  -0.573 -0.6564  0.3321  0.1264
  160MOL0     C21484  11.422   6.159  -0.543 -0.1715  0.0178 -0.0024
  160MOL0     C21485  11.536   6.155  -0.640  0.6310 -0.2268  0.4818
  160MOL0     C21486  11.637   6.272  -0.602  0.2128 -0.6653 -0.4378
  160MOL0     C21487  11.758   6.281  -0.694 -0.0515  0.0028 -0.6117
  160MOL0     C21488  11.823   6.148  -0.714 -0.3067  0.8994  0.3802
  160MOL0     O21489  11.836   6.080  -0.589 -0.0378 -0.2168 -0.5043
  160MOL0     C21490  11.883   5.952  -0.603  0.6321  0.1410  1.5073
  160MOL0     C21491  11.865   5.872  -0.491 -0.5202  0.4409 -0.1519
  160MOL0     C21492  11.907   5.736  -0.479  0.5981  0.2850 -0.1905
  160MOL0     C21493  11.867   5.660  -0.352 -0.2872 -0.4576  0.5073
  160MOL0     C21494  11.981   5.690  -0.589 -0.9138 -0.6350  0.0862
  160MOL0     C21495  12.014   5.543  -0.606 -0.8768 -0.6988  0.2799
  160MOL0     O21496  12.096   5.516  -0.711 -0.2018  0.4058 -0.1278
  160MOL0     C21497  12.127   5.387  -0.751 -0.1564  1.2395 -1.1301
  160MOL0     C21498  12.025   5.301  -0.801 -0.5428  0.4272 -0.1009
  160MOL0     C21499  12.054   5.197  -0.891 -0.5098  0.7025  1.5493
  160MOL0     C21500  12.191   5.169  -0.911  0.0784  0.0854  0.5210
  160MOL0     O21501  12.240   5.063  -0.989 -0.4443 -0.4393 -0.0089
  160MOL0     C21502  12.162   5.010  -1.094  0.6084  0.0833 -0.1497
  160MOL0     C21503  12.233   4.893  -1.167 -0.2479 -0.4304 -0.1606
  160MOL0     C21504  12.150   4.822  -1.268  0.1950  0.7563 -0.3632
  160MOL0     C21505  12.122   4.927  -1.381 -0.4962 -0.2856  0.6653
  160MOL0     C21506  12.034   4.861  -1.490  0.2963 -0.9576 -0.3094
  160MOL0     C21507  12.013   4.942  -1.616  0.9539  0.2731 -0.4458
  160MOL0     C21508  11.920   4.866  -1.715 -0.1064  1.0036 -1.1120
  160MOL0     C21509  11.897   4.952  -1.830  0.6223  0.2982  0.2824
  160MOL0    Cl21510  11.839   5.121  -1.796 -0.0463 -0.1340 -0.3437
  160MOL0     C21511  12.289   5.254  -0.855  0.2567  0.1124 -0.2776
  160MOL0     C21512  12.257   5.354  -0.779  0.1178  0.4301 -0.2701
  160MOL0     O21513  11.933   5.465  -0.558 -0.3807  0.0806 -0.0757
  160MOL0     C21514  12.000   5.772  -0.699 -0.2163 -0.6044 -0.2545
  160MOL0     C21515  11.949   5.897  -0.715  0.1384 -0.1021 -0.1583
  160MOL0     N21516  11.429   6.182  -0.407 -0.1382 -0.2883  0.4340
  160MOL0     N21517  11.314   6.162  -0.361 -0.1603 -0.8952  1.2404
  160MOL0     C21518  10.557   5.983   0.207  0.8235  0.6099  0.0914
  160MOL0     C21519  10.515   6.070   0.311 -0.5829 -0.1170  0.4235
  160MOL0     C21520  10.225   6.208   0.660  0.2781  0.1858 -0.4131
  160MOL0     C21521  10.163   6.327   0.610  0.2053 -0.1008 -0.9641
  160MOL0     C21522  10.081   6.399   0.707 -0.2630 -0.5657 -0.1583
  160MOL0     C21523  10.054   6.352   0.839 -0.5561 -0.8302  0.3730
  160MOL0     O21524   9.970   6.430   0.908 -0.0372 -0.2660  0.5671
  160MOL0     C21525   9.986   6.453   1.046 -1.1570  0.2565 -0.0155
  160MOL0     C21526   9.898   6.353   1.120 -0.6242  0.2960 -1.1544
  160MOL0     C21527   9.906   6.389   1.264  0.0949 -1.3072 -0.0768
  160MOL0     C21528   9.775   6.348   1.342 -0.6587 -0.0450 -1.3487
  160MOL0     C21529   9.800   6.212   1.395  0.8444  0.4373  0.0908
  160MOL0     C21530   9.813   6.096   1.425  0.6747 -0.6654  0.4670
  160MOL0     C21531  10.115   6.238   0.881  0.6150  0.2705  0.3149
  160MOL0     C21532  10.194   6.166   0.790  0.2307 -0.4550 -0.6807
  160MOL0     H21533  10.194   6.017   0.307 -0.1500 -1.0406  1.0822
  160MOL0     H21534  10.244   5.873   0.118 -0.8107 -1.3835  2.6819
  160MOL0     H21535  10.472   5.721  -0.121 -0.9776 -0.0027 -2.5053
  160MOL0     H21536  10.328   5.804  -0.066 -0.8860  0.4320 -4.8786
  160MOL0     H21537  10.434   5.899  -0.269  1.1765 -3.6695  0.9073
  160MOL0     H21538  10.398   6.020  -0.145  2.7013  2.5585 -1.7971
  160MOL0     H21539  10.603   6.096  -0.215 -0.4186  1.2493 -0.9621
  160MOL0     H21540  10.652   5.989  -0.082 -1.6263 -0.9575 -0.3125
  160MOL0     H21541  10.701   5.809  -0.262  0.5206  0.0540 -0.6529
  160MOL0     H21542  10.621   5.907  -0.370 -1.0522  3.2550  1.0669
  160MOL0     H21543  10.808   6.053  -0.387 -1.2521 -1.7659 -0.5604
  160MOL0     H21544  10.884   6.020  -0.225  1.0322 -3.3633  0.5227
  160MOL0     H21545  10.938   5.785  -0.304 -1.7106 -0.0575  1.5571
  160MOL0     H21546  10.905   5.851  -0.461 -0.6436  3.0582 -1.6234
  160MOL0     H21547  11.106   5.975  -0.252  0.1774  2.0085 -0.4789
  160MOL0     H21548  11.146   5.887  -0.397  0.1287 -0.5851 -0.7753
  160MOL0     H21549  11.038   6.173  -0.387  0.2935  0.9407 -2.4772
  160MOL0     H21550  11.045   6.081  -0.536  1.1797 -0.5860 -0.4713
  160MOL0     H21551  11.243   6.067  -0.660  2.0626 -1.1929 -0.9556
  160MOL0     H21552  11.566   6.050  -0.648 -1.4577 -0.7979 -0.5057
  160MOL0     H21553  11.497   6.180  -0.739  4.6529  0.0005 -1.2086
  160MOL0     H21554  11.672   6.250  -0.501 -1.0629 -1.9178 -0.2412
  160MOL0     H21555  11.590   6.370  -0.616  1.0073 -0.6865 -4.8391
  160MOL0     H21556  11.834   6.343  -0.647 -2.9304  2.1554  1.6051
  160MOL0     H21557  11.733   6.323  -0.792 -1.0049  1.5090  0.2376
  160MOL0     H21558  11.921   6.156  -0.763  0.4783 -1.9365  1.2689
  160MOL0     H21559  11.767   6.083  -0.783  0.2499  1.1434 -0.3178
  160MOL0     H21560  11.802   5.915  -0.414  1.2818  1.0348  1.0334
  160MOL0     H21561  11.959   5.629  -0.302  1.4786  3.2923 -0.0898
  160MOL0     H21562  11.820   5.728  -0.281  0.6446 -0.4876  1.1637
  160MOL0     H21563  11.790   5.584  -0.372 -0.5632 -0.0401 -0.0336
  160MOL0     H21564  11.922   5.322  -0.776  0.5044  2.7229  2.8399
  160MOL0     H21565  11.979   5.125  -0.923  0.8797 -0.5569  1.0655
  160MOL0     H21566  12.080   4.956  -1.048 -1.3481  3.0249  0.0540
  160MOL0     H21567  12.123   5.094  -1.152  0.3380 -0.9181 -1.4845
  160MOL0     H21568  12.311   4.945  -1.224 -1.4421 -1.1258 -2.5752
  160MOL0     H21569  12.268   4.825  -1.089 -0.0667 -1.0941 -0.8093
  160MOL0     H21570  12.054   4.805  -1.219  2.0373  0.0400  3.3692
  160MOL0     H21571  12.193   4.735  -1.319 -2.5712  0.4738 -2.4913
  160MOL0     H21572  12.063   5.012  -1.345 -1.5979 -0.1926 -1.2211
  160MOL0     H21573  12.212   4.956  -1.436 -1.2442  0.1584 -0.3611
  160MOL0     H21574  11.935   4.838  -1.449  0.8579  2.5662  3.7026
  160MOL0     H21575  12.088   4.775  -1.530  3.4465  2.3972 -4.1776
  160MOL0     H21576  11.961   5.037  -1.598 -0.6859 -0.0787 -2.9322
  160MOL0     H21577  12.108   4.971  -1.662  1.6613  3.1381  2.4010
  160MOL0     H21578  11.821   4.839  -1.676  0.7461 -1.7986 -0.6133
  160MOL0     H21579  11.952   4.766  -1.745 -3.3026 -1.0468  1.4919
  160MOL0     H21580  11.812   4.896  -1.869 -0.8397  0.1561  3.3915
  160MOL0     H21581  11.972   4.953  -1.910 -0.3622  0.2461 -0.6637
  160MOL0     H21582  12.395   5.243  -0.873  0.5718  1.9227  0.3176
  160MOL0     H21583  12.341   5.411  -0.738  0.6048  0.2988 -1.0671
  160MOL0     H21584  12.045   5.735  -0.790  3.0952 -3.6727  2.3214
  160MOL0     H21585  11.953   5.941  -0.814 -1.5501  2.9749  1.0039
  160MOL0     H21586  10.664   5.994   0.193  1.1049 -0.8417  0.8804
  160MOL0     H21587  10.595   6.131   0.349  0.5262 -1.9193  1.1051
  160MOL0     H21588  10.186   6.371   0.514 -1.1366  2.8990 -0.0280
  160MOL0     H21589  10.028   6.491   0.683  2.3522  1.7624  2.2112
  160MOL0     H21590  10.086   6.435   1.087 -1.2210  1.6009  0.8103
  160MOL0     H21591   9.973   6.559   1.072 -1.4862 -0.0515  1.1441
  160MOL0     H21592   9.942   6.253   1.117 -1.5162 -0.2611  1.6483
  160MOL0     H21593   9.793   6.346   1.090 -1.2729 -0.7415  1.1887
  160MOL0     H21594   9.920   6.496   1.280  1.8307 -1.2048 -1.8805
  160MOL0     H21595   9.995   6.349   1.313  0.7638  0.9157  0.6403
  160MOL0     H21596   9.691   6.360   1.274  0.3712  4.5534 -2.1476
  160MOL0     H21597   9.750   6.405   1.433 -1.2081  0.6023 -1.8978
  160MOL0     H21598   9.818   5.991   1.447 -2.4054 -1.2085 -0.8703
  160MOL0     H21599  10.095   6.203   0.981  2.0193  3.2421  1.7716
  160MOL0     H21600  10.231   6.067   0.816  1.9195  0.1311 -0.6884
  161MOL0     O21601   6.841  10.714   0.026  0.2947  0.2191 -0.0465
  161MOL0     C21602   6.817  10.830  -0.004  0.5782  0.1908  0.2515
  161MOL0     O21603   6.724  10.908   0.067  0.6461 -1.0527 -0.3912
  161MOL0     C21604   6.626  10.847   0.149 -1.0101 -0.5356 -0.0182
  161MOL0     C21605   6.489  10.850   0.125 -0.6186 -0.1775 -0.3658
  161MOL0     C21606   6.405  10.792   0.212 -0.7604  0.2508  0.9495
  161MOL0     C21607   6.452  10.710   0.308 -1.0960 -0.2247  0.3310
  161MOL0     O21608   6.361  10.640   0.381  0.2412  0.3638 -0.0842
  161MOL0     C21609   6.267  10.570   0.303  0.2129  0.5222  0.1137
  161MOL0     C21610   6.218  10.445   0.369  0.9186 -0.6984  0.8727
  161MOL0     C21611   6.315  10.330   0.401  0.5539 -0.8747  0.3469
  161MOL0     C21612   6.244  10.194   0.402 -0.2101 -0.7272  0.7884
  161MOL0     C21613   6.223  10.149   0.256 -0.9312 -0.7549 -0.3648
  161MOL0     C21614   6.108  10.059   0.218  0.4282 -0.6260 -0.2395
  161MOL0     C21615   6.169   9.915   0.223  1.3229  0.1694  0.4368
  161MOL0     C21616   6.071   9.809   0.171  0.1049  0.0244  0.2227
  161MOL0     N21617   5.943   9.816   0.249  0.3948 -0.4033  0.3000
  161MOL0     C21618   5.945   9.816   0.387  0.5273  0.4070 -0.5728
  161MOL0     C21619   5.835   9.893   0.416  0.7386 -0.1645  0.5287
  161MOL0     C21620   5.799   9.945   0.554  0.2340  0.2678  0.4824
  161MOL0     C21621   5.917   9.991   0.636  0.0573 -0.5911 -0.2154
  161MOL0     C21622   5.887  10.040   0.780 -0.5429 -0.2172 -0.9484
  161MOL0     C21623   5.834   9.928   0.860  0.4334  0.1057 -0.6254
  161MOL0     O21624   5.791   9.969   0.993 -0.3173 -0.3265  0.4175
  161MOL0     C21625   5.661  10.021   1.008  0.1995 -0.0055  0.5174
  161MOL0     C21626   5.567  10.027   0.906  0.5787 -0.0024  0.2073
  161MOL0     C21627   5.439  10.052   0.939  0.3348 -0.9061 -0.6963
  161MOL0     C21628   5.334  10.034   0.835  0.2764  1.1946  0.4434
  161MOL0     C21629   5.404  10.086   1.085  1.1627  0.3123 -0.0224
  161MOL0     C21630   5.259  10.114   1.127  0.5391  0.3974  0.2776
  161MOL0     O21631   5.158  10.046   1.065 -0.1260  0.1192  0.1767
  161MOL0     C21632   5.028  10.082   1.061  0.3444  0.4804  0.0621
  161MOL0     C21633   4.931   9.978   1.061 -0.0272  0.9181  0.4690
  161MOL0     C21634   4.798  10.006   1.061 -0.3486  0.6350  0.6288
  161MOL0     C21635   4.752  10.133   1.042 -0.9941 -0.4948  0.2105
  161MOL0     O21636   4.618  10.141   1.016 -0.4559  0.2372 -0.0371
  161MOL0     C21637   4.565  10.272   1.001  0.0266  0.7683 -0.8623
  161MOL0     C21638   4.412  10.243   0.980 -0.0553  0.0623 -0.3729
  161MOL0     C21639   4.357  10.127   0.890  0.2527  0.1065  0.4866
  161MOL0     C21640   4.218  10.088   0.904  0.6347 -0.1969 -0.3456
  161MOL0     C21641   4.158  10.012   0.779  0.3623 -0.5231 -0.7074
  161MOL0     C21642   4.226   9.877   0.766  0.2143  0.6829 -1.5425
  161MOL0     C21643   4.181   9.792   0.639 -0.8188 -0.9318  0.9253
  161MOL0     C21644   4.251   9.656   0.628 -0.5399 -0.5147 -0.9368
  161MOL0    Cl21645   4.190   9.550   0.771  0.3863 -0.2959  0.2416
  161MOL0     C21646   4.845  10.236   1.035  0.3924 -0.5495  0.6349
  161MOL0     C21647   4.980  10.209   1.037  0.2592  0.0514 -0.0100
  161MOL0     O21648   5.238  10.204   1.206 -0.1567 -0.0388  0.7017
  161MOL0     C21649   5.497  10.086   1.182 -0.9198 -0.6898  0.5303
  161MOL0     C21650   5.632  10.059   1.144  0.1479  0.0159 -0.0155
  161MOL0     N21651   5.762   9.914   0.302 -0.3200 -0.0073  0.0703
  161MOL0     N21652   5.824   9.876   0.201  0.2381  0.1393  0.0909
  161MOL0     C21653   6.587  10.709   0.352  0.3429 -1.0581 -0.3586
  161MOL0     C21654   6.669  10.786   0.267 -0.2274 -0.6692 -0.3624
  161MOL0     C21655   6.875  10.892  -0.117  0.1966 -0.3857  0.0516
  161MOL0     C21656   6.842  11.019  -0.154  0.3480 -0.1675  0.1094
  161MOL0     C21657   6.900  11.078  -0.272 -0.0184 -1.2807  0.2408
  161MOL0     C21658   6.987  10.999  -0.356 -0.3960 -0.5577 -0.3491
  161MOL0     O21659   7.055  11.050  -0.463 -0.6660 -0.0771 -0.1266
  161MOL0     C21660   7.026  11.183  -0.523  0.1176  0.1898  0.0159
  161MOL0     C21661   7.103  11.211  -0.647  0.0156 -1.2833  0.0355
  161MOL0     C21662   7.064  11.347  -0.717 -0.1875  0.0736  0.5340
  161MOL0     C21663   7.187  11.429  -0.757 -0.2452  0.4225 -0.7023
  161MOL0     C21664   7.239  11.479  -0.634  0.8306  0.1458 -0.4476
  161MOL0     C21665   7.285  11.523  -0.529  0.7953 -0.0830 -0.9280
  161MOL0     C21666   7.017  10.875  -0.309 -0.0174  0.2577 -0.5177
  161MOL0     C21667   6.961  10.817  -0.190  0.5259  1.1374  0.0064
  161MOL0     H21668   6.450  10.910   0.043  1.3951  0.3624 -0.9781
  161MOL0     H21669   6.299  10.807   0.195 -1.0704 -1.9986  0.5490
  161MOL0     H21670   6.184  10.641   0.291  0.1544  0.4507  0.0938
  161MOL0     H21671   6.302  10.558   0.201  3.3152  1.7229  0.9330
  161MOL0     H21672   6.184  10.484   0.465 -2.3440  0.9300 -0.7698
  161MOL0     H21673   6.133  10.412   0.308  0.9291  0.0848  0.4199
  161MOL0     H21674   6.387  10.331   0.319 -0.3012  1.0509 -0.4176
  161MOL0     H21675   6.367  10.342   0.497  1.6044 -2.8666  0.0843
  161MOL0     H21676   6.296  10.119   0.462  1.1861  0.1443  0.7012
  161MOL0     H21677   6.146  10.203   0.451 -0.2927  2.2592  0.2494
  161MOL0     H21678   6.195  10.232   0.191 -2.3175 -0.5680  0.4138
  161MOL0     H21679   6.319  10.101   0.237  0.4247  0.9307  1.8259
  161MOL0     H21680   6.014  10.077   0.271  0.5042 -2.5490  0.6289
  161MOL0     H21681   6.085  10.084   0.114 -0.2108  2.9341  0.6029
  161MOL0     H21682   6.252   9.907   0.152  1.1594  0.3590  0.2223
  161MOL0     H21683   6.215   9.892   0.319  2.1038 -1.0969 -0.2114
  161MOL0     H21684   6.108   9.708   0.153 -0.1882 -0.3478  1.5567
  161MOL0     H21685   6.044   9.833   0.068  3.3413 -2.3561 -1.3451
  161MOL0     H21686   6.013   9.767   0.457  1.3758  2.5555  0.2065
  161MOL0     H21687   5.727  10.025   0.539 -0.4230 -0.6671 -1.7330
  161MOL0     H21688   5.737   9.863   0.592 -3.1809  0.7018 -3.5145
  161MOL0     H21689   5.961  10.064   0.567 -1.5455  1.3158  0.6666
  161MOL0     H21690   5.986   9.912   0.664 -1.9792 -2.0501  0.9576
  161MOL0     H21691   5.818  10.125   0.790 -0.8681 -0.6389  0.9005
  161MOL0     H21692   5.982  10.070   0.825 -0.1520 -0.3687 -1.6736
  161MOL0     H21693   5.910   9.851   0.874 -1.6618 -1.5344  3.2960
  161MOL0     H21694   5.757   9.865   0.815  0.1530 -3.1138  3.7778
  161MOL0     H21695   5.598  10.013   0.803  1.2180  0.6921  0.2972
  161MOL0     H21696   5.268   9.951   0.860 -0.2226  1.7423  0.9713
  161MOL0     H21697   5.261  10.115   0.830  1.4022  2.2209 -0.1702
  161MOL0     H21698   5.385  10.014   0.741  3.6411 -2.7993  2.7306
  161MOL0     H21699   4.978   9.880   1.060  0.4434  1.1203 -1.5161
  161MOL0     H21700   4.727   9.924   1.051 -1.5929  1.8923 -1.6621
  161MOL0     H21701   4.587  10.330   1.090 -1.4506  0.9247 -0.5695
  161MOL0     H21702   4.616  10.322   0.919 -0.7684  0.0351 -1.8420
  161MOL0     H21703   4.381  10.220   1.082 -0.3812 -3.7415 -1.1674
  161MOL0     H21704   4.358  10.337   0.962  0.3613  0.1718 -1.0792
  161MOL0     H21705   4.409  10.032   0.904 -0.3645 -0.3797 -0.3952
  161MOL0     H21706   4.375  10.152   0.785  0.0100  1.0911  0.6701
  161MOL0     H21707   4.229  10.027   0.994  2.1052  1.3171  0.5590
  161MOL0     H21708   4.157  10.175   0.929 -2.7956 -3.0436  2.3565
  161MOL0     H21709   4.171  10.079   0.694 -1.8487  1.9813  0.7851
  161MOL0     H21710   4.052   9.989   0.795  0.7314 -1.6545  0.2899
  161MOL0     H21711   4.335   9.889   0.759  0.9141 -2.5789  1.0502
  161MOL0     H21712   4.215   9.811   0.852 -0.0460 -3.5748 -4.5776
  161MOL0     H21713   4.202   9.848   0.547 -0.9144  2.1926  2.6765
  161MOL0     H21714   4.073   9.781   0.656 -0.4513 -0.3299  4.2336
  161MOL0     H21715   4.357   9.672   0.610  0.0853  3.2337  3.9830
  161MOL0     H21716   4.213   9.608   0.538  1.8886 -0.9896 -1.7748
  161MOL0     H21717   4.813  10.333   0.999  3.0511  0.0916 -0.2746
  161MOL0     H21718   5.057  10.281   1.012  1.3176 -1.6338 -1.9877
  161MOL0     H21719   5.480  10.093   1.289  0.4883 -0.6399  0.7787
  161MOL0     H21720   5.717  10.053   1.212 -0.3387  0.5143  0.6543
  161MOL0     H21721   6.627  10.639   0.426 -0.1727 -2.1796 -1.1166
  161MOL0     H21722   6.777  10.781   0.271 -0.2053  0.5265  1.9019
  161MOL0     H21723   6.776  11.086  -0.100  1.9497  2.1416 -0.6437
  161MOL0     H21724   6.883  11.178  -0.309 -2.6949 -1.5845  0.3921
  161MOL0     H21725   6.920  11.178  -0.551  0.7266 -3.1939 -2.1966
  161MOL0     H21726   7.044  11.257  -0.445  0.3051  0.4144 -0.2384
  161MOL0     H21727   7.099  11.123  -0.713  2.2059 -1.6942  0.3966
  161MOL0     H21728   7.202  11.216  -0.601 -0.9786 -0.3373  2.2064
  161MOL0     H21729   6.998  11.397  -0.645  0.2876  0.6992  0.5408
  161MOL0     H21730   7.006  11.323  -0.807  3.6538 -3.7513 -1.2323
  161MOL0     H21731   7.144  11.508  -0.819 -1.3095  2.2488  2.1383
  161MOL0     H21732   7.254  11.368  -0.817  0.1343 -0.7815  0.8659
  161MOL0     H21733   7.310  11.558  -0.431  0.8356  1.1687 -1.3610
  161MOL0     H21734   7.090  10.816  -0.364 -0.6437  0.4348 -1.5518
  161MOL0     H21735   6.990  10.718  -0.158  1.0545  1.1314 -0.4814
  162MOL0     O21736  11.239   3.885  10.286  1.0018 -0.5771 -1.3506
  162MOL0     C21737  11.159   3.797  10.310 -1.0508 -0.4043  0.2264
  162MOL0     O21738  11.068   3.803  10.416 -0.5158  0.3821 -0.0686
  162MOL0     C21739  11.053   3.915  10.501  0.0280 -0.5584 -0.0216
  162MOL0     C21740  10.980   3.883  10.628 -0.0890 -1.1346  0.6745
  162MOL0     C21741  10.951   3.986  10.713  0.8208  0.8069  0.2895
  162MOL0     C21742  10.998   4.109  10.688  0.0493 -0.3101 -0.0720
  162MOL0     O21743  10.980   4.214  10.773 -0.1511 -1.1593  0.3585
  162MOL0     C21744  10.938   4.200  10.910  0.0574  0.7546  0.9605
  162MOL0     C21745  10.918   4.345  10.961  0.4656  0.6370 -0.5966
  162MOL0     C21746  10.927   4.329  11.114  0.0949 -0.0344  0.5111
  162MOL0     C21747  10.880   4.457  11.173  0.3291 -0.1180 -0.2708
  162MOL0     C21748  10.889   4.438  11.332 -0.0518  0.1736 -0.2676
  162MOL0     C21749  10.874   4.575  11.407  0.3061  0.8297  0.8671
  162MOL0     C21750  10.886   4.548  11.558  0.1966 -0.1555  0.0389
  162MOL0     C21751  10.872   4.691  11.627 -0.2611 -0.0864  0.2662
  162MOL0     N21752  10.999   4.763  11.617 -0.1093  0.2537  0.3308
  162MOL0     C21753  11.085   4.785  11.721  0.6941 -0.0987 -0.0741
  162MOL0     C21754  11.187   4.860  11.675 -0.1356 -0.1954  0.3824
  162MOL0     C21755  11.317   4.887  11.756  0.7864 -0.8079 -1.1900
  162MOL0     C21756  11.394   5.010  11.723 -0.4556 -0.1847  0.6895
  162MOL0     C21757  11.497   4.968  11.619  0.6827 -0.2512  0.9270
  162MOL0     C21758  11.569   5.086  11.557 -1.4088 -0.5034  0.1657
  162MOL0     O21759  11.670   5.035  11.457 -0.4699  0.2251  0.1544
  162MOL0     C21760  11.798   4.989  11.500  0.9628 -1.1281 -0.3844
  162MOL0     C21761  11.834   4.992  11.633  0.6739  0.0502 -0.0971
  162MOL0     C21762  11.954   4.929  11.671 -0.4960 -0.0044  0.1572
  162MOL0     C21763  11.971   4.927  11.819 -1.0438 -0.7875 -0.4670
  162MOL0     C21764  12.041   4.881  11.569 -0.3376 -0.7748  0.3727
  162MOL0     C21765  12.169   4.818  11.598 -0.4388 -0.3393 -0.6941
  162MOL0     O21766  12.278   4.837  11.514 -0.0085 -0.1312 -0.1991
  162MOL0     C21767  12.393   4.772  11.530 -0.7069 -0.5658 -0.5746
  162MOL0     C21768  12.450   4.711  11.422  0.0906  0.6052 -0.0913
  162MOL0     C21769  12.577   4.638  11.436  0.3667  0.2299  0.2041
  162MOL0     C21770  12.644   4.647  11.556 -0.1617 -0.1931 -0.6348
  162MOL0     O21771  12.766   4.584  11.585  0.6266 -0.5747 -0.2203
  162MOL0     C21772  12.843   4.538  11.474 -0.5941 -0.5934  0.5023
  162MOL0     C21773  12.984   4.514  11.536  0.5493  0.5329 -1.0307
  162MOL0     C21774  13.087   4.503  11.426  0.1526 -0.6954  1.0971
  162MOL0     C21775  13.231   4.461  11.481  0.3247 -1.4075  0.1565
  162MOL0     C21776  13.346   4.514  11.390  1.1208  0.3563 -0.1530
  162MOL0     C21777  13.491   4.490  11.439  0.3619  0.0898  0.6618
  162MOL0     C21778  13.528   4.341  11.419  0.2884 -0.2090  0.2681
  162MOL0     C21779  13.680   4.322  11.438 -0.0898 -0.0157  0.0370
  162MOL0    Cl21780  13.794   4.432  11.349 -0.3192  0.1662  0.1933
  162MOL0     C21781  12.590   4.720  11.660 -1.1240  0.3270  0.2876
  162MOL0     C21782  12.468   4.786  11.652 -0.0786  0.5126  0.5353
  162MOL0     O21783  12.173   4.748  11.696  0.8419 -0.3190  1.0136
  162MOL0     C21784  12.006   4.897  11.430 -0.9480 -0.6306 -0.1116
  162MOL0     C21785  11.885   4.948  11.402  0.9325 -0.6890 -0.7091
  162MOL0     N21786  11.157   4.891  11.547 -0.2220 -0.3100  0.0613
  162MOL0     N21787  11.037   4.847  11.520  0.4049  0.7803 -0.2777
  162MOL0     C21788  11.065   4.140  10.575  0.4290 -0.9924 -0.0096
  162MOL0     C21789  11.088   4.049  10.481  0.7023  1.1491 -0.7416
  162MOL0     C21790  11.160   3.689  10.220 -0.4886  0.0446 -1.0420
  162MOL0     C21791  11.044   3.610  10.195  0.2941 -0.3900 -1.5347
  162MOL0     C21792  11.035   3.520  10.098 -0.8378  0.2203  0.0056
  162MOL0     C21793  11.136   3.488  10.021 -0.7798  0.0688  0.3256
  162MOL0     O21794  11.105   3.411   9.911  0.8623 -0.3852 -1.0696
  162MOL0     C21795  11.207   3.369   9.830 -1.4657  0.5238 -0.0213
  162MOL0     C21796  11.153   3.264   9.731  0.0000 -0.6920  0.9539
  162MOL0     C21797  11.116   3.124   9.785  0.3769 -1.1758  0.6416
  162MOL0     C21798  11.040   3.045   9.686  0.4982  0.4529  0.7323
  162MOL0     C21799  11.015   2.903   9.738  0.3138  0.7026  0.4707
  162MOL0     C21800  11.008   2.788   9.775 -0.2708 -0.2082  0.4187
  162MOL0     C21801  11.258   3.549  10.040 -0.4446  0.2327 -0.2540
  162MOL0     C21802  11.269   3.644  10.147  0.7215  0.1665  0.7459
  162MOL0     H21803  10.937   3.786  10.653 -1.2595 -0.7587  0.2013
  162MOL0     H21804  10.900   3.944  10.799 -1.9445 -1.8496 -2.4183
  162MOL0     H21805  10.840   4.152  10.903 -0.3830  1.3822  2.4587
  162MOL0     H21806  11.003   4.131  10.964 -2.2888 -4.3617 -1.9800
  162MOL0     H21807  10.995   4.417  10.932 -0.0321  1.6926  0.5665
  162MOL0     H21808  10.819   4.385  10.936 -0.2172 -1.6518 -1.7774
  162MOL0     H21809  10.856   4.254  11.151  2.1144 -2.5896 -0.4402
  162MOL0     H21810  11.021   4.289  11.154 -0.0553 -1.1009 -0.1547
  162MOL0     H21811  10.949   4.537  11.145 -0.7366  0.1840 -2.2098
  162MOL0     H21812  10.781   4.481  11.133 -0.7450 -1.7801  1.2593
  162MOL0     H21813  10.812   4.364  11.359  0.9191 -2.0664 -3.1302
  162MOL0     H21814  10.988   4.402  11.362  0.4586  2.2260  0.6291
  162MOL0     H21815  10.955   4.642  11.379  0.6676  0.5007  1.1162
  162MOL0     H21816  10.778   4.624  11.388  0.8740  1.1450 -1.5206
  162MOL0     H21817  10.816   4.478  11.603  0.1493  0.2859  0.6699
  162MOL0     H21818  10.987   4.514  11.586 -0.6864 -0.1548  3.7460
  162MOL0     H21819  10.861   4.660  11.731 -0.6163 -3.6156 -0.6809
  162MOL0     H21820  10.780   4.743  11.599 -1.2708 -1.2138  1.4343
  162MOL0     H21821  11.084   4.749  11.823  1.0094 -0.8336 -0.3264
  162MOL0     H21822  11.277   4.911  11.855 -0.5693 -1.8549 -1.4418
  162MOL0     H21823  11.381   4.800  11.777  0.1787 -0.6326  1.7090
  162MOL0     H21824  11.444   5.051  11.811  1.3255 -0.4543 -0.1497
  162MOL0     H21825  11.330   5.091  11.687 -0.8456  0.2486  2.2701
  162MOL0     H21826  11.447   4.918  11.535  1.3059 -0.4426  0.6659
  162MOL0     H21827  11.555   4.893  11.673 -0.4644 -1.4421  0.5531
  162MOL0     H21828  11.619   5.149  11.631  2.5843 -0.6728 -2.1413
  162MOL0     H21829  11.491   5.146  11.509 -1.2912 -0.9921 -0.6637
  162MOL0     H21830  11.773   5.029  11.715  2.3478  5.1770 -0.7722
  162MOL0     H21831  11.893   4.979  11.876 -0.8917 -1.9686  0.8835
  162MOL0     H21832  11.979   4.827  11.863 -0.7164  0.8569  3.7132
  162MOL0     H21833  12.069   4.967  11.848 -1.5473 -0.6024  1.0478
  162MOL0     H21834  12.389   4.711  11.333 -0.0315  1.4591 -0.0180
  162MOL0     H21835  12.621   4.588  11.350 -2.9591 -1.5919 -0.6034
  162MOL0     H21836  12.797   4.445  11.440 -0.7393 -0.2928 -0.1435
  162MOL0     H21837  12.857   4.611  11.393  0.4854 -1.9634 -0.5938
  162MOL0     H21838  13.018   4.588  11.609  1.6310 -1.7226  0.8891
  162MOL0     H21839  12.981   4.422  11.595  0.8248  1.6853  0.8658
  162MOL0     H21840  13.102   4.604  11.386 -0.1607 -1.9703 -2.6246
  162MOL0     H21841  13.048   4.445  11.342 -2.7526  2.9233 -0.3448
  162MOL0     H21842  13.243   4.508  11.579 -3.6378  1.4756 -0.5054
  162MOL0     H21843  13.239   4.352  11.489 -3.3538 -1.8271 -0.0583
  162MOL0     H21844  13.326   4.621  11.379  0.2297  0.4544  1.9488
  162MOL0     H21845  13.326   4.465  11.294 -3.0410 -1.1691  1.2516
  162MOL0     H21846  13.554   4.553  11.376 -1.1926 -0.9331 -2.0716
  162MOL0     H21847  13.502   4.518  11.544 -0.7104 -2.4015  1.5111
  162MOL0     H21848  13.498   4.297  11.323 -0.6230 -0.0458  0.4706
  162MOL0     H21849  13.468   4.281  11.489  2.3413 -0.5933  1.7948
  162MOL0     H21850  13.705   4.217  11.420  0.5935 -0.0504  1.0694
  162MOL0     H21851  13.700   4.331  11.546 -3.2371 -2.2935  0.9360
  162MOL0     H21852  12.634   4.752  11.754  0.7017 -1.1577 -0.0125
  162MOL0     H21853  12.439   4.843  11.740  2.5374 -0.6752  2.3192
  162MOL0     H21854  12.076   4.882  11.348 -0.9448 -1.7056  0.0746
  162MOL0     H21855  11.857   4.971  11.299  1.0301 -5.7189 -2.1043
  162MOL0     H21856  11.088   4.241  10.544 -0.9849 -1.0504 -1.3572
  162MOL0     H21857  11.127   4.080  10.385  0.3107 -0.7809 -1.5580
  162MOL0     H21858  10.968   3.612  10.273  1.3207  1.3832 -0.5225
  162MOL0     H21859  10.945   3.461  10.086  0.3665 -1.5870 -0.6628
  162MOL0     H21860  11.249   3.453   9.775  0.8906 -0.8694 -0.5173
  162MOL0     H21861  11.282   3.322   9.895 -0.8990  1.1945 -0.1878
  162MOL0     H21862  11.230   3.235   9.659 -0.3587  1.7512 -0.5108
  162MOL0     H21863  11.082   3.317   9.668  1.3628 -1.1237 -1.0371
  162MOL0     H21864  11.066   3.134   9.882  2.3048  2.7904  1.4525
  162MOL0     H21865  11.209   3.071   9.809  0.1767 -1.3578  1.0317
  162MOL0     H21866  11.098   3.044   9.593 -0.7876  0.4927 -0.0896
  162MOL0     H21867  10.943   3.087   9.657 -0.6633 -3.0982 -1.1400
  162MOL0     H21868  11.019   2.686   9.807 -3.2615 -0.9308 -0.5183
  162MOL0     H21869  11.346   3.539   9.979 -2.0161  1.8263 -2.9756
  162MOL0     H21870  11.363   3.696  10.165 -0.5047  1.5333  3.8892
  163MOL0     O21871   5.208   2.661   7.638 -0.3263  0.4937 -0.2778
  163MOL0     C21872   5.103   2.715   7.667  0.0273  0.0437 -1.1939
  163MOL0     O21873   4.985   2.658   7.647 -0.4775  0.3136  0.0247
  163MOL0     C21874   4.970   2.548   7.577 -0.4100 -0.8320  0.5556
  163MOL0     C21875   5.019   2.545   7.443  0.4231  0.3502  0.0976
  163MOL0     C21876   4.987   2.428   7.364 -0.8061  0.0366 -0.4929
  163MOL0     C21877   4.922   2.320   7.428  0.1278  0.6709 -0.2359
  163MOL0     O21878   4.876   2.205   7.361  0.7914 -0.0817  0.0657
  163MOL0     C21879   4.905   2.185   7.221 -0.0624 -0.1183 -0.9943
  163MOL0     C21880   4.853   2.052   7.163  0.4608  0.0466 -0.2533
  163MOL0     C21881   4.904   1.933   7.241 -0.4743  1.5529  0.1227
  163MOL0     C21882   4.784   1.873   7.324  0.3759 -0.3263  0.5871
  163MOL0     C21883   4.831   1.732   7.367  0.5163 -0.0101 -0.0778
  163MOL0     C21884   4.713   1.648   7.367 -0.8974  0.9027 -0.6736
  163MOL0     C21885   4.746   1.512   7.428 -0.5534 -0.2620 -0.4503
  163MOL0     C21886   4.624   1.418   7.442 -0.1215 -0.5617  1.0728
  163MOL0     N21887   4.656   1.306   7.529  0.0549  0.6957 -0.2718
  163MOL0     C21888   4.628   1.322   7.664 -0.1680 -0.4285 -0.2469
  163MOL0     C21889   4.688   1.212   7.718  0.9494 -0.9314  0.2060
  163MOL0     C21890   4.701   1.181   7.863  0.2956  0.4100 -0.3005
  163MOL0     C21891   4.573   1.104   7.907 -0.0605 -0.6537 -0.1908
  163MOL0     C21892   4.606   0.950   7.916  0.4670 -0.5124  0.9269
  163MOL0     C21893   4.635   0.891   7.782 -0.0664  0.6547 -0.2563
  163MOL0     O21894   4.592   0.755   7.778 -0.0200 -0.3997  0.2759
  163MOL0     C21895   4.632   0.666   7.686 -0.5767  1.2559  0.9350
  163MOL0     C21896   4.712   0.708   7.569 -0.1315 -0.2875  0.2957
  163MOL0     C21897   4.758   0.617   7.467 -0.2243  0.1913 -0.8867
  163MOL0     C21898   4.815   0.661   7.338 -0.4464 -1.3703  0.1057
  163MOL0     C21899   4.734   0.480   7.493  0.7051 -0.4084 -1.5345
  163MOL0     C21900   4.791   0.380   7.402 -0.2432 -0.3531  0.1010
  163MOL0     O21901   4.909   0.401   7.332  0.0237 -0.3879  0.6174
  163MOL0     C21902   4.954   0.303   7.260 -0.0696  0.5533  0.3914
  163MOL0     C21903   5.064   0.240   7.314  0.1812 -0.2095 -0.7519
  163MOL0     C21904   5.126   0.136   7.248  0.4294  0.9918  0.9755
  163MOL0     C21905   5.073   0.081   7.127  0.5271  0.0844  0.0061
  163MOL0     O21906   5.132  -0.003   7.050 -0.1681  0.0754  0.2313
  163MOL0     C21907   5.206  -0.103   7.121 -0.2454 -0.6602 -0.1377
  163MOL0     C21908   5.155  -0.228   7.063  0.1059  0.1511  0.7010
  163MOL0     C21909   5.202  -0.241   6.917 -0.2787  0.6846 -0.0012
  163MOL0     C21910   5.191  -0.387   6.868  0.3473 -0.0722 -0.2630
  163MOL0     C21911   5.261  -0.430   6.737 -1.5114  0.1476 -0.7298
  163MOL0     C21912   5.244  -0.571   6.694  0.7909 -0.3205  0.0536
  163MOL0     C21913   5.327  -0.627   6.571  0.5070 -0.4203  0.1943
  163MOL0     C21914   5.260  -0.601   6.443  0.4934 -0.3089 -0.3685
  163MOL0    Cl21915   5.121  -0.708   6.426 -0.1637 -0.0017  0.5523
  163MOL0     C21916   4.965   0.146   7.072  0.7498  0.1833  0.3814
  163MOL0     C21917   4.901   0.253   7.140 -0.1434 -0.3462 -0.3148
  163MOL0     O21918   4.711   0.287   7.379 -0.3521  0.7915 -0.1350
  163MOL0     C21919   4.653   0.447   7.603 -0.1335  0.0868 -0.0343
  163MOL0     C21920   4.600   0.535   7.700 -0.5536  0.0120 -0.3823
  163MOL0     N21921   4.747   1.142   7.613 -0.2752 -0.4625 -0.1708
  163MOL0     N21922   4.719   1.195   7.494  0.7376 -0.2282 -0.5175
  163MOL0     C21923   4.880   2.332   7.562  0.3043 -1.0657 -0.3682
  163MOL0     C21924   4.904   2.443   7.637 -0.3328 -0.7774  0.0625
  163MOL0     C21925   5.097   2.832   7.761 -0.2944 -0.4086  0.1970
  163MOL0     C21926   5.214   2.890   7.807  0.7592 -0.3163  0.7350
  163MOL0     C21927   5.218   2.999   7.896 -0.1267  0.4749 -0.3114
  163MOL0     C21928   5.093   3.057   7.945 -1.8609  1.5331  0.8118
  163MOL0     O21929   5.095   3.154   8.032 -0.4056  0.3703 -0.0069
  163MOL0     C21930   5.002   3.144   8.146  1.1804  0.1239 -0.5847
  163MOL0     C21931   4.972   3.279   8.232  0.6443  0.7084 -0.0466
  163MOL0     C21932   5.076   3.310   8.334  0.3819 -0.4570 -0.1684
  163MOL0     C21933   5.055   3.242   8.472  1.2870 -0.4093  0.9813
  163MOL0     C21934   5.078   3.096   8.458  1.4864 -0.5212  0.3803
  163MOL0     C21935   5.104   2.975   8.452 -0.4088 -0.6738  0.7023
  163MOL0     C21936   4.979   2.997   7.903  0.0139 -0.2823 -0.2746
  163MOL0     C21937   4.973   2.884   7.808 -0.9046 -1.2791 -0.5856
  163MOL0     H21938   5.058   2.640   7.408  0.1811  0.9816  1.4767
  163MOL0     H21939   5.004   2.428   7.256 -0.8841  2.5717 -0.5656
  163MOL0     H21940   4.859   2.273   7.176  1.0529  0.9200 -0.1617
  163MOL0     H21941   5.013   2.191   7.213 -0.1097  1.0789 -0.8898
  163MOL0     H21942   4.744   2.050   7.161  0.3965 -4.0648 -2.3674
  163MOL0     H21943   4.892   2.045   7.061 -1.0998 -0.0829 -0.8654
  163MOL0     H21944   4.910   1.851   7.169 -2.0071  1.9327 -0.4767
  163MOL0     H21945   4.993   1.956   7.301 -0.5251 -1.6822  1.6561
  163MOL0     H21946   4.757   1.931   7.413  0.5658  1.1139 -0.2585
  163MOL0     H21947   4.697   1.860   7.258  2.4149  2.1685 -2.9855
  163MOL0     H21948   4.907   1.688   7.303  1.0493 -1.3075  1.3977
  163MOL0     H21949   4.877   1.747   7.464  2.7771  1.0041 -1.2394
  163MOL0     H21950   4.631   1.694   7.423  0.2278 -1.0741  2.8962
  163MOL0     H21951   4.688   1.635   7.262  0.8829  2.8333 -1.4104
  163MOL0     H21952   4.831   1.473   7.372  1.3266  1.7044  0.8499
  163MOL0     H21953   4.785   1.535   7.527  1.6932  0.6492 -1.4608
  163MOL0     H21954   4.590   1.392   7.341  0.3218  1.3323  0.4102
  163MOL0     H21955   4.543   1.479   7.484  0.1575  1.8618 -1.6056
  163MOL0     H21956   4.572   1.403   7.709 -3.9187 -1.2546 -2.9538
  163MOL0     H21957   4.795   1.130   7.888 -0.3145 -0.8156 -0.4123
  163MOL0     H21958   4.721   1.276   7.913  0.8707  0.0568  0.1648
  163MOL0     H21959   4.491   1.114   7.835 -0.3296  0.5760  0.2620
  163MOL0     H21960   4.547   1.147   8.004  1.1150 -2.2242  0.8659
  163MOL0     H21961   4.518   0.891   7.945  1.1463 -2.4044 -0.6690
  163MOL0     H21962   4.686   0.936   7.988 -0.5282  0.2554  2.2346
  163MOL0     H21963   4.743   0.893   7.765  0.6508 -1.6921  2.9522
  163MOL0     H21964   4.572   0.943   7.711 -1.5044 -0.3283  0.2591
  163MOL0     H21965   4.733   0.813   7.555  0.0202 -0.5395 -1.6909
  163MOL0     H21966   4.763   0.756   7.324  3.8994  0.9201 -2.9540
  163MOL0     H21967   4.922   0.672   7.357  0.0338  1.0270 -3.1369
  163MOL0     H21968   4.797   0.592   7.255 -0.3076 -1.6225  0.2825
  163MOL0     H21969   5.118   0.279   7.399 -2.1747 -0.2903  0.8945
  163MOL0     H21970   5.211   0.091   7.297  0.0700 -0.0360  0.6677
  163MOL0     H21971   5.312  -0.097   7.095  0.2170 -3.0691  0.9015
  163MOL0     H21972   5.184  -0.101   7.228 -0.1775  1.0956 -0.1294
  163MOL0     H21973   5.193  -0.315   7.117  1.0581 -0.3318 -0.7150
  163MOL0     H21974   5.046  -0.234   7.076 -0.4862 -1.4406 -3.5218
  163MOL0     H21975   5.307  -0.210   6.911  0.2904 -1.2666 -0.5827
  163MOL0     H21976   5.140  -0.173   6.857 -2.8018 -0.9433  0.6443
  163MOL0     H21977   5.219  -0.456   6.947 -0.6152  0.2585  0.3837
  163MOL0     H21978   5.086  -0.412   6.847  0.6368 -3.0874  1.4426
  163MOL0     H21979   5.366  -0.402   6.751 -0.7593 -1.2189 -3.1067
  163MOL0     H21980   5.217  -0.358   6.668 -0.0802  0.2193 -1.6120
  163MOL0     H21981   5.289  -0.634   6.771  1.8540  2.8114  2.1848
  163MOL0     H21982   5.139  -0.599   6.684 -0.2065  3.2381 -0.4410
  163MOL0     H21983   5.361  -0.729   6.589 -3.2042 -1.4490  2.5361
  163MOL0     H21984   5.422  -0.572   6.571  0.9217 -1.1149 -0.4127
  163MOL0     H21985   5.326  -0.615   6.357  0.2626  1.5581 -0.9057
  163MOL0     H21986   5.209  -0.504   6.442 -1.3493 -1.2366 -1.2735
  163MOL0     H21987   4.911   0.123   6.981  0.1037  2.1537  0.2203
  163MOL0     H21988   4.810   0.295   7.097  2.0429  0.2218 -5.1038
  163MOL0     H21989   4.632   0.342   7.621  0.2027 -0.1363 -0.8948
  163MOL0     H21990   4.547   0.503   7.789  2.8085  0.5939  2.0515
  163MOL0     H21991   4.842   2.240   7.605 -0.8004  0.4920  2.1784
  163MOL0     H21992   4.871   2.467   7.737  1.4390  1.0079  0.2897
  163MOL0     H21993   5.309   2.858   7.765  1.7485  3.1953 -0.0325
  163MOL0     H21994   5.311   3.044   7.928  0.9658 -1.9774  0.2409
  163MOL0     H21995   4.901   3.110   8.120  0.7675  1.0142 -0.1825
  163MOL0     H21996   5.046   3.064   8.206  1.1078 -0.9112 -1.8601
  163MOL0     H21997   4.875   3.259   8.278  0.9298  1.4092  0.8780
  163MOL0     H21998   4.960   3.370   8.172  2.6676  2.2827  1.7990
  163MOL0     H21999   5.081   3.418   8.348 -1.9699 -0.2317 -0.7299
  163MOL0     H22000   5.174   3.280   8.294 -0.6124 -0.6269 -2.6373
  163MOL0     H22001   4.956   3.247   8.517  0.4786 -2.5164 -0.4256
  163MOL0     H22002   5.136   3.276   8.537  0.8336  1.6521  0.5350
  163MOL0     H22003   5.140   2.875   8.441 -1.0444 -1.1391  2.5010
  163MOL0     H22004   4.880   3.035   7.923 -0.4637 -0.9672 -1.2296
  163MOL0     H22005   4.879   2.831   7.798 -0.5406 -2.4288  1.4892
  164MOL0     O22006   6.262   5.710  11.511 -0.2232  0.0646  0.1328
  164MOL0     C22007   6.245   5.667  11.621  0.6098 -0.4914  0.1981
  164MOL0     O22008   6.341   5.656  11.721  0.0248 -0.8057 -0.1232
  164MOL0     C22009   6.462   5.717  11.703  0.7770 -0.7189  0.5457
  164MOL0     C22010   6.574   5.651  11.743  0.3921 -0.1242  0.0176
  164MOL0     C22011   6.699   5.712  11.737 -0.0069  0.4300  0.3588
  164MOL0     C22012   6.722   5.840  11.677 -0.2105  0.9926  0.6118
  164MOL0     O22013   6.852   5.871  11.656  0.0306  0.7462 -0.6945
  164MOL0     C22014   6.884   6.011  11.665  0.2314  0.6498 -0.0581
  164MOL0     C22015   7.031   6.012  11.664  0.1569 -0.5581 -0.4137
  164MOL0     C22016   7.096   5.927  11.544 -0.5548 -0.7495 -0.4879
  164MOL0     C22017   7.174   6.035  11.463 -0.4537 -0.0081 -0.7965
  164MOL0     C22018   7.237   5.966  11.345 -0.1092  0.7758 -0.6759
  164MOL0     C22019   7.384   6.031  11.314 -0.2573 -0.1891  0.0835
  164MOL0     C22020   7.389   6.177  11.239 -0.1659 -0.8896  0.3770
  164MOL0     C22021   7.535   6.198  11.191 -0.4748 -0.1466 -1.2950
  164MOL0     N22022   7.541   6.322  11.116 -0.0206 -0.0131 -0.2133
  164MOL0     C22023   7.489   6.346  10.987  1.1171 -0.3474 -0.0629
  164MOL0     C22024   7.467   6.485  10.982 -0.1836  0.2644  0.4832
  164MOL0     C22025   7.409   6.565  10.867  0.7365  0.2905 -0.0213
  164MOL0     C22026   7.258   6.535  10.858  0.8348 -0.4187  0.2748
  164MOL0     C22027   7.212   6.531  10.714  0.2499 -0.3054 -0.3647
  164MOL0     C22028   7.269   6.419  10.635  0.9368 -1.4406  0.3418
  164MOL0     O22029   7.267   6.295  10.719  0.3537 -0.2059  0.7788
  164MOL0     C22030   7.161   6.212  10.699  1.1736 -0.7055 -0.2239
  164MOL0     C22031   7.176   6.084  10.753 -0.9698  0.3048 -0.2213
  164MOL0     C22032   7.103   5.971  10.714  0.4124 -1.1539 -0.3638
  164MOL0     C22033   7.158   5.836  10.763  1.7024 -0.3802 -0.4170
  164MOL0     C22034   6.992   5.989  10.633  0.3658 -0.6254  0.6768
  164MOL0     C22035   6.905   5.876  10.583 -1.7374 -0.3133 -0.1065
  164MOL0     O22036   6.944   5.748  10.609 -0.0904 -0.2269 -0.1573
  164MOL0     C22037   6.877   5.633  10.557  0.3303 -0.7255 -0.1516
  164MOL0     C22038   6.812   5.627  10.437  0.5003 -0.3327  0.0622
  164MOL0     C22039   6.767   5.498  10.402  0.2382  0.0183 -0.4194
  164MOL0     C22040   6.777   5.383  10.478  0.0806  0.0910 -0.9438
  164MOL0     O22041   6.735   5.266  10.430 -0.5065  0.2421 -0.2504
  164MOL0     C22042   6.811   5.158  10.480 -0.3369  0.2890  0.4392
  164MOL0     C22043   6.770   5.035  10.400 -0.6796 -1.0036 -0.0361
  164MOL0     C22044   6.632   4.988  10.447 -0.1468  0.1666  0.8290
  164MOL0     C22045   6.602   4.853  10.378 -0.4655 -0.2795  0.0620
  164MOL0     C22046   6.474   4.790  10.430 -1.1928 -0.9740 -0.0625
  164MOL0     C22047   6.447   4.655  10.366  1.2762 -0.0743 -0.1422
  164MOL0     C22048   6.525   4.550  10.442  0.0546 -0.2793  0.0296
  164MOL0     C22049   6.497   4.420  10.385 -0.4261 -0.3843 -1.0528
  164MOL0    Cl22050   6.590   4.299  10.488  0.1940  0.4173 -0.0708
  164MOL0     C22051   6.819   5.403  10.610 -0.4126  0.2400  0.4127
  164MOL0     C22052   6.884   5.525  10.648  0.3367  0.0144  1.1860
  164MOL0     O22053   6.808   5.911  10.511  0.4530 -0.6017  0.1549
  164MOL0     C22054   6.961   6.119  10.584  0.9024 -0.5643 -0.0871
  164MOL0     C22055   7.051   6.228  10.617  0.0469  0.6291 -0.2371
  164MOL0     N22056   7.530   6.548  11.091  0.1834 -0.0458  0.4719
  164MOL0     N22057   7.561   6.446  11.168  0.1632 -0.0454 -0.2516
  164MOL0     C22058   6.608   5.912  11.648 -0.6253 -0.0077 -0.3984
  164MOL0     C22059   6.483   5.853  11.659 -0.8264 -0.9116  0.0516
  164MOL0     C22060   6.098   5.647  11.655 -0.3604  0.6424  0.7671
  164MOL0     C22061   5.998   5.655  11.555  0.0702 -1.4530  0.6787
  164MOL0     C22062   5.871   5.664  11.584  0.2222 -0.4355  0.4082
  164MOL0     C22063   5.837   5.629  11.711 -0.0201  0.4671 -0.8084
  164MOL0     O22064   5.711   5.618  11.749 -0.2149  0.7700  0.1452
  164MOL0     C22065   5.672   5.496  11.803  0.5932  0.1884 -0.0851
  164MOL0     C22066   5.522   5.471  11.796 -0.1361 -0.1314 -0.0504
  164MOL0     C22067   5.492   5.318  11.773  0.2503 -0.8108 -0.3289
  164MOL0     C22068   5.529   5.252  11.643 -0.2259  1.0934 -0.2881
  164MOL0     C22069   5.428   5.293  11.543  0.1773 -0.1913  0.0102
  164MOL0     C22070   5.332   5.320  11.476  0.0199  0.4136 -0.1505
  164MOL0     C22071   5.929   5.613  11.815  0.4676 -0.3485  0.0326
  164MOL0     C22072   6.063   5.633  11.786  0.6073  0.0234 -0.4641
  164MOL0     H22073   6.561   5.546  11.768  0.0613 -0.0453  0.1907
  164MOL0     H22074   6.783   5.652  11.772  0.1439  0.8343  0.6906
  164MOL0     H22075   6.847   6.054  11.572 -0.5654  2.3377  0.9823
  164MOL0     H22076   6.844   6.064  11.753 -1.5938 -0.1489 -0.3545
  164MOL0     H22077   7.076   6.112  11.669 -0.0441 -0.4818 -0.0327
  164MOL0     H22078   7.061   5.963  11.757  2.6478 -1.6671 -1.7222
  164MOL0     H22079   7.168   5.851  11.576 -0.6195  0.2689  2.3195
  164MOL0     H22080   7.025   5.861  11.493 -1.0427  0.0365 -0.8412
  164MOL0     H22081   7.111   6.118  11.429  1.5152  2.0314  0.2509
  164MOL0     H22082   7.252   6.084  11.524  1.4731 -1.2655 -2.1346
  164MOL0     H22083   7.246   5.857  11.353 -0.3671  0.6516 -1.9155
  164MOL0     H22084   7.176   5.977  11.255 -2.2694 -1.5579  0.3780
  164MOL0     H22085   7.443   6.030  11.406  0.1532 -0.4200 -0.1768
  164MOL0     H22086   7.417   5.960  11.237 -2.4085 -1.0736 -0.0980
  164MOL0     H22087   7.336   6.195  11.146  4.4408  0.6439 -2.2905
  164MOL0     H22088   7.364   6.257  11.308 -1.0263 -1.1191  0.3384
  164MOL0     H22089   7.578   6.115  11.134  2.2756  0.0648  0.3010
  164MOL0     H22090   7.598   6.211  11.280 -0.2102 -2.7518 -1.0144
  164MOL0     H22091   7.460   6.275  10.909  1.5214  1.5834 -2.0593
  164MOL0     H22092   7.429   6.672  10.880  1.8721 -0.0362  1.1530
  164MOL0     H22093   7.465   6.556  10.773  0.1304  1.9963 -0.5986
  164MOL0     H22094   7.216   6.619  10.913  1.5000  0.2620 -0.2433
  164MOL0     H22095   7.219   6.455  10.922  1.2590  1.6393  3.2806
  164MOL0     H22096   7.244   6.621  10.660  1.6128 -1.0624 -0.8500
  164MOL0     H22097   7.103   6.534  10.713  0.2555  1.9795 -0.2428
  164MOL0     H22098   7.373   6.446  10.611  0.1162  0.9474 -0.9058
  164MOL0     H22099   7.222   6.417  10.536 -0.2478  3.9868  0.4821
  164MOL0     H22100   7.264   6.074  10.816 -0.1151 -0.8337 -1.5365
  164MOL0     H22101   7.250   5.848  10.821  0.3121 -2.6490  2.4967
  164MOL0     H22102   7.078   5.787  10.819  0.9304 -1.1023 -2.0839
  164MOL0     H22103   7.187   5.784  10.671  0.9124  0.2455 -1.0374
  164MOL0     H22104   6.805   5.712  10.369 -0.0000  0.1579  0.7083
  164MOL0     H22105   6.719   5.467  10.309  1.1428 -2.2323 -0.2014
  164MOL0     H22106   6.917   5.186  10.479 -0.1264 -0.4897  0.5021
  164MOL0     H22107   6.787   5.150  10.586 -2.4396  0.9158  0.0579
  164MOL0     H22108   6.768   5.059  10.293  0.0431 -0.9725 -0.0466
  164MOL0     H22109   6.843   4.954  10.410 -0.3562 -0.7091  0.0145
  164MOL0     H22110   6.558   5.058  10.406  1.2145  0.0392 -2.0880
  164MOL0     H22111   6.608   4.984  10.554 -3.4285 -0.4882  0.1900
  164MOL0     H22112   6.591   4.881  10.273 -0.7284  0.3899  0.2595
  164MOL0     H22113   6.685   4.783  10.392  0.0096  0.0364 -1.0294
  164MOL0     H22114   6.382   4.844  10.406 -1.3889 -0.4621  1.6652
  164MOL0     H22115   6.493   4.787  10.538  1.4352  1.8688 -0.2893
  164MOL0     H22116   6.341   4.634  10.384  1.6944 -1.2214  1.2154
  164MOL0     H22117   6.480   4.656  10.262  2.8138 -0.0409  0.3251
  164MOL0     H22118   6.497   4.555  10.547  1.4367  2.6600  0.3599
  164MOL0     H22119   6.633   4.558  10.429 -0.0214 -1.3485 -1.6179
  164MOL0     H22120   6.524   4.426  10.280  0.5169  2.9770 -0.7215
  164MOL0     H22121   6.390   4.399  10.394 -1.0773  2.3945 -1.5027
  164MOL0     H22122   6.828   5.332  10.691 -0.4453 -1.1886 -0.7976
  164MOL0     H22123   6.912   5.544  10.751  1.3914  5.0882  0.2213
  164MOL0     H22124   6.884   6.135  10.510  1.8101 -0.6487 -1.0826
  164MOL0     H22125   7.041   6.322  10.564  1.2685 -1.1472 -3.9802
  164MOL0     H22126   6.616   6.010  11.601 -1.2237  2.2431  3.6502
  164MOL0     H22127   6.403   5.923  11.636 -2.6032 -1.7283  3.2225
  164MOL0     H22128   6.009   5.677  11.449  1.5927  2.9566  1.5105
  164MOL0     H22129   5.793   5.660  11.508 -3.3226 -1.1066  3.7817
  164MOL0     H22130   5.727   5.419  11.747  1.0078 -0.0344  0.6034
  164MOL0     H22131   5.712   5.495  11.905  0.2155 -0.6379  0.0621
  164MOL0     H22132   5.466   5.514  11.712 -0.4393  0.7613  0.5986
  164MOL0     H22133   5.485   5.497  11.895  2.9948  0.3569  1.0959
  164MOL0     H22134   5.390   5.290  11.802 -0.7597  1.4896 -1.4049
  164MOL0     H22135   5.545   5.275  11.859 -1.5258 -0.8275  0.8127
  164MOL0     H22136   5.535   5.144  11.658 -2.1011  1.2441  2.1794
  164MOL0     H22137   5.627   5.283  11.605 -0.2746 -0.5272 -1.9033
  164MOL0     H22138   5.247   5.351  11.419  0.0602 -2.6623 -2.0954
  164MOL0     H22139   5.905   5.592  11.919 -0.3211 -1.8220 -0.4224
  164MOL0     H22140   6.140   5.627  11.863 -0.0276 -1.3201  0.0960
  165MOL0     O22141   7.075  10.248   0.702  0.4555 -0.0183 -0.5861
  165MOL0     C22142   7.050  10.242   0.582  0.4622 -0.6022  0.1169
  165MOL0     O22143   7.004  10.342   0.498 -0.0165 -0.4802 -0.0950
  165MOL0     C22144   6.939  10.443   0.561 -0.1371 -0.9925  1.1034
  165MOL0     C22145   7.009  10.550   0.635 -0.0466  0.1087 -0.4883
  165MOL0     C22146   6.933  10.650   0.699 -0.0812 -0.6995 -0.4002
  165MOL0     C22147   6.798  10.642   0.704  0.0623  0.4772  0.2005
  165MOL0     O22148   6.734  10.739   0.780  0.5176  0.8151 -0.6055
  165MOL0     C22149   6.634  10.818   0.711  0.9834 -0.6632 -0.6102
  165MOL0     C22150   6.591  10.943   0.796  0.4939 -0.2798  0.3967
  165MOL0     C22151   6.483  11.029   0.724  0.2512 -1.0069  0.0188
  165MOL0     C22152   6.453  11.152   0.824  0.2163  0.5759  0.3524
  165MOL0     C22153   6.558  11.257   0.833 -0.4758  0.2250 -0.2468
  165MOL0     C22154   6.570  11.355   0.715 -0.3846  0.3466 -0.0460
  165MOL0     C22155   6.678  11.461   0.728 -0.7623  0.0604  0.0066
  165MOL0     C22156   6.654  11.559   0.849 -0.4363 -0.6131  0.3916
  165MOL0     N22157   6.665  11.693   0.802 -0.0940  0.9957  0.6198
  165MOL0     C22158   6.782  11.747   0.756 -0.5977  0.7725 -0.0193
  165MOL0     C22159   6.757  11.880   0.739 -1.2932 -0.2568 -0.3427
  165MOL0     C22160   6.843  11.983   0.686  0.8321  0.0121 -0.8565
  165MOL0     C22161   6.815  12.122   0.754 -0.8489  0.3906  0.0993
  165MOL0     C22162   6.889  12.231   0.698  0.6267  0.4462  0.2051
  165MOL0     C22163   6.866  12.363   0.762  0.4391  0.5928 -0.4224
  165MOL0     O22164   6.964  12.381   0.867  0.1225 -0.1465 -0.2557
  165MOL0     C22165   7.007  12.511   0.894  0.1041 -0.9487  0.2305
  165MOL0     C22166   7.138  12.547   0.904 -0.4747  0.4790  0.1938
  165MOL0     C22167   7.179  12.678   0.922  0.1277 -1.4662  0.6100
  165MOL0     C22168   7.331  12.707   0.901  0.1788 -1.1554  0.1076
  165MOL0     C22169   7.078  12.791   0.939 -0.1018  0.8897  0.4683
  165MOL0     C22170   7.115  12.930   0.967  0.4957 -0.5438  1.1238
  165MOL0     O22171   7.029  13.032   0.911 -0.5033  0.7768 -0.4302
  165MOL0     C22172   7.088  13.153   0.885 -0.3063  1.1153 -1.0655
  165MOL0     C22173   7.066  13.201   0.750 -0.5102  0.3462  0.6197
  165MOL0     C22174   7.111  13.327   0.714  0.2355 -0.5366 -0.3009
  165MOL0     C22175   7.182  13.411   0.795  0.2892 -0.0336  0.1373
  165MOL0     O22176   7.253  13.511   0.733 -0.6554 -0.4809  0.3260
  165MOL0     C22177   7.362  13.559   0.811  0.0491  0.0692 -0.2925
  165MOL0     C22178   7.332  13.661   0.922 -0.0246 -0.4963  0.6616
  165MOL0     C22179   7.387  13.802   0.883  0.3461  0.8651  0.0360
  165MOL0     C22180   7.384  13.889   1.006 -0.3380  0.0656 -0.6120
  165MOL0     C22181   7.378  14.041   0.974  0.9688  0.8941 -0.5799
  165MOL0     C22182   7.359  14.126   1.100  0.3956  0.2794  0.2061
  165MOL0     C22183   7.358  14.274   1.062 -0.3388  1.0201 -0.6681
  165MOL0     C22184   7.352  14.371   1.188 -1.3732  0.2224  0.0755
  165MOL0    Cl22185   7.512  14.350   1.279  0.2375  0.2517  0.3944
  165MOL0     C22186   7.193  13.376   0.930  0.3022  0.1562 -0.1348
  165MOL0     C22187   7.147  13.252   0.973 -0.5343  0.1680 -0.8126
  165MOL0     O22188   7.219  12.951   1.032 -0.1105 -0.3989 -0.0017
  165MOL0     C22189   6.946  12.756   0.901 -0.3263  1.3428 -0.1771
  165MOL0     C22190   6.910  12.614   0.895 -0.4727 -0.5953 -0.4031
  165MOL0     N22191   6.620  11.899   0.770  0.4072 -0.6231 -0.3910
  165MOL0     N22192   6.568  11.787   0.810  0.4762  0.0228 -0.1501
  165MOL0     C22193   6.733  10.544   0.635 -0.5388 -0.9292 -0.6796
  165MOL0     C22194   6.798  10.444   0.561  0.5232 -0.3882  0.1382
  165MOL0     C22195   7.091  10.119   0.515  0.5646  0.2184  0.2207
  165MOL0     C22196   7.075  10.102   0.377  0.5495 -0.0553 -0.2817
  165MOL0     C22197   7.090   9.972   0.320 -0.0016 -0.6477  0.3440
  165MOL0     C22198   7.135   9.862   0.398  0.1348  1.2552  0.0825
  165MOL0     O22199   7.164   9.738   0.352  0.4517  0.2322 -0.0724
  165MOL0     C22200   7.090   9.688   0.231 -0.8514 -0.4093  0.1542
  165MOL0     C22201   6.950   9.632   0.262 -0.7663 -0.8191  0.6027
  165MOL0     C22202   6.965   9.508   0.344  1.2633 -0.2674 -0.6257
  165MOL0     C22203   6.825   9.483   0.420 -0.4745  0.2747  0.4383
  165MOL0     C22204   6.705   9.488   0.325 -0.6180 -0.6872  0.0092
  165MOL0     C22205   6.623   9.488   0.234  0.7450  0.4851 -0.4849
  165MOL0     C22206   7.166   9.886   0.531  0.5854 -0.5255  0.3961
  165MOL0     C22207   7.145  10.013   0.585  0.7264  0.1837  0.0502
  165MOL0     H22208   7.117  10.556   0.634  0.0092 -0.4832 -3.1392
  165MOL0     H22209   6.978  10.727   0.761  0.7929 -0.4182 -1.3502
  165MOL0     H22210   6.677  10.856   0.617 -0.2865  0.5973 -0.7187
  165MOL0     H22211   6.540  10.762   0.706 -0.9955  2.0341  2.4924
  165MOL0     H22212   6.556  10.911   0.894 -1.7201 -1.9538 -0.8347
  165MOL0     H22213   6.678  11.009   0.798 -0.6663  1.5996 -2.8273
  165MOL0     H22214   6.506  11.064   0.623  0.3115  0.8628  0.6446
  165MOL0     H22215   6.394  10.966   0.719  1.5212 -3.3319  3.1022
  165MOL0     H22216   6.361  11.198   0.788  1.2876  0.5437 -2.7093
  165MOL0     H22217   6.430  11.104   0.919  0.7104  0.1750  0.2744
  165MOL0     H22218   6.531  11.321   0.919 -1.1197  1.6618 -1.4717
  165MOL0     H22219   6.652  11.206   0.853 -0.4757  0.9800  2.0089
  165MOL0     H22220   6.597  11.297   0.627  0.7522  1.0155 -0.1614
  165MOL0     H22221   6.471  11.396   0.695 -0.1513  2.1628  2.0138
  165MOL0     H22222   6.765  11.395   0.731 -1.4610 -1.0425 -1.9756
  165MOL0     H22223   6.684  11.506   0.628  1.8177 -0.7459 -0.2780
  165MOL0     H22224   6.732  11.529   0.920 -1.1955 -2.0970  0.6410
  165MOL0     H22225   6.557  11.544   0.896  0.0270  2.0542  2.4271
  165MOL0     H22226   6.869  11.684   0.740 -0.4173  1.4933 -2.1674
  165MOL0     H22227   6.948  11.962   0.709  0.8518  1.6859  0.8731
  165MOL0     H22228   6.836  11.988   0.577  1.3419  1.2538 -0.8462
  165MOL0     H22229   6.835  12.104   0.860 -1.7417  0.0671  0.2188
  165MOL0     H22230   6.711  12.153   0.742 -1.7626 -1.6731  2.1395
  165MOL0     H22231   6.862  12.238   0.592 -3.4920 -2.1689  0.8685
  165MOL0     H22232   6.995  12.204   0.690  0.1757 -1.0941 -1.1850
  165MOL0     H22233   6.769  12.370   0.812  0.9338  0.0786  0.6492
  165MOL0     H22234   6.864  12.445   0.689  0.1045  3.4175  2.5028
  165MOL0     H22235   7.218  12.475   0.890 -1.1996  0.1313 -2.7754
  165MOL0     H22236   7.359  12.760   0.993 -1.1607 -1.5248  0.7424
  165MOL0     H22237   7.399  12.622   0.914  0.4769 -0.9407 -0.0295
  165MOL0     H22238   7.357  12.762   0.810  1.5561 -2.5004 -0.3659
  165MOL0     H22239   7.002  13.145   0.684  1.1871  1.7179 -2.4157
  165MOL0     H22240   7.092  13.366   0.615  0.3102 -1.3381 -0.6350
  165MOL0     H22241   7.413  13.470   0.850 -1.1678 -0.6521 -0.2920
  165MOL0     H22242   7.436  13.592   0.739  0.0701 -2.1970 -1.4124
  165MOL0     H22243   7.223  13.670   0.931 -0.1240 -1.5562  0.6230
  165MOL0     H22244   7.378  13.648   1.020 -2.9597  0.4697  2.3088
  165MOL0     H22245   7.319  13.845   0.809  0.4145 -1.2384 -1.3146
  165MOL0     H22246   7.485  13.802   0.835 -0.7881  3.3250 -2.5614
  165MOL0     H22247   7.294  13.854   1.058  0.5724 -1.0178  0.3009
  165MOL0     H22248   7.465  13.865   1.076 -1.5288 -0.7964  0.5358
  165MOL0     H22249   7.294  14.060   0.906 -0.2724 -0.7449  0.4312
  165MOL0     H22250   7.478  14.059   0.933  1.2118  0.4818 -0.1711
  165MOL0     H22251   7.268  14.093   1.151  0.0542 -0.7666 -1.0010
  165MOL0     H22252   7.440  14.090   1.164 -0.0660 -1.5459 -0.1615
  165MOL0     H22253   7.264  14.298   1.010 -3.1465 -3.1319  1.8614
  165MOL0     H22254   7.447  14.289   1.001  0.3800 -0.8589 -0.1417
  165MOL0     H22255   7.267  14.367   1.256 -0.9828 -0.4000  0.5348
  165MOL0     H22256   7.345  14.474   1.151 -0.5566  1.2808  2.6109
  165MOL0     H22257   7.248  13.436   1.001 -1.2615  1.9401 -0.3576
  165MOL0     H22258   7.166  13.228   1.077 -0.7544  2.0496 -0.3007
  165MOL0     H22259   6.866  12.827   0.887 -2.4668 -1.1331 -1.3406
  165MOL0     H22260   6.809  12.579   0.881 -0.6840 -1.0601  1.9813
  165MOL0     H22261   6.625  10.555   0.642 -0.6014 -2.2978  1.0432
  165MOL0     H22262   6.745  10.365   0.508 -0.6279  0.4813 -0.0542
  165MOL0     H22263   7.046  10.183   0.311 -1.7445 -1.1896 -0.7626
  165MOL0     H22264   7.073   9.961   0.213  0.4308  0.3216  0.1754
  165MOL0     H22265   7.085   9.758   0.148  0.3573 -0.6517 -0.1311
  165MOL0     H22266   7.148   9.609   0.185  0.3398  1.1704 -1.1501
  165MOL0     H22267   6.894   9.618   0.169  1.2235  2.0186 -1.1947
  165MOL0     H22268   6.889   9.704   0.317 -2.4311 -1.9900  0.3879
  165MOL0     H22269   7.039   9.532   0.421  0.7623  2.1798 -0.8438
  165MOL0     H22270   7.001   9.430   0.276  1.5765 -0.4622 -0.2428
  165MOL0     H22271   6.811   9.553   0.502  1.3398 -1.1686  2.0913
  165MOL0     H22272   6.830   9.379   0.452 -0.9455 -0.5001 -1.7809
  165MOL0     H22273   6.547   9.479   0.160 -2.4977 -1.0685  2.7188
  165MOL0     H22274   7.209   9.803   0.586  3.1184  0.0720 -0.5231
  165MOL0     H22275   7.148  10.015   0.694 -0.6728 -0.0523  0.1087
  166MOL0     O22276   2.066   5.544   4.413  0.6696 -0.8067  0.4473
  166MOL0     C22277   1.998   5.604   4.329 -0.4834  0.5685  0.0528
  166MOL0     O22278   1.862   5.589   4.316 -0.6700  0.6982 -0.5476
  166MOL0     C22279   1.796   5.500   4.406  0.0012 -0.1648 -0.1899
  166MOL0     C22280   1.809   5.498   4.552 -0.2243 -1.6091  0.2859
  166MOL0     C22281   1.744   5.405   4.618  0.7252  0.3454 -0.6090
  166MOL0     C22282   1.652   5.317   4.563  0.8983 -0.4261  0.0960
  166MOL0     O22283   1.572   5.230   4.638  0.1633 -0.0762 -0.5602
  166MOL0     C22284   1.514   5.118   4.576  0.3404  0.8997  1.0156
  166MOL0     C22285   1.610   5.008   4.521 -0.2892 -1.1693  0.5126
  166MOL0     C22286   1.679   4.911   4.622  0.5939 -0.0955 -0.2165
  166MOL0     C22287   1.755   4.994   4.716 -1.0403  0.3267  0.3360
  166MOL0     C22288   1.847   4.910   4.804  0.5985  0.3408 -0.1347
  166MOL0     C22289   1.770   4.815   4.890  0.4107 -0.0612 -0.4828
  166MOL0     C22290   1.854   4.774   5.013  0.6611 -0.6934  0.2210
  166MOL0     C22291   1.791   4.676   5.109 -0.0144  0.3689 -0.6497
  166MOL0     N22292   1.699   4.740   5.208 -0.3135  0.5379  0.0146
  166MOL0     C22293   1.720   4.864   5.272 -1.2732  0.0220 -0.9023
  166MOL0     C22294   1.595   4.890   5.318 -0.8914  0.1124 -0.1635
  166MOL0     C22295   1.573   5.018   5.385 -0.3241  0.5317  0.2171
  166MOL0     C22296   1.604   5.032   5.534  0.4707  0.6546 -0.9873
  166MOL0     C22297   1.627   5.187   5.558  0.7941  0.4876 -0.1055
  166MOL0     C22298   1.528   5.233   5.661  0.5752  0.1287 -1.1104
  166MOL0     O22299   1.404   5.256   5.592  0.2474 -0.4197  0.0572
  166MOL0     C22300   1.395   5.383   5.530  0.1368 -0.7030 -0.2262
  166MOL0     C22301   1.425   5.513   5.581  0.2568  1.3754 -0.1805
  166MOL0     C22302   1.414   5.626   5.512  0.1008  0.7986  0.1123
  166MOL0     C22303   1.502   5.742   5.562 -0.2752 -0.1183  0.5789
  166MOL0     C22304   1.331   5.630   5.398 -1.3422 -0.6916 -0.8474
  166MOL0     C22305   1.280   5.758   5.344  0.0428 -0.1762  1.1462
  166MOL0     O22306   1.333   5.870   5.403 -0.0395  0.2207  0.2999
  166MOL0     C22307   1.283   5.991   5.379  0.2180  0.2970  0.5014
  166MOL0     C22308   1.265   6.074   5.496  0.2812  0.0841 -0.0891
  166MOL0     C22309   1.225   6.208   5.479  0.3224  0.7282 -0.4529
  166MOL0     C22310   1.202   6.258   5.351 -0.8979 -0.4038 -0.5039
  166MOL0     O22311   1.184   6.391   5.339  0.4943  0.1535  0.4745
  166MOL0     C22312   1.074   6.433   5.269  0.2512  0.2944 -0.4239
  166MOL0     C22313   0.981   6.467   5.389 -0.0969  0.2770  1.4952
  166MOL0     C22314   0.837   6.516   5.357  0.3074  0.1045  0.3685
  166MOL0     C22315   0.783   6.556   5.496 -0.3805  0.6870 -1.0289
  166MOL0     C22316   0.643   6.599   5.481  0.5859  0.3182  0.6001
  166MOL0     C22317   0.577   6.619   5.611 -0.8116  0.1828  0.7960
  166MOL0     C22318   0.427   6.618   5.604  0.1966  1.2343 -0.3582
  166MOL0     C22319   0.346   6.555   5.721 -1.2742  0.1274  0.9236
  166MOL0    Cl22320   0.377   6.366   5.737  0.0502  0.1106  0.2970
  166MOL0     C22321   1.224   6.179   5.238 -0.5310 -0.8852  1.2774
  166MOL0     C22322   1.266   6.046   5.252 -0.6242  0.9400  0.1140
  166MOL0     O22323   1.187   5.758   5.253 -0.5036 -0.0653 -0.2534
  166MOL0     C22324   1.285   5.502   5.350  0.8212 -0.5152 -0.9862
  166MOL0     C22325   1.318   5.378   5.419 -0.0221  0.7882 -0.2699
  166MOL0     N22326   1.503   4.799   5.276 -0.2406 -0.3062 -0.6411
  166MOL0     N22327   1.569   4.707   5.211  0.5445 -0.1644  0.1991
  166MOL0     C22328   1.643   5.315   4.425  0.4375 -0.1344  0.5405
  166MOL0     C22329   1.709   5.413   4.342 -0.6627 -0.4021 -0.5203
  166MOL0     C22330   2.044   5.708   4.246 -0.0642  0.7294 -0.0962
  166MOL0     C22331   1.965   5.798   4.175 -0.0089  0.1927 -0.4581
  166MOL0     C22332   2.010   5.909   4.098  1.1050  1.7175 -1.2922
  166MOL0     C22333   2.148   5.914   4.072 -0.4529 -0.2648 -0.5961
  166MOL0     O22334   2.210   6.012   3.990  0.5928 -0.4800  0.1398
  166MOL0     C22335   2.241   6.130   4.065  0.6546 -0.2002 -0.0385
  166MOL0     C22336   2.233   6.253   3.975  0.1965  0.4285  0.6379
  166MOL0     C22337   2.312   6.365   4.025 -0.6882 -0.0850 -0.0659
  166MOL0     C22338   2.333   6.488   3.939 -0.0197  0.6298  0.7676
  166MOL0     C22339   2.418   6.582   4.018  0.8125  0.8526  0.0347
  166MOL0     C22340   2.480   6.678   4.057  0.2703 -0.6258  0.4334
  166MOL0     C22341   2.235   5.819   4.132 -0.2765 -0.3336  0.2037
  166MOL0     C22342   2.182   5.723   4.213 -0.8582 -0.6100 -0.0213
  166MOL0     H22343   1.872   5.578   4.590 -0.3832 -1.7986  0.9691
  166MOL0     H22344   1.740   5.410   4.726 -2.8863  0.3489 -0.6029
  166MOL0     H22345   1.455   5.058   4.646  0.0637 -1.7958 -1.3551
  166MOL0     H22346   1.439   5.147   4.501 -1.8875 -2.5655  1.6670
  166MOL0     H22347   1.533   4.957   4.463  0.1519 -0.7747 -0.4514
  166MOL0     H22348   1.680   5.052   4.448  0.2635 -1.2225  1.0054
  166MOL0     H22349   1.609   4.854   4.684  2.3228  0.1301  2.0852
  166MOL0     H22350   1.732   4.834   4.565  0.5576 -0.5808  0.3897
  166MOL0     H22351   1.812   5.063   4.652 -1.2223 -1.1671 -1.5413
  166MOL0     H22352   1.685   5.053   4.776 -3.7828 -3.0348  0.8037
  166MOL0     H22353   1.910   4.847   4.739  1.4390 -2.2121  2.9057
  166MOL0     H22354   1.915   4.973   4.861  2.9047 -0.8563 -1.4025
  166MOL0     H22355   1.671   4.851   4.920 -0.7323 -1.1576 -2.6183
  166MOL0     H22356   1.740   4.723   4.838 -2.3539  2.2940 -3.5156
  166MOL0     H22357   1.946   4.725   4.979  2.2270 -0.1423  3.2934
  166MOL0     H22358   1.882   4.868   5.061  1.9888 -0.0117 -1.7588
  166MOL0     H22359   1.878   4.634   5.161  1.0114 -1.8762 -3.8723
  166MOL0     H22360   1.743   4.594   5.055 -1.1790  0.1125  0.7295
  166MOL0     H22361   1.816   4.915   5.275 -1.1994 -0.1441  0.9530
  166MOL0     H22362   1.635   5.091   5.334  1.4392 -0.1795  1.2511
  166MOL0     H22363   1.473   5.058   5.366 -0.9123 -0.6554  0.6569
  166MOL0     H22364   1.690   4.971   5.566 -0.2075 -0.9430 -2.0558
  166MOL0     H22365   1.522   4.996   5.597  0.9683 -1.0306 -1.2375
  166MOL0     H22366   1.603   5.253   5.474  2.2714  0.1983 -0.7924
  166MOL0     H22367   1.728   5.205   5.597 -0.1869 -0.0462  2.9299
  166MOL0     H22368   1.566   5.319   5.716 -0.8067 -0.4732  0.8719
  166MOL0     H22369   1.513   5.161   5.742 -0.8814  2.0021  0.3584
  166MOL0     H22370   1.484   5.521   5.672 -2.0272  0.6998  1.4505
  166MOL0     H22371   1.436   5.813   5.612  0.3634 -0.6167  2.2023
  166MOL0     H22372   1.572   5.729   5.645  1.5571  1.1102 -0.6942
  166MOL0     H22373   1.558   5.782   5.477  0.7849 -1.2589  0.7060
  166MOL0     H22374   1.290   6.032   5.593  1.4036  2.7689  0.8892
  166MOL0     H22375   1.210   6.275   5.564  0.0819 -0.5204  0.5183
  166MOL0     H22376   1.100   6.518   5.206  3.2478 -0.3423 -0.1565
  166MOL0     H22377   1.033   6.362   5.197 -2.1825  1.2720 -0.1215
  166MOL0     H22378   0.978   6.379   5.454  1.1221 -0.9259 -0.0031
  166MOL0     H22379   1.035   6.542   5.448  0.2891 -0.2695  1.8475
  166MOL0     H22380   0.769   6.444   5.311  0.0339  0.7664 -0.2798
  166MOL0     H22381   0.830   6.612   5.305  0.1845 -0.7992 -1.3534
  166MOL0     H22382   0.801   6.463   5.550 -1.1841 -0.8708 -3.2878
  166MOL0     H22383   0.848   6.627   5.546  0.7763 -1.3464  0.5015
  166MOL0     H22384   0.597   6.518   5.424 -0.6165  1.8311 -0.6364
  166MOL0     H22385   0.645   6.690   5.420 -0.2622  1.8929  2.7937
  166MOL0     H22386   0.614   6.543   5.681  1.2296 -0.6797 -1.0924
  166MOL0     H22387   0.609   6.713   5.658  0.0704  0.9360 -1.2288
  166MOL0     H22388   0.399   6.567   5.512 -0.4696  1.3196 -0.2064
  166MOL0     H22389   0.391   6.721   5.590 -0.7963  0.6948 -1.9358
  166MOL0     H22390   0.241   6.576   5.696 -0.6847  4.5026  1.3147
  166MOL0     H22391   0.357   6.614   5.812 -2.2039  3.8563 -1.1528
  166MOL0     H22392   1.202   6.221   5.140 -2.3874 -0.9638  1.6337
  166MOL0     H22393   1.296   5.994   5.162 -0.5896 -0.1248  0.7260
  166MOL0     H22394   1.222   5.502   5.261 -1.2888  0.4432  0.4388
  166MOL0     H22395   1.278   5.289   5.372 -0.7396  0.3091  1.1782
  166MOL0     H22396   1.576   5.243   4.378  0.1529  0.8353 -0.6020
  166MOL0     H22397   1.701   5.400   4.234 -1.9244  1.0684 -0.6372
  166MOL0     H22398   1.857   5.793   4.181  0.0832 -1.0871  0.5964
  166MOL0     H22399   1.932   5.969   4.052  1.7622  1.9412 -2.1524
  166MOL0     H22400   2.172   6.145   4.148 -2.0606 -0.7951 -2.0693
  166MOL0     H22401   2.344   6.119   4.102  2.6166  2.8406 -3.8587
  166MOL0     H22402   2.130   6.286   3.960  0.6730  1.1863 -1.1964
  166MOL0     H22403   2.265   6.229   3.873  2.0474 -1.1924  1.5117
  166MOL0     H22404   2.410   6.322   4.049 -0.0580 -3.3830 -6.4045
  166MOL0     H22405   2.264   6.401   4.116  1.7513 -0.1334  1.3330
  166MOL0     H22406   2.239   6.539   3.917  0.0472  0.0136 -1.0894
  166MOL0     H22407   2.375   6.454   3.844  1.5828 -0.8957  1.9549
  166MOL0     H22408   2.548   6.757   4.084 -0.4305  0.2918 -0.4163
  166MOL0     H22409   2.343   5.828   4.123 -0.3757 -0.1972 -0.9625
  166MOL0     H22410   2.252   5.645   4.241  0.6159  0.1812 -1.3499
  167MOL0     O22411   3.692   3.877  11.420 -0.1322  0.1567  0.0203
  167MOL0     C22412   3.599   3.834  11.356  1.0480  0.0124 -0.1897
  167MOL0     O22413   3.482   3.781  11.405  0.1653  0.2762 -0.7090
  167MOL0     C22414   3.488   3.758  11.546  0.9877  0.6860  0.5231
  167MOL0     C22415   3.578   3.678  11.612 -0.3431 -0.4429  1.0030
  167MOL0     C22416   3.548   3.626  11.740 -0.6092 -0.4001  0.9590
  167MOL0     C22417   3.441   3.690  11.813  0.2805  1.0136  0.0964
  167MOL0     O22418   3.425   3.628  11.937  0.4453  0.3889 -0.4027
  167MOL0     C22419   3.394   3.725  12.047  0.0275 -0.0974 -0.3049
  167MOL0     C22420   3.251   3.738  12.105 -0.5433 -0.4465  0.1758
  167MOL0     C22421   3.224   3.599  12.170  0.4278 -0.3385 -0.9206
  167MOL0     C22422   3.108   3.606  12.266  0.1760 -0.4131  0.0004
  167MOL0     C22423   3.114   3.521  12.395 -0.1963 -0.7875  0.6975
  167MOL0     C22424   3.001   3.552  12.489 -0.1826 -0.2759 -0.6541
  167MOL0     C22425   3.029   3.492  12.639  0.0992  0.0261 -0.1736
  167MOL0     C22426   2.907   3.504  12.725 -0.4005  0.1275 -0.3225
  167MOL0     N22427   2.927   3.414  12.843 -0.3048  0.6888  0.0062
  167MOL0     C22428   2.871   3.286  12.863  0.1289  0.2534 -0.9108
  167MOL0     C22429   2.879   3.260  12.998  1.2122  0.7563  0.3946
  167MOL0     C22430   2.841   3.137  13.061 -1.0125  0.4860 -0.2361
  167MOL0     C22431   2.972   3.034  13.056 -0.6602 -0.0019  0.6177
  167MOL0     C22432   2.912   2.915  13.130  0.6639 -0.0962 -0.4784
  167MOL0     C22433   2.993   2.789  13.092  0.9972 -0.0153  0.1306
  167MOL0     O22434   3.133   2.799  13.076 -0.0783 -0.3341  0.9093
  167MOL0     C22435   3.213   2.795  13.194  0.5888  0.0022  0.8918
  167MOL0     C22436   3.165   2.773  13.320  0.0512 -0.8665  0.6309
  167MOL0     C22437   3.238   2.757  13.436  0.1432  0.0644  0.9976
  167MOL0     C22438   3.158   2.735  13.572 -0.5329 -0.1572  0.1117
  167MOL0     C22439   3.377   2.772  13.431  0.7317 -0.7799  0.9030
  167MOL0     C22440   3.480   2.758  13.531  0.5637 -0.1350 -0.1530
  167MOL0     O22441   3.586   2.673  13.499  0.2582  0.0324 -0.8743
  167MOL0     C22442   3.672   2.629  13.602  0.2630  0.0876 -0.5062
  167MOL0     C22443   3.793   2.696  13.616 -1.2981 -0.5216  0.4425
  167MOL0     C22444   3.873   2.661  13.727 -0.2828  0.2012  0.6748
  167MOL0     C22445   3.853   2.545  13.801 -0.7094 -0.5032  0.0631
  167MOL0     O22446   3.938   2.485  13.900  0.2179  0.5174 -0.4198
  167MOL0     C22447   4.018   2.575  13.965  0.0977 -0.2142  0.1281
  167MOL0     C22448   4.156   2.606  13.896  0.7464 -0.4164 -0.4890
  167MOL0     C22449   4.260   2.623  14.006 -0.2756  0.4141  0.3119
  167MOL0     C22450   4.354   2.737  13.964 -0.2633  0.1922  0.2328
  167MOL0     C22451   4.451   2.774  14.066  0.0910  0.7518  0.4036
  167MOL0     C22452   4.564   2.662  14.096 -0.3038  0.5991 -0.4461
  167MOL0     C22453   4.607   2.687  14.243 -0.4529  0.4688  0.5141
  167MOL0     C22454   4.531   2.593  14.334 -0.5488  0.0943  0.6002
  167MOL0    Cl22455   4.627   2.441  14.348  0.3378 -0.0011  0.4157
  167MOL0     C22456   3.738   2.470  13.771  1.1254  0.1694 -1.6141
  167MOL0     C22457   3.646   2.512  13.676  0.7185 -0.2570  1.0982
  167MOL0     O22458   3.454   2.779  13.649 -0.2670  0.3985 -0.9340
  167MOL0     C22459   3.432   2.789  13.297  0.2934  0.5321 -0.4653
  167MOL0     C22460   3.351   2.800  13.184 -1.3115  0.0233 -0.2762
  167MOL0     N22461   2.925   3.372  13.067  0.5592 -0.8135  0.2563
  167MOL0     N22462   2.963   3.456  12.970 -0.5177  0.3652  0.6648
  167MOL0     C22463   3.357   3.781  11.747 -0.6482  0.1662 -0.0420
  167MOL0     C22464   3.389   3.826  11.620  0.3732  0.0382  0.2662
  167MOL0     C22465   3.603   3.828  11.210  0.2593  0.2729 -0.5845
  167MOL0     C22466   3.677   3.926  11.125  0.1464 -0.0887 -0.2003
  167MOL0     C22467   3.654   3.933  10.987  0.0540 -0.2200  0.1352
  167MOL0     C22468   3.566   3.852  10.914 -0.2205  0.6692  0.1187
  167MOL0     O22469   3.540   3.851  10.775  0.0356  0.0389 -0.0100
  167MOL0     C22470   3.604   3.954  10.696  0.3755 -0.4400 -0.2725
  167MOL0     C22471   3.519   4.084  10.712  0.8515  0.3987 -0.9209
  167MOL0     C22472   3.368   4.058  10.715  0.1212 -0.8727  0.4045
  167MOL0     C22473   3.298   4.180  10.661 -0.0380  0.8036  1.0269
  167MOL0     C22474   3.312   4.302  10.749 -0.2506  0.9333  0.9894
  167MOL0     C22475   3.290   4.412  10.796 -0.3255  0.8105  1.1130
  167MOL0     C22476   3.513   3.745  10.986  0.6242 -0.8706  0.3804
  167MOL0     C22477   3.521   3.737  11.129 -0.8637 -0.7616  0.1729
  167MOL0     H22478   3.661   3.635  11.557  1.9414  3.2723  1.1741
  167MOL0     H22479   3.600   3.545  11.789 -1.8196 -1.6620  0.2396
  167MOL0     H22480   3.462   3.702  12.129  0.6801 -1.5983 -1.2341
  167MOL0     H22481   3.418   3.829  12.024  2.0089  0.1680  2.4410
  167MOL0     H22482   3.245   3.813  12.184 -2.2002  0.6737 -0.9737
  167MOL0     H22483   3.184   3.756  12.021  1.0400  0.4169 -0.9639
  167MOL0     H22484   3.204   3.526  12.091 -3.5370 -0.1914 -0.2674
  167MOL0     H22485   3.307   3.567  12.233 -0.3503  0.6169  0.6362
  167MOL0     H22486   3.089   3.706  12.307  0.0484 -1.6735  3.2760
  167MOL0     H22487   3.022   3.573  12.206 -0.9255 -2.9392  2.7197
  167MOL0     H22488   3.105   3.414  12.374  4.1625 -1.3790  0.9388
  167MOL0     H22489   3.211   3.541  12.442  0.0616 -1.2380  0.3564
  167MOL0     H22490   2.987   3.660  12.500  1.2162 -0.0944 -0.4216
  167MOL0     H22491   2.908   3.510  12.451 -0.7436 -0.0343  0.4152
  167MOL0     H22492   3.058   3.389  12.619  1.5362  0.2125  0.7530
  167MOL0     H22493   3.117   3.535  12.687 -0.1445  1.3576 -0.8745
  167MOL0     H22494   2.814   3.475  12.673 -0.9101 -1.7656  1.5068
  167MOL0     H22495   2.902   3.607  12.762 -5.9807 -0.1288  0.5270
  167MOL0     H22496   2.836   3.224  12.780 -0.0582  0.9426 -1.3593
  167MOL0     H22497   2.824   3.158  13.166  3.0789  1.5533  0.4027
  167MOL0     H22498   2.763   3.076  13.014  0.3538 -2.1037  0.6697
  167MOL0     H22499   3.059   3.070  13.112 -1.5754 -2.6762  4.0684
  167MOL0     H22500   3.005   3.016  12.953 -0.4471  0.8531  0.5281
  167MOL0     H22501   2.805   2.895  13.113  0.3799 -0.2838  1.3364
  167MOL0     H22502   2.925   2.925  13.238 -1.7077  1.2252 -0.2430
  167MOL0     H22503   2.951   2.769  12.992  0.2089  1.9643  0.0196
  167MOL0     H22504   2.965   2.703  13.153  0.1955 -0.2416 -0.5363
  167MOL0     H22505   3.062   2.769  13.353 -0.0496  1.0143  0.6723
  167MOL0     H22506   3.064   2.682  13.556 -0.8694  0.0731  1.2574
  167MOL0     H22507   3.225   2.689  13.645 -1.1309 -0.3976  0.5154
  167MOL0     H22508   3.140   2.834  13.615  1.3558 -1.0436  3.2968
  167MOL0     H22509   3.808   2.766  13.534 -3.8956 -4.1613 -3.5341
  167MOL0     H22510   3.957   2.730  13.723  1.7893 -2.2501 -1.8805
  167MOL0     H22511   3.964   2.663  14.000 -1.1546 -0.8398 -0.1287
  167MOL0     H22512   4.033   2.518  14.057 -0.1478 -3.2168 -1.5370
  167MOL0     H22513   4.197   2.534  13.825 -0.3869 -1.8059  0.2090
  167MOL0     H22514   4.142   2.703  13.848 -1.0696  0.3964  1.5003
  167MOL0     H22515   4.321   2.532  14.008  1.5971  1.6077 -0.1784
  167MOL0     H22516   4.218   2.635  14.107 -2.2511 -2.5501 -0.0299
  167MOL0     H22517   4.403   2.704  13.872 -0.1406  0.6632  0.1319
  167MOL0     H22518   4.300   2.828  13.939  2.7632  2.0471  0.0333
  167MOL0     H22519   4.396   2.806  14.155 -2.5618  0.6501 -1.0973
  167MOL0     H22520   4.521   2.849  14.028  1.6871 -1.1876 -0.7003
  167MOL0     H22521   4.533   2.557  14.093  1.4130  0.0566 -2.9134
  167MOL0     H22522   4.653   2.672  14.033  2.5125 -0.9149  2.9035
  167MOL0     H22523   4.591   2.789  14.277  1.4904  0.4924  1.5519
  167MOL0     H22524   4.716   2.682  14.229 -0.5757  2.9146 -2.2497
  167MOL0     H22525   4.428   2.585  14.301 -0.3710 -2.1639  0.4875
  167MOL0     H22526   4.527   2.653  14.425 -3.7572  2.1759 -0.7461
  167MOL0     H22527   3.715   2.385  13.834  0.5021 -0.1112 -2.2063
  167MOL0     H22528   3.550   2.461  13.678  1.1440 -1.4701 -2.5020
  167MOL0     H22529   3.539   2.790  13.281  0.2214 -2.3896 -1.6845
  167MOL0     H22530   3.405   2.817  13.092 -1.3358  1.5948 -0.0346
  167MOL0     H22531   3.269   3.824  11.793 -0.9474  0.2224 -0.6539
  167MOL0     H22532   3.332   3.907  11.576 -3.0469 -2.4324 -0.3121
  167MOL0     H22533   3.748   3.995  11.169 -1.1679  1.4489 -0.4251
  167MOL0     H22534   3.690   4.012  10.922 -0.9663 -1.9686 -2.7891
  167MOL0     H22535   3.709   3.968  10.724 -0.1083  0.1246  1.3359
  167MOL0     H22536   3.587   3.908  10.598 -1.6594 -1.2546  0.4107
  167MOL0     H22537   3.546   4.142  10.624 -0.7565  0.9951 -1.0388
  167MOL0     H22538   3.542   4.142  10.802  2.4026 -2.8295  0.9617
  167MOL0     H22539   3.345   4.037  10.820  0.9614  4.5537  1.9918
  167MOL0     H22540   3.329   3.978  10.652 -0.8172  1.4977 -2.2210
  167MOL0     H22541   3.191   4.161  10.644 -0.4658  3.2375  0.6817
  167MOL0     H22542   3.330   4.212  10.562  0.1278  1.1747  1.1996
  167MOL0     H22543   3.284   4.505  10.848  3.3032  0.1058  3.1241
  167MOL0     H22544   3.447   3.674  10.936  0.6431 -0.3800 -0.3631
  167MOL0     H22545   3.471   3.655  11.179 -1.5506 -0.2217  0.3851
  168MOL0     O22546   6.154   5.902  10.330  0.0387 -0.1595 -0.4631
  168MOL0     C22547   6.254   5.842  10.369 -0.3441 -0.1452  0.2407
  168MOL0     O22548   6.374   5.899  10.400 -0.6672 -0.8124  0.2861
  168MOL0     C22549   6.401   6.034  10.367  0.0774  0.0900 -0.1187
  168MOL0     C22550   6.531   6.062  10.333 -0.5163  0.2383 -0.4593
  168MOL0     C22551   6.564   6.196  10.303  0.2707 -0.0354  0.5988
  168MOL0     C22552   6.475   6.309  10.320  0.3534  0.6097  0.2341
  168MOL0     O22553   6.529   6.433  10.300 -0.0332  0.7762 -0.0603
  168MOL0     C22554   6.459   6.550  10.331 -0.6320  0.3473  0.2387
  168MOL0     C22555   6.556   6.667  10.303  0.7092  0.5285  0.4292
  168MOL0     C22556   6.502   6.791  10.372 -0.2498 -0.1856 -0.2665
  168MOL0     C22557   6.610   6.899  10.399 -0.4952  0.0280 -0.6415
  168MOL0     C22558   6.542   7.029  10.424 -0.1345  1.7365  0.1197
  168MOL0     C22559   6.631   7.137  10.461  0.2655  0.2669  0.5202
  168MOL0     C22560   6.555   7.265  10.510  0.3909 -0.0757  1.5774
  168MOL0     C22561   6.648   7.388  10.520 -0.4042 -0.2031 -0.9479
  168MOL0     N22562   6.743   7.378  10.629 -0.0598  0.5721  0.0598
  168MOL0     C22563   6.870   7.332  10.610  0.4550  0.0167 -0.9222
  168MOL0     C22564   6.922   7.350  10.729 -0.2498 -0.4888 -0.3316
  168MOL0     C22565   7.052   7.290  10.775  0.0759  0.1691  0.5283
  168MOL0     C22566   7.136   7.380  10.865 -0.0728  0.2084 -0.0872
  168MOL0     C22567   7.262   7.309  10.910  0.0770 -0.0380 -0.6584
  168MOL0     C22568   7.376   7.418  10.940 -0.5797 -0.6297  0.3986
  168MOL0     O22569   7.337   7.495  11.058 -0.2229 -0.3684  0.6889
  168MOL0     C22570   7.420   7.581  11.120 -0.0091 -0.6301 -0.7115
  168MOL0     C22571   7.537   7.633  11.064 -0.9202  1.4939  0.9485
  168MOL0     C22572   7.605   7.750  11.110  0.6722  0.3096  0.1807
  168MOL0     C22573   7.722   7.794  11.031 -0.4069 -1.0004  0.4333
  168MOL0     C22574   7.557   7.812  11.234 -0.3437 -0.5774 -0.0877
  168MOL0     C22575   7.612   7.938  11.295 -0.1742 -0.8939  0.2634
  168MOL0     O22576   7.533   8.017  11.379  0.8408  0.0252 -0.3908
  168MOL0     C22577   7.572   8.132  11.440 -0.1258  0.3498  0.7941
  168MOL0     C22578   7.508   8.175  11.559  1.0610  0.6613 -0.2548
  168MOL0     C22579   7.532   8.302  11.610  0.3113 -0.6103  0.2892
  168MOL0     C22580   7.620   8.393  11.547 -0.0805 -1.1305  0.0949
  168MOL0     O22581   7.642   8.516  11.602  0.6086 -0.5089 -0.1390
  168MOL0     C22582   7.777   8.570  11.630 -0.1970  0.6465  0.3306
  168MOL0     C22583   7.829   8.505  11.758  1.0146 -0.1326  0.0613
  168MOL0     C22584   7.737   8.518  11.873 -0.3644  0.0039  0.1606
  168MOL0     C22585   7.770   8.439  11.992 -0.2885  0.5656  0.5763
  168MOL0     C22586   7.680   8.475  12.110 -0.9799  0.0650  0.0087
  168MOL0     C22587   7.735   8.594  12.186  1.0830 -0.8129 -0.6215
  168MOL0     C22588   7.878   8.563  12.250 -0.7205 -0.4095  1.0195
  168MOL0     C22589   7.943   8.672  12.344  0.2673  0.1011 -0.1244
  168MOL0    Cl22590   7.929   8.822  12.247 -0.3753 -0.2415  0.2986
  168MOL0     C22591   7.691   8.351  11.432  0.4916 -1.1390  0.3929
  168MOL0     C22592   7.661   8.233  11.374 -0.5124  0.7859 -0.7346
  168MOL0     O22593   7.727   7.970  11.262  0.5641 -0.5720 -0.6250
  168MOL0     C22594   7.440   7.753  11.288 -0.6407  0.3993  0.1984
  168MOL0     C22595   7.371   7.653  11.227  0.9935  0.8283  0.3355
  168MOL0     N22596   6.836   7.411  10.814 -0.2322  0.2716 -0.5615
  168MOL0     N22597   6.736   7.439  10.750 -0.0681 -0.2596  0.1068
  168MOL0     C22598   6.350   6.278  10.357  0.2024 -0.4394  0.2634
  168MOL0     C22599   6.315   6.142  10.382 -0.0463  0.1009 -0.3343
  168MOL0     C22600   6.248   5.693  10.371  0.1754  0.3006 -0.8336
  168MOL0     C22601   6.366   5.617  10.347 -1.1948  0.4835  0.2082
  168MOL0     C22602   6.358   5.473  10.357 -0.6773  1.1186  0.2611
  168MOL0     C22603   6.236   5.416  10.414 -0.7332 -0.3902 -0.0596
  168MOL0     O22604   6.217   5.279  10.422  0.9308 -0.1737  0.9291
  168MOL0     C22605   6.159   5.222  10.540 -0.4480  1.1769 -1.1829
  168MOL0     C22606   6.252   5.101  10.589 -0.7285 -0.6201  0.4884
  168MOL0     C22607   6.186   4.995  10.672  0.7154 -0.2259 -0.0824
  168MOL0     C22608   6.126   4.878  10.593  0.1433 -0.6151  0.5966
  168MOL0     C22609   6.001   4.918  10.517 -0.8152  0.0322 -0.1782
  168MOL0     C22610   5.896   4.935  10.457  0.4388  0.3853 -0.6325
  168MOL0     C22611   6.135   5.504  10.444 -0.0894 -0.4715 -0.3171
  168MOL0     C22612   6.130   5.639  10.416 -0.5554 -0.3526  0.2135
  168MOL0     H22613   6.593   5.973  10.328 -1.6449 -0.5469 -4.8725
  168MOL0     H22614   6.670   6.209  10.286  1.5359 -4.4097  3.2982
  168MOL0     H22615   6.359   6.563  10.290 -0.7327  2.5635  1.0414
  168MOL0     H22616   6.427   6.541  10.435 -1.4626 -0.8957 -0.0954
  168MOL0     H22617   6.659   6.643  10.334  1.4132 -1.5109 -2.9703
  168MOL0     H22618   6.565   6.688  10.197 -0.6819  3.4256  0.7919
  168MOL0     H22619   6.431   6.836  10.302  0.2807  0.2747 -0.5106
  168MOL0     H22620   6.443   6.781  10.463 -2.4114  5.8049 -0.5603
  168MOL0     H22621   6.669   6.871  10.487 -1.5773  2.1068  0.8271
  168MOL0     H22622   6.684   6.920  10.321 -0.1597  0.5117 -0.1990
  168MOL0     H22623   6.483   7.056  10.336  0.5871 -2.5060 -1.9088
  168MOL0     H22624   6.481   7.021  10.515  0.6251  0.3203  0.5333
  168MOL0     H22625   6.687   7.108  10.550  0.5280  2.3940  1.1045
  168MOL0     H22626   6.699   7.152  10.377  0.4337 -1.8988  0.2159
  168MOL0     H22627   6.476   7.295  10.440  2.3830 -0.4993 -1.0408
  168MOL0     H22628   6.504   7.249  10.605 -0.2440 -2.1932  0.9439
  168MOL0     H22629   6.593   7.480  10.541  1.3663  0.5463  0.7970
  168MOL0     H22630   6.702   7.410  10.427  2.9313  2.8042  1.4199
  168MOL0     H22631   6.912   7.274  10.528 -1.9800 -1.0278 -1.5144
  168MOL0     H22632   7.037   7.197  10.830 -1.7820  1.7216  2.8491
  168MOL0     H22633   7.112   7.273  10.685 -1.6229 -2.1893 -0.2576
  168MOL0     H22634   7.086   7.416  10.956  3.6779  0.3840  2.0979
  168MOL0     H22635   7.171   7.467  10.808 -0.2398 -0.9179 -1.9783
  168MOL0     H22636   7.302   7.248  10.828  0.9209 -2.4196  1.3744
  168MOL0     H22637   7.252   7.243  10.997  0.5723 -1.4843 -1.6605
  168MOL0     H22638   7.379   7.493  10.860 -0.5162 -0.1394  0.8524
  168MOL0     H22639   7.467   7.358  10.943 -1.8363 -2.5883  0.9750
  168MOL0     H22640   7.580   7.577  10.982 -1.2807  1.7387  0.5860
  168MOL0     H22641   7.745   7.731  10.944  3.9700 -3.8661  3.2664
  168MOL0     H22642   7.700   7.895  10.995  3.2595  0.5508  1.9854
  168MOL0     H22643   7.809   7.789  11.097 -1.6607  1.4539  2.4408
  168MOL0     H22644   7.434   8.114  11.609 -0.4124  2.2889 -0.3648
  168MOL0     H22645   7.482   8.329  11.702  4.3419  1.1821  2.1790
  168MOL0     H22646   7.840   8.552  11.542 -2.3687 -2.4719 -0.7782
  168MOL0     H22647   7.776   8.675  11.660 -0.0843  1.5119 -2.4205
  168MOL0     H22648   7.856   8.402  11.734  0.0821 -0.9446  2.2226
  168MOL0     H22649   7.921   8.564  11.769  2.5982 -2.5386  0.7391
  168MOL0     H22650   7.639   8.485  11.837  0.1496 -3.9587  1.8934
  168MOL0     H22651   7.724   8.623  11.902  1.9229 -0.0938  1.7335
  168MOL0     H22652   7.746   8.336  11.967  0.0066  0.3299  1.2308
  168MOL0     H22653   7.878   8.432  12.012 -0.1330 -0.7248 -0.6105
  168MOL0     H22654   7.662   8.388  12.175 -0.2477  0.3680  0.6311
  168MOL0     H22655   7.582   8.487  12.064  0.4158 -0.1907 -3.2720
  168MOL0     H22656   7.748   8.677  12.115 -1.7878 -0.6578 -1.0848
  168MOL0     H22657   7.654   8.625  12.254  0.8915  4.1254 -2.6322
  168MOL0     H22658   7.947   8.560  12.165 -0.4236 -2.6591  1.2722
  168MOL0     H22659   7.889   8.464  12.295 -0.2753 -0.6716  0.3492
  168MOL0     H22660   8.037   8.632  12.384  1.3261  0.4271 -2.1697
  168MOL0     H22661   7.886   8.696  12.434 -0.8176  0.4758 -0.8892
  168MOL0     H22662   7.755   8.420  11.378  0.8725 -0.6237  1.4736
  168MOL0     H22663   7.703   8.213  11.276  1.4023 -3.8066  0.7913
  168MOL0     H22664   7.404   7.804  11.377 -1.9692  1.1855 -0.7533
  168MOL0     H22665   7.276   7.620  11.268  0.9138  2.8892  2.0044
  168MOL0     H22666   6.275   6.350  10.388 -0.3830 -0.4500 -1.0568
  168MOL0     H22667   6.218   6.136  10.431  0.9127 -1.6651  1.5348
  168MOL0     H22668   6.460   5.655  10.307 -0.0939  2.1096  3.8787
  168MOL0     H22669   6.449   5.415  10.345 -0.5268  1.4575 -0.2592
  168MOL0     H22670   6.162   5.294  10.622 -0.4844 -0.0492 -0.0615
  168MOL0     H22671   6.054   5.193  10.527 -0.3265  0.0685  0.0773
  168MOL0     H22672   6.343   5.136  10.638 -1.0432 -0.8842  1.2668
  168MOL0     H22673   6.296   5.056  10.499  1.9711 -0.9022  1.8450
  168MOL0     H22674   6.110   5.050  10.729 -0.2261  0.9351 -2.3200
  168MOL0     H22675   6.260   4.938  10.730 -0.0943 -0.3817  0.8229
  168MOL0     H22676   6.100   4.800  10.666  1.9334 -0.6343  1.2601
  168MOL0     H22677   6.203   4.852  10.520 -0.6494  1.9637 -1.2977
  168MOL0     H22678   5.793   4.949  10.430  0.1050  2.6396  1.4035
  168MOL0     H22679   6.039   5.473  10.485 -1.9488  4.2294 -0.4770
  168MOL0     H22680   6.039   5.697  10.427  0.8900  1.5628  3.2898
  169MOL0     O22681   3.131   9.813   0.881 -0.2210 -0.4053 -0.3770
  169MOL0     C22682   3.162   9.940   0.871 -0.6718  0.6749 -0.9914
  169MOL0     O22683   3.282   9.989   0.888  0.0515 -0.1172 -0.8717
  169MOL0     C22684   3.405   9.930   0.875  0.1832  0.4731  0.1152
  169MOL0     C22685   3.517  10.012   0.919  0.7924  1.2809  0.7897
  169MOL0     C22686   3.651   9.966   0.911 -0.7841 -0.6382 -0.6924
  169MOL0     C22687   3.687   9.837   0.884  1.0511  0.5377  0.2382
  169MOL0     O22688   3.816   9.791   0.894  0.5063  0.3006  0.1810
  169MOL0     C22689   3.840   9.697   1.000 -0.5886  1.1687  0.4021
  169MOL0     C22690   3.932   9.767   1.095 -0.0122  0.0832 -0.0817
  169MOL0     C22691   3.924   9.703   1.243  0.4564  0.6130 -0.4337
  169MOL0     C22692   4.047   9.749   1.333  0.3910  0.3772 -0.1649
  169MOL0     C22693   4.023   9.723   1.479  0.1235 -0.2678 -0.2484
  169MOL0     C22694   4.109   9.610   1.533  0.0259  0.7157 -0.5955
  169MOL0     C22695   4.083   9.584   1.686 -0.2493  0.4684 -1.1033
  169MOL0     C22696   4.167   9.653   1.786  0.0404 -0.3764 -0.8420
  169MOL0     N22697   4.306   9.606   1.801 -0.3172  0.9725  0.2134
  169MOL0     C22698   4.343   9.473   1.805 -0.5566 -0.3590  0.3551
  169MOL0     C22699   4.485   9.481   1.797  0.7193  0.3923  0.0306
  169MOL0     C22700   4.572   9.362   1.781  0.5030  0.5824  0.3899
  169MOL0     C22701   4.640   9.381   1.643 -0.1376 -0.2559  0.2337
  169MOL0     C22702   4.570   9.302   1.528 -0.2923  1.0567 -0.5500
  169MOL0     C22703   4.631   9.350   1.397  0.2656  0.1382  1.4643
  169MOL0     O22704   4.587   9.246   1.310 -0.3131  0.4116 -0.4521
  169MOL0     C22705   4.456   9.246   1.261  1.2362 -0.1651  0.0356
  169MOL0     C22706   4.413   9.134   1.185  0.1442  0.4027  0.5016
  169MOL0     C22707   4.282   9.115   1.143 -0.0894 -0.0390 -0.2352
  169MOL0     C22708   4.254   8.978   1.083 -0.0622  0.2195  0.4803
  169MOL0     C22709   4.189   9.227   1.153  0.5220 -0.0012  0.1305
  169MOL0     C22710   4.055   9.228   1.093  0.2600 -0.5566 -0.5432
  169MOL0     O22711   4.006   9.350   1.056 -0.4764 -0.1788 -0.7271
  169MOL0     C22712   3.886   9.341   0.991 -0.0619  0.3609 -1.0341
  169MOL0     C22713   3.765   9.338   1.070  0.3514  0.0127  0.1716
  169MOL0     C22714   3.643   9.314   0.999 -0.4682  0.6421 -0.3642
  169MOL0     C22715   3.634   9.296   0.864  0.4557  0.5095  0.2589
  169MOL0     O22716   3.522   9.266   0.799  1.0523  0.3667  0.6027
  169MOL0     C22717   3.433   9.369   0.777  0.5549  0.0974  0.6929
  169MOL0     C22718   3.336   9.317   0.669  0.6493  0.9796  0.0945
  169MOL0     C22719   3.227   9.419   0.640  0.5895 -0.1539 -0.1832
  169MOL0     C22720   3.252   9.551   0.565 -0.6464 -0.4004 -0.2470
  169MOL0     C22721   3.126   9.642   0.592  0.3941  0.3772 -0.0047
  169MOL0     C22722   2.993   9.591   0.527  0.2749  0.5032  1.1102
  169MOL0     C22723   3.004   9.558   0.373 -0.7240  0.1260  1.0176
  169MOL0     C22724   2.876   9.518   0.320  1.2778 -0.0810 -0.2507
  169MOL0    Cl22725   2.874   9.454   0.149 -0.0660 -0.1646 -0.2966
  169MOL0     C22726   3.752   9.304   0.787 -0.7387 -0.2165 -0.5986
  169MOL0     C22727   3.875   9.327   0.846 -0.2679  0.0862  0.4921
  169MOL0     O22728   3.991   9.119   1.099  0.1250 -0.2584 -0.3180
  169MOL0     C22729   4.237   9.338   1.226 -0.3461 -0.2770 -0.0357
  169MOL0     C22730   4.366   9.356   1.281 -0.5219  0.9390 -0.4839
  169MOL0     N22731   4.523   9.615   1.801 -0.9362 -0.0522 -0.9909
  169MOL0     N22732   4.415   9.687   1.800 -0.2528  0.0201 -0.4538
  169MOL0     C22733   3.583   9.763   0.823  0.5021 -0.4193 -0.4288
  169MOL0     C22734   3.447   9.807   0.814  0.9485 -0.3235 -0.3143
  169MOL0     C22735   3.058  10.045   0.852 -1.0406  0.2581  0.0748
  169MOL0     C22736   2.932   9.999   0.824 -0.1975 -0.0092  0.5727
  169MOL0     C22737   2.828  10.090   0.783  0.3088  0.0593 -0.2934
  169MOL0     C22738   2.861  10.221   0.773  0.1921 -0.2912 -0.3341
  169MOL0     O22739   2.763  10.316   0.740  0.2381 -0.2394 -0.5576
  169MOL0     C22740   2.656  10.292   0.640  0.3602 -0.2061 -0.0636
  169MOL0     C22741   2.729  10.291   0.497 -0.3367 -0.2052 -0.1564
  169MOL0     C22742   2.784  10.426   0.457 -0.1705  0.7672  0.4654
  169MOL0     C22743   2.807  10.433   0.299 -0.2706 -0.2928 -0.9574
  169MOL0     C22744   2.875  10.309   0.249 -0.6067 -1.1358 -0.5908
  169MOL0     C22745   2.950  10.216   0.236 -0.8486  0.5132 -0.2556
  169MOL0     C22746   2.987  10.270   0.816  0.7192  0.3837  0.5209
  169MOL0     C22747   3.072  10.180   0.872  0.4497  0.6708  0.1480
  169MOL0     H22748   3.508  10.117   0.946 -1.6111  1.8473 -1.7227
  169MOL0     H22749   3.732  10.023   0.954 -1.6694 -0.4611  0.7879
  169MOL0     H22750   3.748   9.655   1.043 -1.4024 -0.4921 -2.6527
  169MOL0     H22751   3.891   9.620   0.942  1.5763  1.3220  1.9812
  169MOL0     H22752   4.035   9.766   1.058 -0.0227 -2.4723 -0.1963
  169MOL0     H22753   3.898   9.871   1.099 -0.5507 -0.1206  1.5566
  169MOL0     H22754   3.831   9.743   1.283  0.4737 -0.1518  0.3896
  169MOL0     H22755   3.913   9.594   1.243 -0.0059  0.6448  0.7067
  169MOL0     H22756   4.135   9.688   1.310  2.4048  2.6993  0.9241
  169MOL0     H22757   4.066   9.857   1.334  3.9403 -0.1323  0.4752
  169MOL0     H22758   4.029   9.818   1.534 -3.5523  2.0369 -3.3295
  169MOL0     H22759   3.923   9.680   1.495 -0.3377  0.9266  0.1786
  169MOL0     H22760   4.077   9.517   1.485 -1.7685 -0.4407  2.5467
  169MOL0     H22761   4.215   9.619   1.507  0.2472  2.3033  0.6672
  169MOL0     H22762   3.982   9.624   1.699 -0.6529  0.2162 -3.1126
  169MOL0     H22763   4.085   9.475   1.691 -0.0188  0.4595 -1.3217
  169MOL0     H22764   4.121   9.639   1.884 -0.2511 -1.1833 -1.0805
  169MOL0     H22765   4.168   9.761   1.768  1.1643  0.0146  1.2765
  169MOL0     H22766   4.288   9.380   1.811 -0.8752 -0.1700  0.4108
  169MOL0     H22767   4.640   9.348   1.866  0.0185  0.8453  0.8182
  169MOL0     H22768   4.509   9.273   1.791  0.9171  0.5699  5.0259
  169MOL0     H22769   4.746   9.353   1.655 -0.0330  0.3409  0.7608
  169MOL0     H22770   4.640   9.487   1.615 -0.5886 -0.0203  1.0803
  169MOL0     H22771   4.463   9.320   1.522 -0.3060  0.9108 -0.7654
  169MOL0     H22772   4.589   9.196   1.549  2.5953  1.3788 -1.0690
  169MOL0     H22773   4.739   9.345   1.409  0.5269 -1.6431 -0.8829
  169MOL0     H22774   4.607   9.452   1.365  0.8072 -0.3657 -0.7277
  169MOL0     H22775   4.481   9.050   1.181 -0.2701  0.1012 -1.1567
  169MOL0     H22776   4.160   8.941   1.124 -0.4078 -1.1773 -1.4268
  169MOL0     H22777   4.251   8.986   0.974  0.6304  0.1307  0.4453
  169MOL0     H22778   4.333   8.913   1.122 -0.5319 -1.1931 -0.8403
  169MOL0     H22779   3.757   9.346   1.178 -2.1490  3.3269 -0.1059
  169MOL0     H22780   3.556   9.315   1.064  0.7806 -4.5386  1.9063
  169MOL0     H22781   3.372   9.398   0.863 -1.4791 -1.3051 -0.1903
  169MOL0     H22782   3.481   9.456   0.731  0.9240 -1.6743 -2.5536
  169MOL0     H22783   3.392   9.301   0.577 -0.3943  0.2908 -0.4375
  169MOL0     H22784   3.296   9.219   0.698  1.2286 -0.2087 -2.8445
  169MOL0     H22785   3.176   9.444   0.734  0.0874 -3.1648  0.4384
  169MOL0     H22786   3.151   9.366   0.582  0.5522 -1.5219  1.0721
  169MOL0     H22787   3.348   9.592   0.599 -1.5827 -1.2936  4.0104
  169MOL0     H22788   3.256   9.531   0.458  0.4809 -0.0936 -0.2739
  169MOL0     H22789   3.150   9.741   0.551 -1.4418  1.1985  0.7896
  169MOL0     H22790   3.123   9.646   0.701  3.3098  3.4709  0.1320
  169MOL0     H22791   2.971   9.495   0.573  3.6503 -1.7661 -1.4849
  169MOL0     H22792   2.912   9.665   0.531  0.2851  0.6383 -0.5453
  169MOL0     H22793   3.072   9.478   0.340 -0.8030  0.4173  0.1151
  169MOL0     H22794   3.036   9.647   0.319  0.3498  0.5227  2.2704
  169MOL0     H22795   2.801   9.596   0.335  3.5892  2.1857  0.2658
  169MOL0     H22796   2.848   9.435   0.384  2.7194 -0.6111 -0.2674
  169MOL0     H22797   3.744   9.304   0.679  3.1247 -1.5910 -1.0476
  169MOL0     H22798   3.956   9.334   0.774 -1.3679 -0.0776 -0.8141
  169MOL0     H22799   4.177   9.425   1.252  2.9029  1.9701  0.6059
  169MOL0     H22800   4.400   9.437   1.345  2.0326 -0.1024 -0.3672
  169MOL0     H22801   3.619   9.667   0.788  0.7151 -0.7698  0.6980
  169MOL0     H22802   3.369   9.745   0.770 -0.0572 -0.9632  2.1887
  169MOL0     H22803   2.913   9.893   0.815 -1.9359  0.3532 -0.6534
  169MOL0     H22804   2.725  10.064   0.760  0.6942 -0.3279 -1.6742
  169MOL0     H22805   2.591  10.205   0.654 -2.2345  1.1388 -2.6078
  169MOL0     H22806   2.586  10.376   0.638 -0.8289 -1.1618 -0.4613
  169MOL0     H22807   2.644  10.286   0.428  1.1568  0.1668 -2.1084
  169MOL0     H22808   2.803  10.211   0.489 -0.9663 -0.9431  1.1197
  169MOL0     H22809   2.886  10.435   0.497 -0.7978  3.0287  1.7768
  169MOL0     H22810   2.720  10.510   0.484 -1.6231 -0.2161  0.1689
  169MOL0     H22811   2.852  10.529   0.271  1.2089 -1.0257 -1.1807
  169MOL0     H22812   2.705  10.437   0.259 -1.3133 -2.7247  1.1844
  169MOL0     H22813   3.012  10.137   0.273  0.5797  2.1612  1.0609
  169MOL0     H22814   2.999  10.378   0.815  1.1643  0.4091 -2.6820
  169MOL0     H22815   3.171  10.203   0.909  1.5927 -0.7921 -1.7896
  170MOL0     O22816   3.842  10.189   7.574  0.0942 -0.6576 -0.8525
  170MOL0     C22817   3.857  10.090   7.507 -0.3610 -0.5802 -1.0502
  170MOL0     O22818   3.982  10.059   7.442  0.2525  0.1214  0.7653
  170MOL0     C22819   4.086  10.143   7.472 -0.0850  0.0679  0.5610
  170MOL0     C22820   4.106  10.266   7.396  0.8975  0.3118 -0.1878
  170MOL0     C22821   4.208  10.354   7.414 -1.3635  0.5488 -0.0835
  170MOL0     C22822   4.308  10.317   7.502 -0.0387  0.7852  0.2654
  170MOL0     O22823   4.411  10.396   7.511 -0.0818 -0.3071 -0.8574
  170MOL0     C22824   4.393  10.514   7.589 -0.2559  0.1155 -0.9146
  170MOL0     C22825   4.516  10.606   7.596  0.4531  0.1276  0.0353
  170MOL0     C22826   4.540  10.696   7.473  0.7133 -0.2517  0.6383
  170MOL0     C22827   4.505  10.647   7.333 -0.2176  0.4778  0.4607
  170MOL0     C22828   4.385  10.730   7.290  0.4862 -0.5911  0.9888
  170MOL0     C22829   4.353  10.706   7.142  0.2640 -1.0233 -0.2685
  170MOL0     C22830   4.255  10.813   7.095  0.2750 -0.6610 -0.0271
  170MOL0     C22831   4.276  10.966   7.119 -0.0430  0.3895 -0.1553
  170MOL0     N22832   4.403  11.004   7.051 -0.3518  0.7389 -0.5880
  170MOL0     C22833   4.421  11.026   6.917  0.1295  0.3435 -0.2708
  170MOL0     C22834   4.536  11.097   6.906 -0.4081  0.3110 -0.0373
  170MOL0     C22835   4.606  11.173   6.796  0.1352 -0.6643 -0.2703
  170MOL0     C22836   4.691  11.069   6.721  1.2140 -1.0487  0.1543
  170MOL0     C22837   4.784  11.148   6.629  0.0613 -0.1792 -0.0549
  170MOL0     C22838   4.872  11.056   6.545  0.3956 -0.7047  0.1191
  170MOL0     O22839   4.804  10.958   6.462  0.8133 -0.2950 -0.1868
  170MOL0     C22840   4.788  11.000   6.332  0.8268 -0.0544 -0.6630
  170MOL0     C22841   4.744  10.901   6.250  0.0926 -0.3381 -0.0096
  170MOL0     C22842   4.702  10.927   6.118 -0.6520 -0.0086  0.8578
  170MOL0     C22843   4.666  10.811   6.023  0.1607 -0.4922  0.8809
  170MOL0     C22844   4.704  11.065   6.067 -0.3340 -0.6045  0.2976
  170MOL0     C22845   4.661  11.103   5.929 -1.1094  0.0550  0.4789
  170MOL0     O22846   4.710  11.219   5.885 -0.7280 -0.6196  0.0331
  170MOL0     C22847   4.666  11.296   5.787 -0.5436 -0.3971  0.0531
  170MOL0     C22848   4.599  11.247   5.671  0.3996  0.5723 -0.3351
  170MOL0     C22849   4.547  11.332   5.580  0.7579 -0.5109  0.8467
  170MOL0     C22850   4.567  11.468   5.586 -0.3760  0.5533 -0.5454
  170MOL0     O22851   4.545  11.538   5.467  0.4582 -0.3949  0.1074
  170MOL0     C22852   4.498  11.666   5.485 -0.3282 -0.4604  0.3996
  170MOL0     C22853   4.370  11.668   5.411 -0.2037 -0.5707  0.2167
  170MOL0     C22854   4.257  11.576   5.452 -0.2667  0.8180  0.0483
  170MOL0     C22855   4.216  11.602   5.600 -0.4472  0.0080 -0.2864
  170MOL0     C22856   4.110  11.505   5.655  0.4927 -0.9009  1.0889
  170MOL0     C22857   4.142  11.362   5.648  0.4046  0.5391 -0.7664
  170MOL0     C22858   4.008  11.294   5.696 -0.4772  0.2124  0.2384
  170MOL0     C22859   4.026  11.147   5.677  0.0914  0.3088  0.0098
  170MOL0    Cl22860   3.886  11.049   5.722 -0.2317 -0.1372  0.2932
  170MOL0     C22861   4.645  11.521   5.697 -0.4201 -0.4357  0.5516
  170MOL0     C22862   4.688  11.436   5.797  0.0294 -0.0042 -0.9939
  170MOL0     O22863   4.564  11.045   5.876 -0.1436 -0.8340 -0.1838
  170MOL0     C22864   4.747  11.157   6.159 -1.2893 -0.3962 -0.3414
  170MOL0     C22865   4.792  11.127   6.286  1.2431  0.6774 -0.5803
  170MOL0     N22866   4.596  11.099   7.025 -0.2864  0.5679 -0.4563
  170MOL0     N22867   4.521  11.033   7.109  0.8088 -0.0717 -0.0048
  170MOL0     C22868   4.305  10.195   7.569  0.5484 -0.1638 -0.8709
  170MOL0     C22869   4.191  10.104   7.561 -0.1341  0.3172 -0.4537
  170MOL0     C22870   3.753   9.984   7.494  0.3086  0.7574  0.4039
  170MOL0     C22871   3.650   9.971   7.591 -0.5682  0.0081  0.2871
  170MOL0     C22872   3.552   9.873   7.589 -0.2712  0.1907 -0.2780
  170MOL0     C22873   3.537   9.789   7.471 -0.1214 -0.6854  0.5306
  170MOL0     O22874   3.430   9.708   7.465 -0.8921  0.9142  0.5488
  170MOL0     C22875   3.398   9.635   7.351  0.1062  0.7960 -0.4097
  170MOL0     C22876   3.330   9.713   7.245 -0.7201  0.5548 -0.8316
  170MOL0     C22877   3.261   9.606   7.157  0.5967 -0.0253  0.6096
  170MOL0     C22878   3.173   9.496   7.217  0.3638 -0.7003 -0.3312
  170MOL0     C22879   3.092   9.530   7.332  1.2296 -0.9172  0.1171
  170MOL0     C22880   3.032   9.585   7.431 -0.2673  0.5131 -0.1503
  170MOL0     C22881   3.637   9.798   7.370 -0.4514  0.2451 -0.1664
  170MOL0     C22882   3.746   9.887   7.383  0.0956 -0.1049 -0.1891
  170MOL0     H22883   4.048  10.294   7.309  0.2651  1.2279  0.5084
  170MOL0     H22884   4.221  10.443   7.354 -2.4046 -0.4000 -1.7712
  170MOL0     H22885   4.317  10.585   7.553  2.2012  3.1099 -0.5797
  170MOL0     H22886   4.364  10.477   7.688 -0.0241 -0.8392 -1.1923
  170MOL0     H22887   4.518  10.670   7.686  3.2396  1.1676 -0.6582
  170MOL0     H22888   4.607  10.548   7.613  2.3498  2.0366 -2.8451
  170MOL0     H22889   4.477  10.782   7.499  2.5802  2.3838 -2.7219
  170MOL0     H22890   4.644  10.726   7.488 -0.1831  2.5982  1.7321
  170MOL0     H22891   4.585  10.651   7.258 -0.3048 -2.7907  0.0427
  170MOL0     H22892   4.477  10.541   7.333 -3.6936  1.2150 -2.7171
  170MOL0     H22893   4.306  10.701   7.360 -0.8212 -0.6581 -0.4882
  170MOL0     H22894   4.423  10.831   7.305  0.6825 -0.7699  1.7664
  170MOL0     H22895   4.446  10.710   7.085  1.3716  0.9538  1.5334
  170MOL0     H22896   4.316  10.603   7.140 -1.5874 -0.3811 -1.7506
  170MOL0     H22897   4.236  10.788   6.990  0.7132 -1.5408  0.0985
  170MOL0     H22898   4.153  10.796   7.133 -1.0013  0.0305 -2.8784
  170MOL0     H22899   4.265  10.988   7.225  3.3213 -0.2137  0.4403
  170MOL0     H22900   4.194  11.022   7.073 -1.3777 -0.3797  1.2086
  170MOL0     H22901   4.346  10.998   6.843  0.3728 -0.6349 -0.1593
  170MOL0     H22902   4.539  11.227   6.729  0.2193 -0.5673 -0.2774
  170MOL0     H22903   4.674  11.243   6.845 -1.0844 -0.0089  0.5295
  170MOL0     H22904   4.614  11.008   6.674 -1.3897 -0.7716  3.6066
  170MOL0     H22905   4.753  11.015   6.793  0.2952  1.5446  3.1593
  170MOL0     H22906   4.846  11.206   6.697  2.2510 -0.0870 -2.0272
  170MOL0     H22907   4.731  11.216   6.562  1.4346  0.4325 -0.5380
  170MOL0     H22908   4.925  10.997   6.621 -0.1690 -1.7066 -0.2543
  170MOL0     H22909   4.948  11.118   6.497 -0.6569  0.2315 -0.3776
  170MOL0     H22910   4.743  10.802   6.292  0.9834 -0.0781  0.6435
  170MOL0     H22911   4.699  10.832   5.920  0.4952 -1.9693  0.6610
  170MOL0     H22912   4.709  10.720   6.065  1.0428  0.3044  1.7877
  170MOL0     H22913   4.559  10.791   6.019  0.4756 -3.1318  3.2022
  170MOL0     H22914   4.609  11.140   5.652 -1.3154  0.8435 -3.3865
  170MOL0     H22915   4.495  11.292   5.494 -1.2669  2.5821  0.4533
  170MOL0     H22916   4.482  11.691   5.591 -1.6646  2.6846 -0.4103
  170MOL0     H22917   4.569  11.740   5.448  0.0815 -0.1345  1.7536
  170MOL0     H22918   4.321  11.766   5.411 -1.5558 -1.1823  1.8478
  170MOL0     H22919   4.402  11.661   5.307 -1.7990 -0.4212 -0.3116
  170MOL0     H22920   4.296  11.474   5.439 -0.5366  0.2417  2.9930
  170MOL0     H22921   4.182  11.590   5.374  1.1009  1.1466 -1.2578
  170MOL0     H22922   4.301  11.588   5.668 -1.0630  0.5329  0.6113
  170MOL0     H22923   4.196  11.710   5.596 -3.1473 -0.2948  2.2584
  170MOL0     H22924   4.014  11.517   5.603 -0.7838 -1.1364  3.2772
  170MOL0     H22925   4.097  11.528   5.761  1.0454  1.3094  0.7251
  170MOL0     H22926   4.162  11.308   5.555  0.0978  1.9717 -1.7036
  170MOL0     H22927   4.227  11.337   5.712 -0.4872  0.3387  0.3665
  170MOL0     H22928   3.923  11.321   5.634  1.1052  0.3558 -2.0052
  170MOL0     H22929   3.992  11.322   5.801 -0.0140  1.1657  0.0697
  170MOL0     H22930   4.121  11.127   5.726  0.1322 -0.6259 -0.4257
  170MOL0     H22931   4.042  11.121   5.572  2.8794  0.0910  0.4261
  170MOL0     H22932   4.690  11.619   5.708  1.5604 -0.9907 -1.7688
  170MOL0     H22933   4.752  11.473   5.877 -0.0346  1.0089 -1.3965
  170MOL0     H22934   4.733  11.259   6.124  0.3758  0.5553  1.5321
  170MOL0     H22935   4.819  11.211   6.349 -2.8148  1.6584  0.1330
  170MOL0     H22936   4.385  10.157   7.632  0.8828  0.9125 -0.6415
  170MOL0     H22937   4.186  10.009   7.612  2.1138 -2.1305 -4.2811
  170MOL0     H22938   3.651  10.022   7.687  2.0235  0.6747 -0.0030
  170MOL0     H22939   3.478   9.856   7.666 -0.5351 -0.9385 -0.7491
  170MOL0     H22940   3.484   9.590   7.301  0.4512  1.2799 -0.2656
  170MOL0     H22941   3.343   9.547   7.386  0.8642  1.5213  2.9698
  170MOL0     H22942   3.395   9.781   7.191  1.2958  0.9825  1.8876
  170MOL0     H22943   3.261   9.788   7.285 -3.2766 -2.2161  0.3783
  170MOL0     H22944   3.334   9.549   7.099 -0.7164  0.4346 -1.6024
  170MOL0     H22945   3.197   9.658   7.086  1.4138 -1.0536 -0.9342
  170MOL0     H22946   3.242   9.416   7.245  2.2199 -0.3667 -3.4363
  170MOL0     H22947   3.106   9.463   7.136 -1.4596  0.3666  0.6714
  170MOL0     H22948   2.984   9.608   7.524  1.0114 -2.1570  1.2741
  170MOL0     H22949   3.634   9.738   7.280  1.0506  3.4139 -2.5499
  170MOL0     H22950   3.822   9.897   7.306  2.4806 -0.1869  2.0413
  171MOL0     O22951   5.871  11.197   4.395 -0.2104 -0.5483 -0.7179
  171MOL0     C22952   5.844  11.166   4.280  0.0139  0.9902  0.6943
  171MOL0     O22953   5.934  11.163   4.178  0.0688  0.5733  1.0266
  171MOL0     C22954   6.063  11.196   4.215 -0.2863  0.4891  0.1359
  171MOL0     C22955   6.166  11.107   4.214  0.4445 -0.5971 -0.0022
  171MOL0     C22956   6.295  11.147   4.235  0.4324 -0.4118 -0.2717
  171MOL0     C22957   6.331  11.281   4.263 -0.3681  0.2056 -0.3310
  171MOL0     O22958   6.463  11.300   4.274  1.0940 -0.0968 -0.0734
  171MOL0     C22959   6.509  11.429   4.324  0.0859  0.2403 -0.6728
  171MOL0     C22960   6.658  11.450   4.284  1.1641 -0.9068  0.3307
  171MOL0     C22961   6.738  11.495   4.403 -0.5079  0.3569  0.5180
  171MOL0     C22962   6.705  11.635   4.445  1.2544 -0.8727 -0.7336
  171MOL0     C22963   6.820  11.710   4.519  0.4441  0.3155 -0.5510
  171MOL0     C22964   6.787  11.858   4.528 -0.2909 -0.5616 -0.0765
  171MOL0     C22965   6.697  11.906   4.639  0.2390  1.2215 -0.0086
  171MOL0     C22966   6.641  12.044   4.610  0.0290 -1.4966 -0.2892
  171MOL0     N22967   6.522  12.087   4.686 -0.4528  0.2444 -0.3268
  171MOL0     C22968   6.504  12.065   4.817  1.2896  0.5752  0.1846
  171MOL0     C22969   6.372  12.055   4.833  0.6784 -0.4309  0.0883
  171MOL0     C22970   6.298  12.016   4.957 -0.0123  0.2840 -0.5419
  171MOL0     C22971   6.212  11.895   4.951  0.2574  0.9660  0.3749
  171MOL0     C22972   6.186  11.830   5.086 -0.1689 -0.0557  0.2092
  171MOL0     C22973   6.140  11.913   5.191  0.9317  0.0719  0.1554
  171MOL0     O22974   6.111  11.830   5.303  0.1007 -0.5471  0.3936
  171MOL0     C22975   6.058  11.901   5.410 -0.4478 -0.0493  1.8701
  171MOL0     C22976   6.114  11.873   5.535  0.1154  1.0599 -0.5409
  171MOL0     C22977   6.089  11.947   5.649 -0.7929  0.3522  0.3898
  171MOL0     C22978   6.157  11.896   5.763  0.3841  0.2958 -1.0149
  171MOL0     C22979   6.001  12.062   5.640  0.3956  0.1357  0.0775
  171MOL0     C22980   5.965  12.153   5.749  0.2627 -0.6083  0.6584
  171MOL0     O22981   5.835  12.199   5.744  0.0228  0.0038 -0.5231
  171MOL0     C22982   5.783  12.293   5.833 -0.6016 -0.7544 -0.1142
  171MOL0     C22983   5.643  12.290   5.856 -0.3897  0.6638 -0.7811
  171MOL0     C22984   5.584  12.394   5.935 -0.3522 -0.2499 -0.1465
  171MOL0     C22985   5.664  12.495   5.995  0.2393 -0.1050  0.6992
  171MOL0     O22986   5.605  12.590   6.079  0.2055 -0.2370 -0.2560
  171MOL0     C22987   5.606  12.726   6.028 -0.8368  0.4036  0.8293
  171MOL0     C22988   5.596  12.826   6.138 -0.4371 -0.6645 -1.0355
  171MOL0     C22989   5.581  12.968   6.084 -0.5913 -0.4231 -0.7633
  171MOL0     C22990   5.602  13.091   6.179  0.0920 -0.9776 -0.8504
  171MOL0     C22991   5.482  13.117   6.277  1.2322 -0.6426 -0.2392
  171MOL0     C22992   5.493  13.260   6.339 -0.5430 -0.0023 -1.4701
  171MOL0     C22993   5.395  13.291   6.463 -0.5256 -0.1739 -0.3221
  171MOL0     C22994   5.251  13.272   6.418 -0.4908  0.3822  0.4328
  171MOL0    Cl22995   5.206  13.392   6.280  0.0716  0.1309  0.0152
  171MOL0     C22996   5.801  12.508   5.958  0.2854  0.0319 -0.0188
  171MOL0     C22997   5.861  12.404   5.880 -0.3700 -0.1566  0.2170
  171MOL0     O22998   6.047  12.189   5.831 -0.5918  0.1027 -0.1424
  171MOL0     C22999   5.947  12.098   5.515 -0.1341  0.0248 -0.3185
  171MOL0     C23000   5.972  12.011   5.398  0.9517 -0.0352 -0.6636
  171MOL0     N23001   6.305  12.090   4.721 -0.6870  0.1148 -0.1052
  171MOL0     N23002   6.397  12.100   4.636  0.5919 -0.0443 -0.0808
  171MOL0     C23003   6.226  11.369   4.258  0.7288  0.3082 -0.4653
  171MOL0     C23004   6.092  11.332   4.233 -0.3962  0.1934 -0.9317
  171MOL0     C23005   5.714  11.111   4.249 -0.2221  0.6551  0.3271
  171MOL0     C23006   5.638  11.071   4.356 -0.4192 -0.3104  0.2456
  171MOL0     C23007   5.505  11.022   4.339 -0.1826 -0.7435  0.4684
  171MOL0     C23008   5.452  11.012   4.206  0.3880 -1.0617  0.0740
  171MOL0     O23009   5.317  10.964   4.194  0.0868 -0.4083 -0.1787
  171MOL0     C23010   5.254  10.991   4.076  1.1186 -0.2095 -0.1102
  171MOL0     C23011   5.235  11.145   4.045 -0.2709 -0.0065  0.7614
  171MOL0     C23012   5.163  11.222   4.159  0.4240  0.7494  0.4889
  171MOL0     C23013   5.129  11.365   4.120 -0.8624 -0.0274  0.8161
  171MOL0     C23014   5.255  11.447   4.110 -0.1875  0.1960  0.6808
  171MOL0     C23015   5.358  11.520   4.110 -1.0958  0.2773  0.2941
  171MOL0     C23016   5.536  11.041   4.097 -0.2257  0.1575 -0.3912
  171MOL0     C23017   5.657  11.094   4.120 -0.3902 -0.5680  0.5282
  171MOL0     H23018   6.146  11.008   4.174 -0.5071 -1.6935  2.8996
  171MOL0     H23019   6.377  11.077   4.247 -0.2268 -1.1759 -0.1482
  171MOL0     H23020   6.455  11.518   4.291  2.3485  1.6279 -0.8237
  171MOL0     H23021   6.481  11.429   4.429  1.6067  0.1822 -0.2351
  171MOL0     H23022   6.686  11.352   4.244  3.5011  0.3373 -1.3653
  171MOL0     H23023   6.659  11.521   4.201 -0.7680 -0.7521  0.3903
  171MOL0     H23024   6.726  11.438   4.496  2.1363  0.3516  0.9452
  171MOL0     H23025   6.846  11.484   4.385 -0.6733 -0.4534 -0.0181
  171MOL0     H23026   6.671  11.691   4.357 -2.0267 -3.3814 -1.2428
  171MOL0     H23027   6.614  11.625   4.504  0.8696 -1.6836 -1.4522
  171MOL0     H23028   6.844  11.674   4.619 -1.9171  0.0764 -0.0131
  171MOL0     H23029   6.904  11.685   4.453 -1.1364 -4.7269 -1.0370
  171MOL0     H23030   6.881  11.905   4.556 -0.2548 -0.7701  0.1525
  171MOL0     H23031   6.752  11.901   4.433  1.1246  2.0652  0.5150
  171MOL0     H23032   6.620  11.833   4.663  0.7679  1.6320  3.3637
  171MOL0     H23033   6.758  11.915   4.729  1.5332 -0.5897 -0.6462
  171MOL0     H23034   6.612  12.055   4.506 -0.1131  1.8853 -0.0078
  171MOL0     H23035   6.719  12.112   4.646  0.0617 -0.9230 -1.4205
  171MOL0     H23036   6.578  12.047   4.895 -1.7458  1.6134  3.5931
  171MOL0     H23037   6.379  12.001   5.029 -0.4168 -2.1746 -0.5087
  171MOL0     H23038   6.234  12.098   4.992 -2.2381 -1.7600  0.4453
  171MOL0     H23039   6.272  11.831   4.885  0.9917  1.9486  0.0673
  171MOL0     H23040   6.126  11.940   4.901 -1.8141  1.3133  3.9839
  171MOL0     H23041   6.279  11.788   5.125  0.9039  0.4100 -1.7517
  171MOL0     H23042   6.121  11.744   5.070  1.8546 -1.3269 -1.6291
  171MOL0     H23043   6.054  11.968   5.152  0.9407 -0.4399 -0.6140
  171MOL0     H23044   6.210  11.994   5.210 -1.5662  2.5419 -0.6090
  171MOL0     H23045   6.183  11.791   5.550 -1.6701 -0.2291  1.0790
  171MOL0     H23046   6.107  11.800   5.781  2.7629 -0.5821  1.7092
  171MOL0     H23047   6.266  11.891   5.760  0.4414  0.3563  0.2881
  171MOL0     H23048   6.143  11.966   5.847 -1.8669  1.5974 -2.3634
  171MOL0     H23049   5.574  12.216   5.817  2.3914 -2.2809 -0.5075
  171MOL0     H23050   5.477  12.402   5.953 -0.2312  0.2027  0.3747
  171MOL0     H23051   5.687  12.745   5.958 -0.9160 -0.0358  0.6134
  171MOL0     H23052   5.513  12.734   5.971 -0.6691 -0.0461  0.4864
  171MOL0     H23053   5.518  12.798   6.210  0.6495  2.9420  1.8937
  171MOL0     H23054   5.681  12.816   6.206 -0.9428 -1.0570 -0.4410
  171MOL0     H23055   5.479  12.980   6.047 -1.9914 -1.0586  2.5491
  171MOL0     H23056   5.662  12.976   6.011  0.1497  2.4230  0.2389
  171MOL0     H23057   5.691  13.056   6.231  0.2226 -0.6792 -0.8678
  171MOL0     H23058   5.624  13.176   6.113  2.1397 -0.9847 -0.2348
  171MOL0     H23059   5.472  13.046   6.360 -0.6668 -0.0973  0.0621
  171MOL0     H23060   5.394  13.124   6.212  2.0290  1.6669 -1.1802
  171MOL0     H23061   5.594  13.283   6.373 -1.3897  4.3960 -1.4001
  171MOL0     H23062   5.473  13.347   6.277  0.1957  0.8146 -0.5907
  171MOL0     H23063   5.422  13.385   6.513 -2.5937 -0.3604  1.2516
  171MOL0     H23064   5.422  13.224   6.545  3.6827  3.6853  1.9065
  171MOL0     H23065   5.191  13.304   6.504 -0.6840  1.0858  0.0402
  171MOL0     H23066   5.236  13.168   6.388  1.3872  0.8895 -2.6306
  171MOL0     H23067   5.854  12.595   5.995  2.1649 -0.8774 -0.4734
  171MOL0     H23068   5.964  12.429   5.857 -0.8758  1.0668 -0.8344
  171MOL0     H23069   5.886  12.188   5.517 -3.3518 -2.0214  0.5992
  171MOL0     H23070   5.917  12.025   5.306 -1.8020  3.4831  1.2505
  171MOL0     H23071   6.245  11.474   4.278 -2.1149  0.8801 -0.4800
  171MOL0     H23072   6.016  11.410   4.242  0.4894  0.9232  0.8001
  171MOL0     H23073   5.684  11.079   4.455 -1.3107 -2.5913  0.8915
  171MOL0     H23074   5.444  11.002   4.426 -1.4820 -0.4824 -0.3506
  171MOL0     H23075   5.314  10.949   3.994  1.1941 -0.1561 -0.0807
  171MOL0     H23076   5.148  10.963   4.072  1.0975 -0.0005 -2.2819
  171MOL0     H23077   5.180  11.162   3.952  4.0645 -2.4188 -2.6271
  171MOL0     H23078   5.333  11.192   4.034 -0.0814 -0.6436 -0.4912
  171MOL0     H23079   5.227  11.238   4.246 -1.4951  1.7598  1.7655
  171MOL0     H23080   5.074  11.170   4.196 -0.1420  2.3995  1.5447
  171MOL0     H23081   5.072  11.410   4.202 -3.2391  1.9636 -1.7281
  171MOL0     H23082   5.062  11.375   4.034  0.7278  0.4657 -0.4101
  171MOL0     H23083   5.439  11.590   4.109 -1.4388  0.6894 -1.1188
  171MOL0     H23084   5.503  11.039   3.993 -2.9532 -3.3938  0.3281
  171MOL0     H23085   5.695  11.151   4.035  1.5095 -3.7856 -1.0007
  172MOL0     O23086  10.537   9.082  11.316 -0.0482 -0.1098 -0.7096
  172MOL0     C23087  10.552   9.147  11.216 -0.3483 -0.4830 -0.4015
  172MOL0     O23088  10.591   9.097  11.091  0.0346 -0.1351 -0.7192
  172MOL0     C23089  10.636   8.970  11.080  0.3488 -0.5946 -0.3162
  172MOL0     C23090  10.773   8.961  11.064 -0.5587 -0.2628 -0.3549
  172MOL0     C23091  10.831   8.832  11.033  1.1653 -0.1065  0.4020
  172MOL0     C23092  10.751   8.708  11.050  0.0720 -0.5711  0.4316
  172MOL0     O23093  10.772   8.575  11.007  0.9246  0.5253 -0.3498
  172MOL0     C23094  10.899   8.546  10.954  0.2999  0.5988  0.6272
  172MOL0     C23095  10.917   8.396  10.924  0.4713  0.2726  0.3787
  172MOL0     C23096  11.057   8.353  10.936 -0.8114  1.1997 -0.5797
  172MOL0     C23097  11.089   8.319  11.083 -0.0045  0.3916 -1.3309
  172MOL0     C23098  11.239   8.328  11.115 -0.0695 -0.3561  0.1308
  172MOL0     C23099  11.289   8.300  11.261 -0.0906 -0.1754  0.5166
  172MOL0     C23100  11.237   8.410  11.355 -0.2638  0.5612 -0.3577
  172MOL0     C23101  11.282   8.356  11.487  0.0039 -0.3493 -0.1722
  172MOL0     N23102  11.214   8.433  11.593 -0.5750 -0.2533 -0.7446
  172MOL0     C23103  11.271   8.547  11.646 -0.1024 -0.7483 -0.4258
  172MOL0     C23104  11.169   8.606  11.723  0.0100  0.2941  0.3546
  172MOL0     C23105  11.190   8.715  11.821  0.6682  0.3288 -0.0118
  172MOL0     C23106  11.065   8.801  11.825  0.0172 -0.0277  0.7452
  172MOL0     C23107  11.062   8.889  11.957 -0.0849  0.2372 -1.2127
  172MOL0     C23108  11.189   8.983  11.969 -0.1449 -0.6722  0.3547
  172MOL0     O23109  11.128   9.097  12.045 -0.0673 -0.8607  0.4201
  172MOL0     C23110  11.138   9.099  12.183  0.3512 -0.5521  0.3378
  172MOL0     C23111  11.263   9.096  12.250  0.2566  0.5588 -0.2973
  172MOL0     C23112  11.278   9.116  12.385  0.3837  1.0216 -0.5764
  172MOL0     C23113  11.421   9.119  12.440 -1.0217  0.4154  0.0239
  172MOL0     C23114  11.161   9.130  12.468  0.2150  0.4525  0.7523
  172MOL0     C23115  11.162   9.137  12.618  0.2376 -0.0074 -0.5365
  172MOL0     O23116  11.273   9.153  12.685 -0.7773  0.3740  0.1372
  172MOL0     C23117  11.269   9.147  12.829 -0.7344 -0.2186  0.6920
  172MOL0     C23118  11.314   9.028  12.901 -0.7217  0.0063  0.1032
  172MOL0     C23119  11.305   9.029  13.046  0.1341  0.9266 -0.1707
  172MOL0     C23120  11.258   9.142  13.127 -0.0800 -0.1472  0.2234
  172MOL0     O23121  11.261   9.142  13.258  0.8532 -0.4420 -0.9704
  172MOL0     C23122  11.228   9.258  13.327  0.3887 -0.2932  0.6624
  172MOL0     C23123  11.074   9.282  13.338  0.2808 -0.3128  0.2814
  172MOL0     C23124  11.020   9.151  13.405  0.4049 -0.0588  0.6402
  172MOL0     C23125  10.870   9.125  13.392  0.3330 -0.6132 -0.7903
  172MOL0     C23126  10.780   9.247  13.413 -0.4156 -0.2570  0.3304
  172MOL0     C23127  10.634   9.198  13.431  0.6804  0.0688 -1.6100
  172MOL0     C23128  10.537   9.318  13.443 -0.3965 -0.7039 -1.3637
  172MOL0     C23129  10.540   9.424  13.329 -0.5398  0.8050 -0.7553
  172MOL0    Cl23130  10.658   9.562  13.379  0.1793 -0.2583 -0.3012
  172MOL0     C23131  11.231   9.255  13.048 -0.5440 -0.1623  0.5722
  172MOL0     C23132  11.245   9.255  12.907  0.0586  0.2631  1.1954
  172MOL0     O23133  11.047   9.123  12.672  0.3971  0.0474 -0.3397
  172MOL0     C23134  11.032   9.133  12.399  0.1548  0.7359  0.6670
  172MOL0     C23135  11.023   9.110  12.257 -0.0201  0.3641 -0.5648
  172MOL0     N23136  11.064   8.517  11.721 -0.4929  0.2014 -0.3128
  172MOL0     N23137  11.089   8.416  11.645 -0.4256  0.5987  0.1891
  172MOL0     C23138  10.614   8.732  11.086 -0.5241  0.3785  0.0847
  172MOL0     C23139  10.560   8.855  11.099  0.5489  0.6182 -0.2470
  172MOL0     C23140  10.525   9.295  11.227 -0.8968 -0.1609 -0.6087
  172MOL0     C23141  10.520   9.354  11.360 -0.4603 -0.2190 -0.7438
  172MOL0     C23142  10.481   9.488  11.363  0.9074 -0.2934 -0.6000
  172MOL0     C23143  10.476   9.572  11.249  1.7431  0.2936 -0.2817
  172MOL0     O23144  10.460   9.706  11.288 -0.0530  0.2652  0.0492
  172MOL0     C23145  10.487   9.800  11.186  0.3029 -0.6283  0.9840
  172MOL0     C23146  10.637   9.816  11.164  0.1133 -0.8682 -0.4195
  172MOL0     C23147  10.680   9.956  11.219  0.2887  0.2751 -0.0948
  172MOL0     C23148  10.829   9.965  11.254 -0.6303 -0.0831  0.2995
  172MOL0     C23149  10.878   9.893  11.377  0.3942  0.7320 -0.0316
  172MOL0     C23150  10.903   9.835  11.480  0.4013  0.6918  0.4762
  172MOL0     C23151  10.507   9.521  11.124  0.6342  0.3621 -0.1658
  172MOL0     C23152  10.530   9.379  11.117  0.1203  0.7790  0.6379
  172MOL0     H23153  10.833   9.050  11.052 -0.6171 -0.4793 -2.5954
  172MOL0     H23154  10.927   8.817  10.984  0.2553 -2.8595 -0.7392
  172MOL0     H23155  10.921   8.603  10.862  0.8236 -1.6111 -0.6844
  172MOL0     H23156  10.976   8.575  11.026  3.1724  0.8893 -2.3234
  172MOL0     H23157  10.852   8.335  10.986  1.1203 -0.2910  0.5182
  172MOL0     H23158  10.875   8.385  10.824  0.1268  1.3223  0.3922
  172MOL0     H23159  11.071   8.260  10.880 -1.0038  2.1690 -2.3038
  172MOL0     H23160  11.133   8.423  10.901  2.6356 -1.5410  0.7541
  172MOL0     H23161  11.040   8.393  11.146  2.8778  0.1981  1.3681
  172MOL0     H23162  11.047   8.221  11.111 -0.0790  1.3228  2.2806
  172MOL0     H23163  11.287   8.253  11.051 -1.5654 -1.9932  0.8131
  172MOL0     H23164  11.269   8.431  11.098 -3.1157  0.5182 -0.5929
  172MOL0     H23165  11.271   8.198  11.295  4.6908 -1.6816 -0.5780
  172MOL0     H23166  11.399   8.304  11.266  0.1315  0.4413 -2.4611
  172MOL0     H23167  11.280   8.507  11.328 -2.4216  1.2037 -1.7406
  172MOL0     H23168  11.128   8.421  11.354 -0.1071  2.4107  0.1409
  172MOL0     H23169  11.390   8.367  11.497 -0.2478  1.4409  0.8658
  172MOL0     H23170  11.258   8.250  11.503  0.1688 -0.9018 -2.9821
  172MOL0     H23171  11.375   8.572  11.634 -0.3406 -0.2771 -1.6775
  172MOL0     H23172  11.220   8.669  11.915  0.5066 -2.8480 -1.3728
  172MOL0     H23173  11.264   8.783  11.778 -0.7703  2.7007  1.0922
  172MOL0     H23174  10.976   8.737  11.834  0.4265 -0.5573  1.0616
  172MOL0     H23175  11.041   8.863  11.738  0.0625 -2.0658 -0.7939
  172MOL0     H23176  11.065   8.830  12.048  1.8472  0.6044 -0.9948
  172MOL0     H23177  10.963   8.935  11.951 -1.8980 -3.0222  0.7092
  172MOL0     H23178  11.235   9.011  11.874 -2.0390 -1.2375 -0.7781
  172MOL0     H23179  11.268   8.928  12.022 -0.5441 -0.3980  1.2650
  172MOL0     H23180  11.354   9.079  12.194  0.2469 -0.1048 -0.1230
  172MOL0     H23181  11.427   9.043  12.518  4.2265 -1.5959 -1.9235
  172MOL0     H23182  11.487   9.089  12.358 -0.1174  0.4724  0.7081
  172MOL0     H23183  11.450   9.218  12.476 -1.4043  1.0339 -1.2840
  172MOL0     H23184  11.367   8.950  12.847 -0.5718  1.1441 -1.4721
  172MOL0     H23185  11.324   8.932  13.091 -0.4053  0.2751 -1.3094
  172MOL0     H23186  11.269   9.234  13.426  3.2848  3.4205  0.5957
  172MOL0     H23187  11.290   9.343  13.296  2.0709 -2.2741 -1.6961
  172MOL0     H23188  11.042   9.356  13.412 -1.7240  0.4391 -1.2471
  172MOL0     H23189  11.026   9.303  13.243  0.3712 -1.7364 -0.0968
  172MOL0     H23190  11.048   9.159  13.510  2.3092  1.0553  0.0935
  172MOL0     H23191  11.071   9.065  13.359  0.4921  0.5419 -0.4324
  172MOL0     H23192  10.847   9.073  13.298 -0.4815 -2.5999  0.4433
  172MOL0     H23193  10.840   9.052  13.468  1.0005  1.3329  1.4623
  172MOL0     H23194  10.797   9.321  13.334  0.3916  0.1701  0.8789
  172MOL0     H23195  10.804   9.293  13.510 -1.6772 -2.9372  2.0571
  172MOL0     H23196  10.612   9.132  13.347 -2.6858 -4.3706  2.1834
  172MOL0     H23197  10.617   9.129  13.515 -2.6216  1.9593 -0.4938
  172MOL0     H23198  10.563   9.370  13.536  1.9000  1.0309 -2.8538
  172MOL0     H23199  10.433   9.284  13.446 -0.0011 -1.9174 -0.1935
  172MOL0     H23200  10.440   9.468  13.327 -1.3562 -0.9474 -0.8064
  172MOL0     H23201  10.571   9.376  13.236  0.9034  3.4547 -1.7372
  172MOL0     H23202  11.188   9.347  13.085  0.7540  1.6389 -2.1066
  172MOL0     H23203  11.238   9.343  12.843  0.4895 -0.9864 -0.6342
  172MOL0     H23204  10.936   9.138  12.449 -1.3347  1.6423 -2.0757
  172MOL0     H23205  10.925   9.104  12.211  0.0147 -0.0192 -0.5925
  172MOL0     H23206  10.551   8.645  11.101 -0.4319  0.2294 -0.3946
  172MOL0     H23207  10.455   8.863  11.124  0.7507  0.7296  0.5950
  172MOL0     H23208  10.540   9.300  11.452 -0.4963  4.5487  2.3741
  172MOL0     H23209  10.466   9.527  11.463  1.1411  1.6863 -1.2811
  172MOL0     H23210  10.417   9.791  11.102 -0.7150  3.0614  1.2713
  172MOL0     H23211  10.456   9.897  11.226  2.5096 -0.3251  2.1022
  172MOL0     H23212  10.654   9.801  11.056 -0.1338  2.5249 -1.0204
  172MOL0     H23213  10.695   9.746  11.225  1.2775 -1.3125 -1.9602
  172MOL0     H23214  10.642   9.991  11.315  1.2432  1.1292 -0.0101
  172MOL0     H23215  10.651  10.035  11.150  1.5469 -0.2539 -1.2756
  172MOL0     H23216  10.857  10.070  11.267 -0.9104  1.0016 -5.4334
  172MOL0     H23217  10.886   9.934  11.166  0.7412  3.9103 -0.3959
  172MOL0     H23218  10.931   9.794  11.575  0.3111 -1.4260 -0.3621
  172MOL0     H23219  10.527   9.574  11.032  1.7206 -1.9149 -1.3485
  172MOL0     H23220  10.557   9.334  11.022 -4.9019  0.5509 -0.9752
  173MOL0     O23221   0.721   9.163   3.432 -0.2903 -0.6843 -0.2359
  173MOL0     C23222   0.732   9.056   3.488  0.0640  0.8763  1.3301
  173MOL0     O23223   0.750   8.934   3.418  0.4677 -0.6503  0.2045
  173MOL0     C23224   0.720   8.923   3.276 -0.0720 -0.1273  0.0786
  173MOL0     C23225   0.682   8.798   3.233 -0.9975  0.1052  0.5822
  173MOL0     C23226   0.656   8.784   3.095  0.2024  0.1137  0.2204
  173MOL0     C23227   0.670   8.895   3.005  0.2992 -0.7221 -0.5615
  173MOL0     O23228   0.648   8.885   2.872 -0.2691  1.1754  0.5664
  173MOL0     C23229   0.538   8.806   2.831 -0.2674 -0.0784 -0.1959
  173MOL0     C23230   0.497   8.845   2.692 -0.3833  0.2571 -1.2663
  173MOL0     C23231   0.375   8.784   2.633 -0.7892  0.6749  0.0838
  173MOL0     C23232   0.254   8.806   2.712 -0.3481 -0.3144 -0.5492
  173MOL0     C23233   0.116   8.741   2.664  0.9744 -0.7193  0.2840
  173MOL0     C23234   0.114   8.589   2.638 -0.0906  0.8116  0.6387
  173MOL0     C23235  -0.026   8.531   2.604  0.2359  0.1213 -0.3850
  173MOL0     C23236  -0.081   8.478   2.750 -0.6896 -0.1247 -0.3016
  173MOL0     N23237  -0.204   8.409   2.720 -0.1834 -0.3150  0.5959
  173MOL0     C23238  -0.333   8.443   2.692  1.0199  0.0278  0.3748
  173MOL0     C23239  -0.403   8.330   2.664 -0.0343  0.1247  0.8070
  173MOL0     C23240  -0.544   8.321   2.613 -0.2128 -0.1072 -0.3427
  173MOL0     C23241  -0.538   8.284   2.465 -0.9245 -0.1424 -0.3874
  173MOL0     C23242  -0.682   8.311   2.410  0.8308 -0.1351  0.2377
  173MOL0     C23243  -0.684   8.263   2.261  0.5494 -0.5404  0.2199
  173MOL0     O23244  -0.663   8.373   2.164  0.4691 -0.6790  0.3049
  173MOL0     C23245  -0.753   8.469   2.147  1.0645  0.0630 -0.2968
  173MOL0     C23246  -0.717   8.601   2.115  0.5359  0.5447  0.6072
  173MOL0     C23247  -0.807   8.710   2.115 -0.1760 -0.0845 -0.3608
  173MOL0     C23248  -0.754   8.842   2.086 -1.1964 -0.0787  0.5250
  173MOL0     C23249  -0.945   8.691   2.152 -0.1252  0.1102 -0.3719
  173MOL0     C23250  -1.050   8.802   2.174  0.1771  1.0353 -0.1171
  173MOL0     O23251  -1.027   8.921   2.118 -0.2037  0.2034 -0.1821
  173MOL0     C23252  -1.125   9.012   2.128 -1.1306 -0.3678  0.0337
  173MOL0     C23253  -1.238   9.003   2.056  0.4385 -0.6518  0.3909
  173MOL0     C23254  -1.339   9.099   2.070 -1.1937  0.0590 -0.8565
  173MOL0     C23255  -1.320   9.210   2.156 -0.0392 -0.4196  0.3038
  173MOL0     O23256  -1.424   9.282   2.183 -0.6164 -0.3005  0.5570
  173MOL0     C23257  -1.395   9.423   2.183 -0.1875 -0.2629 -1.2205
  173MOL0     C23258  -1.488   9.511   2.094  0.2386  0.9720 -0.1684
  173MOL0     C23259  -1.420   9.641   2.036 -0.5505 -0.0635 -0.1756
  173MOL0     C23260  -1.517   9.716   1.935 -0.4880  0.2442 -0.4029
  173MOL0     C23261  -1.506   9.688   1.779  0.1926 -0.2522  0.0677
  173MOL0     C23262  -1.597   9.799   1.707 -0.1329  0.3179 -0.1026
  173MOL0     C23263  -1.625   9.777   1.555  0.1386  0.2981  0.0348
  173MOL0     C23264  -1.511   9.777   1.449 -0.2831  0.4659  0.4874
  173MOL0    Cl23265  -1.405   9.923   1.439  0.2354 -0.2085  0.1854
  173MOL0     C23266  -1.202   9.221   2.234  0.8023 -0.6274  0.3732
  173MOL0     C23267  -1.110   9.125   2.216 -0.1651  1.2859 -0.9034
  173MOL0     O23268  -1.140   8.777   2.262  0.3545  0.8250 -0.2073
  173MOL0     C23269  -0.985   8.560   2.171  0.4596  0.3803  0.3460
  173MOL0     C23270  -0.894   8.444   2.169 -0.0010 -0.4444 -0.1064
  173MOL0     N23271  -0.318   8.222   2.684 -0.2211 -0.4097 -1.0347
  173MOL0     N23272  -0.199   8.270   2.717 -0.1132  0.6388 -0.9500
  173MOL0     C23273   0.721   9.015   3.049  0.5835  0.1257 -1.2363
  173MOL0     C23274   0.751   9.025   3.184 -0.6294  0.7913 -0.0276
  173MOL0     C23275   0.724   9.052   3.637 -1.3373  0.2194 -0.3577
  173MOL0     C23276   0.795   9.147   3.723  0.3356  0.1985 -0.1449
  173MOL0     C23277   0.782   9.124   3.857 -0.4134 -0.1616 -0.7838
  173MOL0     C23278   0.693   9.033   3.920  0.5444 -0.0413 -0.0683
  173MOL0     O23279   0.692   9.011   4.055  0.0411 -0.2299 -0.4297
  173MOL0     C23280   0.635   9.122   4.129 -0.0730 -0.2361  0.9003
  173MOL0     C23281   0.669   9.094   4.275  0.2180 -0.3586  0.2876
  173MOL0     C23282   0.530   9.084   4.355  0.0732  0.1788 -0.3709
  173MOL0     C23283   0.531   9.065   4.502 -0.0968  0.0304 -0.9576
  173MOL0     C23284   0.646   8.987   4.547 -0.5908 -0.7345 -0.3833
  173MOL0     C23285   0.749   8.938   4.602 -0.2404 -0.5666  0.0034
  173MOL0     C23286   0.618   8.949   3.835  0.1497  0.1431 -0.3141
  173MOL0     C23287   0.635   8.953   3.692  0.1430 -0.0540  0.2640
  173MOL0     H23288   0.665   8.726   3.313 -0.3207  0.1514  0.7748
  173MOL0     H23289   0.630   8.685   3.058  0.7975 -0.6510  1.7748
  173MOL0     H23290   0.556   8.698   2.832  2.9341  0.3467  2.4375
  173MOL0     H23291   0.464   8.834   2.907  2.5607 -0.7733  3.0548
  173MOL0     H23292   0.473   8.951   2.686 -0.9798  0.2684  0.6231
  173MOL0     H23293   0.585   8.825   2.630  1.2479  0.1960  0.9542
  173MOL0     H23294   0.353   8.834   2.539 -0.2753 -2.6200 -1.9538
  173MOL0     H23295   0.391   8.679   2.610 -0.9194  0.4503  0.9644
  173MOL0     H23296   0.274   8.768   2.813  2.7463  1.3501 -0.4156
  173MOL0     H23297   0.240   8.914   2.725  2.2858  0.1499 -0.9730
  173MOL0     H23298   0.046   8.759   2.745  2.6744  5.0017  0.9086
  173MOL0     H23299   0.085   8.798   2.576  1.1214  1.2808  1.4838
  173MOL0     H23300   0.181   8.565   2.555 -0.6565 -2.0786  0.9250
  173MOL0     H23301   0.153   8.537   2.726 -0.7624 -0.1331  0.3942
  173MOL0     H23302  -0.093   8.609   2.567  0.2249  1.0792  1.5301
  173MOL0     H23303  -0.019   8.446   2.536 -2.1848 -0.1031 -0.4502
  173MOL0     H23304  -0.125   8.556   2.814 -1.4641 -0.0587 -0.9031
  173MOL0     H23305  -0.013   8.420   2.813 -1.1216  2.9962  3.4341
  173MOL0     H23306  -0.362   8.547   2.678  1.5376  0.2815  1.0903
  173MOL0     H23307  -0.604   8.242   2.659 -0.8211  0.8324  0.4917
  173MOL0     H23308  -0.593   8.418   2.618 -2.5928 -1.2535 -0.0450
  173MOL0     H23309  -0.504   8.181   2.449 -0.9378 -0.4318  1.3010
  173MOL0     H23310  -0.465   8.346   2.412 -1.0569 -0.4035 -0.8890
  173MOL0     H23311  -0.708   8.416   2.400 -0.0470 -0.5148 -2.3552
  173MOL0     H23312  -0.758   8.244   2.452 -0.0675  0.2644 -0.7133
  173MOL0     H23313  -0.777   8.213   2.233 -0.7066  0.2617  2.6894
  173MOL0     H23314  -0.608   8.186   2.255  1.1843  0.1493 -1.2265
  173MOL0     H23315  -0.611   8.621   2.098  0.9404 -2.4977 -1.1846
  173MOL0     H23316  -0.821   8.896   2.018 -1.2459  1.0781  1.4564
  173MOL0     H23317  -0.757   8.898   2.179 -0.4252  1.6154 -0.4315
  173MOL0     H23318  -0.652   8.842   2.046 -0.6412 -0.7064  1.8907
  173MOL0     H23319  -1.237   8.916   1.992  1.7411  2.1463 -3.8325
  173MOL0     H23320  -1.433   9.086   2.018 -1.1455 -0.6716 -0.7593
  173MOL0     H23321  -1.399   9.455   2.288 -1.4244 -1.7546 -0.7705
  173MOL0     H23322  -1.293   9.447   2.154 -1.1683  4.4585 -1.6099
  173MOL0     H23323  -1.510   9.441   2.013 -2.3384  2.7014 -1.1088
  173MOL0     H23324  -1.580   9.538   2.148 -0.6127 -3.4536  1.0441
  173MOL0     H23325  -1.326   9.619   1.983 -0.1710  1.6698 -0.3172
  173MOL0     H23326  -1.391   9.704   2.121  1.0365 -2.5758  1.2659
  173MOL0     H23327  -1.622   9.717   1.966  0.2181  0.7179  2.1771
  173MOL0     H23328  -1.489   9.821   1.947  1.1140 -0.2346  0.2161
  173MOL0     H23329  -1.533   9.586   1.752  2.6094 -0.9354  0.0413
  173MOL0     H23330  -1.401   9.703   1.754  0.7693  0.8229  2.7440
  173MOL0     H23331  -1.694   9.797   1.757  1.6782  1.1933  3.7982
  173MOL0     H23332  -1.543   9.894   1.713  1.4386 -0.6109  1.7110
  173MOL0     H23333  -1.696   9.852   1.519 -1.2144 -0.8992  0.0711
  173MOL0     H23334  -1.675   9.679   1.555  0.0071  0.3641 -0.1829
  173MOL0     H23335  -1.554   9.752   1.351 -0.2918 -3.5835  1.3628
  173MOL0     H23336  -1.438   9.700   1.476 -0.4664  0.4274  0.8802
  173MOL0     H23337  -1.204   9.278   2.326 -2.3659 -0.2717  0.2123
  173MOL0     H23338  -1.023   9.124   2.280 -0.6339  2.8946 -0.2030
  173MOL0     H23339  -1.091   8.540   2.184  1.0143 -3.2632  0.2125
  173MOL0     H23340  -0.935   8.345   2.188 -1.7972  0.5407  1.4821
  173MOL0     H23341   0.732   9.100   2.983 -0.2484  1.9118  0.8014
  173MOL0     H23342   0.782   9.124   3.218  0.3769  0.6055 -0.3820
  173MOL0     H23343   0.858   9.223   3.679  0.1354  1.1693  1.1794
  173MOL0     H23344   0.849   9.178   3.924 -3.8490  3.4469  0.1856
  173MOL0     H23345   0.680   9.220   4.111 -1.8315  0.4670  0.1387
  173MOL0     H23346   0.528   9.136   4.113  0.2490  0.3850 -0.8372
  173MOL0     H23347   0.726   9.173   4.325  0.1535  0.1653 -0.4584
  173MOL0     H23348   0.734   9.009   4.297  3.5300  2.8974  5.1561
  173MOL0     H23349   0.479   9.005   4.297 -1.1976 -0.6120  1.7198
  173MOL0     H23350   0.467   9.173   4.345 -0.8962 -0.0303  2.7963
  173MOL0     H23351   0.438   9.024   4.542  1.5373 -1.4391  1.6237
  173MOL0     H23352   0.555   9.159   4.552 -1.5373 -0.2543  0.3450
  173MOL0     H23353   0.835   8.910   4.659 -2.1990  0.4882  3.7926
  173MOL0     H23354   0.536   8.890   3.875  0.3313 -0.7831 -1.2503
  173MOL0     H23355   0.596   8.876   3.627 -0.1276 -0.5097  0.9550
  174MOL0     O23356  11.047  10.173  10.012  0.1284 -0.4379 -0.4089
  174MOL0     C23357  11.040  10.070  10.077 -0.9948  0.8588  0.9364
  174MOL0     O23358  10.940   9.975  10.079 -0.0856  0.7816  0.5584
  174MOL0     C23359  10.808  10.003  10.089 -0.5345  0.5943 -0.9243
  174MOL0     C23360  10.741  10.105  10.019 -0.6746 -0.0819 -0.6789
  174MOL0     C23361  10.598  10.106  10.024 -0.0163  0.0152  0.2444
  174MOL0     C23362  10.529  10.016  10.094  0.2405  0.6485  0.0322
  174MOL0     O23363  10.397  10.028  10.088 -0.6316 -0.4046  0.2754
  174MOL0     C23364  10.309   9.927  10.065 -0.1984  1.0042 -0.6521
  174MOL0     C23365  10.317   9.841   9.932 -0.1887  0.6031  0.2888
  174MOL0     C23366  10.442   9.740   9.914  0.4098  0.2221  0.2800
  174MOL0     C23367  10.431   9.637  10.023  0.7027 -0.9239  0.1299
  174MOL0     C23368  10.555   9.546  10.019  0.0214 -0.7437  0.5179
  174MOL0     C23369  10.535   9.430  10.106 -0.2118 -0.3934  0.5401
  174MOL0     C23370  10.558   9.462  10.256  0.5108 -0.5852  0.7316
  174MOL0     C23371  10.497   9.354  10.346  0.8385  0.3310 -0.2294
  174MOL0     N23372  10.544   9.354  10.483  0.7354 -0.6469 -0.7938
  174MOL0     C23373  10.609   9.250  10.542 -0.3712  0.1195  0.3594
  174MOL0     C23374  10.622   9.288  10.676 -0.5122 -0.5867 -0.2677
  174MOL0     C23375  10.675   9.203  10.788 -0.2878 -0.2161 -0.1428
  174MOL0     C23376  10.790   9.110  10.749  1.2141  0.0240  0.2920
  174MOL0     C23377  10.914   9.181  10.681  0.2960 -0.0081 -0.3477
  174MOL0     C23378  10.982   9.315  10.722 -0.3823 -0.4210  0.2684
  174MOL0     O23379  11.067   9.283  10.829 -0.0692  0.1199 -0.2983
  174MOL0     C23380  11.062   9.329  10.959 -0.1381  0.5755  0.3797
  174MOL0     C23381  10.964   9.414  11.009 -0.0452 -0.8591 -0.2409
  174MOL0     C23382  10.965   9.443  11.153 -1.4799 -0.1130  0.0112
  174MOL0     C23383  10.862   9.547  11.210 -0.6634  0.3361 -1.6339
  174MOL0     C23384  11.067   9.388  11.237  0.1369 -1.1557 -0.4301
  174MOL0     C23385  11.065   9.411  11.387 -0.7897  0.0753  0.1803
  174MOL0     O23386  11.184   9.398  11.444  0.2477 -0.4237  0.1247
  174MOL0     C23387  11.197   9.447  11.569 -0.3448  0.2964 -0.9715
  174MOL0     C23388  11.235   9.579  11.599 -1.2467  0.4990 -0.2113
  174MOL0     C23389  11.270   9.618  11.731 -0.4565  1.5138  0.7184
  174MOL0     C23390  11.280   9.527  11.830 -0.4359  0.4715 -0.1895
  174MOL0     O23391  11.323   9.548  11.958 -0.6263  1.1083 -0.5726
  174MOL0     C23392  11.258   9.659  12.014  0.4403 -0.1715 -0.1711
  174MOL0     C23393  11.282   9.650  12.165  0.1395 -0.5144 -0.9298
  174MOL0     C23394  11.213   9.776  12.227  0.1836  0.0774 -1.4001
  174MOL0     C23395  11.295   9.904  12.197 -0.1114 -0.9815  0.4696
  174MOL0     C23396  11.331   9.981  12.319  0.4179  0.3929  0.2518
  174MOL0     C23397  11.312  10.131  12.292 -0.1784 -0.2612  0.4087
  174MOL0     C23398  11.387  10.226  12.382 -0.2486 -0.7111 -0.4824
  174MOL0     C23399  11.315  10.356  12.391 -0.0858  0.0881  0.0951
  174MOL0    Cl23400  11.371  10.447  12.247 -0.3779 -0.6689 -0.2667
  174MOL0     C23401  11.263   9.393  11.797  0.3322  0.3312  0.1856
  174MOL0     C23402  11.221   9.353  11.675  0.1939 -0.2920  0.3131
  174MOL0     O23403  10.954   9.447  11.438 -0.1326 -0.0676 -0.2688
  174MOL0     C23404  11.166   9.309  11.178  0.0240 -0.0908 -0.2938
  174MOL0     C23405  11.158   9.276  11.046 -0.8400  0.6611  0.9405
  174MOL0     N23406  10.564   9.411  10.694  0.5313  0.5516  0.4128
  174MOL0     N23407  10.531   9.454  10.577  0.1979 -0.5956  0.5424
  174MOL0     C23408  10.594   9.921  10.166 -0.6107  0.1129 -0.2762
  174MOL0     C23409  10.738   9.912  10.164  0.3117 -0.0453  1.4016
  174MOL0     C23410  11.163  10.024  10.148 -0.6386 -0.6127 -0.5420
  174MOL0     C23411  11.278  10.103  10.139  0.0230 -0.1034  0.3373
  174MOL0     C23412  11.394  10.068  10.198 -0.5572 -0.5063  0.6533
  174MOL0     C23413  11.404   9.949  10.267 -0.0383 -0.0314 -0.4417
  174MOL0     O23414  11.520   9.886  10.304 -1.0656  0.2967 -0.7826
  174MOL0     C23415  11.648   9.970  10.294  0.2768 -0.9910  0.2169
  174MOL0     C23416  11.772   9.910  10.367  0.4848 -0.4100  0.3881
  174MOL0     C23417  11.798   9.764  10.332 -0.6120 -0.3600 -0.2520
  174MOL0     C23418  11.908   9.706  10.428 -0.3664  0.7160  0.4873
  174MOL0     C23419  11.966   9.598  10.352 -0.1964 -0.4073 -1.3599
  174MOL0     C23420  12.015   9.520  10.277  0.8816  0.9310  1.2921
  174MOL0     C23421  11.286   9.874  10.288  0.7342  0.5253 -0.8073
  174MOL0     C23422  11.167   9.912  10.228 -0.0530  0.2664 -0.8256
  174MOL0     H23423  10.796  10.178   9.962 -0.5417 -0.5790 -1.2035
  174MOL0     H23424  10.547  10.186   9.971 -1.3832 -0.3258  1.0099
  174MOL0     H23425  10.310   9.862  10.154 -2.6360 -0.3827 -1.5505
  174MOL0     H23426  10.205   9.956  10.080 -0.5527 -0.6078  0.2410
  174MOL0     H23427  10.230   9.775   9.921 -2.0282  3.1728 -2.1801
  174MOL0     H23428  10.308   9.915   9.851 -2.7337 -1.2121 -1.2294
  174MOL0     H23429  10.441   9.682   9.821  2.7247 -0.6647  0.7289
  174MOL0     H23430  10.535   9.798   9.908  0.0449  0.6653 -2.2588
  174MOL0     H23431  10.425   9.684  10.121 -0.7034  1.6046 -1.0821
  174MOL0     H23432  10.339   9.582   9.999  0.1681 -0.6530  1.4861
  174MOL0     H23433  10.564   9.517   9.914 -0.1512  1.2253 -0.0915
  174MOL0     H23434  10.643   9.606  10.046  0.2373 -0.8155 -0.0282
  174MOL0     H23435  10.439   9.384  10.081 -0.2786 -0.7504  1.3967
  174MOL0     H23436  10.609   9.353  10.086 -2.5574 -2.9402  1.0626
  174MOL0     H23437  10.666   9.476  10.272  0.5295 -1.5816  1.5888
  174MOL0     H23438  10.516   9.562  10.276  0.1892  0.5422 -4.3146
  174MOL0     H23439  10.509   9.256  10.300  0.8478 -0.1613  0.7990
  174MOL0     H23440  10.388   9.363  10.358  0.3117 -1.8535 -2.6380
  174MOL0     H23441  10.642   9.154  10.502  0.7475  0.8952 -0.6444
  174MOL0     H23442  10.716   9.276  10.859  0.1000  0.9801 -1.5480
  174MOL0     H23443  10.591   9.150  10.835 -1.2339  1.7776  0.5426
  174MOL0     H23444  10.762   9.021  10.692 -0.2172  0.1432  0.7595
  174MOL0     H23445  10.832   9.052  10.832 -1.4273 -2.6366 -0.0569
  174MOL0     H23446  10.883   9.210  10.580 -2.0483  0.9186  0.5691
  174MOL0     H23447  10.993   9.110  10.656  0.3478  0.3693 -1.3260
  174MOL0     H23448  10.904   9.386  10.751 -1.4023 -0.9434 -1.1173
  174MOL0     H23449  11.051   9.352  10.646 -0.2920  0.6824  0.8597
  174MOL0     H23450  10.882   9.455  10.950  2.2518  1.2247 -2.2323
  174MOL0     H23451  10.780   9.504  11.268 -0.7318  1.9775 -0.4534
  174MOL0     H23452  10.917   9.630  11.255 -0.2653 -1.6410  1.8783
  174MOL0     H23453  10.819   9.590  11.119  1.6401 -2.2844 -4.1991
  174MOL0     H23454  11.225   9.639  11.509  1.2412  1.3438  0.0160
  174MOL0     H23455  11.314   9.715  11.752 -0.0621  1.9938 -1.9579
  174MOL0     H23456  11.293   9.752  11.968 -1.4766 -0.8166 -3.2474
  174MOL0     H23457  11.148   9.656  12.006  0.3448  2.2196 -0.6542
  174MOL0     H23458  11.247   9.552  12.197 -1.8495 -0.3903 -2.5514
  174MOL0     H23459  11.387   9.662  12.194  0.1520 -0.3609 -1.0327
  174MOL0     H23460  11.229   9.758  12.334  0.0457  1.4962 -1.1225
  174MOL0     H23461  11.110   9.785  12.192 -0.0400  1.8145 -0.3671
  174MOL0     H23462  11.385   9.886  12.138 -0.8056 -1.3040 -0.5063
  174MOL0     H23463  11.230   9.966  12.136 -1.9755 -0.0197  3.2258
  174MOL0     H23464  11.434   9.955  12.345  0.2769 -1.9406 -1.2312
  174MOL0     H23465  11.266   9.953  12.403  0.8262  1.1858  0.8511
  174MOL0     H23466  11.333  10.157  12.188 -4.9811  0.5801 -0.5957
  174MOL0     H23467  11.205  10.154  12.296 -0.0196  0.2934  2.3305
  174MOL0     H23468  11.492  10.235  12.351  0.0160 -0.0519  0.5295
  174MOL0     H23469  11.397  10.175  12.479 -0.8800  0.8372  0.4371
  174MOL0     H23470  11.351  10.408  12.481  2.1653 -0.3697 -0.4777
  174MOL0     H23471  11.206  10.349  12.393 -0.1479 -0.0137  3.9718
  174MOL0     H23472  11.288   9.311  11.865 -2.4184  0.4020  1.3903
  174MOL0     H23473  11.218   9.248  11.645  0.9239  0.0861 -1.2051
  174MOL0     H23474  11.248   9.275  11.241 -2.3514 -0.5985  2.7957
  174MOL0     H23475  11.231   9.204  11.011 -1.1334  1.1531 -0.8264
  174MOL0     H23476  10.533   9.862  10.234 -0.1291  0.4700  0.4751
  174MOL0     H23477  10.786   9.839  10.228 -2.8949 -2.5380  1.1630
  174MOL0     H23478  11.269  10.192  10.077 -3.2690 -0.7204 -0.2728
  174MOL0     H23479  11.481  10.129  10.178 -1.6443  0.9033  0.0750
  174MOL0     H23480  11.676   9.968  10.188 -0.3025 -1.6562  0.0754
  174MOL0     H23481  11.627  10.074  10.322 -0.4339 -0.3469 -2.4018
  174MOL0     H23482  11.753   9.933  10.473  2.7660  1.7168  0.4285
  174MOL0     H23483  11.855   9.974  10.337 -1.6571  3.2466  1.4691
  174MOL0     H23484  11.838   9.765  10.230  0.3989  1.7208  0.0979
  174MOL0     H23485  11.701   9.715  10.328 -1.1300  0.5311  0.8488
  174MOL0     H23486  11.861   9.672  10.521 -0.8611 -0.5149 -0.1943
  174MOL0     H23487  11.989   9.776  10.452  0.1979 -0.0776  0.9303
  174MOL0     H23488  12.071   9.449  10.220 -0.6039  1.2356 -0.6331
  174MOL0     H23489  11.295   9.778  10.338  3.4235 -0.1258 -2.3684
  174MOL0     H23490  11.079   9.848  10.225 -0.3867  0.7007 -0.4234
  175MOL0     O23491   7.290   0.290   1.806  0.3866  0.5099 -0.5353
  175MOL0     C23492   7.267   0.346   1.909  0.4138 -0.1300  0.3433
  175MOL0     O23493   7.223   0.293   2.027 -0.6928 -0.4982  0.4519
  175MOL0     C23494   7.206   0.163   2.052 -0.6975  0.6854  0.6971
  175MOL0     C23495   7.252   0.043   1.990 -0.2908  0.1749  0.1360
  175MOL0     C23496   7.210  -0.085   2.020 -0.9192 -0.6072  0.5049
  175MOL0     C23497   7.114  -0.102   2.114  0.0071 -0.4845 -0.3048
  175MOL0     O23498   7.075  -0.223   2.158  0.3095 -0.2612 -0.8289
  175MOL0     C23499   7.117  -0.341   2.083 -0.1006 -0.2727 -0.0225
  175MOL0     C23500   7.031  -0.458   2.115 -1.1859  0.1785 -0.4627
  175MOL0     C23501   7.083  -0.588   2.051  0.4229 -0.1977 -0.1075
  175MOL0     C23502   6.978  -0.701   2.047  0.5976  0.3915 -0.4785
  175MOL0     C23503   7.047  -0.818   1.987  0.7517  0.0608 -0.3380
  175MOL0     C23504   6.984  -0.954   2.004 -0.5401  0.1397 -0.1560
  175MOL0     C23505   6.883  -0.982   1.889  0.8922  0.6359  0.2979
  175MOL0     C23506   6.797  -1.109   1.906  0.0508 -0.5567 -1.4646
  175MOL0     N23507   6.870  -1.238   1.888  0.2415 -0.9283 -1.2628
  175MOL0     C23508   6.911  -1.294   1.769  0.2240  1.2185 -0.4405
  175MOL0     C23509   7.002  -1.383   1.805 -0.6810  0.7426  0.4063
  175MOL0     C23510   7.069  -1.484   1.709 -0.2863 -0.7793 -0.5859
  175MOL0     C23511   7.225  -1.460   1.694  0.2622  0.1961  0.1537
  175MOL0     C23512   7.293  -1.568   1.613 -0.4390 -0.4445 -0.1794
  175MOL0     C23513   7.441  -1.603   1.647  0.3326  0.6539 -0.8044
  175MOL0     O23514   7.468  -1.741   1.606  0.2623 -0.2268  0.1510
  175MOL0     C23515   7.409  -1.849   1.666 -0.5729 -0.3535 -0.7000
  175MOL0     C23516   7.342  -1.841   1.789  0.1206  0.5390  0.2923
  175MOL0     C23517   7.292  -1.952   1.852  0.3776  0.0844 -0.5356
  175MOL0     C23518   7.258  -1.925   1.994  0.6270 -0.0582 -0.6611
  175MOL0     C23519   7.300  -2.085   1.797 -0.6116 -0.3118  0.4329
  175MOL0     C23520   7.227  -2.208   1.853 -0.7160 -1.5614 -0.2162
  175MOL0     O23521   7.153  -2.198   1.978 -0.0494 -0.4264 -0.3637
  175MOL0     C23522   7.107  -2.312   2.032  0.6835 -0.1919 -0.5109
  175MOL0     C23523   7.153  -2.348   2.153  0.0305 -0.1951 -0.3987
  175MOL0     C23524   7.125  -2.464   2.220 -0.0879  0.6491 -0.1301
  175MOL0     C23525   7.053  -2.565   2.160 -0.3970 -0.3091  0.1065
  175MOL0     O23526   7.030  -2.684   2.213  0.2227  0.0519 -0.1412
  175MOL0     C23527   6.924  -2.677   2.309 -0.3642 -0.0744  0.4250
  175MOL0     C23528   6.956  -2.594   2.439  0.5086  0.0493  0.5270
  175MOL0     C23529   7.092  -2.633   2.502 -0.5469  0.4139 -0.6423
  175MOL0     C23530   7.089  -2.728   2.619  0.2224  0.0650 -0.5282
  175MOL0     C23531   7.217  -2.747   2.698 -0.3568 -0.5299 -1.1261
  175MOL0     C23532   7.211  -2.876   2.797  0.4025 -0.2947  0.4033
  175MOL0     C23533   7.346  -2.913   2.856  0.9309  0.4491 -0.1039
  175MOL0     C23534   7.335  -3.022   2.973 -0.1782 -0.4299  0.2023
  175MOL0    Cl23535   7.512  -3.010   3.034  0.3146  0.6297  0.3414
  175MOL0     C23536   6.999  -2.539   2.026 -0.7721  0.2929 -0.2220
  175MOL0     C23537   7.028  -2.407   1.970  0.1509  0.6788  0.6253
  175MOL0     O23538   7.227  -2.304   1.771 -0.2028 -0.4207 -0.2972
  175MOL0     C23539   7.370  -2.093   1.670 -0.0263 -0.2297 -0.0636
  175MOL0     C23540   7.427  -1.980   1.610 -0.8000  0.7415 -0.6608
  175MOL0     N23541   7.020  -1.379   1.946  0.1386  0.6253  0.5884
  175MOL0     N23542   6.936  -1.299   1.997 -0.2143 -0.5180  0.4051
  175MOL0     C23543   7.073   0.011   2.185  0.4268 -0.5337 -0.6419
  175MOL0     C23544   7.115   0.141   2.149  0.3547  0.3707 -0.1365
  175MOL0     C23545   7.284   0.493   1.915 -0.8022 -1.2073 -0.7359
  175MOL0     C23546   7.255   0.563   2.031 -0.3044 -0.5646  0.7360
  175MOL0     C23547   7.249   0.698   2.035  0.5641 -0.4771  0.6663
  175MOL0     C23548   7.270   0.780   1.920  0.0702 -0.5694 -0.6864
  175MOL0     O23549   7.284   0.924   1.938  0.7611  0.2938 -0.5460
  175MOL0     C23550   7.275   1.011   1.830  0.0631  0.5646  0.6737
  175MOL0     C23551   7.387   1.114   1.807 -0.7239 -0.2137 -0.7012
  175MOL0     C23552   7.533   1.058   1.802  0.4173 -0.5165  0.5654
  175MOL0     C23553   7.612   1.146   1.699 -0.5223  0.8986  0.1931
  175MOL0     C23554   7.758   1.125   1.712 -0.5732 -0.2633 -0.5300
  175MOL0     C23555   7.872   1.091   1.729 -0.6250  0.1730 -0.1701
  175MOL0     C23556   7.308   0.715   1.798 -0.6058  1.3529 -0.4000
  175MOL0     C23557   7.309   0.572   1.795  0.9196 -0.1539 -0.0903
  175MOL0     H23558   7.297   0.054   1.892 -1.1790  1.1986 -0.1747
  175MOL0     H23559   7.249  -0.167   1.960  0.3411 -3.6533  4.9727
  175MOL0     H23560   7.118  -0.326   1.975 -0.3677 -0.4553 -0.0504
  175MOL0     H23561   7.219  -0.364   2.115  0.3396 -0.5696 -1.5789
  175MOL0     H23562   7.024  -0.469   2.224  0.5815 -1.0187 -0.4399
  175MOL0     H23563   6.926  -0.436   2.091 -0.9913  0.4369 -1.0971
  175MOL0     H23564   7.121  -0.569   1.950  0.5542  1.0949  0.1674
  175MOL0     H23565   7.161  -0.622   2.118 -0.8992 -1.6768  0.7498
  175MOL0     H23566   6.944  -0.714   2.150 -0.8863 -0.9369 -1.1084
  175MOL0     H23567   6.884  -0.674   1.998 -1.2020 -3.0072  0.8274
  175MOL0     H23568   7.064  -0.796   1.882  1.3840  0.4951 -0.1509
  175MOL0     H23569   7.149  -0.813   2.028  0.9387 -2.0541 -0.4086
  175MOL0     H23570   7.059  -1.033   1.996  0.1572  0.6778  0.7527
  175MOL0     H23571   6.955  -0.970   2.109  3.1739  4.6058  1.9067
  175MOL0     H23572   6.816  -0.896   1.888  1.3184  0.9808  0.9438
  175MOL0     H23573   6.939  -0.989   1.795 -2.8507  5.7509 -2.8632
  175MOL0     H23574   6.718  -1.109   1.831 -1.0504 -3.2266 -0.4214
  175MOL0     H23575   6.743  -1.101   2.001 -0.2954  1.4125 -1.7760
  175MOL0     H23576   6.866  -1.282   1.671  0.5764 -0.4229 -0.8236
  175MOL0     H23577   7.044  -1.586   1.740  0.2368 -1.4854 -2.4072
  175MOL0     H23578   7.013  -1.467   1.617 -2.5264 -1.8881  0.4688
  175MOL0     H23579   7.271  -1.470   1.792  1.8450 -0.0866 -0.5772
  175MOL0     H23580   7.266  -1.366   1.656  1.6747 -0.3197  0.3407
  175MOL0     H23581   7.288  -1.533   1.509  1.4152 -1.9888 -0.8600
  175MOL0     H23582   7.233  -1.660   1.610 -0.9596 -0.2749  2.6913
  175MOL0     H23583   7.458  -1.592   1.754 -2.2040  0.0743 -0.2828
  175MOL0     H23584   7.494  -1.533   1.582  2.3545  0.7151  0.8031
  175MOL0     H23585   7.332  -1.744   1.837  0.8957  0.4418  0.6668
  175MOL0     H23586   7.285  -2.007   2.062 -1.7077 -0.8332 -0.5528
  175MOL0     H23587   7.306  -1.833   2.029 -0.2693 -0.2773  1.3280
  175MOL0     H23588   7.150  -1.910   2.006  0.5688 -0.9018 -0.0119
  175MOL0     H23589   7.225  -2.282   2.202 -1.1096  0.2184  0.8022
  175MOL0     H23590   7.178  -2.490   2.312  1.0011 -0.4941 -1.0344
  175MOL0     H23591   6.832  -2.640   2.263 -0.1841 -0.1004  0.0409
  175MOL0     H23592   6.902  -2.781   2.335  0.4459 -0.3990 -0.1693
  175MOL0     H23593   6.957  -2.489   2.408  0.8830 -0.7156 -2.3447
  175MOL0     H23594   6.878  -2.593   2.516  1.4623  3.3840  1.6019
  175MOL0     H23595   7.136  -2.537   2.530 -1.2298  0.4124  0.4767
  175MOL0     H23596   7.155  -2.673   2.421 -4.0197 -2.3774 -2.2611
  175MOL0     H23597   7.022  -2.692   2.698  1.7543 -2.2898  2.0303
  175MOL0     H23598   7.058  -2.828   2.589  0.1632  0.4646 -1.8264
  175MOL0     H23599   7.230  -2.656   2.757  0.1165  0.4050 -2.6147
  175MOL0     H23600   7.296  -2.751   2.622 -3.0938  2.9857 -4.5084
  175MOL0     H23601   7.143  -2.840   2.875  0.3412  0.1692  0.1380
  175MOL0     H23602   7.165  -2.963   2.749  1.4157 -0.1282 -0.9255
  175MOL0     H23603   7.382  -2.816   2.891 -1.2262  3.1155 -4.3657
  175MOL0     H23604   7.410  -2.949   2.775  0.3707  1.6364 -1.1100
  175MOL0     H23605   7.319  -3.126   2.944 -1.5213 -0.1140 -0.2526
  175MOL0     H23606   7.253  -3.009   3.044  0.3567 -1.0341  0.9509
  175MOL0     H23607   6.944  -2.612   1.967  0.2227 -0.2040 -0.5764
  175MOL0     H23608   6.982  -2.385   1.874 -1.2106  0.0402  1.1040
  175MOL0     H23609   7.392  -2.186   1.619  0.9371  1.3363 -2.7211
  175MOL0     H23610   7.477  -1.995   1.515  0.0205 -2.3299  0.1430
  175MOL0     H23611   7.019  -0.013   2.276  3.4765 -5.2155  0.2771
  175MOL0     H23612   7.087   0.222   2.216  0.4302 -0.3308  0.7687
  175MOL0     H23613   7.232   0.515   2.125  0.4421  3.1292  3.0353
  175MOL0     H23614   7.226   0.740   2.132 -1.9024 -1.8268  0.7651
  175MOL0     H23615   7.286   0.957   1.735  0.5378  3.4711 -1.0286
  175MOL0     H23616   7.173   1.050   1.823 -1.1763 -2.2863  1.1374
  175MOL0     H23617   7.374   1.177   1.895 -4.1530  1.9924 -2.5470
  175MOL0     H23618   7.356   1.167   1.716 -0.2975  0.0854 -0.6717
  175MOL0     H23619   7.537   0.955   1.766 -0.0123 -0.5641  0.6476
  175MOL0     H23620   7.569   1.057   1.905 -1.1227 -0.7424  1.1232
  175MOL0     H23621   7.587   1.250   1.724 -2.8836  0.1388  1.2123
  175MOL0     H23622   7.577   1.112   1.602  0.9558 -1.6557  0.4537
  175MOL0     H23623   7.974   1.058   1.731 -1.2236 -1.7638  0.2384
  175MOL0     H23624   7.332   0.768   1.707  1.3402  2.4182  0.6533
  175MOL0     H23625   7.329   0.515   1.705  2.4962 -0.7986  0.6284
  176MOL0     O23626   8.954   4.107   7.409  0.3419 -0.3771 -0.4921
  176MOL0     C23627   8.862   4.030   7.424  1.2537  0.4935 -0.4498
  176MOL0     O23628   8.733   4.056   7.407 -0.9715  0.4593  0.4201
  176MOL0     C23629   8.692   4.177   7.348  0.0035  0.0228  0.7714
  176MOL0     C23630   8.732   4.296   7.402  0.5309  0.0471  0.0475
  176MOL0     C23631   8.704   4.413   7.343  0.2017 -0.4709  0.5104
  176MOL0     C23632   8.604   4.419   7.243 -0.1629  0.7526 -0.5596
  176MOL0     O23633   8.585   4.541   7.191 -0.2345  0.6310  0.4467
  176MOL0     C23634   8.473   4.569   7.099  1.0831  0.4594  0.2088
  176MOL0     C23635   8.445   4.709   7.056  0.3647 -0.9443  0.4951
  176MOL0     C23636   8.581   4.791   7.052  0.2059  1.0322 -0.3852
  176MOL0     C23637   8.581   4.893   6.929  0.4681 -0.2320 -0.2003
  176MOL0     C23638   8.669   5.015   6.927 -1.0071 -0.2866 -0.6711
  176MOL0     C23639   8.672   5.094   6.796  0.6010  0.1158  0.0972
  176MOL0     C23640   8.540   5.159   6.750  0.2500  0.6767  0.0005
  176MOL0     C23641   8.545   5.219   6.611 -0.2086 -0.5548  0.5196
  176MOL0     N23642   8.655   5.321   6.591  0.1463  0.7456  0.8061
  176MOL0     C23643   8.760   5.289   6.511  0.0056  0.8804  0.1490
  176MOL0     C23644   8.819   5.417   6.502 -0.2435  0.2222  0.3707
  176MOL0     C23645   8.954   5.438   6.436 -0.1060  0.0543 -0.7032
  176MOL0     C23646   9.069   5.460   6.539 -0.7110 -0.4756  0.0385
  176MOL0     C23647   9.203   5.413   6.493 -0.2973 -0.4922  0.7892
  176MOL0     C23648   9.306   5.425   6.594  0.2264 -0.0332 -0.7997
  176MOL0     O23649   9.323   5.568   6.616 -0.2096 -0.3655  0.2858
  176MOL0     C23650   9.414   5.627   6.697 -0.2980  0.0421  0.4798
  176MOL0     C23651   9.516   5.555   6.759 -0.5492  0.0145 -0.4072
  176MOL0     C23652   9.613   5.609   6.848 -0.6130 -0.9014 -0.5229
  176MOL0     C23653   9.716   5.509   6.898  0.0428  0.6571 -0.4694
  176MOL0     C23654   9.608   5.747   6.875  0.0579  0.2092  0.1073
  176MOL0     C23655   9.721   5.817   6.946 -0.3997 -0.3286 -0.3303
  176MOL0     O23656   9.707   5.951   6.982  0.4228 -0.1845  1.4106
  176MOL0     C23657   9.778   5.992   7.092  0.5317  0.5771 -0.1819
  176MOL0     C23658   9.913   6.030   7.070  0.2349 -0.3034  0.3753
  176MOL0     C23659  10.000   6.074   7.170 -0.7527 -0.6969 -0.5907
  176MOL0     C23660   9.963   6.074   7.301  0.9377 -0.8851  0.2994
  176MOL0     O23661  10.053   6.113   7.397 -0.1059 -0.2770 -1.0719
  176MOL0     C23662  10.062   6.023   7.507  0.8504 -0.5007  0.3780
  176MOL0     C23663  10.176   5.920   7.488 -0.6353  0.2013  0.3343
  176MOL0     C23664  10.305   5.981   7.519  0.5991  0.0125 -0.0385
  176MOL0     C23665  10.425   5.929   7.440 -0.1530  1.3592 -0.4154
  176MOL0     C23666  10.471   5.783   7.477  0.4760 -1.3726  0.7963
  176MOL0     C23667  10.564   5.742   7.353  0.6063  0.7870  0.5630
  176MOL0     C23668  10.695   5.811   7.360 -0.4566 -0.1346 -0.1345
  176MOL0     C23669  10.811   5.711   7.316 -0.1301 -0.6988  0.4287
  176MOL0    Cl23670  10.759   5.613   7.175  0.4004 -0.0103 -0.2582
  176MOL0     C23671   9.822   6.059   7.319 -0.5724 -1.0796  0.4256
  176MOL0     C23672   9.734   6.024   7.222 -0.0349  1.1353  0.8807
  176MOL0     O23673   9.820   5.750   6.977 -0.5119  0.1537 -0.5948
  176MOL0     C23674   9.500   5.826   6.818  0.6760  0.9040  0.1725
  176MOL0     C23675   9.400   5.761   6.737  0.6516  0.1341  0.2319
  176MOL0     N23676   8.756   5.504   6.581  0.2808 -0.7065  0.4321
  176MOL0     N23677   8.656   5.440   6.635 -0.0975 -0.9680 -0.2832
  176MOL0     C23678   8.535   4.305   7.200  0.1881  0.3918 -0.3989
  176MOL0     C23679   8.585   4.185   7.252 -0.2061 -0.7734 -0.1335
  176MOL0     C23680   8.882   3.895   7.482  0.3484 -0.8127  1.3496
  176MOL0     C23681   9.004   3.856   7.541  0.4536 -0.1167 -0.2016
  176MOL0     C23682   9.011   3.731   7.606 -0.3767  0.7023 -0.1148
  176MOL0     C23683   8.911   3.641   7.592  0.0012 -0.0773  0.1042
  176MOL0     O23684   8.915   3.522   7.654 -0.3809  0.0798 -0.1400
  176MOL0     C23685   8.965   3.519   7.793 -0.5509 -0.3786  0.7295
  176MOL0     C23686   8.897   3.430   7.883 -0.1358 -0.3081  0.7009
  176MOL0     C23687   8.747   3.472   7.911  0.3626  0.0792  0.1441
  176MOL0     C23688   8.641   3.352   7.919  0.0733 -0.4793 -0.1718
  176MOL0     C23689   8.503   3.402   7.922 -0.5517 -0.7388 -0.7516
  176MOL0     C23690   8.395   3.438   7.956  0.1982 -0.0775  0.3228
  176MOL0     C23691   8.793   3.671   7.521 -0.0557 -0.4317  0.8981
  176MOL0     C23692   8.778   3.796   7.466 -0.6245 -0.3650 -0.3048
  176MOL0     H23693   8.785   4.291   7.497 -0.1331 -0.7918  0.3888
  176MOL0     H23694   8.749   4.505   7.381 -2.1651  0.6974  0.6661
  176MOL0     H23695   8.489   4.512   7.008  2.3860 -0.6469  1.0824
  176MOL0     H23696   8.383   4.524   7.142  1.0583  2.1754  2.1597
  176MOL0     H23697   8.408   4.701   6.954 -0.0242 -1.4581  0.6738
  176MOL0     H23698   8.372   4.766   7.115  1.0004  2.0513 -1.3535
  176MOL0     H23699   8.587   4.856   7.140  0.5480  2.4507 -1.4188
  176MOL0     H23700   8.662   4.721   7.034 -0.3705  0.0784  0.5970
  176MOL0     H23701   8.606   4.834   6.840 -0.3247 -0.7364 -0.1085
  176MOL0     H23702   8.478   4.929   6.925  0.3346 -0.0442  2.8113
  176MOL0     H23703   8.636   5.085   7.005 -2.6680  0.4873 -2.0114
  176MOL0     H23704   8.772   4.983   6.949 -1.9642 -4.6952 -1.6460
  176MOL0     H23705   8.754   5.167   6.796 -0.1663  1.0059 -0.0522
  176MOL0     H23706   8.707   5.020   6.724  1.7130 -0.5118  1.2509
  176MOL0     H23707   8.465   5.081   6.737 -0.9936  2.0259 -1.2879
  176MOL0     H23708   8.512   5.230   6.828  1.1684  1.7402 -0.5944
  176MOL0     H23709   8.449   5.268   6.595  0.0434 -0.8376 -2.4202
  176MOL0     H23710   8.568   5.153   6.527  1.5711  1.2745 -0.5503
  176MOL0     H23711   8.789   5.196   6.462 -1.7700  0.2455  0.2485
  176MOL0     H23712   8.980   5.343   6.389  0.1492 -0.9221  1.3201
  176MOL0     H23713   8.954   5.509   6.352 -3.0613 -2.1643 -2.8129
  176MOL0     H23714   9.040   5.418   6.635 -0.7937 -1.6025 -0.4648
  176MOL0     H23715   9.080   5.569   6.548 -4.0369 -0.1022  0.7830
  176MOL0     H23716   9.249   5.462   6.407  3.7266 -0.6880  2.6033
  176MOL0     H23717   9.203   5.305   6.474 -0.8895 -0.4865  0.7475
  176MOL0     H23718   9.401   5.381   6.565  1.3248  1.1155  0.8882
  176MOL0     H23719   9.271   5.371   6.683 -1.0861 -1.0751 -1.8828
  176MOL0     H23720   9.529   5.450   6.735  0.9672  0.2026 -0.5563
  176MOL0     H23721   9.701   5.406   6.864  0.1839  0.4643  0.0435
  176MOL0     H23722   9.812   5.544   6.859  1.1593 -0.1082  1.4272
  176MOL0     H23723   9.732   5.513   7.006  3.1656  2.0709 -0.8833
  176MOL0     H23724   9.949   6.022   6.968  0.5632 -0.2855  0.4877
  176MOL0     H23725  10.095   6.109   7.132 -1.0679  0.0374 -0.7228
  176MOL0     H23726  10.061   6.089   7.594 -1.4754 -0.4950  0.4146
  176MOL0     H23727   9.972   5.961   7.512 -1.9084  3.1953  0.9179
  176MOL0     H23728  10.151   5.824   7.533 -3.1255  0.8656  0.5594
  176MOL0     H23729  10.183   5.896   7.382  0.6333 -4.9793  1.3200
  176MOL0     H23730  10.322   5.963   7.626 -1.1393  2.7006  0.7859
  176MOL0     H23731  10.289   6.089   7.509 -2.3435 -0.4304 -1.0018
  176MOL0     H23732  10.386   5.942   7.339 -1.0120  2.9215  0.0758
  176MOL0     H23733  10.508   5.999   7.448  1.0618  0.3781 -3.3911
  176MOL0     H23734  10.382   5.720   7.486 -1.7306  1.3759  0.0456
  176MOL0     H23735  10.527   5.784   7.570  4.5307 -0.2601 -1.4184
  176MOL0     H23736  10.578   5.635   7.369  2.0735  0.6261 -1.4277
  176MOL0     H23737  10.521   5.761   7.254 -0.4658 -1.4089  0.5568
  176MOL0     H23738  10.720   5.857   7.456 -0.7105 -0.1097 -0.0811
  176MOL0     H23739  10.718   5.883   7.280  0.2248  2.7059  2.4120
  176MOL0     H23740  10.827   5.638   7.396  1.3560 -0.9454 -0.0712
  176MOL0     H23741  10.908   5.762   7.308  0.2382 -0.0665  5.4458
  176MOL0     H23742   9.793   6.067   7.423  0.5463 -3.7421  1.0294
  176MOL0     H23743   9.629   6.002   7.241  0.7098 -5.2360 -0.1427
  176MOL0     H23744   9.500   5.929   6.854 -2.3308  1.2596 -0.5844
  176MOL0     H23745   9.333   5.830   6.686 -0.0202 -0.1744  0.6893
  176MOL0     H23746   8.465   4.304   7.117 -1.1340  3.9185  0.5176
  176MOL0     H23747   8.549   4.089   7.216 -2.4081 -0.8845  2.0411
  176MOL0     H23748   9.075   3.937   7.553  0.9893 -0.5448 -0.4088
  176MOL0     H23749   9.097   3.718   7.672  0.0356  0.0798 -0.7594
  176MOL0     H23750   9.067   3.481   7.799 -1.1116 -1.8915  1.1137
  176MOL0     H23751   8.959   3.620   7.834  0.4623  0.3772 -0.8999
  176MOL0     H23752   8.941   3.434   7.983  2.7684 -0.6660 -0.4815
  176MOL0     H23753   8.908   3.327   7.847 -0.4741 -0.2406  0.4047
  176MOL0     H23754   8.726   3.539   7.827  2.0667 -1.6538 -1.7907
  176MOL0     H23755   8.755   3.532   8.002 -1.7591  0.4296  0.1439
  176MOL0     H23756   8.658   3.296   8.011  3.7260  1.6046  0.6433
  176MOL0     H23757   8.666   3.298   7.827 -0.4633  0.7839 -1.0860
  176MOL0     H23758   8.298   3.478   7.977 -0.3280 -1.1882  0.1013
  176MOL0     H23759   8.711   3.605   7.497  1.5476 -1.6353 -1.6981
  176MOL0     H23760   8.685   3.805   7.410  0.0653 -2.1005 -1.8582
  177MOL0     O23761   6.330   9.757   6.831  0.1819  0.0556  0.0700
  177MOL0     C23762   6.379   9.779   6.723  0.0529  1.0553  1.1584
  177MOL0     O23763   6.510   9.751   6.694 -0.6704 -0.3142  0.3416
  177MOL0     C23764   6.609   9.727   6.794 -0.5286 -0.5386 -0.0044
  177MOL0     C23765   6.604   9.787   6.920 -0.9096  0.3160  0.1759
  177MOL0     C23766   6.683   9.746   7.031 -0.5105  0.0739  0.8562
  177MOL0     C23767   6.780   9.645   7.005  0.3003  0.3162 -0.0804
  177MOL0     O23768   6.867   9.595   7.097  0.7186 -0.0482 -0.2557
  177MOL0     C23769   6.942   9.699   7.166  0.1392 -0.2789  0.3985
  177MOL0     C23770   6.911   9.688   7.312  0.0977  1.0665 -0.5054
  177MOL0     C23771   6.995   9.579   7.372  0.8196  0.6562 -0.6561
  177MOL0     C23772   6.936   9.529   7.511 -0.0752 -0.3902  0.1110
  177MOL0     C23773   7.009   9.401   7.571  0.2954 -0.4061  0.2928
  177MOL0     C23774   6.941   9.382   7.708  0.5759 -0.9396 -0.1405
  177MOL0     C23775   7.016   9.282   7.797 -0.2665 -0.2679  0.3518
  177MOL0     C23776   6.962   9.141   7.770  0.6943  0.1565  1.1871
  177MOL0     N23777   7.047   9.047   7.851 -0.2353 -0.6165 -0.4356
  177MOL0     C23778   7.094   8.923   7.823  0.6295  0.6766  0.3673
  177MOL0     C23779   7.169   8.873   7.927  1.4832 -0.6013 -0.2793
  177MOL0     C23780   7.233   8.742   7.944 -0.1093 -0.0229  0.0953
  177MOL0     C23781   7.285   8.686   7.811  0.2021  0.9078 -0.6530
  177MOL0     C23782   7.406   8.771   7.751 -0.0199 -0.5746  0.2310
  177MOL0     C23783   7.519   8.792   7.851 -0.1341 -0.9950  0.3907
  177MOL0     O23784   7.551   8.680   7.925 -0.0368  0.2459 -0.1010
  177MOL0     C23785   7.659   8.707   8.004 -0.2836 -0.2610 -0.5699
  177MOL0     C23786   7.790   8.740   7.954 -0.7753 -1.3610  0.1568
  177MOL0     C23787   7.899   8.763   8.040  0.8296 -0.3728 -0.1279
  177MOL0     C23788   8.034   8.774   7.962  0.2581  0.4413  0.9325
  177MOL0     C23789   7.879   8.768   8.175  0.4722  0.7912 -0.4768
  177MOL0     C23790   7.991   8.783   8.277  0.8918 -0.5954  0.4241
  177MOL0     O23791   7.961   8.783   8.412 -0.3519 -0.1833 -0.0281
  177MOL0     C23792   8.052   8.768   8.514  0.9401 -0.0706 -0.0648
  177MOL0     C23793   8.184   8.735   8.496  0.1914 -0.0865 -0.3259
  177MOL0     C23794   8.260   8.726   8.606 -1.0461 -0.7610 -0.7132
  177MOL0     C23795   8.222   8.737   8.734  0.3406  0.3442  0.3317
  177MOL0     O23796   8.322   8.707   8.831 -0.8187 -0.4828 -0.3505
  177MOL0     C23797   8.321   8.800   8.947 -0.5874  0.5519  0.0121
  177MOL0     C23798   8.469   8.808   9.003 -0.9206  0.7970  0.1512
  177MOL0     C23799   8.548   8.874   8.886  0.2715 -0.5642  0.2994
  177MOL0     C23800   8.685   8.865   8.929  0.1887 -0.0141  0.0424
  177MOL0     C23801   8.778   8.934   8.828 -0.0446  0.3815 -0.3543
  177MOL0     C23802   8.760   9.089   8.826 -0.3684 -0.0588 -0.0511
  177MOL0     C23803   8.882   9.159   8.752  1.3993  1.4089  0.1776
  177MOL0     C23804   9.001   9.136   8.820 -1.1304 -0.0676  0.3286
  177MOL0    Cl23805   9.151   9.219   8.751  0.0438  0.0505  0.0531
  177MOL0     C23806   8.083   8.773   8.758 -0.2173  0.3900  0.1155
  177MOL0     C23807   8.002   8.790   8.645  0.5801 -0.7956  0.3716
  177MOL0     O23808   8.095   8.823   8.225 -0.4993  0.2708  0.6824
  177MOL0     C23809   7.751   8.737   8.228 -0.0906  0.7624  0.2340
  177MOL0     C23810   7.646   8.713   8.143 -0.6837  0.9230  0.2843
  177MOL0     N23811   7.170   8.977   8.026  0.6238 -0.5170 -0.1128
  177MOL0     N23812   7.096   9.074   7.977 -1.0539 -0.3681 -0.9034
  177MOL0     C23813   6.796   9.584   6.882 -0.0126 -0.5843 -0.5154
  177MOL0     C23814   6.704   9.621   6.778 -0.0767  0.3295  0.0204
  177MOL0     C23815   6.282   9.834   6.626  0.9818  0.0114  0.3316
  177MOL0     C23816   6.190   9.929   6.665  0.3471 -0.1881  0.3401
  177MOL0     C23817   6.099   9.991   6.572 -0.7223  0.1799 -0.0347
  177MOL0     C23818   6.106   9.949   6.437  0.9067  0.5097 -0.1518
  177MOL0     O23819   6.027   9.990   6.332  0.7203  0.5314  0.4059
  177MOL0     C23820   5.925  10.083   6.359 -0.5487 -0.0033 -0.4132
  177MOL0     C23821   5.802  10.014   6.407  0.5017  0.1651 -0.9836
  177MOL0     C23822   5.707  10.147   6.445  0.1009  1.0782 -0.1320
  177MOL0     C23823   5.563  10.110   6.477  0.4475 -0.6147  0.3223
  177MOL0     C23824   5.484  10.054   6.362  0.6115  0.0405  0.2693
  177MOL0     C23825   5.414  10.006   6.268 -0.9547  0.1398 -0.2548
  177MOL0     C23826   6.195   9.853   6.401  0.1701  0.2204  0.5434
  177MOL0     C23827   6.284   9.796   6.495  0.5103 -0.7488  0.4000
  177MOL0     H23828   6.521   9.858   6.927 -1.2422  0.1882 -1.8609
  177MOL0     H23829   6.663   9.797   7.124 -4.6580 -3.1297  2.0332
  177MOL0     H23830   7.049   9.688   7.149  0.1411 -0.8128  0.7498
  177MOL0     H23831   6.914   9.801   7.136 -0.1687 -0.0723  1.3438
  177MOL0     H23832   6.941   9.783   7.359  1.1601  0.3527  0.3239
  177MOL0     H23833   6.805   9.672   7.331  0.5706 -1.5096  0.3947
  177MOL0     H23834   6.986   9.500   7.296  1.2834 -0.6064  0.5519
  177MOL0     H23835   7.100   9.609   7.371  0.7665  0.8413 -0.6019
  177MOL0     H23836   6.933   9.614   7.580  1.0438 -0.7796  0.6601
  177MOL0     H23837   6.832   9.494   7.505 -0.1110 -0.2647 -0.0030
  177MOL0     H23838   6.999   9.307   7.515  2.0023 -1.1679  1.2098
  177MOL0     H23839   7.111   9.438   7.590  0.4647 -1.2737  1.1144
  177MOL0     H23840   6.935   9.475   7.765 -1.9971 -0.7088 -0.6615
  177MOL0     H23841   6.834   9.362   7.695  0.1575  0.8720  0.3119
  177MOL0     H23842   7.124   9.294   7.786 -0.3275  0.3387  0.3843
  177MOL0     H23843   6.990   9.315   7.898  1.2865  0.4155  0.5443
  177MOL0     H23844   6.953   9.122   7.662 -4.0551 -0.2452  1.4533
  177MOL0     H23845   6.860   9.138   7.810  0.4073 -0.8079  0.4211
  177MOL0     H23846   7.074   8.872   7.730 -0.2601  2.0781 -0.2571
  177MOL0     H23847   7.309   8.734   8.022  1.1386 -1.9051 -1.2155
  177MOL0     H23848   7.153   8.681   7.989 -1.4475  1.7864  0.2621
  177MOL0     H23849   7.200   8.677   7.743 -0.2220  1.4203 -0.1946
  177MOL0     H23850   7.317   8.585   7.838 -1.5265  0.9312  1.7607
  177MOL0     H23851   7.376   8.870   7.716  1.1157 -0.3666 -0.2325
  177MOL0     H23852   7.445   8.711   7.668 -1.5300 -1.6254  0.2584
  177MOL0     H23853   7.482   8.863   7.926 -2.0327 -3.2043  1.6838
  177MOL0     H23854   7.596   8.836   7.787 -0.9488 -1.7123 -1.1332
  177MOL0     H23855   7.793   8.710   7.849 -3.3638 -2.7356  0.3749
  177MOL0     H23856   8.115   8.705   7.990 -1.4650 -2.5753 -0.9897
  177MOL0     H23857   8.009   8.746   7.859 -2.5894 -2.0884  2.1683
  177MOL0     H23858   8.066   8.879   7.969 -0.8471  0.9005 -0.3970
  177MOL0     H23859   8.233   8.714   8.402 -1.7562 -3.3051 -0.7707
  177MOL0     H23860   8.360   8.685   8.597  0.8437  2.5761  2.5903
  177MOL0     H23861   8.276   8.896   8.919 -0.2716 -0.3947 -4.5240
  177MOL0     H23862   8.252   8.758   9.020 -0.9188  0.4282 -0.3674
  177MOL0     H23863   8.471   8.868   9.095  1.8045 -0.2274  0.8509
  177MOL0     H23864   8.526   8.718   9.027 -1.0277  1.2580  2.2901
  177MOL0     H23865   8.514   8.978   8.878  1.7961  0.0169  0.9275
  177MOL0     H23866   8.523   8.825   8.791 -1.4260 -2.1196  1.4824
  177MOL0     H23867   8.698   8.902   9.031 -4.7042 -1.2164  1.3518
  177MOL0     H23868   8.724   8.764   8.934  1.1029  0.2579 -1.0377
  177MOL0     H23869   8.761   8.887   8.731  0.1902  0.8664 -0.6354
  177MOL0     H23870   8.874   8.893   8.860 -1.6544 -3.8612 -0.3246
  177MOL0     H23871   8.662   9.110   8.781  1.5792 -0.1648 -4.9891
  177MOL0     H23872   8.763   9.135   8.925 -2.1488 -0.2764  0.1465
  177MOL0     H23873   8.859   9.266   8.750  0.1638  1.2711  2.7090
  177MOL0     H23874   8.886   9.122   8.649 -0.5319  0.4888  0.3765
  177MOL0     H23875   9.022   9.029   8.809  0.5699  0.4057 -1.5404
  177MOL0     H23876   8.989   9.156   8.927 -1.1088  0.4945  0.2284
  177MOL0     H23877   8.060   8.787   8.863  0.6152 -2.0919  0.7103
  177MOL0     H23878   7.897   8.815   8.658  0.7319  0.1724 -0.2050
  177MOL0     H23879   7.742   8.745   8.336  4.2571 -0.1122  0.8536
  177MOL0     H23880   7.544   8.691   8.172 -0.3813 -3.0128 -1.0257
  177MOL0     H23881   6.867   9.504   6.863 -0.0125 -0.3114 -1.7509
  177MOL0     H23882   6.710   9.563   6.686  0.7731  1.5749 -0.7223
  177MOL0     H23883   6.186   9.968   6.766 -2.1439  1.3158 -0.2432
  177MOL0     H23884   6.029  10.068   6.603 -1.0677  0.0614 -0.5161
  177MOL0     H23885   5.957  10.162   6.428  1.4263 -0.2322 -0.9961
  177MOL0     H23886   5.900  10.134   6.266 -1.6679 -1.1760 -0.7804
  177MOL0     H23887   5.811   9.952   6.497  0.2291  2.3308  0.6059
  177MOL0     H23888   5.757   9.949   6.330 -1.5862 -0.2245  0.4872
  177MOL0     H23889   5.721  10.212   6.358  1.9737 -1.5537 -1.9747
  177MOL0     H23890   5.751  10.199   6.531  0.7769 -1.8324  1.4273
  177MOL0     H23891   5.513  10.204   6.501  2.0895  0.8932 -1.7091
  177MOL0     H23892   5.564  10.035   6.556 -2.2098 -2.0397 -0.8633
  177MOL0     H23893   5.350   9.954   6.200 -0.3787  0.0684 -0.7487
  177MOL0     H23894   6.206   9.820   6.298  0.3003 -0.0545  0.6437
  177MOL0     H23895   6.369   9.734   6.470  3.5030  3.4482 -0.8906
  178MOL0     O23896  10.951   9.722  10.368 -0.0339 -0.0809 -0.4903
  178MOL0     C23897  10.992   9.608  10.395 -0.1518  0.1455 -0.0950
  178MOL0     O23898  11.042   9.566  10.517  0.1562 -0.7299 -0.4131
  178MOL0     C23899  11.059   9.661  10.611  0.0638 -0.0221  0.4154
  178MOL0     C23900  10.948   9.674  10.694 -0.4384  0.2324  0.4563
  178MOL0     C23901  10.929   9.778  10.777  0.8150  0.3818 -0.3468
  178MOL0     C23902  11.035   9.864  10.802  0.2663  0.6189  0.7191
  178MOL0     O23903  11.030   9.965  10.893 -0.3108  0.4970  0.3183
  178MOL0     C23904  11.083  10.093  10.862  0.4007 -0.3068  0.8144
  178MOL0     C23905  11.031  10.190  10.963 -0.0699  0.7833 -0.6509
  178MOL0     C23906  11.104  10.319  10.962  0.7673 -0.3046  0.5192
  178MOL0     C23907  11.091  10.410  11.078  0.1401  0.2177 -0.9144
  178MOL0     C23908  11.162  10.372  11.207 -0.0487  0.3206  0.4271
  178MOL0     C23909  11.313  10.409  11.211 -0.9468  0.2711 -0.0649
  178MOL0     C23910  11.399  10.347  11.313 -0.2007 -0.1458  0.8651
  178MOL0     C23911  11.364  10.423  11.441  0.7628 -0.5362  0.2619
  178MOL0     N23912  11.398  10.349  11.563 -0.0100 -0.2515  0.7056
  178MOL0     C23913  11.515  10.365  11.625  0.1831  0.5485 -0.4316
  178MOL0     C23914  11.501  10.272  11.718  0.1861  0.2543 -1.2253
  178MOL0     C23915  11.593  10.227  11.829 -0.0673 -0.7251 -0.5337
  178MOL0     C23916  11.544  10.267  11.965 -0.8507  0.5939 -0.3190
  178MOL0     C23917  11.653  10.243  12.066 -0.3655 -0.0167  0.9723
  178MOL0     C23918  11.708  10.107  12.093 -0.3917  0.0639 -0.2444
  178MOL0     O23919  11.779  10.068  11.973 -0.0743 -0.0856 -0.7906
  178MOL0     C23920  11.856   9.952  11.994 -0.4304 -0.7945 -0.9165
  178MOL0     C23921  11.878   9.865  11.889 -0.8876  0.7488  0.5103
  178MOL0     C23922  11.962   9.755  11.889  0.1775  0.6609  0.7734
  178MOL0     C23923  11.980   9.668  11.760  1.2111 -0.8089  0.1232
  178MOL0     C23924  12.042   9.728  12.004  0.7819  0.4580  0.3641
  178MOL0     C23925  12.122   9.599  12.022 -0.4171 -0.5379 -0.9019
  178MOL0     O23926  12.113   9.496  11.934  0.1102  1.2727  0.0393
  178MOL0     C23927  12.198   9.393  11.967  0.2640  0.9491 -0.0863
  178MOL0     C23928  12.331   9.391  11.945 -0.2616 -0.4970 -0.6420
  178MOL0     C23929  12.412   9.277  11.962 -0.1110  0.1998  0.0770
  178MOL0     C23930  12.357   9.159  12.013  0.4025  0.5321  0.9866
  178MOL0     O23931  12.434   9.045  12.019  0.1949 -0.2935 -0.8121
  178MOL0     C23932  12.374   8.919  11.992  0.6488  0.1333  1.5232
  178MOL0     C23933  12.326   8.904  11.853 -0.1877 -0.5264 -0.2299
  178MOL0     C23934  12.263   8.763  11.837  0.3300 -0.2407 -0.3877
  178MOL0     C23935  12.120   8.775  11.782 -0.2855  0.6548 -0.7579
  178MOL0     C23936  12.062   8.639  11.731 -0.1318  0.3683 -0.4995
  178MOL0     C23937  12.007   8.565  11.847  0.1284  0.5830  0.4306
  178MOL0     C23938  11.985   8.419  11.810 -0.1010 -0.1725 -0.6466
  178MOL0     C23939  12.108   8.339  11.793 -0.1163  0.1203  0.6073
  178MOL0    Cl23940  12.078   8.164  11.800  0.3150  0.5542 -0.4464
  178MOL0     C23941  12.220   9.163  12.050 -0.2998  0.6754 -0.6051
  178MOL0     C23942  12.141   9.274  12.023 -0.1263 -0.0706 -0.3048
  178MOL0     O23943  12.181   9.595  12.129 -0.1472  0.7413  0.2047
  178MOL0     C23944  12.030   9.826  12.106 -0.2434 -1.2749  0.7976
  178MOL0     C23945  11.932   9.924  12.109  0.7590  0.1302  1.1609
  178MOL0     N23946  11.379  10.212  11.720 -0.0948  0.2587 -0.4243
  178MOL0     N23947  11.324  10.252  11.616  0.7106 -0.2365 -0.8618
  178MOL0     C23948  11.152   9.843  10.728  0.3941 -0.3830  0.9899
  178MOL0     C23949  11.170   9.740  10.633  0.2071 -0.4303  0.1496
  178MOL0     C23950  10.972   9.506  10.295 -0.9438 -0.1872  0.2520
  178MOL0     C23951  10.948   9.547  10.162  0.8549 -0.4194  0.2055
  178MOL0     C23952  10.929   9.448  10.073 -0.9542 -0.0353 -0.1289
  178MOL0     C23953  10.934   9.310  10.100  0.6587 -0.1567  0.0718
  178MOL0     O23954  10.897   9.209  10.015  0.1374  0.8477 -0.1063
  178MOL0     C23955  10.996   9.106   9.999  0.3582  0.5718  0.4365
  178MOL0     C23956  11.112   9.140   9.907  0.1508 -0.0451  0.2607
  178MOL0     C23957  11.044   9.200   9.781  0.0142 -0.3756  0.4745
  178MOL0     C23958  10.968   9.097   9.698  0.1571  0.4379 -0.0989
  178MOL0     C23959  10.916   9.150   9.563 -0.1828 -0.7961 -0.1735
  178MOL0     C23960  10.868   9.198   9.463 -0.2344 -0.3260  0.2957
  178MOL0     C23961  10.971   9.276  10.234  0.4926  0.8205 -0.3125
  178MOL0     C23962  10.995   9.374  10.323  0.5862 -0.0109  0.4881
  178MOL0     H23963  10.864   9.606  10.679  0.8793 -1.7963  1.7157
  178MOL0     H23964  10.828   9.796  10.812  0.0789  3.7835 -3.6733
  178MOL0     H23965  11.192  10.091  10.870  0.3867  0.2092  1.1539
  178MOL0     H23966  11.058  10.128  10.761 -0.2585  0.6731  1.2998
  178MOL0     H23967  10.925  10.215  10.951  0.5975  4.2401 -0.3905
  178MOL0     H23968  11.037  10.147  11.064 -3.2619 -0.3730 -0.8351
  178MOL0     H23969  11.212  10.313  10.942  0.9389 -2.1203  1.8408
  178MOL0     H23970  11.076  10.374  10.871  0.1216  2.0521  2.0539
  178MOL0     H23971  11.140  10.502  11.044  3.7356 -1.1088  0.2260
  178MOL0     H23972  10.986  10.433  11.097 -0.0969 -1.4694  0.0241
  178MOL0     H23973  11.109  10.424  11.287 -2.3337 -0.9941 -0.1290
  178MOL0     H23974  11.158  10.264  11.219 -4.0539 -0.5449 -4.9145
  178MOL0     H23975  11.350  10.373  11.114 -4.1151  1.6840 -1.9283
  178MOL0     H23976  11.345  10.513  11.201  2.1859 -0.2801  2.3482
  178MOL0     H23977  11.375  10.241  11.325 -2.3317  0.4452  2.3762
  178MOL0     H23978  11.502  10.351  11.277  0.2602  3.4504  2.1155
  178MOL0     H23979  11.257  10.448  11.435  1.2975  1.6923 -3.4979
  178MOL0     H23980  11.400  10.526  11.451 -1.5826  0.3084  0.6698
  178MOL0     H23981  11.598  10.435  11.621  1.4036 -0.3965  3.5651
  178MOL0     H23982  11.593  10.118  11.823  0.3073 -0.8629  1.4877
  178MOL0     H23983  11.700  10.243  11.813  0.3938 -2.2300  0.8460
  178MOL0     H23984  11.452  10.214  11.989  1.0973 -4.0245 -1.9512
  178MOL0     H23985  11.518  10.373  11.975 -0.7989  0.4486  2.0141
  178MOL0     H23986  11.599  10.277  12.155 -1.4748 -1.2310  0.7988
  178MOL0     H23987  11.732  10.316  12.049 -0.1278 -0.7236 -1.2263
  178MOL0     H23988  11.632  10.028  12.092  1.2931 -1.5956 -1.8504
  178MOL0     H23989  11.756  10.111  12.191  0.8413 -2.1036 -0.7087
  178MOL0     H23990  11.823   9.912  11.809 -0.3933  3.4405  1.6444
  178MOL0     H23991  11.928   9.698  11.669  0.3980  1.2286  1.2027
  178MOL0     H23992  12.088   9.670  11.739  0.9970 -1.9968 -1.2957
  178MOL0     H23993  11.941   9.569  11.787 -0.9975  0.3342  1.4307
  178MOL0     H23994  12.381   9.480  11.908  1.9421  0.0983  3.2935
  178MOL0     H23995  12.519   9.286  11.948  0.4652 -3.6834  0.7004
  178MOL0     H23996  12.458   8.853  12.013  3.5013  1.9082 -3.0033
  178MOL0     H23997  12.298   8.898  12.069 -0.3147  0.7732  0.7779
  178MOL0     H23998  12.255   8.985  11.834 -0.9408 -1.3023 -0.7921
  178MOL0     H23999  12.412   8.911  11.786  1.5673  1.1366  2.0245
  178MOL0     H24000  12.252   8.718  11.935 -2.8412 -0.9646 -0.9631
  178MOL0     H24001  12.321   8.705  11.764 -0.6322  3.1995 -4.3211
  178MOL0     H24002  12.067   8.816  11.869 -0.1663  0.1038 -0.4200
  178MOL0     H24003  12.126   8.841  11.695  2.9210  0.3319 -0.9124
  178MOL0     H24004  12.143   8.586  11.679  3.3335  3.0390  1.7333
  178MOL0     H24005  11.981   8.655  11.659 -2.1173  4.2345  2.2462
  178MOL0     H24006  12.084   8.574  11.924  0.0567  2.5904  0.3109
  178MOL0     H24007  11.914   8.610  11.885  1.2083 -0.0454  4.2853
  178MOL0     H24008  11.918   8.400  11.726 -2.4760 -1.5444  1.4106
  178MOL0     H24009  11.932   8.376  11.896 -0.9572  0.4553 -0.8544
  178MOL0     H24010  12.168   8.365  11.880  1.3740  1.9108 -0.8872
  178MOL0     H24011  12.148   8.361  11.694  1.8989 -0.4719  1.2312
  178MOL0     H24012  12.164   9.077  12.083  0.1694  0.4357 -0.4306
  178MOL0     H24013  12.033   9.274  12.031 -0.3814  0.3625 -2.8293
  178MOL0     H24014  12.098   9.807  12.188  0.1167  0.6262  0.9741
  178MOL0     H24015  11.917   9.989  12.194 -2.8933  0.3501  0.5001
  178MOL0     H24016  11.232   9.915  10.749 -0.5579  0.3503  2.2446
  178MOL0     H24017  11.262   9.727  10.576  1.7299  0.7348  2.1558
  178MOL0     H24018  10.933   9.651  10.136  1.6642  0.1315  1.8317
  178MOL0     H24019  10.912   9.472   9.969  1.9062 -3.3364 -1.5213
  178MOL0     H24020  11.035   9.078  10.097  2.0962  0.2716 -0.2995
  178MOL0     H24021  10.941   9.020   9.960 -1.0692  0.6648  2.1749
  178MOL0     H24022  11.166   9.048   9.884 -0.5778  0.2504 -3.1583
  178MOL0     H24023  11.185   9.208   9.950 -0.3313  1.7782 -1.6348
  178MOL0     H24024  11.128   9.227   9.716  0.3887 -2.8389 -0.1658
  178MOL0     H24025  10.981   9.287   9.800 -1.1216 -0.6208 -1.9022
  178MOL0     H24026  10.878   9.063   9.749  0.0897 -0.0981 -0.5676
  178MOL0     H24027  11.029   9.006   9.696 -0.1423  0.2404 -0.3490
  178MOL0     H24028  10.833   9.235   9.368  2.4742 -0.5004 -0.8728
  178MOL0     H24029  10.968   9.177  10.279 -0.3584  1.1631  0.4111
  178MOL0     H24030  11.037   9.347  10.419 -1.2786 -1.4028  0.9926
  179MOL0     O24031   9.920   2.580   6.253 -0.8796 -0.1658 -0.1254
  179MOL0     C24032   9.831   2.569   6.170 -0.1861  0.1753  0.9987
  179MOL0     O24033   9.795   2.449   6.117 -0.8913 -1.2189 -0.2146
  179MOL0     C24034   9.857   2.327   6.158 -0.1917 -0.0021 -0.6610
  179MOL0     C24035   9.860   2.287   6.293  0.5021  0.7698 -0.2262
  179MOL0     C24036   9.923   2.170   6.327 -0.5578 -0.1967 -0.6667
  179MOL0     C24037   9.965   2.081   6.228 -0.1715  0.6455  0.2051
  179MOL0     O24038  10.038   1.964   6.251 -0.7017 -0.1620  0.2369
  179MOL0     C24039  10.014   1.894   6.376  0.7733 -1.3586  0.0512
  179MOL0     C24040   9.875   1.859   6.433 -0.4137  0.8818  0.5888
  179MOL0     C24041   9.786   1.783   6.341  0.0427  0.6449  0.0434
  179MOL0     C24042   9.722   1.885   6.242  1.3161  0.3360 -0.4206
  179MOL0     C24043   9.613   1.832   6.157  0.0876  0.3033  0.4321
  179MOL0     C24044   9.654   1.696   6.091  0.7820  1.0692  0.6304
  179MOL0     C24045   9.547   1.651   5.988 -0.8780 -0.6762 -0.7509
  179MOL0     C24046   9.553   1.735   5.858  0.7151 -0.4404  0.0159
  179MOL0     N24047   9.688   1.722   5.782 -0.1202 -0.1123  1.3165
  179MOL0     C24048   9.738   1.598   5.747 -0.0083  0.2757 -0.2027
  179MOL0     C24049   9.864   1.623   5.695 -0.1785  0.4554  0.8173
  179MOL0     C24050   9.962   1.513   5.650  0.8024  0.7920  0.6132
  179MOL0     C24051  10.106   1.554   5.670 -0.4164  0.1962  0.1947
  179MOL0     C24052  10.172   1.650   5.564 -0.0630 -0.1477  0.5297
  179MOL0     C24053  10.296   1.710   5.644 -0.1796 -0.1471 -0.3371
  179MOL0     O24054  10.363   1.809   5.569 -0.0082  0.6411  0.7423
  179MOL0     C24055  10.319   1.937   5.548  0.4697  0.1232  0.5420
  179MOL0     C24056  10.221   2.004   5.622  0.3371 -0.9865  0.0329
  179MOL0     C24057  10.163   2.133   5.580  0.5631  0.1563 -0.8234
  179MOL0     C24058  10.063   2.204   5.672  0.0190  0.9427 -0.0172
  179MOL0     C24059  10.219   2.194   5.464 -0.7506  0.5052 -0.3678
  179MOL0     C24060  10.190   2.334   5.423 -0.8081  0.0452  0.2078
  179MOL0     O24061  10.218   2.365   5.289  0.1792  0.3234  0.2629
  179MOL0     C24062  10.212   2.497   5.242  0.5750 -0.0070 -0.4510
  179MOL0     C24063  10.148   2.515   5.114  0.5132 -0.2636 -0.0593
  179MOL0     C24064  10.122   2.648   5.075  0.0169 -0.2178 -0.2517
  179MOL0     C24065  10.175   2.756   5.150  0.5953  0.0835  0.5335
  179MOL0     O24066  10.119   2.881   5.126  0.5349  0.0990 -0.3854
  179MOL0     C24067  10.105   2.979   5.239  0.4507 -0.2117 -0.4021
  179MOL0     C24068  10.037   3.114   5.215  0.2752  0.7215  0.4189
  179MOL0     C24069  10.061   3.212   5.327  0.6604 -0.1630 -0.3489
  179MOL0     C24070  10.027   3.359   5.294 -0.3424  0.9498 -1.1477
  179MOL0     C24071  10.134   3.447   5.240 -0.4448  0.5832  0.8850
  179MOL0     C24072  10.245   3.457   5.344 -0.0064  0.8454  0.5137
  179MOL0     C24073  10.368   3.507   5.252  0.7541 -0.3385 -0.1205
  179MOL0     C24074  10.469   3.559   5.348 -0.6502  0.0591  0.2373
  179MOL0    Cl24075  10.569   3.445   5.406 -0.0662 -0.3209  0.0363
  179MOL0     C24076  10.240   2.728   5.269 -0.7137  1.5383  0.0258
  179MOL0     C24077  10.254   2.601   5.318 -0.9690  0.4478 -0.6189
  179MOL0     O24078  10.149   2.411   5.503 -0.7410 -0.4141 -0.4792
  179MOL0     C24079  10.329   2.126   5.399  0.1662  0.7503  0.1021
  179MOL0     C24080  10.381   2.002   5.445  0.2671  0.1119 -0.0245
  179MOL0     N24081   9.877   1.756   5.692  0.6811 -0.0668 -0.1000
  179MOL0     N24082   9.767   1.820   5.741  0.0336  0.3570 -0.1356
  179MOL0     C24083   9.963   2.124   6.094 -0.3633  0.1060  0.1687
  179MOL0     C24084   9.902   2.241   6.064 -0.0308 -1.1734  0.5757
  179MOL0     C24085   9.773   2.690   6.105  1.2027 -0.0942  0.1708
  179MOL0     C24086   9.644   2.679   6.044  1.1820 -0.6023  0.1484
  179MOL0     C24087   9.578   2.792   5.992 -0.3499 -0.4109 -0.0242
  179MOL0     C24088   9.643   2.925   6.013 -0.7900 -0.4416 -0.3428
  179MOL0     O24089   9.582   3.049   5.987  0.5364 -0.1800 -0.6374
  179MOL0     C24090   9.479   3.060   5.888  0.0981  0.7381 -0.6474
  179MOL0     C24091   9.544   3.063   5.750  0.1662 -0.1369  0.4715
  179MOL0     C24092   9.625   3.192   5.742 -0.5857  1.2469 -0.6307
  179MOL0     C24093   9.664   3.212   5.598  0.1001  0.1205 -0.5496
  179MOL0     C24094   9.772   3.313   5.589  1.2000  0.7178 -0.7918
  179MOL0     C24095   9.853   3.403   5.619 -0.1498  0.2587 -0.3229
  179MOL0     C24096   9.763   2.930   6.083 -0.2010  0.2131 -0.1861
  179MOL0     C24097   9.827   2.813   6.120 -0.1603  0.0876 -0.8727
  179MOL0     H24098   9.828   2.352   6.373  0.2895 -2.5263  2.6027
  179MOL0     H24099   9.935   2.145   6.432  1.8926 -0.2171 -0.9141
  179MOL0     H24100  10.055   1.794   6.361 -0.4811 -1.7761 -0.7463
  179MOL0     H24101  10.086   1.937   6.446 -0.2300  0.9458 -0.2355
  179MOL0     H24102   9.900   1.793   6.516  3.2583  0.5465 -0.6194
  179MOL0     H24103   9.827   1.952   6.465 -1.5431 -0.2392  2.2602
  179MOL0     H24104   9.832   1.693   6.300 -2.1104 -1.9707  2.8658
  179MOL0     H24105   9.704   1.748   6.404  2.6437 -2.5516  2.0174
  179MOL0     H24106   9.668   1.961   6.300 -1.4237 -2.6568  1.3449
  179MOL0     H24107   9.801   1.911   6.172  3.6836  2.0989  2.6496
  179MOL0     H24108   9.521   1.819   6.215 -0.6292 -0.2702 -0.7960
  179MOL0     H24109   9.588   1.908   6.082 -1.0326 -3.1479 -2.9716
  179MOL0     H24110   9.747   1.704   6.033 -0.8406  1.3016 -2.1012
  179MOL0     H24111   9.657   1.628   6.177 -2.1533  1.0225  0.7957
  179MOL0     H24112   9.556   1.544   5.972 -0.7481 -1.2744  2.7189
  179MOL0     H24113   9.448   1.661   6.035 -0.1954 -1.9901  1.0557
  179MOL0     H24114   9.520   1.837   5.879 -2.1404 -1.6286  2.0432
  179MOL0     H24115   9.471   1.686   5.803  0.7806  0.6781 -1.1318
  179MOL0     H24116   9.691   1.501   5.763 -1.2001  1.3341  3.7234
  179MOL0     H24117   9.948   1.422   5.710 -2.3640  0.0944 -0.9908
  179MOL0     H24118   9.955   1.494   5.542  1.8955 -0.4824  0.7328
  179MOL0     H24119  10.162   1.461   5.674  2.6406  1.9332  0.9971
  179MOL0     H24120  10.109   1.602   5.768  1.1297  0.4244  0.0577
  179MOL0     H24121  10.104   1.734   5.546  1.9698  1.5726  0.4981
  179MOL0     H24122  10.191   1.598   5.470  1.6992  0.2995  0.5977
  179MOL0     H24123  10.377   1.642   5.670  0.4493 -0.0877 -2.0249
  179MOL0     H24124  10.272   1.754   5.742 -2.2502 -2.1271  0.1181
  179MOL0     H24125  10.195   1.944   5.708 -0.9677 -0.3778  0.0988
  179MOL0     H24126  10.001   2.270   5.610  2.5131  0.2505 -3.5704
  179MOL0     H24127   9.986   2.143   5.721 -0.7869  1.1775 -0.9528
  179MOL0     H24128  10.129   2.263   5.736 -0.5461 -0.1131  1.6183
  179MOL0     H24129  10.110   2.430   5.058  1.9143 -1.4567  0.7085
  179MOL0     H24130  10.072   2.664   4.980 -3.3367  1.2391  1.5742
  179MOL0     H24131  10.041   2.930   5.313 -1.5639 -1.4489 -2.8349
  179MOL0     H24132  10.206   2.993   5.279  1.4209  1.3599 -3.1088
  179MOL0     H24133  10.073   3.161   5.123 -0.9661  0.2887 -0.3030
  179MOL0     H24134   9.932   3.085   5.209  0.4277  0.5116 -2.2127
  179MOL0     H24135  10.167   3.210   5.353  0.4087  0.1903  0.7274
  179MOL0     H24136  10.005   3.185   5.417 -0.3501 -0.7889 -1.1414
  179MOL0     H24137   9.936   3.361   5.233 -2.0102 -0.3230  1.1432
  179MOL0     H24138   9.996   3.405   5.388 -0.8549 -3.1188  0.8470
  179MOL0     H24139  10.097   3.542   5.199  2.5980  1.1730 -0.7597
  179MOL0     H24140  10.167   3.393   5.150  2.4866 -0.5733  2.5078
  179MOL0     H24141  10.228   3.530   5.424  3.7216  1.7556  0.6461
  179MOL0     H24142  10.277   3.360   5.383  3.6089  0.9659 -1.6810
  179MOL0     H24143  10.334   3.592   5.193 -1.0984 -1.6791 -1.0941
  179MOL0     H24144  10.384   3.418   5.190  2.0861  0.1500 -0.5130
  179MOL0     H24145  10.418   3.622   5.421 -0.1003 -0.2578  0.9080
  179MOL0     H24146  10.539   3.617   5.287  1.4654 -2.3674  0.1943
  179MOL0     H24147  10.289   2.817   5.306  1.1494  1.0643 -1.1017
  179MOL0     H24148  10.309   2.568   5.405 -0.1077  0.7959 -1.0193
  179MOL0     H24149  10.379   2.170   5.313  0.7111  2.4058  1.1966
  179MOL0     H24150  10.480   1.969   5.415 -0.9116 -2.0934 -1.7974
  179MOL0     H24151  10.001   2.062   6.014 -0.6555  0.7472 -0.4719
  179MOL0     H24152   9.900   2.274   5.961 -2.4696 -0.3044  0.8420
  179MOL0     H24153   9.592   2.587   6.021 -0.6471  0.3243  0.3825
  179MOL0     H24154   9.480   2.771   5.951  0.0792 -1.5982 -0.4782
  179MOL0     H24155   9.403   2.982   5.888 -0.2888  1.0904  0.8758
  179MOL0     H24156   9.432   3.158   5.902 -1.0603 -0.1718  2.7603
  179MOL0     H24157   9.476   3.044   5.666  2.6570 -1.9999 -1.2611
  179MOL0     H24158   9.620   2.987   5.730  0.9586  1.0730 -1.2278
  179MOL0     H24159   9.715   3.174   5.800 -0.6787 -1.2706 -1.1464
  179MOL0     H24160   9.563   3.274   5.779 -1.7604  0.2934 -0.4253
  179MOL0     H24161   9.581   3.263   5.550 -1.1098  1.0588  2.3107
  179MOL0     H24162   9.687   3.118   5.547 -1.6053  0.5668 -2.2450
  179MOL0     H24163   9.911   3.487   5.651 -1.1963  1.8042 -2.2555
  179MOL0     H24164   9.818   3.021   6.103 -1.9530  1.1170  0.7416
  179MOL0     H24165   9.928   2.819   6.160  0.0391  2.1657 -1.5733
  180MOL0     O24166   1.651   2.129   8.200 -0.3194  0.5381  0.2368
  180MOL0     C24167   1.568   2.116   8.111 -0.2853  0.0010 -0.9366
  180MOL0     O24168   1.602   2.066   7.992  0.4195 -0.2301  0.3193
  180MOL0     C24169   1.716   1.995   7.988 -0.5019 -0.4348  0.1108
  180MOL0     C24170   1.700   1.854   7.952 -0.2112 -1.2955  0.1114
  180MOL0     C24171   1.812   1.769   7.934 -0.8022 -0.3214 -0.0316
  180MOL0     C24172   1.931   1.824   7.940 -0.3236  0.5228  0.1899
  180MOL0     O24173   2.050   1.758   7.908 -1.0639  0.4823  0.0981
  180MOL0     C24174   2.057   1.621   7.888 -0.0282 -0.2460 -0.0977
  180MOL0     C24175   2.090   1.569   8.026 -0.1792  0.3704 -0.9730
  180MOL0     C24176   2.186   1.452   8.016 -0.8767 -0.1725  0.0545
  180MOL0     C24177   2.331   1.498   8.014 -0.0681  0.3067  0.6363
  180MOL0     C24178   2.430   1.399   8.071 -1.1361 -0.7125 -0.1474
  180MOL0     C24179   2.428   1.272   8.000 -0.6935  1.1150 -0.3748
  180MOL0     C24180   2.540   1.165   8.037  0.6162 -0.8466 -0.7287
  180MOL0     C24181   2.544   1.048   7.942 -0.5113  0.7284  0.1445
  180MOL0     N24182   2.607   1.083   7.816  0.2602 -0.4999 -0.3782
  180MOL0     C24183   2.728   1.159   7.798  0.9696 -0.4920 -0.1955
  180MOL0     C24184   2.793   1.124   7.694  0.5060  0.5243  0.4937
  180MOL0     C24185   2.918   1.184   7.640 -0.6644  0.4301  0.5256
  180MOL0     C24186   3.039   1.088   7.645 -0.2619  0.8539  1.1703
  180MOL0     C24187   3.169   1.159   7.617 -0.3445 -0.4983 -0.3176
  180MOL0     C24188   3.214   1.257   7.730 -0.3527  0.1610  0.6430
  180MOL0     O24189   3.335   1.324   7.695 -0.1262 -0.6068 -0.4285
  180MOL0     C24190   3.303   1.434   7.629 -0.9955  1.0556  0.2532
  180MOL0     C24191   3.260   1.550   7.691 -0.1278 -0.4181 -0.0985
  180MOL0     C24192   3.238   1.671   7.619  0.3879 -0.2056 -0.5495
  180MOL0     C24193   3.217   1.788   7.710 -0.3709  0.8881 -0.3161
  180MOL0     C24194   3.270   1.672   7.477 -0.7466 -1.2030  0.7942
  180MOL0     C24195   3.284   1.802   7.397  0.4522  0.5470 -0.9052
  180MOL0     O24196   3.334   1.797   7.271  0.7735  0.4106 -0.2232
  180MOL0     C24197   3.354   1.902   7.188  1.9361 -0.3797  0.0719
  180MOL0     C24198   3.485   1.949   7.154 -0.1919  0.3366  0.9710
  180MOL0     C24199   3.489   2.065   7.087  0.3001  0.0897  0.2934
  180MOL0     C24200   3.384   2.138   7.040  1.2199 -0.5032  0.8114
  180MOL0     O24201   3.389   2.260   6.973  0.7708 -0.2014  0.0945
  180MOL0     C24202   3.450   2.243   6.842  0.7167 -0.0238 -0.6939
  180MOL0     C24203   3.429   2.359   6.747  0.6528  1.1502  0.6153
  180MOL0     C24204   3.446   2.314   6.599 -0.7868  0.2830  0.4980
  180MOL0     C24205   3.396   2.425   6.499  0.4311  0.9004 -0.0813
  180MOL0     C24206   3.239   2.451   6.518 -0.5539 -0.9806 -0.1180
  180MOL0     C24207   3.174   2.529   6.402  0.1710  0.1960 -0.0307
  180MOL0     C24208   3.143   2.434   6.287  0.2565  0.3038  0.1157
  180MOL0     C24209   3.077   2.520   6.180  0.4883  0.5370  0.5184
  180MOL0    Cl24210   3.060   2.391   6.052  0.1376 -0.1771  0.4282
  180MOL0     C24211   3.258   2.095   7.068  0.3081  1.0062 -0.5043
  180MOL0     C24212   3.242   1.977   7.151 -0.0136 -0.7515 -0.0321
  180MOL0     O24213   3.249   1.910   7.446  0.1410  0.2139 -0.3773
  180MOL0     C24214   3.308   1.545   7.409 -0.3207  0.3199 -1.5227
  180MOL0     C24215   3.327   1.425   7.488 -0.4938  0.4908 -1.1864
  180MOL0     N24216   2.711   1.031   7.634 -0.1309 -0.1681 -0.9060
  180MOL0     N24217   2.604   1.006   7.703  0.3056  0.3841  0.4672
  180MOL0     C24218   1.959   1.964   7.961 -0.3122  0.7474  0.1306
  180MOL0     C24219   1.849   2.044   7.982 -0.2219  0.6078  0.5254
  180MOL0     C24220   1.447   2.184   8.133  0.8544 -0.0521 -0.5962
  180MOL0     C24221   1.401   2.211   8.260  0.2319 -0.3324 -0.3351
  180MOL0     C24222   1.279   2.260   8.285  0.3432 -0.4036  0.1554
  180MOL0     C24223   1.185   2.283   8.185  0.4434 -0.3374  0.7289
  180MOL0     O24224   1.063   2.340   8.217 -0.1080 -0.5200 -0.7330
  180MOL0     C24225   0.979   2.374   8.107 -0.2261  1.0775 -1.0661
  180MOL0     C24226   0.863   2.452   8.165 -0.4938  0.0329 -0.0807
  180MOL0     C24227   0.759   2.488   8.067 -0.2095 -2.1242  0.1656
  180MOL0     C24228   0.655   2.580   8.143 -0.4514 -0.4200 -0.1538
  180MOL0     C24229   0.560   2.491   8.208 -0.3295  0.2189  0.5063
  180MOL0     C24230   0.486   2.409   8.256  0.0106 -0.2196  0.3071
  180MOL0     C24231   1.219   2.242   8.054 -0.0662 -0.8035  0.5139
  180MOL0     C24232   1.354   2.199   8.029 -0.4416  0.6274 -0.0899
  180MOL0     H24233   1.597   1.831   7.928 -0.3612  1.0879 -2.1000
  180MOL0     H24234   1.793   1.666   7.908  3.5389 -1.3378  0.1321
  180MOL0     H24235   1.968   1.581   7.839  0.4649  1.3043 -2.3930
  180MOL0     H24236   2.138   1.596   7.820 -1.0978 -0.8892 -1.1660
  180MOL0     H24237   2.129   1.645   8.095 -2.7885  0.3511  0.6495
  180MOL0     H24238   1.999   1.540   8.079  1.1125 -2.7664 -0.2646
  180MOL0     H24239   2.185   1.390   8.106  2.6632 -2.9013 -1.5301
  180MOL0     H24240   2.156   1.387   7.934 -0.1115 -0.1094 -0.2817
  180MOL0     H24241   2.359   1.524   7.911 -1.4770  0.9932  0.4111
  180MOL0     H24242   2.350   1.589   8.070  3.0172 -0.8912  1.7872
  180MOL0     H24243   2.532   1.438   8.082 -0.7976 -1.5626 -0.2305
  180MOL0     H24244   2.393   1.366   8.169  0.5162 -4.6109 -0.6608
  180MOL0     H24245   2.331   1.223   8.003 -0.0980 -0.1882 -1.2252
  180MOL0     H24246   2.458   1.297   7.898  0.9083  1.8327  0.2361
  180MOL0     H24247   2.638   1.214   8.037 -0.2460  1.2815  2.4802
  180MOL0     H24248   2.518   1.126   8.137 -1.5358  0.8090 -0.4987
  180MOL0     H24249   2.437   1.028   7.932 -0.7883  0.6095  2.6624
  180MOL0     H24250   2.597   0.957   7.969 -3.1284 -0.5644  1.3179
  180MOL0     H24251   2.754   1.250   7.851 -1.7319  0.8052 -0.9071
  180MOL0     H24252   2.901   1.216   7.536 -1.4592 -0.4999  0.3521
  180MOL0     H24253   2.936   1.273   7.700 -0.5621 -0.3986  1.7742
  180MOL0     H24254   3.026   1.012   7.567 -0.3757  0.2133  1.7991
  180MOL0     H24255   3.049   1.030   7.738  3.1841  0.3769  0.6206
  180MOL0     H24256   3.148   1.215   7.525  1.8776 -0.2579 -0.7280
  180MOL0     H24257   3.245   1.084   7.596 -0.4419 -1.3600  2.1581
  180MOL0     H24258   3.249   1.192   7.810 -0.7766 -0.2945  0.4613
  180MOL0     H24259   3.139   1.328   7.767 -0.6280  0.0160  0.3672
  180MOL0     H24260   3.251   1.541   7.799  1.9001 -2.0485 -0.0117
  180MOL0     H24261   3.202   1.764   7.816 -2.5890  1.5361 -0.4231
  180MOL0     H24262   3.309   1.844   7.695  0.7277 -0.7673 -0.0231
  180MOL0     H24263   3.134   1.843   7.666 -3.0571 -1.6682  1.1472
  180MOL0     H24264   3.569   1.895   7.195  0.9342  0.3134 -1.2527
  180MOL0     H24265   3.582   2.114   7.061 -1.0030  1.2831 -2.6033
  180MOL0     H24266   3.557   2.221   6.842  0.9475  0.6152  2.3282
  180MOL0     H24267   3.404   2.155   6.797 -0.0329 -0.9133  1.6386
  180MOL0     H24268   3.335   2.412   6.761 -0.5528 -0.1660 -1.7971
  180MOL0     H24269   3.508   2.435   6.748  1.8869 -0.0717 -0.0777
  180MOL0     H24270   3.400   2.219   6.570  1.1223 -0.2976 -0.8360
  180MOL0     H24271   3.551   2.292   6.577 -1.3627 -1.7474 -0.4651
  180MOL0     H24272   3.450   2.519   6.513  0.2620  1.2018 -1.3172
  180MOL0     H24273   3.438   2.392   6.404  3.5910 -0.1793  1.5647
  180MOL0     H24274   3.233   2.517   6.604 -0.8030 -1.1274 -0.0218
  180MOL0     H24275   3.191   2.356   6.545 -0.4616 -0.8159  0.6443
  180MOL0     H24276   3.078   2.572   6.430 -0.5607 -0.7976 -0.9237
  180MOL0     H24277   3.240   2.612   6.378 -1.2780  0.6415 -2.8422
  180MOL0     H24278   3.071   2.362   6.325  0.7609  0.0826  0.6650
  180MOL0     H24279   3.236   2.385   6.256 -0.2629 -0.1356 -0.7950
  180MOL0     H24280   3.121   2.611   6.137  5.1225 -1.0692  1.2875
  180MOL0     H24281   2.973   2.532   6.211  0.2470  0.1514 -0.1062
  180MOL0     H24282   3.165   2.147   7.045 -1.3958 -1.3781  0.5435
  180MOL0     H24283   3.140   1.956   7.184 -1.1385  1.6599 -1.6836
  180MOL0     H24284   3.331   1.538   7.303  0.2274 -2.0723 -1.2990
  180MOL0     H24285   3.360   1.329   7.449 -2.0492 -0.9030  0.7443
  180MOL0     H24286   2.050   2.023   7.949  0.0255  0.6087  1.8039
  180MOL0     H24287   1.846   2.152   7.995 -1.8628  0.5686  0.7549
  180MOL0     H24288   1.470   2.188   8.341  0.2698 -1.4658 -0.6679
  180MOL0     H24289   1.251   2.289   8.386 -1.6098  1.7939 -0.9194
  180MOL0     H24290   1.033   2.444   8.043 -0.9957  2.4383 -0.2746
  180MOL0     H24291   0.941   2.286   8.055 -0.8761 -0.5099  1.8629
  180MOL0     H24292   0.907   2.541   8.210  1.9613  0.0647 -2.3073
  180MOL0     H24293   0.817   2.390   8.242  2.2310 -1.4835  0.4542
  180MOL0     H24294   0.707   2.403   8.021  1.3063 -2.1069 -1.7008
  180MOL0     H24295   0.814   2.552   7.997  1.5951 -3.6851  0.0340
  180MOL0     H24296   0.603   2.646   8.073 -0.2245  1.5974  1.4920
  180MOL0     H24297   0.712   2.640   8.214 -0.9272  0.0661 -0.1803
  180MOL0     H24298   0.419   2.343   8.308  0.4647 -1.6389 -0.8176
  180MOL0     H24299   1.151   2.257   7.970  1.0129  2.2031  0.0489
  180MOL0     H24300   1.371   2.169   7.926  1.7720  0.0151  0.3881
  181MOL0     O24301  10.015   6.860   9.278 -0.2480  0.3639  0.2996
  181MOL0     C24302  10.058   6.914   9.379  0.0827 -0.0259 -1.3283
  181MOL0     O24303   9.981   7.013   9.443 -1.1693 -0.0631 -0.5469
  181MOL0     C24304   9.887   7.078   9.364  0.3168  0.2392  0.3448
  181MOL0     C24305   9.755   7.046   9.373  0.2594  0.0485 -0.2479
  181MOL0     C24306   9.659   7.108   9.293 -0.1602 -0.6208 -0.1352
  181MOL0     C24307   9.696   7.218   9.202 -0.4930  0.7507 -0.5371
  181MOL0     O24308   9.606   7.286   9.128  0.6621 -1.1154 -0.1073
  181MOL0     C24309   9.513   7.385   9.198 -0.1099  0.3107  0.3274
  181MOL0     C24310   9.456   7.498   9.109  0.2124  0.8396  0.1407
  181MOL0     C24311   9.357   7.594   9.183 -0.2401  0.3965  0.3431
  181MOL0     C24312   9.293   7.666   9.068  0.2689  0.0855 -0.6750
  181MOL0     C24313   9.181   7.763   9.103 -0.4406 -1.2792  0.6815
  181MOL0     C24314   9.224   7.878   9.184 -0.1360  0.3951  0.4290
  181MOL0     C24315   9.120   7.985   9.219  0.8966 -0.5404 -0.1190
  181MOL0     C24316   9.107   8.098   9.104  0.0143  1.0052  0.5520
  181MOL0     N24317   8.988   8.189   9.118 -0.2109 -0.4487 -0.1397
  181MOL0     C24318   8.865   8.144   9.165 -0.3172  0.6158 -0.3819
  181MOL0     C24319   8.778   8.251   9.153 -0.5423  1.5785 -0.6141
  181MOL0     C24320   8.628   8.242   9.173  0.0593  0.1721 -0.5761
  181MOL0     C24321   8.555   8.339   9.084  0.4567  0.9257 -0.6265
  181MOL0     C24322   8.581   8.310   8.936  0.6843  0.1078 -0.4526
  181MOL0     C24323   8.471   8.341   8.840  0.8239 -0.2705  0.2489
  181MOL0     O24324   8.522   8.314   8.705  0.3047 -1.2916  0.0087
  181MOL0     C24325   8.436   8.247   8.626 -0.2553  0.8568 -0.4143
  181MOL0     C24326   8.347   8.325   8.567  0.5556  0.1447  0.5151
  181MOL0     C24327   8.245   8.266   8.489  0.4285  0.0952  0.3585
  181MOL0     C24328   8.131   8.363   8.452 -0.5714 -0.3113 -0.0637
  181MOL0     C24329   8.240   8.132   8.466  0.3241  0.4664  0.8130
  181MOL0     C24330   8.132   8.067   8.408  0.1516 -1.0102 -0.5756
  181MOL0     O24331   8.010   8.088   8.460  0.0096 -0.4947  0.2381
  181MOL0     C24332   7.888   8.033   8.414  0.3309  0.9819  0.6166
  181MOL0     C24333   7.856   7.984   8.283 -0.4586 -0.1936  0.7032
  181MOL0     C24334   7.733   7.926   8.256  0.4109  0.5374 -0.2176
  181MOL0     C24335   7.630   7.935   8.352  0.1465 -0.3489 -0.6714
  181MOL0     O24336   7.502   7.913   8.308  0.4347 -0.6759  0.1081
  181MOL0     C24337   7.453   7.780   8.344  0.1990  0.2206 -1.3244
  181MOL0     C24338   7.309   7.768   8.293 -0.1401  0.5486 -0.3631
  181MOL0     C24339   7.210   7.858   8.384 -0.3159  1.0387 -0.5808
  181MOL0     C24340   7.230   8.016   8.367 -0.9469 -0.0426 -0.3377
  181MOL0     C24341   7.108   8.107   8.418 -0.2825 -0.2295  0.0275
  181MOL0     C24342   7.034   8.057   8.538 -0.0154 -0.0022 -0.3307
  181MOL0     C24343   6.934   8.161   8.593  0.1816  0.2669 -0.7282
  181MOL0     C24344   6.978   8.281   8.661 -0.0585 -0.0943  0.1504
  181MOL0    Cl24345   7.011   8.411   8.544  0.7514  0.0506  0.1952
  181MOL0     C24346   7.667   7.992   8.479  0.6659  0.8902 -0.6295
  181MOL0     C24347   7.789   8.036   8.503 -0.2524  0.2535  0.4131
  181MOL0     O24348   8.163   7.988   8.319 -0.0334  0.0376 -0.0886
  181MOL0     C24349   8.347   8.055   8.521  0.2591  0.3366  0.4693
  181MOL0     C24350   8.447   8.109   8.599 -0.1807 -0.8265 -0.2696
  181MOL0     N24351   8.848   8.363   9.099  0.3782 -0.0430  0.4789
  181MOL0     N24352   8.974   8.323   9.095 -0.0465 -0.3426 -0.8251
  181MOL0     C24353   9.833   7.235   9.192 -1.2807 -0.6588  0.1640
  181MOL0     C24354   9.925   7.178   9.280 -0.1069  0.3383  0.0068
  181MOL0     C24355  10.172   6.853   9.453  0.2138 -0.4424  1.1918
  181MOL0     C24356  10.241   6.750   9.391  0.4720 -0.1376  1.2270
  181MOL0     C24357  10.340   6.679   9.453 -0.8673 -0.2084  0.2769
  181MOL0     C24358  10.396   6.718   9.575 -0.4855 -0.6856  0.5090
  181MOL0     O24359  10.500   6.661   9.642 -0.0018  0.1743 -0.8738
  181MOL0     C24360  10.564   6.542   9.586 -0.4765  0.3747 -0.0919
  181MOL0     C24361  10.682   6.491   9.688  0.8977 -0.7572  0.5332
  181MOL0     C24362  10.662   6.488   9.838  0.0690  0.0894  1.2782
  181MOL0     C24363  10.773   6.401   9.906  0.1767 -0.0634 -0.8264
  181MOL0     C24364  10.737   6.380  10.049  0.4295 -1.1662  0.1085
  181MOL0     C24365  10.710   6.369  10.165 -0.5883 -0.4002  1.5073
  181MOL0     C24366  10.330   6.822   9.638  0.6434 -0.3224  0.2120
  181MOL0     C24367  10.218   6.889   9.579  0.5173  0.9763  0.5116
  181MOL0     H24368   9.715   6.963   9.430 -1.3599 -1.1454 -2.9386
  181MOL0     H24369   9.553   7.091   9.309 -0.1763 -2.6404 -2.0438
  181MOL0     H24370   9.432   7.327   9.244 -0.7133  0.9206  0.0455
  181MOL0     H24371   9.576   7.441   9.267 -1.4354  1.2266  0.8288
  181MOL0     H24372   9.528   7.534   9.036 -0.9654 -1.6307 -2.4505
  181MOL0     H24373   9.396   7.437   9.041  1.3893  0.6793 -0.7870
  181MOL0     H24374   9.285   7.532   9.238  0.0543 -0.7012 -0.4619
  181MOL0     H24375   9.409   7.665   9.248 -0.0023  2.0525 -1.5553
  181MOL0     H24376   9.375   7.722   9.021  0.3623 -0.5229 -1.2402
  181MOL0     H24377   9.248   7.599   8.994 -0.7190  3.0256 -2.9406
  181MOL0     H24378   9.148   7.800   9.005  0.8561 -2.3108 -0.1732
  181MOL0     H24379   9.098   7.710   9.151  0.0155 -0.5900  2.3162
  181MOL0     H24380   9.268   7.842   9.277  1.0751  1.1263  0.1691
  181MOL0     H24381   9.309   7.923   9.131  0.7007 -0.2992  1.1619
  181MOL0     H24382   9.030   7.923   9.227  2.2359 -2.5957 -0.3252
  181MOL0     H24383   9.139   8.036   9.314  1.5636 -0.9279 -0.0370
  181MOL0     H24384   9.090   8.049   9.007 -0.3053 -3.4526  2.5969
  181MOL0     H24385   9.202   8.151   9.095  0.4486  0.1567  0.0615
  181MOL0     H24386   8.851   8.049   9.214 -2.0263  1.3906  0.7470
  181MOL0     H24387   8.607   8.136   9.154 -0.6659  0.7791 -3.7085
  181MOL0     H24388   8.593   8.256   9.276 -1.0787 -2.9828 -0.4392
  181MOL0     H24389   8.570   8.441   9.122 -0.2811  0.3596  1.3443
  181MOL0     H24390   8.447   8.327   9.095  0.2338  3.2729  0.2691
  181MOL0     H24391   8.599   8.203   8.924 -1.2670 -0.9748  4.2635
  181MOL0     H24392   8.679   8.352   8.910  2.3209 -0.7803  3.5497
  181MOL0     H24393   8.440   8.444   8.857  1.0796 -0.0314 -0.6913
  181MOL0     H24394   8.383   8.280   8.864  0.2641  0.6640  0.6419
  181MOL0     H24395   8.341   8.433   8.574 -3.8128  0.5538 -3.6546
  181MOL0     H24396   8.030   8.322   8.467  0.0497 -0.8194  3.3638
  181MOL0     H24397   8.132   8.459   8.504 -3.2185 -1.8606  3.2442
  181MOL0     H24398   8.158   8.375   8.347 -1.5605  1.0623 -0.1894
  181MOL0     H24399   7.926   8.000   8.202  0.8678  0.6563  1.9725
  181MOL0     H24400   7.698   7.890   8.160 -0.5453 -1.4603  0.8172
  181MOL0     H24401   7.517   7.706   8.296  0.7909 -0.4307  0.3807
  181MOL0     H24402   7.463   7.763   8.452 -2.9616  1.9825 -0.6450
  181MOL0     H24403   7.318   7.807   8.191 -0.1115 -0.5335 -0.7890
  181MOL0     H24404   7.276   7.664   8.289  0.8095  0.2700 -1.6465
  181MOL0     H24405   7.223   7.833   8.490  4.1801 -0.1300 -1.1839
  181MOL0     H24406   7.110   7.833   8.349  0.5263 -0.6780 -1.9223
  181MOL0     H24407   7.313   8.045   8.432 -1.0183 -1.8425  0.6407
  181MOL0     H24408   7.256   8.042   8.264  2.9229 -0.4798  0.3883
  181MOL0     H24409   7.040   8.126   8.334 -0.9304  0.0074  0.5901
  181MOL0     H24410   7.157   8.204   8.424  1.2361 -0.5838 -3.7844
  181MOL0     H24411   6.975   7.969   8.513  0.0896 -0.5938  1.3634
  181MOL0     H24412   7.113   8.044   8.613 -1.5662  0.6287  1.5073
  181MOL0     H24413   6.863   8.104   8.653  2.3840 -2.0139 -0.0920
  181MOL0     H24414   6.867   8.187   8.511 -0.3370 -2.4927 -1.3011
  181MOL0     H24415   7.067   8.263   8.722 -0.7255  0.0653  1.1992
  181MOL0     H24416   6.892   8.315   8.721 -0.1066 -0.1517  0.1136
  181MOL0     H24417   7.595   8.009   8.558  0.4039  2.2447 -1.1340
  181MOL0     H24418   7.796   8.096   8.594 -1.0294  0.0841  0.5906
  181MOL0     H24419   8.347   7.952   8.487  4.6344  0.3493 -0.2153
  181MOL0     H24420   8.532   8.067   8.652  0.2854 -0.3352 -0.6214
  181MOL0     H24421   9.872   7.308   9.122 -2.0656  0.0138  0.4212
  181MOL0     H24422  10.029   7.209   9.280  1.0463 -3.0066 -1.0583
  181MOL0     H24423  10.214   6.712   9.293  1.4837  0.5270  0.6825
  181MOL0     H24424  10.385   6.597   9.398  0.9610 -0.9064  2.6475
  181MOL0     H24425  10.484   6.470   9.568  0.9938 -0.7905 -2.4550
  181MOL0     H24426  10.618   6.562   9.493  0.0772  0.6661  0.2870
  181MOL0     H24427  10.773   6.549   9.668  1.8085 -2.4286 -0.3859
  181MOL0     H24428  10.713   6.388   9.666  0.4612 -1.0251  1.1368
  181MOL0     H24429  10.577   6.421   9.858 -0.9507  0.7634 -0.5316
  181MOL0     H24430  10.638   6.589   9.870  1.1606  0.9138 -0.3732
  181MOL0     H24431  10.875   6.437   9.896 -0.2508  1.1430 -0.9576
  181MOL0     H24432  10.772   6.295   9.878 -2.9050 -1.2490  2.9182
  181MOL0     H24433  10.683   6.345  10.266  0.8855 -0.7400  1.8497
  181MOL0     H24434  10.348   6.856   9.739 -1.2421 -0.2974  0.5744
  181MOL0     H24435  10.176   6.972   9.635 -1.4907 -0.4780  1.2797
  182MOL0     O24436   4.750   9.859   3.012  0.5230 -0.0388 -0.3789
  182MOL0     C24437   4.784   9.854   2.893  0.5138 -0.0101  0.2826
  182MOL0     O24438   4.735   9.784   2.791 -0.4969  0.1784  0.0673
  182MOL0     C24439   4.629   9.694   2.806 -0.8046 -0.7425  0.4363
  182MOL0     C24440   4.517   9.703   2.720 -1.4643 -0.5873  0.8456
  182MOL0     C24441   4.410   9.622   2.746  0.8364 -0.7007  0.1372
  182MOL0     C24442   4.404   9.536   2.856  0.5083  0.0075  0.4510
  182MOL0     O24443   4.298   9.457   2.882 -0.2665 -0.0456  0.7737
  182MOL0     C24444   4.309   9.315   2.872  0.0703 -0.2745  0.1278
  182MOL0     C24445   4.192   9.288   2.778  0.0293 -0.1247  0.2537
  182MOL0     C24446   4.184   9.127   2.759 -0.8873 -0.1879  0.2921
  182MOL0     C24447   4.284   9.082   2.653 -0.4554 -0.9537  0.7837
  182MOL0     C24448   4.306   8.924   2.650  0.0799  0.1659 -0.9442
  182MOL0     C24449   4.391   8.890   2.531  0.1406 -1.6037  0.1870
  182MOL0     C24450   4.436   8.747   2.547 -0.1201  0.5363  0.5063
  182MOL0     C24451   4.536   8.691   2.430 -0.3125 -0.7152  0.1141
  182MOL0     N24452   4.467   8.694   2.306  0.1550  0.2843  0.2000
  182MOL0     C24453   4.431   8.587   2.231 -0.3901  0.2502  0.1445
  182MOL0     C24454   4.388   8.635   2.112  0.2795 -0.8364  0.7335
  182MOL0     C24455   4.342   8.551   1.990  0.3586  0.0740 -0.1718
  182MOL0     C24456   4.202   8.501   2.030  0.6491 -0.2549  0.8674
  182MOL0     C24457   4.094   8.619   2.018  0.3562 -0.3048 -0.2091
  182MOL0     C24458   3.958   8.570   1.953 -0.1792 -0.1156 -0.6384
  182MOL0     O24459   3.871   8.684   1.921 -0.0562 -0.3564 -0.6955
  182MOL0     C24460   3.770   8.667   1.835 -0.7867  0.4543 -0.4628
  182MOL0     C24461   3.648   8.729   1.867  0.3531  0.4151 -0.0779
  182MOL0     C24462   3.536   8.705   1.802  1.6029  0.1204 -0.5115
  182MOL0     C24463   3.417   8.781   1.837 -1.0904 -0.4809 -0.6514
  182MOL0     C24464   3.528   8.609   1.699  0.0562  0.5220  0.6689
  182MOL0     C24465   3.404   8.575   1.613 -0.1725  0.5173  0.2595
  182MOL0     O24466   3.435   8.489   1.510  0.0614  0.5284 -0.6814
  182MOL0     C24467   3.346   8.472   1.417  0.6181 -0.3792  0.1566
  182MOL0     C24468   3.275   8.362   1.395  0.5274  0.7603  0.1881
  182MOL0     C24469   3.173   8.350   1.295 -0.6117 -0.6117  0.9624
  182MOL0     C24470   3.158   8.450   1.209 -0.3954 -0.2174  0.8428
  182MOL0     O24471   3.054   8.441   1.111 -0.0942  0.2936  0.3505
  182MOL0     C24472   3.072   8.515   0.987 -1.2142 -0.7204  0.4819
  182MOL0     C24473   3.010   8.437   0.876  0.1534  0.3387 -1.0260
  182MOL0     C24474   3.002   8.514   0.738 -0.5966 -0.0749 -0.0325
  182MOL0     C24475   2.899   8.437   0.636  0.7679 -0.0638 -1.1464
  182MOL0     C24476   2.930   8.461   0.488  0.0074 -0.5460 -0.2336
  182MOL0     C24477   2.843   8.385   0.387  0.9528  0.6024  0.8082
  182MOL0     C24478   2.858   8.440   0.240 -0.3017 -0.1290 -0.1264
  182MOL0     C24479   2.753   8.534   0.182  0.0526 -0.2248 -0.3816
  182MOL0    Cl24480   2.802   8.599   0.020 -0.0375  0.1263 -0.0624
  182MOL0     C24481   3.229   8.575   1.222 -0.2891  0.6074 -0.2780
  182MOL0     C24482   3.320   8.586   1.337 -0.3133 -0.2655  0.8271
  182MOL0     O24483   3.291   8.606   1.648 -0.0119  0.3351 -0.0643
  182MOL0     C24484   3.653   8.549   1.658  0.2103 -0.6302 -0.3208
  182MOL0     C24485   3.773   8.587   1.717  0.2254 -0.1467 -0.3052
  182MOL0     N24486   4.399   8.771   2.104 -0.1379 -0.9682 -0.9940
  182MOL0     N24487   4.449   8.802   2.226  0.2009  0.0927  0.2319
  182MOL0     C24488   4.519   9.521   2.931  0.0262 -0.0712  0.3235
  182MOL0     C24489   4.630   9.601   2.912  0.0058 -0.0356 -0.7013
  182MOL0     C24490   4.872   9.961   2.849 -0.3118 -0.1004  0.5481
  182MOL0     C24491   4.944  10.038   2.937  0.6494 -0.3037 -0.0379
  182MOL0     C24492   5.012  10.162   2.899  0.1851  0.5496 -0.3643
  182MOL0     C24493   5.024  10.190   2.766 -0.6722  0.1989 -0.7290
  182MOL0     O24494   5.105  10.294   2.717  0.6126  0.0983  0.1896
  182MOL0     C24495   5.041  10.423   2.701  0.1277  0.4230  1.4252
  182MOL0     C24496   5.007  10.434   2.550  0.1085 -0.4473 -0.3179
  182MOL0     C24497   4.991  10.579   2.495 -0.0429  0.0493  0.6931
  182MOL0     C24498   4.979  10.614   2.348  0.2242 -0.5020  0.7775
  182MOL0     C24499   4.854  10.548   2.297 -0.1439  0.0721  0.8447
  182MOL0     C24500   4.752  10.486   2.275 -1.1249  0.0262 -0.3393
  182MOL0     C24501   4.969  10.104   2.678 -0.2646  0.6320  0.4963
  182MOL0     C24502   4.892   9.985   2.709 -0.4901  0.6440 -0.4823
  182MOL0     H24503   4.526   9.771   2.636  1.2294 -0.0749  1.4387
  182MOL0     H24504   4.323   9.623   2.681  0.4143 -0.8358  0.6858
  182MOL0     H24505   4.404   9.281   2.831  0.5444 -0.0798  1.0498
  182MOL0     H24506   4.288   9.278   2.972 -0.2135  3.0591  1.4209
  182MOL0     H24507   4.101   9.328   2.825  0.0859 -0.2368  0.4620
  182MOL0     H24508   4.215   9.332   2.681 -0.0719 -1.9749 -0.6563
  182MOL0     H24509   4.201   9.078   2.855  1.3641  1.5358  0.8564
  182MOL0     H24510   4.088   9.103   2.713 -0.8105 -0.3898  0.2378
  182MOL0     H24511   4.249   9.117   2.556  2.8037 -0.1022 -0.1825
  182MOL0     H24512   4.383   9.124   2.668 -0.6112  1.1365 -3.0432
  182MOL0     H24513   4.348   8.885   2.744 -0.9797 -0.9931 -0.9260
  182MOL0     H24514   4.214   8.865   2.643  0.6934 -0.9343 -0.1165
  182MOL0     H24515   4.337   8.887   2.436  1.9056 -3.8397 -0.8309
  182MOL0     H24516   4.477   8.959   2.533 -0.3339 -1.0164  1.0697
  182MOL0     H24517   4.482   8.723   2.643  0.4775 -3.7220 -0.6373
  182MOL0     H24518   4.341   8.692   2.541 -0.1084  0.6812 -1.6316
  182MOL0     H24519   4.568   8.591   2.458 -1.5130 -1.9886 -2.6432
  182MOL0     H24520   4.619   8.761   2.440  0.8228 -2.2201  1.6004
  182MOL0     H24521   4.455   8.484   2.258  3.0416  0.1146 -2.6891
  182MOL0     H24522   4.360   8.599   1.894  0.3416 -1.1972 -0.8339
  182MOL0     H24523   4.408   8.466   1.970 -0.7521 -0.5523 -1.3220
  182MOL0     H24524   4.216   8.468   2.133  0.6524 -0.4545  0.8027
  182MOL0     H24525   4.183   8.414   1.966  1.3518 -1.2479  1.9645
  182MOL0     H24526   4.119   8.711   1.964 -2.6622 -1.0436 -3.2254
  182MOL0     H24527   4.075   8.636   2.124 -1.8890  0.6121 -0.7011
  182MOL0     H24528   3.906   8.504   2.022  1.6893 -0.9687  0.0028
  182MOL0     H24529   3.990   8.509   1.868 -0.3779 -1.2502  0.0910
  182MOL0     H24530   3.629   8.795   1.950 -1.3632 -0.5677  0.3460
  182MOL0     H24531   3.433   8.873   1.895  0.5996 -0.5952 -0.8787
  182MOL0     H24532   3.374   8.811   1.741 -0.8536  0.8021 -0.3817
  182MOL0     H24533   3.354   8.721   1.903 -1.0736 -2.2120 -2.1373
  182MOL0     H24534   3.305   8.277   1.455 -0.1652 -2.2795 -3.4086
  182MOL0     H24535   3.114   8.262   1.268 -1.2047  0.9447 -3.9088
  182MOL0     H24536   3.029   8.616   0.983 -0.8383 -0.5846 -0.6919
  182MOL0     H24537   3.178   8.534   0.967 -1.4702 -1.7366 -2.2378
  182MOL0     H24538   3.064   8.342   0.866 -1.0367 -0.7092  1.5111
  182MOL0     H24539   2.910   8.400   0.899  0.4870  0.5743  1.0383
  182MOL0     H24540   3.100   8.494   0.695 -0.6283 -0.1939 -0.0501
  182MOL0     H24541   2.978   8.619   0.757  0.7673  0.2647 -0.0930
  182MOL0     H24542   2.916   8.330   0.657  2.5786  0.4643  0.3538
  182MOL0     H24543   2.798   8.465   0.669  1.4446  0.8501  0.2543
  182MOL0     H24544   3.037   8.444   0.471 -0.3432 -2.0068 -1.0899
  182MOL0     H24545   2.915   8.567   0.466 -0.3727 -0.2147  1.4883
  182MOL0     H24546   2.863   8.278   0.387 -1.3548  0.1099 -0.7600
  182MOL0     H24547   2.735   8.403   0.396  0.4486  0.0084 -2.7125
  182MOL0     H24548   2.850   8.350   0.178 -1.2239  0.3923 -0.8030
  182MOL0     H24549   2.956   8.488   0.234 -1.3405  2.2228  0.5072
  182MOL0     H24550   2.738   8.621   0.246  0.7257  1.2590 -2.1609
  182MOL0     H24551   2.660   8.476   0.178  0.4288 -0.8119 -0.7744
  182MOL0     H24552   3.224   8.650   1.144 -0.7298 -1.4200 -2.2968
  182MOL0     H24553   3.367   8.681   1.361 -1.9997  1.4491 -2.0174
  182MOL0     H24554   3.658   8.468   1.585 -0.5459 -1.5295  0.5907
  182MOL0     H24555   3.862   8.532   1.687  2.3564  2.6983  0.4256
  182MOL0     H24556   4.514   9.427   2.985 -1.0968 -1.9140 -2.7051
  182MOL0     H24557   4.717   9.582   2.973 -1.7691  1.8480  2.6707
  182MOL0     H24558   4.942  10.010   3.041 -0.3871 -0.2869 -0.0516
  182MOL0     H24559   5.057  10.230   2.970 -1.3589  0.7513  0.4818
  182MOL0     H24560   4.946  10.437   2.754 -2.0761  3.5963 -2.7532
  182MOL0     H24561   5.116  10.497   2.731  1.0144 -0.8702  2.5412
  182MOL0     H24562   4.908  10.387   2.548 -0.1826  0.1281  0.1328
  182MOL0     H24563   5.080  10.374   2.496  5.5549  3.5390  1.7116
  182MOL0     H24564   5.079  10.632   2.533 -0.6237  1.0253  0.7064
  182MOL0     H24565   4.909  10.626   2.550 -0.0297  2.4561 -1.1466
  182MOL0     H24566   5.064  10.577   2.289 -1.5466  0.1025 -2.3747
  182MOL0     H24567   4.970  10.722   2.340 -2.1792 -0.6863  0.4897
  182MOL0     H24568   4.674  10.415   2.258 -0.9902 -1.2634  3.4542
  182MOL0     H24569   5.006  10.141   2.583  0.0731  1.7194  1.0343
  182MOL0     H24570   4.843   9.920   2.638  2.5226 -2.8564  0.3573
  183MOL0     O24571   0.569  11.264   3.858 -0.4548 -0.1399  0.0419
  183MOL0     C24572   0.684  11.292   3.877  0.7505  0.1466  0.7579
  183MOL0     O24573   0.724  11.420   3.915  0.3804 -0.0646 -0.3790
  183MOL0     C24574   0.623  11.517   3.945 -0.4151 -0.3869  0.3125
  183MOL0     C24575   0.537  11.554   3.844  0.9108 -0.2329 -0.3979
  183MOL0     C24576   0.440  11.649   3.868 -0.3173 -0.5606  0.1743
  183MOL0     C24577   0.429  11.714   3.994  0.5775 -0.1550 -0.2290
  183MOL0     O24578   0.323  11.804   4.009 -0.0030  0.2129 -0.0399
  183MOL0     C24579   0.339  11.908   4.108  0.5060 -0.4016 -0.8496
  183MOL0     C24580   0.254  12.027   4.056  0.2213 -0.8387  0.2174
  183MOL0     C24581   0.294  12.067   3.914 -0.1173 -0.4650  0.9726
  183MOL0     C24582   0.207  12.186   3.847  0.3294 -0.2861 -0.5771
  183MOL0     C24583   0.055  12.188   3.874 -0.6150  0.5225 -0.0025
  183MOL0     C24584  -0.006  12.303   3.790  0.0321  0.9329 -0.4811
  183MOL0     C24585  -0.146  12.334   3.838  0.8383  0.7961 -0.6571
  183MOL0     C24586  -0.185  12.464   3.771  0.1987 -0.6973 -0.4462
  183MOL0     N24587  -0.324  12.504   3.815  0.4810 -0.2695  0.7336
  183MOL0     C24588  -0.428  12.423   3.783  0.1162 -0.3630  0.3360
  183MOL0     C24589  -0.534  12.481   3.848 -0.6027 -0.1979  0.2515
  183MOL0     C24590  -0.677  12.451   3.814  0.2394  0.4897 -0.6381
  183MOL0     C24591  -0.730  12.341   3.906 -0.2736  0.1281 -0.2808
  183MOL0     C24592  -0.878  12.278   3.883  0.1520  0.7540  0.3527
  183MOL0     C24593  -0.986  12.381   3.850 -0.2709  0.9842  0.4453
  183MOL0     O24594  -0.979  12.388   3.713  0.1260 -0.0678  0.6649
  183MOL0     C24595  -1.055  12.494   3.651 -0.8081 -0.2139 -0.4300
  183MOL0     C24596  -1.128  12.592   3.723  0.4893  1.4404 -0.6190
  183MOL0     C24597  -1.195  12.695   3.656  0.6366  0.8332 -0.1994
  183MOL0     C24598  -1.276  12.781   3.749 -0.7364 -0.0232  0.4104
  183MOL0     C24599  -1.224  12.686   3.517 -0.3245 -0.2351  0.6264
  183MOL0     C24600  -1.324  12.772   3.454  0.5057  0.0293 -0.4312
  183MOL0     O24601  -1.267  12.847   3.354  0.2193 -0.2097 -0.2436
  183MOL0     C24602  -1.340  12.911   3.263  0.5302  0.8703 -0.0747
  183MOL0     C24603  -1.288  13.033   3.220  0.3415 -0.8504  0.3660
  183MOL0     C24604  -1.348  13.117   3.128  0.3298  0.0712 -0.1647
  183MOL0     C24605  -1.476  13.076   3.078  0.1977 -0.8301 -0.8762
  183MOL0     O24606  -1.541  13.154   2.982 -0.3662  0.4582  0.5927
  183MOL0     C24607  -1.482  13.153   2.857 -0.1591 -0.1162  0.0924
  183MOL0     C24608  -1.435  13.015   2.799  0.3620  0.2283  0.1518
  183MOL0     C24609  -1.404  13.038   2.652 -0.6066  1.1881 -0.0980
  183MOL0     C24610  -1.343  12.920   2.580  0.1197  0.8296  0.0463
  183MOL0     C24611  -1.432  12.787   2.601 -0.0850  0.1417  0.2991
  183MOL0     C24612  -1.570  12.817   2.551  0.8139 -0.2795 -0.7083
  183MOL0     C24613  -1.666  12.693   2.547  1.2193 -0.0023 -1.6004
  183MOL0     C24614  -1.657  12.605   2.423 -0.4623 -0.5080 -0.7728
  183MOL0    Cl24615  -1.698  12.704   2.285 -0.2132 -0.0806 -0.1262
  183MOL0     C24616  -1.530  12.951   3.111  0.3963 -0.5264 -1.1311
  183MOL0     C24617  -1.467  12.870   3.211  0.0497 -0.6293 -0.2015
  183MOL0     O24618  -1.442  12.761   3.489 -1.1889 -0.1580 -0.0497
  183MOL0     C24619  -1.159  12.581   3.452 -0.0742  0.0289  0.9668
  183MOL0     C24620  -1.057  12.506   3.513  1.1258  0.0831  0.0298
  183MOL0     N24621  -0.490  12.578   3.940  0.0139  0.4255 -0.0140
  183MOL0     N24622  -0.367  12.591   3.916  0.1645 -0.3065  0.2444
  183MOL0     C24623   0.512  11.680   4.098 -0.0526  0.2385  0.4658
  183MOL0     C24624   0.598  11.570   4.074 -0.1166  0.0162  0.6446
  183MOL0     C24625   0.781  11.212   3.819 -0.2570  0.7133  0.0774
  183MOL0     C24626   0.913  11.210   3.868 -0.4101 -0.9050 -0.3052
  183MOL0     C24627   1.017  11.137   3.813 -0.0645  0.5120  0.0517
  183MOL0     C24628   0.994  11.050   3.705 -0.0481  0.2702 -0.6674
  183MOL0     O24629   1.094  10.972   3.655  0.2052  0.3475  0.8351
  183MOL0     C24630   1.068  10.844   3.702  0.6629 -0.4465 -0.3345
  183MOL0     C24631   1.190  10.758   3.739  0.1860 -0.5001  0.9811
  183MOL0     C24632   1.296  10.823   3.821 -0.2481  0.7299 -0.8852
  183MOL0     C24633   1.419  10.722   3.845  0.4293 -0.2040  0.4320
  183MOL0     C24634   1.373  10.604   3.917 -0.6236 -0.7322  0.1655
  183MOL0     C24635   1.346  10.516   3.989 -0.2547 -0.2742  0.4052
  183MOL0     C24636   0.867  11.049   3.660  0.1447 -0.5104 -0.8568
  183MOL0     C24637   0.755  11.126   3.710  0.9482  0.5374 -0.0692
  183MOL0     H24638   0.526  11.496   3.752 -1.4062  0.6677 -0.7736
  183MOL0     H24639   0.359  11.677   3.802  1.0379 -2.6165 -2.5753
  183MOL0     H24640   0.311  11.884   4.211  0.1209  1.0972 -0.5838
  183MOL0     H24641   0.440  11.949   4.113  0.8612 -1.4096  2.2986
  183MOL0     H24642   0.152  11.988   4.060  0.2230 -0.7710  2.2456
  183MOL0     H24643   0.269  12.117   4.117  1.1122  0.4484 -1.8139
  183MOL0     H24644   0.395  12.107   3.907 -0.5776  0.4194 -1.7986
  183MOL0     H24645   0.304  11.980   3.848  0.2885 -0.0354  0.4633
  183MOL0     H24646   0.258  12.273   3.890  2.7091 -2.3042  0.9695
  183MOL0     H24647   0.223  12.187   3.739  2.4859 -0.5445 -0.3114
  183MOL0     H24648   0.011  12.090   3.858  1.3736 -0.7212  1.5928
  183MOL0     H24649   0.050  12.220   3.979  0.7629  3.5341 -0.7418
  183MOL0     H24650   0.064  12.387   3.804 -0.6235  1.4048  0.0471
  183MOL0     H24651  -0.016  12.286   3.682  0.9864  2.4294 -0.8383
  183MOL0     H24652  -0.212  12.254   3.804  1.5703  0.6227 -1.7569
  183MOL0     H24653  -0.157  12.341   3.946 -5.2309 -1.3839 -0.7820
  183MOL0     H24654  -0.176  12.453   3.663  2.0822 -2.4265 -0.1658
  183MOL0     H24655  -0.118  12.542   3.809 -2.2020  1.2867 -0.0215
  183MOL0     H24656  -0.429  12.350   3.702 -0.7287 -0.5158  0.4781
  183MOL0     H24657  -0.741  12.539   3.827 -0.3466  0.0721 -0.6270
  183MOL0     H24658  -0.692  12.416   3.712 -0.6877  2.8542 -1.3855
  183MOL0     H24659  -0.733  12.379   4.008 -1.5875  2.4814 -1.1360
  183MOL0     H24660  -0.661  12.256   3.917  1.7122  1.8066  0.8513
  183MOL0     H24661  -0.899  12.242   3.985 -1.1324 -2.0536 -0.7938
  183MOL0     H24662  -0.872  12.189   3.820  2.9868  1.6531 -0.7967
  183MOL0     H24663  -0.972  12.477   3.901  3.1952  1.8833 -1.8283
  183MOL0     H24664  -1.083  12.337   3.874  0.3458 -0.5989  0.1345
  183MOL0     H24665  -1.131  12.580   3.831 -1.9006  0.6990 -0.7095
  183MOL0     H24666  -1.243  12.776   3.853  0.8296  0.1481 -0.0474
  183MOL0     H24667  -1.261  12.883   3.712  0.3255 -0.6313 -0.9206
  183MOL0     H24668  -1.382  12.756   3.748 -0.5478 -0.8597 -0.9445
  183MOL0     H24669  -1.187  13.065   3.243 -0.4930  1.6762  0.8507
  183MOL0     H24670  -1.306  13.214   3.104  0.0998 -0.1158 -1.4048
  183MOL0     H24671  -1.542  13.212   2.787  0.0009 -3.1680 -2.8562
  183MOL0     H24672  -1.387  13.206   2.874  0.0092 -0.3727 -0.0503
  183MOL0     H24673  -1.343  12.974   2.840 -0.1344 -3.1635 -1.7192
  183MOL0     H24674  -1.512  12.939   2.814 -1.9630  2.5753  1.0155
  183MOL0     H24675  -1.323  13.111   2.649 -1.2943  1.9370 -1.8475
  183MOL0     H24676  -1.487  13.071   2.589  0.5524 -0.0999 -2.4367
  183MOL0     H24677  -1.335  12.942   2.473 -0.6411  2.4777  0.2924
  183MOL0     H24678  -1.245  12.902   2.623 -1.5635 -2.3463  3.0793
  183MOL0     H24679  -1.429  12.752   2.704  1.8021 -0.9256 -0.0824
  183MOL0     H24680  -1.389  12.702   2.548 -0.2115  0.9583 -1.1615
  183MOL0     H24681  -1.614  12.899   2.609  2.4299  2.6297 -3.2704
  183MOL0     H24682  -1.560  12.856   2.449  0.9867 -1.4491 -1.1614
  183MOL0     H24683  -1.769  12.725   2.567  0.6210 -1.3222 -2.4220
  183MOL0     H24684  -1.631  12.632   2.631  0.3996  0.1128 -1.1616
  183MOL0     H24685  -1.739  12.533   2.427 -1.3834  0.4747 -1.4090
  183MOL0     H24686  -1.566  12.546   2.411 -1.7790 -3.2647  1.4493
  183MOL0     H24687  -1.632  12.942   3.075  0.2060  0.0401 -0.7560
  183MOL0     H24688  -1.510  12.780   3.253 -0.2671 -0.0141  0.8369
  183MOL0     H24689  -1.166  12.564   3.345  3.5195  3.2473  0.0034
  183MOL0     H24690  -1.007  12.443   3.440 -1.2859  0.8392 -2.4420
  183MOL0     H24691   0.525  11.737   4.189 -1.4110  2.4873 -0.6388
  183MOL0     H24692   0.666  11.535   4.152 -1.0680  0.2016  1.5811
  183MOL0     H24693   0.954  11.263   3.953  1.4104 -1.9682 -0.4579
  183MOL0     H24694   1.120  11.126   3.847  0.0399 -1.3267 -0.7437
  183MOL0     H24695   1.011  10.849   3.795  1.7089  0.7753  0.2719
  183MOL0     H24696   1.012  10.783   3.630 -2.3063  2.9337 -1.1768
  183MOL0     H24697   1.236  10.713   3.650  1.4497 -0.0160  1.3721
  183MOL0     H24698   1.153  10.668   3.789  0.9795 -0.7856  1.0638
  183MOL0     H24699   1.253  10.849   3.918  0.8480  0.9868 -0.4507
  183MOL0     H24700   1.328  10.915   3.773 -1.1141  0.7820 -1.3732
  183MOL0     H24701   1.498  10.774   3.901 -0.6567 -3.1048  5.2771
  183MOL0     H24702   1.468  10.698   3.751  2.9049  1.7764  1.0976
  183MOL0     H24703   1.313  10.432   4.047 -1.8310 -1.4863 -2.0690
  183MOL0     H24704   0.862  10.985   3.572  0.1706  0.1767 -1.3738
  183MOL0     H24705   0.656  11.111   3.667  1.5858 -1.7232 -0.9177
  184MOL0     O24706   4.440   1.487  10.532  0.0291  0.1853  0.0123
  184MOL0     C24707   4.388   1.497  10.424 -0.7147 -1.0028  1.4142
  184MOL0     O24708   4.438   1.583  10.320 -0.0363  0.3768  0.0270
  184MOL0     C24709   4.545   1.654  10.364 -0.8295  0.2917 -0.7443
  184MOL0     C24710   4.516   1.783  10.407  0.2114  0.8107  0.1355
  184MOL0     C24711   4.603   1.870  10.462 -0.1676  0.4781 -0.1872
  184MOL0     C24712   4.733   1.814  10.480 -0.4462 -0.5469 -0.3664
  184MOL0     O24713   4.815   1.898  10.554  0.3478  0.2483 -0.2097
  184MOL0     C24714   4.946   1.856  10.594 -1.2026  0.0554  1.1896
  184MOL0     C24715   5.013   1.997  10.598  0.0032 -0.5036 -0.1104
  184MOL0     C24716   5.155   1.983  10.649 -0.1640 -0.2883 -0.5851
  184MOL0     C24717   5.178   1.984  10.797 -0.5029  0.0451 -0.9805
  184MOL0     C24718   5.324   2.013  10.845 -0.8643  0.3354 -0.1760
  184MOL0     C24719   5.432   1.919  10.789 -0.1906  0.0559 -0.6395
  184MOL0     C24720   5.579   1.969  10.819  0.6212 -0.0365 -0.2126
  184MOL0     C24721   5.670   1.855  10.795 -0.1025 -0.8659  0.2103
  184MOL0     N24722   5.815   1.897  10.760 -0.0533  0.1683  0.1077
  184MOL0     C24723   5.848   1.965  10.650 -0.6946 -0.1931  0.3170
  184MOL0     C24724   5.981   1.981  10.651 -0.3434 -0.6736 -0.4208
  184MOL0     C24725   6.040   2.055  10.536 -0.1567 -0.6709  0.6187
  184MOL0     C24726   6.197   2.065  10.561 -0.1556 -1.0897 -0.3728
  184MOL0     C24727   6.231   2.167  10.675 -0.5527 -0.7142  0.2571
  184MOL0     C24728   6.343   2.268  10.645  0.9080  0.2958  0.1260
  184MOL0     O24729   6.308   2.388  10.570  0.4825  0.2032  0.3517
  184MOL0     C24730   6.355   2.433  10.456 -0.5062  0.9998  0.6540
  184MOL0     C24731   6.335   2.571  10.430  0.0886  0.4258  0.2908
  184MOL0     C24732   6.379   2.628  10.312 -0.5606 -0.1032  0.4258
  184MOL0     C24733   6.356   2.778  10.297 -0.9692  0.1164  0.2908
  184MOL0     C24734   6.439   2.546  10.212 -0.4889 -0.4286 -0.3051
  184MOL0     C24735   6.501   2.604  10.086 -0.5640 -0.3577 -0.2108
  184MOL0     O24736   6.526   2.512   9.993 -0.2539  0.3127 -0.6146
  184MOL0     C24737   6.547   2.563   9.868  0.3103 -0.0465  0.9503
  184MOL0     C24738   6.678   2.575   9.816  0.2292 -0.3994  0.1211
  184MOL0     C24739   6.701   2.613   9.680  0.2809  0.2827  0.0407
  184MOL0     C24740   6.596   2.654   9.598  0.2424 -0.0809  0.1145
  184MOL0     O24741   6.615   2.699   9.465 -0.1018  0.2227  0.2376
  184MOL0     C24742   6.748   2.709   9.413  0.0232 -0.1018 -0.0764
  184MOL0     C24743   6.773   2.761   9.270 -0.1026 -0.7734 -0.4723
  184MOL0     C24744   6.768   2.917   9.262  0.1780 -0.5011  0.6364
  184MOL0     C24745   6.834   2.950   9.127 -0.3437  0.2587  0.4202
  184MOL0     C24746   6.785   2.883   9.002 -0.5209 -0.4610 -0.0791
  184MOL0     C24747   6.826   2.966   8.882 -0.2978  1.0199 -0.9175
  184MOL0     C24748   6.769   2.897   8.756 -0.5631 -0.3888 -0.5464
  184MOL0     C24749   6.794   2.980   8.627 -0.3865  0.0324 -0.1830
  184MOL0    Cl24750   6.722   2.909   8.485  0.2117  0.2016  0.3340
  184MOL0     C24751   6.458   2.643   9.644  0.2683  0.5559 -0.4061
  184MOL0     C24752   6.441   2.590   9.778  0.2894 -0.9575 -0.8123
  184MOL0     O24753   6.535   2.725  10.085 -0.6485 -0.2665  0.1560
  184MOL0     C24754   6.458   2.410  10.231  0.1249 -0.0343 -0.2267
  184MOL0     C24755   6.416   2.353  10.352 -0.8057 -0.1880 -1.1908
  184MOL0     N24756   6.027   1.906  10.757 -0.0686 -0.1956 -0.1863
  184MOL0     N24757   5.927   1.856  10.830 -0.4863 -0.2425  0.5199
  184MOL0     C24758   4.771   1.691  10.426  0.0880  0.3879  0.1372
  184MOL0     C24759   4.677   1.602  10.373 -0.5925 -0.6790 -0.2005
  184MOL0     C24760   4.259   1.426  10.405 -0.0706 -0.3729  0.2334
  184MOL0     C24761   4.187   1.449  10.292 -0.3620 -1.2327 -0.0592
  184MOL0     C24762   4.068   1.384  10.268 -0.0502  0.0047  0.4704
  184MOL0     C24763   4.010   1.293  10.364 -0.6415  0.5545  0.1117
  184MOL0     O24764   3.891   1.232  10.346  0.1010  0.4336 -0.1198
  184MOL0     C24765   3.828   1.201  10.226 -0.3142 -1.1444 -0.3586
  184MOL0     C24766   3.713   1.098  10.256 -0.2198 -0.4604  0.1084
  184MOL0     C24767   3.774   0.958  10.296  0.1288 -1.2070 -0.8620
  184MOL0     C24768   3.691   0.832  10.269 -0.2061 -1.1171 -0.0117
  184MOL0     C24769   3.689   0.821  10.122 -0.1851  0.3119 -1.1112
  184MOL0     C24770   3.683   0.835  10.005  1.1803 -0.0017 -0.0816
  184MOL0     C24771   4.087   1.281  10.481 -0.1384  0.3977  0.2645
  184MOL0     C24772   4.205   1.346  10.513 -0.6895  0.2202 -0.3325
  184MOL0     H24773   4.412   1.803  10.385 -0.0745 -0.8068 -0.1312
  184MOL0     H24774   4.568   1.963  10.505 -0.4326 -0.4154  1.6251
  184MOL0     H24775   4.957   1.800  10.687 -3.3838 -0.4885  1.1712
  184MOL0     H24776   4.986   1.789  10.518 -2.5777  0.6607 -0.1359
  184MOL0     H24777   5.009   2.042  10.498  2.4697 -0.8331 -0.4029
  184MOL0     H24778   4.958   2.057  10.672  0.2044  0.5767 -0.8186
  184MOL0     H24779   5.208   1.906  10.592  0.1996 -0.5517  0.0819
  184MOL0     H24780   5.190   2.077  10.607  1.8962 -2.2462 -3.6346
  184MOL0     H24781   5.119   2.057  10.853 -0.8507 -1.3233  0.5341
  184MOL0     H24782   5.154   1.883  10.833 -0.4036 -0.0534 -1.1926
  184MOL0     H24783   5.346   2.115  10.814  1.7167 -0.0517  0.1770
  184MOL0     H24784   5.320   2.014  10.954 -3.9513  0.2451 -0.1840
  184MOL0     H24785   5.418   1.824  10.841 -2.1253  2.2971  3.3405
  184MOL0     H24786   5.415   1.893  10.684 -3.0623  0.3741 -0.3417
  184MOL0     H24787   5.606   2.038  10.739 -1.9155  1.4650  0.1436
  184MOL0     H24788   5.596   2.026  10.911  2.4882  1.2786 -1.2926
  184MOL0     H24789   5.646   1.813  10.697 -0.7822 -0.5037  0.2133
  184MOL0     H24790   5.654   1.771  10.862  0.3119  1.3713  3.3559
  184MOL0     H24791   5.791   2.017  10.573  1.3508  3.6280  1.1518
  184MOL0     H24792   6.017   1.998  10.445 -0.0740 -0.7837  0.6674
  184MOL0     H24793   6.005   2.157  10.520  0.2494 -0.7904 -1.3234
  184MOL0     H24794   6.237   2.109  10.469 -2.8432  4.1559  0.5839
  184MOL0     H24795   6.235   1.969  10.596  2.5661 -0.0192 -0.1376
  184MOL0     H24796   6.262   2.110  10.763  1.4936  0.5798  0.4431
  184MOL0     H24797   6.147   2.228  10.708  1.2402  0.8939  2.0582
  184MOL0     H24798   6.429   2.215  10.601 -0.0627 -1.9158  0.7575
  184MOL0     H24799   6.381   2.300  10.743  0.9349 -1.0729  0.5753
  184MOL0     H24800   6.291   2.627  10.512 -0.3052 -1.4732  1.4412
  184MOL0     H24801   6.311   2.801  10.200 -0.4485 -0.6430 -0.1432
  184MOL0     H24802   6.297   2.811  10.383  1.2160  0.5846  1.6969
  184MOL0     H24803   6.449   2.836  10.283 -0.7755 -0.6146 -1.8675
  184MOL0     H24804   6.767   2.564   9.877 -0.4100 -2.8443  0.6883
  184MOL0     H24805   6.805   2.606   9.653 -0.5256  1.0094 -3.9065
  184MOL0     H24806   6.808   2.778   9.473 -1.1136  1.3887 -0.6022
  184MOL0     H24807   6.783   2.606   9.426  0.7049 -0.1246 -1.8101
  184MOL0     H24808   6.873   2.731   9.241  0.2186  1.5661 -2.0668
  184MOL0     H24809   6.705   2.704   9.206 -0.6370  0.2436 -0.8364
  184MOL0     H24810   6.811   2.975   9.345  1.6669  0.1546 -0.5531
  184MOL0     H24811   6.664   2.947   9.250  0.0654 -0.8815  0.6520
  184MOL0     H24812   6.822   3.057   9.108  0.2237 -0.0051 -1.6465
  184MOL0     H24813   6.942   2.931   9.128 -0.2696  0.6214 -0.3721
  184MOL0     H24814   6.676   2.884   9.015 -1.0108  1.9512 -3.1887
  184MOL0     H24815   6.814   2.777   9.003 -3.4005 -1.3572  0.5548
  184MOL0     H24816   6.786   3.067   8.894 -0.6961  0.7094  0.4420
  184MOL0     H24817   6.934   2.981   8.885 -0.2857  0.7273  0.5917
  184MOL0     H24818   6.660   2.881   8.758 -0.4373 -1.3766 -0.7941
  184MOL0     H24819   6.820   2.801   8.743  2.2084  0.9661 -0.2417
  184MOL0     H24820   6.901   2.998   8.611 -0.4637  3.3463  2.0591
  184MOL0     H24821   6.746   3.076   8.647  1.9607  0.9214  1.6976
  184MOL0     H24822   6.380   2.679   9.577 -0.2428 -2.5498 -1.6491
  184MOL0     H24823   6.340   2.578   9.817  0.5165  2.2450  1.2022
  184MOL0     H24824   6.504   2.338  10.164  3.7086 -0.0419  1.9786
  184MOL0     H24825   6.425   2.246  10.372  1.6456  0.1665  0.0100
  184MOL0     H24826   4.866   1.649  10.457  0.9770  1.5536 -0.9197
  184MOL0     H24827   4.696   1.498  10.351 -0.9175 -0.8649  0.3703
  184MOL0     H24828   4.221   1.519  10.217 -1.0781  1.7131  2.1754
  184MOL0     H24829   4.003   1.400  10.183 -1.5169 -2.8434  0.9377
  184MOL0     H24830   3.778   1.287  10.180 -2.8156 -1.4348  1.6186
  184MOL0     H24831   3.900   1.163  10.153  1.0990 -1.8355  1.3401
  184MOL0     H24832   3.649   1.096  10.166 -3.7754 -3.1545  2.4146
  184MOL0     H24833   3.647   1.121  10.340 -0.8643 -1.0906 -0.2078
  184MOL0     H24834   3.790   0.951  10.404 -0.7846 -1.8787 -0.7509
  184MOL0     H24835   3.868   0.954  10.242  1.0182 -0.0286  0.5206
  184MOL0     H24836   3.589   0.836  10.308 -0.4354  2.6341 -0.5901
  184MOL0     H24837   3.742   0.751  10.322  2.6030  1.0411  0.8745
  184MOL0     H24838   3.672   0.849   9.899 -1.2175 -1.2484 -0.0581
  184MOL0     H24839   4.048   1.223  10.564  2.8044  0.3618  1.7510
  184MOL0     H24840   4.268   1.319  10.597 -0.1389  0.6453 -0.6033
  185MOL0     O24841   7.953   2.765   8.333 -0.3120 -0.2870  1.7054
  185MOL0     C24842   7.856   2.743   8.262  0.0378 -0.3119 -0.7788
  185MOL0     O24843   7.764   2.642   8.301 -0.2085  0.3511  0.8539
  185MOL0     C24844   7.792   2.548   8.400 -0.0355 -0.3278 -0.1604
  185MOL0     C24845   7.696   2.538   8.496 -0.5110 -0.3423  0.0981
  185MOL0     C24846   7.714   2.453   8.604 -0.4610 -0.8958  0.3027
  185MOL0     C24847   7.832   2.373   8.613 -0.3654  0.2269 -1.5560
  185MOL0     O24848   7.855   2.281   8.721  0.0563 -0.1699  0.5711
  185MOL0     C24849   7.734   2.207   8.770 -0.4704  0.4328  0.3733
  185MOL0     C24850   7.770   2.076   8.853  0.2559 -0.0018  0.3164
  185MOL0     C24851   7.656   1.988   8.898  0.7650 -0.1981 -0.5683
  185MOL0     C24852   7.688   1.859   8.959  0.7436 -0.1305 -0.5865
  185MOL0     C24853   7.572   1.791   9.039 -1.2689  0.5651  0.0958
  185MOL0     C24854   7.491   1.881   9.142  0.2308 -0.5349 -0.3668
  185MOL0     C24855   7.571   1.930   9.264 -0.7034 -0.4625  0.0609
  185MOL0     C24856   7.508   2.043   9.341  0.4996  0.3079 -1.2677
  185MOL0     N24857   7.372   2.003   9.381  0.6889  0.4223 -0.2905
  185MOL0     C24858   7.329   1.891   9.447  0.7905 -0.1985  0.3817
  185MOL0     C24859   7.192   1.896   9.442 -0.3321  1.1518  1.0492
  185MOL0     C24860   7.090   1.801   9.503 -0.3567  0.9180 -0.1837
  185MOL0     C24861   6.989   1.734   9.414  0.2518 -0.0923  0.1114
  185MOL0     C24862   6.895   1.644   9.501  0.3765  0.6017 -0.0287
  185MOL0     C24863   6.804   1.569   9.402 -0.0378 -0.1264 -0.9654
  185MOL0     O24864   6.880   1.481   9.313 -0.3762 -0.4501 -0.2953
  185MOL0     C24865   6.808   1.396   9.228 -0.6442 -0.3728 -0.5879
  185MOL0     C24866   6.800   1.260   9.255  0.1125 -0.4630 -0.3951
  185MOL0     C24867   6.736   1.173   9.176 -0.1597  0.3449 -0.4123
  185MOL0     C24868   6.733   1.027   9.218 -0.3298  0.1018 -0.0031
  185MOL0     C24869   6.686   1.216   9.055  0.6365 -0.4413 -0.1862
  185MOL0     C24870   6.626   1.126   8.948  0.0204 -0.1527 -0.7854
  185MOL0     O24871   6.520   1.190   8.877 -0.1780 -0.6286 -0.8684
  185MOL0     C24872   6.483   1.130   8.759 -0.2041 -0.0587 -0.5182
  185MOL0     C24873   6.540   1.174   8.635 -0.2351  0.0866 -0.7233
  185MOL0     C24874   6.515   1.101   8.520 -0.4371 -0.1470 -0.4050
  185MOL0     C24875   6.438   0.988   8.523 -0.1915  0.0032  0.3409
  185MOL0     O24876   6.399   0.913   8.416 -0.2206  0.5615 -0.3749
  185MOL0     C24877   6.483   0.806   8.372 -0.0011 -0.0021 -0.5351
  185MOL0     C24878   6.429   0.666   8.422  0.1628  0.5631  0.3411
  185MOL0     C24879   6.289   0.639   8.372 -0.4777 -0.6698 -0.3179
  185MOL0     C24880   6.222   0.519   8.437  0.3020  0.2365  0.2413
  185MOL0     C24881   6.282   0.392   8.376  0.8535 -0.0414 -0.0544
  185MOL0     C24882   6.208   0.266   8.412 -0.7953  0.4577 -0.4452
  185MOL0     C24883   6.067   0.266   8.335 -0.2270  0.0682 -0.4704
  185MOL0     C24884   5.967   0.143   8.362 -0.0351  0.0068  0.3630
  185MOL0    Cl24885   5.812   0.169   8.279  0.6743  0.6173 -0.2342
  185MOL0     C24886   6.383   0.950   8.648 -0.9468  0.0981 -0.2676
  185MOL0     C24887   6.412   1.013   8.765 -1.0861 -0.4837 -0.1432
  185MOL0     O24888   6.673   1.018   8.919 -0.2528 -0.0745 -0.9781
  185MOL0     C24889   6.688   1.360   9.024  0.2369  0.3206 -0.2726
  185MOL0     C24890   6.752   1.448   9.109  0.2160 -0.0769 -0.8677
  185MOL0     N24891   7.152   2.017   9.379  0.2390 -0.7158 -0.1830
  185MOL0     N24892   7.262   2.077   9.341  0.2647 -0.0149 -0.1684
  185MOL0     C24893   7.931   2.390   8.514  0.7202  0.0630 -0.2060
  185MOL0     C24894   7.912   2.477   8.404 -0.2001 -1.1650  0.7363
  185MOL0     C24895   7.837   2.823   8.141  0.3427 -0.1987  0.1146
  185MOL0     C24896   7.711   2.829   8.084 -0.0869 -0.8233 -0.5310
  185MOL0     C24897   7.702   2.903   7.963  0.6169  0.2814  0.1627
  185MOL0     C24898   7.801   2.976   7.911 -0.1955 -0.3083  0.1280
  185MOL0     O24899   7.782   3.042   7.789  0.1422  0.0686  0.7574
  185MOL0     C24900   7.892   3.092   7.710  0.2227 -0.7182 -0.0014
  185MOL0     C24901   7.921   3.239   7.741  0.5125  0.0848 -0.0011
  185MOL0     C24902   7.970   3.328   7.618  0.3922 -0.4378  0.8415
  185MOL0     C24903   8.099   3.295   7.544  0.5086  1.1166  0.5023
  185MOL0     C24904   8.097   3.175   7.460  0.7478 -0.5970  0.1466
  185MOL0     C24905   8.072   3.084   7.386 -0.4572 -0.3310  1.0109
  185MOL0     C24906   7.928   2.972   7.971 -0.2694 -0.5217  0.8811
  185MOL0     C24907   7.941   2.890   8.084 -0.2300 -0.0143 -0.3637
  185MOL0     H24908   7.613   2.606   8.485  0.6297  0.9065 -1.0601
  185MOL0     H24909   7.642   2.432   8.682  0.2642 -0.2914  1.1607
  185MOL0     H24910   7.703   2.277   8.848  0.4187  0.1942  0.9542
  185MOL0     H24911   7.663   2.182   8.691 -0.0745 -1.5029  0.5781
  185MOL0     H24912   7.840   2.014   8.796 -0.5735  0.3402 -1.1163
  185MOL0     H24913   7.810   2.121   8.944 -1.2756  2.0718  0.0336
  185MOL0     H24914   7.600   2.049   8.969  1.2063 -2.2844  1.7417
  185MOL0     H24915   7.592   1.967   8.813  0.1656  0.0403 -0.1818
  185MOL0     H24916   7.724   1.790   8.883 -0.4539 -1.3126 -0.1243
  185MOL0     H24917   7.776   1.883   9.019  2.6456 -3.6535 -1.7085
  185MOL0     H24918   7.498   1.745   8.972 -2.1790  2.3482 -0.1785
  185MOL0     H24919   7.617   1.724   9.114 -1.5796  0.7148  0.4190
  185MOL0     H24920   7.460   1.969   9.084 -1.3645 -0.3767  0.6597
  185MOL0     H24921   7.404   1.832   9.186  0.6641 -0.9570  0.0311
  185MOL0     H24922   7.594   1.845   9.328 -1.0898 -3.0439 -3.0048
  185MOL0     H24923   7.666   1.966   9.223  0.7410 -2.3067  1.6411
  185MOL0     H24924   7.500   2.137   9.286 -1.6805 -0.7900 -2.9796
  185MOL0     H24925   7.563   2.061   9.434 -3.0264  1.1042  0.8555
  185MOL0     H24926   7.387   1.810   9.489 -1.6538 -0.3347  3.9454
  185MOL0     H24927   7.166   1.730   9.537  1.0442  2.0154 -0.9287
  185MOL0     H24928   7.044   1.840   9.594 -0.4053 -1.7980  1.0660
  185MOL0     H24929   7.046   1.677   9.340  1.6533  0.5886  0.6202
  185MOL0     H24930   6.928   1.813   9.369 -0.5800 -1.8304 -1.9826
  185MOL0     H24931   6.839   1.697   9.578 -0.5160 -3.0049  2.0526
  185MOL0     H24932   6.944   1.560   9.553 -0.6573 -1.6363 -2.4228
  185MOL0     H24933   6.746   1.643   9.345  1.0338  3.2247  1.9227
  185MOL0     H24934   6.725   1.514   9.454 -0.2327  1.8355  0.9453
  185MOL0     H24935   6.842   1.226   9.349 -0.6353  2.7169  1.2303
  185MOL0     H24936   6.633   0.985   9.202  0.4833 -1.3987 -1.3900
  185MOL0     H24937   6.806   0.967   9.163 -1.8258 -0.4613 -1.4653
  185MOL0     H24938   6.756   1.015   9.324 -0.7082  2.6530  0.4500
  185MOL0     H24939   6.600   1.263   8.650 -1.8656  1.0668  0.3488
  185MOL0     H24940   6.558   1.135   8.426 -2.0264  0.7653 -0.8414
  185MOL0     H24941   6.472   0.809   8.264 -0.4937  1.2259 -0.4723
  185MOL0     H24942   6.586   0.807   8.410 -0.4436 -1.6640  0.8258
  185MOL0     H24943   6.496   0.592   8.378 -1.8266 -1.1623  0.0613
  185MOL0     H24944   6.441   0.656   8.530  0.3265  0.3793  0.3057
  185MOL0     H24945   6.301   0.637   8.263  1.4366 -1.0963 -0.1358
  185MOL0     H24946   6.230   0.730   8.385  0.5265 -0.0569  0.0952
  185MOL0     H24947   6.223   0.522   8.546 -5.9128  2.0015  0.6455
  185MOL0     H24948   6.116   0.535   8.414  0.5185 -1.1603 -2.0864
  185MOL0     H24949   6.385   0.381   8.409 -0.1810 -1.0392  3.2092
  185MOL0     H24950   6.284   0.400   8.267 -0.0002 -2.2962 -0.3016
  185MOL0     H24951   6.256   0.174   8.378 -0.7494  0.1596  0.4045
  185MOL0     H24952   6.204   0.244   8.519  0.4599 -1.9160 -0.8274
  185MOL0     H24953   6.088   0.275   8.229 -0.0786  0.7917 -0.3818
  185MOL0     H24954   6.024   0.356   8.380  2.6215  1.5537 -0.5142
  185MOL0     H24955   5.944   0.152   8.468  0.3594  2.3961  0.2893
  185MOL0     H24956   6.022   0.053   8.330  2.7001  1.2924  1.1642
  185MOL0     H24957   6.320   0.862   8.658 -0.4490 -0.2156  0.1741
  185MOL0     H24958   6.381   0.979   8.863 -6.0853 -1.9621 -1.9292
  185MOL0     H24959   6.643   1.389   8.929  0.1488 -0.9216 -0.6357
  185MOL0     H24960   6.771   1.553   9.087 -2.5922  0.2841 -1.9896
  185MOL0     H24961   8.026   2.338   8.514  0.8833  0.3320  0.8983
  185MOL0     H24962   7.988   2.502   8.331 -2.3110 -1.3095 -1.6368
  185MOL0     H24963   7.623   2.773   8.110  0.2410 -1.7391 -1.3249
  185MOL0     H24964   7.611   2.921   7.907 -0.1285  1.0262  1.5726
  185MOL0     H24965   7.990   3.043   7.711  0.3056 -0.5488  0.6100
  185MOL0     H24966   7.861   3.093   7.605 -2.5163  0.4938  0.7157
  185MOL0     H24967   7.994   3.238   7.822  0.8467  0.8365 -0.2789
  185MOL0     H24968   7.838   3.293   7.787  1.0506  1.1732 -0.2617
  185MOL0     H24969   7.979   3.430   7.655 -3.0927 -0.1604  1.2912
  185MOL0     H24970   7.899   3.331   7.535  1.2747  3.0412  0.0459
  185MOL0     H24971   8.195   3.293   7.598  0.9250 -2.7714 -0.1604
  185MOL0     H24972   8.109   3.381   7.476 -0.6688  0.4072 -0.5915
  185MOL0     H24973   8.033   3.011   7.318  1.7947 -0.1073 -0.6466
  185MOL0     H24974   8.010   3.020   7.920  1.8748 -4.5388  0.1312
  185MOL0     H24975   8.045   2.879   8.113  0.4550 -0.7300 -2.8501
  186MOL0     O24976   9.945   4.447   5.579 -0.4013 -0.3688  0.4888
  186MOL0     C24977   9.951   4.566   5.538  1.2103 -0.5809 -1.4682
  186MOL0     O24978   9.949   4.678   5.626  0.3791  0.4604 -0.2545
  186MOL0     C24979   9.981   4.653   5.762 -0.7336 -0.6558  0.6730
  186MOL0     C24980   9.908   4.727   5.864  0.2907 -0.3969  0.3382
  186MOL0     C24981   9.950   4.732   5.992  0.7500  0.0773 -0.1013
  186MOL0     C24982  10.052   4.657   6.036 -0.0312  0.9209 -0.1423
  186MOL0     O24983  10.100   4.680   6.161 -0.5259 -1.2286 -0.6519
  186MOL0     C24984  10.184   4.589   6.240 -0.0358  0.4313  0.6164
  186MOL0     C24985  10.248   4.641   6.376  0.8357  0.1389  1.0754
  186MOL0     C24986  10.330   4.770   6.345 -0.3652  0.1331  0.5391
  186MOL0     C24987  10.324   4.867   6.465  0.3178 -0.3369 -0.5300
  186MOL0     C24988  10.197   4.949   6.460  0.1792  0.6113  0.5701
  186MOL0     C24989  10.217   5.073   6.366  0.2389 -0.1194  0.8163
  186MOL0     C24990  10.095   5.157   6.351  0.4060 -0.5425 -0.1453
  186MOL0     C24991   9.998   5.093   6.257 -0.3714 -0.5991 -0.0242
  186MOL0     N24992  10.041   5.104   6.111  0.2427  0.3647 -0.6036
  186MOL0     C24993  10.092   5.000   6.040 -0.4399  0.3445  0.5539
  186MOL0     C24994  10.107   5.050   5.917 -0.9980  1.1907  0.4088
  186MOL0     C24995  10.164   4.975   5.794 -0.5112  0.3509  0.1236
  186MOL0     C24996  10.267   5.062   5.715 -0.8446  0.4100 -0.0973
  186MOL0     C24997  10.401   5.089   5.804 -0.1358  0.4466  0.4519
  186MOL0     C24998  10.479   4.959   5.826  0.0460  1.2118 -0.6973
  186MOL0     O24999  10.609   4.971   5.910  0.2863  0.6243  0.0495
  186MOL0     C25000  10.657   4.851   5.959  0.7204 -1.1770 -0.8577
  186MOL0     C25001  10.589   4.720   5.958  0.5824  0.0531 -1.0208
  186MOL0     C25002  10.656   4.609   5.995  0.4044  0.0319 -0.4020
  186MOL0     C25003  10.571   4.480   5.996 -0.2328 -1.4072 -0.1864
  186MOL0     C25004  10.795   4.618   6.041  0.8150 -0.3059 -0.3239
  186MOL0     C25005  10.866   4.499   6.081  0.3391 -0.4066 -0.2608
  186MOL0     O25006  10.961   4.516   6.174 -0.4789  0.0629 -0.8949
  186MOL0     C25007  11.056   4.425   6.201 -0.8714 -0.6087  0.4224
  186MOL0     C25008  11.176   4.482   6.223 -0.6450  1.3709 -0.0353
  186MOL0     C25009  11.286   4.397   6.269 -0.2727 -0.4168  1.0488
  186MOL0     C25010  11.267   4.261   6.301  0.6183 -1.1223  0.0843
  186MOL0     O25011  11.372   4.188   6.358  0.1503  0.8518 -1.0910
  186MOL0     C25012  11.382   4.055   6.312  1.2031  0.5906 -0.6847
  186MOL0     C25013  11.327   3.962   6.423 -0.6882  0.3934  0.2640
  186MOL0     C25014  11.307   3.815   6.395 -0.5803  0.3003 -0.2348
  186MOL0     C25015  11.213   3.779   6.279 -0.1025 -0.9878 -0.6919
  186MOL0     C25016  11.242   3.640   6.219  0.6110 -0.0849 -0.4001
  186MOL0     C25017  11.355   3.668   6.116  0.3725 -0.0446 -0.3746
  186MOL0     C25018  11.418   3.553   6.036  0.0484 -0.4295 -0.9185
  186MOL0     C25019  11.544   3.603   5.978  0.6726 -0.9330 -0.3919
  186MOL0    Cl25020  11.534   3.765   5.909  0.1157  0.0086  0.0480
  186MOL0     C25021  11.139   4.214   6.286  0.5916  0.8638  0.6214
  186MOL0     C25022  11.037   4.300   6.230 -0.4402 -0.1414  0.7449
  186MOL0     O25023  10.853   4.400   6.013  0.2170  0.1358 -0.1646
  186MOL0     C25024  10.852   4.749   6.051 -0.0174  1.3864 -1.0991
  186MOL0     C25025  10.785   4.856   6.006 -0.2205  0.3582  0.1311
  186MOL0     N25026  10.063   5.173   5.907 -0.5529 -0.0166 -0.0817
  186MOL0     N25027  10.019   5.212   6.032 -0.5347 -0.3242  0.1336
  186MOL0     C25028  10.114   4.574   5.946 -0.0945 -0.0719  1.4740
  186MOL0     C25029  10.102   4.581   5.807  0.6801  0.5850  0.0326
  186MOL0     C25030   9.955   4.585   5.394  0.8239 -0.7709 -0.5010
  186MOL0     C25031   9.978   4.721   5.348  1.0961  0.5385  0.0605
  186MOL0     C25032   9.992   4.737   5.207  0.1571  0.2547 -0.3140
  186MOL0     C25033   9.964   4.631   5.115 -0.4143 -0.4031  0.3033
  186MOL0     O25034   9.990   4.654   4.987 -0.4151 -0.5273  0.0413
  186MOL0     C25035   9.906   4.591   4.890 -0.0454  0.4775  0.7917
  186MOL0     C25036   9.921   4.645   4.752  0.0141  0.1427 -1.4035
  186MOL0     C25037   9.854   4.778   4.745  0.4551 -1.0366  0.7640
  186MOL0     C25038   9.868   4.821   4.602 -1.0147 -1.6578  0.0399
  186MOL0     C25039   9.762   4.774   4.510  0.5724  0.0448  0.4977
  186MOL0     C25040   9.662   4.742   4.442  0.0618  0.5043 -0.9182
  186MOL0     C25041   9.930   4.505   5.167  0.2232 -0.4862  0.9816
  186MOL0     C25042   9.929   4.482   5.300 -0.4093 -0.0770 -0.2747
  186MOL0     H25043   9.821   4.786   5.838  0.6000 -0.9117 -2.1058
  186MOL0     H25044   9.902   4.795   6.067  2.6405 -0.3079  1.5373
  186MOL0     H25045  10.123   4.502   6.266 -0.5055 -0.3057 -2.4906
  186MOL0     H25046  10.273   4.546   6.192 -0.4892  0.3322 -0.1494
  186MOL0     H25047  10.156   4.669   6.429 -2.1893 -2.8324 -2.1201
  186MOL0     H25048  10.313   4.575   6.434  1.2836  0.4447  0.9260
  186MOL0     H25049  10.437   4.755   6.329 -0.8681 -2.3177 -0.9684
  186MOL0     H25050  10.299   4.816   6.251 -0.7179 -0.1712  0.5064
  186MOL0     H25051  10.320   4.809   6.558  0.3938  2.4205  1.3514
  186MOL0     H25052  10.416   4.925   6.481 -0.1376  0.1282  0.5783
  186MOL0     H25053  10.105   4.893   6.441 -0.9302  3.0758 -1.9796
  186MOL0     H25054  10.180   4.985   6.562  2.1774 -1.6744  1.8285
  186MOL0     H25055  10.292   5.135   6.415 -2.9124  1.4181  4.1800
  186MOL0     H25056  10.244   5.049   6.263 -2.6301  1.1443 -0.3475
  186MOL0     H25057  10.056   5.171   6.453  0.1731 -0.4115 -0.2514
  186MOL0     H25058  10.121   5.259   6.319  1.9993 -0.0703  2.3667
  186MOL0     H25059   9.901   5.144   6.257 -0.6850 -1.1857  0.2355
  186MOL0     H25060   9.988   4.987   6.280  2.1562 -0.5034  1.9280
  186MOL0     H25061  10.130   4.905   6.076 -4.9417 -1.7850  0.3239
  186MOL0     H25062  10.216   4.891   5.840 -1.2155  1.4436  3.1632
  186MOL0     H25063  10.083   4.954   5.724 -1.1801  0.3084  0.8871
  186MOL0     H25064  10.213   5.157   5.709 -2.6989 -0.5083  1.0375
  186MOL0     H25065  10.296   5.030   5.614  2.7949  1.6685  0.4205
  186MOL0     H25066  10.372   5.133   5.900 -1.2430  3.0825 -0.9779
  186MOL0     H25067  10.472   5.155   5.754 -0.1686 -1.4301 -2.3142
  186MOL0     H25068  10.516   4.936   5.726 -0.0611  2.0188 -0.9307
  186MOL0     H25069  10.411   4.882   5.865  1.0702 -0.2775 -1.7433
  186MOL0     H25070  10.491   4.700   5.916  1.3588 -0.3898 -2.6736
  186MOL0     H25071  10.624   4.397   6.045  0.2571 -1.6340 -1.0825
  186MOL0     H25072  10.485   4.499   6.061 -0.8711 -0.1352 -1.3617
  186MOL0     H25073  10.533   4.450   5.898 -0.1691  2.1717 -1.4269
  186MOL0     H25074  11.196   4.585   6.195 -0.9742  0.6680 -3.1520
  186MOL0     H25075  11.390   4.427   6.282  0.0904  0.1327 -2.3746
  186MOL0     H25076  11.327   4.040   6.218  0.2114 -1.6762  0.1801
  186MOL0     H25077  11.488   4.030   6.296  1.1154  0.3989 -0.9715
  186MOL0     H25078  11.390   3.961   6.512 -0.3899  0.8853  0.0595
  186MOL0     H25079  11.234   4.008   6.457 -1.3130 -0.0698 -0.7706
  186MOL0     H25080  11.266   3.788   6.493  1.4712  1.4987  1.0504
  186MOL0     H25081  11.408   3.773   6.391  0.8139  3.1517  1.3515
  186MOL0     H25082  11.105   3.786   6.296  0.2078 -0.7722  1.3322
  186MOL0     H25083  11.226   3.855   6.201 -0.8956 -0.3710 -0.2340
  186MOL0     H25084  11.158   3.601   6.160  0.0811 -0.9767  0.9122
  186MOL0     H25085  11.268   3.560   6.288 -2.1764  0.1951  1.1250
  186MOL0     H25086  11.306   3.726   6.037  0.5631 -0.1143 -0.5432
  186MOL0     H25087  11.431   3.729   6.166  2.8625 -3.0843 -0.1563
  186MOL0     H25088  11.350   3.517   5.958  0.4405 -2.4487 -0.3939
  186MOL0     H25089  11.422   3.471   6.108 -1.5393  1.1146  1.0555
  186MOL0     H25090  11.575   3.536   5.898  0.4647 -2.0183  0.4143
  186MOL0     H25091  11.614   3.616   6.061 -1.0472  0.3033  0.9693
  186MOL0     H25092  11.117   4.113   6.318 -0.8560  0.9389 -0.0620
  186MOL0     H25093  10.933   4.270   6.219  0.3655 -3.2696  0.7247
  186MOL0     H25094  10.956   4.766   6.080 -0.1948 -0.4612  0.8109
  186MOL0     H25095  10.838   4.951   6.006 -1.1323  0.8880  0.5283
  186MOL0     H25096  10.189   4.502   5.976  0.6769 -2.0330 -3.9973
  186MOL0     H25097  10.170   4.515   5.755  0.9623 -1.9678  3.3188
  186MOL0     H25098   9.990   4.811   5.407 -1.6249  2.6755 -2.3668
  186MOL0     H25099  10.028   4.832   5.168  1.5463 -0.0742  0.1078
  186MOL0     H25100   9.929   4.484   4.888 -0.2906  0.4218 -1.3540
  186MOL0     H25101   9.798   4.595   4.904 -0.7594 -0.5303 -3.3398
  186MOL0     H25102   9.865   4.577   4.687 -1.5331  0.2620 -0.2598
  186MOL0     H25103  10.025   4.643   4.721  1.5101 -0.8322  2.9818
  186MOL0     H25104   9.902   4.853   4.808 -2.6887  1.3661  0.5157
  186MOL0     H25105   9.748   4.772   4.771  0.2544  0.8700  0.4751
  186MOL0     H25106   9.965   4.811   4.551 -0.1989 -4.0673  1.8507
  186MOL0     H25107   9.844   4.928   4.609  1.6653 -0.8208 -1.7731
  186MOL0     H25108   9.585   4.731   4.369 -0.7870 -0.7003  0.1099
  186MOL0     H25109   9.909   4.422   5.100 -2.2736  0.9095 -0.0759
  186MOL0     H25110   9.908   4.380   5.330 -2.5082  0.7186  1.2003
  187MOL0     O25111  10.885   7.830   6.205 -0.6023 -0.3209  0.4679
  187MOL0     C25112  10.966   7.890   6.133 -1.0643  0.4154  0.2111
  187MOL0     O25113  11.086   7.845   6.090  0.1559  0.6973 -0.4062
  187MOL0     C25114  11.125   7.734   6.170  0.0687 -0.6084  0.2657
  187MOL0     C25115  11.186   7.753   6.301 -0.2856 -0.5623  0.4437
  187MOL0     C25116  11.215   7.647   6.391 -0.0416 -1.3730 -0.2924
  187MOL0     C25117  11.194   7.518   6.349 -0.0976  0.5182 -0.0196
  187MOL0     O25118  11.225   7.410   6.425 -0.5615 -0.8552  0.1033
  187MOL0     C25119  11.367   7.378   6.438 -0.9003 -0.5497  0.6017
  187MOL0     C25120  11.412   7.255   6.521 -0.5831 -0.3429  0.9684
  187MOL0     C25121  11.564   7.247   6.564 -0.2391  0.5908 -0.5339
  187MOL0     C25122  11.600   7.117   6.641  0.1427  0.2354  0.3195
  187MOL0     C25123  11.576   7.123   6.794 -0.4622  0.3013  1.3863
  187MOL0     C25124  11.559   6.986   6.853  0.0563  0.0669 -0.4679
  187MOL0     C25125  11.566   6.994   6.999  0.1149  0.6909 -0.9247
  187MOL0     C25126  11.709   6.984   7.057  0.5627  1.3345 -1.1334
  187MOL0     N25127  11.691   7.012   7.201 -0.7408  0.1823 -0.4311
  187MOL0     C25128  11.626   6.937   7.306 -0.3356  0.0313 -0.8213
  187MOL0     C25129  11.627   7.015   7.414  0.1850  0.4291  0.8040
  187MOL0     C25130  11.568   6.979   7.542  0.0512 -0.4895 -1.0070
  187MOL0     C25131  11.579   7.098   7.643  0.0421  1.0683 -0.3474
  187MOL0     C25132  11.491   7.235   7.620 -0.0773  0.7789 -0.0266
  187MOL0     C25133  11.576   7.368   7.612  0.7387  0.3397  0.0134
  187MOL0     O25134  11.510   7.491   7.583 -0.5921 -1.1658 -0.1357
  187MOL0     C25135  11.567   7.618   7.589 -0.6751  0.6554 -0.0167
  187MOL0     C25136  11.495   7.720   7.627 -0.1337  0.6697  0.2730
  187MOL0     C25137  11.535   7.853   7.612  0.2578  0.8357  0.5848
  187MOL0     C25138  11.446   7.963   7.666 -0.6974  0.1920 -0.3827
  187MOL0     C25139  11.674   7.878   7.574  0.5561  0.0699 -0.7457
  187MOL0     C25140  11.739   8.002   7.585 -0.3226 -0.5995 -0.3668
  187MOL0     O25141  11.876   7.998   7.603  0.2272  0.1848  0.0213
  187MOL0     C25142  11.934   8.128   7.607 -1.2354  0.4731  0.5356
  187MOL0     C25143  11.947   8.201   7.489 -0.3325 -0.0266 -0.3091
  187MOL0     C25144  12.002   8.331   7.486  1.0094 -0.5858 -0.3810
  187MOL0     C25145  12.052   8.387   7.598 -0.8580  0.5210  0.1192
  187MOL0     O25146  12.113   8.511   7.594 -1.2002  0.0554  0.1095
  187MOL0     C25147  12.228   8.521   7.692 -1.3333 -0.6754  0.2857
  187MOL0     C25148  12.313   8.645   7.659  0.1323 -0.0792  0.1752
  187MOL0     C25149  12.415   8.604   7.546 -0.3799  0.4196  0.3850
  187MOL0     C25150  12.514   8.714   7.519  0.4549 -0.0836 -0.1420
  187MOL0     C25151  12.627   8.663   7.429  0.2299 -0.3376 -0.5529
  187MOL0     C25152  12.728   8.766   7.389 -0.4880  0.2015 -1.0839
  187MOL0     C25153  12.669   8.861   7.291 -0.2340 -0.5685 -0.4940
  187MOL0     C25154  12.747   8.986   7.248  0.5643  0.6466 -0.6233
  187MOL0    Cl25155  12.744   9.112   7.390  0.5034  0.2887 -0.0066
  187MOL0     C25156  12.033   8.317   7.718  0.1420  0.4135 -0.4001
  187MOL0     C25157  11.977   8.192   7.723  0.4495 -0.0074  0.0546
  187MOL0     O25158  11.671   8.103   7.571 -0.4375  0.4612  0.0170
  187MOL0     C25159  11.750   7.769   7.523 -0.0451 -1.2543 -0.3639
  187MOL0     C25160  11.698   7.642   7.543 -0.4291 -0.5575  1.0568
  187MOL0     N25161  11.685   7.136   7.375  0.3426 -0.9244 -0.3184
  187MOL0     N25162  11.727   7.131   7.256 -0.9125  0.9784  0.0877
  187MOL0     C25163  11.140   7.497   6.218 -0.5880 -0.5663  0.0767
  187MOL0     C25164  11.112   7.602   6.125  0.7741  0.5269 -0.2327
  187MOL0     C25165  10.926   8.015   6.072 -0.4939  0.3731  0.0665
  187MOL0     C25166  11.010   8.107   5.999  0.2007 -0.8946  0.7146
  187MOL0     C25167  10.965   8.225   5.934 -0.2237  0.5760 -0.2846
  187MOL0     C25168  10.829   8.268   5.943 -0.3349  0.4890  0.8856
  187MOL0     O25169  10.790   8.382   5.876 -0.3540 -0.1056  0.3454
  187MOL0     C25170  10.671   8.452   5.917 -0.2334 -0.7555 -0.7852
  187MOL0     C25171  10.681   8.609   5.878  0.3143  0.5751 -0.7504
  187MOL0     C25172  10.810   8.675   5.901  0.3349 -0.1059  0.7838
  187MOL0     C25173  10.808   8.827   5.890 -0.4059 -0.3416  0.1293
  187MOL0     C25174  10.826   8.865   5.754  0.5429  0.1301  0.7480
  187MOL0     C25175  10.838   8.910   5.641  0.0210  0.0538 -0.3466
  187MOL0     C25176  10.741   8.183   6.012  0.1298  0.3196  0.2749
  187MOL0     C25177  10.787   8.062   6.075 -0.6754 -0.4349 -0.0158
  187MOL0     H25178  11.190   7.856   6.336 -0.5493 -0.8023  1.1937
  187MOL0     H25179  11.261   7.664   6.488 -2.9016  1.3229  0.7500
  187MOL0     H25180  11.400   7.376   6.334  0.6025 -3.1286  1.0497
  187MOL0     H25181  11.413   7.467   6.483 -0.0588 -0.4102 -0.4871
  187MOL0     H25182  11.352   7.254   6.613 -1.0778  0.7345  0.6751
  187MOL0     H25183  11.380   7.171   6.457 -1.7629  1.8963 -1.5801
  187MOL0     H25184  11.613   7.253   6.467 -1.3744 -0.5868 -1.2238
  187MOL0     H25185  11.598   7.332   6.624  0.5083 -1.4627  2.1573
  187MOL0     H25186  11.533   7.036   6.611  1.2035 -1.5925  2.5641
  187MOL0     H25187  11.706   7.093   6.630 -0.0555 -1.6163  1.9181
  187MOL0     H25188  11.666   7.165   6.840  0.8347 -0.3972 -0.3512
  187MOL0     H25189  11.490   7.187   6.816 -1.9634 -0.6772 -1.1506
  187MOL0     H25190  11.466   6.946   6.814  1.1991  0.7182 -4.1971
  187MOL0     H25191  11.630   6.914   6.813 -2.0347 -1.7467 -1.0618
  187MOL0     H25192  11.517   7.080   7.045  1.3400 -0.8192  3.8005
  187MOL0     H25193  11.511   6.905   7.033  3.6619 -1.1330  0.6050
  187MOL0     H25194  11.772   7.062   7.014  2.0843 -0.5559 -2.5124
  187MOL0     H25195  11.751   6.885   7.036  0.2999  1.3104 -1.5529
  187MOL0     H25196  11.591   6.835   7.315  0.0999  0.0562  4.3390
  187MOL0     H25197  11.462   6.956   7.534  0.1012 -0.6725 -1.1377
  187MOL0     H25198  11.620   6.898   7.594 -0.3345  0.3272  0.7232
  187MOL0     H25199  11.684   7.129   7.633  1.7445 -3.9064 -0.9118
  187MOL0     H25200  11.576   7.065   7.748  1.3057  0.5888 -0.4463
  187MOL0     H25201  11.408   7.242   7.690  1.7605  0.4861  2.3065
  187MOL0     H25202  11.455   7.236   7.516 -1.8351  2.3756  0.5507
  187MOL0     H25203  11.657   7.360   7.540 -0.0220 -2.0984 -0.6521
  187MOL0     H25204  11.608   7.378   7.717  1.4186  1.1311 -0.2566
  187MOL0     H25205  11.400   7.693   7.672  0.1282 -1.6880 -0.4443
  187MOL0     H25206  11.348   7.918   7.688 -1.6711  0.6311 -3.3456
  187MOL0     H25207  11.498   8.009   7.750  0.1019  0.1756 -0.8651
  187MOL0     H25208  11.428   8.039   7.589  3.0911  0.0639 -1.5670
  187MOL0     H25209  11.912   8.146   7.402  0.5628 -1.9144  0.4806
  187MOL0     H25210  12.009   8.383   7.391  0.1938  0.0436 -0.1090
  187MOL0     H25211  12.184   8.529   7.792 -0.0685 -0.1969  0.8287
  187MOL0     H25212  12.277   8.424   7.691 -2.3684 -1.2709  2.0369
  187MOL0     H25213  12.266   8.733   7.614 -0.9671 -1.1494 -0.8628
  187MOL0     H25214  12.368   8.682   7.746  3.7283 -4.2077  0.0197
  187MOL0     H25215  12.356   8.580   7.457 -1.2525  0.3438  0.9637
  187MOL0     H25216  12.460   8.508   7.569 -0.0562 -0.0874 -2.0852
  187MOL0     H25217  12.467   8.801   7.473  1.0964  1.3255  1.7193
  187MOL0     H25218  12.566   8.737   7.613  1.0525 -1.6246 -0.0810
  187MOL0     H25219  12.605   8.608   7.337  4.9062  0.0165 -2.1586
  187MOL0     H25220  12.673   8.578   7.480  1.2114 -1.4507 -3.1138
  187MOL0     H25221  12.754   8.815   7.483  0.3160 -1.9230 -0.1324
  187MOL0     H25222  12.813   8.710   7.348 -0.7840 -2.2954  1.4009
  187MOL0     H25223  12.570   8.890   7.329  0.9328 -1.7425  4.0342
  187MOL0     H25224  12.659   8.798   7.202 -1.6989 -2.8536  1.1782
  187MOL0     H25225  12.686   9.027   7.167 -1.5849  1.2066  1.1912
  187MOL0     H25226  12.850   8.961   7.219  0.7735 -0.0875  0.6597
  187MOL0     H25227  12.057   8.360   7.814  1.8651 -1.0417 -0.1320
  187MOL0     H25228  11.938   8.132   7.805  1.6350  0.4904  1.0125
  187MOL0     H25229  11.852   7.780   7.488 -0.0913  2.9157  0.2952
  187MOL0     H25230  11.772   7.566   7.522  2.8913  2.4481  0.8949
  187MOL0     H25231  11.121   7.390   6.206 -0.0123 -0.6072 -0.4861
  187MOL0     H25232  11.056   7.583   6.035  0.1841  0.7496  0.0849
  187MOL0     H25233  11.118   8.094   5.999  0.6245  1.9916  1.3305
  187MOL0     H25234  11.033   8.297   5.889 -0.4844  0.4043 -0.9663
  187MOL0     H25235  10.575   8.417   5.879  0.0418  0.7020 -3.0100
  187MOL0     H25236  10.667   8.447   6.027  0.1920 -0.5805 -0.7588
  187MOL0     H25237  10.598   8.661   5.927 -1.2287  0.0608 -2.7074
  187MOL0     H25238  10.657   8.614   5.771 -1.5860 -0.0668 -0.3985
  187MOL0     H25239  10.893   8.637   5.841 -1.2429  0.7051 -2.0933
  187MOL0     H25240  10.844   8.668   6.005  1.5321  1.9867  0.5903
  187MOL0     H25241  10.890   8.864   5.953  2.1833 -2.3410 -1.8533
  187MOL0     H25242  10.709   8.863   5.919  0.2956  2.8509 -0.9901
  187MOL0     H25243  10.868   8.962   5.552  1.6228  0.4734  0.4181
  187MOL0     H25244  10.637   8.212   6.003 -0.3732 -1.6198 -0.6214
  187MOL0     H25245  10.723   7.988   6.122  1.7600 -0.9956  2.7045
  188MOL0     O25246   6.286   7.729   4.245  0.0605 -0.4442  0.2359
  188MOL0     C25247   6.168   7.759   4.248  0.2055 -0.9112  0.0407
  188MOL0     O25248   6.058   7.677   4.271 -0.5167  0.3215  0.0391
  188MOL0     C25249   6.101   7.555   4.324  0.9126  0.3252  0.1042
  188MOL0     C25250   6.111   7.543   4.460  0.4638 -0.3073 -0.3219
  188MOL0     C25251   6.129   7.417   4.520  0.4297  1.0002  0.0128
  188MOL0     C25252   6.146   7.300   4.441 -0.7741 -0.7506  0.7443
  188MOL0     O25253   6.206   7.190   4.503  0.1851  0.2617 -0.0300
  188MOL0     C25254   6.287   7.097   4.415 -0.9426 -0.1348 -0.2903
  188MOL0     C25255   6.302   6.969   4.505  0.0584  0.3047 -0.3514
  188MOL0     C25256   6.182   6.887   4.532  0.3651  0.2043 -0.1134
  188MOL0     C25257   6.212   6.778   4.644  0.7785  1.0304  0.3215
  188MOL0     C25258   6.091   6.687   4.667  1.1250 -0.3448 -1.1765
  188MOL0     C25259   6.043   6.599   4.557  0.5368 -0.0118  1.0770
  188MOL0     C25260   6.085   6.453   4.566  0.5793 -0.2338 -0.0734
  188MOL0     C25261   6.232   6.421   4.536 -0.3784  0.9727  0.0308
  188MOL0     N25262   6.267   6.423   4.385 -0.0787  0.2339 -0.7438
  188MOL0     C25263   6.220   6.332   4.301  0.8122  0.6507 -0.1612
  188MOL0     C25264   6.240   6.374   4.171  0.2097  0.3056 -0.1476
  188MOL0     C25265   6.197   6.299   4.042  0.6065 -0.7850  0.7807
  188MOL0     C25266   6.303   6.264   3.946 -0.2338  0.9181 -0.2624
  188MOL0     C25267   6.447   6.244   4.004  0.3427  0.1517 -1.0740
  188MOL0     C25268   6.544   6.186   3.895 -0.5047  0.9885  1.2445
  188MOL0     O25269   6.514   6.053   3.834  0.1756  0.1845  0.0651
  188MOL0     C25270   6.586   5.948   3.878 -0.6859 -0.1112  0.2374
  188MOL0     C25271   6.586   5.843   3.787  0.3234 -0.6851 -0.0645
  188MOL0     C25272   6.662   5.734   3.811  0.2417  0.4467 -0.6887
  188MOL0     C25273   6.704   5.641   3.695  0.0587  0.0863 -0.4840
  188MOL0     C25274   6.727   5.712   3.937 -0.1703 -0.2490 -0.1306
  188MOL0     C25275   6.782   5.578   3.973  0.4425 -0.4332 -0.8497
  188MOL0     O25276   6.712   5.467   3.961  0.1394 -0.0195  0.2843
  188MOL0     C25277   6.761   5.345   4.006  0.5331  0.0514 -0.8426
  188MOL0     C25278   6.889   5.297   4.022 -0.0914 -0.0191 -0.4463
  188MOL0     C25279   6.916   5.160   4.038  0.3352 -0.0783 -0.3205
  188MOL0     C25280   6.810   5.075   4.020  1.0700  0.8902 -0.6044
  188MOL0     O25281   6.815   4.932   4.031  0.1791 -0.9662  0.0997
  188MOL0     C25282   6.939   4.875   4.090  0.1709  0.1049  0.9737
  188MOL0     C25283   6.905   4.727   4.096  0.0623 -0.2817  0.2172
  188MOL0     C25284   7.017   4.642   4.152  0.6217  0.0928  0.2423
  188MOL0     C25285   6.987   4.487   4.135 -1.3164 -0.1425  0.1990
  188MOL0     C25286   7.107   4.405   4.197 -0.8222  0.3453 -0.2599
  188MOL0     C25287   7.092   4.264   4.146 -0.5410 -0.2932 -0.8120
  188MOL0     C25288   7.197   4.168   4.198 -0.6376  0.0251  0.7270
  188MOL0     C25289   7.188   4.036   4.112 -0.2112  0.0644  1.3485
  188MOL0    Cl25290   7.026   3.945   4.149  0.0089 -0.1753  0.0478
  188MOL0     C25291   6.677   5.119   4.014  0.1701  0.3797  1.0650
  188MOL0     C25292   6.649   5.256   4.014 -0.1022 -0.5139 -0.2713
  188MOL0     O25293   6.883   5.588   4.041  0.5027  0.2726 -0.1956
  188MOL0     C25294   6.715   5.819   4.030  0.4740  0.7004 -0.9946
  188MOL0     C25295   6.652   5.932   4.000 -0.5035 -0.9878 -0.2414
  188MOL0     N25296   6.308   6.490   4.181  0.5968 -0.8283  0.4005
  188MOL0     N25297   6.316   6.528   4.314 -0.6579 -0.3221 -0.2401
  188MOL0     C25298   6.125   7.308   4.304  0.1717 -0.3123 -0.9013
  188MOL0     C25299   6.105   7.434   4.245 -0.0509  0.2387  0.3373
  188MOL0     C25300   6.152   7.894   4.193  0.5482 -0.7030 -0.5054
  188MOL0     C25301   6.262   7.981   4.158  0.9303  0.2794 -0.1264
  188MOL0     C25302   6.237   8.110   4.115 -0.1420  0.6014  0.9987
  188MOL0     C25303   6.108   8.162   4.076  0.9392  0.3033  1.0465
  188MOL0     O25304   6.075   8.283   4.014 -0.5813  0.2396 -0.1662
  188MOL0     C25305   6.174   8.343   3.938 -0.3357  0.0296 -0.2788
  188MOL0     C25306   6.246   8.447   4.024 -0.4304  0.9313  0.6052
  188MOL0     C25307   6.164   8.573   4.013 -0.1030 -0.5013 -0.5490
  188MOL0     C25308   6.238   8.686   3.949 -0.4643 -0.0898  0.3313
  188MOL0     C25309   6.290   8.655   3.814 -0.4340  0.1427  0.1629
  188MOL0     C25310   6.330   8.641   3.699  0.4128  0.7547 -0.2117
  188MOL0     C25311   6.005   8.068   4.099 -0.0151 -0.0857  1.1368
  188MOL0     C25312   6.026   7.939   4.157  0.0773 -1.2041  0.7863
  188MOL0     H25313   6.104   7.636   4.516 -1.2785 -0.4053 -0.3150
  188MOL0     H25314   6.151   7.393   4.623  3.6205 -1.5801 -1.1070
  188MOL0     H25315   6.251   7.081   4.313 -1.3151  3.3383 -0.8335
  188MOL0     H25316   6.388   7.139   4.409 -0.4545 -1.0043  1.3449
  188MOL0     H25317   6.366   6.904   4.445 -1.1489 -3.8022  2.3863
  188MOL0     H25318   6.347   6.993   4.601  2.3469 -1.5385 -0.8857
  188MOL0     H25319   6.096   6.948   4.561  0.2891  0.8818 -1.6433
  188MOL0     H25320   6.147   6.837   4.441 -0.4398 -0.6920  0.6662
  188MOL0     H25321   6.291   6.710   4.611  1.3406  1.5396  0.6104
  188MOL0     H25322   6.252   6.810   4.740 -0.0832 -2.2041  1.9188
  188MOL0     H25323   6.113   6.626   4.754 -3.2368 -0.5491  0.0272
  188MOL0     H25324   6.007   6.754   4.690  0.4701 -2.1305  2.1809
  188MOL0     H25325   5.935   6.588   4.575  0.7251 -2.0581  1.1429
  188MOL0     H25326   6.063   6.646   4.460  0.6836  0.5489  1.3795
  188MOL0     H25327   6.074   6.419   4.670  2.0306  1.4350  0.6756
  188MOL0     H25328   6.019   6.384   4.513 -0.8263 -1.6776  3.2034
  188MOL0     H25329   6.255   6.315   4.555  3.6636  1.3340 -1.7917
  188MOL0     H25330   6.306   6.471   4.599 -2.9495  1.7110  2.6996
  188MOL0     H25331   6.183   6.232   4.326  0.2798  0.8646 -0.0806
  188MOL0     H25332   6.140   6.210   4.070 -1.6019  1.4659  4.2528
  188MOL0     H25333   6.145   6.372   3.980  1.0606 -1.4198 -0.3600
  188MOL0     H25334   6.307   6.335   3.862  2.9646 -0.0753 -1.1169
  188MOL0     H25335   6.272   6.173   3.893 -0.7284 -0.3154  2.0171
  188MOL0     H25336   6.441   6.181   4.093  0.3954  1.8921  0.2186
  188MOL0     H25337   6.501   6.331   4.042  0.4212  0.5614 -2.0894
  188MOL0     H25338   6.646   6.179   3.933 -0.2728  0.3643  0.5218
  188MOL0     H25339   6.548   6.257   3.812 -2.9173 -0.7665 -0.5148
  188MOL0     H25340   6.537   5.859   3.691  0.0814 -2.0611 -0.2036
  188MOL0     H25341   6.812   5.654   3.686  0.1012 -0.1426 -0.3123
  188MOL0     H25342   6.666   5.541   3.716  0.0583  0.0145 -0.8160
  188MOL0     H25343   6.659   5.669   3.599  3.0349  2.6076 -1.2784
  188MOL0     H25344   6.970   5.368   4.032 -1.1925  1.4302 -1.4706
  188MOL0     H25345   7.012   5.113   4.058  0.8951  0.8673 -0.7201
  188MOL0     H25346   7.031   4.902   4.037  0.3410 -3.0377 -0.5702
  188MOL0     H25347   6.934   4.905   4.195  3.2613 -0.3411  1.3405
  188MOL0     H25348   6.815   4.728   4.157  0.9511  2.7925  1.6812
  188MOL0     H25349   6.885   4.674   4.002  2.8205 -0.9771 -0.0761
  188MOL0     H25350   7.033   4.663   4.258  0.2602 -1.0460  0.5376
  188MOL0     H25351   7.108   4.665   4.095 -0.0165 -1.2778 -1.4190
  188MOL0     H25352   6.895   4.451   4.182 -2.3218 -1.0293 -2.2754
  188MOL0     H25353   6.983   4.461   4.029 -0.5174  1.6015 -0.3052
  188MOL0     H25354   7.117   4.412   4.305  0.9488 -3.1889 -0.0621
  188MOL0     H25355   7.203   4.437   4.154 -2.7201  4.0396 -2.1873
  188MOL0     H25356   6.992   4.228   4.171 -1.2493  1.6644 -0.6243
  188MOL0     H25357   7.107   4.270   4.038 -3.2298 -0.5919 -1.2753
  188MOL0     H25358   7.184   4.145   4.304  1.3646  0.3632  1.0976
  188MOL0     H25359   7.291   4.225   4.193 -2.2036  3.0084  2.4768
  188MOL0     H25360   7.267   3.965   4.135  2.1083  2.7584  2.2225
  188MOL0     H25361   7.196   4.056   4.004  2.5102  0.8271  1.6238
  188MOL0     H25362   6.608   5.036   4.003  0.9114 -0.3319  1.6827
  188MOL0     H25363   6.550   5.296   3.998 -0.2196  0.5835  2.5948
  188MOL0     H25364   6.759   5.803   4.128  0.4799 -1.3582 -1.2808
  188MOL0     H25365   6.669   6.017   4.065  0.1604 -1.5852  0.3999
  188MOL0     H25366   6.127   7.229   4.230 -0.1962 -1.6700  0.5139
  188MOL0     H25367   6.080   7.449   4.141  1.5500 -0.1864 -0.1300
  188MOL0     H25368   6.360   7.935   4.164  0.6125 -0.1941  3.6839
  188MOL0     H25369   6.329   8.166   4.102  0.2581 -0.5460 -2.1867
  188MOL0     H25370   6.244   8.268   3.900 -0.1367 -0.2057  0.5342
  188MOL0     H25371   6.131   8.403   3.857 -0.9983  0.6453  0.5090
  188MOL0     H25372   6.343   8.469   3.978 -0.6474  3.7360  1.3026
  188MOL0     H25373   6.258   8.410   4.126 -2.6302  0.7829  0.8529
  188MOL0     H25374   6.144   8.581   4.120  0.7289 -4.4567  0.0795
  188MOL0     H25375   6.062   8.564   3.976 -1.2185  1.3746  1.8302
  188MOL0     H25376   6.318   8.732   4.007 -1.2503 -1.2596  2.4342
  188MOL0     H25377   6.162   8.765   3.937 -4.3185 -3.4240  0.6685
  188MOL0     H25378   6.357   8.631   3.595 -1.5400 -1.7764 -0.5781
  188MOL0     H25379   5.908   8.099   4.061  0.1878 -1.2060 -0.4161
  188MOL0     H25380   5.938   7.878   4.168  0.2110 -1.2698  1.5600
  189MOL0     O25381   0.756   1.752   9.446  0.5643 -0.5858  0.3572
  189MOL0     C25382   0.846   1.836   9.434  0.4433  0.8618 -0.0545
  189MOL0     O25383   0.849   1.968   9.488 -0.0568  0.2497 -0.1986
  189MOL0     C25384   0.753   2.024   9.570 -0.5828  0.1883 -0.0500
  189MOL0     C25385   0.752   2.164   9.586  0.7656  1.0122 -0.1801
  189MOL0     C25386   0.652   2.217   9.662 -0.1808  0.6849 -0.6111
  189MOL0     C25387   0.556   2.140   9.730  0.8458  0.1957  0.0314
  189MOL0     O25388   0.470   2.199   9.814 -0.1126  1.0307  0.1551
  189MOL0     C25389   0.483   2.190   9.953 -0.0375  0.3894 -1.0099
  189MOL0     C25390   0.581   2.299  10.000  0.1537 -0.7268 -0.5061
  189MOL0     C25391   0.589   2.314  10.149  0.6142 -0.6180 -0.4713
  189MOL0     C25392   0.692   2.419  10.183 -0.3995  0.0422  0.3696
  189MOL0     C25393   0.686   2.453  10.325 -0.6168 -0.4435 -0.9551
  189MOL0     C25394   0.757   2.588  10.345  1.3781 -0.4298 -0.6210
  189MOL0     C25395   0.752   2.657  10.481 -0.3529  0.0213  0.4874
  189MOL0     C25396   0.614   2.682  10.534  0.5530  0.1923 -0.0511
  189MOL0     N25397   0.626   2.742  10.672  0.4006  0.8374 -0.0117
  189MOL0     C25398   0.594   2.673  10.785  0.2196  0.2931 -0.2794
  189MOL0     C25399   0.585   2.779  10.876  0.2151 -0.0601 -0.6621
  189MOL0     C25400   0.542   2.760  11.020  0.3401 -0.4057 -0.6478
  189MOL0     C25401   0.381   2.747  11.026 -0.4583 -0.0309 -0.2879
  189MOL0     C25402   0.308   2.763  11.165 -0.4686 -0.5486  0.2263
  189MOL0     C25403   0.353   2.883  11.248 -0.0391  0.0833 -0.2805
  189MOL0     O25404   0.288   2.884  11.380  0.1312 -0.7391  0.1125
  189MOL0     C25405   0.359   2.885  11.507  0.5296  0.1517  0.8325
  189MOL0     C25406   0.278   2.847  11.624 -0.5826  0.2061 -0.4688
  189MOL0     C25407   0.345   2.820  11.749  0.0701  0.2466 -0.7519
  189MOL0     C25408   0.260   2.790  11.875 -1.1803 -1.1380 -0.4287
  189MOL0     C25409   0.486   2.826  11.750 -0.4706 -1.0900  0.4375
  189MOL0     C25410   0.564   2.790  11.859  0.0042  0.8526  0.5920
  189MOL0     O25411   0.681   2.842  11.894 -0.4420 -0.7591 -0.0055
  189MOL0     C25412   0.778   2.775  11.966  0.7392  0.3822 -0.7815
  189MOL0     C25413   0.778   2.634  12.014  0.6366 -0.0116 -0.3576
  189MOL0     C25414   0.896   2.592  12.074 -0.6839 -0.5230 -0.6642
  189MOL0     C25415   1.011   2.669  12.083 -0.1039  0.4528  0.9444
  189MOL0     O25416   1.124   2.621  12.133  0.0750  0.6203  0.5218
  189MOL0     C25417   1.191   2.700  12.234  0.0047  0.1380  0.3818
  189MOL0     C25418   1.307   2.773  12.172  0.6310 -0.5807 -0.6013
  189MOL0     C25419   1.403   2.852  12.260 -0.4316  0.2257  0.0954
  189MOL0     C25420   1.379   3.000  12.291  0.1450 -0.6310  0.4716
  189MOL0     C25421   1.498   3.043  12.375 -0.8634 -0.0378 -0.2786
  189MOL0     C25422   1.599   3.130  12.292  0.5125  0.2194 -0.4317
  189MOL0     C25423   1.684   3.212  12.380  0.5685  0.5667 -0.0979
  189MOL0     C25424   1.780   3.109  12.456 -1.0350  0.3649 -0.0823
  189MOL0    Cl25425   1.924   3.199  12.499  0.2016  0.3909 -0.4829
  189MOL0     C25426   1.009   2.807  12.045  0.0364  0.0651  0.3133
  189MOL0     C25427   0.892   2.850  11.974  0.1540  0.0839 -0.1813
  189MOL0     O25428   0.515   2.693  11.912 -0.5681  0.3844 -0.6043
  189MOL0     C25429   0.552   2.878  11.630  0.6143  0.8013  0.7150
  189MOL0     C25430   0.491   2.910  11.514 -0.1082 -0.6779  1.0661
  189MOL0     N25431   0.596   2.900  10.809 -0.7528  0.0351 -0.9524
  189MOL0     N25432   0.627   2.874  10.686  0.7992  0.1341 -0.3677
  189MOL0     C25433   0.568   1.999   9.713 -0.2771 -1.1097  0.1669
  189MOL0     C25434   0.670   1.943   9.637  0.1670  0.4386 -0.1964
  189MOL0     C25435   0.959   1.806   9.344 -0.5486  1.6183 -0.1869
  189MOL0     C25436   0.991   1.666   9.319 -0.2855 -0.2523  0.1023
  189MOL0     C25437   1.086   1.635   9.221  0.8204  0.1068 -0.0506
  189MOL0     C25438   1.150   1.736   9.139 -0.2710 -0.1405 -0.6138
  189MOL0     O25439   1.246   1.712   9.045 -1.2230 -0.5978  0.3565
  189MOL0     C25440   1.370   1.673   9.103 -0.6556  0.0751  0.3550
  189MOL0     C25441   1.462   1.789   9.081 -0.2138 -0.7171 -0.6451
  189MOL0     C25442   1.610   1.738   9.108 -0.2794  0.2070  0.0675
  189MOL0     C25443   1.653   1.630   8.999 -0.0006 -0.2365  0.3243
  189MOL0     C25444   1.806   1.613   9.007 -0.0453 -0.6441 -0.5121
  189MOL0     C25445   1.920   1.610   9.019 -0.0532  1.0107 -0.2784
  189MOL0     C25446   1.121   1.874   9.175 -0.2442  0.7117 -0.3584
  189MOL0     C25447   1.027   1.910   9.277 -0.5758 -0.0722  0.6850
  189MOL0     H25448   0.826   2.218   9.527 -2.6686  1.4729 -4.5599
  189MOL0     H25449   0.647   2.324   9.681  1.5807  1.0180 -1.8176
  189MOL0     H25450   0.386   2.208  10.000  0.3301 -1.4786  0.5885
  189MOL0     H25451   0.507   2.087   9.983 -1.0312  0.3926 -0.1244
  189MOL0     H25452   0.679   2.283   9.955 -0.9226  0.4136 -3.4673
  189MOL0     H25453   0.529   2.391   9.973 -1.6525 -1.5319  0.0584
  189MOL0     H25454   0.491   2.335  10.193 -0.2198 -3.3757 -0.8202
  189MOL0     H25455   0.630   2.227  10.202  1.2880  0.3136  0.5993
  189MOL0     H25456   0.788   2.383  10.144 -0.5386  0.8431 -0.7614
  189MOL0     H25457   0.691   2.512  10.125  1.1831 -1.1535 -1.7012
  189MOL0     H25458   0.586   2.459  10.369  0.0128 -0.2531  0.5249
  189MOL0     H25459   0.744   2.381  10.383  0.2091  1.3359  0.5388
  189MOL0     H25460   0.862   2.584  10.313  1.6767  1.1571  0.0895
  189MOL0     H25461   0.692   2.651  10.285 -2.8096 -3.7199 -0.0065
  189MOL0     H25462   0.798   2.599  10.562  0.5333  0.4844  0.3374
  189MOL0     H25463   0.811   2.749  10.473  0.5472 -0.4139  1.7007
  189MOL0     H25464   0.553   2.592  10.550  0.5924 -0.1030 -1.4542
  189MOL0     H25465   0.548   2.742  10.470 -0.7665 -0.0926  0.9915
  189MOL0     H25466   0.573   2.567  10.789  0.4544 -0.1361 -5.1165
  189MOL0     H25467   0.583   2.674  11.073  2.1178  1.2882  0.9021
  189MOL0     H25468   0.576   2.845  11.080  4.1877 -3.3253  1.7651
  189MOL0     H25469   0.354   2.654  10.973 -1.5089  1.3212 -2.2638
  189MOL0     H25470   0.339   2.827  10.964 -0.4300  1.9487  2.1066
  189MOL0     H25471   0.308   2.673  11.228 -0.1636  0.7189  2.1185
  189MOL0     H25472   0.202   2.779  11.145 -0.2015  1.1055  0.0230
  189MOL0     H25473   0.317   2.971  11.194 -2.7098 -0.5146  0.3973
  189MOL0     H25474   0.462   2.888  11.254  0.0277  0.1948 -1.3717
  189MOL0     H25475   0.173   2.830  11.605 -0.4603  1.7632 -2.8489
  189MOL0     H25476   0.277   2.684  11.896  0.3266 -0.9997 -0.8376
  189MOL0     H25477   0.291   2.850  11.960  0.7506 -0.4009 -1.5959
  189MOL0     H25478   0.153   2.812  11.870 -1.3644 -0.3427  3.7197
  189MOL0     H25479   0.691   2.571  12.000 -1.9728  2.5067  2.8144
  189MOL0     H25480   0.895   2.493  12.120  2.3665  0.0864  0.9082
  189MOL0     H25481   1.125   2.763  12.294  0.4721 -1.2392  2.4306
  189MOL0     H25482   1.237   2.632  12.305  1.1055  1.9622  1.4839
  189MOL0     H25483   1.362   2.685  12.135  0.8030 -2.4718  3.5721
  189MOL0     H25484   1.288   2.846  12.094 -0.6949  0.4259  0.6170
  189MOL0     H25485   1.504   2.834  12.223  0.4637  3.1300  0.8817
  189MOL0     H25486   1.373   2.800  12.352 -2.6069 -0.7969 -1.1200
  189MOL0     H25487   1.389   3.052  12.195  0.9088  2.0915  1.9447
  189MOL0     H25488   1.278   3.021  12.326 -0.0810 -1.6822  0.5025
  189MOL0     H25489   1.548   2.957  12.421 -1.0268 -0.7884 -1.4611
  189MOL0     H25490   1.459   3.093  12.465  0.8252 -0.2753  0.6314
  189MOL0     H25491   1.662   3.062  12.236 -0.5578 -0.0233 -1.3833
  189MOL0     H25492   1.556   3.191  12.212 -0.6128 -2.1976 -1.7649
  189MOL0     H25493   1.617   3.252  12.457 -1.0961 -1.1129 -0.5762
  189MOL0     H25494   1.747   3.280  12.323 -0.1005  0.1735 -1.3296
  189MOL0     H25495   1.807   3.021  12.397 -1.0599 -0.6086  1.2906
  189MOL0     H25496   1.731   3.064  12.543 -1.4347  3.2409  1.3006
  189MOL0     H25497   1.082   2.883  12.071  0.9732 -1.2749  1.7734
  189MOL0     H25498   0.902   2.951  11.936  1.4918  1.1858  2.8055
  189MOL0     H25499   0.660   2.887  11.631  0.8643 -0.7027 -1.8371
  189MOL0     H25500   0.558   2.946  11.437  2.5018  0.8052  3.7883
  189MOL0     H25501   0.507   1.938   9.780  0.5999 -2.8512 -0.5413
  189MOL0     H25502   0.672   1.835   9.639  0.9973  0.4159 -1.4518
  189MOL0     H25503   0.937   1.580   9.359  1.2542 -1.3878 -0.1660
  189MOL0     H25504   1.116   1.533   9.199  1.6565  0.4157 -0.3662
  189MOL0     H25505   1.356   1.644   9.208 -2.8483  0.5994  0.2587
  189MOL0     H25506   1.401   1.582   9.052 -2.3929 -0.6008  0.4148
  189MOL0     H25507   1.432   1.875   9.141 -3.7017 -4.0319  2.9268
  189MOL0     H25508   1.461   1.824   8.977 -0.9804 -2.3564 -1.2227
  189MOL0     H25509   1.624   1.695   9.208  3.1803 -0.5340 -0.6002
  189MOL0     H25510   1.684   1.817   9.092  0.2791 -0.0451  1.2423
  189MOL0     H25511   1.613   1.668   8.905 -1.1274 -0.5140  0.6742
  189MOL0     H25512   1.607   1.533   9.019  1.4190 -0.8911  0.5430
  189MOL0     H25513   2.024   1.610   9.042 -0.0579 -1.0160 -0.0966
  189MOL0     H25514   1.166   1.950   9.112 -1.4995  2.0808  0.3588
  189MOL0     H25515   0.996   2.010   9.306 -2.3447  0.3349 -2.2422
  190MOL0     O25516   0.044  10.632   3.406  0.1989  0.6295  0.3031
  190MOL0     C25517   0.140  10.547   3.425 -0.1384 -1.1721 -0.5390
  190MOL0     O25518   0.270  10.571   3.422  0.1579 -0.4287 -0.2305
  190MOL0     C25519   0.329  10.690   3.404  0.3701 -0.6042 -0.2424
  190MOL0     C25520   0.455  10.687   3.332  0.6276  0.2783 -0.2018
  190MOL0     C25521   0.537  10.799   3.332  0.8258  0.8991 -0.2407
  190MOL0     C25522   0.492  10.917   3.388 -0.2100 -0.0740  0.5546
  190MOL0     O25523   0.587  11.022   3.386  0.1904 -1.1321  0.6782
  190MOL0     C25524   0.531  11.155   3.389 -0.3554 -0.5553  1.3842
  190MOL0     C25525   0.619  11.237   3.300  0.1122  0.0236  0.5377
  190MOL0     C25526   0.621  11.191   3.148 -0.5826  0.2886  0.4972
  190MOL0     C25527   0.722  11.266   3.062 -0.4476  0.4480 -0.1443
  190MOL0     C25528   0.699  11.243   2.910  0.5719 -1.0430 -0.1876
  190MOL0     C25529   0.815  11.283   2.818 -0.6025 -0.1873 -0.6520
  190MOL0     C25530   0.846  11.437   2.824 -0.6321 -0.1499 -0.2436
  190MOL0     C25531   0.718  11.527   2.818 -0.6740  0.2124 -0.3580
  190MOL0     N25532   0.751  11.663   2.841  0.1717  0.1677  0.4345
  190MOL0     C25533   0.758  11.725   2.961 -1.2613 -0.6596 -0.4805
  190MOL0     C25534   0.835  11.831   2.940  0.2979 -0.1086 -0.2298
  190MOL0     C25535   0.887  11.921   3.043  0.3659 -1.1538  0.0141
  190MOL0     C25536   0.932  12.067   2.997  0.1121 -0.2114 -0.4286
  190MOL0     C25537   0.964  12.158   3.118  0.0305 -0.6766 -0.4961
  190MOL0     C25538   1.070  12.265   3.088 -0.0893 -0.3084  0.4373
  190MOL0     O25539   1.039  12.352   2.975 -0.7459  0.3156 -0.1786
  190MOL0     C25540   0.922  12.419   2.981 -0.0412  0.0321 -0.4147
  190MOL0     C25541   0.917  12.508   3.087 -0.0590 -0.8758 -0.4114
  190MOL0     C25542   0.799  12.571   3.134  0.5490  0.2263 -0.5936
  190MOL0     C25543   0.798  12.645   3.253 -0.1684  0.0688 -0.3769
  190MOL0     C25544   0.681  12.546   3.060 -0.7454  1.1104 -0.0676
  190MOL0     C25545   0.554  12.595   3.109  0.1432 -0.1756  0.1702
  190MOL0     O25546   0.469  12.668   3.025  0.2595 -0.2098 -0.1552
  190MOL0     C25547   0.361  12.743   3.083  0.6622 -0.1262 -0.8777
  190MOL0     C25548   0.233  12.723   3.046  0.4745 -0.1385 -0.4537
  190MOL0     C25549   0.129  12.805   3.095 -1.0068 -0.1911 -1.3398
  190MOL0     C25550   0.155  12.894   3.201  0.0804 -0.2801 -0.4768
  190MOL0     O25551   0.066  12.985   3.252 -0.5106 -0.3430  0.3016
  190MOL0     C25552  -0.073  12.993   3.200  0.3391 -0.7155 -0.4758
  190MOL0     C25553  -0.170  13.078   3.294 -0.5317 -0.0003  0.0429
  190MOL0     C25554  -0.099  13.211   3.336  0.0868 -0.7988  0.6737
  190MOL0     C25555  -0.176  13.336   3.306  0.4421 -1.1939  0.8327
  190MOL0     C25556  -0.116  13.465   3.374  0.0615 -0.2817  0.5409
  190MOL0     C25557  -0.135  13.468   3.529  0.3615  0.7348  0.1688
  190MOL0     C25558  -0.101  13.605   3.610  0.9077  1.0601  1.7221
  190MOL0     C25559  -0.219  13.713   3.608  0.4136  0.3840  0.1550
  190MOL0    Cl25560  -0.307  13.666   3.763  0.1187 -0.2583  0.4886
  190MOL0     C25561   0.290  12.903   3.241  0.5223 -0.9220 -0.2487
  190MOL0     C25562   0.389  12.831   3.183  0.3873 -0.6455  0.4313
  190MOL0     O25563   0.533  12.557   3.224  0.2416  0.5458  0.4326
  190MOL0     C25564   0.695  12.477   2.939  1.5770 -1.0270  0.0554
  190MOL0     C25565   0.810  12.410   2.896 -0.3018  0.6752 -0.3865
  190MOL0     N25566   0.844  11.849   2.800  0.1894 -0.3262  0.1287
  190MOL0     N25567   0.783  11.752   2.739  0.1318 -0.3545 -1.0162
  190MOL0     C25568   0.366  10.912   3.455 -0.1216 -0.4006  0.0414
  190MOL0     C25569   0.279  10.808   3.452 -0.1153 -1.0578  0.6341
  190MOL0     C25570   0.108  10.408   3.428 -0.4153 -0.5058  0.3201
  190MOL0     C25571   0.164  10.308   3.505 -0.4210  0.2351 -0.7862
  190MOL0     C25572   0.141  10.169   3.486  0.3921 -0.5750  0.2403
  190MOL0     C25573   0.038  10.133   3.398 -0.0187 -0.8775  0.8915
  190MOL0     O25574  -0.022  10.003   3.388 -0.0626 -0.3837  0.1646
  190MOL0     C25575   0.036   9.891   3.456  0.0411  0.1758 -0.9543
  190MOL0     C25576   0.003   9.759   3.379 -0.6802  0.2492 -0.2268
  190MOL0     C25577   0.105   9.735   3.263  0.1054 -0.1838 -0.7016
  190MOL0     C25578   0.094   9.855   3.167  0.0050  0.9210  0.5777
  190MOL0     C25579   0.133   9.822   3.032  0.0427  0.1713 -0.0998
  190MOL0     C25580   0.175   9.811   2.920 -0.3579  0.6442  0.7522
  190MOL0     C25581  -0.036  10.235   3.332 -0.6354 -0.5493  0.1632
  190MOL0     C25582  -0.004  10.363   3.340 -0.2858 -0.5481  0.2217
  190MOL0     H25583   0.493  10.594   3.291 -1.0246 -0.2247 -0.6445
  190MOL0     H25584   0.635  10.805   3.285 -0.3195  1.2338 -2.7374
  190MOL0     H25585   0.428  11.154   3.352 -0.0898  1.0628  0.5073
  190MOL0     H25586   0.525  11.188   3.493  0.5348 -0.8198  1.5339
  190MOL0     H25587   0.580  11.338   3.294 -2.3052 -0.9094 -1.5942
  190MOL0     H25588   0.726  11.237   3.325  2.3316 -0.8064 -6.6839
  190MOL0     H25589   0.647  11.085   3.136 -0.3725  0.3561  0.3536
  190MOL0     H25590   0.526  11.220   3.104 -0.9451 -3.2096 -1.4640
  190MOL0     H25591   0.712  11.370   3.095  2.3985  1.1198 -1.0763
  190MOL0     H25592   0.827  11.242   3.081 -0.7746  0.6551  2.1849
  190MOL0     H25593   0.684  11.141   2.874 -1.8251 -1.9085  2.8040
  190MOL0     H25594   0.612  11.301   2.876  1.7886 -1.9440 -5.6941
  190MOL0     H25595   0.896  11.228   2.866 -1.5943  0.6934  2.2371
  190MOL0     H25596   0.803  11.246   2.716 -3.2852  2.1318 -1.3083
  190MOL0     H25597   0.906  11.461   2.912  1.5637 -1.1145 -1.3980
  190MOL0     H25598   0.909  11.460   2.738  0.0882  0.9206  0.5551
  190MOL0     H25599   0.658  11.506   2.906  3.9151  2.1309  3.6781
  190MOL0     H25600   0.670  11.524   2.719 -2.2270  2.0878  0.2908
  190MOL0     H25601   0.737  11.697   3.064 -0.5274 -1.4825 -0.5398
  190MOL0     H25602   0.813  11.937   3.122 -0.7067  0.4701 -1.2654
  190MOL0     H25603   0.972  11.872   3.093 -0.4800 -0.7438  1.9542
  190MOL0     H25604   0.848  12.104   2.938 -1.2315 -3.1872 -0.5513
  190MOL0     H25605   1.015  12.049   2.927 -0.6453 -0.2150 -1.3561
  190MOL0     H25606   0.993  12.082   3.192 -2.4234 -2.7523 -1.5025
  190MOL0     H25607   0.878  12.220   3.144  0.6400  2.4199 -4.7634
  190MOL0     H25608   1.167  12.225   3.060 -0.4431 -0.1181 -1.1783
  190MOL0     H25609   1.090  12.319   3.181 -1.5991  3.5546 -1.2801
  190MOL0     H25610   1.015  12.527   3.130 -0.2293  1.4149 -0.9194
  190MOL0     H25611   0.892  12.699   3.263 -1.8456  3.3518 -0.8578
  190MOL0     H25612   0.718  12.719   3.248  0.4054  0.9702  2.3626
  190MOL0     H25613   0.778  12.577   3.336 -1.5440 -1.5143 -1.9014
  190MOL0     H25614   0.204  12.661   2.962 -0.4257  0.8722 -0.9105
  190MOL0     H25615   0.027  12.801   3.060 -2.0246 -1.4087  1.4820
  190MOL0     H25616  -0.073  13.028   3.097  1.7863  0.7167 -0.0244
  190MOL0     H25617  -0.122  12.895   3.201 -2.6916  0.6773  1.6367
  190MOL0     H25618  -0.267  13.087   3.245 -1.3766 -0.1667  1.6037
  190MOL0     H25619  -0.181  13.023   3.388  1.4584 -2.5202 -1.0757
  190MOL0     H25620   0.003  13.214   3.297 -0.2811  0.1948 -0.2653
  190MOL0     H25621  -0.082  13.210   3.444 -0.7834  3.7095  1.0817
  190MOL0     H25622  -0.190  13.358   3.200  0.2066 -2.5499  0.5569
  190MOL0     H25623  -0.279  13.322   3.341 -0.1606  2.1607  0.6646
  190MOL0     H25624  -0.171  13.551   3.333  3.1604  1.2475 -0.7273
  190MOL0     H25625  -0.009  13.462   3.351  0.0095 -0.7319  0.3515
  190MOL0     H25626  -0.240  13.442   3.549  0.7848  1.4530  3.9508
  190MOL0     H25627  -0.088  13.383   3.579 -0.2030  0.5790  0.4548
  190MOL0     H25628   0.000  13.632   3.579  0.9444  1.4801  2.1863
  190MOL0     H25629  -0.084  13.579   3.715  2.7011  0.7564  1.3821
  190MOL0     H25630  -0.277  13.726   3.516 -1.0859  1.5420  1.2193
  190MOL0     H25631  -0.175  13.812   3.624  0.1586  0.0373  3.7862
  190MOL0     H25632   0.319  12.971   3.320 -0.0615 -1.5513  0.5202
  190MOL0     H25633   0.484  12.838   3.236  1.6535  0.8132 -1.8657
  190MOL0     H25634   0.604  12.484   2.880  1.9371  0.0375 -0.4038
  190MOL0     H25635   0.821  12.336   2.817  0.8686 -1.3580  1.5704
  190MOL0     H25636   0.342  11.002   3.512 -0.5116  0.2960 -1.1757
  190MOL0     H25637   0.185  10.808   3.506 -0.4654  2.3348  0.2071
  190MOL0     H25638   0.230  10.329   3.588 -2.2711 -2.9800  1.7485
  190MOL0     H25639   0.200  10.095   3.539 -0.1160 -0.4281  1.0362
  190MOL0     H25640   0.145   9.900   3.464  0.2333 -1.8676 -0.7101
  190MOL0     H25641  -0.011   9.886   3.554 -2.4486 -1.6195 -2.1484
  190MOL0     H25642  -0.100   9.761   3.343 -0.5964  1.0531 -0.4385
  190MOL0     H25643   0.026   9.677   3.448  2.2433  2.4432  1.7151
  190MOL0     H25644   0.075   9.643   3.211  1.0879 -0.9561  0.0655
  190MOL0     H25645   0.209   9.730   3.297  0.8148  2.5125 -2.2161
  190MOL0     H25646   0.153   9.936   3.210  0.7462  0.2118  0.9384
  190MOL0     H25647  -0.012   9.881   3.160 -0.8324 -0.5001  4.7498
  190MOL0     H25648   0.217   9.815   2.822 -3.0731  2.0579 -0.4447
  190MOL0     H25649  -0.126  10.209   3.278 -0.5486  0.0061 -0.2516
  190MOL0     H25650  -0.050  10.430   3.268  1.6958  0.9847  0.3251
  191MOL0     O25651   1.692   7.603   8.644 -1.0131 -0.2588  0.2378
  191MOL0     C25652   1.742   7.569   8.536  0.4810 -1.2192  0.2951
  191MOL0     O25653   1.830   7.464   8.522  0.3962 -0.4209 -0.1135
  191MOL0     C25654   1.839   7.375   8.627 -0.0257  0.1927 -1.2367
  191MOL0     C25655   1.965   7.334   8.666  0.6507  0.0139 -1.0380
  191MOL0     C25656   1.981   7.237   8.770 -0.7667 -1.0035  0.4305
  191MOL0     C25657   1.866   7.186   8.834 -0.0321 -0.6127  0.3062
  191MOL0     O25658   1.888   7.076   8.926  0.0156  0.7545  1.0132
  191MOL0     C25659   1.779   7.019   9.005  0.5018 -0.4803 -0.2363
  191MOL0     C25660   1.814   6.897   9.083 -0.4751 -0.0473  0.1483
  191MOL0     C25661   1.874   6.791   8.988 -0.7007  0.5917 -0.8171
  191MOL0     C25662   1.911   6.653   9.045 -0.4830 -1.0105 -0.6663
  191MOL0     C25663   2.049   6.651   9.112  0.1438 -0.2714 -0.2401
  191MOL0     C25664   2.039   6.539   9.224  0.9756  0.7835  0.5632
  191MOL0     C25665   2.004   6.403   9.160 -1.0730 -0.4712  1.0691
  191MOL0     C25666   1.991   6.278   9.240  0.3715  0.2476 -0.0361
  191MOL0     N25667   2.110   6.249   9.323  0.7932 -1.4766  0.5486
  191MOL0     C25668   2.213   6.176   9.285 -1.2117 -0.3584 -0.5081
  191MOL0     C25669   2.313   6.194   9.375  0.2951 -1.4032 -0.1946
  191MOL0     C25670   2.448   6.147   9.362 -0.1718  2.3151 -0.2614
  191MOL0     C25671   2.543   6.192   9.471 -0.3969 -0.9037 -0.7080
  191MOL0     C25672   2.690   6.139   9.441 -0.2347  0.3870  0.3150
  191MOL0     C25673   2.774   6.168   9.567  0.6621  0.0250  0.4369
  191MOL0     O25674   2.909   6.114   9.556  0.6900 -0.2598 -0.3053
  191MOL0     C25675   2.982   6.115   9.665 -0.1764 -0.0891 -0.9946
  191MOL0     C25676   2.980   6.213   9.762  0.1129  1.2678 -0.3408
  191MOL0     C25677   3.060   6.214   9.877 -0.2202  0.8121  0.6996
  191MOL0     C25678   3.024   6.308   9.981 -0.1578 -0.1574  0.2478
  191MOL0     C25679   3.139   6.106   9.905 -0.3352  0.8478 -0.1707
  191MOL0     C25680   3.237   6.096  10.020 -0.2866 -1.1173  0.6127
  191MOL0     O25681   3.249   6.197  10.112  0.1611 -0.0614 -0.1054
  191MOL0     C25682   3.327   6.165  10.222 -0.0785 -0.3442  0.4834
  191MOL0     C25683   3.441   6.248  10.241  0.1985 -0.6015 -0.3006
  191MOL0     C25684   3.518   6.240  10.365  0.6408 -0.1172  0.3223
  191MOL0     C25685   3.468   6.168  10.473  0.0558 -0.1162 -1.0624
  191MOL0     O25686   3.538   6.170  10.593 -0.4633  0.2814 -0.7038
  191MOL0     C25687   3.462   6.119  10.699 -0.5534  0.0335 -0.4895
  191MOL0     C25688   3.515   6.187  10.829  0.5593  0.1707 -0.2433
  191MOL0     C25689   3.415   6.157  10.939 -0.4736 -1.0005 -0.1304
  191MOL0     C25690   3.389   6.285  11.018 -0.1567 -0.5676 -0.3477
  191MOL0     C25691   3.298   6.254  11.141 -0.2867  0.2775 -1.2607
  191MOL0     C25692   3.172   6.343  11.142 -0.5195  0.2212  0.3740
  191MOL0     C25693   3.210   6.479  11.184  1.1521  0.2879 -0.0784
  191MOL0     C25694   3.092   6.570  11.170 -0.4295 -0.1796 -1.6163
  191MOL0    Cl25695   3.151   6.737  11.202 -0.2054 -0.3077 -0.0622
  191MOL0     C25696   3.366   6.078  10.444  0.8221  0.4331  0.1484
  191MOL0     C25697   3.297   6.069  10.317 -0.0727 -0.0179 -0.4917
  191MOL0     O25698   3.313   6.003  10.019  0.0495 -0.4698 -0.2541
  191MOL0     C25699   3.131   6.001   9.818  0.1062  0.5648 -0.2826
  191MOL0     C25700   3.057   6.005   9.699 -1.4637  0.5459 -1.0623
  191MOL0     N25701   2.259   6.277   9.469 -0.4138 -0.1450  0.5471
  191MOL0     N25702   2.130   6.314   9.438 -0.1687 -0.6718  0.1241
  191MOL0     C25703   1.743   7.233   8.796 -0.9293  0.6280  0.4092
  191MOL0     C25704   1.728   7.318   8.682 -0.3016  0.7649  0.5597
  191MOL0     C25705   1.694   7.662   8.421  0.1895  1.3025 -0.0475
  191MOL0     C25706   1.593   7.762   8.441 -1.1534 -0.1039 -0.3366
  191MOL0     C25707   1.569   7.856   8.356 -0.6586 -1.3039  0.6365
  191MOL0     C25708   1.640   7.856   8.226  0.4843 -0.7696 -0.4559
  191MOL0     O25709   1.594   7.954   8.140  0.1064  0.0777 -0.5761
  191MOL0     C25710   1.647   7.951   8.006 -0.5958 -0.3006 -0.6108
  191MOL0     C25711   1.572   8.036   7.913 -0.4472 -0.9875  0.4992
  191MOL0     C25712   1.622   8.180   7.925  0.3230  0.4501 -0.7886
  191MOL0     C25713   1.522   8.278   7.856  0.1609 -0.2460  0.0969
  191MOL0     C25714   1.522   8.417   7.901 -0.5675 -0.1373 -0.0713
  191MOL0     C25715   1.513   8.529   7.938  0.3501  1.3712 -0.5704
  191MOL0     C25716   1.738   7.757   8.202  0.4184 -0.2553 -0.1065
  191MOL0     C25717   1.768   7.663   8.303  1.1272  0.2226  0.0144
  191MOL0     H25718   2.052   7.390   8.633  0.2887  1.8893  0.9513
  191MOL0     H25719   2.084   7.205   8.784 -0.7070 -2.6961 -2.9217
  191MOL0     H25720   1.752   7.085   9.087 -0.8314  0.6789 -1.5547
  191MOL0     H25721   1.693   6.989   8.944 -0.2670 -1.0543  1.0944
  191MOL0     H25722   1.888   6.920   9.160 -0.2285 -0.5539  0.0639
  191MOL0     H25723   1.722   6.866   9.134 -1.0418 -0.8118 -1.2821
  191MOL0     H25724   1.804   6.773   8.906  1.5229 -0.2205 -2.6474
  191MOL0     H25725   1.961   6.834   8.937 -3.3993  1.8371 -4.8782
  191MOL0     H25726   1.836   6.612   9.115 -1.2057 -0.7136 -1.2559
  191MOL0     H25727   1.905   6.583   8.961 -2.8006 -1.7375  0.0290
  191MOL0     H25728   2.121   6.621   9.036  0.0959 -2.8309  0.6430
  191MOL0     H25729   2.085   6.746   9.155 -0.6583 -0.1574  0.1961
  191MOL0     H25730   2.142   6.530   9.260  0.8388 -2.7099  0.4533
  191MOL0     H25731   1.965   6.564   9.301  1.1892 -0.2689  1.1402
  191MOL0     H25732   1.905   6.411   9.114 -0.1586 -0.5194 -1.0217
  191MOL0     H25733   2.075   6.386   9.079 -1.8397  0.3362  0.1919
  191MOL0     H25734   1.977   6.196   9.169  1.1507  0.0793  0.0023
  191MOL0     H25735   1.900   6.291   9.299  1.6767  2.6169  1.6198
  191MOL0     H25736   2.214   6.114   9.196 -0.8863 -0.6182 -0.3245
  191MOL0     H25737   2.436   6.038   9.363  0.6553  2.2107  0.8971
  191MOL0     H25738   2.487   6.183   9.266 -0.5950 -3.2476 -2.9468
  191MOL0     H25739   2.516   6.155   9.571  2.2025  1.5536  1.0492
  191MOL0     H25740   2.545   6.300   9.481  1.6480 -1.0783  2.0405
  191MOL0     H25741   2.735   6.164   9.345 -3.1839 -0.7672 -1.5310
  191MOL0     H25742   2.687   6.030   9.430 -1.8966  0.5483 -1.3523
  191MOL0     H25743   2.718   6.119   9.648 -3.2115  0.3764 -1.8072
  191MOL0     H25744   2.777   6.274   9.590  1.0050 -0.0306  0.6549
  191MOL0     H25745   2.909   6.293   9.742  1.0274  2.3128  0.4474
  191MOL0     H25746   2.946   6.379   9.954  0.3337  1.3403  2.5463
  191MOL0     H25747   2.989   6.250  10.067  0.0437 -0.9263 -0.1718
  191MOL0     H25748   3.110   6.365  10.017  0.4142 -1.5769  1.2523
  191MOL0     H25749   3.473   6.325  10.171  0.2451  0.1239  0.5028
  191MOL0     H25750   3.602   6.307  10.382  1.6346 -0.9900 -0.9539
  191MOL0     H25751   3.355   6.132  10.682 -0.5645 -1.4780 -1.7991
  191MOL0     H25752   3.498   6.016  10.700  1.7564  0.7943  0.2184
  191MOL0     H25753   3.617   6.159  10.860  1.4053  0.8437 -2.2619
  191MOL0     H25754   3.520   6.295  10.813  3.9780 -0.3034 -4.0349
  191MOL0     H25755   3.461   6.085  11.007  0.5647 -0.4293 -0.2129
  191MOL0     H25756   3.319   6.130  10.894 -0.6068 -0.3586 -0.2383
  191MOL0     H25757   3.480   6.332  11.055 -0.1466  0.3698 -1.5238
  191MOL0     H25758   3.341   6.350  10.944  1.6965 -0.2434 -1.3086
  191MOL0     H25759   3.351   6.264  11.237 -0.7517 -0.9000 -0.8661
  191MOL0     H25760   3.276   6.148  11.126  1.8772 -0.1638 -1.5456
  191MOL0     H25761   3.129   6.339  11.042  4.1214  1.2921 -1.9219
  191MOL0     H25762   3.101   6.309  11.219 -1.6552  0.1205 -0.6859
  191MOL0     H25763   3.272   6.525  11.105  0.1764  0.9228 -0.4928
  191MOL0     H25764   3.263   6.482  11.279  0.3795  3.9651  0.3998
  191MOL0     H25765   3.013   6.548  11.243 -0.0896 -0.8296 -1.4341
  191MOL0     H25766   3.046   6.566  11.071 -2.9387 -1.6713 -0.4984
  191MOL0     H25767   3.327   6.002  10.512 -0.7173 -2.2694 -3.4442
  191MOL0     H25768   3.211   6.003  10.318  0.1889 -0.3498  0.4454
  191MOL0     H25769   3.191   5.912   9.836  3.2343  1.7880 -3.5497
  191MOL0     H25770   3.073   5.918   9.636  0.5436 -0.3449  0.5564
  191MOL0     H25771   1.650   7.207   8.847 -1.4466 -2.1783 -1.7425
  191MOL0     H25772   1.632   7.347   8.640  0.4467 -1.3990 -3.0199
  191MOL0     H25773   1.536   7.771   8.533 -0.7810 -0.3946 -0.0741
  191MOL0     H25774   1.509   7.937   8.394  2.4280  0.0273  3.1296
  191MOL0     H25775   1.754   7.976   8.011 -1.0665  1.6398  1.9041
  191MOL0     H25776   1.642   7.850   7.965 -1.5305 -0.0233 -1.1948
  191MOL0     H25777   1.471   8.021   7.953 -1.1767 -0.4427 -1.0559
  191MOL0     H25778   1.561   8.013   7.806  2.0242 -1.1289  0.2251
  191MOL0     H25779   1.720   8.196   7.881  1.2008  0.1396  0.9475
  191MOL0     H25780   1.626   8.212   8.030 -3.6423  2.1109 -0.9619
  191MOL0     H25781   1.427   8.228   7.879  0.4595 -1.6178 -1.4481
  191MOL0     H25782   1.539   8.264   7.749 -0.0255 -5.3272  0.4764
  191MOL0     H25783   1.522   8.632   7.966  2.5865  0.4368  2.8315
  191MOL0     H25784   1.790   7.758   8.107  0.6128  1.0117 -0.0037
  191MOL0     H25785   1.841   7.585   8.281  2.1311  0.5415  1.9478
  192MOL0     O25786   5.486   3.480   6.257  0.1921  0.4592  0.0336
  192MOL0     C25787   5.511   3.360   6.231  0.3348 -0.6352 -0.2916
  192MOL0     O25788   5.484   3.301   6.114 -0.3316  0.2863  0.0338
  192MOL0     C25789   5.436   3.382   6.006  0.4281 -0.8001 -0.1569
  192MOL0     C25790   5.513   3.393   5.899  0.0347  0.8205 -0.4592
  192MOL0     C25791   5.475   3.469   5.785 -0.7851  0.4975  0.6122
  192MOL0     C25792   5.343   3.523   5.775 -0.6885 -0.2095  0.6979
  192MOL0     O25793   5.297   3.586   5.656  0.5095  0.9518 -0.1626
  192MOL0     C25794   5.385   3.626   5.554  0.5915  0.1168  0.1408
  192MOL0     C25795   5.300   3.691   5.440  0.3116 -0.8965  0.3417
  192MOL0     C25796   5.178   3.763   5.497  0.9329 -0.7984  0.1471
  192MOL0     C25797   5.095   3.837   5.403  0.9908  0.0500  0.2601
  192MOL0     C25798   4.976   3.917   5.459  0.5086  0.7620 -0.1954
  192MOL0     C25799   4.991   4.001   5.591  0.9130 -0.3333 -0.6178
  192MOL0     C25800   4.896   3.943   5.707 -0.5007 -0.5752 -0.2541
  192MOL0     C25801   4.959   3.816   5.779 -0.0078 -0.5784 -0.0498
  192MOL0     N25802   5.045   3.871   5.880  0.1306  0.4209 -0.7408
  192MOL0     C25803   5.182   3.878   5.885 -0.2013  0.2725  0.0157
  192MOL0     C25804   5.214   3.925   6.005  0.2756 -0.5936  0.8224
  192MOL0     C25805   5.344   3.969   6.077 -0.4887  0.9980 -0.2097
  192MOL0     C25806   5.460   3.869   6.072 -0.0416 -0.2607  0.1608
  192MOL0     C25807   5.561   3.904   6.181 -0.0407 -0.5310  1.0247
  192MOL0     C25808   5.626   4.041   6.191  0.0620  0.2170  0.2217
  192MOL0     O25809   5.545   4.159   6.177  1.0964  0.3757 -0.4573
  192MOL0     C25810   5.624   4.260   6.131  0.4632  0.1155 -0.0214
  192MOL0     C25811   5.744   4.301   6.197 -0.2332 -0.0217 -0.3385
  192MOL0     C25812   5.815   4.399   6.123  0.5242  0.1932  0.5685
  192MOL0     C25813   5.950   4.444   6.174 -0.0361 -0.6072  0.1863
  192MOL0     C25814   5.771   4.457   6.001 -0.1722 -0.3777 -0.0816
  192MOL0     C25815   5.825   4.578   5.921  0.8882  0.0466  0.2622
  192MOL0     O25816   5.803   4.580   5.787  0.1736 -0.1769  0.1538
  192MOL0     C25817   5.788   4.698   5.725  0.6394  0.2494  0.3989
  192MOL0     C25818   5.856   4.731   5.612  0.5691  0.8834  0.1579
  192MOL0     C25819   5.844   4.837   5.529  1.1551 -0.4872  0.1976
  192MOL0     C25820   5.757   4.941   5.567 -0.0534  0.7442 -0.4623
  192MOL0     O25821   5.746   5.056   5.490 -0.1182  0.7966  0.0076
  192MOL0     C25822   5.824   5.078   5.365  0.3460  0.2163 -0.4111
  192MOL0     C25823   5.811   5.214   5.312  0.2781 -0.9895 -0.6918
  192MOL0     C25824   5.804   5.318   5.420  0.0771 -0.2740 -0.7166
  192MOL0     C25825   5.783   5.454   5.344  0.4123  1.0951 -0.8368
  192MOL0     C25826   5.747   5.567   5.448 -0.5632 -0.3761 -0.0741
  192MOL0     C25827   5.696   5.687   5.382  0.2335  0.9949  0.1529
  192MOL0     C25828   5.596   5.762   5.467  0.1563 -0.9518 -0.6945
  192MOL0     C25829   5.528   5.877   5.392  0.6653  0.1003  0.4150
  192MOL0    Cl25830   5.432   5.977   5.511  0.3439 -0.4060 -0.3624
  192MOL0     C25831   5.671   4.911   5.685 -0.2992 -0.0454  0.2065
  192MOL0     C25832   5.690   4.792   5.757 -0.8909  0.2117 -0.4097
  192MOL0     O25833   5.881   4.663   5.983  0.4954  0.4311  0.5417
  192MOL0     C25834   5.648   4.415   5.948 -0.0093 -1.9459  1.3688
  192MOL0     C25835   5.582   4.311   6.008  1.0594 -0.1289 -0.7401
  192MOL0     N25836   5.093   3.945   6.078 -0.1638 -0.3189  0.3639
  192MOL0     N25837   4.995   3.904   6.005 -0.3026  0.9701 -0.5928
  192MOL0     C25838   5.265   3.508   5.893  0.0985 -0.1738  0.1022
  192MOL0     C25839   5.309   3.444   6.003 -0.2222  0.0924 -0.7679
  192MOL0     C25840   5.601   3.286   6.325 -0.2999 -0.4578 -0.8527
  192MOL0     C25841   5.655   3.351   6.445  0.8846  0.0091 -0.1691
  192MOL0     C25842   5.731   3.262   6.524 -0.5499  0.0853 -0.0169
  192MOL0     C25843   5.758   3.129   6.490  0.5858 -0.5084  0.1560
  192MOL0     O25844   5.828   3.043   6.570  0.7030  0.2566 -0.4192
  192MOL0     C25845   5.834   3.062   6.709  0.4704  0.5759 -0.5196
  192MOL0     C25846   5.928   2.965   6.779 -0.1965 -1.2126 -0.2762
  192MOL0     C25847   5.974   3.025   6.921  0.2678  0.1266  0.4754
  192MOL0     C25848   6.089   3.130   6.905 -0.4487 -0.3394  0.4396
  192MOL0     C25849   6.221   3.058   6.900  1.0435 -0.6312  0.3292
  192MOL0     C25850   6.319   2.990   6.879 -0.4981  0.7321 -0.8068
  192MOL0     C25851   5.702   3.070   6.382  0.5559 -0.3546 -0.0332
  192MOL0     C25852   5.633   3.152   6.291 -0.1168 -1.1835 -0.1377
  192MOL0     H25853   5.608   3.341   5.909 -1.3372 -1.3147  3.1786
  192MOL0     H25854   5.548   3.489   5.708 -1.1927  0.0552  0.0944
  192MOL0     H25855   5.454   3.707   5.578 -2.0287  2.4383  0.3778
  192MOL0     H25856   5.446   3.548   5.506  0.4690  2.2493 -3.9596
  192MOL0     H25857   5.360   3.757   5.377 -0.8768  0.3124  0.4152
  192MOL0     H25858   5.256   3.613   5.378 -2.5313  2.3733 -2.1988
  192MOL0     H25859   5.112   3.682   5.530  0.3110 -0.7746 -0.9748
  192MOL0     H25860   5.196   3.822   5.587 -1.2233  2.7248 -1.5124
  192MOL0     H25861   5.156   3.904   5.341  0.4178 -0.7580 -1.2353
  192MOL0     H25862   5.051   3.763   5.335  1.3202  0.1266 -0.0367
  192MOL0     H25863   4.954   3.993   5.384 -4.5762 -3.6122 -3.9501
  192MOL0     H25864   4.894   3.847   5.474  1.1094  0.0196 -0.2827
  192MOL0     H25865   5.097   3.998   5.617  1.2890  4.2979 -0.7270
  192MOL0     H25866   4.978   4.110   5.584 -0.6240 -0.2875  1.8779
  192MOL0     H25867   4.879   4.017   5.784  1.3280  2.8538 -2.8603
  192MOL0     H25868   4.795   3.926   5.668 -2.4926  3.8438  2.3390
  192MOL0     H25869   5.017   3.746   5.717  1.1541 -0.1171  0.4956
  192MOL0     H25870   4.871   3.763   5.818 -2.7372  1.6556 -2.7210
  192MOL0     H25871   5.250   3.850   5.805  0.5906  2.3734 -0.1165
  192MOL0     H25872   5.371   4.058   6.018 -0.1194  1.5154  0.7158
  192MOL0     H25873   5.312   3.995   6.178 -1.5968 -0.7401 -0.0844
  192MOL0     H25874   5.514   3.863   5.977  1.1225  2.9636  0.5115
  192MOL0     H25875   5.417   3.773   6.103  0.9381 -1.0898 -0.9534
  192MOL0     H25876   5.628   3.818   6.188 -1.7155 -2.1352 -1.1678
  192MOL0     H25877   5.506   3.899   6.276  1.9826  3.5534  2.6579
  192MOL0     H25878   5.708   4.046   6.118  1.9915  1.5933  2.3470
  192MOL0     H25879   5.667   4.039   6.292 -0.9417 -2.3854  0.6410
  192MOL0     H25880   5.774   4.255   6.291 -3.6322  1.7600  1.8111
  192MOL0     H25881   5.993   4.368   6.240  0.1018 -0.9430 -0.2892
  192MOL0     H25882   6.024   4.456   6.095 -0.7653  2.8050 -0.1256
  192MOL0     H25883   5.951   4.540   6.227 -0.7377  0.2337 -1.2692
  192MOL0     H25884   5.913   4.651   5.566  1.1698  1.5843 -0.3494
  192MOL0     H25885   5.900   4.836   5.436 -0.0348  0.3330 -0.5593
  192MOL0     H25886   5.927   5.049   5.389 -0.2261 -2.4585 -0.9000
  192MOL0     H25887   5.786   5.011   5.287  1.3144 -0.6845 -0.1339
  192MOL0     H25888   5.892   5.239   5.243  0.7379 -0.7551 -0.0757
  192MOL0     H25889   5.723   5.218   5.248  0.2372 -0.8661 -0.6272
  192MOL0     H25890   5.894   5.331   5.480 -1.0966 -0.6936  1.2218
  192MOL0     H25891   5.723   5.297   5.490  2.1425 -2.5768  1.1367
  192MOL0     H25892   5.876   5.484   5.296  0.1793 -0.3151 -2.2394
  192MOL0     H25893   5.712   5.418   5.269  2.7817 -6.4571 -0.3280
  192MOL0     H25894   5.842   5.578   5.502 -0.0603 -3.3416 -0.1890
  192MOL0     H25895   5.686   5.523   5.527  0.7614 -0.0474  1.1699
  192MOL0     H25896   5.776   5.755   5.353  0.6001  1.1126  1.3683
  192MOL0     H25897   5.644   5.654   5.292  1.4874  0.4081 -0.3837
  192MOL0     H25898   5.652   5.800   5.553  0.5944 -0.1693 -1.3105
  192MOL0     H25899   5.527   5.681   5.491  0.9321 -1.9536 -1.7434
  192MOL0     H25900   5.461   5.838   5.314  3.2246  0.7386 -2.3029
  192MOL0     H25901   5.600   5.943   5.343  4.1085 -0.8144  3.7739
  192MOL0     H25902   5.590   4.979   5.710 -2.0633 -1.7875 -0.4713
  192MOL0     H25903   5.626   4.770   5.842 -3.8737  2.4205 -1.9238
  192MOL0     H25904   5.611   4.471   5.863 -0.2908  2.1654  3.9172
  192MOL0     H25905   5.486   4.278   5.972  0.0758 -0.4930  2.0134
  192MOL0     H25906   5.170   3.561   5.890  0.5885  0.7735  1.0058
  192MOL0     H25907   5.252   3.423   6.092 -1.5805  0.8538 -1.4188
  192MOL0     H25908   5.645   3.456   6.469  0.7117  0.0349 -0.3465
  192MOL0     H25909   5.786   3.300   6.610  0.4467  0.3836 -0.7698
  192MOL0     H25910   5.843   3.167   6.738 -3.5012  0.6031  1.3227
  192MOL0     H25911   5.732   3.036   6.739  0.4891 -3.3909 -3.1359
  192MOL0     H25912   6.019   2.965   6.720  0.0077  1.1250 -0.0614
  192MOL0     H25913   5.905   2.858   6.787 -1.3745 -0.8424  2.6093
  192MOL0     H25914   6.000   2.947   6.993 -0.1128 -0.2443  0.2172
  192MOL0     H25915   5.890   3.070   6.973 -0.8767 -1.8129  0.4283
  192MOL0     H25916   6.084   3.202   6.987 -0.9677 -3.1305  3.0648
  192MOL0     H25917   6.078   3.188   6.813  2.5064 -2.4063 -1.3783
  192MOL0     H25918   6.405   2.928   6.865 -1.7571 -0.8982 -1.7260
  192MOL0     H25919   5.704   2.965   6.354  1.3109  0.4377 -3.4603
  192MOL0     H25920   5.583   3.112   6.203 -2.5675 -1.0904  1.1302
  193MOL0     O25921   5.543   5.052   4.211  0.4731  0.0669  0.8127
  193MOL0     C25922   5.621   5.145   4.209  0.4321 -0.2554  0.3224
  193MOL0     O25923   5.740   5.149   4.285 -0.3706  0.3022  0.1186
  193MOL0     C25924   5.772   5.044   4.363 -0.0961 -0.0730  0.0110
  193MOL0     C25925   5.742   4.914   4.366  0.4917  1.2993  0.8037
  193MOL0     C25926   5.811   4.825   4.452 -0.3316  0.8952 -0.2125
  193MOL0     C25927   5.887   4.864   4.560  0.4327 -0.1415  0.3869
  193MOL0     O25928   5.948   4.795   4.658  0.3724  1.0190  0.3064
  193MOL0     C25929   6.046   4.702   4.613  0.5160 -0.7406 -0.8220
  193MOL0     C25930   5.984   4.569   4.644 -0.2677  0.5148 -0.3141
  193MOL0     C25931   6.080   4.454   4.613  0.4485  0.5728 -0.4121
  193MOL0     C25932   6.145   4.451   4.475 -0.6751 -0.5555  1.1780
  193MOL0     C25933   6.239   4.333   4.461 -0.1337  0.4345  0.0733
  193MOL0     C25934   6.366   4.380   4.382 -0.3702  0.4779  1.3225
  193MOL0     C25935   6.325   4.422   4.237  0.5880 -0.2159 -0.0007
  193MOL0     C25936   6.436   4.448   4.145 -0.3040 -0.4669 -0.7504
  193MOL0     N25937   6.490   4.322   4.089 -0.3129 -0.4348 -0.3165
  193MOL0     C25938   6.424   4.253   4.001  0.3574  0.6941  0.5699
  193MOL0     C25939   6.508   4.142   3.979  0.5466  0.3237  0.9686
  193MOL0     C25940   6.499   4.025   3.895 -1.0759  0.1583  0.6260
  193MOL0     C25941   6.369   3.939   3.895  0.5438 -0.4531 -0.3139
  193MOL0     C25942   6.333   3.873   4.031  0.2629 -0.3424 -0.0412
  193MOL0     C25943   6.245   3.960   4.134 -0.6238 -0.2527  0.4456
  193MOL0     O25944   6.121   3.998   4.065 -0.0644 -0.3037  0.3560
  193MOL0     C25945   6.045   4.072   4.149 -0.3187 -0.4873 -0.1994
  193MOL0     C25946   5.980   4.030   4.264 -0.4632  0.2267  0.1358
  193MOL0     C25947   5.916   4.123   4.343 -0.0408  0.9193  0.0104
  193MOL0     C25948   5.866   4.066   4.470  0.1415  0.6803  0.9167
  193MOL0     C25949   5.893   4.256   4.306  0.9855 -0.1328 -0.4988
  193MOL0     C25950   5.815   4.355   4.385  0.4389 -0.2314 -0.6855
  193MOL0     O25951   5.754   4.315   4.509  0.4180  0.2452  0.1765
  193MOL0     C25952   5.681   4.391   4.588 -0.2697  0.2975 -0.2479
  193MOL0     C25953   5.575   4.452   4.534  0.3758 -0.5679 -0.3668
  193MOL0     C25954   5.475   4.526   4.605 -0.6541  0.4062  0.3670
  193MOL0     C25955   5.503   4.530   4.748 -0.0298 -0.5461 -0.1350
  193MOL0     O25956   5.417   4.593   4.830 -0.3260  0.1777 -0.1891
  193MOL0     C25957   5.279   4.621   4.797 -0.1229  0.4167  0.6582
  193MOL0     C25958   5.205   4.646   4.926 -0.0716 -0.1287  0.2461
  193MOL0     C25959   5.064   4.705   4.903  0.1386  0.4361 -0.5025
  193MOL0     C25960   5.059   4.863   4.894  0.4764  0.9561  0.2140
  193MOL0     C25961   4.907   4.904   4.877 -0.4449  0.2042  0.7076
  193MOL0     C25962   4.915   5.060   4.833  0.5123  0.2570  0.3897
  193MOL0     C25963   4.782   5.125   4.807 -0.5573 -0.8791  0.4839
  193MOL0     C25964   4.713   5.158   4.941  0.5816  0.0483  0.6521
  193MOL0    Cl25965   4.592   5.038   4.976  0.0590 -0.1458  0.1495
  193MOL0     C25966   5.619   4.470   4.800 -0.3472 -0.2460 -0.0201
  193MOL0     C25967   5.705   4.402   4.721  0.2532 -0.5152 -0.2233
  193MOL0     O25968   5.797   4.463   4.345 -0.4137 -0.4395  0.0864
  193MOL0     C25969   5.957   4.294   4.185 -0.1569 -0.2977 -0.5698
  193MOL0     C25970   6.024   4.206   4.108 -0.1131  1.4693  0.4457
  193MOL0     N25971   6.625   4.173   4.046 -0.6057  1.4191 -0.5176
  193MOL0     N25972   6.618   4.278   4.110  0.3456 -0.6961 -0.3713
  193MOL0     C25973   5.904   5.003   4.572  0.6844 -0.6043  0.1862
  193MOL0     C25974   5.850   5.083   4.469 -1.0023  0.2901  0.2887
  193MOL0     C25975   5.577   5.262   4.134 -0.6524 -0.2243 -0.9264
  193MOL0     C25976   5.458   5.267   4.069  0.6923  0.6206 -0.8863
  193MOL0     C25977   5.419   5.381   3.998 -0.4556  0.0343  0.5439
  193MOL0     C25978   5.503   5.492   3.988 -0.1732  0.0383 -0.1831
  193MOL0     O25979   5.483   5.604   3.917  0.7595 -0.5659 -0.0006
  193MOL0     C25980   5.376   5.604   3.818  1.3632  0.0786 -0.5396
  193MOL0     C25981   5.350   5.740   3.750  0.1169  0.2803  0.0877
  193MOL0     C25982   5.208   5.758   3.673 -0.3548  0.5327  0.1803
  193MOL0     C25983   5.198   5.902   3.630 -0.0457  0.2069 -0.7609
  193MOL0     C25984   5.116   5.923   3.507  0.2707 -0.8953 -0.4587
  193MOL0     C25985   5.035   5.936   3.417  0.4279 -0.3193  0.0420
  193MOL0     C25986   5.626   5.493   4.050 -0.1061  0.2726 -0.0116
  193MOL0     C25987   5.663   5.374   4.118 -0.2603  0.1452  0.7429
  193MOL0     H25988   5.675   4.867   4.295  1.0130  1.1083  0.4431
  193MOL0     H25989   5.798   4.717   4.449 -2.0818  1.0795 -2.5155
  193MOL0     H25990   6.075   4.726   4.510  2.0744  0.9256 -0.0542
  193MOL0     H25991   6.134   4.712   4.677 -1.4190 -1.1678  2.1155
  193MOL0     H25992   5.965   4.560   4.751  1.2489 -0.2866 -0.0748
  193MOL0     H25993   5.892   4.561   4.585 -0.0631  2.0030 -0.8711
  193MOL0     H25994   6.167   4.458   4.679  1.6918 -0.3379 -1.9074
  193MOL0     H25995   6.034   4.356   4.630 -2.4499  1.9061  0.0443
  193MOL0     H25996   6.069   4.457   4.396  3.0875 -0.7529 -2.8165
  193MOL0     H25997   6.205   4.542   4.467 -0.2983 -0.9213 -0.4892
  193MOL0     H25998   6.276   4.301   4.559  1.9665  0.1979 -0.7252
  193MOL0     H25999   6.195   4.240   4.425  2.9000 -1.8287  1.7065
  193MOL0     H26000   6.404   4.472   4.426 -1.7894  0.4052  2.7741
  193MOL0     H26001   6.451   4.311   4.382 -1.3791 -0.9785 -2.2000
  193MOL0     H26002   6.248   4.355   4.198 -1.9094  0.8900  2.6287
  193MOL0     H26003   6.264   4.512   4.248 -0.5472 -0.9920  0.2386
  193MOL0     H26004   6.517   4.501   4.195  0.2409 -1.1716 -0.8629
  193MOL0     H26005   6.399   4.508   4.061 -0.3156 -1.4738 -1.4807
  193MOL0     H26006   6.326   4.266   3.957 -0.7778  0.7397  2.9590
  193MOL0     H26007   6.519   4.045   3.789 -0.3558 -1.9992  0.3029
  193MOL0     H26008   6.586   3.966   3.924 -0.1228 -1.9178 -5.1226
  193MOL0     H26009   6.394   3.848   3.841  5.1775  0.2907  0.1596
  193MOL0     H26010   6.291   3.999   3.847  0.5294 -1.1002 -1.1099
  193MOL0     H26011   6.423   3.833   4.078  0.0078 -0.6507  0.1879
  193MOL0     H26012   6.279   3.781   4.003 -3.7770  1.7003  0.3337
  193MOL0     H26013   6.302   4.046   4.171 -1.1382  0.3290 -0.0893
  193MOL0     H26014   6.226   3.907   4.228 -3.5588 -0.8126 -0.3483
  193MOL0     H26015   6.000   3.929   4.298  3.6656  0.9928  0.4001
  193MOL0     H26016   5.760   4.077   4.495  0.0012 -0.1893  0.7585
  193MOL0     H26017   5.895   3.960   4.477 -0.2848  0.6177  2.0853
  193MOL0     H26018   5.913   4.103   4.561 -2.0627 -0.3581  2.5945
  193MOL0     H26019   5.559   4.444   4.427 -0.6833 -0.0551 -0.2556
  193MOL0     H26020   5.380   4.567   4.572 -1.9795 -3.3355 -0.9733
  193MOL0     H26021   5.267   4.711   4.735  0.8152  0.3932  0.4223
  193MOL0     H26022   5.231   4.533   4.753  0.2473  0.5545 -0.0428
  193MOL0     H26023   5.196   4.567   5.001 -1.1326  1.3359  1.7254
  193MOL0     H26024   5.276   4.707   4.983 -0.9789  0.1848  1.0491
  193MOL0     H26025   5.001   4.679   4.988  2.9074  3.5183  2.8295
  193MOL0     H26026   5.020   4.645   4.823  2.1618 -1.0973 -0.5594
  193MOL0     H26027   5.092   4.899   4.992  2.5963 -1.9113  0.6972
  193MOL0     H26028   5.125   4.895   4.814  2.1267 -1.0774  0.6804
  193MOL0     H26029   4.854   4.873   4.967 -2.3390  2.0607  0.3255
  193MOL0     H26030   4.863   4.859   4.787  0.8921 -0.6996  0.4766
  193MOL0     H26031   4.958   5.116   4.916  0.4604  2.6126 -1.0770
  193MOL0     H26032   4.980   5.069   4.746  0.3864  2.7895  0.4963
  193MOL0     H26033   4.712   5.067   4.746 -0.3921 -0.1011 -0.4704
  193MOL0     H26034   4.797   5.216   4.749 -0.2743 -1.7566 -0.8777
  193MOL0     H26035   4.656   5.252   4.942  0.7672  0.2392 -1.7253
  193MOL0     H26036   4.776   5.165   5.031  0.9915  3.3466  0.2497
  193MOL0     H26037   5.625   4.464   4.908  1.9720 -0.1220 -0.1023
  193MOL0     H26038   5.782   4.336   4.760 -0.8658 -2.3850 -1.0258
  193MOL0     H26039   5.953   4.389   4.132 -0.8767  0.0107  0.0159
  193MOL0     H26040   6.069   4.248   4.018  0.5939 -0.7820 -0.3226
  193MOL0     H26041   5.941   5.050   4.663 -2.8558  1.1597  0.9072
  193MOL0     H26042   5.865   5.190   4.479  1.3063  0.0029  0.3687
  193MOL0     H26043   5.395   5.179   4.061 -0.2717  1.2706 -0.7118
  193MOL0     H26044   5.327   5.365   3.944  2.0727 -3.6981 -3.2696
  193MOL0     H26045   5.387   5.525   3.743  2.6198  2.0375 -2.5521
  193MOL0     H26046   5.284   5.584   3.874  0.9980  0.8926 -0.8421
  193MOL0     H26047   5.426   5.782   3.684 -0.9318  0.9692 -0.7176
  193MOL0     H26048   5.350   5.808   3.836  2.3539 -1.3345  1.4785
  193MOL0     H26049   5.125   5.743   3.742 -1.1799  4.2246  0.1768
  193MOL0     H26050   5.190   5.683   3.595  0.0695 -0.7890  1.3132
  193MOL0     H26051   5.294   5.952   3.619 -0.1862  1.6519  3.1415
  193MOL0     H26052   5.153   5.961   3.710  1.9312  1.1092 -0.2550
  193MOL0     H26053   4.968   5.953   3.336 -1.0114 -0.3589  1.1857
  193MOL0     H26054   5.691   5.578   4.069 -0.4414 -0.1560  3.8082
  193MOL0     H26055   5.763   5.389   4.157  0.2708 -0.1180 -0.4461
  194MOL0     O26056   0.625   7.324   6.372 -0.1655 -0.2468  0.3377
  194MOL0     C26057   0.516   7.312   6.328 -0.4107  0.3794  0.9614
  194MOL0     O26058   0.403   7.283   6.390 -0.2652  0.0097 -0.5159
  194MOL0     C26059   0.407   7.233   6.515  0.6274  0.3341 -0.5197
  194MOL0     C26060   0.468   7.106   6.538 -0.6635 -1.0638  0.0046
  194MOL0     C26061   0.482   7.063   6.660 -0.0203  0.4261 -0.4009
  194MOL0     C26062   0.439   7.139   6.773 -0.6886  0.4191 -0.1267
  194MOL0     O26063   0.465   7.067   6.892 -0.4013  0.3053 -0.3645
  194MOL0     C26064   0.493   7.157   7.006  0.6106  0.0891  0.2631
  194MOL0     C26065   0.584   7.094   7.107  0.2527  0.0180 -0.1753
  194MOL0     C26066   0.519   6.966   7.163 -0.1358  0.5291 -0.5498
  194MOL0     C26067   0.631   6.881   7.248  0.6536 -0.8786 -0.3291
  194MOL0     C26068   0.592   6.759   7.337  0.7720  0.7945 -0.3189
  194MOL0     C26069   0.714   6.683   7.397 -0.4555  0.0398  1.5537
  194MOL0     C26070   0.678   6.589   7.509  0.2447 -0.5426  0.1704
  194MOL0     C26071   0.554   6.513   7.480  0.2175 -0.2358 -0.2003
  194MOL0     N26072   0.537   6.411   7.594  0.1660 -0.1089 -0.0076
  194MOL0     C26073   0.416   6.351   7.613  0.3726  0.2767  0.2769
  194MOL0     C26074   0.439   6.260   7.705 -0.4343 -0.5634 -0.5777
  194MOL0     C26075   0.330   6.176   7.766 -0.8010  0.1330  0.2670
  194MOL0     C26076   0.227   6.267   7.833  0.1410 -0.2442  0.2144
  194MOL0     C26077   0.100   6.204   7.886  0.5717  1.2343 -0.2826
  194MOL0     C26078   0.126   6.096   7.998 -0.5947 -0.6963 -0.7885
  194MOL0     O26079   0.054   6.113   8.117 -0.9361 -0.1951  1.0354
  194MOL0     C26080  -0.077   6.100   8.127  0.0627 -0.7584 -0.1007
  194MOL0     C26081  -0.133   6.157   8.235  0.4075  0.0101 -0.3048
  194MOL0     C26082  -0.280   6.149   8.259  0.1028  0.1806  0.0491
  194MOL0     C26083  -0.327   6.211   8.390 -0.5918 -0.1975  0.9739
  194MOL0     C26084  -0.365   6.076   8.169 -1.0355 -0.2544  0.0589
  194MOL0     C26085  -0.509   6.061   8.198 -0.2833 -0.7052  1.3478
  194MOL0     O26086  -0.554   6.092   8.322 -0.1934  0.0121  0.1606
  194MOL0     C26087  -0.680   6.131   8.345 -0.3675  0.9062 -0.4213
  194MOL0     C26088  -0.710   6.269   8.326 -0.7372  0.0193  0.2591
  194MOL0     C26089  -0.831   6.310   8.346  0.1830 -0.4130 -0.2634
  194MOL0     C26090  -0.937   6.224   8.356  0.4407  1.0600 -0.0302
  194MOL0     O26091  -1.056   6.279   8.372  0.6113  0.4637 -0.1749
  194MOL0     C26092  -1.172   6.198   8.390  0.2787 -0.0038  0.1883
  194MOL0     C26093  -1.241   6.186   8.252  0.5376  0.3925 -0.9287
  194MOL0     C26094  -1.349   6.074   8.254 -0.8734 -0.4441 -0.5328
  194MOL0     C26095  -1.323   5.928   8.294  0.5944 -0.1680 -0.2679
  194MOL0     C26096  -1.451   5.854   8.266  1.1627 -0.2461  0.5882
  194MOL0     C26097  -1.416   5.698   8.292  0.1105  0.0718 -0.9002
  194MOL0     C26098  -1.522   5.598   8.257 -0.5359 -0.7333 -0.2934
  194MOL0     C26099  -1.556   5.523   8.385  0.4635  0.7269 -0.0008
  194MOL0    Cl26100  -1.658   5.390   8.340  0.2902 -0.5669  0.4924
  194MOL0     C26101  -0.913   6.086   8.367  0.4422  0.2379 -1.1854
  194MOL0     C26102  -0.783   6.043   8.365 -0.3246 -0.3884  0.4005
  194MOL0     O26103  -0.575   6.024   8.110 -0.6563 -0.3861 -0.0985
  194MOL0     C26104  -0.304   6.033   8.058 -0.3759  0.3903  0.2588
  194MOL0     C26105  -0.162   6.042   8.036 -0.5472  1.0817  0.1215
  194MOL0     N26106   0.575   6.260   7.737  0.7161 -0.6538 -0.5068
  194MOL0     N26107   0.633   6.349   7.670  0.2393  0.9164 -1.2599
  194MOL0     C26108   0.391   7.270   6.753  0.5845 -0.1387  0.6553
  194MOL0     C26109   0.363   7.313   6.620 -1.0236  0.1228 -0.5134
  194MOL0     C26110   0.496   7.330   6.185 -0.4416 -0.1346  0.1409
  194MOL0     C26111   0.606   7.315   6.087  0.4089 -0.2133 -0.0861
  194MOL0     C26112   0.576   7.312   5.946  0.2419  0.4675 -0.4603
  194MOL0     C26113   0.446   7.350   5.903  0.1600  0.0627 -1.1595
  194MOL0     O26114   0.414   7.367   5.772 -0.7998 -0.7438 -0.6268
  194MOL0     C26115   0.450   7.497   5.724  0.4249  0.7174 -1.3360
  194MOL0     C26116   0.356   7.555   5.613 -0.6440  0.5536  0.3592
  194MOL0     C26117   0.211   7.522   5.647 -0.3077  0.3486  0.1333
  194MOL0     C26118   0.121   7.554   5.533 -1.1551  0.0839  0.5346
  194MOL0     C26119   0.111   7.689   5.485  0.3288 -0.4512 -0.5001
  194MOL0     C26120   0.086   7.802   5.447 -0.5213 -0.9263  0.4069
  194MOL0     C26121   0.345   7.382   5.996  0.8570  0.7149 -0.1757
  194MOL0     C26122   0.371   7.367   6.135 -0.3293  0.5334  0.2368
  194MOL0     H26123   0.511   7.052   6.455  1.4581  4.7129 -3.3052
  194MOL0     H26124   0.537   6.972   6.683  1.8752  1.3071 -1.2352
  194MOL0     H26125   0.542   7.247   6.969  0.0545 -0.3646 -1.6690
  194MOL0     H26126   0.398   7.184   7.055  2.3690  1.6826  3.1180
  194MOL0     H26127   0.680   7.061   7.067  0.4631  1.0517 -0.5609
  194MOL0     H26128   0.589   7.166   7.190 -0.1822  1.2728 -1.2205
  194MOL0     H26129   0.429   6.987   7.221 -1.5222  1.6931 -2.9558
  194MOL0     H26130   0.477   6.905   7.082 -3.2793  1.5017  0.1885
  194MOL0     H26131   0.710   6.853   7.178  0.0383 -0.1995 -1.3227
  194MOL0     H26132   0.669   6.954   7.321 -1.8687  1.2984 -1.0453
  194MOL0     H26133   0.516   6.789   7.410 -1.1718 -1.8380 -1.0873
  194MOL0     H26134   0.540   6.695   7.266 -1.4008  3.4302 -1.2891
  194MOL0     H26135   0.756   6.628   7.312  0.3596 -0.3287  2.1864
  194MOL0     H26136   0.771   6.766   7.439 -1.3773  2.5642 -1.7824
  194MOL0     H26137   0.766   6.525   7.510  2.1787  1.9064 -0.6923
  194MOL0     H26138   0.672   6.660   7.592 -3.1209  0.3426 -0.6810
  194MOL0     H26139   0.570   6.455   7.389  3.7907 -1.3535  1.0070
  194MOL0     H26140   0.472   6.585   7.490  2.1167  1.8665  1.3720
  194MOL0     H26141   0.320   6.362   7.563  0.3804 -0.8146 -0.0053
  194MOL0     H26142   0.285   6.117   7.685  0.3710  0.8261 -0.9429
  194MOL0     H26143   0.377   6.107   7.836  1.3040 -2.1265 -3.1039
  194MOL0     H26144   0.190   6.348   7.770 -3.2190 -1.6030  0.1966
  194MOL0     H26145   0.285   6.314   7.912  2.6677 -0.2621 -1.5231
  194MOL0     H26146   0.044   6.165   7.801  1.5422  1.2105 -0.9213
  194MOL0     H26147   0.047   6.282   7.942 -0.1520  0.6055 -0.0694
  194MOL0     H26148   0.234   6.109   8.012 -0.7724  2.1659 -1.2771
  194MOL0     H26149   0.107   6.000   7.951 -2.0801  0.2348 -2.2076
  194MOL0     H26150  -0.083   6.225   8.304  0.2010  0.4542 -0.5866
  194MOL0     H26151  -0.400   6.288   8.364 -0.4615 -0.5155 -0.3843
  194MOL0     H26152  -0.361   6.127   8.452 -2.4110 -1.1203 -1.1507
  194MOL0     H26153  -0.242   6.254   8.444  1.7257 -1.4526 -1.4694
  194MOL0     H26154  -0.625   6.331   8.298  2.7447 -1.3239  6.1713
  194MOL0     H26155  -0.848   6.417   8.348 -0.4715 -0.5185  0.9912
  194MOL0     H26156  -1.156   6.100   8.437 -2.2618 -0.4826  0.2195
  194MOL0     H26157  -1.240   6.251   8.457  1.7548  3.8316 -1.0913
  194MOL0     H26158  -1.275   6.286   8.222  2.1114  0.5760 -2.2602
  194MOL0     H26159  -1.166   6.159   8.177  2.3591  0.5156  0.7826
  194MOL0     H26160  -1.391   6.072   8.153 -1.1599 -2.6401 -0.4135
  194MOL0     H26161  -1.422   6.113   8.326 -1.1162 -3.8828  1.2704
  194MOL0     H26162  -1.248   5.892   8.223  2.2059  4.0517 -1.0312
  194MOL0     H26163  -1.276   5.910   8.392  3.7820  1.5368 -1.3219
  194MOL0     H26164  -1.487   5.861   8.163 -1.0991 -4.1586  0.9155
  194MOL0     H26165  -1.533   5.895   8.326  2.4820 -0.8297  2.9229
  194MOL0     H26166  -1.326   5.668   8.237 -0.8218 -1.5289 -1.6214
  194MOL0     H26167  -1.382   5.692   8.396 -0.2330  3.0740 -0.5169
  194MOL0     H26168  -1.487   5.523   8.186 -0.1580  0.3748 -1.3165
  194MOL0     H26169  -1.612   5.652   8.226 -1.4245  1.5943  5.2663
  194MOL0     H26170  -1.610   5.593   8.450 -0.1503  1.8457 -1.6369
  194MOL0     H26171  -1.465   5.489   8.434 -0.6738  1.2975  2.7125
  194MOL0     H26172  -0.987   6.006   8.370 -1.7714  2.1980 -0.5222
  194MOL0     H26173  -0.756   5.938   8.356  0.6418 -0.2209  1.1122
  194MOL0     H26174  -0.358   5.990   7.973  0.7234 -0.9924  0.2167
  194MOL0     H26175  -0.124   6.012   7.938  1.5632  2.5217  0.4310
  194MOL0     H26176   0.367   7.338   6.833  2.2762  1.3755 -0.0641
  194MOL0     H26177   0.314   7.405   6.590  1.7185  0.8104 -3.3939
  194MOL0     H26178   0.703   7.277   6.117 -1.2703 -4.8381  0.2644
  194MOL0     H26179   0.656   7.296   5.874  1.5570  1.2521  0.7806
  194MOL0     H26180   0.445   7.569   5.806 -0.8379  0.1637 -0.8910
  194MOL0     H26181   0.548   7.494   5.676  2.3950  0.5383  2.3665
  194MOL0     H26182   0.388   7.517   5.516  3.4411 -2.0924  2.4603
  194MOL0     H26183   0.358   7.664   5.609 -1.3949  0.5678  0.2465
  194MOL0     H26184   0.176   7.577   5.735 -0.5283 -1.1513  1.0172
  194MOL0     H26185   0.187   7.419   5.675 -1.5804  0.5499 -0.1381
  194MOL0     H26186   0.018   7.534   5.563 -2.0951  0.9190 -1.9107
  194MOL0     H26187   0.149   7.477   5.461  1.0268 -0.2357  1.6269
  194MOL0     H26188   0.061   7.897   5.405  0.9364 -0.7324 -0.0754
  194MOL0     H26189   0.242   7.404   5.969  0.2106 -0.6794  1.0584
  194MOL0     H26190   0.286   7.395   6.197 -1.9560 -2.9993 -0.1367
  195MOL0     O26191   9.300   8.476   6.045 -0.2361 -0.2354  0.1813
  195MOL0     C26192   9.323   8.570   5.968 -0.4698 -0.6157  0.9076
  195MOL0     O26193   9.243   8.671   5.935 -0.0197 -0.7577 -0.5006
  195MOL0     C26194   9.113   8.655   5.987  0.0580 -0.6491 -0.5652
  195MOL0     C26195   9.077   8.663   6.120  0.2610  0.3294  0.4576
  195MOL0     C26196   8.947   8.635   6.167 -0.0087 -0.3695  1.1808
  195MOL0     C26197   8.849   8.615   6.067  0.5367 -0.2852  0.2444
  195MOL0     O26198   8.725   8.583   6.108  0.0041 -0.7784 -0.4710
  195MOL0     C26199   8.676   8.453   6.084  0.5527  0.2164 -0.0530
  195MOL0     C26200   8.764   8.368   6.175  0.6800 -0.3109  0.1206
  195MOL0     C26201   8.709   8.219   6.195 -0.6160 -0.3964 -0.0856
  195MOL0     C26202   8.832   8.134   6.232  0.2609  0.3126  1.2120
  195MOL0     C26203   8.808   7.979   6.248  0.4821  0.3184 -0.4396
  195MOL0     C26204   8.805   7.926   6.109 -0.3054  0.8661  0.0077
  195MOL0     C26205   8.723   7.795   6.088  0.2489  0.7846  0.2915
  195MOL0     C26206   8.765   7.676   6.183  0.7175  0.7170  0.2333
  195MOL0     N26207   8.740   7.541   6.128  0.3714  0.3041 -0.0185
  195MOL0     C26208   8.806   7.480   6.027 -1.0788 -1.1074  0.4582
  195MOL0     C26209   8.749   7.356   6.001  0.1332  0.4225 -0.1280
  195MOL0     C26210   8.787   7.247   5.898 -0.9010  0.9015  0.2904
  195MOL0     C26211   8.910   7.284   5.809  1.0154  0.4155  0.6359
  195MOL0     C26212   8.877   7.394   5.701  0.4073  0.3034  0.2994
  195MOL0     C26213   8.918   7.342   5.556  1.1897 -0.2072  0.2878
  195MOL0     O26214   8.799   7.336   5.470 -0.8393 -0.1436 -0.4061
  195MOL0     C26215   8.696   7.248   5.502  0.0592 -0.3993  0.1418
  195MOL0     C26216   8.572   7.275   5.434 -0.2601  0.1271  0.1384
  195MOL0     C26217   8.445   7.216   5.468  0.2522 -0.9047  0.5480
  195MOL0     C26218   8.332   7.276   5.394  0.7221 -0.1421 -0.6281
  195MOL0     C26219   8.437   7.113   5.564 -0.8559 -1.1764 -0.3020
  195MOL0     C26220   8.319   7.038   5.611  1.7185 -0.6884  0.9822
  195MOL0     O26221   8.305   6.897   5.590  0.4693  0.2808  0.6005
  195MOL0     C26222   8.185   6.835   5.614 -0.0752  0.0538 -0.3651
  195MOL0     C26223   8.110   6.768   5.512 -0.5166 -0.4273 -0.5268
  195MOL0     C26224   8.011   6.672   5.548 -0.6534 -0.8949  0.8357
  195MOL0     C26225   7.986   6.638   5.681 -0.3850  0.5211  0.5111
  195MOL0     O26226   7.908   6.527   5.691  0.7890  0.3277 -0.1699
  195MOL0     C26227   7.889   6.461   5.818  0.3304  1.0495 -0.7543
  195MOL0     C26228   7.792   6.343   5.809 -0.3776 -0.4217  0.5838
  195MOL0     C26229   7.819   6.253   5.680 -1.1086  0.0664 -0.3342
  195MOL0     C26230   7.692   6.182   5.639 -0.8330 -0.1173  0.1325
  195MOL0     C26231   7.606   6.269   5.558 -0.1331  0.1445 -0.2052
  195MOL0     C26232   7.465   6.223   5.555  0.1791 -0.0785 -0.6228
  195MOL0     C26233   7.395   6.236   5.692 -0.4435 -0.7863 -0.7772
  195MOL0     C26234   7.371   6.381   5.741  0.1642  0.6677 -0.1021
  195MOL0    Cl26235   7.291   6.478   5.619  0.2106  0.0168 -0.4820
  195MOL0     C26236   8.070   6.697   5.774  0.5039  0.7663 -0.7396
  195MOL0     C26237   8.166   6.792   5.748 -0.1454  0.5514 -0.0842
  195MOL0     O26238   8.231   7.112   5.649  0.2934  0.2442  0.4164
  195MOL0     C26239   8.564   7.074   5.608 -0.1597 -0.0841  0.3249
  195MOL0     C26240   8.683   7.139   5.589  0.0742 -0.6580  0.6996
  195MOL0     N26241   8.648   7.345   6.088 -1.1913 -0.5991 -0.2207
  195MOL0     N26242   8.642   7.457   6.164 -0.2842  0.3395 -0.3605
  195MOL0     C26243   8.875   8.626   5.932  0.4860 -0.0485 -0.7751
  195MOL0     C26244   9.006   8.636   5.901 -0.3956 -0.0404 -0.6639
  195MOL0     C26245   9.447   8.569   5.895  0.6339 -0.2801  0.0535
  195MOL0     C26246   9.451   8.608   5.760  0.4975  0.3842 -1.1547
  195MOL0     C26247   9.577   8.623   5.702  0.2090  0.1616 -0.4195
  195MOL0     C26248   9.699   8.607   5.777 -0.5800 -0.5892 -0.9379
  195MOL0     O26249   9.831   8.610   5.717  0.0452 -0.2849 -0.0706
  195MOL0     C26250   9.853   8.681   5.589  0.7435 -0.7576 -0.2816
  195MOL0     C26251   9.874   8.565   5.496  0.3837 -0.4238 -0.0938
  195MOL0     C26252  10.009   8.492   5.532 -0.2330  0.9805 -0.1015
  195MOL0     C26253  10.040   8.367   5.450  0.3073 -0.4881  0.7179
  195MOL0     C26254  10.049   8.404   5.306 -0.3349 -0.0871 -0.6724
  195MOL0     C26255  10.069   8.423   5.192  0.9351 -0.1921  0.6497
  195MOL0     C26256   9.693   8.578   5.917 -0.0336  0.2573 -0.3280
  195MOL0     C26257   9.564   8.561   5.972 -1.2489 -0.3912 -0.1710
  195MOL0     H26258   9.159   8.685   6.187  1.4190  1.1318 -1.1499
  195MOL0     H26259   8.909   8.636   6.268 -4.1642 -0.3820 -0.2014
  195MOL0     H26260   8.571   8.454   6.112  1.2583  1.4721  2.9325
  195MOL0     H26261   8.685   8.425   5.978  0.5604  1.3984 -0.3772
  195MOL0     H26262   8.865   8.367   6.134 -0.0554 -0.1721 -1.7506
  195MOL0     H26263   8.760   8.420   6.272  0.6405 -1.1850  0.6030
  195MOL0     H26264   8.641   8.215   6.281  0.3108 -0.4319  0.6676
  195MOL0     H26265   8.671   8.181   6.100 -0.4784  1.0780 -0.7629
  195MOL0     H26266   8.919   8.151   6.168  1.3646 -0.9793  2.2991
  195MOL0     H26267   8.857   8.166   6.334 -1.3776  2.9840  0.8846
  195MOL0     H26268   8.882   7.920   6.303  1.1513  1.0325 -0.5496
  195MOL0     H26269   8.715   7.949   6.297  0.3450  3.6558  1.6497
  195MOL0     H26270   8.748   7.991   6.043 -0.8260 -0.8184 -1.2698
  195MOL0     H26271   8.909   7.901   6.085 -0.8346 -2.6759  0.8347
  195MOL0     H26272   8.616   7.812   6.096  0.1712 -0.5870  3.8954
  195MOL0     H26273   8.734   7.767   5.983 -1.2348  0.1299  0.2927
  195MOL0     H26274   8.715   7.682   6.280  1.6369 -1.2927  0.8826
  195MOL0     H26275   8.872   7.689   6.201  0.5870  1.4613  0.4945
  195MOL0     H26276   8.886   7.525   5.970 -1.9608  1.0618  0.8542
  195MOL0     H26277   8.832   7.170   5.961  0.8082 -0.0029 -1.9076
  195MOL0     H26278   8.695   7.215   5.849 -1.4621  0.9731  1.2621
  195MOL0     H26279   8.943   7.195   5.753  2.8748  1.4825 -0.0694
  195MOL0     H26280   8.996   7.316   5.869 -0.2595  2.3578  1.4955
  195MOL0     H26281   8.928   7.486   5.730  2.1223 -0.6050  0.2836
  195MOL0     H26282   8.769   7.407   5.714  0.2605 -0.2574 -0.2954
  195MOL0     H26283   8.985   7.257   5.545  3.4416  1.3382  1.1510
  195MOL0     H26284   8.975   7.421   5.505  1.8937 -0.9719 -0.1399
  195MOL0     H26285   8.558   7.353   5.360 -2.8153 -1.5312 -1.3044
  195MOL0     H26286   8.234   7.231   5.415  0.5171  0.3796 -0.4331
  195MOL0     H26287   8.317   7.384   5.397  0.6045 -0.1752  0.2210
  195MOL0     H26288   8.342   7.254   5.287 -1.2599  0.9539 -1.1011
  195MOL0     H26289   8.138   6.769   5.407 -2.4301 -0.6406 -1.0853
  195MOL0     H26290   7.963   6.617   5.468 -0.5870 -0.6663  0.6359
  195MOL0     H26291   7.975   6.441   5.883  0.0646  1.8199 -0.1462
  195MOL0     H26292   7.831   6.522   5.887  0.3455  0.2741 -0.0392
  195MOL0     H26293   7.792   6.279   5.897  0.8687 -0.0429  0.8896
  195MOL0     H26294   7.688   6.375   5.810 -1.0804 -2.3290 -1.7096
  195MOL0     H26295   7.897   6.176   5.682 -1.2108 -0.2818 -3.4663
  195MOL0     H26296   7.850   6.328   5.607  0.1498 -1.0210 -0.9584
  195MOL0     H26297   7.709   6.094   5.576 -0.7990  2.2224 -3.3700
  195MOL0     H26298   7.660   6.149   5.739 -0.0959 -3.9980 -0.7278
  195MOL0     H26299   7.647   6.285   5.457  1.2266  2.3788  0.6122
  195MOL0     H26300   7.603   6.370   5.600 -2.3406 -0.4310  1.1471
  195MOL0     H26301   7.411   6.298   5.497  2.6492  1.4234 -1.1169
  195MOL0     H26302   7.451   6.126   5.505 -4.3081  0.5766 -1.0332
  195MOL0     H26303   7.450   6.172   5.762  1.7152 -0.1264 -1.8019
  195MOL0     H26304   7.295   6.190   5.686 -0.9009  0.1188 -0.3102
  195MOL0     H26305   7.467   6.422   5.775  2.0745 -1.3578 -2.7040
  195MOL0     H26306   7.315   6.375   5.835  0.3322  2.0693  0.1199
  195MOL0     H26307   8.075   6.665   5.878  4.1297 -0.4311 -1.1509
  195MOL0     H26308   8.249   6.825   5.809  3.0340 -1.2990 -3.0625
  195MOL0     H26309   8.571   6.983   5.668  2.0982 -0.9766 -1.1654
  195MOL0     H26310   8.779   7.119   5.634  0.6567  0.8051  0.1750
  195MOL0     H26311   8.790   8.611   5.866  0.3627 -3.1942 -0.0258
  195MOL0     H26312   9.033   8.628   5.796  5.8623 -2.5617  0.7007
  195MOL0     H26313   9.361   8.621   5.701 -0.6133 -0.3284  0.3223
  195MOL0     H26314   9.587   8.653   5.598  2.3812 -0.3335 -0.4077
  195MOL0     H26315   9.765   8.739   5.559  1.0999 -0.1531 -0.1809
  195MOL0     H26316   9.938   8.750   5.597 -0.0263  0.0745  1.0175
  195MOL0     H26317   9.902   8.601   5.396  2.4807 -0.7597  0.3313
  195MOL0     H26318   9.798   8.487   5.483  2.2090 -2.0815 -1.4685
  195MOL0     H26319   9.999   8.467   5.638  1.9483  1.2272  0.2085
  195MOL0     H26320  10.082   8.573   5.527  1.3476 -0.4199 -0.3772
  195MOL0     H26321   9.960   8.294   5.468  0.6971 -0.4878  2.6408
  195MOL0     H26322  10.134   8.324   5.485  1.0063  0.9998  0.7577
  195MOL0     H26323  10.085   8.449   5.090 -4.9751  0.8000 -0.3603
  195MOL0     H26324   9.771   8.570   5.992 -1.5482  2.9384  1.7355
  195MOL0     H26325   9.575   8.553   6.079 -1.2571 -1.8319 -0.2562
  196MOL0     O26326   0.474   5.915  11.453 -0.6077 -0.1165 -0.3277
  196MOL0     C26327   0.518   5.986  11.367  0.2964 -0.2277  0.2105
  196MOL0     O26328   0.611   5.953  11.279 -0.5084 -0.8622  0.0322
  196MOL0     C26329   0.669   5.835  11.258 -0.4194  0.2480  0.0552
  196MOL0     C26330   0.677   5.730  11.342  0.4463  0.2479 -0.0036
  196MOL0     C26331   0.742   5.612  11.309  0.3605  1.0038  0.2236
  196MOL0     C26332   0.791   5.592  11.181  0.1507  0.5907  0.0822
  196MOL0     O26333   0.846   5.472  11.149  0.2294  0.1525 -0.3447
  196MOL0     C26334   0.746   5.375  11.120 -1.1567 -0.5113  0.5409
  196MOL0     C26335   0.757   5.268  11.233  0.1989 -0.2473  0.2664
  196MOL0     C26336   0.902   5.230  11.276 -0.0110  0.5425 -0.2027
  196MOL0     C26337   0.971   5.120  11.187 -1.0027  0.4433 -0.0231
  196MOL0     C26338   1.114   5.091  11.223 -0.6817 -0.6829  0.5312
  196MOL0     C26339   1.126   5.026  11.359 -0.6957  0.2283 -0.2485
  196MOL0     C26340   1.277   5.023  11.395  0.2199  0.2730 -0.2370
  196MOL0     C26341   1.313   4.916  11.498  0.7734  0.2498 -0.2076
  196MOL0     N26342   1.452   4.882  11.507 -0.9380 -0.4516  1.0737
  196MOL0     C26343   1.516   4.861  11.626 -0.4990  0.1670 -0.3891
  196MOL0     C26344   1.648   4.866  11.594  0.9997  0.7050  0.5662
  196MOL0     C26345   1.757   4.861  11.706  0.2919  0.6350 -0.5788
  196MOL0     C26346   1.883   4.786  11.650  0.6499 -0.7755 -0.0657
  196MOL0     C26347   2.002   4.889  11.607  0.1887 -0.5338 -0.3032
  196MOL0     C26348   2.108   4.830  11.516 -0.7075 -0.8059  0.1550
  196MOL0     O26349   2.202   4.933  11.522 -0.0441  0.0179 -0.1081
  196MOL0     C26350   2.294   4.930  11.418 -0.0354 -1.3248 -0.0944
  196MOL0     C26351   2.371   5.045  11.386 -0.5917  0.1236  0.6823
  196MOL0     C26352   2.460   5.052  11.287  0.5708 -0.0387 -0.1075
  196MOL0     C26353   2.531   5.176  11.277 -0.4611 -0.7632  0.3220
  196MOL0     C26354   2.492   4.941  11.215 -0.1304 -0.2017  0.2421
  196MOL0     C26355   2.591   4.936  11.103 -0.0309  0.2372  0.3391
  196MOL0     O26356   2.640   4.813  11.074  0.3060 -0.2690  0.4477
  196MOL0     C26357   2.728   4.800  10.967  0.2577  0.7645 -0.5518
  196MOL0     C26358   2.695   4.825  10.838 -0.7163 -0.5031 -0.3526
  196MOL0     C26359   2.777   4.794  10.729 -0.1668 -0.0016 -0.0260
  196MOL0     C26360   2.901   4.745  10.756 -0.2924  0.5845 -1.7124
  196MOL0     O26361   2.999   4.735  10.664  0.0898 -0.2058 -0.3114
  196MOL0     C26362   2.966   4.657  10.545 -0.0438  0.8370 -0.7272
  196MOL0     C26363   3.101   4.594  10.512  1.0875  0.1773 -0.2074
  196MOL0     C26364   3.098   4.470  10.431 -0.8685  0.6044 -1.5499
  196MOL0     C26365   3.232   4.450  10.363 -0.4459 -0.3273  0.8170
  196MOL0     C26366   3.216   4.402  10.215 -0.0375  0.2942 -0.0841
  196MOL0     C26367   3.371   4.363  10.178 -0.1075  0.1141 -0.1361
  196MOL0     C26368   3.377   4.315  10.035  0.1271  0.4660 -0.1000
  196MOL0     C26369   3.529   4.299   9.983  0.4555 -0.3473 -0.7218
  196MOL0    Cl26370   3.602   4.454  10.004  0.1118  0.2538  0.2762
  196MOL0     C26371   2.939   4.715  10.888  0.4382 -0.3232  0.2000
  196MOL0     C26372   2.852   4.741  10.991  0.4347  0.1798 -0.1775
  196MOL0     O26373   2.607   5.038  11.038 -1.1180 -0.3422  0.0869
  196MOL0     C26374   2.436   4.812  11.255 -0.7157 -0.9033  0.3013
  196MOL0     C26375   2.330   4.808  11.352 -0.2041 -0.2178  0.7832
  196MOL0     N26376   1.656   4.870  11.457 -0.9975 -0.1207  0.6994
  196MOL0     N26377   1.540   4.875  11.398  0.5453 -0.4374 -0.1346
  196MOL0     C26378   0.777   5.690  11.090  0.3508  0.6541  0.1793
  196MOL0     C26379   0.709   5.812  11.125  0.1788  0.2049  0.3748
  196MOL0     C26380   0.461   6.122  11.360 -0.3951  0.0061  0.0877
  196MOL0     C26381   0.341   6.161  11.423 -0.1376 -0.5811 -0.4236
  196MOL0     C26382   0.281   6.286  11.404  0.2471  0.0030  0.1413
  196MOL0     C26383   0.349   6.383  11.330  0.8071  0.0373 -0.8848
  196MOL0     O26384   0.304   6.503  11.320 -0.5500  0.2561 -0.0786
  196MOL0     C26385   0.176   6.529  11.263 -0.4757  0.3865  0.7455
  196MOL0     C26386   0.127   6.653  11.328  0.9125 -0.5342  0.1464
  196MOL0     C26387   0.009   6.723  11.278 -0.4295 -0.5167  1.0853
  196MOL0     C26388  -0.016   6.709  11.125 -0.8836  0.0165 -0.6882
  196MOL0     C26389  -0.102   6.824  11.104 -0.1450 -0.2203  0.5459
  196MOL0     C26390  -0.155   6.938  11.090  0.0005  0.8819 -1.1425
  196MOL0     C26391   0.471   6.356  11.266  0.0911  0.2513 -0.5389
  196MOL0     C26392   0.523   6.229  11.287 -0.6315  0.4098  0.6692
  196MOL0     H26393   0.649   5.742  11.446  1.0207  1.1846  0.0537
  196MOL0     H26394   0.746   5.524  11.371 -3.1562  1.7362  1.7092
  196MOL0     H26395   0.649   5.421  11.100 -0.1590  1.7376  0.6097
  196MOL0     H26396   0.773   5.321  11.028  3.7128  1.8350  0.2760
  196MOL0     H26397   0.702   5.304  11.321  1.9286  0.1305  1.2367
  196MOL0     H26398   0.705   5.178  11.196  0.9295 -1.7966  2.7304
  196MOL0     H26399   0.964   5.320  11.290  1.0528 -0.5099  2.7203
  196MOL0     H26400   0.901   5.181  11.374 -3.5290 -1.0625 -0.8889
  196MOL0     H26401   0.907   5.033  11.204 -0.9854  0.8779  2.8150
  196MOL0     H26402   0.963   5.159  11.085  1.5110 -0.7908 -0.7628
  196MOL0     H26403   1.158   5.015  11.157  3.2488 -0.8258  2.9464
  196MOL0     H26404   1.179   5.179  11.230 -1.2764 -0.2624  0.8272
  196MOL0     H26405   1.073   5.081  11.437 -3.6852 -0.9120 -1.3256
  196MOL0     H26406   1.083   4.926  11.359 -0.5576  0.1199  2.1793
  196MOL0     H26407   1.334   4.998  11.305  0.5774 -4.2108  0.9925
  196MOL0     H26408   1.304   5.121  11.436 -0.4793 -0.0174  0.9726
  196MOL0     H26409   1.266   4.819  11.483  0.4921 -0.4235  3.9035
  196MOL0     H26410   1.282   4.949  11.597  5.0708  0.8979  1.1632
  196MOL0     H26411   1.475   4.834  11.722  2.6652 -2.0428  0.5113
  196MOL0     H26412   1.779   4.966  11.732  0.4707  0.6722 -0.8739
  196MOL0     H26413   1.732   4.814  11.802  1.3636 -0.0673 -0.6259
  196MOL0     H26414   1.856   4.718  11.568 -1.0381  1.4384 -1.4936
  196MOL0     H26415   1.925   4.731  11.734  0.6079 -0.4617  0.1626
  196MOL0     H26416   2.055   4.903  11.701 -1.1018  0.2858  0.3309
  196MOL0     H26417   1.950   4.979  11.573 -0.7492  1.2034  4.8569
  196MOL0     H26418   2.076   4.824  11.412 -0.5147  2.1754 -0.1570
  196MOL0     H26419   2.151   4.739  11.560  1.8855  1.1378  1.9335
  196MOL0     H26420   2.351   5.140  11.435 -0.4066  1.3468 -1.4820
  196MOL0     H26421   2.524   5.249  11.359  0.2555  1.5791 -1.5996
  196MOL0     H26422   2.638   5.161  11.260 -0.3151 -1.6149  1.8413
  196MOL0     H26423   2.486   5.225  11.191 -0.2660 -0.9161  0.1334
  196MOL0     H26424   2.600   4.866  10.805 -0.3822  1.1622  0.6385
  196MOL0     H26425   2.763   4.828  10.626 -1.4208  2.8273  0.9731
  196MOL0     H26426   2.887   4.584  10.567 -0.4887  1.4444 -0.2590
  196MOL0     H26427   2.951   4.718  10.455  1.7590 -0.2172 -1.7971
  196MOL0     H26428   3.166   4.672  10.472  1.0336  0.9943  1.2224
  196MOL0     H26429   3.150   4.568  10.607  0.5265  1.0534  0.3370
  196MOL0     H26430   3.017   4.484  10.359 -0.7148 -1.1172 -2.1127
  196MOL0     H26431   3.079   4.383  10.494  0.2352  0.7483 -0.9925
  196MOL0     H26432   3.293   4.541  10.368  1.7583 -1.5799 -1.0583
  196MOL0     H26433   3.273   4.366  10.420  0.9636 -0.1402  0.1171
  196MOL0     H26434   3.177   4.485  10.156  0.6811  0.3993 -0.4268
  196MOL0     H26435   3.148   4.319  10.194  0.0674  0.3826 -0.8045
  196MOL0     H26436   3.431   4.452  10.194  1.3597 -0.7849 -0.4327
  196MOL0     H26437   3.403   4.276  10.236 -2.6387 -1.2117 -0.5630
  196MOL0     H26438   3.336   4.392   9.968 -2.4408  0.7104  1.6142
  196MOL0     H26439   3.327   4.223  10.004  3.4218 -2.3710  2.2142
  196MOL0     H26440   3.519   4.279   9.876  0.3691  2.8633 -1.4129
  196MOL0     H26441   3.574   4.210  10.030  0.7176 -0.7019 -1.6167
  196MOL0     H26442   3.039   4.677  10.902 -0.6022 -2.5434  2.4546
  196MOL0     H26443   2.873   4.730  11.097  0.1498  0.3518 -0.1013
  196MOL0     H26444   2.468   4.713  11.225 -2.9643 -1.3921 -0.6808
  196MOL0     H26445   2.302   4.708  11.383 -2.0343 -1.3733 -3.7557
  196MOL0     H26446   0.804   5.683  10.985 -1.5078  2.5401 -0.4965
  196MOL0     H26447   0.691   5.886  11.048  0.1406  0.4754  0.6427
  196MOL0     H26448   0.277   6.095  11.481 -1.6000 -0.1748 -1.5016
  196MOL0     H26449   0.182   6.311  11.440 -0.3486 -0.4322 -1.1242
  196MOL0     H26450   0.207   6.539  11.159  3.8886 -4.1727  1.2379
  196MOL0     H26451   0.097   6.452  11.263 -1.0756  0.9780  0.0091
  196MOL0     H26452   0.203   6.732  11.333 -1.1397  1.5388  0.3304
  196MOL0     H26453   0.115   6.628  11.433  1.4240  0.7742  0.5367
  196MOL0     H26454   0.039   6.827  11.296  0.5247 -0.4138 -0.8353
  196MOL0     H26455  -0.081   6.696  11.333 -1.6140 -0.1287 -0.5559
  196MOL0     H26456  -0.062   6.614  11.098  0.7413 -0.8955 -0.4047
  196MOL0     H26457   0.073   6.734  11.067 -2.7612  3.6691 -2.2792
  196MOL0     H26458  -0.213   7.029  11.089 -0.2927  0.6946 -1.7118
  196MOL0     H26459   0.515   6.440  11.213 -0.8017  0.8445 -0.3786
  196MOL0     H26460   0.616   6.220  11.232 -1.8336  1.0482 -1.5757
  197MOL0     O26461   8.253  11.236   6.844  0.4887  0.1685  0.0766
  197MOL0     C26462   8.233  11.334   6.769  0.2080  1.3018  0.1945
  197MOL0     O26463   8.169  11.324   6.640 -0.7270  0.2672 -0.6945
  197MOL0     C26464   8.111  11.207   6.597 -0.0393  0.5666 -0.6603
  197MOL0     C26465   7.974  11.199   6.581 -0.2431 -0.8085 -0.4484
  197MOL0     C26466   7.921  11.088   6.516 -0.1307  0.1415  0.0386
  197MOL0     C26467   7.999  10.970   6.486 -0.9912  0.1624  0.0304
  197MOL0     O26468   7.937  10.858   6.432 -0.1535  0.1208  0.1033
  197MOL0     C26469   8.008  10.737   6.422 -0.2396  0.1405  0.0121
  197MOL0     C26470   8.010  10.672   6.566 -0.4012  0.8509  0.6271
  197MOL0     C26471   7.870  10.679   6.634  0.5471 -0.1468 -0.6572
  197MOL0     C26472   7.849  10.584   6.759  0.2061 -0.9117 -0.8351
  197MOL0     C26473   7.743  10.640   6.840  0.8156  0.2440 -0.0506
  197MOL0     C26474   7.668  10.540   6.935  0.4009 -0.6398  0.8056
  197MOL0     C26475   7.526  10.588   6.951 -0.7684 -1.1822  0.7327
  197MOL0     C26476   7.447  10.493   7.041  1.0034  0.2940 -0.7977
  197MOL0     N26477   7.478  10.490   7.179  0.1780 -0.0883 -0.3876
  197MOL0     C26478   7.557  10.581   7.242  0.4037 -1.1670 -0.5599
  197MOL0     C26479   7.526  10.554   7.373  0.8103 -0.2363  1.1471
  197MOL0     C26480   7.544  10.647   7.491  0.2818  0.3350 -0.6449
  197MOL0     C26481   7.688  10.658   7.532 -0.0505 -0.7915 -0.4023
  197MOL0     C26482   7.737  10.708   7.667 -0.4480 -0.4483  0.0138
  197MOL0     C26483   7.667  10.835   7.715  0.2220  0.9705  0.0203
  197MOL0     O26484   7.721  10.894   7.832  0.4692  0.0230 -0.3829
  197MOL0     C26485   7.730  11.030   7.835 -0.6704  0.2125 -0.2583
  197MOL0     C26486   7.621  11.108   7.836  1.0695 -0.8523 -0.1113
  197MOL0     C26487   7.626  11.250   7.839  1.6187  0.0362  0.2732
  197MOL0     C26488   7.500  11.333   7.820 -0.3525  0.8128  0.9230
  197MOL0     C26489   7.751  11.309   7.858 -0.0623 -0.7647 -0.7061
  197MOL0     C26490   7.779  11.453   7.889 -0.8625  0.2385  0.9388
  197MOL0     O26491   7.909  11.495   7.889  0.2713 -0.5774  0.3069
  197MOL0     C26492   7.929  11.631   7.897 -0.3081 -0.1352 -0.2212
  197MOL0     C26493   7.927  11.692   8.025  0.4202 -0.2050  0.3657
  197MOL0     C26494   7.970  11.826   8.038 -0.1016  0.8462 -1.0765
  197MOL0     C26495   8.009  11.898   7.929  0.1038  0.4385 -0.5068
  197MOL0     O26496   8.064  12.024   7.944  0.1525  0.0413 -0.0203
  197MOL0     C26497   8.029  12.134   7.850 -0.1389  0.1541  0.5587
  197MOL0     C26498   8.152  12.195   7.783 -0.2975 -0.3707  0.4622
  197MOL0     C26499   8.265  12.239   7.886  0.6348 -0.0533 -0.0133
  197MOL0     C26500   8.383  12.325   7.825 -0.2562 -0.1771 -0.0776
  197MOL0     C26501   8.485  12.373   7.941 -0.1443  0.2179 -0.4899
  197MOL0     C26502   8.479  12.517   7.984  0.0083 -0.5440 -0.7670
  197MOL0     C26503   8.488  12.622   7.876  0.2659  0.2363  0.5870
  197MOL0     C26504   8.602  12.598   7.777  0.4458 -0.1857  0.0856
  197MOL0    Cl26505   8.768  12.598   7.848  0.0720  0.0617  0.1997
  197MOL0     C26506   8.010  11.841   7.806  0.8736  1.2946  0.6945
  197MOL0     C26507   7.972  11.700   7.789 -0.0642 -0.2286 -0.5746
  197MOL0     O26508   7.681  11.519   7.926 -0.5672  0.5022 -0.1099
  197MOL0     C26509   7.863  11.222   7.858  0.1005 -1.2117  0.8264
  197MOL0     C26510   7.858  11.081   7.852  1.1668  0.2608  1.4378
  197MOL0     N26511   7.461  10.433   7.391  0.1882  0.1822 -0.3713
  197MOL0     N26512   7.414  10.408   7.265  0.2100 -0.1609 -0.0697
  197MOL0     C26513   8.142  10.979   6.512  0.5286  0.1950 -0.2112
  197MOL0     C26514   8.195  11.102   6.565 -1.0037  0.7923  0.9179
  197MOL0     C26515   8.259  11.470   6.838 -0.0414 -0.6521 -0.2108
  197MOL0     C26516   8.320  11.480   6.963  0.6235  0.9679 -0.3223
  197MOL0     C26517   8.354  11.603   7.019  0.5513 -0.3719  0.4377
  197MOL0     C26518   8.330  11.723   6.963 -0.0859 -0.8240 -0.0025
  197MOL0     O26519   8.385  11.842   7.016  1.0023 -0.4145 -0.7256
  197MOL0     C26520   8.364  11.975   6.951 -0.3083  0.1091 -0.4688
  197MOL0     C26521   8.469  12.071   7.004 -0.1534  0.7622 -0.3529
  197MOL0     C26522   8.476  12.205   6.935 -0.4306 -0.0381  0.8134
  197MOL0     C26523   8.559  12.308   7.011 -0.2517  0.7017  0.6966
  197MOL0     C26524   8.703  12.268   7.030 -0.9597  0.0323  0.4717
  197MOL0     C26525   8.805  12.221   7.065  0.0021 -0.4656  0.1455
  197MOL0     C26526   8.256  11.716   6.840 -0.2727 -0.2560 -0.8067
  197MOL0     C26527   8.222  11.594   6.785  0.3809 -0.6162 -0.1465
  197MOL0     H26528   7.922  11.288   6.616  1.1332 -1.3313  3.3527
  197MOL0     H26529   7.815  11.062   6.512  0.5679 -3.1630 -0.0277
  197MOL0     H26530   7.943  10.681   6.355 -2.7668  0.2029  2.2280
  197MOL0     H26531   8.109  10.752   6.382 -0.6625  2.3479 -0.3707
  197MOL0     H26532   8.042  10.568   6.562  1.0573  1.3307 -1.1112
  197MOL0     H26533   8.089  10.720   6.624  0.6645  1.1483 -1.0264
  197MOL0     H26534   7.855  10.782   6.667 -1.0260 -0.5237 -0.1264
  197MOL0     H26535   7.795  10.658   6.557 -0.0983  2.0626 -0.7074
  197MOL0     H26536   7.818  10.482   6.734 -4.0515 -0.3137  0.9523
  197MOL0     H26537   7.944  10.571   6.812  1.5072  3.3324 -1.7545
  197MOL0     H26538   7.788  10.720   6.899 -2.3560  1.5185  0.8426
  197MOL0     H26539   7.668  10.692   6.779  1.1566 -1.9607 -2.5618
  197MOL0     H26540   7.659  10.436   6.902 -2.7071  0.2916 -1.8025
  197MOL0     H26541   7.720  10.547   7.031 -0.9123  3.7918  1.4098
  197MOL0     H26542   7.513  10.691   6.987 -0.6641  0.0624 -2.4792
  197MOL0     H26543   7.481  10.592   6.852 -0.4469  1.4021  0.6258
  197MOL0     H26544   7.442  10.393   6.996 -0.7334 -0.5544  1.1251
  197MOL0     H26545   7.340  10.517   7.041  0.5272 -1.3359 -3.9050
  197MOL0     H26546   7.620  10.660   7.202 -1.6722  0.2480 -1.1989
  197MOL0     H26547   7.504  10.747   7.474  0.2851  0.2194 -1.3557
  197MOL0     H26548   7.482  10.607   7.571 -0.0826  3.7275  0.9431
  197MOL0     H26549   7.723  10.725   7.453 -3.5266  1.8911  0.0427
  197MOL0     H26550   7.739  10.564   7.510  0.2888 -0.4353 -1.1650
  197MOL0     H26551   7.841  10.735   7.647 -0.0730 -1.9768 -0.1935
  197MOL0     H26552   7.752  10.632   7.743  0.9473 -1.5696 -1.3108
  197MOL0     H26553   7.563  10.803   7.730 -0.0544  2.6745  2.0443
  197MOL0     H26554   7.681  10.905   7.632  0.5693 -2.5569 -3.1840
  197MOL0     H26555   7.530  11.049   7.826  1.3878 -1.3488 -0.0625
  197MOL0     H26556   7.424  11.277   7.764  1.0454 -0.2711  0.0203
  197MOL0     H26557   7.473  11.355   7.924  1.9948  1.2550  1.4774
  197MOL0     H26558   7.507  11.424   7.761  2.6732  0.4784  0.6374
  197MOL0     H26559   7.891  11.632   8.108 -3.1703 -0.4157 -1.1670
  197MOL0     H26560   7.969  11.868   8.138  0.0354 -1.5222 -0.0205
  197MOL0     H26561   7.970  12.091   7.769  1.1626 -0.2970 -0.1712
  197MOL0     H26562   7.972  12.219   7.890  0.5237  2.5970 -3.1803
  197MOL0     H26563   8.189  12.115   7.718  0.7043 -0.2617  0.8840
  197MOL0     H26564   8.118  12.276   7.718 -1.0218  0.4414  1.8076
  197MOL0     H26565   8.299  12.146   7.931 -2.4511 -1.1093  0.3811
  197MOL0     H26566   8.217  12.304   7.959  1.8056  3.0777 -1.8056
  197MOL0     H26567   8.436  12.270   7.747 -4.0650  0.6438 -3.5509
  197MOL0     H26568   8.335  12.413   7.779  0.8435  1.3268  1.5040
  197MOL0     H26569   8.584  12.358   7.896  0.2344  1.5346 -0.1228
  197MOL0     H26570   8.484  12.303   8.025 -0.3886  3.0762  2.0620
  197MOL0     H26571   8.386  12.529   8.040 -0.0485  2.2049 -1.2953
  197MOL0     H26572   8.556  12.539   8.059 -0.1030  0.2951 -0.8841
  197MOL0     H26573   8.500  12.720   7.924  4.7796  1.4375 -2.2942
  197MOL0     H26574   8.401  12.635   7.812  1.2082  1.6962 -0.4700
  197MOL0     H26575   8.596  12.676   7.701  2.0764  2.0622  2.1089
  197MOL0     H26576   8.585  12.500   7.730 -3.1499  1.1942 -1.8400
  197MOL0     H26577   8.032  11.881   7.708 -4.2187  1.0817 -0.8087
  197MOL0     H26578   7.982  11.644   7.696 -1.0732 -0.4267 -0.5825
  197MOL0     H26579   7.959  11.267   7.880  0.4500 -1.1375 -0.7515
  197MOL0     H26580   7.947  11.022   7.871  1.5861  0.5187  0.3698
  197MOL0     H26581   8.201  10.891   6.489  0.3616  0.3745 -1.3636
  197MOL0     H26582   8.302  11.119   6.564 -0.7899 -0.1036 -2.2339
  197MOL0     H26583   8.368  11.400   7.020  3.6949  2.3681 -0.7649
  197MOL0     H26584   8.404  11.611   7.115  0.0444  1.3429  0.5859
  197MOL0     H26585   8.368  11.956   6.843 -0.9094 -1.9707 -0.1850
  197MOL0     H26586   8.265  12.008   6.983  0.4189  0.1428  1.9873
  197MOL0     H26587   8.569  12.026   7.005  0.2572  1.6193  0.9925
  197MOL0     H26588   8.445  12.088   7.110 -2.2631 -2.2780 -0.1912
  197MOL0     H26589   8.372  12.235   6.918 -0.9109 -1.8413  0.3217
  197MOL0     H26590   8.508  12.196   6.831 -3.8082  0.1705 -0.3643
  197MOL0     H26591   8.507  12.339   7.102 -1.8385 -0.4857  0.2599
  197MOL0     H26592   8.561  12.401   6.953  0.8223 -0.1801 -0.7576
  197MOL0     H26593   8.893  12.183   7.114  0.4837 -0.6712 -0.8676
  197MOL0     H26594   8.228  11.803   6.782 -3.0417 -1.5190 -1.5268
  197MOL0     H26595   8.167  11.591   6.692 -1.2607 -5.1828  0.7159
  198MOL0     O26596   1.181   9.456  10.870 -0.0209  0.2258  0.2513
  198MOL0     C26597   1.129   9.542  10.812  0.1053 -1.0067 -0.4040
  198MOL0     O26598   1.191   9.630  10.734  0.2966 -0.1309 -0.5400
  198MOL0     C26599   1.315   9.618  10.694  0.0417  0.2002 -0.4599
  198MOL0     C26600   1.415   9.520  10.723 -0.4626 -1.1288 -1.2811
  198MOL0     C26601   1.545   9.534  10.663 -0.1901  0.0183 -0.6963
  198MOL0     C26602   1.582   9.648  10.586  0.8004 -0.1582 -0.1970
  198MOL0     O26603   1.710   9.669  10.556 -0.1743  0.1002  0.4820
  198MOL0     C26604   1.813   9.611  10.633  0.0116  0.0937 -0.0914
  198MOL0     C26605   1.945   9.653  10.574 -0.7156  0.6538 -0.1408
  198MOL0     C26606   1.972   9.809  10.590 -0.9919  0.1672 -1.0063
  198MOL0     C26607   2.119   9.832  10.550 -0.3568  0.1651 -1.3447
  198MOL0     C26608   2.153   9.964  10.588  0.2236  0.0628 -0.6982
  198MOL0     C26609   2.280  10.021  10.536  0.5673 -0.5338  0.2801
  198MOL0     C26610   2.273  10.176  10.576  0.0804  0.4715 -0.1706
  198MOL0     C26611   2.288  10.182  10.729  0.0066 -0.3305 -0.2782
  198MOL0     N26612   2.383  10.295  10.775  0.0771 -0.4713  0.3190
  198MOL0     C26613   2.353  10.434  10.795  0.1554  0.5395 -0.2219
  198MOL0     C26614   2.468  10.493  10.828 -0.2798 -0.0662  1.1160
  198MOL0     C26615   2.491  10.645  10.839 -0.0540  0.1464 -0.3920
  198MOL0     C26616   2.445  10.738  10.712  0.2365 -0.6829 -0.2032
  198MOL0     C26617   2.532  10.712  10.587  0.3124  0.4771  1.3103
  198MOL0     C26618   2.479  10.774  10.465  0.0833  0.0711 -0.1289
  198MOL0     O26619   2.338  10.739  10.456  0.7224 -0.2548  0.4535
  198MOL0     C26620   2.302  10.616  10.399  0.3689  0.2417  0.1986
  198MOL0     C26621   2.378  10.509  10.343  0.5679  0.2512  0.0335
  198MOL0     C26622   2.320  10.394  10.289 -0.9342  1.3442 -0.3802
  198MOL0     C26623   2.413  10.288  10.234  0.8917  1.0152 -1.3101
  198MOL0     C26624   2.175  10.380  10.304  0.0305  0.3465 -0.0175
  198MOL0     C26625   2.110  10.252  10.269 -0.5253 -0.1185  0.3399
  198MOL0     O26626   2.003  10.222  10.337  0.1664  0.3645  0.1279
  198MOL0     C26627   1.924  10.110  10.319 -0.1848  0.0081  0.0354
  198MOL0     C26628   1.962   9.991  10.265 -1.2801  1.5984  1.0852
  198MOL0     C26629   1.871   9.887  10.257  0.2355 -0.5163 -0.1787
  198MOL0     C26630   1.737   9.904  10.295  0.0178 -0.5276 -0.0345
  198MOL0     O26631   1.644   9.801  10.294 -0.1964 -0.2565  0.5486
  198MOL0     C26632   1.659   9.697  10.187 -0.9057 -0.6335  0.0440
  198MOL0     C26633   1.544   9.594  10.200  0.0414 -0.2837 -0.4437
  198MOL0     C26634   1.410   9.662  10.202  0.2296  0.1386 -0.8347
  198MOL0     C26635   1.296   9.554  10.216  0.7155 -0.7924  0.2529
  198MOL0     C26636   1.160   9.625  10.219  0.0130  1.5140  0.6579
  198MOL0     C26637   1.040   9.533  10.263 -0.6185 -0.2067  0.3817
  198MOL0     C26638   1.017   9.541  10.403  0.1678  0.3259 -1.3578
  198MOL0     C26639   0.949   9.406  10.456  0.2114  0.0904 -0.9042
  198MOL0    Cl26640   0.783   9.363  10.386  0.5361  0.0532  0.6047
  198MOL0     C26641   1.691  10.030  10.334  0.0914 -0.2291 -0.0457
  198MOL0     C26642   1.789  10.133  10.343 -0.8536 -0.7339  0.0604
  198MOL0     O26643   2.147  10.182  10.173  0.3946 -0.0611  0.4390
  198MOL0     C26644   2.096  10.490  10.359 -0.1445  1.2952  0.8493
  198MOL0     C26645   2.161  10.604  10.399  0.7883 -0.2564 -0.0503
  198MOL0     N26646   2.565  10.398  10.819 -0.7087  0.1639  0.0986
  198MOL0     N26647   2.518  10.279  10.787  0.5683  0.2443  0.0263
  198MOL0     C26648   1.478   9.740  10.562 -1.4619  0.4860 -0.0901
  198MOL0     C26649   1.350   9.730  10.617  0.0152 -0.0974 -1.4681
  198MOL0     C26650   0.985   9.540  10.820  0.0976  0.1213  0.2004
  198MOL0     C26651   0.905   9.632  10.747  0.0171 -0.1338 -0.3029
  198MOL0     C26652   0.764   9.634  10.770 -0.9714  0.1096 -0.1980
  198MOL0     C26653   0.702   9.546  10.857 -0.4750 -0.4784  1.0478
  198MOL0     O26654   0.569   9.530  10.858  0.4533  0.1519  0.0648
  198MOL0     C26655   0.529   9.425  10.771  0.1328 -0.0710 -0.3299
  198MOL0     C26656   0.393   9.442  10.725  1.0995  0.0504 -0.1113
  198MOL0     C26657   0.286   9.474  10.836 -0.2662  0.1693  1.0572
  198MOL0     C26658   0.225   9.355  10.903  0.0047 -0.3069  0.0334
  198MOL0     C26659   0.168   9.394  11.035  0.5908 -0.0960  0.4060
  198MOL0     C26660   0.119   9.436  11.138 -0.4626 -0.1365  0.8871
  198MOL0     C26661   0.780   9.464  10.933  0.3604  1.3778 -0.9328
  198MOL0     C26662   0.918   9.459  10.915  0.0728 -0.2854  1.2053
  198MOL0     H26663   1.399   9.431  10.783 -1.0800 -0.2967 -0.1564
  198MOL0     H26664   1.611   9.448  10.680  0.7594  0.7343 -0.6731
  198MOL0     H26665   1.809   9.635  10.740  0.7560 -4.7561  1.2623
  198MOL0     H26666   1.822   9.502  10.623  1.5280  0.2968 -1.4146
  198MOL0     H26667   2.025   9.596  10.623 -2.4259 -1.3793  0.4088
  198MOL0     H26668   1.953   9.613  10.472 -1.3089 -1.2175  0.5081
  198MOL0     H26669   1.902   9.866  10.528 -2.0505 -1.3582 -1.2772
  198MOL0     H26670   1.961   9.822  10.698 -0.8326 -2.6917 -0.5824
  198MOL0     H26671   2.174   9.757  10.607 -3.1494  1.5168  3.7131
  198MOL0     H26672   2.128   9.833  10.441  0.7734  0.9602 -1.2581
  198MOL0     H26673   2.067  10.031  10.592 -0.1757 -0.4778  2.7164
  198MOL0     H26674   2.188   9.958  10.691  0.5868 -5.4498 -0.8466
  198MOL0     H26675   2.363   9.964  10.579  1.3176  2.0811  2.5992
  198MOL0     H26676   2.280  10.018  10.427  1.5402 -0.7177  0.2785
  198MOL0     H26677   2.361  10.229  10.537  2.1881 -2.1970  0.6882
  198MOL0     H26678   2.177  10.215  10.541 -2.0857 -1.4339  3.0798
  198MOL0     H26679   2.346  10.093  10.755  1.7991  1.1401  1.1125
  198MOL0     H26680   2.192  10.180  10.781 -1.3233 -0.3252 -2.5927
  198MOL0     H26681   2.257  10.484  10.794  0.1409  0.5119 -0.1769
  198MOL0     H26682   2.445  10.687  10.929  0.1050 -0.4975 -0.0020
  198MOL0     H26683   2.599  10.654  10.852 -0.0375 -0.8783  0.2946
  198MOL0     H26684   2.442  10.845  10.734 -2.7564 -0.6088 -0.5441
  198MOL0     H26685   2.337  10.719  10.703 -0.0024 -0.5415  1.7831
  198MOL0     H26686   2.535  10.605  10.563  2.7931  0.8329 -0.4423
  198MOL0     H26687   2.634  10.745  10.609  0.2923  1.2204  0.3570
  198MOL0     H26688   2.540  10.750  10.377  2.5639 -1.6008  1.9329
  198MOL0     H26689   2.488  10.883  10.475 -0.5276 -0.0455  2.0884
  198MOL0     H26690   2.483  10.535  10.335  0.7144 -0.9389 -3.2974
  198MOL0     H26691   2.518  10.320  10.227  3.0706 -4.5856  0.6584
  198MOL0     H26692   2.423  10.196  10.291  2.7302 -0.4214 -3.7074
  198MOL0     H26693   2.373  10.264  10.135 -2.4953 -0.6166  0.3065
  198MOL0     H26694   2.065   9.961  10.248 -1.5858  0.8897  0.4303
  198MOL0     H26695   1.913   9.794  10.221  1.6120 -0.5714  1.4037
  198MOL0     H26696   1.663   9.742  10.087  3.1023  3.8096  1.7799
  198MOL0     H26697   1.759   9.655  10.200 -1.0054 -0.7537  0.4221
  198MOL0     H26698   1.557   9.533  10.110 -0.9740  0.4423 -1.1011
  198MOL0     H26699   1.568   9.545  10.295  1.1292 -3.3666 -2.1814
  198MOL0     H26700   1.389   9.718  10.111 -4.8128  1.6405  0.8941
  198MOL0     H26701   1.395   9.733  10.284 -2.7904  2.4438 -3.1488
  198MOL0     H26702   1.283   9.484  10.133 -1.0502 -1.8231  1.3287
  198MOL0     H26703   1.308   9.498  10.309  1.1051  1.4116  1.5920
  198MOL0     H26704   1.154   9.659  10.115  1.3209  2.5903  0.9059
  198MOL0     H26705   1.169   9.714  10.283  1.2065  0.9262  1.3267
  198MOL0     H26706   0.952   9.574  10.212 -0.7491  3.9644  3.4695
  198MOL0     H26707   1.058   9.431  10.227 -1.3466 -0.8349  1.7290
  198MOL0     H26708   0.967   9.633  10.434  0.0829  0.9416 -3.2176
  198MOL0     H26709   1.117   9.547  10.448  0.5877  0.2667 -2.2771
  198MOL0     H26710   0.928   9.417  10.563  0.8294  0.1064 -0.7813
  198MOL0     H26711   1.010   9.316  10.444  0.5165 -0.0027  0.9687
  198MOL0     H26712   1.588  10.056  10.353 -0.7776 -0.8829 -3.3121
  198MOL0     H26713   1.764  10.236  10.364 -1.7428 -0.5730 -1.6368
  198MOL0     H26714   1.990  10.469  10.368  0.5950 -3.6576  1.2332
  198MOL0     H26715   2.106  10.691  10.432 -0.0017 -0.2023 -1.4339
  198MOL0     H26716   1.494   9.821  10.491 -2.0480  1.4485  0.8499
  198MOL0     H26717   1.282   9.814  10.603 -0.5914 -0.2768  0.1957
  198MOL0     H26718   0.953   9.708  10.687 -3.3235  3.1576  0.7996
  198MOL0     H26719   0.699   9.698  10.712 -1.0606 -0.5550 -0.8420
  198MOL0     H26720   0.604   9.432  10.692  3.1247  2.4628  2.4320
  198MOL0     H26721   0.525   9.334  10.832 -1.0197  1.3963  1.9491
  198MOL0     H26722   0.364   9.355  10.666 -0.0227 -0.2857  0.9165
  198MOL0     H26723   0.388   9.516  10.644 -1.5264 -2.2927 -2.2807
  198MOL0     H26724   0.206   9.531  10.789  0.6710 -0.4639 -1.4315
  198MOL0     H26725   0.337   9.541  10.907  0.9980  0.0759  0.2595
  198MOL0     H26726   0.311   9.290  10.923  1.1256  1.3187  0.6277
  198MOL0     H26727   0.153   9.302  10.839 -0.6491  0.7949 -0.1586
  198MOL0     H26728   0.076   9.469  11.231 -4.7188 -0.6784 -0.6807
  198MOL0     H26729   0.748   9.403  11.017  1.3564 -2.2889 -2.9855
  198MOL0     H26730   0.974   9.410  10.993 -1.9998 -2.1569  1.6059
  199MOL0     O26731   3.026   9.714   9.113  0.1823  0.2485 -0.1407
  199MOL0     C26732   2.978   9.790   9.031  0.8484 -0.0260  0.5874
  199MOL0     O26733   2.846   9.795   8.976  0.6224  0.6420 -0.0214
  199MOL0     C26734   2.756   9.695   9.016  0.4546 -0.4360 -0.7393
  199MOL0     C26735   2.777   9.563   8.996 -0.6445 -0.4164 -0.3619
  199MOL0     C26736   2.663   9.475   9.008 -1.0199  0.8753  0.1846
  199MOL0     C26737   2.536   9.519   9.060 -0.1570 -1.1759  1.1007
  199MOL0     O26738   2.438   9.422   9.068  0.1848 -0.6331 -0.1652
  199MOL0     C26739   2.309   9.455   9.128  0.0086 -0.0957  0.6702
  199MOL0     C26740   2.205   9.330   9.135 -0.9667 -0.4431  0.5907
  199MOL0     C26741   2.206   9.237   9.007  0.1122 -0.6876 -0.8026
  199MOL0     C26742   2.112   9.118   9.025  0.6633 -1.2748  0.1122
  199MOL0     C26743   2.061   9.060   8.893  0.7053  0.4837  0.2083
  199MOL0     C26744   1.922   9.110   8.859  0.5024  0.6866  0.1362
  199MOL0     C26745   1.865   9.049   8.727 -0.0851 -0.4832  0.0878
  199MOL0     C26746   1.713   9.075   8.701 -0.3891  0.5839 -0.5472
  199MOL0     N26747   1.689   9.212   8.648  0.2460 -0.4781  0.6139
  199MOL0     C26748   1.747   9.258   8.532 -0.2105 -0.8733  0.4265
  199MOL0     C26749   1.677   9.370   8.502 -0.6393  0.5467  0.3872
  199MOL0     C26750   1.700   9.451   8.379  0.2553 -0.0993  0.7761
  199MOL0     C26751   1.598   9.410   8.257 -0.1457 -0.7531 -0.0216
  199MOL0     C26752   1.594   9.517   8.160 -0.5292  0.0863  0.8590
  199MOL0     C26753   1.721   9.527   8.082  0.5144  0.4252  0.4842
  199MOL0     O26754   1.831   9.571   8.153 -0.6315  0.3235  0.6593
  199MOL0     C26755   1.874   9.697   8.160  0.0319 -0.5607 -0.2424
  199MOL0     C26756   1.824   9.809   8.091 -0.8799  0.3556 -0.6399
  199MOL0     C26757   1.872   9.941   8.114  0.0737 -0.1328 -0.6057
  199MOL0     C26758   1.809  10.053   8.038 -0.1437  0.6407  0.7581
  199MOL0     C26759   1.949   9.962   8.229 -0.3422  0.4988 -0.9004
  199MOL0     C26760   1.989  10.101   8.268 -0.9838 -0.1054 -1.1030
  199MOL0     O26761   2.006  10.198   8.173  0.5912 -0.5101  0.1217
  199MOL0     C26762   2.092  10.305   8.178 -0.1857  0.2620  0.0619
  199MOL0     C26763   2.198  10.346   8.264  0.3721  0.6417 -0.5120
  199MOL0     C26764   2.251  10.469   8.240 -0.8350 -1.4170 -0.4326
  199MOL0     C26765   2.196  10.558   8.154  0.1143  0.4779  0.5344
  199MOL0     O26766   2.242  10.686   8.139 -0.0442 -0.2428 -0.5557
  199MOL0     C26767   2.315  10.750   8.254 -0.6538 -0.0540  0.1163
  199MOL0     C26768   2.285  10.896   8.238  0.5324 -1.0328  0.5641
  199MOL0     C26769   2.337  10.990   8.355 -0.2127 -0.1897  0.2777
  199MOL0     C26770   2.348  11.139   8.327 -0.0605  0.6679 -0.1647
  199MOL0     C26771   2.365  11.220   8.466 -0.1853 -1.3058 -0.5860
  199MOL0     C26772   2.370  11.366   8.419 -0.3902 -0.1405  0.6704
  199MOL0     C26773   2.242  11.425   8.353 -0.1980  0.5082 -0.5101
  199MOL0     C26774   2.224  11.577   8.360  0.0847 -0.8955 -0.0848
  199MOL0    Cl26775   2.223  11.647   8.522 -0.0894 -0.3478  0.0265
  199MOL0     C26776   2.106  10.523   8.064 -0.6480  0.4900 -0.4021
  199MOL0     C26777   2.049  10.390   8.078 -0.7303  0.1252 -0.0751
  199MOL0     O26778   2.011  10.120   8.389 -0.3127  0.5627 -0.3075
  199MOL0     C26779   1.990   9.861   8.309  1.0362  0.0648  0.2965
  199MOL0     C26780   1.956   9.727   8.270 -1.1356  0.4749  0.1412
  199MOL0     N26781   1.582   9.390   8.596 -0.9475 -0.2441  0.1443
  199MOL0     N26782   1.591   9.297   8.678  0.9171  0.2057 -0.3734
  199MOL0     C26783   2.518   9.659   9.099  0.7185 -0.2418  0.0844
  199MOL0     C26784   2.632   9.746   9.074  0.0418  1.0403 -0.0719
  199MOL0     C26785   3.053   9.917   9.019  0.0923 -0.1559 -0.2748
  199MOL0     C26786   2.995  10.020   8.934 -0.8281  0.1671 -0.6661
  199MOL0     C26787   3.061  10.144   8.925 -0.2485 -1.0323 -0.9255
  199MOL0     C26788   3.181  10.162   9.001  0.6826 -0.0480  0.2996
  199MOL0     O26789   3.263  10.276   8.997 -0.1794  0.6585  0.2382
  199MOL0     C26790   3.208  10.399   8.949 -0.0584 -0.1742  0.2410
  199MOL0     C26791   3.232  10.440   8.805 -0.1093 -0.1127  0.7100
  199MOL0     C26792   3.223  10.591   8.786  0.0015  0.3278  0.4529
  199MOL0     C26793   3.271  10.628   8.651  0.3488  1.0742  0.2952
  199MOL0     C26794   3.314  10.762   8.654 -0.1950  0.4652  1.4521
  199MOL0     C26795   3.337  10.878   8.658  0.3585 -0.3423  0.5870
  199MOL0     C26796   3.238  10.057   9.060  0.2728 -0.1464 -1.0829
  199MOL0     C26797   3.175   9.937   9.083 -0.5440 -0.3324  1.1175
  199MOL0     H26798   2.863   9.520   8.946  0.0634  0.7099 -0.1483
  199MOL0     H26799   2.678   9.369   8.989 -1.4393  0.4412  2.0483
  199MOL0     H26800   2.305   9.481   9.234  1.0748 -0.5032  0.8206
  199MOL0     H26801   2.266   9.532   9.063 -0.0157 -1.0010 -0.4209
  199MOL0     H26802   2.225   9.264   9.219 -0.4774  1.3337  1.9185
  199MOL0     H26803   2.103   9.368   9.146 -0.5568  2.5724 -3.4202
  199MOL0     H26804   2.185   9.298   8.918  1.3268  0.4670 -0.3353
  199MOL0     H26805   2.307   9.206   8.976 -0.4453 -2.1141 -1.2776
  199MOL0     H26806   2.170   9.048   9.086  0.8124  0.0455  1.5597
  199MOL0     H26807   2.022   9.138   9.085  0.6771 -3.6588  1.0617
  199MOL0     H26808   2.127   9.088   8.811 -0.6320  0.9952 -0.7205
  199MOL0     H26809   2.055   8.952   8.902 -2.0807  0.6233  0.8091
  199MOL0     H26810   1.860   9.074   8.942  1.3066 -1.1915 -0.0304
  199MOL0     H26811   1.925   9.219   8.845 -2.6135  0.8295  0.0346
  199MOL0     H26812   1.918   9.084   8.638  0.9492 -2.1470 -0.0009
  199MOL0     H26813   1.890   8.942   8.729 -1.3943 -0.8598 -1.3559
  199MOL0     H26814   1.672   9.067   8.803 -0.0609  2.1286 -0.2712
  199MOL0     H26815   1.669   9.004   8.631  2.2357 -0.7332 -0.9983
  199MOL0     H26816   1.834   9.226   8.475 -1.1794 -0.4903 -1.3434
  199MOL0     H26817   1.680   9.553   8.413  0.0675  0.1890 -0.1597
  199MOL0     H26818   1.804   9.458   8.345 -0.6636 -1.5039 -2.7812
  199MOL0     H26819   1.502   9.424   8.307  1.8336 -0.5142  4.1519
  199MOL0     H26820   1.622   9.315   8.208 -2.1712 -1.0691 -0.4948
  199MOL0     H26821   1.568   9.616   8.199 -0.7002  2.0003 -3.5389
  199MOL0     H26822   1.515   9.497   8.086  0.1387  1.1859 -0.1804
  199MOL0     H26823   1.691   9.587   7.995 -2.5727 -2.1445 -0.4220
  199MOL0     H26824   1.745   9.432   8.033  0.5989 -1.0276  3.1787
  199MOL0     H26825   1.752   9.787   8.013  0.8635 -2.3986 -1.6214
  199MOL0     H26826   1.760  10.124   8.104  1.9636  0.8967  2.1640
  199MOL0     H26827   1.892  10.097   7.982  0.6422 -1.1454  0.4394
  199MOL0     H26828   1.740  10.029   7.957  3.7892  1.9635 -3.4531
  199MOL0     H26829   2.234  10.274   8.337 -1.8896 -3.8556 -3.3913
  199MOL0     H26830   2.345  10.507   8.277 -1.7535  0.8315 -0.2222
  199MOL0     H26831   2.280  10.720   8.353  2.9987  0.7038  1.8069
  199MOL0     H26832   2.424  10.738   8.250 -0.5515  1.0216 -3.2786
  199MOL0     H26833   2.324  10.929   8.141  0.7088 -0.7742  0.7213
  199MOL0     H26834   2.177  10.910   8.232  0.7458  0.3717 -0.6193
  199MOL0     H26835   2.434  10.946   8.381 -0.2055  0.8228  2.1213
  199MOL0     H26836   2.269  10.974   8.439 -2.0844  0.7230 -0.9946
  199MOL0     H26837   2.428  11.149   8.253  0.5515 -7.2069 -1.5159
  199MOL0     H26838   2.257  11.175   8.279  1.7197  1.5147 -3.2246
  199MOL0     H26839   2.463  11.189   8.503  0.3603  2.4828  1.6904
  199MOL0     H26840   2.283  11.194   8.533  1.0202  2.3276  2.7285
  199MOL0     H26841   2.397  11.427   8.506  1.2195  0.4601 -0.1940
  199MOL0     H26842   2.456  11.374   8.352  1.7334 -0.5715  3.1854
  199MOL0     H26843   2.155  11.384   8.405  0.8249  1.6441  2.3388
  199MOL0     H26844   2.251  11.397   8.248  5.3273  0.1244 -0.2172
  199MOL0     H26845   2.122  11.602   8.328  1.8873  1.3197 -5.0765
  199MOL0     H26846   2.291  11.638   8.299  0.9573  1.1240  2.7198
  199MOL0     H26847   2.059  10.585   7.988 -2.3623  2.2637  1.9778
  199MOL0     H26848   1.970  10.353   8.013  2.1170 -0.8631 -3.2627
  199MOL0     H26849   2.068   9.874   8.383  1.2909 -0.1285  0.0642
  199MOL0     H26850   1.991   9.643   8.330 -0.0106 -0.0924 -1.2687
  199MOL0     H26851   2.425   9.683   9.150 -1.0354 -3.1909 -1.4507
  199MOL0     H26852   2.631   9.850   9.104 -3.5436  0.4257  2.6419
  199MOL0     H26853   2.901  10.008   8.881  0.5920  0.8558 -3.5620
  199MOL0     H26854   3.026  10.234   8.876  2.0007  2.2528  2.8560
  199MOL0     H26855   3.101  10.396   8.969  0.1708  1.8919  2.1425
  199MOL0     H26856   3.259  10.479   9.003  0.3850  0.8762 -1.6374
  199MOL0     H26857   3.169  10.388   8.731  2.5031 -0.9770 -1.0631
  199MOL0     H26858   3.329  10.400   8.775  0.1334  2.2477 -2.0812
  199MOL0     H26859   3.290  10.640   8.857  1.9288 -2.3331  0.6254
  199MOL0     H26860   3.123  10.628   8.809  0.3127  3.0549 -1.9778
  199MOL0     H26861   3.179  10.622   8.592  0.6456 -0.1426 -0.0761
  199MOL0     H26862   3.342  10.551   8.619 -0.5431  0.1563  0.4708
  199MOL0     H26863   3.369  10.979   8.644  0.3970 -0.3694  0.4753
  199MOL0     H26864   3.330  10.091   9.104 -0.5705 -0.1483  0.7803
  199MOL0     H26865   3.232   9.861   9.135 -0.1288 -1.2310 -0.5882
  200MOL0     O26866   5.194   2.509   0.038 -0.7213 -0.0442 -0.5082
  200MOL0     C26867   5.181   2.426   0.129 -0.5116 -0.5908  0.1233
  200MOL0     O26868   5.235   2.436   0.260 -0.9405  0.9697  0.3671
  200MOL0     C26869   5.330   2.537   0.270  0.3277  0.5333 -0.9757
  200MOL0     C26870   5.464   2.523   0.223 -0.3366  0.3787 -0.1439
  200MOL0     C26871   5.555   2.629   0.252  0.1727 -0.1502 -1.6269
  200MOL0     C26872   5.516   2.744   0.318  0.5803  0.1391  0.4699
  200MOL0     O26873   5.608   2.847   0.338 -0.1995 -0.1658  0.4269
  200MOL0     C26874   5.693   2.835   0.455  0.0071 -0.1833  0.4486
  200MOL0     C26875   5.692   2.954   0.542  0.3390 -0.1348  0.2003
  200MOL0     C26876   5.561   2.985   0.622 -0.1527  0.4646 -0.0591
  200MOL0     C26877   5.574   2.904   0.756  0.6517 -0.0913 -0.5569
  200MOL0     C26878   5.447   2.899   0.837  1.4246  0.6789 -0.1640
  200MOL0     C26879   5.347   2.792   0.786  0.9732 -0.2860  0.7406
  200MOL0     C26880   5.396   2.643   0.791  0.6842  0.0409 -0.8583
  200MOL0     C26881   5.280   2.540   0.817  0.0770 -0.7885  0.5211
  200MOL0     N26882   5.163   2.551   0.724 -0.1955  0.4839 -0.3925
  200MOL0     C26883   5.135   2.508   0.594 -0.0771  0.0416 -0.2416
  200MOL0     C26884   5.004   2.545   0.568  0.8650 -0.1583  0.3177
  200MOL0     C26885   4.936   2.523   0.436 -0.9912 -0.3775  0.0889
  200MOL0     C26886   4.875   2.384   0.445  0.0798 -0.5560  0.7383
  200MOL0     C26887   4.792   2.356   0.321  0.5542  0.2506  0.3979
  200MOL0     C26888   4.733   2.216   0.327 -0.6891  0.0077  0.2110
  200MOL0     O26889   4.682   2.174   0.198 -0.3699 -0.0694 -0.0579
  200MOL0     C26890   4.584   2.073   0.203 -0.6989 -0.8258  0.5432
  200MOL0     C26891   4.570   1.969   0.296  0.4139 -0.3718  0.2504
  200MOL0     C26892   4.451   1.886   0.287  0.4015 -0.7286  0.0500
  200MOL0     C26893   4.431   1.780   0.389 -0.3410 -0.5901 -0.0553
  200MOL0     C26894   4.365   1.907   0.181  0.4260 -1.2215 -0.2623
  200MOL0     C26895   4.257   1.811   0.158 -0.0859 -0.4007  0.3397
  200MOL0     O26896   4.141   1.819   0.235 -0.4599  0.0282  0.8945
  200MOL0     C26897   4.045   1.710   0.236 -0.3877 -0.2863  0.8798
  200MOL0     C26898   3.968   1.680   0.346 -0.9219 -0.3812 -0.2434
  200MOL0     C26899   3.874   1.582   0.350  0.2645 -0.3503 -0.3423
  200MOL0     C26900   3.840   1.510   0.233 -0.3344  0.4782 -0.1233
  200MOL0     O26901   3.752   1.407   0.213 -0.3924 -0.6537 -1.3522
  200MOL0     C26902   3.686   1.349   0.329 -0.2219 -0.3436 -0.1781
  200MOL0     C26903   3.616   1.220   0.282 -0.5726  0.9836  1.8257
  200MOL0     C26904   3.537   1.147   0.390 -0.1305  0.2081 -0.5191
  200MOL0     C26905   3.450   1.239   0.476  0.1084  0.5400 -0.1570
  200MOL0     C26906   3.317   1.160   0.513 -0.1887  0.7192 -1.1432
  200MOL0     C26907   3.209   1.269   0.551  0.9462 -0.2694  0.0710
  200MOL0     C26908   3.154   1.340   0.429 -0.3612 -0.5409  0.4906
  200MOL0     C26909   3.024   1.417   0.454  0.7412  0.0493 -0.5088
  200MOL0    Cl26910   3.049   1.533   0.588  0.1077  0.1225  0.2183
  200MOL0     C26911   3.895   1.553   0.114 -0.0413  0.3959 -0.0700
  200MOL0     C26912   4.006   1.645   0.113  0.0933  0.0899  0.3732
  200MOL0     O26913   4.278   1.732   0.069 -0.3787  0.3407  0.3280
  200MOL0     C26914   4.393   2.005   0.080  0.0101  0.2551  0.2370
  200MOL0     C26915   4.504   2.086   0.089 -0.7222  1.5525 -0.3995
  200MOL0     N26916   4.962   2.609   0.681 -0.2758 -0.0090 -0.5641
  200MOL0     N26917   5.054   2.616   0.774 -0.0864  0.2355 -0.6695
  200MOL0     C26918   5.377   2.761   0.343 -0.0930 -1.2429 -0.2819
  200MOL0     C26919   5.294   2.663   0.319  0.4028  1.7233  0.5475
  200MOL0     C26920   5.097   2.303   0.107  0.2114  0.3003  0.0021
  200MOL0     C26921   5.104   2.190   0.184 -0.7211 -0.0691  0.3391
  200MOL0     C26922   5.019   2.082   0.163 -0.1116  0.7723  0.3520
  200MOL0     C26923   4.937   2.075   0.055  0.0241  0.5725 -0.5018
  200MOL0     O26924   4.871   1.960   0.049  0.5618  0.2753  0.1982
  200MOL0     C26925   4.792   1.919  -0.063 -0.3719  0.0391 -0.0534
  200MOL0     C26926   4.893   1.897  -0.184 -0.0720  0.0922 -0.1219
  200MOL0     C26927   4.971   1.773  -0.146  1.1413 -0.1158  0.2013
  200MOL0     C26928   5.031   1.720  -0.275 -0.3638 -0.8113  0.0804
  200MOL0     C26929   5.117   1.603  -0.244 -0.1632  0.3107  0.5598
  200MOL0     C26930   5.181   1.498  -0.230  0.7712  0.1202  0.0586
  200MOL0     C26931   4.920   2.189  -0.024  0.0709  0.6283  0.1170
  200MOL0     C26932   5.004   2.302  -0.003 -0.3709 -0.5165 -0.6788
  200MOL0     H26933   5.502   2.436   0.169  0.0264 -0.4004  1.3155
  200MOL0     H26934   5.660   2.607   0.235  0.1042 -2.2116  0.1492
  200MOL0     H26935   5.684   2.743   0.514  1.2234 -0.1305  0.7525
  200MOL0     H26936   5.794   2.823   0.413 -0.5096  0.2971 -0.9800
  200MOL0     H26937   5.765   2.931   0.620 -1.4835 -0.9144  1.7807
  200MOL0     H26938   5.725   3.045   0.492  2.9521 -0.8261  0.5332
  200MOL0     H26939   5.548   3.092   0.638 -0.1424  0.1976  2.0016
  200MOL0     H26940   5.474   2.950   0.565  0.9157 -1.2380 -0.7197
  200MOL0     H26941   5.605   2.801   0.737  2.4569  0.6155 -1.8262
  200MOL0     H26942   5.649   2.950   0.822 -1.2917  1.6463  0.5387
  200MOL0     H26943   5.461   2.855   0.936 -0.6414 -1.1713 -0.6337
  200MOL0     H26944   5.393   2.992   0.859 -1.6197 -0.7955 -0.9317
  200MOL0     H26945   5.247   2.800   0.829 -0.8098 -2.0728 -2.6330
  200MOL0     H26946   5.323   2.818   0.682 -1.0620 -1.9756  0.7211
  200MOL0     H26947   5.452   2.619   0.700  0.7259  1.3438 -1.1968
  200MOL0     H26948   5.462   2.633   0.877  0.9983 -3.1286 -1.3389
  200MOL0     H26949   5.252   2.565   0.920 -1.0108  1.5650 -0.2747
  200MOL0     H26950   5.307   2.434   0.817 -0.7013 -1.1115 -3.0999
  200MOL0     H26951   5.197   2.440   0.537 -0.0440 -4.4369  4.4288
  200MOL0     H26952   4.873   2.611   0.419  1.8031  1.6658 -0.5438
  200MOL0     H26953   5.010   2.540   0.357 -1.0523  0.8487  0.2765
  200MOL0     H26954   4.812   2.375   0.534 -2.8230  1.1731 -0.9710
  200MOL0     H26955   4.952   2.307   0.452  1.0273  0.2715 -0.1494
  200MOL0     H26956   4.846   2.363   0.226 -2.2819 -0.8454 -1.4590
  200MOL0     H26957   4.711   2.429   0.309  2.9599  2.9109 -0.7672
  200MOL0     H26958   4.650   2.218   0.398  0.2037 -1.1853  1.3306
  200MOL0     H26959   4.809   2.146   0.361 -1.7502 -1.4625 -0.3214
  200MOL0     H26960   4.655   1.946   0.361 -0.3903 -2.7348  0.5633
  200MOL0     H26961   4.503   1.797   0.470 -0.6834 -0.2444  0.1849
  200MOL0     H26962   4.333   1.790   0.438  0.8892 -1.6094  2.8674
  200MOL0     H26963   4.424   1.679   0.348 -0.5218 -1.0750  1.1092
  200MOL0     H26964   3.993   1.735   0.436 -1.4279 -2.5085  1.2859
  200MOL0     H26965   3.822   1.569   0.444  0.0233 -1.6512 -0.6373
  200MOL0     H26966   3.767   1.337   0.401  2.9856 -0.5427 -3.5452
  200MOL0     H26967   3.604   1.419   0.353  1.1331  1.0166  0.6492
  200MOL0     H26968   3.548   1.239   0.198 -2.4677  0.2354  3.1260
  200MOL0     H26969   3.696   1.157   0.242 -1.8472  0.1784  0.4286
  200MOL0     H26970   3.612   1.094   0.450  2.0844  2.5437 -1.0529
  200MOL0     H26971   3.471   1.071   0.346 -2.0301 -0.6093  3.2965
  200MOL0     H26972   3.519   1.253   0.560  2.0236 -2.5322 -1.0515
  200MOL0     H26973   3.439   1.333   0.422  2.6076  0.5901 -0.7303
  200MOL0     H26974   3.334   1.090   0.595  3.5213  0.2599 -2.1316
  200MOL0     H26975   3.273   1.085   0.447  0.1729 -1.0773  0.5476
  200MOL0     H26976   3.112   1.234   0.590 -0.4708  2.3426 -0.8386
  200MOL0     H26977   3.250   1.338   0.625  2.8410 -0.8645 -0.3790
  200MOL0     H26978   3.154   1.272   0.344  0.5929  1.4399 -1.1985
  200MOL0     H26979   3.228   1.417   0.407 -0.5942 -0.2578  0.6879
  200MOL0     H26980   2.946   1.345   0.480 -0.2411  1.4438  0.5522
  200MOL0     H26981   2.991   1.469   0.363 -0.7111  1.6029  0.8410
  200MOL0     H26982   3.859   1.515   0.019  1.2021 -0.3495 -0.2592
  200MOL0     H26983   4.048   1.663   0.015  0.9464 -1.1558  0.4941
  200MOL0     H26984   4.330   2.013  -0.008  0.0209  4.5630  0.3839
  200MOL0     H26985   4.544   2.155   0.016  1.6645  1.1196  0.3986
  200MOL0     H26986   5.342   2.857   0.380 -1.7678 -0.5263 -3.3441
  200MOL0     H26987   5.188   2.678   0.339 -0.3412 -1.5158 -0.4481
  200MOL0     H26988   5.185   2.193   0.256  0.1319 -1.3153 -0.5280
  200MOL0     H26989   5.034   1.998   0.229 -1.4155  0.4984  0.3237
  200MOL0     H26990   4.733   1.829  -0.041  1.6363 -0.6411  3.3174
  200MOL0     H26991   4.729   2.004  -0.090  2.6816  1.2525 -4.4147
  200MOL0     H26992   4.962   1.982  -0.193 -0.3992  0.3046 -0.7144
  200MOL0     H26993   4.844   1.886  -0.281 -0.3696 -0.0963  0.0453
  200MOL0     H26994   4.905   1.693  -0.112 -0.0678  0.3657 -0.9045
  200MOL0     H26995   5.036   1.804  -0.064 -0.7807  0.1827  1.6787
  200MOL0     H26996   5.074   1.806  -0.329 -0.1366  0.8309  2.6995
  200MOL0     H26997   4.952   1.685  -0.342 -0.2937 -0.8462  0.0166
  200MOL0     H26998   5.228   1.403  -0.214  0.6049  0.0999  0.4459
  200MOL0     H26999   4.847   2.190  -0.104  0.6356  0.8652 -0.3981
  200MOL0     H27000   4.998   2.383  -0.076 -1.4524 -0.1418 -0.1813
  201MOL0     O27001   6.200   3.996   5.227  0.0118 -0.3300  0.1471
  201MOL0     C27002   6.228   3.951   5.340 -0.9087 -0.0504 -0.2180
  201MOL0     O27003   6.216   4.027   5.457 -1.2151  0.5480 -0.0581
  201MOL0     C27004   6.137   4.134   5.454  1.1900  0.2520  0.3078
  201MOL0     C27005   6.181   4.246   5.387  0.1505 -0.8037  0.4187
  201MOL0     C27006   6.089   4.351   5.372 -0.1982  0.2916 -1.4118
  201MOL0     C27007   5.963   4.350   5.435  0.5429  0.4716  0.2941
  201MOL0     O27008   5.870   4.447   5.414  0.0015  0.2570  0.0055
  201MOL0     C27009   5.740   4.404   5.374  0.0941  0.3577 -0.2944
  201MOL0     C27010   5.664   4.532   5.328  0.1272  0.3654 -0.0498
  201MOL0     C27011   5.724   4.585   5.204  0.0338 -0.6387 -0.3804
  201MOL0     C27012   5.648   4.715   5.160  0.2449 -0.9261  0.3049
  201MOL0     C27013   5.705   4.773   5.030  0.1690  0.9486 -0.2704
  201MOL0     C27014   5.635   4.910   5.001 -0.0126  0.2685 -0.1090
  201MOL0     C27015   5.675   4.971   4.873  0.3089  0.6240 -0.4545
  201MOL0     C27016   5.599   4.907   4.760 -0.0514  0.4570  0.2990
  201MOL0     N27017   5.480   4.969   4.717  0.1656  0.0695  0.2227
  201MOL0     C27018   5.404   4.924   4.615 -0.6753 -0.3856  0.5939
  201MOL0     C27019   5.292   5.002   4.608  0.6453  0.3340  0.3733
  201MOL0     C27020   5.189   4.989   4.499 -0.8840 -0.5797  0.3867
  201MOL0     C27021   5.175   5.119   4.419 -0.4010 -1.0071 -0.1730
  201MOL0     C27022   5.039   5.185   4.453  0.2973  0.1760  0.7657
  201MOL0     C27023   5.021   5.323   4.390  0.0308  0.0517  0.0896
  201MOL0     O27024   4.925   5.389   4.478 -0.4070  0.1554 -0.4091
  201MOL0     C27025   4.794   5.386   4.441 -0.4314 -0.8183  0.7692
  201MOL0     C27026   4.708   5.432   4.537 -1.1624  0.5416  0.3310
  201MOL0     C27027   4.574   5.443   4.504 -0.4327  0.5551 -0.6414
  201MOL0     C27028   4.483   5.506   4.609  0.2166  0.1780  0.9144
  201MOL0     C27029   4.515   5.396   4.379 -0.9353 -0.9457  1.3336
  201MOL0     C27030   4.378   5.412   4.333 -0.0294  0.0326  0.2387
  201MOL0     O27031   4.333   5.326   4.223  0.2625 -0.2391  0.0446
  201MOL0     C27032   4.209   5.355   4.179 -0.3616 -0.6447 -0.8410
  201MOL0     C27033   4.188   5.481   4.109 -0.7008 -0.3146 -0.2723
  201MOL0     C27034   4.060   5.514   4.080  0.0703  0.0882  0.5354
  201MOL0     C27035   3.959   5.421   4.082  0.4770 -0.4497 -0.5685
  201MOL0     O27036   3.832   5.428   4.028  0.2045 -0.6986  0.1193
  201MOL0     C27037   3.806   5.524   3.923  0.1427 -0.5728  0.5183
  201MOL0     C27038   3.657   5.503   3.859  0.2733 -0.4956  0.4558
  201MOL0     C27039   3.644   5.377   3.772  0.5727  0.7378  0.1371
  201MOL0     C27040   3.738   5.377   3.656 -0.0588  0.9565 -0.1190
  201MOL0     C27041   3.702   5.251   3.566 -0.7427  0.8164 -0.1744
  201MOL0     C27042   3.630   5.279   3.440 -0.1050 -0.4897  0.3640
  201MOL0     C27043   3.640   5.156   3.351  0.0747  0.0151 -0.2377
  201MOL0     C27044   3.681   5.185   3.206 -1.0085 -0.0185  0.2541
  201MOL0    Cl27045   3.556   5.292   3.149 -0.2777  0.0688  0.2268
  201MOL0     C27046   3.983   5.296   4.142 -0.3611  0.6350 -0.6571
  201MOL0     C27047   4.107   5.262   4.191  0.4673  0.2288  0.3386
  201MOL0     O27048   4.305   5.484   4.400  0.7920  0.1783  0.7383
  201MOL0     C27049   4.605   5.337   4.287  0.0810 -0.3640 -0.5366
  201MOL0     C27050   4.738   5.335   4.323  0.8435  0.2277  0.3013
  201MOL0     N27051   5.297   5.090   4.717 -0.4993  0.0194  0.7906
  201MOL0     N27052   5.417   5.072   4.780  0.2684  0.5445 -0.0898
  201MOL0     C27053   5.930   4.242   5.523 -0.6053  0.7528 -0.1150
  201MOL0     C27054   6.015   4.130   5.525  0.2949  0.6646 -0.1916
  201MOL0     C27055   6.281   3.813   5.366  0.8739 -0.0434 -0.5610
  201MOL0     C27056   6.351   3.778   5.484  0.5873 -0.0532  0.1219
  201MOL0     C27057   6.386   3.644   5.499 -0.0749  0.2706 -0.5313
  201MOL0     C27058   6.348   3.546   5.412 -0.5678  0.3353  0.6730
  201MOL0     O27059   6.369   3.418   5.453 -1.0663  0.0270 -0.1192
  201MOL0     C27060   6.461   3.331   5.371 -0.0198 -0.4589  0.0257
  201MOL0     C27061   6.450   3.189   5.424  0.4066  1.1810  0.0328
  201MOL0     C27062   6.591   3.116   5.423 -0.2333 -0.6483 -0.6146
  201MOL0     C27063   6.693   3.149   5.537  0.1472 -0.2388  0.0365
  201MOL0     C27064   6.646   3.149   5.679 -0.1905 -0.5337  0.4490
  201MOL0     C27065   6.616   3.140   5.796  0.8687 -0.5207 -0.8132
  201MOL0     C27066   6.283   3.577   5.300  0.1466 -0.2833  0.9742
  201MOL0     C27067   6.247   3.712   5.272 -0.0545 -0.4088  0.2089
  201MOL0     H27068   6.274   4.244   5.332  0.5188  1.8372  0.8149
  201MOL0     H27069   6.119   4.437   5.312  1.6813  0.4300 -0.3609
  201MOL0     H27070   5.730   4.320   5.305  0.3212  1.1226 -1.2641
  201MOL0     H27071   5.690   4.360   5.461  0.8828 -1.7324 -0.8327
  201MOL0     H27072   5.560   4.511   5.301 -0.9034  3.9553  0.6210
  201MOL0     H27073   5.662   4.590   5.420  0.3667  0.1817  0.0742
  201MOL0     H27074   5.830   4.611   5.214 -0.2158  1.2708 -2.0498
  201MOL0     H27075   5.722   4.505   5.129 -3.8686 -1.6321  0.5423
  201MOL0     H27076   5.540   4.707   5.146  0.2922  1.1452 -2.0886
  201MOL0     H27077   5.661   4.786   5.242  0.4524  0.4638 -0.8824
  201MOL0     H27078   5.807   4.799   5.060 -1.0280  2.7671  2.6110
  201MOL0     H27079   5.710   4.691   4.958  2.7913 -1.1760  2.0851
  201MOL0     H27080   5.527   4.899   4.993 -0.1428  2.2050 -1.8328
  201MOL0     H27081   5.644   4.972   5.090 -1.4192  1.3274 -0.6788
  201MOL0     H27082   5.668   5.080   4.868 -0.1936  0.8563  3.1091
  201MOL0     H27083   5.780   4.941   4.862  0.4710  1.8106 -2.6119
  201MOL0     H27084   5.575   4.807   4.796  1.5999  0.5818  1.8734
  201MOL0     H27085   5.670   4.902   4.676  0.1785  0.4641  0.4908
  201MOL0     H27086   5.436   4.846   4.546  3.8163  3.4298 -2.2415
  201MOL0     H27087   5.216   4.910   4.428  0.5696  0.8154 -0.6919
  201MOL0     H27088   5.091   4.961   4.539 -1.8077  1.0976 -0.6119
  201MOL0     H27089   5.170   5.092   4.313 -2.2694  0.3026 -0.4608
  201MOL0     H27090   5.264   5.177   4.446 -0.3233 -1.9392  1.7292
  201MOL0     H27091   5.042   5.198   4.562  0.3327  0.4618  0.7327
  201MOL0     H27092   4.953   5.124   4.426  1.0408  0.1265 -1.7287
  201MOL0     H27093   5.002   5.322   4.283 -1.4633 -2.6572  0.2818
  201MOL0     H27094   5.116   5.372   4.411 -0.5085  0.3934  2.0059
  201MOL0     H27095   4.742   5.466   4.635 -1.7879 -1.4693  1.2910
  201MOL0     H27096   4.547   5.523   4.696  1.0668 -2.4055  0.8940
  201MOL0     H27097   4.444   5.602   4.574  2.2944  1.5400  2.1289
  201MOL0     H27098   4.399   5.438   4.627  0.2213  0.3585  1.6486
  201MOL0     H27099   4.275   5.544   4.089  0.0233 -0.4678  2.0934
  201MOL0     H27100   4.041   5.612   4.037 -2.9509  0.0211  1.5015
  201MOL0     H27101   3.814   5.627   3.961 -2.8075  0.2931 -0.9479
  201MOL0     H27102   3.876   5.519   3.839 -2.5867 -2.6177 -1.8188
  201MOL0     H27103   3.579   5.512   3.936  2.7882  2.0926  2.9225
  201MOL0     H27104   3.647   5.588   3.792 -0.1659  0.3648  1.5839
  201MOL0     H27105   3.544   5.383   3.729  1.7205  1.6855 -2.7289
  201MOL0     H27106   3.653   5.280   3.821  0.0654 -0.7627 -2.5450
  201MOL0     H27107   3.734   5.472   3.602  0.1216  0.5090 -0.9486
  201MOL0     H27108   3.841   5.371   3.692  0.1508 -4.7352 -0.7115
  201MOL0     H27109   3.642   5.184   3.628  1.2789  0.7348  1.8249
  201MOL0     H27110   3.799   5.207   3.541 -0.2900  2.2102 -1.0067
  201MOL0     H27111   3.524   5.308   3.447 -0.0653  0.5255 -2.3060
  201MOL0     H27112   3.675   5.366   3.391  2.8020 -1.1452  1.6495
  201MOL0     H27113   3.547   5.098   3.351  1.8957 -3.1439 -0.2543
  201MOL0     H27114   3.704   5.077   3.392  0.1562  1.0883  1.8786
  201MOL0     H27115   3.684   5.089   3.155  0.8690  0.0878  0.1020
  201MOL0     H27116   3.776   5.239   3.207 -0.9286 -0.1566 -0.0030
  201MOL0     H27117   3.909   5.216   4.146  0.5756 -0.2094  1.2893
  201MOL0     H27118   4.129   5.174   4.251  1.1517  2.7302  4.0999
  201MOL0     H27119   4.579   5.300   4.188 -0.9651  1.7900 -1.1379
  201MOL0     H27120   4.809   5.285   4.258  1.7405 -1.1144  2.1904
  201MOL0     H27121   5.829   4.236   5.561 -0.1628 -2.7534  0.8651
  201MOL0     H27122   5.987   4.043   5.582 -2.0223  2.1217  1.0569
  201MOL0     H27123   6.376   3.852   5.559 -2.4723  1.6765 -0.4252
  201MOL0     H27124   6.426   3.619   5.596 -3.5490  2.2027  1.6250
  201MOL0     H27125   6.446   3.342   5.263 -0.6357 -0.4099  0.1116
  201MOL0     H27126   6.564   3.366   5.369 -0.7534  2.1751 -3.8974
  201MOL0     H27127   6.389   3.125   5.360 -0.7944  0.2969  1.9727
  201MOL0     H27128   6.413   3.191   5.527 -1.0752 -1.7209 -0.3398
  201MOL0     H27129   6.637   3.110   5.324  0.0324  1.0436 -0.6232
  201MOL0     H27130   6.561   3.016   5.458 -0.8551  0.0060  0.8040
  201MOL0     H27131   6.731   3.249   5.515  0.9678  0.0879  2.5925
  201MOL0     H27132   6.781   3.085   5.530 -0.8340 -1.5968 -0.4293
  201MOL0     H27133   6.582   3.114   5.894  0.2667  0.3252 -0.7909
  201MOL0     H27134   6.252   3.496   5.234  1.2547 -0.6371  0.8655
  201MOL0     H27135   6.191   3.726   5.181 -0.2005 -0.5159  0.2808
  202MOL0     O27136   7.649   4.638   6.475  0.4085 -0.2558  0.4130
  202MOL0     C27137   7.586   4.653   6.584  0.3569  0.9003  0.2664
  202MOL0     O27138   7.630   4.624   6.699 -0.0813 -0.0272 -0.6555
  202MOL0     C27139   7.735   4.537   6.712  0.4358  0.0807 -0.1536
  202MOL0     C27140   7.856   4.577   6.766  0.2341 -0.2081 -0.2201
  202MOL0     C27141   7.962   4.477   6.789  0.1547 -0.3678  0.7488
  202MOL0     C27142   7.953   4.347   6.744 -0.1057 -0.5122 -0.0657
  202MOL0     O27143   8.059   4.265   6.786  0.1235  0.6870  0.3488
  202MOL0     C27144   8.054   4.129   6.724 -0.6369 -0.3760 -0.4439
  202MOL0     C27145   8.191   4.057   6.739 -0.3744  0.9145  0.0444
  202MOL0     C27146   8.234   4.035   6.882  0.3440  0.9957  0.0861
  202MOL0     C27147   8.358   3.940   6.878 -0.7878  0.7281  0.2230
  202MOL0     C27148   8.434   3.917   7.014 -0.0574 -1.0486 -0.4499
  202MOL0     C27149   8.338   3.844   7.111 -0.5701  0.2271  0.6657
  202MOL0     C27150   8.420   3.794   7.230 -0.6775 -0.6838 -0.3312
  202MOL0     C27151   8.330   3.714   7.309  0.6857 -0.3867  0.5684
  202MOL0     N27152   8.354   3.714   7.451 -0.2619 -0.5170 -0.3002
  202MOL0     C27153   8.396   3.827   7.522  0.1548  0.3357 -0.8517
  202MOL0     C27154   8.480   3.784   7.618 -0.4832  0.4803 -0.0230
  202MOL0     C27155   8.553   3.873   7.715  0.4438 -0.1731  0.3402
  202MOL0     C27156   8.521   3.870   7.866  0.4524  0.2192 -0.8055
  202MOL0     C27157   8.615   3.954   7.955  0.7059 -0.2233 -0.2880
  202MOL0     C27158   8.558   3.967   8.108  0.2757 -0.9212  0.0050
  202MOL0     O27159   8.548   3.840   8.171  0.8565 -0.5483 -0.0297
  202MOL0     C27160   8.443   3.823   8.258 -0.2701 -0.3827  0.6641
  202MOL0     C27161   8.374   3.922   8.331 -0.3459 -0.8097 -0.5589
  202MOL0     C27162   8.265   3.883   8.414 -0.7105  0.0403  0.2574
  202MOL0     C27163   8.208   3.990   8.496  0.3612  0.3010  0.1352
  202MOL0     C27164   8.222   3.751   8.425  0.4528 -0.0645 -0.0841
  202MOL0     C27165   8.104   3.709   8.502  0.1772 -1.5749  0.1018
  202MOL0     O27166   8.091   3.758   8.630 -0.0123  0.0478  1.2007
  202MOL0     C27167   7.970   3.773   8.689  1.0196 -1.2679 -0.6742
  202MOL0     C27168   7.961   3.763   8.837  0.6795  0.7444  0.4600
  202MOL0     C27169   7.835   3.774   8.899  0.2856 -0.5987 -0.5549
  202MOL0     C27170   7.724   3.807   8.817 -0.2632  0.1923  0.2552
  202MOL0     O27171   7.608   3.840   8.878  0.3943 -0.3267  0.7007
  202MOL0     C27172   7.588   3.974   8.902  0.1088  0.6757 -0.0040
  202MOL0     C27173   7.478   4.030   8.806 -0.2640 -1.0143 -0.1830
  202MOL0     C27174   7.446   4.183   8.825  0.3015  0.4258  0.3909
  202MOL0     C27175   7.359   4.246   8.720 -0.6637 -0.0446 -0.7301
  202MOL0     C27176   7.342   4.402   8.753  0.5053  0.6506  0.2344
  202MOL0     C27177   7.224   4.456   8.674 -0.1324 -0.2379 -0.7276
  202MOL0     C27178   7.209   4.603   8.677 -0.6137 -0.4568 -1.7462
  202MOL0     C27179   7.092   4.659   8.601 -0.4033 -0.0967 -0.2137
  202MOL0    Cl27180   6.934   4.611   8.666  0.1719  0.0698 -0.0528
  202MOL0     C27181   7.734   3.822   8.681  0.2389  0.2940  1.0111
  202MOL0     C27182   7.855   3.809   8.621 -0.6304 -0.0225 -0.2664
  202MOL0     O27183   8.045   3.611   8.456 -0.5849  0.2591 -0.2822
  202MOL0     C27184   8.298   3.650   8.358  0.2593 -0.6585  0.8743
  202MOL0     C27185   8.401   3.695   8.272 -0.8817 -0.1573 -0.1603
  202MOL0     N27186   8.482   3.645   7.608  0.4911  0.0074  0.3227
  202MOL0     N27187   8.407   3.604   7.508 -0.3530  1.2787 -0.1397
  202MOL0     C27188   7.837   4.320   6.673  0.6781  0.2408  0.5547
  202MOL0     C27189   7.727   4.409   6.657  1.2038 -0.5248 -0.2189
  202MOL0     C27190   7.460   4.721   6.580 -0.1591  0.6608 -0.1577
  202MOL0     C27191   7.410   4.782   6.462 -1.0670 -0.5305  0.3431
  202MOL0     C27192   7.281   4.834   6.462 -0.5154 -0.6630 -0.5118
  202MOL0     C27193   7.204   4.846   6.575 -1.0354  0.1601  0.3677
  202MOL0     O27194   7.079   4.893   6.559  0.6079 -0.2609  0.0383
  202MOL0     C27195   6.978   4.865   6.653  0.4688  0.5982  0.6326
  202MOL0     C27196   6.848   4.864   6.578  0.3585 -0.7033 -0.5508
  202MOL0     C27197   6.841   4.796   6.445 -0.1568  0.3255  0.2198
  202MOL0     C27198   6.692   4.796   6.394  0.7918  0.2819 -0.4357
  202MOL0     C27199   6.615   4.920   6.388 -0.1616 -0.4801  0.4949
  202MOL0     C27200   6.541   5.016   6.371  0.9135  0.1388  0.2798
  202MOL0     C27201   7.250   4.788   6.698  0.0896 -0.7779  0.1053
  202MOL0     C27202   7.375   4.733   6.694 -1.2177  0.2720  0.2032
  202MOL0     H27203   7.882   4.678   6.799 -0.1122 -0.2306  0.1174
  202MOL0     H27204   8.050   4.506   6.845  2.0372 -3.2309 -0.5081
  202MOL0     H27205   7.976   4.059   6.754  0.2707 -1.3987 -0.3771
  202MOL0     H27206   8.045   4.135   6.615  1.4839  4.3222 -0.6306
  202MOL0     H27207   8.197   3.962   6.685  5.0747  1.8688 -1.6013
  202MOL0     H27208   8.266   4.120   6.692 -0.5317  2.5541  1.8799
  202MOL0     H27209   8.270   4.132   6.918  2.0719  1.0694 -1.6996
  202MOL0     H27210   8.149   3.995   6.938  0.8754 -0.6181 -0.2237
  202MOL0     H27211   8.331   3.837   6.852  0.9922  0.6895 -1.7335
  202MOL0     H27212   8.424   3.965   6.794  1.5562 -3.5053  0.4992
  202MOL0     H27213   8.520   3.856   6.985 -0.3318 -1.4786 -0.3677
  202MOL0     H27214   8.478   4.011   7.047 -0.4911  0.3570 -3.5036
  202MOL0     H27215   8.260   3.913   7.145  1.0875  2.0088  0.9914
  202MOL0     H27216   8.300   3.752   7.067  1.0633 -1.4894  2.6219
  202MOL0     H27217   8.504   3.735   7.193 -0.9820 -2.4245  1.5795
  202MOL0     H27218   8.460   3.879   7.285 -0.4841 -1.3810  0.6326
  202MOL0     H27219   8.347   3.612   7.273  0.7650 -0.0265 -0.4360
  202MOL0     H27220   8.222   3.728   7.302  0.3503 -3.1747 -1.2981
  202MOL0     H27221   8.381   3.933   7.509  2.4660  0.5436 -2.5179
  202MOL0     H27222   8.656   3.836   7.716  0.5252 -0.0012  2.3197
  202MOL0     H27223   8.560   3.977   7.682 -0.4104  0.1982  1.3178
  202MOL0     H27224   8.507   3.766   7.897 -2.3947  1.0064  0.9502
  202MOL0     H27225   8.422   3.914   7.880  0.1874 -0.8125  0.8744
  202MOL0     H27226   8.634   4.055   7.917 -3.8238  0.8941 -0.0750
  202MOL0     H27227   8.707   3.897   7.973 -0.3806 -1.4422  1.7242
  202MOL0     H27228   8.461   4.018   8.106 -0.7633 -2.8072 -1.9831
  202MOL0     H27229   8.631   4.023   8.167 -0.2656 -0.8657  0.6298
  202MOL0     H27230   8.411   4.023   8.341  3.1075 -2.1238  2.4281
  202MOL0     H27231   8.103   3.987   8.467  1.4219  1.8308 -4.5921
  202MOL0     H27232   8.244   3.950   8.592 -0.6357 -1.3827 -0.1388
  202MOL0     H27233   8.235   4.092   8.469 -0.8350  1.3494  2.5705
  202MOL0     H27234   8.049   3.723   8.887  3.0907 -2.3817 -5.3713
  202MOL0     H27235   7.810   3.762   9.004 -1.7368 -3.3665 -1.2341
  202MOL0     H27236   7.555   3.979   9.006 -0.5222 -1.8740 -0.0435
  202MOL0     H27237   7.679   4.032   8.883  0.8385 -0.7023 -0.8459
  202MOL0     H27238   7.524   4.012   8.708 -0.1153  0.2010 -0.3546
  202MOL0     H27239   7.392   3.963   8.818 -1.9978  0.9296 -1.2740
  202MOL0     H27240   7.541   4.236   8.819  1.1409 -1.1235 -1.1649
  202MOL0     H27241   7.403   4.179   8.925 -0.4482 -0.1016  0.0632
  202MOL0     H27242   7.404   4.222   8.623 -2.6079 -2.4708 -1.1657
  202MOL0     H27243   7.259   4.201   8.720  0.0337 -1.6539 -0.4005
  202MOL0     H27244   7.436   4.457   8.735  0.7665  0.7247  1.6569
  202MOL0     H27245   7.317   4.426   8.857 -0.0410  3.9190 -0.5229
  202MOL0     H27246   7.241   4.431   8.569  1.0659 -1.4481 -0.2731
  202MOL0     H27247   7.131   4.403   8.698  0.5372 -2.2063 -2.2134
  202MOL0     H27248   7.293   4.652   8.627 -1.4685  2.8387 -0.2343
  202MOL0     H27249   7.206   4.637   8.781  3.2372 -1.5826 -1.1417
  202MOL0     H27250   7.107   4.617   8.502  0.9698  3.0559 -1.4722
  202MOL0     H27251   7.106   4.767   8.596 -0.8986 -0.0654 -1.0972
  202MOL0     H27252   7.650   3.849   8.618  0.3869  3.2350  1.9265
  202MOL0     H27253   7.862   3.820   8.513 -2.5965 -1.9363 -0.6565
  202MOL0     H27254   8.268   3.546   8.355 -0.6322 -0.4381 -2.5956
  202MOL0     H27255   8.455   3.618   8.218 -0.0249  0.2269  0.1430
  202MOL0     H27256   7.807   4.217   6.653 -2.4331  1.4565 -2.0576
  202MOL0     H27257   7.642   4.386   6.593  2.3963  1.9167 -2.9126
  202MOL0     H27258   7.467   4.801   6.372 -0.1975  0.4033  1.0630
  202MOL0     H27259   7.246   4.879   6.370  1.9856 -2.0008 -2.2140
  202MOL0     H27260   6.983   4.758   6.676 -4.5312 -0.1956 -0.8809
  202MOL0     H27261   6.974   4.926   6.743  1.2667 -1.3122  2.0263
  202MOL0     H27262   6.824   4.970   6.567  1.3387 -0.1531  1.9251
  202MOL0     H27263   6.766   4.831   6.642  2.3641 -0.3897  2.4123
  202MOL0     H27264   6.879   4.694   6.449  0.8289  0.6310 -0.9156
  202MOL0     H27265   6.896   4.855   6.371  2.2622  0.0592  1.7238
  202MOL0     H27266   6.633   4.743   6.470  0.5882  1.3083  0.1414
  202MOL0     H27267   6.680   4.759   6.292 -0.2371 -0.1950 -0.1555
  202MOL0     H27268   6.481   5.102   6.352  0.4069 -0.9829 -4.3130
  202MOL0     H27269   7.198   4.797   6.792  3.0614  1.7393  1.6886
  202MOL0     H27270   7.413   4.687   6.785 -0.3430 -0.3699 -0.4688
  203MOL0     O27271   2.382   3.527   8.450 -0.3191 -0.5780 -0.6797
  203MOL0     C27272   2.281   3.455   8.442 -0.3599 -0.4717  0.1519
  203MOL0     O27273   2.153   3.478   8.482  0.0607 -0.0275 -0.4937
  203MOL0     C27274   2.113   3.591   8.551 -0.0298  0.3353  0.1948
  203MOL0     C27275   2.126   3.585   8.688 -0.4334 -0.1118 -0.3927
  203MOL0     C27276   2.107   3.696   8.766 -1.1171 -0.2248  0.1406
  203MOL0     C27277   2.085   3.818   8.708 -0.4294 -0.6171 -0.3221
  203MOL0     O27278   2.068   3.932   8.789  0.7087  0.8299 -0.0122
  203MOL0     C27279   2.026   4.055   8.739  0.2258  0.4204 -0.0175
  203MOL0     C27280   2.013   4.153   8.850 -0.1992 -0.3313  0.5773
  203MOL0     C27281   1.888   4.126   8.925 -0.8377 -0.1005 -0.9594
  203MOL0     C27282   1.864   4.246   9.022 -0.0228 -0.1181 -0.3195
  203MOL0     C27283   1.835   4.375   8.931  0.3170 -0.0522 -0.8927
  203MOL0     C27284   1.735   4.456   9.015 -0.4150 -0.4060 -0.2787
  203MOL0     C27285   1.684   4.581   8.929  0.2606  0.3257  0.0347
  203MOL0     C27286   1.782   4.687   8.927  0.2962  0.6702  0.1142
  203MOL0     N27287   1.799   4.755   9.051  0.1273  0.0803 -0.7036
  203MOL0     C27288   1.713   4.816   9.146  0.4400 -0.7528  1.2230
  203MOL0     C27289   1.785   4.830   9.264  0.4285  0.1002  0.3765
  203MOL0     C27290   1.715   4.862   9.397  0.6770  0.2700 -0.1884
  203MOL0     C27291   1.703   5.014   9.412  0.2196  1.0223 -0.7160
  203MOL0     C27292   1.601   5.049   9.525  0.1465  0.6260  0.6198
  203MOL0     C27293   1.635   5.039   9.668  0.4979 -0.7237 -0.0757
  203MOL0     O27294   1.515   5.010   9.730  0.0440 -0.0760  0.6617
  203MOL0     C27295   1.502   4.883   9.770  0.1983 -0.0736  0.4852
  203MOL0     C27296   1.519   4.763   9.695 -0.1633  0.1501 -0.3751
  203MOL0     C27297   1.480   4.633   9.746  1.4812  0.1953 -0.5808
  203MOL0     C27298   1.515   4.508   9.660 -0.4554 -0.5626  0.4634
  203MOL0     C27299   1.423   4.615   9.873 -0.9511  0.0958  0.7675
  203MOL0     C27300   1.383   4.481   9.926  0.4888 -0.4409 -0.7679
  203MOL0     O27301   1.278   4.409   9.874  0.8774 -0.5263  0.7243
  203MOL0     C27302   1.267   4.287   9.938 -0.6691  0.2347 -0.7868
  203MOL0     C27303   1.359   4.180   9.903 -0.5314 -0.7122 -0.1687
  203MOL0     C27304   1.347   4.064   9.975 -0.2201  0.0882  0.0452
  203MOL0     C27305   1.251   4.041  10.078  0.4319  0.4753 -0.1028
  203MOL0     O27306   1.257   3.913  10.132 -0.2636  0.2597 -0.4503
  203MOL0     C27307   1.331   3.912  10.261 -0.3511 -0.4128  0.1009
  203MOL0     C27308   1.292   3.779  10.324  0.8512  0.3213 -0.5215
  203MOL0     C27309   1.155   3.795  10.386  0.0686  0.2576  0.4950
  203MOL0     C27310   1.133   3.661  10.449  0.8698  0.1001  0.3463
  203MOL0     C27311   1.006   3.645  10.530 -0.0915  0.3053  0.6459
  203MOL0     C27312   0.978   3.754  10.631 -0.6420 -0.3297  0.1419
  203MOL0     C27313   0.880   3.854  10.569 -0.1509 -0.6078  0.6847
  203MOL0     C27314   0.828   3.963  10.670  0.6637 -0.3762 -0.1838
  203MOL0    Cl27315   0.962   4.066  10.735 -1.0524 -0.6176  0.1830
  203MOL0     C27316   1.167   4.145  10.114 -0.2113 -0.5239  0.2819
  203MOL0     C27317   1.175   4.268  10.049  0.5913 -0.6570 -0.4026
  203MOL0     O27318   1.446   4.463  10.039  0.0123 -0.4194 -0.1425
  203MOL0     C27319   1.415   4.735   9.953 -0.3383 -0.3168  0.8928
  203MOL0     C27320   1.450   4.864   9.898 -0.0328 -0.4493 -0.0698
  203MOL0     N27321   1.914   4.791   9.248 -0.7669  0.3459 -0.0858
  203MOL0     N27322   1.925   4.751   9.114  0.8148 -0.8623 -0.2255
  203MOL0     C27323   2.065   3.828   8.571 -0.8366  0.7763 -0.1994
  203MOL0     C27324   2.083   3.717   8.486 -0.3879 -0.6833 -0.3763
  203MOL0     C27325   2.304   3.331   8.374 -0.8114  0.1990 -0.1229
  203MOL0     C27326   2.436   3.275   8.370  0.2023  0.0112 -0.2129
  203MOL0     C27327   2.447   3.143   8.336 -0.6167 -0.7297  0.3320
  203MOL0     C27328   2.350   3.069   8.261  0.0900  0.1422  0.6956
  203MOL0     O27329   2.379   2.951   8.209  0.0121  0.5637  0.9269
  203MOL0     C27330   2.284   2.907   8.109  0.6352 -0.0352  0.0321
  203MOL0     C27331   2.360   2.859   7.987  2.0023 -0.4833 -0.5381
  203MOL0     C27332   2.464   2.951   7.934 -0.7239  0.2540  0.5734
  203MOL0     C27333   2.528   2.919   7.798 -0.1596 -0.7992 -0.5185
  203MOL0     C27334   2.626   3.025   7.767 -0.6149 -0.1004 -0.2035
  203MOL0     C27335   2.720   3.107   7.751 -0.6507  0.2215 -0.0149
  203MOL0     C27336   2.220   3.127   8.259  0.9063 -0.3060 -0.2761
  203MOL0     C27337   2.198   3.260   8.312 -0.2947  0.3283 -0.4950
  203MOL0     H27338   2.139   3.497   8.749 -2.6148 -0.3660 -0.2103
  203MOL0     H27339   2.124   3.688   8.873  5.5485  1.0446 -0.3423
  203MOL0     H27340   2.103   4.105   8.679  0.7717  3.0919  2.6695
  203MOL0     H27341   1.929   4.044   8.690  0.0627 -2.9290  0.8121
  203MOL0     H27342   2.097   4.160   8.920  1.5865  0.9582 -1.5575
  203MOL0     H27343   2.001   4.246   8.793 -4.8541 -1.0597 -0.0091
  203MOL0     H27344   1.803   4.107   8.859 -0.7225 -5.9620  0.0508
  203MOL0     H27345   1.909   4.039   8.988  0.8578  1.6848  1.1217
  203MOL0     H27346   1.778   4.232   9.088 -0.1193 -4.3780 -1.0386
  203MOL0     H27347   1.947   4.251   9.093 -0.6202 -4.7323  1.0691
  203MOL0     H27348   1.928   4.431   8.920  0.0726  0.2035 -1.7547
  203MOL0     H27349   1.793   4.343   8.835  0.5204 -0.2869 -0.9053
  203MOL0     H27350   1.652   4.392   9.048 -0.4214  0.7939  2.1856
  203MOL0     H27351   1.780   4.496   9.106 -1.7074  2.0698 -0.6437
  203MOL0     H27352   1.668   4.541   8.829  3.9040  0.0579 -0.5947
  203MOL0     H27353   1.583   4.608   8.960  0.7009  1.3212  0.6643
  203MOL0     H27354   1.759   4.768   8.857 -1.6165 -1.1568 -1.5076
  203MOL0     H27355   1.875   4.644   8.888 -0.6962 -0.0820 -1.5403
  203MOL0     H27356   1.605   4.821   9.138  0.5843 -0.3781 -1.8961
  203MOL0     H27357   1.614   4.822   9.387  0.7871  0.1719 -0.9720
  203MOL0     H27358   1.775   4.820   9.479 -3.1263  1.1054  3.3590
  203MOL0     H27359   1.676   5.066   9.320 -0.3654  2.1647  0.0766
  203MOL0     H27360   1.798   5.060   9.441 -0.4846  1.5618  0.7991
  203MOL0     H27361   1.512   4.993   9.496 -1.8934  2.1610  3.5668
  203MOL0     H27362   1.572   5.152   9.504  0.0058 -0.1473 -4.2352
  203MOL0     H27363   1.666   5.134   9.714  1.5862 -2.1181  2.2778
  203MOL0     H27364   1.719   4.971   9.685  2.2834  1.8655  2.6099
  203MOL0     H27365   1.550   4.782   9.593  0.0753  2.3395  0.0538
  203MOL0     H27366   1.447   4.423   9.669  0.2167 -1.2386 -0.6593
  203MOL0     H27367   1.512   4.534   9.554 -2.9981  0.7412  0.7538
  203MOL0     H27368   1.614   4.472   9.687  0.6043 -0.9233 -3.4071
  203MOL0     H27369   1.434   4.195   9.826 -0.6493 -0.8520 -0.3139
  203MOL0     H27370   1.411   3.979   9.953 -0.6416 -0.4719  0.9053
  203MOL0     H27371   1.440   3.911  10.258 -0.2817  0.6097  1.4996
  203MOL0     H27372   1.300   3.980  10.341 -0.9056 -0.0223 -0.4347
  203MOL0     H27373   1.288   3.696  10.253 -0.3037 -2.3152  2.3829
  203MOL0     H27374   1.359   3.755  10.407  0.8428  1.6795 -0.0883
  203MOL0     H27375   1.070   3.810  10.318  0.2674  0.3191  0.2616
  203MOL0     H27376   1.167   3.874  10.461 -1.1061  0.4612  0.4880
  203MOL0     H27377   1.121   3.588  10.368 -4.8242  1.0145 -0.0029
  203MOL0     H27378   1.219   3.635  10.512  2.2312  2.1977 -0.5115
  203MOL0     H27379   1.024   3.558  10.594 -0.2754 -0.3229 -0.1461
  203MOL0     H27380   0.926   3.624  10.458 -0.3784 -0.6466  1.2190
  203MOL0     H27381   0.931   3.698  10.712  1.8121  1.2455  2.8543
  203MOL0     H27382   1.065   3.800  10.678 -0.5756  1.3704 -1.5517
  203MOL0     H27383   0.791   3.803  10.533 -1.5973  3.2630 -1.9076
  203MOL0     H27384   0.925   3.902  10.481  0.9498 -1.3991  0.8027
  203MOL0     H27385   0.788   3.911  10.757  0.0200  1.9049  0.9743
  203MOL0     H27386   0.756   4.038  10.638  2.1265  1.3543  0.3968
  203MOL0     H27387   1.095   4.123  10.191  0.4727  2.7765  2.0453
  203MOL0     H27388   1.107   4.350  10.069  2.2274  1.5168 -3.0186
  203MOL0     H27389   1.380   4.733  10.056  0.6773  0.5148  1.2666
  203MOL0     H27390   1.440   4.946   9.969 -1.8460  0.7537 -1.6211
  203MOL0     H27391   2.063   3.922   8.517 -0.1480  1.0615  0.2558
  203MOL0     H27392   2.080   3.736   8.379 -2.0595  2.0202  0.0697
  203MOL0     H27393   2.531   3.316   8.404  0.7393 -1.0998 -0.3156
  203MOL0     H27394   2.550   3.116   8.358 -0.6619 -1.9770 -0.8159
  203MOL0     H27395   2.220   2.829   8.149 -0.9387  0.0760 -2.1362
  203MOL0     H27396   2.203   2.968   8.067 -1.8701 -2.3517  1.2387
  203MOL0     H27397   2.289   2.846   7.905  1.2115 -2.0294  0.3587
  203MOL0     H27398   2.409   2.764   8.008  2.6514 -0.1291 -0.4337
  203MOL0     H27399   2.551   2.945   7.999 -1.5877 -1.6490  1.6380
  203MOL0     H27400   2.423   3.052   7.920 -1.9160 -0.0766  1.5435
  203MOL0     H27401   2.446   2.924   7.725 -1.0906 -0.2214  0.5287
  203MOL0     H27402   2.575   2.821   7.796  1.4238 -0.0778  0.1310
  203MOL0     H27403   2.814   3.156   7.737 -1.4011  1.7200  0.0083
  203MOL0     H27404   2.135   3.086   8.204 -0.6719  4.2380 -1.6887
  203MOL0     H27405   2.095   3.296   8.305 -0.3557 -0.1076 -2.4479
  204MOL0     O27406   6.207   7.879   5.916 -0.0687 -0.5938 -0.1724
  204MOL0     C27407   6.207   7.974   5.839  0.0226 -0.4568  0.4270
  204MOL0     O27408   6.104   8.049   5.799  1.3030  0.2846  0.2049
  204MOL0     C27409   5.985   8.028   5.864 -0.8260 -0.0003  0.0611
  204MOL0     C27410   5.871   8.007   5.793  0.3046 -0.0683  0.8651
  204MOL0     C27411   5.752   7.978   5.859 -0.3144 -0.9271  0.1957
  204MOL0     C27412   5.734   7.988   5.994  0.1265 -0.5131  0.1983
  204MOL0     O27413   5.604   7.964   6.047  0.9040  0.1510  0.3389
  204MOL0     C27414   5.582   8.048   6.169  0.7547 -0.0065 -0.7197
  204MOL0     C27415   5.429   8.081   6.168  0.5788 -0.1131  0.5487
  204MOL0     C27416   5.398   8.188   6.277  0.1749 -1.0639  0.5578
  204MOL0     C27417   5.251   8.245   6.267  0.1873  0.1987 -0.5164
  204MOL0     C27418   5.220   8.342   6.382 -0.2256  1.2327 -0.2364
  204MOL0     C27419   5.319   8.462   6.363 -0.1365  0.0413 -0.9019
  204MOL0     C27420   5.271   8.594   6.423 -0.2473 -0.1401  0.0769
  204MOL0     C27421   5.384   8.688   6.472 -0.0275  0.1392 -0.2169
  204MOL0     N27422   5.486   8.707   6.377 -0.6878 -0.2338  0.1886
  204MOL0     C27423   5.470   8.763   6.255 -0.2915 -0.4571 -0.1219
  204MOL0     C27424   5.596   8.786   6.214 -0.4013  0.1685  0.1098
  204MOL0     C27425   5.638   8.844   6.080  0.0312 -0.1768 -0.5215
  204MOL0     C27426   5.761   8.781   6.015 -0.5579 -0.0531 -0.0837
  204MOL0     C27427   5.728   8.652   5.938 -0.4885 -0.1258 -0.3926
  204MOL0     C27428   5.706   8.535   6.038  0.4778 -0.0553 -0.1445
  204MOL0     O27429   5.682   8.416   5.971  0.1667 -0.9832  0.5001
  204MOL0     C27430   5.555   8.378   5.930 -0.0759  0.8283  0.9492
  204MOL0     C27431   5.436   8.450   5.932 -0.2991  0.6024  0.6602
  204MOL0     C27432   5.319   8.392   5.876  0.2908 -0.3071  0.6260
  204MOL0     C27433   5.194   8.463   5.893  0.3425  0.3090 -0.0313
  204MOL0     C27434   5.327   8.266   5.809  0.8423  0.1593 -1.2357
  204MOL0     C27435   5.213   8.201   5.737  0.9520  0.1873  0.1186
  204MOL0     O27436   5.229   8.062   5.697  0.3234 -0.4070  0.0416
  204MOL0     C27437   5.116   8.010   5.625  0.0898 -0.2251  0.1014
  204MOL0     C27438   5.010   7.948   5.691  0.2925  0.9718  0.1649
  204MOL0     C27439   4.907   7.890   5.610  1.0538  0.2090 -0.4049
  204MOL0     C27440   4.909   7.899   5.470 -0.2750 -0.5673 -0.7477
  204MOL0     O27441   4.821   7.823   5.404 -0.0013 -0.1920 -0.4091
  204MOL0     C27442   4.844   7.774   5.277  0.1474 -0.1352  0.2126
  204MOL0     C27443   4.714   7.701   5.236 -0.5757 -0.9590 -0.6755
  204MOL0     C27444   4.694   7.708   5.083  0.4886  0.1086  0.3086
  204MOL0     C27445   4.542   7.694   5.049  0.8343  0.3118 -0.0337
  204MOL0     C27446   4.526   7.692   4.898 -0.4376 -0.1282  0.4542
  204MOL0     C27447   4.381   7.674   4.861  0.3035 -0.5057 -0.2068
  204MOL0     C27448   4.364   7.676   4.711  0.1809  0.3803  1.0664
  204MOL0     C27449   4.216   7.672   4.655 -0.4475  0.6378 -0.2713
  204MOL0    Cl27450   4.217   7.670   4.479 -0.0949 -0.1218 -0.1826
  204MOL0     C27451   5.018   7.961   5.416 -0.4107  0.0357  0.0865
  204MOL0     C27452   5.119   8.025   5.489 -0.2897 -0.4769 -0.4167
  204MOL0     O27453   5.113   8.264   5.724 -0.8605  0.2445  0.0501
  204MOL0     C27454   5.453   8.198   5.803 -0.0790  1.1738 -0.2880
  204MOL0     C27455   5.560   8.253   5.863  0.1356 -0.0056 -0.2846
  204MOL0     N27456   5.683   8.738   6.313  0.3413 -0.5205  0.4612
  204MOL0     N27457   5.616   8.714   6.416  0.5976 -0.5061  0.2019
  204MOL0     C27458   5.849   8.017   6.073 -0.0063 -0.0982  0.0361
  204MOL0     C27459   5.979   8.032   6.008  0.1129  0.4890  0.7479
  204MOL0     C27460   6.335   8.012   5.785 -0.3365 -0.5988 -0.0931
  204MOL0     C27461   6.349   8.105   5.679  0.2238  0.3000  0.7505
  204MOL0     C27462   6.474   8.143   5.635  0.4606  0.4286  0.4233
  204MOL0     C27463   6.592   8.073   5.675 -0.0408  0.2532  1.1933
  204MOL0     O27464   6.722   8.095   5.644  0.4370 -0.7284  0.3015
  204MOL0     C27465   6.757   8.181   5.542  1.1239  0.0128 -0.3919
  204MOL0     C27466   6.798   8.317   5.588 -0.1338 -1.2266 -1.0328
  204MOL0     C27467   6.897   8.309   5.709  0.2425 -0.1224  1.6182
  204MOL0     C27468   6.953   8.437   5.752  0.1457 -0.3072 -0.5528
  204MOL0     C27469   7.044   8.430   5.866 -0.0719 -0.5933 -0.3777
  204MOL0     C27470   7.121   8.441   5.953 -0.0114 -0.0032 -0.0918
  204MOL0     C27471   6.581   7.980   5.777  1.2030 -0.3307 -0.4911
  204MOL0     C27472   6.450   7.956   5.835 -0.0038  0.2515  0.4701
  204MOL0     H27473   5.880   8.004   5.685  2.0973  0.1043  0.9798
  204MOL0     H27474   5.668   7.954   5.795 -0.3770  0.5971 -0.3233
  204MOL0     H27475   5.608   7.992   6.259 -0.8009  3.8348  2.4388
  204MOL0     H27476   5.634   8.145   6.171  1.0563 -0.1712  1.7716
  204MOL0     H27477   5.393   8.114   6.071 -3.6822 -0.8457  1.6669
  204MOL0     H27478   5.374   7.989   6.190 -2.1436  1.3460  0.2225
  204MOL0     H27479   5.398   8.137   6.373 -1.7155 -2.3421 -0.0679
  204MOL0     H27480   5.471   8.269   6.288  3.0054 -3.6575  2.2054
  204MOL0     H27481   5.244   8.290   6.168  1.5968 -1.1740 -1.2885
  204MOL0     H27482   5.172   8.171   6.272 -0.9189  1.3195  4.8891
  204MOL0     H27483   5.112   8.357   6.374 -0.1374  1.4032 -1.1783
  204MOL0     H27484   5.245   8.292   6.476  0.7727 -1.0883 -1.6726
  204MOL0     H27485   5.418   8.437   6.403 -0.8256  0.8788  1.5586
  204MOL0     H27486   5.337   8.485   6.258 -0.5723 -0.4308 -1.0841
  204MOL0     H27487   5.204   8.650   6.358 -1.2493 -2.4097 -0.9799
  204MOL0     H27488   5.210   8.558   6.506 -1.7690 -5.9332 -2.9799
  204MOL0     H27489   5.419   8.656   6.570 -1.1529  0.2391  0.2386
  204MOL0     H27490   5.333   8.784   6.490  1.3386  0.5402  1.7692
  204MOL0     H27491   5.378   8.806   6.215 -1.3605 -1.5631  1.0433
  204MOL0     H27492   5.559   8.845   6.004  1.2980 -2.7286 -2.0011
  204MOL0     H27493   5.654   8.950   6.099 -2.3085  0.0792  0.4424
  204MOL0     H27494   5.841   8.761   6.086 -1.8093  0.0932  1.4183
  204MOL0     H27495   5.799   8.857   5.945 -0.7865  1.3855  1.2947
  204MOL0     H27496   5.812   8.627   5.872  1.8144  0.2168  2.2477
  204MOL0     H27497   5.643   8.683   5.876 -0.6767  1.7791  0.7593
  204MOL0     H27498   5.633   8.549   6.119  1.4470 -0.6430  0.8647
  204MOL0     H27499   5.790   8.513   6.104  1.5684  1.5273 -0.9465
  204MOL0     H27500   5.431   8.548   5.978 -3.4672 -0.6777  3.4165
  204MOL0     H27501   5.109   8.395   5.912 -0.2108  1.1968  0.7719
  204MOL0     H27502   5.193   8.539   5.972  0.3215  3.3675 -2.8076
  204MOL0     H27503   5.155   8.519   5.808  1.2995  0.3901 -0.4292
  204MOL0     H27504   5.013   7.944   5.799 -1.1823 -1.9874  0.2154
  204MOL0     H27505   4.821   7.851   5.663 -1.0363  1.6468 -2.5505
  204MOL0     H27506   4.876   7.845   5.200  0.8683 -2.7812 -2.1140
  204MOL0     H27507   4.927   7.703   5.281  3.5843  3.5613  1.2262
  204MOL0     H27508   4.720   7.600   5.277 -1.0049 -0.1831  1.4193
  204MOL0     H27509   4.632   7.745   5.293 -1.7797 -2.7490 -0.9230
  204MOL0     H27510   4.761   7.650   5.019 -0.1123 -0.8706  0.5376
  204MOL0     H27511   4.721   7.804   5.038 -1.4670 -0.8652 -3.2690
  204MOL0     H27512   4.487   7.612   5.095  0.4659  0.7924  0.3935
  204MOL0     H27513   4.491   7.781   5.093  0.9012  0.8467 -0.9835
  204MOL0     H27514   4.583   7.610   4.852 -1.3398 -0.1374 -0.6702
  204MOL0     H27515   4.569   7.788   4.870 -0.0086 -0.1913  0.8590
  204MOL0     H27516   4.345   7.578   4.900  0.2447 -0.4445 -0.1104
  204MOL0     H27517   4.334   7.755   4.917  4.1985  0.4617  1.9824
  204MOL0     H27518   4.417   7.594   4.663 -0.1015  1.1152 -0.5706
  204MOL0     H27519   4.410   7.770   4.678 -2.2212  1.5525  0.7980
  204MOL0     H27520   4.162   7.759   4.693  1.1052  1.0723  1.0542
  204MOL0     H27521   4.168   7.581   4.692  0.1939  0.1824 -0.5240
  204MOL0     H27522   5.035   7.952   5.309  3.9614 -1.3080  0.6853
  204MOL0     H27523   5.194   8.082   5.436  0.0949  0.4909  1.0971
  204MOL0     H27524   5.463   8.100   5.759 -0.1894  0.4503  1.2102
  204MOL0     H27525   5.655   8.200   5.869  1.2318  1.7081 -1.5071
  204MOL0     H27526   5.837   8.001   6.179 -0.9082 -1.5962 -0.2523
  204MOL0     H27527   6.065   8.033   6.074 -1.3949 -2.8671  3.0636
  204MOL0     H27528   6.262   8.154   5.637 -0.0156  1.1123  2.1316
  204MOL0     H27529   6.480   8.218   5.557  1.7767 -2.3204 -2.3508
  204MOL0     H27530   6.847   8.139   5.496  0.8204 -0.9018 -0.1717
  204MOL0     H27531   6.684   8.187   5.460 -1.3852  0.0237  1.7185
  204MOL0     H27532   6.722   8.382   5.631  1.0255  0.5750 -1.6013
  204MOL0     H27533   6.842   8.378   5.508  0.6240 -0.1591  0.1680
  204MOL0     H27534   6.976   8.238   5.681 -0.0896 -0.6919  2.1215
  204MOL0     H27535   6.846   8.265   5.794  0.8633 -0.4551  1.8242
  204MOL0     H27536   6.876   8.511   5.779  0.7142  0.3328 -0.6701
  204MOL0     H27537   7.008   8.470   5.663 -2.4344 -2.4416 -3.1554
  204MOL0     H27538   7.186   8.452   6.038 -0.4808 -1.1482  0.4394
  204MOL0     H27539   6.669   7.937   5.825  2.7722  4.2290  1.2716
  204MOL0     H27540   6.459   7.872   5.903  3.4410  0.2295  0.1679
  205MOL0     O27541   1.521   8.819   4.177  0.1299  0.3657  0.0821
  205MOL0     C27542   1.447   8.724   4.215 -0.6895  0.2104  0.7577
  205MOL0     O27543   1.411   8.698   4.340 -0.7641  0.6268 -0.9546
  205MOL0     C27544   1.477   8.769   4.443  0.5592  0.2022 -0.0323
  205MOL0     C27545   1.616   8.780   4.458  0.0943 -0.2655  0.7387
  205MOL0     C27546   1.682   8.829   4.572 -1.0566  0.1358 -0.3191
  205MOL0     C27547   1.607   8.873   4.679 -0.2286 -0.6084  0.6276
  205MOL0     O27548   1.657   8.901   4.801 -0.7400 -0.7536 -0.4069
  205MOL0     C27549   1.602   9.012   4.862 -0.6411  0.8335 -0.8500
  205MOL0     C27550   1.677   9.095   4.966 -0.2605 -0.1880 -0.6940
  205MOL0     C27551   1.577   9.199   5.026  0.2706 -0.0062 -0.6884
  205MOL0     C27552   1.641   9.266   5.147 -1.1328  0.4546  0.7339
  205MOL0     C27553   1.798   9.307   5.116  0.2713 -0.3260  0.8615
  205MOL0     C27554   1.801   9.394   4.989  0.4435 -0.6400  0.2055
  205MOL0     C27555   1.945   9.435   4.965  0.2191 -0.6677  0.2319
  205MOL0     C27556   1.967   9.543   4.863 -0.0149 -0.2567 -0.0282
  205MOL0     N27557   1.876   9.524   4.751  0.1245 -0.1205 -0.0550
  205MOL0     C27558   1.896   9.436   4.651  0.6753  0.6187  0.5412
  205MOL0     C27559   1.781   9.433   4.578 -0.5571 -0.5677 -0.5314
  205MOL0     C27560   1.770   9.346   4.458 -0.5216  0.6532  0.1107
  205MOL0     C27561   1.664   9.236   4.474 -0.4705  0.2944  0.2826
  205MOL0     C27562   1.656   9.144   4.352 -0.5815 -0.4315  0.3648
  205MOL0     C27563   1.646   9.221   4.224 -0.6114 -0.4438  0.1540
  205MOL0     O27564   1.623   9.129   4.110 -0.6761 -0.6466  0.0071
  205MOL0     C27565   1.625   9.179   3.987  0.5806  0.3185  0.3641
  205MOL0     C27566   1.614   9.314   3.960 -0.0147 -0.2639  0.7919
  205MOL0     C27567   1.626   9.360   3.827  0.7454 -0.1557  0.2180
  205MOL0     C27568   1.612   9.511   3.814 -0.6689 -0.1890  0.4462
  205MOL0     C27569   1.622   9.265   3.720 -0.1968 -0.9032 -0.7903
  205MOL0     C27570   1.604   9.309   3.576 -0.2253 -0.8817 -1.5490
  205MOL0     O27571   1.638   9.438   3.544 -0.1994  0.1078 -0.3951
  205MOL0     C27572   1.608   9.494   3.417  0.4638 -0.2093  0.1250
  205MOL0     C27573   1.678   9.453   3.307  0.1514 -0.3002  0.9449
  205MOL0     C27574   1.637   9.515   3.182  0.5272  0.1369 -0.1491
  205MOL0     C27575   1.530   9.609   3.166 -0.9963  0.5497  0.1213
  205MOL0     O27576   1.502   9.651   3.042 -0.2436  0.3278  0.3050
  205MOL0     C27577   1.426   9.551   2.959  0.1671  0.0305  1.1429
  205MOL0     C27578   1.320   9.610   2.867  0.0538  0.5356  0.4083
  205MOL0     C27579   1.282   9.514   2.751  0.3522 -0.5741  0.3737
  205MOL0     C27580   1.170   9.561   2.653 -0.3759 -0.1385 -0.4452
  205MOL0     C27581   1.163   9.464   2.530  0.5645  1.0158 -0.4083
  205MOL0     C27582   1.071   9.521   2.427 -0.5951 -0.3073  0.0842
  205MOL0     C27583   1.057   9.436   2.300  1.1394 -0.8597 -0.3682
  205MOL0     C27584   0.982   9.503   2.182  0.8084 -0.0224 -0.3954
  205MOL0    Cl27585   0.816   9.463   2.201  0.1480  0.1952  0.3631
  205MOL0     C27586   1.482   9.657   3.284  0.2782 -0.0231 -0.8173
  205MOL0     C27587   1.508   9.595   3.405 -0.4566 -0.1852 -0.8395
  205MOL0     O27588   1.534   9.239   3.506  0.1839  0.1189  0.7423
  205MOL0     C27589   1.640   9.126   3.751  0.0805  0.2504  0.5707
  205MOL0     C27590   1.638   9.085   3.884 -0.1191 -0.3983  0.1680
  205MOL0     N27591   1.706   9.532   4.630  0.5354 -0.1056 -0.7690
  205MOL0     N27592   1.753   9.568   4.738  1.0960 -0.3445  0.7516
  205MOL0     C27593   1.464   8.863   4.666  0.4745  0.3045  0.3387
  205MOL0     C27594   1.403   8.806   4.556 -0.0534  0.6406 -0.9162
  205MOL0     C27595   1.387   8.645   4.109 -0.6096 -0.0325 -0.2728
  205MOL0     C27596   1.317   8.532   4.135  1.2014 -0.0409 -0.6343
  205MOL0     C27597   1.276   8.443   4.032  0.1681 -0.0811 -0.4339
  205MOL0     C27598   1.280   8.483   3.899  0.8689  0.5626 -0.6431
  205MOL0     O27599   1.248   8.400   3.796  0.4245 -0.2246 -0.3152
  205MOL0     C27600   1.179   8.283   3.820 -0.6707 -0.1537 -0.0923
  205MOL0     C27601   1.148   8.220   3.681 -0.6691  0.2534 -0.2943
  205MOL0     C27602   1.117   8.073   3.709  0.3990  0.3047  0.1487
  205MOL0     C27603   1.089   7.984   3.591 -0.2058  0.5580 -0.0410
  205MOL0     C27604   0.965   8.025   3.519  0.5509 -0.1911  0.5683
  205MOL0     C27605   0.854   8.048   3.470 -0.6678  0.4363 -0.4091
  205MOL0     C27606   1.342   8.604   3.875 -0.2900  0.2831 -0.8376
  205MOL0     C27607   1.396   8.683   3.977 -0.0916 -0.4016 -0.5596
  205MOL0     H27608   1.685   8.731   4.390 -0.9798 -1.4631  0.4828
  205MOL0     H27609   1.790   8.821   4.579 -1.1873 -0.8968  0.9377
  205MOL0     H27610   1.566   9.086   4.789 -1.5534  1.7064  0.4282
  205MOL0     H27611   1.517   8.975   4.920  0.8844 -1.0542  0.3008
  205MOL0     H27612   1.718   9.030   5.044 -1.2516  1.3569  1.2190
  205MOL0     H27613   1.751   9.144   4.903  1.1954 -1.1756  0.1757
  205MOL0     H27614   1.545   9.288   4.970  0.0656  2.8956  3.5705
  205MOL0     H27615   1.488   9.142   5.054 -0.2586  0.1506 -1.9928
  205MOL0     H27616   1.580   9.352   5.174 -1.5937  0.9579 -1.6374
  205MOL0     H27617   1.645   9.197   5.232  4.4120 -3.4570 -2.0394
  205MOL0     H27618   1.834   9.363   5.202  5.1451  1.8459 -2.1540
  205MOL0     H27619   1.868   9.225   5.098  1.2606  0.7791 -0.4907
  205MOL0     H27620   1.767   9.350   4.894  2.9544 -0.6712 -0.7429
  205MOL0     H27621   1.733   9.479   5.002  0.6476 -0.4986  0.3524
  205MOL0     H27622   1.997   9.458   5.059 -0.3840 -1.5592  0.8061
  205MOL0     H27623   1.989   9.340   4.933 -1.5798 -1.4394 -0.0596
  205MOL0     H27624   2.073   9.537   4.836  0.3681  2.0296  0.7898
  205MOL0     H27625   1.969   9.641   4.911  1.0797 -1.0256  1.5890
  205MOL0     H27626   1.978   9.379   4.609 -1.5969 -0.8837 -2.1397
  205MOL0     H27627   1.744   9.411   4.375 -1.0467 -1.0244 -1.0853
  205MOL0     H27628   1.868   9.300   4.441 -0.4253  0.4003  1.2382
  205MOL0     H27629   1.566   9.282   4.490 -0.1629  1.4122 -0.8073
  205MOL0     H27630   1.685   9.172   4.560 -2.2204 -0.3530  0.2575
  205MOL0     H27631   1.570   9.077   4.348 -1.7406  1.0595 -1.0719
  205MOL0     H27632   1.755   9.096   4.355  0.4444  1.4772 -0.8703
  205MOL0     H27633   1.738   9.280   4.214 -1.0056  0.3695  1.1552
  205MOL0     H27634   1.554   9.279   4.237 -2.2137 -3.0320  1.1833
  205MOL0     H27635   1.590   9.389   4.034  2.4122  1.9436 -0.4917
  205MOL0     H27636   1.515   9.525   3.765  0.6792  0.6156 -2.1335
  205MOL0     H27637   1.618   9.565   3.909 -1.2960 -1.9483  1.5467
  205MOL0     H27638   1.693   9.554   3.756  0.6650  0.4246  2.6341
  205MOL0     H27639   1.742   9.366   3.319  0.4414 -0.3618 -0.7892
  205MOL0     H27640   1.681   9.472   3.093 -4.8169  2.6685 -4.6263
  205MOL0     H27641   1.495   9.494   2.896 -1.4137 -2.8697  1.8354
  205MOL0     H27642   1.380   9.477   3.026 -2.3107 -0.1149 -0.5958
  205MOL0     H27643   1.230   9.644   2.918 -1.1006 -2.4552  0.5504
  205MOL0     H27644   1.367   9.694   2.816 -2.9980  1.6860 -0.7667
  205MOL0     H27645   1.251   9.423   2.803  0.6606  0.1667  1.8850
  205MOL0     H27646   1.373   9.503   2.691 -0.0745  3.2618 -1.2683
  205MOL0     H27647   1.073   9.561   2.703 -0.9587 -1.3889 -1.5129
  205MOL0     H27648   1.192   9.663   2.620 -0.0786 -1.2434 -4.1367
  205MOL0     H27649   1.133   9.366   2.567 -2.1496  1.5529 -0.9880
  205MOL0     H27650   1.264   9.449   2.492  0.8907  3.3963 -0.6499
  205MOL0     H27651   0.973   9.539   2.472 -0.9732  1.5956 -1.3602
  205MOL0     H27652   1.099   9.625   2.408 -0.1996 -0.1677  1.3517
  205MOL0     H27653   1.008   9.345   2.335 -0.6084  1.5424  4.3760
  205MOL0     H27654   1.161   9.417   2.273  1.9368  1.3550  0.9030
  205MOL0     H27655   1.026   9.461   2.091  0.6554 -0.6570 -0.1780
  205MOL0     H27656   1.003   9.611   2.187  2.1280 -0.3066  0.8522
  205MOL0     H27657   1.407   9.735   3.279 -0.8312 -1.1206 -1.8093
  205MOL0     H27658   1.467   9.631   3.499  0.6211 -0.9491 -0.0477
  205MOL0     H27659   1.629   9.055   3.670 -3.0112 -0.1425  1.2213
  205MOL0     H27660   1.654   8.980   3.905 -1.1072 -0.9981 -1.7853
  205MOL0     H27661   1.397   8.905   4.740  0.2366  1.4432 -0.4894
  205MOL0     H27662   1.297   8.783   4.555  0.4027 -1.8070 -2.2249
  205MOL0     H27663   1.311   8.507   4.240  2.0423 -0.0385 -0.5805
  205MOL0     H27664   1.242   8.345   4.065  3.3859 -1.6882 -1.4664
  205MOL0     H27665   1.233   8.214   3.887 -3.4913 -2.0939  0.3586
  205MOL0     H27666   1.088   8.307   3.876 -0.8900  3.0354 -1.5955
  205MOL0     H27667   1.237   8.236   3.620 -0.9909 -0.4641 -0.9670
  205MOL0     H27668   1.064   8.280   3.644 -1.5615  0.7165  2.2564
  205MOL0     H27669   1.026   8.072   3.771  2.2178  3.1738  3.2136
  205MOL0     H27670   1.192   8.026   3.773 -1.5462 -0.7145  1.8263
  205MOL0     H27671   1.081   7.879   3.621  0.6115  1.5378  4.2303
  205MOL0     H27672   1.180   7.978   3.530 -0.2426 -1.8856  0.0676
  205MOL0     H27673   0.758   8.058   3.422 -0.4128  1.6573 -0.6748
  205MOL0     H27674   1.355   8.625   3.769 -1.3671  0.5690 -0.9224
  205MOL0     H27675   1.446   8.774   3.943 -0.2567 -0.1257 -0.0755
  206MOL0     O27676   5.068   2.183   0.596 -1.1367 -0.8997 -0.2920
  206MOL0     C27677   5.155   2.164   0.682 -0.5859 -0.4161 -0.9302
  206MOL0     O27678   5.287   2.135   0.662 -0.1923 -0.1683  0.1898
  206MOL0     C27679   5.322   2.115   0.529 -0.2445  0.0136  1.4762
  206MOL0     C27680   5.419   2.205   0.469  0.7965  0.0865 -0.4266
  206MOL0     C27681   5.470   2.186   0.344 -0.1678 -0.9705 -0.0350
  206MOL0     C27682   5.439   2.074   0.265 -0.6319  1.0894 -0.4218
  206MOL0     O27683   5.515   2.062   0.149 -0.5552 -0.8951 -0.2330
  206MOL0     C27684   5.490   1.948   0.078  0.5813  0.4058  0.1613
  206MOL0     C27685   5.369   1.965  -0.021 -0.3879 -0.3393 -0.0484
  206MOL0     C27686   5.383   2.100  -0.102  0.7422 -0.1927  0.0610
  206MOL0     C27687   5.278   2.092  -0.217 -0.1505 -0.4329  0.2012
  206MOL0     C27688   5.258   2.237  -0.275  0.5504  1.6502 -0.4380
  206MOL0     C27689   5.119   2.246  -0.346 -1.0444  0.3525 -0.2022
  206MOL0     C27690   5.117   2.367  -0.447  0.2140  1.0358  0.5649
  206MOL0     C27691   4.988   2.394  -0.532  0.1267 -0.3776  0.6560
  206MOL0     N27692   4.886   2.442  -0.432  0.5936 -0.3822 -1.2144
  206MOL0     C27693   4.887   2.561  -0.363  0.6709 -0.6188 -0.4998
  206MOL0     C27694   4.769   2.571  -0.311  1.0273 -1.4592 -0.2436
  206MOL0     C27695   4.698   2.671  -0.226  0.1903 -0.1886 -0.6722
  206MOL0     C27696   4.619   2.773  -0.299 -0.5029 -0.2573 -0.3730
  206MOL0     C27697   4.500   2.726  -0.384  0.2267  0.4340 -0.2322
  206MOL0     C27698   4.386   2.834  -0.408 -0.5812  0.8758  0.0855
  206MOL0     O27699   4.336   2.869  -0.269 -0.8548  0.0007  0.1078
  206MOL0     C27700   4.218   2.943  -0.263  0.6425  0.7432  0.2969
  206MOL0     C27701   4.099   2.879  -0.236 -0.3387  0.5903  0.2849
  206MOL0     C27702   3.981   2.956  -0.213 -0.0664 -0.3331 -0.3718
  206MOL0     C27703   3.864   2.882  -0.140 -1.3392 -0.5136 -0.1504
  206MOL0     C27704   3.984   3.100  -0.220 -0.2450 -0.2104  0.0253
  206MOL0     C27705   3.876   3.189  -0.184  0.9433 -0.0421  0.3440
  206MOL0     O27706   3.749   3.140  -0.202  0.4715  0.1958  0.0749
  206MOL0     C27707   3.634   3.199  -0.155  0.2708  1.1801  0.6016
  206MOL0     C27708   3.608   3.335  -0.160  0.7349 -0.0136  1.0058
  206MOL0     C27709   3.494   3.380  -0.088 -0.1186  0.2094  1.1379
  206MOL0     C27710   3.405   3.300  -0.027 -0.5331  0.0907  0.7858
  206MOL0     O27711   3.300   3.359   0.029 -0.4708 -0.5458 -0.4765
  206MOL0     C27712   3.257   3.305   0.156 -0.0439  1.0090  0.1449
  206MOL0     C27713   3.136   3.371   0.211  0.0912 -0.3595  0.2817
  206MOL0     C27714   3.144   3.518   0.217 -0.0029  0.1832  0.4237
  206MOL0     C27715   3.007   3.569   0.268  0.1822 -1.0019 -0.5795
  206MOL0     C27716   2.907   3.606   0.155 -0.3943 -0.3263  1.1462
  206MOL0     C27717   2.811   3.726   0.180  0.3870 -0.1379  0.3468
  206MOL0     C27718   2.679   3.693   0.246  0.1509  0.0824 -0.2971
  206MOL0     C27719   2.600   3.826   0.272 -0.1605  0.2593 -0.9229
  206MOL0    Cl27720   2.431   3.808   0.318  0.3549 -0.9224 -0.0295
  206MOL0     C27721   3.427   3.163  -0.038 -0.9518  0.1489  0.4983
  206MOL0     C27722   3.549   3.110  -0.080  0.8107 -0.1985  0.7836
  206MOL0     O27723   3.903   3.299  -0.151  0.1869 -0.9703 -0.3608
  206MOL0     C27724   4.109   3.156  -0.268  0.2443  0.1785 -1.1182
  206MOL0     C27725   4.223   3.082  -0.292  1.2341 -0.1462  0.5480
  206MOL0     N27726   4.690   2.464  -0.352 -0.5404  0.1442 -0.6958
  206MOL0     N27727   4.760   2.392  -0.428 -0.2729 -0.6518 -0.3458
  206MOL0     C27728   5.347   1.981   0.323 -0.4798 -0.5058 -0.2509
  206MOL0     C27729   5.286   2.005   0.444 -0.2537 -0.5680  0.5243
  206MOL0     C27730   5.099   2.203   0.821  0.4340 -0.3542 -0.5658
  206MOL0     C27731   4.962   2.233   0.842 -0.4631 -0.3377  0.3759
  206MOL0     C27732   4.909   2.250   0.967  0.0346 -0.2397 -0.1932
  206MOL0     C27733   4.991   2.241   1.079  0.0805 -0.3421  0.3430
  206MOL0     O27734   4.951   2.252   1.211 -0.1292 -0.6416  0.0622
  206MOL0     C27735   4.810   2.258   1.242 -0.9073  0.1297 -0.1133
  206MOL0     C27736   4.803   2.287   1.392  1.1918 -0.2928  0.8094
  206MOL0     C27737   4.672   2.232   1.445 -0.0195 -0.2380  0.8917
  206MOL0     C27738   4.625   2.295   1.578 -0.4578  0.4128  0.1491
  206MOL0     C27739   4.545   2.410   1.547  0.0139 -0.0704 -0.3472
  206MOL0     C27740   4.470   2.499   1.517  0.2641  0.2111 -0.3097
  206MOL0     C27741   5.129   2.218   1.061  0.2393  0.5661  0.7812
  206MOL0     C27742   5.186   2.191   0.938 -0.2793  0.0131  0.3176
  206MOL0     H27743   5.444   2.289   0.532  2.3418 -1.2908  0.9071
  206MOL0     H27744   5.552   2.239   0.296 -0.0947 -0.9011  0.1683
  206MOL0     H27745   5.580   1.937   0.016  1.1598  0.6413  0.9389
  206MOL0     H27746   5.478   1.853   0.131  2.4956 -0.4160 -0.7565
  206MOL0     H27747   5.359   1.884  -0.094  3.5596 -0.4606 -0.6727
  206MOL0     H27748   5.274   1.972   0.032 -0.1821 -0.9721  0.4052
  206MOL0     H27749   5.350   2.184  -0.040 -0.1328 -1.0978  0.8628
  206MOL0     H27750   5.483   2.118  -0.142  0.5676 -0.3724 -0.4553
  206MOL0     H27751   5.314   2.024  -0.295  1.1949 -1.9927  2.0953
  206MOL0     H27752   5.187   2.048  -0.178  0.9538 -1.8706  1.2674
  206MOL0     H27753   5.260   2.312  -0.195 -1.0550 -0.0482  1.3000
  206MOL0     H27754   5.337   2.255  -0.348 -0.3090  1.1228 -1.5293
  206MOL0     H27755   5.090   2.155  -0.398 -2.1894  1.0509 -0.8337
  206MOL0     H27756   5.032   2.255  -0.280 -0.8704 -2.0875  0.4511
  206MOL0     H27757   5.151   2.464  -0.409  2.2902  0.8501 -0.6329
  206MOL0     H27758   5.195   2.346  -0.521 -0.8049  1.8445 -0.7806
  206MOL0     H27759   4.949   2.309  -0.590 -4.6097 -0.9401  4.0902
  206MOL0     H27760   5.009   2.478  -0.599 -0.2049 -1.5182 -0.9584
  206MOL0     H27761   4.964   2.638  -0.360  0.3303 -0.2911  0.1860
  206MOL0     H27762   4.645   2.627  -0.141 -0.4107  0.5809 -0.6449
  206MOL0     H27763   4.783   2.715  -0.172 -1.2031  0.9416  0.7009
  206MOL0     H27764   4.693   2.821  -0.363  0.5645 -2.8655 -1.2076
  206MOL0     H27765   4.583   2.848  -0.228  0.7144 -0.5385  0.5735
  206MOL0     H27766   4.453   2.642  -0.332 -1.4649  3.1679  3.1138
  206MOL0     H27767   4.553   2.694  -0.474  2.1160  1.0356  0.6158
  206MOL0     H27768   4.305   2.797  -0.471  0.0626  0.4743 -0.5146
  206MOL0     H27769   4.423   2.917  -0.468  0.5740 -1.4577 -2.7002
  206MOL0     H27770   4.103   2.774  -0.207 -0.5089  0.4708 -0.1165
  206MOL0     H27771   3.819   2.945  -0.062 -2.3511  0.1300 -1.2284
  206MOL0     H27772   3.792   2.864  -0.220 -1.2795 -1.7490  0.0591
  206MOL0     H27773   3.900   2.792  -0.089  2.3437  1.2790  0.7703
  206MOL0     H27774   3.669   3.398  -0.223 -0.6512 -0.7815 -1.2336
  206MOL0     H27775   3.468   3.485  -0.090  1.8623  0.7437 -1.4898
  206MOL0     H27776   3.219   3.204   0.138 -2.2039  1.6981  0.5275
  206MOL0     H27777   3.336   3.311   0.231  2.1728  1.0677 -2.0789
  206MOL0     H27778   3.059   3.348   0.136 -1.8903  3.8752  0.7122
  206MOL0     H27779   3.113   3.336   0.311  1.8277  3.5366  2.2741
  206MOL0     H27780   3.175   3.563   0.122  1.2309 -1.6359 -0.0829
  206MOL0     H27781   3.221   3.543   0.291  1.0720 -1.0327 -0.2570
  206MOL0     H27782   2.963   3.499   0.340  1.7844 -0.9756  0.4715
  206MOL0     H27783   3.023   3.654   0.334 -0.0953 -2.0494  0.8903
  206MOL0     H27784   2.847   3.516   0.140  1.8606 -1.9193  1.2770
  206MOL0     H27785   2.964   3.629   0.064  0.0989  1.8163  1.9332
  206MOL0     H27786   2.863   3.789   0.253  1.1060  0.8566 -0.9763
  206MOL0     H27787   2.772   3.782   0.095 -2.8552 -0.6712  1.3764
  206MOL0     H27788   2.695   3.654   0.346  3.7124  0.6440 -0.5170
  206MOL0     H27789   2.613   3.627   0.188  1.2173 -1.1480 -0.1414
  206MOL0     H27790   2.600   3.882   0.178 -0.8076  1.5089 -0.2036
  206MOL0     H27791   2.647   3.878   0.356 -1.9916  0.3611  0.1025
  206MOL0     H27792   3.344   3.107   0.004 -1.3400  3.1910  4.3800
  206MOL0     H27793   3.573   3.004  -0.067 -0.2991 -0.4006  1.2947
  206MOL0     H27794   4.112   3.263  -0.289 -2.6320  0.5480 -0.1303
  206MOL0     H27795   4.319   3.125  -0.321  1.8558 -0.3349  2.1628
  206MOL0     H27796   5.317   1.887   0.276  0.7348 -0.0058 -2.1148
  206MOL0     H27797   5.213   1.937   0.487 -0.6486 -0.7010 -0.3337
  206MOL0     H27798   4.902   2.242   0.752  0.1188  0.5996  0.0697
  206MOL0     H27799   4.801   2.260   0.976 -0.5018 -1.0531 -3.9174
  206MOL0     H27800   4.762   2.333   1.179  0.4721  0.7502 -0.4870
  206MOL0     H27801   4.770   2.159   1.223  0.1698 -0.1331 -1.1565
  206MOL0     H27802   4.816   2.395   1.404 -1.7463  0.3131 -0.6311
  206MOL0     H27803   4.888   2.234   1.436 -0.1814 -2.4199  0.9877
  206MOL0     H27804   4.680   2.123   1.445 -1.5635 -0.3820  1.8136
  206MOL0     H27805   4.595   2.246   1.368  2.9465 -0.0054 -2.2365
  206MOL0     H27806   4.704   2.335   1.642 -0.6071 -0.7340  1.0868
  206MOL0     H27807   4.554   2.237   1.638 -2.1958  1.2943 -0.9795
  206MOL0     H27808   4.400   2.578   1.497  1.1629  1.1804  0.2175
  206MOL0     H27809   5.201   2.198   1.140  2.0335  0.5548 -0.8035
  206MOL0     H27810   5.290   2.168   0.916 -0.2239 -1.0252  1.5221
  207MOL0     O27811   3.930   4.533  10.235 -0.0732 -0.3933  0.3564
  207MOL0     C27812   3.855   4.629  10.220  0.2125 -0.5138  0.5810
  207MOL0     O27813   3.875   4.736  10.132 -0.3357  0.2525  0.5843
  207MOL0     C27814   3.933   4.714  10.008 -0.4554 -0.1410 -0.6882
  207MOL0     C27815   4.000   4.827   9.969  0.5945 -0.7293  0.5960
  207MOL0     C27816   4.066   4.817   9.847  0.0704 -0.4997  0.9340
  207MOL0     C27817   4.067   4.706   9.766 -0.0683  0.4215  0.7344
  207MOL0     O27818   4.135   4.692   9.643 -0.2438 -0.4753  0.6433
  207MOL0     C27819   4.138   4.815   9.566  0.0250  0.2485  0.0054
  207MOL0     C27820   4.221   4.790   9.443  0.4597  0.0740 -0.5159
  207MOL0     C27821   4.175   4.675   9.354  0.7357  0.3665  0.5767
  207MOL0     C27822   4.272   4.647   9.239 -0.5262  0.4203  0.6926
  207MOL0     C27823   4.233   4.514   9.162 -0.1975 -0.4726 -0.5094
  207MOL0     C27824   4.318   4.497   9.046  0.4598 -0.1929  0.2204
  207MOL0     C27825   4.245   4.407   8.939 -0.1865 -0.2925 -0.1938
  207MOL0     C27826   4.241   4.255   8.969 -0.3878  0.3107  0.7794
  207MOL0     N27827   4.127   4.192   8.905  0.4973 -0.1484 -0.5739
  207MOL0     C27828   4.115   4.168   8.772 -0.6352 -0.3842 -0.2393
  207MOL0     C27829   3.993   4.104   8.767  0.8060  0.2315  0.2751
  207MOL0     C27830   3.919   4.061   8.639  0.3605 -0.5399  0.7373
  207MOL0     C27831   3.948   4.162   8.526 -0.1252  0.0295  0.9155
  207MOL0     C27832   3.855   4.155   8.409 -0.2808  0.0990  0.8755
  207MOL0     C27833   3.879   4.026   8.322  0.7813 -0.1950  0.3507
  207MOL0     O27834   4.010   4.004   8.267  0.4702 -0.2773 -0.0661
  207MOL0     C27835   4.067   4.090   8.180  0.1450 -0.3822  1.2361
  207MOL0     C27836   3.998   4.189   8.110  0.3663 -0.1041 -0.3283
  207MOL0     C27837   4.047   4.270   8.009  0.5513 -0.8788  0.2424
  207MOL0     C27838   3.956   4.367   7.950  0.1041  0.3209 -0.4482
  207MOL0     C27839   4.178   4.247   7.971 -0.1123 -0.1551 -0.4352
  207MOL0     C27840   4.252   4.335   7.865 -0.7503  1.1912 -0.9564
  207MOL0     O27841   4.387   4.314   7.865 -0.7630 -0.5417  0.7971
  207MOL0     C27842   4.492   4.382   7.803 -0.5647 -0.6378  0.2722
  207MOL0     C27843   4.488   4.461   7.678  0.2652  0.4717 -0.5770
  207MOL0     C27844   4.610   4.512   7.636 -0.1549  0.5256  0.4876
  207MOL0     C27845   4.731   4.486   7.696  0.4879  0.0498 -0.3272
  207MOL0     O27846   4.848   4.535   7.649 -0.3926  0.2004 -0.8407
  207MOL0     C27847   4.873   4.662   7.712 -0.9832  0.0693 -0.2723
  207MOL0     C27848   5.026   4.705   7.683 -0.3780  0.2432  0.2313
  207MOL0     C27849   5.133   4.653   7.770 -1.1949 -0.0291 -0.5269
  207MOL0     C27850   5.174   4.521   7.732 -0.4785 -0.9183  1.6452
  207MOL0     C27851   5.265   4.466   7.841  0.5374  0.5566  1.0521
  207MOL0     C27852   5.190   4.415   7.962  0.8017 -0.1027 -0.9649
  207MOL0     C27853   5.257   4.408   8.096  0.4768 -0.2412  0.1043
  207MOL0     C27854   5.309   4.551   8.142 -0.0165 -0.0163  0.1650
  207MOL0    Cl27855   5.173   4.651   8.181 -0.1504 -0.1956 -0.0769
  207MOL0     C27856   4.731   4.402   7.810  0.4247 -0.1119 -0.7789
  207MOL0     C27857   4.619   4.348   7.857  0.6554 -0.6634 -0.1124
  207MOL0     O27858   4.196   4.412   7.790  0.1803 -0.3525 -0.4665
  207MOL0     C27859   4.266   4.157   8.053  0.7689 -0.4369  0.0111
  207MOL0     C27860   4.197   4.084   8.145  0.6374 -1.1632  0.7543
  207MOL0     N27861   3.944   4.087   8.894  1.2078  0.1265  0.9409
  207MOL0     N27862   4.024   4.139   8.982 -0.0721 -0.0767 -1.3787
  207MOL0     C27863   4.001   4.591   9.808  0.0927  0.2452 -0.0832
  207MOL0     C27864   3.927   4.592   9.934 -0.3984  0.2130 -0.3782
  207MOL0     C27865   3.742   4.648  10.315  0.0402  0.0206 -0.4076
  207MOL0     C27866   3.682   4.764  10.336  0.1176 -0.6534  0.0929
  207MOL0     C27867   3.589   4.788  10.440 -0.1289  0.2606 -0.7416
  207MOL0     C27868   3.556   4.683  10.531  0.9680 -0.7086  0.4434
  207MOL0     O27869   3.468   4.696  10.641 -0.3046  0.8810 -0.0403
  207MOL0     C27870   3.386   4.815  10.649  0.3686 -0.6053  0.5374
  207MOL0     C27871   3.334   4.824  10.789 -0.6129 -0.1681 -0.0430
  207MOL0     C27872   3.445   4.846  10.890 -1.7647 -0.1665 -0.7590
  207MOL0     C27873   3.499   4.707  10.954 -0.1457 -0.1412 -0.6216
  207MOL0     C27874   3.402   4.659  11.061  1.4486 -0.5108 -0.6511
  207MOL0     C27875   3.311   4.626  11.142  0.0070 -0.6378  0.5601
  207MOL0     C27876   3.608   4.560  10.511 -0.4479  0.7522  0.2246
  207MOL0     C27877   3.690   4.540  10.399 -0.1756 -0.4710  0.1830
  207MOL0     H27878   4.009   4.913  10.034  1.5727 -2.3270  2.6793
  207MOL0     H27879   4.128   4.904   9.826 -2.0587  1.8837  3.6089
  207MOL0     H27880   4.043   4.865   9.544  1.0622  2.1679 -0.2967
  207MOL0     H27881   4.195   4.889   9.623 -0.6451  1.2233 -0.5689
  207MOL0     H27882   4.239   4.882   9.387 -1.0636  0.4623 -0.3918
  207MOL0     H27883   4.316   4.745   9.474 -0.7442 -2.2627  0.0427
  207MOL0     H27884   4.145   4.588   9.413 -3.6775  0.7923 -0.6928
  207MOL0     H27885   4.078   4.707   9.315 -0.0515 -0.6762  1.5848
  207MOL0     H27886   4.265   4.731   9.169  1.2636  1.3745  1.5909
  207MOL0     H27887   4.374   4.626   9.272 -0.8871  1.4473  2.6684
  207MOL0     H27888   4.252   4.433   9.234 -2.0239  1.4371  2.2954
  207MOL0     H27889   4.125   4.521   9.148 -0.3013  1.4061  0.8723
  207MOL0     H27890   4.341   4.588   8.990 -0.3887  0.2130  0.5148
  207MOL0     H27891   4.417   4.455   9.065 -0.6247 -2.2001  1.8477
  207MOL0     H27892   4.146   4.450   8.921  0.2190  1.8591  2.1795
  207MOL0     H27893   4.297   4.415   8.843 -1.8348 -2.2181 -1.3218
  207MOL0     H27894   4.228   4.242   9.077 -0.4555 -3.6532  0.4499
  207MOL0     H27895   4.332   4.200   8.943 -0.4561 -2.4831  5.3872
  207MOL0     H27896   4.186   4.193   8.695 -0.8598  0.4182 -0.1964
  207MOL0     H27897   3.947   3.958   8.617  1.2395 -0.1479 -0.0770
  207MOL0     H27898   3.813   4.066   8.665  0.5732  0.5867  1.4584
  207MOL0     H27899   4.039   4.147   8.467 -1.6262 -2.3524 -1.0180
  207MOL0     H27900   3.942   4.267   8.556  1.5446  0.1294  0.9904
  207MOL0     H27901   3.860   4.242   8.343  0.7817 -0.4845  0.1633
  207MOL0     H27902   3.751   4.141   8.442 -0.8453 -4.2579 -1.8575
  207MOL0     H27903   3.807   4.030   8.240 -0.1990 -0.3304  1.1861
  207MOL0     H27904   3.866   3.935   8.381 -0.8588  0.1177  0.5240
  207MOL0     H27905   3.891   4.202   8.121  0.1745  1.3577 -2.9587
  207MOL0     H27906   3.941   4.343   7.844  0.9741  0.5808 -0.6428
  207MOL0     H27907   3.859   4.375   7.999  1.3530 -0.0933  2.2337
  207MOL0     H27908   4.002   4.467   7.947 -2.1775  1.4070 -1.4856
  207MOL0     H27909   4.393   4.479   7.629  1.1385  2.5634 -1.6167
  207MOL0     H27910   4.614   4.575   7.548 -1.7256  0.6081  0.4470
  207MOL0     H27911   4.800   4.728   7.665 -1.5854  1.1186  1.9959
  207MOL0     H27912   4.859   4.639   7.818  0.0663 -1.2491 -0.3823
  207MOL0     H27913   5.033   4.667   7.581 -3.2164  2.7360 -1.0589
  207MOL0     H27914   5.033   4.814   7.696 -1.3174  0.3603 -0.1628
  207MOL0     H27915   5.114   4.664   7.877  0.6221 -0.9867 -0.0517
  207MOL0     H27916   5.227   4.708   7.761 -0.8354 -0.0475  2.1331
  207MOL0     H27917   5.087   4.461   7.706 -1.8525  2.5369 -3.1216
  207MOL0     H27918   5.227   4.531   7.637 -0.6876  1.8738  1.7377
  207MOL0     H27919   5.338   4.539   7.877  1.6286 -0.8241  1.7607
  207MOL0     H27920   5.309   4.382   7.786 -1.0372  0.9074 -0.8194
  207MOL0     H27921   5.097   4.474   7.962  1.3235  0.7596 -1.9500
  207MOL0     H27922   5.155   4.313   7.943 -1.2449  0.0335  1.5535
  207MOL0     H27923   5.345   4.343   8.085  2.5135  2.6252 -2.2752
  207MOL0     H27924   5.192   4.365   8.173 -1.3201 -1.1941 -1.8398
  207MOL0     H27925   5.384   4.593   8.075 -0.0286 -1.4100 -0.7578
  207MOL0     H27926   5.364   4.533   8.236 -2.5849  0.4570  1.8517
  207MOL0     H27927   4.823   4.378   7.862  0.2426 -2.0085 -1.2625
  207MOL0     H27928   4.627   4.281   7.942  1.9805  0.0600  0.3717
  207MOL0     H27929   4.372   4.150   8.034  1.0420  2.1735  0.1272
  207MOL0     H27930   4.265   4.018   8.199  0.8990 -1.1868  0.3936
  207MOL0     H27931   4.000   4.492   9.763 -0.8903  0.3928 -0.4139
  207MOL0     H27932   3.875   4.510   9.983  1.7268 -1.2807 -0.4468
  207MOL0     H27933   3.717   4.845  10.273  1.6986 -2.2636 -1.2088
  207MOL0     H27934   3.561   4.892  10.447  0.0199  0.2098  1.2058
  207MOL0     H27935   3.448   4.903  10.631  1.4850 -1.5388 -0.3216
  207MOL0     H27936   3.312   4.812  10.567  2.2088  0.7965 -1.2791
  207MOL0     H27937   3.275   4.734  10.809 -0.5233  0.3352  2.7781
  207MOL0     H27938   3.265   4.907  10.797  0.4802  0.6102  1.7688
  207MOL0     H27939   3.410   4.910  10.972 -3.9371 -1.1980 -0.8019
  207MOL0     H27940   3.526   4.897  10.836  0.6080 -0.9398  1.8802
  207MOL0     H27941   3.587   4.716  11.017 -0.3386 -0.3302 -0.3218
  207MOL0     H27942   3.521   4.631  10.879  2.6354 -0.1283  0.1018
  207MOL0     H27943   3.228   4.604  11.207  0.0893  1.2550  1.3618
  207MOL0     H27944   3.572   4.470  10.559  2.2760 -0.3535  0.3466
  207MOL0     H27945   3.727   4.438  10.398 -1.8050 -1.0809  0.2563
  208MOL0     O27946  11.216   1.857  10.619  0.4463  0.1407  0.2399
  208MOL0     C27947  11.179   1.753  10.671  0.2233 -0.3216  0.2388
  208MOL0     O27948  11.080   1.679  10.621  0.0300  0.4416 -0.5653
  208MOL0     C27949  10.987   1.743  10.541 -0.1106  1.2637 -0.3084
  208MOL0     C27950  11.011   1.756  10.402 -0.6218  0.1010 -0.7489
  208MOL0     C27951  10.909   1.811  10.323 -0.8047  0.2159 -0.3881
  208MOL0     C27952  10.786   1.844  10.376  0.3689 -0.1836  0.0781
  208MOL0     O27953  10.697   1.922  10.313 -0.1364  0.0692 -0.3993
  208MOL0     C27954  10.668   1.885  10.179 -0.2034 -0.2013 -0.9902
  208MOL0     C27955  10.548   1.968  10.140 -0.1191 -0.6518 -0.4385
  208MOL0     C27956  10.571   2.118  10.164 -0.7830  0.1418  0.9384
  208MOL0     C27957  10.479   2.202  10.080  0.1862  0.7316 -0.2072
  208MOL0     C27958  10.493   2.346  10.120  1.3228 -0.1265  0.3809
  208MOL0     C27959  10.626   2.407  10.081  0.3175 -0.5191 -0.2306
  208MOL0     C27960  10.620   2.562  10.109 -0.1248  0.1764  0.3667
  208MOL0     C27961  10.756   2.620  10.067 -0.3183 -0.9643  0.4818
  208MOL0     N27962  10.769   2.764  10.068 -0.9846 -0.3967  0.6570
  208MOL0     C27963  10.714   2.847   9.972  0.4177  0.6433  0.0317
  208MOL0     C27964  10.733   2.975  10.002 -0.3673  0.4429  0.4754
  208MOL0     C27965  10.682   3.090   9.923 -0.2625  0.3967 -0.1049
  208MOL0     C27966  10.704   3.229   9.985 -0.0379  0.4796 -0.2641
  208MOL0     C27967  10.594   3.339   9.961 -0.3927  0.5498 -0.1920
  208MOL0     C27968  10.621   3.458  10.066  0.2696 -0.3910  0.7392
  208MOL0     O27969  10.504   3.540  10.073  0.4619 -0.0514 -0.8157
  208MOL0     C27970  10.503   3.669  10.127  0.5790  0.1650 -0.6644
  208MOL0     C27971  10.613   3.714  10.185  0.6163 -0.2135 -0.1160
  208MOL0     C27972  10.620   3.851  10.222 -0.1357 -0.0449 -0.9504
  208MOL0     C27973  10.733   3.906  10.320 -0.3394  0.8223  0.4130
  208MOL0     C27974  10.515   3.937  10.184 -0.2682 -0.1928 -0.0873
  208MOL0     C27975  10.527   4.083  10.181  0.1760  0.4776 -0.0057
  208MOL0     O27976  10.417   4.151  10.176 -0.7435  0.0927 -0.1396
  208MOL0     C27977  10.425   4.283  10.138  0.2384  0.9419  1.0971
  208MOL0     C27978  10.470   4.323  10.011 -0.4226 -0.8239  0.0183
  208MOL0     C27979  10.442   4.465   9.983 -0.1503 -0.3596 -0.0735
  208MOL0     C27980  10.383   4.553  10.078  0.5863  0.9942  1.0766
  208MOL0     O27981  10.356   4.674  10.024 -0.1785 -0.4613  1.1689
  208MOL0     C27982  10.256   4.768  10.081  0.2136 -0.5839  1.0154
  208MOL0     C27983  10.243   4.898  10.001 -0.0367  0.6646 -1.8412
  208MOL0     C27984  10.379   4.939   9.946 -0.0078 -0.1280 -0.6689
  208MOL0     C27985  10.381   5.093   9.917  0.8759  0.6951 -0.7947
  208MOL0     C27986  10.513   5.159   9.861  0.1025  0.1569  0.6826
  208MOL0     C27987  10.629   5.132   9.950  0.5401 -0.1285 -0.8642
  208MOL0     C27988  10.754   5.188   9.910  0.1656  0.7284 -0.2210
  208MOL0     C27989  10.767   5.329   9.960 -0.7329 -0.7374  0.9342
  208MOL0    Cl27990  10.906   5.411   9.875 -0.2379  0.3541  0.0929
  208MOL0     C27991  10.352   4.507  10.206 -0.4915 -0.1051  0.4146
  208MOL0     C27992  10.370   4.366  10.231  0.0815 -0.2758  1.1185
  208MOL0     O27993  10.636   4.134  10.182 -0.6134  0.7348 -1.0121
  208MOL0     C27994  10.398   3.883  10.115 -0.6556 -0.2292 -0.4070
  208MOL0     C27995  10.392   3.751  10.093 -0.4428  0.5257  0.0203
  208MOL0     N27996  10.830   2.971  10.106  0.0657  0.0697  0.6568
  208MOL0     N27997  10.851   2.841  10.138 -0.4043 -1.0435 -0.6059
  208MOL0     C27998  10.754   1.819  10.507 -0.6167  0.2596 -0.2215
  208MOL0     C27999  10.862   1.770  10.591  0.5004  0.8083 -0.4789
  208MOL0     C28000  11.254   1.708  10.794  0.0152  0.0084 -0.1128
  208MOL0     C28001  11.197   1.624  10.892 -0.1300  0.2304 -0.3030
  208MOL0     C28002  11.275   1.582  11.001  0.5622  0.7208 -0.1613
  208MOL0     C28003  11.411   1.619  11.012 -0.3627 -0.3473 -0.6121
  208MOL0     O28004  11.493   1.575  11.114 -0.4484  0.1456  0.2385
  208MOL0     C28005  11.471   1.436  11.156  1.0773  0.1202  0.2188
  208MOL0     C28006  11.528   1.342  11.056 -0.0130 -0.0824 -0.1936
  208MOL0     C28007  11.667   1.385  10.999 -0.6345  0.1112 -0.3293
  208MOL0     C28008  11.688   1.289  10.878  0.2452  0.5647 -0.7448
  208MOL0     C28009  11.832   1.298  10.847  0.0697 -0.9140 -0.7402
  208MOL0     C28010  11.946   1.285  10.797 -0.0072 -0.3047 -0.1731
  208MOL0     C28011  11.471   1.706  10.924 -0.2278 -0.5409 -0.1427
  208MOL0     C28012  11.388   1.747  10.812  0.2554 -0.4067 -0.1368
  208MOL0     H28013  11.111   1.733  10.368 -1.2197 -1.2461 -1.6913
  208MOL0     H28014  10.938   1.825  10.220  3.2201 -2.8367  0.0513
  208MOL0     H28015  10.753   1.913  10.116  3.1783 -1.8155  2.4887
  208MOL0     H28016  10.654   1.777  10.173 -0.9261 -0.1846  0.1217
  208MOL0     H28017  10.534   1.963  10.032 -0.6710  2.5951 -0.6138
  208MOL0     H28018  10.459   1.935  10.194 -0.8943 -0.1531 -1.3807
  208MOL0     H28019  10.546   2.126  10.270  0.4201 -1.5763  1.3915
  208MOL0     H28020  10.677   2.143  10.151 -1.1350  2.7506  2.2970
  208MOL0     H28021  10.495   2.185   9.973 -1.2426 -0.1628 -0.3117
  208MOL0     H28022  10.375   2.175  10.097  1.2046 -1.5058  3.8637
  208MOL0     H28023  10.410   2.393  10.067  1.3363 -0.8394 -0.2982
  208MOL0     H28024  10.489   2.349  10.230  0.0876 -3.9262  0.5946
  208MOL0     H28025  10.707   2.360  10.137  0.6407  0.4650  0.1495
  208MOL0     H28026  10.651   2.380   9.978 -2.7735  0.1840 -1.3043
  208MOL0     H28027  10.536   2.605  10.054 -1.1671 -0.6484  1.2691
  208MOL0     H28028  10.606   2.591  10.213  1.7168 -1.7015  1.2122
  208MOL0     H28029  10.762   2.586   9.963  0.4089  1.6124 -0.4010
  208MOL0     H28030  10.836   2.574  10.125  0.0958  1.0045  1.5493
  208MOL0     H28031  10.660   2.829   9.879  0.5339 -2.0940  0.4216
  208MOL0     H28032  10.728   3.091   9.824  2.0742 -0.5571  0.8972
  208MOL0     H28033  10.573   3.082   9.911 -0.4147  0.4746  1.0533
  208MOL0     H28034  10.800   3.251   9.938 -0.3839 -0.4193 -1.4360
  208MOL0     H28035  10.708   3.215  10.093 -1.2711 -0.2953 -0.3012
  208MOL0     H28036  10.495   3.296   9.980 -0.8082  1.5458 -0.0030
  208MOL0     H28037  10.604   3.384   9.861 -1.0485  0.9962 -0.0618
  208MOL0     H28038  10.703   3.522  10.032  0.1204  0.4400  1.8924
  208MOL0     H28039  10.647   3.431  10.169 -2.1886  0.5693  1.6771
  208MOL0     H28040  10.708   3.664  10.204  1.3005  1.1292  0.0679
  208MOL0     H28041  10.793   3.830  10.371 -1.9702  0.2393  1.5392
  208MOL0     H28042  10.807   3.964  10.264  0.2278 -0.1293  0.1573
  208MOL0     H28043  10.693   3.977  10.392 -0.2812  0.6460  0.6207
  208MOL0     H28044  10.497   4.265   9.923 -0.1431  2.9510 -2.6351
  208MOL0     H28045  10.479   4.510   9.891  3.9757  1.2485  2.0837
  208MOL0     H28046  10.165   4.708  10.084 -1.0576  0.8595 -2.6765
  208MOL0     H28047  10.286   4.784  10.185  0.6305 -0.7370  0.9229
  208MOL0     H28048  10.163   4.880   9.928 -0.6566 -1.4793 -0.7218
  208MOL0     H28049  10.193   4.960  10.075 -0.3833 -1.4628 -0.1839
  208MOL0     H28050  10.384   4.876   9.857  2.5762  1.5554 -1.8340
  208MOL0     H28051  10.470   4.926  10.006  2.8967  1.8216 -4.2382
  208MOL0     H28052  10.295   5.125   9.857  0.6983  3.0251  0.5915
  208MOL0     H28053  10.364   5.146  10.011 -2.6348 -1.8082  0.2056
  208MOL0     H28054  10.498   5.267   9.851 -0.6327 -0.0235 -0.2441
  208MOL0     H28055  10.545   5.136   9.759  4.5511  2.9003  1.1308
  208MOL0     H28056  10.599   5.168  10.050 -0.4334  2.1999 -1.9064
  208MOL0     H28057  10.646   5.025   9.966  0.5514 -0.5612 -3.4249
  208MOL0     H28058  10.758   5.178   9.801 -0.0097 -0.7503 -0.1232
  208MOL0     H28059  10.837   5.133   9.956 -2.0133 -1.5702  1.2503
  208MOL0     H28060  10.788   5.319  10.066  0.3782 -0.5098  0.7473
  208MOL0     H28061  10.678   5.386   9.931 -0.2826 -1.8823 -3.5223
  208MOL0     H28062  10.318   4.581  10.277  0.9582 -1.3760  2.5347
  208MOL0     H28063  10.340   4.325  10.327  2.7341  0.3479  2.3024
  208MOL0     H28064  10.311   3.948  10.111 -0.4501 -0.0124 -2.1915
  208MOL0     H28065  10.313   3.697  10.042  0.4104 -2.2916  1.4710
  208MOL0     H28066  10.657   1.844  10.549  1.1272  1.2057  3.6045
  208MOL0     H28067  10.838   1.749  10.694 -0.5673  2.4062 -0.3541
  208MOL0     H28068  11.093   1.592  10.886 -0.1960  0.6513 -2.6887
  208MOL0     H28069  11.217   1.529  11.075 -1.0849 -0.7856 -2.4217
  208MOL0     H28070  11.511   1.421  11.257 -3.3220  0.7348  2.2905
  208MOL0     H28071  11.367   1.405  11.164  0.0183  1.8838 -3.8767
  208MOL0     H28072  11.456   1.313  10.979 -0.5898 -1.9963  0.9880
  208MOL0     H28073  11.540   1.243  11.103 -1.3961  0.2647  0.9562
  208MOL0     H28074  11.753   1.378  11.066  0.2124  0.1834 -1.3706
  208MOL0     H28075  11.672   1.489  10.963  2.8498 -0.2646 -1.3030
  208MOL0     H28076  11.621   1.312  10.794 -1.4202 -1.0085  0.1016
  208MOL0     H28077  11.667   1.188  10.914 -0.4510  0.6531 -0.8972
  208MOL0     H28078  12.042   1.259  10.759  0.6373  1.5630  0.0921
  208MOL0     H28079  11.569   1.748  10.946  0.0451 -0.5986 -1.1981
  208MOL0     H28080  11.442   1.809  10.741 -0.7063  1.5436  0.7530
  209MOL0     O28081   5.916   2.616   7.510  0.0070  0.5742  0.8752
  209MOL0     C28082   5.998   2.692   7.561 -0.4045 -0.2328  0.2984
  209MOL0     O28083   6.077   2.668   7.674 -0.7508  0.1005  0.2619
  209MOL0     C28084   6.047   2.555   7.737 -0.5997  0.2287  0.8374
  209MOL0     C28085   5.988   2.580   7.866  0.6085  0.2334  0.2090
  209MOL0     C28086   5.956   2.467   7.955  0.5434  0.1986  0.7002
  209MOL0     C28087   5.974   2.337   7.909 -0.1200  0.8056  0.7854
  209MOL0     O28088   5.925   2.218   7.969 -1.2417 -0.4508 -0.3975
  209MOL0     C28089   5.816   2.231   8.057 -0.3757  0.5818  0.9990
  209MOL0     C28090   5.780   2.087   8.097  0.1529  0.0809 -0.0695
  209MOL0     C28091   5.700   2.087   8.234 -0.6941  0.3301  0.2315
  209MOL0     C28092   5.631   1.949   8.251 -0.1730  0.8894 -0.2028
  209MOL0     C28093   5.558   1.933   8.381  0.6601  0.8669 -0.4993
  209MOL0     C28094   5.446   1.830   8.370  0.7040 -0.1474  0.2956
  209MOL0     C28095   5.371   1.813   8.509 -0.3293  0.7748  0.0362
  209MOL0     C28096   5.412   1.685   8.577 -0.6348 -0.3871 -0.3544
  209MOL0     N28097   5.379   1.564   8.504  0.1887  0.8956  0.7231
  209MOL0     C28098   5.271   1.479   8.505  1.0107 -0.7486 -0.1406
  209MOL0     C28099   5.300   1.362   8.454  0.6664 -0.4475  0.5976
  209MOL0     C28100   5.200   1.250   8.452  0.5545 -0.1840 -0.4651
  209MOL0     C28101   5.197   1.189   8.593  0.6720  0.2419 -0.2449
  209MOL0     C28102   5.070   1.109   8.609 -0.1677  0.4385 -0.6851
  209MOL0     C28103   5.046   1.074   8.754  0.7438  0.5477 -1.1641
  209MOL0     O28104   4.908   1.018   8.771  0.5260  0.1741 -0.6138
  209MOL0     C28105   4.877   0.894   8.718 -0.1215 -0.0237 -0.4059
  209MOL0     C28106   4.967   0.793   8.697 -1.6390  0.0894 -0.1888
  209MOL0     C28107   4.941   0.668   8.657  0.3698  0.4903  0.0459
  209MOL0     C28108   5.061   0.578   8.632  0.2051  0.6114 -1.1586
  209MOL0     C28109   4.806   0.631   8.648 -0.0677  0.2080  0.1804
  209MOL0     C28110   4.746   0.491   8.612  0.9504 -0.7581 -0.5256
  209MOL0     O28111   4.611   0.476   8.630  0.4316  0.4413  0.4699
  209MOL0     C28112   4.564   0.345   8.600  0.5733 -0.2210 -0.3232
  209MOL0     C28113   4.573   0.303   8.467 -0.3023 -1.2511  0.6253
  209MOL0     C28114   4.497   0.201   8.423  0.6667 -0.0399 -0.1759
  209MOL0     C28115   4.418   0.124   8.519 -1.0327  0.5062 -0.2028
  209MOL0     O28116   4.336   0.030   8.470 -0.2251 -0.4639  0.2854
  209MOL0     C28117   4.207   0.040   8.523  0.0624 -0.8876  0.0793
  209MOL0     C28118   4.109  -0.045   8.435 -0.5024 -0.2396  0.3071
  209MOL0     C28119   4.120  -0.193   8.452 -0.4134 -0.8662 -0.7887
  209MOL0     C28120   4.016  -0.237   8.566 -0.3193  0.3240  0.0387
  209MOL0     C28121   3.882  -0.260   8.506 -0.7124 -0.1124 -0.2011
  209MOL0     C28122   3.787  -0.296   8.618  0.5105  0.1860  0.0595
  209MOL0     C28123   3.640  -0.318   8.570  0.8061  1.0423 -0.2792
  209MOL0     C28124   3.620  -0.408   8.448 -0.0751  0.3791 -0.2746
  209MOL0    Cl28125   3.447  -0.407   8.402 -0.1370 -0.4603  0.4452
  209MOL0     C28126   4.426   0.164   8.663 -0.9182  0.2859 -0.1605
  209MOL0     C28127   4.496   0.270   8.701  0.3553 -0.3088 -0.2853
  209MOL0     O28128   4.820   0.395   8.590  0.1914 -0.3919  0.1653
  209MOL0     C28129   4.708   0.735   8.672  0.4987  1.2178 -0.2503
  209MOL0     C28130   4.740   0.864   8.700 -0.5594 -0.7506  0.1335
  209MOL0     N28131   5.428   1.375   8.395 -0.4818  0.4453 -0.8281
  209MOL0     N28132   5.479   1.492   8.437  0.2587 -0.5185  1.1461
  209MOL0     C28133   6.035   2.323   7.785  0.6264  0.7461  0.6188
  209MOL0     C28134   6.087   2.428   7.709 -0.3445  0.6809  0.0204
  209MOL0     C28135   6.026   2.822   7.494 -0.9219 -0.0965 -0.4383
  209MOL0     C28136   6.145   2.901   7.506  0.4459 -0.7099 -0.9212
  209MOL0     C28137   6.162   3.023   7.440 -0.0354 -0.9359  0.0060
  209MOL0     C28138   6.046   3.076   7.376 -0.1227 -0.0837 -0.1150
  209MOL0     O28139   6.045   3.199   7.312  0.0162  0.5188 -0.9908
  209MOL0     C28140   6.142   3.300   7.336  0.0101  0.6542  0.6086
  209MOL0     C28141   6.252   3.306   7.226 -0.2812  0.2412  0.3940
  209MOL0     C28142   6.330   3.437   7.225 -0.4112  0.1932 -0.2959
  209MOL0     C28143   6.476   3.426   7.215  0.3965  0.8213 -0.4452
  209MOL0     C28144   6.525   3.350   7.340 -0.0493  0.6767  0.5289
  209MOL0     C28145   6.577   3.300   7.444  1.2117  0.6483 -0.8577
  209MOL0     C28146   5.930   3.005   7.363  0.4220  0.7956 -1.6035
  209MOL0     C28147   5.926   2.876   7.413 -0.1611 -1.1615  0.3617
  209MOL0     H28148   5.939   2.673   7.890  0.7406  0.8549 -1.7110
  209MOL0     H28149   5.905   2.480   8.049  0.0023 -1.1826  0.6163
  209MOL0     H28150   5.832   2.294   8.145 -0.7926  2.4103 -0.1752
  209MOL0     H28151   5.737   2.282   8.001 -0.8685 -0.3532  0.8165
  209MOL0     H28152   5.722   2.036   8.020 -0.1421 -0.1810  0.3239
  209MOL0     H28153   5.880   2.046   8.108  0.6476  0.9310 -1.2074
  209MOL0     H28154   5.777   2.099   8.311  1.6417 -2.2735 -1.4797
  209MOL0     H28155   5.616   2.157   8.240 -1.8334 -0.4215 -3.9378
  209MOL0     H28156   5.555   1.934   8.173  1.2131  0.0767 -1.4619
  209MOL0     H28157   5.712   1.875   8.244 -0.7715  0.3449 -2.0463
  209MOL0     H28158   5.616   1.902   8.468 -0.2668  0.9961  0.1753
  209MOL0     H28159   5.505   2.027   8.400 -1.0253 -0.6744  3.4449
  209MOL0     H28160   5.378   1.851   8.287 -1.9592 -0.2360  2.3069
  209MOL0     H28161   5.494   1.733   8.354 -1.6600 -1.2008 -0.8212
  209MOL0     H28162   5.404   1.899   8.569  1.0037 -1.8003  3.3346
  209MOL0     H28163   5.262   1.808   8.508 -0.3303  0.1435  1.3695
  209MOL0     H28164   5.365   1.675   8.675  2.7285  2.0387  1.7291
  209MOL0     H28165   5.521   1.688   8.584 -0.7224  0.3687  1.3861
  209MOL0     H28166   5.179   1.498   8.558  0.3709 -0.3558 -1.3619
  209MOL0     H28167   5.101   1.281   8.418 -0.3296 -0.5519  1.6652
  209MOL0     H28168   5.226   1.169   8.382 -1.5517 -0.9024 -0.4955
  209MOL0     H28169   5.180   1.274   8.658 -2.0445 -1.4206  1.3908
  209MOL0     H28170   5.277   1.119   8.622 -0.3572 -0.8002  0.1571
  209MOL0     H28171   5.092   1.026   8.541  1.3141  0.7787 -0.6660
  209MOL0     H28172   4.985   1.162   8.567 -0.4059  1.1716  0.6721
  209MOL0     H28173   5.043   1.163   8.817  1.2569 -0.7345  0.7566
  209MOL0     H28174   5.127   1.021   8.803  1.6211  3.1386  0.3478
  209MOL0     H28175   5.071   0.808   8.723 -1.7579 -0.2107  0.4956
  209MOL0     H28176   5.068   0.493   8.700 -0.5590  1.4177 -0.0051
  209MOL0     H28177   5.064   0.538   8.531 -1.7783 -0.7710 -0.7240
  209MOL0     H28178   5.156   0.632   8.636  1.1096 -0.8483  3.7135
  209MOL0     H28179   4.621   0.379   8.406 -0.8152 -1.0610  0.4488
  209MOL0     H28180   4.479   0.162   8.323 -2.1132  1.3845 -0.3359
  209MOL0     H28181   4.211  -0.001   8.625  1.0445 -2.4980 -0.5722
  209MOL0     H28182   4.163   0.140   8.516  1.2173 -0.4732 -1.8087
  209MOL0     H28183   4.013  -0.006   8.472 -0.8426 -1.7894  1.1210
  209MOL0     H28184   4.100  -0.000   8.335 -2.6544 -1.2022  0.0015
  209MOL0     H28185   4.216  -0.222   8.495 -0.4951 -2.4554 -1.5978
  209MOL0     H28186   4.104  -0.246   8.358 -0.6912  2.2392 -2.6128
  209MOL0     H28187   4.067  -0.321   8.613  2.4718  1.6194 -0.4739
  209MOL0     H28188   4.009  -0.162   8.646 -1.0271 -0.7941  1.0568
  209MOL0     H28189   3.895  -0.337   8.429  1.4228 -3.2729  2.9683
  209MOL0     H28190   3.847  -0.169   8.458  2.1822  1.2111 -0.0091
  209MOL0     H28191   3.812  -0.386   8.675  1.3724 -0.4525 -1.2803
  209MOL0     H28192   3.789  -0.206   8.680 -1.1659  1.2459 -1.3219
  209MOL0     H28193   3.599  -0.223   8.535  1.1307  0.2699 -2.9743
  209MOL0     H28194   3.574  -0.357   8.648  1.5754  0.9869  0.3566
  209MOL0     H28195   3.658  -0.508   8.471 -1.8682 -0.1872  0.3637
  209MOL0     H28196   3.687  -0.374   8.369 -1.2794  1.1721 -0.9815
  209MOL0     H28197   4.388   0.095   8.737 -0.0331 -2.0453 -1.7393
  209MOL0     H28198   4.503   0.310   8.802 -1.7354  0.6755 -0.4658
  209MOL0     H28199   4.602   0.714   8.663  0.3550  0.9738  1.5693
  209MOL0     H28200   4.667   0.943   8.714 -1.3419 -1.6163  1.1573
  209MOL0     H28201   6.071   2.226   7.752  2.2166  1.6570 -0.4071
  209MOL0     H28202   6.158   2.409   7.629  1.8153 -1.4981  2.2761
  209MOL0     H28203   6.216   2.860   7.577  0.6047  2.1881  0.7319
  209MOL0     H28204   6.253   3.082   7.444 -0.5244 -0.2081  0.4582
  209MOL0     H28205   6.087   3.394   7.325  0.7958  0.8110 -3.2210
  209MOL0     H28206   6.178   3.305   7.439  0.0778  2.4166  0.5239
  209MOL0     H28207   6.204   3.280   7.131  1.6801 -1.1617 -0.2915
  209MOL0     H28208   6.325   3.226   7.245 -2.0456 -1.9789 -1.5338
  209MOL0     H28209   6.302   3.494   7.314 -0.1828 -1.2189  0.7282
  209MOL0     H28210   6.287   3.496   7.143  2.0960 -0.6174 -2.3455
  209MOL0     H28211   6.536   3.518   7.215  1.5937  0.0676 -0.9808
  209MOL0     H28212   6.516   3.384   7.122  5.0339  0.5313  1.3778
  209MOL0     H28213   6.625   3.255   7.529 -0.5198  0.5933  0.1196
  209MOL0     H28214   5.841   3.046   7.316 -1.3931 -1.5502 -0.4202
  209MOL0     H28215   5.827   2.841   7.386 -0.6819 -1.0612  2.0263
  210MOL0     O28216   7.054  10.948   1.621 -0.5328 -0.0228 -0.0009
  210MOL0     C28217   6.939  10.921   1.660 -0.0963 -0.5391 -0.1469
  210MOL0     O28218   6.873  10.809   1.634  0.1599 -0.2798  0.0764
  210MOL0     C28219   6.933  10.706   1.576 -0.0802 -0.2133 -0.1183
  210MOL0     C28220   6.851  10.629   1.496  0.1412  1.2483 -0.3970
  210MOL0     C28221   6.898  10.507   1.441  0.2709  0.4224 -0.1740
  210MOL0     C28222   7.029  10.456   1.477  0.3828 -1.2305  1.1406
  210MOL0     O28223   7.069  10.336   1.426 -0.1127  0.3028  0.2144
  210MOL0     C28224   6.983  10.250   1.347  0.1927 -0.5000  0.3453
  210MOL0     C28225   7.075  10.147   1.283 -0.4427  1.1156 -0.1705
  210MOL0     C28226   7.000  10.045   1.198  0.3292  0.7282  0.1967
  210MOL0     C28227   7.096   9.984   1.087  0.1580  0.4825  0.3634
  210MOL0     C28228   7.221   9.913   1.128 -0.1557  0.7214  0.1218
  210MOL0     C28229   7.185   9.776   1.173  0.6737  0.0003  0.0252
  210MOL0     C28230   7.304   9.701   1.237  0.6068  0.6958  0.7217
  210MOL0     C28231   7.432   9.697   1.159 -0.2563  0.1939  0.3469
  210MOL0     N28232   7.545   9.633   1.234 -0.0857  1.3035 -0.8097
  210MOL0     C28233   7.634   9.694   1.320  0.1208 -0.3902 -0.1740
  210MOL0     C28234   7.722   9.598   1.353 -0.3593  0.8216  0.4479
  210MOL0     C28235   7.839   9.625   1.443  1.5667 -1.0591  0.7437
  210MOL0     C28236   7.819   9.554   1.574  0.1767  0.2093  0.1265
  210MOL0     C28237   7.852   9.406   1.582  0.4520  0.4107 -0.2766
  210MOL0     C28238   7.857   9.341   1.722  0.0269 -1.5654  1.0487
  210MOL0     O28239   7.882   9.201   1.707  0.1983  0.7573 -0.6377
  210MOL0     C28240   7.768   9.117   1.691 -1.1126 -0.0816 -0.3780
  210MOL0     C28241   7.778   8.979   1.710  0.3810  0.3220  0.2234
  210MOL0     C28242   7.669   8.886   1.689  0.5762 -1.2321  0.2668
  210MOL0     C28243   7.708   8.748   1.686  0.2936  0.7621 -0.1330
  210MOL0     C28244   7.540   8.950   1.658  0.0086  0.3124 -0.4107
  210MOL0     C28245   7.424   8.865   1.615 -0.9061 -0.3709 -0.2537
  210MOL0     O28246   7.331   8.932   1.544 -0.5222  0.5748  0.0755
  210MOL0     C28247   7.223   8.871   1.498  0.6310 -0.0615  0.1803
  210MOL0     C28248   7.223   8.804   1.371 -1.2588  0.1246  0.9464
  210MOL0     C28249   7.110   8.745   1.323  0.3553 -0.0705  0.1663
  210MOL0     C28250   6.992   8.749   1.396  0.1490  0.8389  0.1426
  210MOL0     O28251   6.874   8.674   1.383 -0.1009  0.3297  0.4227
  210MOL0     C28252   6.875   8.575   1.289 -0.3127  0.6831 -0.5224
  210MOL0     C28253   6.832   8.629   1.157 -0.5404  0.1628  0.3153
  210MOL0     C28254   6.830   8.521   1.048 -0.1803 -0.2092  0.2567
  210MOL0     C28255   6.737   8.571   0.929 -0.5338  0.4928  0.1240
  210MOL0     C28256   6.774   8.506   0.793 -0.3662  0.3137  0.6739
  210MOL0     C28257   6.758   8.359   0.813  0.4515  0.9131 -0.0657
  210MOL0     C28258   6.749   8.303   0.675 -0.3047  0.5552 -0.4060
  210MOL0     C28259   6.691   8.163   0.683 -0.5399 -0.8193  0.0690
  210MOL0    Cl28260   6.797   8.056   0.777 -0.2021 -0.0217  0.0758
  210MOL0     C28261   6.987   8.815   1.518 -0.3706  0.1606  0.6711
  210MOL0     C28262   7.099   8.879   1.564  0.2216  0.6186 -0.0894
  210MOL0     O28263   7.411   8.754   1.676  0.4839 -0.2426  0.5796
  210MOL0     C28264   7.532   9.087   1.648 -0.1479  0.1225  0.6932
  210MOL0     C28265   7.641   9.169   1.663 -0.0334  0.3810 -0.4294
  210MOL0     N28266   7.677   9.482   1.294 -0.3271 -0.5350 -0.8751
  210MOL0     N28267   7.577   9.502   1.218 -0.6466 -0.4388 -0.1660
  210MOL0     C28268   7.107  10.529   1.565 -0.3741 -1.4819 -0.6576
  210MOL0     C28269   7.065  10.658   1.604 -0.0356  0.9864  0.3492
  210MOL0     C28270   6.865  11.024   1.745  0.0141  0.1393  1.3965
  210MOL0     C28271   6.915  11.151   1.767 -1.0694 -0.5219  0.8420
  210MOL0     C28272   6.851  11.248   1.850  0.1060  0.8317  0.2895
  210MOL0     C28273   6.717  11.217   1.894 -0.7922 -0.5413 -0.2238
  210MOL0     O28274   6.634  11.294   1.969 -0.3558  0.4210  0.0230
  210MOL0     C28275   6.675  11.427   1.994  0.6730  0.2136  0.7766
  210MOL0     C28276   6.562  11.490   2.072 -0.1863  0.3536 -0.5207
  210MOL0     C28277   6.443  11.516   1.988 -0.3808  0.6014 -0.6814
  210MOL0     C28278   6.352  11.628   2.057  0.4748 -0.1855  0.2142
  210MOL0     C28279   6.234  11.658   1.970 -0.2641 -0.4564  0.1131
  210MOL0     C28280   6.141  11.694   1.904 -0.3775 -0.0865  1.3796
  210MOL0     C28281   6.654  11.112   1.861 -1.1681 -0.2586 -0.6542
  210MOL0     C28282   6.724  11.012   1.789 -1.4774  0.5091 -0.0523
  210MOL0     H28283   6.744  10.646   1.484 -0.3453 -1.1790 -0.0740
  210MOL0     H28284   6.826  10.439   1.399 -1.2474  2.1921 -0.5753
  210MOL0     H28285   6.901  10.203   1.403  0.0633 -1.1944 -0.4070
  210MOL0     H28286   6.938  10.318   1.273  0.0134  2.6391  3.0834
  210MOL0     H28287   7.150  10.199   1.223  0.4429  0.6826  0.5499
  210MOL0     H28288   7.124  10.093   1.364  1.3939  1.8627 -0.7339
  210MOL0     H28289   6.962   9.956   1.250 -3.0146 -1.1588 -4.6870
  210MOL0     H28290   6.918  10.099   1.151  2.2299  3.5001 -0.1660
  210MOL0     H28291   7.036   9.914   1.029  0.2092 -1.2018  2.2352
  210MOL0     H28292   7.108  10.067   1.017 -3.2192  0.9995  0.2346
  210MOL0     H28293   7.283   9.912   1.038 -3.1186 -0.3461 -2.0647
  210MOL0     H28294   7.269   9.960   1.215  1.6535 -1.0080  0.1522
  210MOL0     H28295   7.095   9.776   1.235 -1.4670  0.2669 -2.8626
  210MOL0     H28296   7.165   9.723   1.080  1.6202  5.0221 -3.4389
  210MOL0     H28297   7.337   9.738   1.334  2.3779 -1.2942  0.9543
  210MOL0     H28298   7.282   9.596   1.259  2.8117 -1.2225 -4.4593
  210MOL0     H28299   7.453   9.800   1.128 -1.6040  0.2059 -0.5886
  210MOL0     H28300   7.427   9.648   1.062  3.4948  0.5332 -0.1663
  210MOL0     H28301   7.641   9.796   1.357  0.3776 -0.8823  1.1848
  210MOL0     H28302   7.934   9.590   1.401  2.2450  0.4457  0.9524
  210MOL0     H28303   7.845   9.733   1.455 -0.4052 -0.7776 -0.3147
  210MOL0     H28304   7.718   9.574   1.610 -0.4126  0.6922 -1.7032
  210MOL0     H28305   7.892   9.611   1.633  2.4034 -0.6183 -1.6919
  210MOL0     H28306   7.952   9.402   1.538  2.1672  2.5193  2.9753
  210MOL0     H28307   7.779   9.351   1.522  0.2267  1.3767 -0.9155
  210MOL0     H28308   7.766   9.376   1.771  0.9302 -0.1094  1.7785
  210MOL0     H28309   7.941   9.382   1.778  0.1207  0.0537 -0.2200
  210MOL0     H28310   7.882   8.954   1.722  0.3676 -0.6398 -1.4236
  210MOL0     H28311   7.640   8.669   1.720  0.8170  0.7977  1.0464
  210MOL0     H28312   7.721   8.722   1.580 -5.0541 -1.9869 -0.4414
  210MOL0     H28313   7.801   8.739   1.742 -0.4413 -2.2769  0.7625
  210MOL0     H28314   7.306   8.800   1.301 -1.6590 -0.9118  0.5175
  210MOL0     H28315   7.111   8.697   1.225  1.4978  0.1298  0.0649
  210MOL0     H28316   6.973   8.527   1.281  1.0694  3.2097  0.0610
  210MOL0     H28317   6.794   8.511   1.325 -0.3064  0.6055 -0.6483
  210MOL0     H28318   6.746   8.697   1.160  2.8881  5.0902 -0.8526
  210MOL0     H28319   6.908   8.702   1.127 -0.7503  0.5818  0.7939
  210MOL0     H28320   6.786   8.427   1.083  2.0021 -1.3167  0.1434
  210MOL0     H28321   6.928   8.509   1.002 -1.3527 -0.5602 -2.3168
  210MOL0     H28322   6.640   8.539   0.968  0.1762 -0.7837  0.9126
  210MOL0     H28323   6.743   8.680   0.922  0.4073  0.4474  0.0851
  210MOL0     H28324   6.876   8.539   0.774 -0.3033  1.4282  2.6316
  210MOL0     H28325   6.702   8.546   0.721 -2.5010 -3.5127  0.3938
  210MOL0     H28326   6.844   8.316   0.865 -0.2008 -3.0305 -1.8959
  210MOL0     H28327   6.669   8.328   0.868 -0.0864 -0.7090 -1.7597
  210MOL0     H28328   6.845   8.293   0.624  0.5961 -4.2748  1.6983
  210MOL0     H28329   6.680   8.362   0.614 -0.5229  0.1120 -0.5911
  210MOL0     H28330   6.682   8.119   0.583 -1.7874 -1.9002  0.6190
  210MOL0     H28331   6.589   8.161   0.724  0.4908  0.8070  2.9787
  210MOL0     H28332   6.898   8.815   1.580 -2.0114  1.6512 -1.5516
  210MOL0     H28333   7.097   8.926   1.662  1.7987  1.2147 -0.3038
  210MOL0     H28334   7.440   9.137   1.621 -0.4018 -0.9904 -0.6470
  210MOL0     H28335   7.608   9.268   1.633 -1.3490 -0.6334 -2.4879
  210MOL0     H28336   7.202  10.487   1.595  0.5975  0.5709 -0.7479
  210MOL0     H28337   7.135  10.711   1.669  1.2049  0.1169 -0.2363
  210MOL0     H28338   7.015  11.174   1.733 -1.0160 -0.3942  1.0765
  210MOL0     H28339   6.896  11.341   1.883 -2.6079  2.7824 -1.1417
  210MOL0     H28340   6.763  11.430   2.059 -0.4799 -0.5809  2.4455
  210MOL0     H28341   6.699  11.475   1.898 -0.2146  0.3211  0.6024
  210MOL0     H28342   6.593  11.581   2.124  0.2354  0.1546 -0.4208
  210MOL0     H28343   6.533  11.438   2.165  2.3103  2.6553  1.7147
  210MOL0     H28344   6.390  11.420   1.981 -0.4758  0.2897  2.5136
  210MOL0     H28345   6.472  11.561   1.893  2.7712  2.9039  1.1810
  210MOL0     H28346   6.416  11.716   2.066  3.5761 -2.1281 -0.9061
  210MOL0     H28347   6.325  11.608   2.161 -0.7757 -0.4440 -0.1422
  210MOL0     H28348   6.074  11.720   1.825  2.9271  1.4005 -1.1740
  210MOL0     H28349   6.552  11.091   1.890 -0.1976 -1.3220  2.3431
  210MOL0     H28350   6.673  10.917   1.772 -0.2835 -0.2170  0.3036
  211MOL0     O28351  11.489   8.657   0.261 -0.0868 -0.6018 -1.0122
  211MOL0     C28352  11.602   8.712   0.245 -0.6234  0.3674  0.1338
  211MOL0     O28353  11.702   8.674   0.165  0.2726  0.5302 -0.6490
  211MOL0     C28354  11.688   8.562   0.091 -0.0420  0.2171  0.5541
  211MOL0     C28355  11.659   8.437   0.141 -0.2893  0.4608  1.0603
  211MOL0     C28356  11.653   8.328   0.055  0.7362 -0.2251  0.2369
  211MOL0     C28357  11.683   8.337  -0.080  0.9128 -0.0108  0.5380
  211MOL0     O28358  11.675   8.231  -0.177  0.0211 -0.2586 -0.2298
  211MOL0     C28359  11.601   8.119  -0.125 -0.2144  0.7962 -0.0331
  211MOL0     C28360  11.661   8.009  -0.026  0.8764 -0.0527  0.5270
  211MOL0     C28361  11.804   8.001  -0.055 -0.9526  0.0180  0.1172
  211MOL0     C28362  11.867   7.899   0.042  0.6973 -0.1801 -1.1131
  211MOL0     C28363  12.013   7.880   0.025 -0.6364  0.2424  0.2170
  211MOL0     C28364  12.054   7.777   0.138  0.7310  0.9972  0.7964
  211MOL0     C28365  12.004   7.626   0.111  0.1445 -0.0788  0.2785
  211MOL0     C28366  12.083   7.530   0.207  0.1687 -0.0491  0.0563
  211MOL0     N28367  12.027   7.538   0.343 -0.8625 -0.5366  0.3457
  211MOL0     C28368  12.121   7.548   0.443 -0.0653  0.1300  0.0585
  211MOL0     C28369  12.045   7.573   0.553  0.1043  0.1621 -1.3244
  211MOL0     C28370  12.097   7.629   0.688 -0.0477 -0.0806  0.1782
  211MOL0     C28371  12.131   7.781   0.682  0.5471  0.5546 -0.0501
  211MOL0     C28372  12.106   7.845   0.821  0.0157 -0.0174  0.1179
  211MOL0     C28373  12.215   7.941   0.862  0.4891  0.2311 -0.2151
  211MOL0     O28374  12.183   7.981   1.000 -0.8797  0.2717  0.7663
  211MOL0     C28375  12.278   8.045   1.073  1.0502  0.0635 -0.2171
  211MOL0     C28376  12.247   8.081   1.207 -1.1010  0.3675 -0.0939
  211MOL0     C28377  12.338   8.155   1.280 -0.4564 -0.4894 -0.6142
  211MOL0     C28378  12.291   8.179   1.421  0.6273  0.2168 -0.5898
  211MOL0     C28379  12.465   8.191   1.230  0.6331  1.1280 -0.4559
  211MOL0     C28380  12.579   8.260   1.305 -1.1791  0.5824 -0.1286
  211MOL0     O28381  12.663   8.344   1.235  0.3961  0.9327  0.0325
  211MOL0     C28382  12.759   8.414   1.303  1.2814  0.4694 -1.1772
  211MOL0     C28383  12.766   8.548   1.282  0.1730  0.6946 -0.2485
  211MOL0     C28384  12.867   8.622   1.339  0.0552 -0.5181  0.1771
  211MOL0     C28385  12.952   8.572   1.431  0.9330  0.0511  0.7645
  211MOL0     O28386  13.037   8.661   1.494 -0.9399 -0.3601 -0.4692
  211MOL0     C28387  13.055   8.645   1.634 -0.3633  0.6238  1.0562
  211MOL0     C28388  13.138   8.759   1.685 -0.1965  0.0960 -0.7002
  211MOL0     C28389  13.049   8.858   1.755  0.3989  0.3445  0.2478
  211MOL0     C28390  13.131   8.960   1.834  0.5494  0.6797  0.2625
  211MOL0     C28391  13.227   8.895   1.935 -0.2012  0.0963  0.7757
  211MOL0     C28392  13.266   8.989   2.051 -0.5743 -0.4671  0.2990
  211MOL0     C28393  13.305   8.922   2.182 -0.7300  0.0831  0.0627
  211MOL0     C28394  13.323   9.020   2.299 -0.4104  0.3222 -0.8535
  211MOL0    Cl28395  13.470   9.114   2.288  0.4032  0.5268  0.2205
  211MOL0     C28396  12.948   8.441   1.468  0.0427  0.4956  0.4614
  211MOL0     C28397  12.850   8.362   1.402  0.0187  0.2731  0.6844
  211MOL0     O28398  12.595   8.224   1.420  0.8235  0.5331  0.0532
  211MOL0     C28399  12.498   8.136   1.103  0.7806 -0.7360 -0.3356
  211MOL0     C28400  12.405   8.072   1.019  0.0983  0.4451 -0.4482
  211MOL0     N28401  11.913   7.581   0.524 -0.0260  0.4410  1.1123
  211MOL0     N28402  11.905   7.558   0.395 -0.0771 -0.2304 -0.3960
  211MOL0     C28403  11.706   8.464  -0.128 -2.0684  0.1429 -0.0875
  211MOL0     C28404  11.724   8.573  -0.044 -0.2265 -0.9736 -0.4197
  211MOL0     C28405  11.632   8.842   0.311  0.2553  1.2149 -0.7430
  211MOL0     C28406  11.766   8.881   0.329 -0.7065  0.5656  0.0785
  211MOL0     C28407  11.792   8.994   0.395 -0.0529  0.2523  0.4135
  211MOL0     C28408  11.696   9.081   0.447 -0.2632 -0.4526 -1.0312
  211MOL0     O28409  11.736   9.192   0.515 -0.7263 -0.4878 -0.2512
  211MOL0     C28410  11.659   9.316   0.524  0.8481 -0.3447  0.5330
  211MOL0     C28411  11.765   9.425   0.544  0.0974  0.1038 -0.2673
  211MOL0     C28412  11.682   9.560   0.538 -0.4304  0.8387 -0.3853
  211MOL0     C28413  11.739   9.650   0.645 -1.1033 -0.4567  0.0024
  211MOL0     C28414  11.667   9.621   0.767 -0.0096  0.4072  0.3128
  211MOL0     C28415  11.608   9.576   0.859  0.7103  0.5147 -0.6434
  211MOL0     C28416  11.566   9.036   0.445  0.0448 -0.2878  0.2802
  211MOL0     C28417  11.531   8.920   0.373 -0.4703 -0.5603  0.5396
  211MOL0     H28418  11.627   8.433   0.245  0.0705 -0.7630  1.1390
  211MOL0     H28419  11.633   8.231   0.099  0.6809 -0.4887 -0.3529
  211MOL0     H28420  11.511   8.153  -0.073 -0.0010  1.3371 -0.0074
  211MOL0     H28421  11.575   8.062  -0.214  2.0842 -0.5879  0.1097
  211MOL0     H28422  11.639   8.045   0.075  0.1730  4.8941 -1.0743
  211MOL0     H28423  11.610   7.914  -0.042  2.4298 -0.6005 -1.7331
  211MOL0     H28424  11.808   7.970  -0.160 -2.2159 -0.2383  0.1358
  211MOL0     H28425  11.856   8.095  -0.035  2.8336 -1.6485 -0.9855
  211MOL0     H28426  11.850   7.939   0.142 -0.1301 -0.6782 -1.0375
  211MOL0     H28427  11.816   7.803   0.029 -0.1355 -0.4527  2.8676
  211MOL0     H28428  12.035   7.845  -0.076  1.6563  0.8227  0.4578
  211MOL0     H28429  12.074   7.970   0.035  0.0079 -0.2162  0.5036
  211MOL0     H28430  12.163   7.777   0.145  0.7238  0.0053  1.1510
  211MOL0     H28431  12.005   7.814   0.228 -0.9056  1.2575 -0.1382
  211MOL0     H28432  11.897   7.606   0.104 -0.0096  1.3997 -3.0461
  211MOL0     H28433  12.045   7.608   0.012 -0.0703  0.4733  0.0839
  211MOL0     H28434  12.188   7.558   0.213  0.3094 -0.7053  0.7657
  211MOL0     H28435  12.053   7.429   0.177  0.9677 -1.1336  2.6835
  211MOL0     H28436  12.229   7.545   0.434 -0.0715  1.6632 -0.9320
  211MOL0     H28437  12.014   7.613   0.758 -0.8039  1.0496 -0.4273
  211MOL0     H28438  12.184   7.567   0.713  2.1292  1.4738 -2.9536
  211MOL0     H28439  12.073   7.824   0.600 -2.6313 -1.7257  0.8099
  211MOL0     H28440  12.235   7.793   0.652  0.7603  1.0156  0.8376
  211MOL0     H28441  12.097   7.770   0.900  0.5660  2.0941  2.3116
  211MOL0     H28442  12.009   7.895   0.818  0.8771  1.6716 -2.0564
  211MOL0     H28443  12.218   8.035   0.807 -1.2267 -0.9362 -2.5053
  211MOL0     H28444  12.303   7.876   0.855 -0.8992 -1.8969  0.9574
  211MOL0     H28445  12.161   8.037   1.256  1.1033 -2.0712  1.8734
  211MOL0     H28446  12.182   8.190   1.426 -0.1455 -5.1250  3.0063
  211MOL0     H28447  12.316   8.092   1.483 -2.1063 -1.4977 -1.7309
  211MOL0     H28448  12.341   8.264   1.470 -0.7583  1.0964 -0.6414
  211MOL0     H28449  12.709   8.594   1.202  1.1970  1.4670 -0.5640
  211MOL0     H28450  12.874   8.728   1.317 -1.1202  0.2189  2.9233
  211MOL0     H28451  12.958   8.640   1.685 -0.9329  2.2296  0.2218
  211MOL0     H28452  13.105   8.549   1.651  0.2089  0.1930 -2.2582
  211MOL0     H28453  13.213   8.712   1.749  2.4539  2.7160 -1.6793
  211MOL0     H28454  13.199   8.810   1.611  0.2949  0.4839 -0.0387
  211MOL0     H28455  12.981   8.811   1.826  0.4409  1.3843  1.0049
  211MOL0     H28456  12.982   8.906   1.684 -2.0497 -1.2287  1.3760
  211MOL0     H28457  13.179   9.016   1.753 -0.9978 -0.1918 -1.3126
  211MOL0     H28458  13.057   9.021   1.886 -1.2409  1.1333 -2.5886
  211MOL0     H28459  13.316   8.880   1.873 -0.8475  1.9251 -0.6845
  211MOL0     H28460  13.179   8.804   1.974  1.8579 -1.3667  0.0733
  211MOL0     H28461  13.346   9.048   2.007 -1.1657 -1.4915 -2.3252
  211MOL0     H28462  13.202   9.073   2.078 -0.3173  0.1571 -1.0022
  211MOL0     H28463  13.398   8.870   2.157 -0.5357  0.4456  0.0362
  211MOL0     H28464  13.236   8.842   2.213  1.0622 -0.0305  4.5608
  211MOL0     H28465  13.326   8.953   2.386  1.1684 -1.1182 -1.9613
  211MOL0     H28466  13.244   9.096   2.302  0.2162  1.0067  1.7808
  211MOL0     H28467  13.028   8.392   1.523 -0.7853  0.2827  1.4953
  211MOL0     H28468  12.845   8.259   1.434 -2.1209 -0.3873 -1.4646
  211MOL0     H28469  12.595   8.167   1.067  1.3294 -2.0437 -0.0615
  211MOL0     H28470  12.434   8.044   0.919 -1.1134 -2.8891  0.0178
  211MOL0     H28471  11.718   8.476  -0.236  2.3803  0.9819  0.2853
  211MOL0     H28472  11.755   8.671  -0.081 -1.4501 -1.1477 -2.0275
  211MOL0     H28473  11.852   8.821   0.301 -0.6957  0.5596  0.1253
  211MOL0     H28474  11.896   9.019   0.416 -0.6367  3.4707 -0.1750
  211MOL0     H28475  11.592   9.337   0.440 -2.0282  1.9287  3.1877
  211MOL0     H28476  11.597   9.306   0.613  1.6060  2.7952  1.5316
  211MOL0     H28477  11.835   9.423   0.460 -0.3422  0.7229 -0.6578
  211MOL0     H28478  11.826   9.406   0.632 -0.4596  2.7946  0.7899
  211MOL0     H28479  11.575   9.539   0.537  0.2323 -3.4659  0.3468
  211MOL0     H28480  11.715   9.606   0.444 -2.2835 -1.4430 -2.2938
  211MOL0     H28481  11.714   9.756   0.633  0.3042 -0.1114 -0.0757
  211MOL0     H28482  11.848   9.643   0.645 -1.0309 -0.1164 -2.0360
  211MOL0     H28483  11.566   9.521   0.940  0.3897 -3.7425 -3.4008
  211MOL0     H28484  11.488   9.081   0.505 -1.7736 -3.5903  0.6101
  211MOL0     H28485  11.433   8.874   0.364 -1.6452  1.9829 -0.9012
  212MOL0     O28486   7.806   9.368   4.815  0.2263 -0.7771  0.4675
  212MOL0     C28487   7.869   9.291   4.740  1.2234  0.7182 -0.0767
  212MOL0     O28488   8.001   9.300   4.729  0.5683  0.6536 -0.1596
  212MOL0     C28489   8.059   9.427   4.733  0.2245  0.7979 -0.7874
  212MOL0     C28490   8.024   9.524   4.641 -0.0737 -0.7791 -0.1879
  212MOL0     C28491   8.087   9.655   4.655  0.5094  0.1032  0.3406
  212MOL0     C28492   8.188   9.678   4.754  0.3574  0.8262  0.1243
  212MOL0     O28493   8.262   9.789   4.756  0.9255  0.4910 -0.0728
  212MOL0     C28494   8.407   9.778   4.772 -0.1222 -1.3965  0.1077
  212MOL0     C28495   8.486   9.872   4.673  0.2247 -0.2053  0.0246
  212MOL0     C28496   8.643   9.872   4.686 -1.1374  0.9532 -1.0609
  212MOL0     C28497   8.699   9.982   4.603 -0.7689 -0.3373 -0.1508
  212MOL0     C28498   8.851   9.987   4.615  0.0562  0.4397 -0.3460
  212MOL0     C28499   8.880  10.117   4.520 -0.4063  1.0827 -1.0638
  212MOL0     C28500   9.023  10.174   4.559 -0.2950  0.3898  0.4585
  212MOL0     C28501   9.137  10.091   4.515  0.1000  0.6224 -0.1949
  212MOL0     N28502   9.260  10.147   4.557 -0.2339 -0.5988  0.2285
  212MOL0     C28503   9.293  10.155   4.688 -0.5473 -0.2872 -0.3388
  212MOL0     C28504   9.400  10.241   4.685  0.6944 -0.1464  0.4507
  212MOL0     C28505   9.446  10.296   4.818 -0.5479  0.0831 -0.4772
  212MOL0     C28506   9.357  10.397   4.885  0.8351  0.7255 -0.3180
  212MOL0     C28507   9.407  10.445   5.021  0.6361 -0.6685  0.5656
  212MOL0     C28508   9.557  10.487   5.022  0.1993 -0.7968 -0.5594
  212MOL0     O28509   9.641  10.373   5.056  0.1889 -0.1295 -0.1298
  212MOL0     C28510   9.744  10.411   5.135  0.0516 -0.4360 -0.1411
  212MOL0     C28511   9.869  10.354   5.106  0.0424  0.2760 -0.0877
  212MOL0     C28512   9.981  10.390   5.180  0.7558 -0.4770 -0.2511
  212MOL0     C28513  10.109  10.328   5.139 -0.4763  0.1271  1.1813
  212MOL0     C28514   9.976  10.489   5.284 -2.0326  0.0201  0.3310
  212MOL0     C28515  10.099  10.539   5.353 -0.7763 -0.7704 -0.2949
  212MOL0     O28516  10.130  10.671   5.342 -0.1886  0.0727  0.5576
  212MOL0     C28517  10.234  10.726   5.408  0.2036  0.1699 -0.2233
  212MOL0     C28518  10.372  10.694   5.393  0.3817 -0.8386  0.5305
  212MOL0     C28519  10.472  10.753   5.464 -0.2041 -0.9309  0.5674
  212MOL0     C28520  10.442  10.850   5.562 -0.4121 -0.3647 -0.3334
  212MOL0     O28521  10.544  10.930   5.620  0.4325  0.7881  0.1297
  212MOL0     C28522  10.538  10.937   5.766 -0.1313  0.0346  0.6196
  212MOL0     C28523  10.644  10.863   5.847  1.1335  0.4170  0.1852
  212MOL0     C28524  10.614  10.853   5.995  0.5057 -1.5724  0.0127
  212MOL0     C28525  10.732  10.803   6.086  0.1371  0.1113 -0.2278
  212MOL0     C28526  10.694  10.802   6.227 -0.0057  0.4377  1.0146
  212MOL0     C28527  10.772  10.692   6.304  0.5972 -0.2395  0.6504
  212MOL0     C28528  10.708  10.661   6.450  0.7643 -0.9765  0.5204
  212MOL0     C28529  10.740  10.528   6.517 -0.4138  0.7331 -0.0970
  212MOL0    Cl28530  10.637  10.516   6.662  0.4121  0.3037  0.1517
  212MOL0     C28531  10.314  10.890   5.587  0.3466  0.5650 -0.9935
  212MOL0     C28532  10.207  10.818   5.519  1.1332 -0.4065  1.3674
  212MOL0     O28533  10.151  10.458   5.431  0.1687 -0.5361 -0.1803
  212MOL0     C28534   9.857  10.540   5.311 -0.9269 -0.1152 -0.8316
  212MOL0     C28535   9.739  10.495   5.247 -0.0265  0.2888  0.5946
  212MOL0     N28536   9.436  10.275   4.557  0.7819 -0.1366  0.3258
  212MOL0     N28537   9.348  10.218   4.481 -0.5834  0.0880 -0.3707
  212MOL0     C28538   8.219   9.575   4.845 -0.7529  0.7175 -1.0076
  212MOL0     C28539   8.150   9.463   4.836 -0.1190  0.2716 -0.1972
  212MOL0     C28540   7.776   9.187   4.681 -1.0897  0.2715  0.8131
  212MOL0     C28541   7.835   9.075   4.623 -0.0291 -0.2539 -0.3330
  212MOL0     C28542   7.749   8.974   4.576 -0.8471 -0.2082 -0.0211
  212MOL0     C28543   7.614   8.983   4.593 -0.0684  0.1958 -0.4164
  212MOL0     O28544   7.529   8.892   4.531  0.6263 -0.2792 -0.2005
  212MOL0     C28545   7.574   8.760   4.495  0.4902 -0.7172  0.5620
  212MOL0     C28546   7.627   8.767   4.346  0.4108 -0.0074 -0.1362
  212MOL0     C28547   7.589   8.659   4.229  1.1585 -0.3704 -0.2029
  212MOL0     C28548   7.642   8.515   4.265 -0.6412  1.1186 -0.8672
  212MOL0     C28549   7.569   8.454   4.368 -0.3888 -0.4954  0.5109
  212MOL0     C28550   7.490   8.411   4.445  0.8489 -0.9892 -0.4617
  212MOL0     C28551   7.559   9.100   4.640 -0.2282  0.1982 -0.0014
  212MOL0     C28552   7.636   9.203   4.683 -0.1038  0.3364  0.1234
  212MOL0     H28553   7.959   9.506   4.556  0.9165  0.5306 -1.2637
  212MOL0     H28554   8.065   9.730   4.580 -3.8133 -1.2816 -0.0680
  212MOL0     H28555   8.426   9.818   4.872  0.8518  0.1797 -0.6840
  212MOL0     H28556   8.447   9.677   4.760 -2.4330 -2.0580 -3.2076
  212MOL0     H28557   8.454   9.832   4.576 -0.6446  0.9331 -0.1746
  212MOL0     H28558   8.446   9.973   4.683  0.6898 -0.2457  4.2737
  212MOL0     H28559   8.675   9.893   4.788  0.2773  1.7349 -1.6256
  212MOL0     H28560   8.681   9.771   4.670 -2.2547  0.3142  0.2339
  212MOL0     H28561   8.677   9.963   4.498  0.0393  2.7230 -0.9743
  212MOL0     H28562   8.647  10.075   4.628 -2.4334 -0.8779 -1.5024
  212MOL0     H28563   8.880   9.994   4.720  1.3687  0.9857 -0.7207
  212MOL0     H28564   8.891   9.892   4.578 -1.9453 -0.2002 -1.0094
  212MOL0     H28565   8.868  10.077   4.419  1.8111 -1.2727 -0.5055
  212MOL0     H28566   8.815  10.204   4.532  0.2252  1.3771  0.4437
  212MOL0     H28567   9.036  10.273   4.514 -0.3857  0.5086  0.6965
  212MOL0     H28568   9.032  10.192   4.666 -0.3558 -0.5070  0.6220
  212MOL0     H28569   9.138  10.073   4.407 -1.4646  1.4015 -0.3587
  212MOL0     H28570   9.123   9.998   4.572 -0.4181  0.3556 -0.7535
  212MOL0     H28571   9.245  10.114   4.776 -0.8379  0.1578 -0.2889
  212MOL0     H28572   9.452  10.213   4.889  0.7364 -0.0923 -0.7758
  212MOL0     H28573   9.548  10.331   4.803  0.4718 -2.7600 -0.7687
  212MOL0     H28574   9.258  10.353   4.894 -0.0615  2.7456  0.3957
  212MOL0     H28575   9.337  10.480   4.816 -0.7719  0.3623 -0.3107
  212MOL0     H28576   9.381  10.369   5.095 -1.9662  0.7970  1.2876
  212MOL0     H28577   9.335  10.526   5.035  0.4211  0.1266 -3.7830
  212MOL0     H28578   9.562  10.572   5.091  0.9230  0.3117 -1.9187
  212MOL0     H28579   9.577  10.521   4.919 -0.8415  1.8727  0.0416
  212MOL0     H28580   9.872  10.278   5.030  1.4758 -1.2809  1.4545
  212MOL0     H28581  10.191  10.332   5.211  2.0634  1.5392 -1.5539
  212MOL0     H28582  10.107  10.223   5.107 -1.3659  0.5605 -0.2901
  212MOL0     H28583  10.139  10.392   5.055 -0.7665 -0.1216  0.8821
  212MOL0     H28584  10.389  10.623   5.312 -1.3101  2.0488 -2.5989
  212MOL0     H28585  10.576  10.729   5.442 -0.4752 -1.1407 -0.5919
  212MOL0     H28586  10.546  11.042   5.796 -1.3156  0.7469 -1.4213
  212MOL0     H28587  10.447  10.892   5.807 -0.1695  1.7557  2.6559
  212MOL0     H28588  10.640  10.758   5.814 -1.4070  0.7525 -0.8556
  212MOL0     H28589  10.737  10.915   5.823  0.6336  1.2503 -0.0099
  212MOL0     H28590  10.524  10.792   6.001  0.8565 -2.0714  0.2505
  212MOL0     H28591  10.579  10.955   6.015 -1.6407 -1.9394 -1.5170
  212MOL0     H28592  10.748  10.699   6.055  0.5064  0.7099 -2.1880
  212MOL0     H28593  10.817  10.867   6.062 -0.4858  0.2976 -2.1311
  212MOL0     H28594  10.584  10.801   6.226 -0.0249  0.1816 -1.4522
  212MOL0     H28595  10.730  10.888   6.284 -2.3528  0.2853  2.9458
  212MOL0     H28596  10.775  10.594   6.256 -2.6689 -1.4541  2.5651
  212MOL0     H28597  10.871  10.737   6.308 -0.2396  2.1889 -1.9237
  212MOL0     H28598  10.601  10.645   6.433  0.4686  0.4288  0.9502
  212MOL0     H28599  10.720  10.750   6.512  0.2240 -1.9781  2.1368
  212MOL0     H28600  10.846  10.541   6.541  0.3967  0.2787 -2.9861
  212MOL0     H28601  10.737  10.437   6.456 -0.5068 -0.1838  1.2477
  212MOL0     H28602  10.289  10.955   5.669 -0.8307 -2.6131  1.3505
  212MOL0     H28603  10.104  10.847   5.541  1.4786  2.8927 -0.6915
  212MOL0     H28604   9.848  10.591   5.406  2.5001 -2.0487  0.7431
  212MOL0     H28605   9.638  10.527   5.272 -0.1417 -0.1780  0.7455
  212MOL0     H28606   8.290   9.585   4.926 -0.4713 -0.5866 -1.0606
  212MOL0     H28607   8.180   9.392   4.913 -2.3774  1.0651  1.5345
  212MOL0     H28608   7.943   9.074   4.611  0.1140  2.8790 -0.1353
  212MOL0     H28609   7.806   8.890   4.538  0.0977  0.1958  0.4610
  212MOL0     H28610   7.642   8.705   4.561  1.4627 -1.8901 -1.3242
  212MOL0     H28611   7.481   8.701   4.491 -1.5531  2.3639 -1.8336
  212MOL0     H28612   7.735   8.785   4.340  0.7891 -1.6308  0.9561
  212MOL0     H28613   7.579   8.857   4.307 -1.4778 -1.3882 -1.2078
  212MOL0     H28614   7.626   8.688   4.130 -4.1942  0.5029 -2.3162
  212MOL0     H28615   7.480   8.652   4.219  0.9066 -2.0527  2.6560
  212MOL0     H28616   7.747   8.520   4.292 -0.1241 -0.5461 -2.3704
  212MOL0     H28617   7.638   8.450   4.177 -0.7859 -0.8665  0.5525
  212MOL0     H28618   7.417   8.385   4.519  0.3616  2.1801  0.3018
  212MOL0     H28619   7.451   9.111   4.651 -0.0362  1.0813  1.1472
  212MOL0     H28620   7.584   9.291   4.720 -1.7557 -0.2636 -0.6756
  213MOL0     O28621   7.055  10.182   9.163  0.0333  0.2392  0.9401
  213MOL0     C28622   7.052  10.096   9.245 -0.1590  0.7022 -0.2394
  213MOL0     O28623   7.163  10.009   9.279  0.4163  0.5456  0.4284
  213MOL0     C28624   7.283  10.016   9.211 -0.7023  0.4061  0.2072
  213MOL0     C28625   7.391   9.965   9.280 -0.6445  0.2106  0.1521
  213MOL0     C28626   7.513   9.955   9.212  0.0851 -0.9573  0.5216
  213MOL0     C28627   7.522   9.981   9.073  0.5548 -0.1261  0.5866
  213MOL0     O28628   7.645   9.966   9.006  0.8073  0.0506  0.6260
  213MOL0     C28629   7.742  10.065   9.054  0.6619  0.3678 -0.1130
  213MOL0     C28630   7.707  10.209   9.021 -0.5650  0.4606 -0.1203
  213MOL0     C28631   7.692  10.225   8.875  0.8708 -0.4207  0.6991
  213MOL0     C28632   7.662  10.371   8.826  0.3319 -0.5129 -0.4954
  213MOL0     C28633   7.512  10.402   8.782 -0.5895 -0.2551  0.4429
  213MOL0     C28634   7.421  10.451   8.892 -0.7222 -0.3651 -0.3226
  213MOL0     C28635   7.276  10.435   8.847 -0.5575  0.5131  0.1180
  213MOL0     C28636   7.173  10.475   8.940  0.7406 -0.0025  0.8354
  213MOL0     N28637   7.171  10.627   8.963  0.0140  0.5345  0.0952
  213MOL0     C28638   7.147  10.713   8.862 -0.7331  0.6680  0.6939
  213MOL0     C28639   7.104  10.831   8.926 -0.7452 -0.4832  0.3510
  213MOL0     C28640   7.054  10.949   8.843  0.1579  0.4267  0.4410
  213MOL0     C28641   7.170  11.001   8.765 -0.3360  0.6949 -0.2786
  213MOL0     C28642   7.106  11.102   8.664 -0.4533 -0.0029  0.3060
  213MOL0     C28643   7.181  11.166   8.553  0.0354  0.2724  1.0077
  213MOL0     O28644   7.291  11.233   8.623  0.4618  0.7130  0.6174
  213MOL0     C28645   7.411  11.249   8.558  0.3109 -0.2098 -0.4030
  213MOL0     C28646   7.418  11.273   8.421  0.6686 -0.6073  0.1122
  213MOL0     C28647   7.534  11.312   8.369  0.2886 -0.1551 -0.0411
  213MOL0     C28648   7.543  11.352   8.216 -0.1028 -0.0518 -0.3029
  213MOL0     C28649   7.655  11.315   8.450 -0.8279 -1.3755 -0.4550
  213MOL0     C28650   7.782  11.340   8.391 -0.1538 -0.6212  0.0978
  213MOL0     O28651   7.846  11.229   8.357  0.3062  0.7652 -0.1246
  213MOL0     C28652   7.942  11.222   8.257  0.0550  0.0389 -0.6155
  213MOL0     C28653   8.020  11.109   8.257 -0.2763  0.6812  0.5571
  213MOL0     C28654   8.146  11.099   8.203  0.0447  1.3674  0.3236
  213MOL0     C28655   8.192  11.202   8.114  0.4925 -0.2332 -0.7545
  213MOL0     O28656   8.304  11.188   8.028  0.5345 -0.5544  0.7163
  213MOL0     C28657   8.342  11.059   7.988  0.0247  0.3339  0.6425
  213MOL0     C28658   8.423  11.059   7.859  0.2048 -0.4309 -0.7749
  213MOL0     C28659   8.466  10.914   7.816  0.3064 -0.2721  0.1659
  213MOL0     C28660   8.494  10.905   7.668 -0.5068 -0.1162 -0.5718
  213MOL0     C28661   8.528  10.770   7.608 -0.3117  0.2029 -0.4781
  213MOL0     C28662   8.609  10.779   7.475 -0.1708  0.3243  0.1660
  213MOL0     C28663   8.632  10.634   7.436 -0.0434 -0.5690  0.1015
  213MOL0     C28664   8.745  10.574   7.503 -0.6807 -0.3934 -0.8157
  213MOL0    Cl28665   8.905  10.649   7.448  0.0314  0.0167  0.1680
  213MOL0     C28666   8.105  11.314   8.103  0.4047  0.7169 -0.0120
  213MOL0     C28667   7.975  11.315   8.156 -0.9125  0.1636 -1.5548
  213MOL0     O28668   7.829  11.455   8.387  0.2350 -0.8359  0.6768
  213MOL0     C28669   7.650  11.282   8.592  1.1288  0.3913 -0.0951
  213MOL0     C28670   7.519  11.262   8.643 -0.9231 -0.1817 -1.1375
  213MOL0     N28671   7.131  10.811   9.062  0.3408  0.0464  0.1593
  213MOL0     N28672   7.175  10.694   9.082  0.3019  0.4384 -0.4323
  213MOL0     C28673   7.406  10.003   8.995  0.4426 -0.6544 -0.2679
  213MOL0     C28674   7.296  10.029   9.068 -1.3196 -0.0147  0.3753
  213MOL0     C28675   6.923  10.093   9.317 -0.8894  0.0053  0.4187
  213MOL0     C28676   6.828  10.192   9.303  0.3948 -0.6183 -0.8361
  213MOL0     C28677   6.702  10.171   9.364 -0.3967 -0.2024 -0.6618
  213MOL0     C28678   6.677  10.066   9.450 -0.1678  0.1155  0.4980
  213MOL0     O28679   6.565  10.049   9.520  0.1147 -0.2705 -0.4080
  213MOL0     C28680   6.453  10.144   9.502  0.7363 -0.1471 -0.3173
  213MOL0     C28681   6.450  10.236   9.627  1.0063  0.0978 -0.7013
  213MOL0     C28682   6.559  10.350   9.619 -0.3404 -0.1040 -0.3526
  213MOL0     C28683   6.598  10.389   9.769  0.7990 -0.0112 -0.4739
  213MOL0     C28684   6.699  10.498   9.760 -0.5140  0.8311  0.7616
  213MOL0     C28685   6.783  10.573   9.743 -1.1067 -1.6807  0.7635
  213MOL0     C28686   6.766   9.965   9.451 -0.9721  0.3014 -0.2846
  213MOL0     C28687   6.893   9.977   9.394  0.9769  0.3468 -0.1559
  213MOL0     H28688   7.374   9.937   9.384 -1.8948  1.3169  0.2711
  213MOL0     H28689   7.610   9.927   9.254  0.3112 -0.6481  0.2131
  213MOL0     H28690   7.764  10.054   9.161  0.2570  1.6886  0.1247
  213MOL0     H28691   7.832  10.044   8.995  1.1603  0.5731  0.5561
  213MOL0     H28692   7.622  10.247   9.079 -0.7317 -0.0006 -0.0582
  213MOL0     H28693   7.789  10.277   9.045 -1.8604  2.7149 -1.6458
  213MOL0     H28694   7.772  10.191   8.808 -3.6089 -4.6108 -3.3638
  213MOL0     H28695   7.598  10.173   8.856  1.4073 -1.9130  1.9250
  213MOL0     H28696   7.702  10.444   8.897  2.1563  0.0785 -2.0387
  213MOL0     H28697   7.719  10.385   8.733  1.3691  0.0468  0.2036
  213MOL0     H28698   7.508  10.485   8.711  0.3308 -2.0256 -1.8225
  213MOL0     H28699   7.458  10.322   8.731 -1.3451 -0.4091  1.4524
  213MOL0     H28700   7.442  10.405   8.990  2.2302  0.9907 -0.2261
  213MOL0     H28701   7.433  10.555   8.924 -3.1421  0.0061 -0.4295
  213MOL0     H28702   7.257  10.480   8.750 -0.7939 -1.9244 -1.0390
  213MOL0     H28703   7.276  10.326   8.834  1.2657  0.5378 -0.4709
  213MOL0     H28704   7.179  10.424   9.036 -1.0010 -2.6611 -0.3651
  213MOL0     H28705   7.079  10.451   8.890  1.4824  0.5330 -0.8805
  213MOL0     H28706   7.145  10.701   8.755 -0.0208  4.3151  0.1251
  213MOL0     H28707   6.984  10.906   8.770 -2.2829  1.6083  1.9567
  213MOL0     H28708   6.997  11.023   8.901  1.2845  1.3470  0.3870
  213MOL0     H28709   7.227  10.924   8.712 -0.3738  0.5092 -0.0538
  213MOL0     H28710   7.241  11.057   8.826  2.1115 -0.5514 -1.8163
  213MOL0     H28711   7.076  11.188   8.724 -0.2639 -0.2205  0.7217
  213MOL0     H28712   7.019  11.053   8.620 -0.6602 -1.0318  1.8021
  213MOL0     H28713   7.120  11.244   8.506 -0.6075 -0.1603  1.1132
  213MOL0     H28714   7.220  11.091   8.484  1.8637  1.5898  0.5182
  213MOL0     H28715   7.329  11.298   8.364  0.3253  0.2847  1.0220
  213MOL0     H28716   7.562  11.258   8.163 -2.1194 -1.1731  0.8220
  213MOL0     H28717   7.451  11.392   8.172  0.7297  0.7940 -1.3347
  213MOL0     H28718   7.619  11.426   8.190 -2.6278  2.2939 -1.5895
  213MOL0     H28719   7.980  11.030   8.320 -2.5385 -1.0862 -2.8001
  213MOL0     H28720   8.196  11.007   8.229  0.6212  1.3931 -0.6702
  213MOL0     H28721   8.408  11.017   8.064  1.4112  1.5238  0.1426
  213MOL0     H28722   8.253  10.996   7.982 -0.3452  0.8414  0.7547
  213MOL0     H28723   8.356  11.108   7.788  0.2097 -1.2765 -1.3799
  213MOL0     H28724   8.507  11.128   7.868 -0.3714  0.2002 -0.1856
  213MOL0     H28725   8.379  10.856   7.849 -0.9296  2.9005  3.1486
  213MOL0     H28726   8.548  10.894   7.885  0.5657  3.0842  1.0190
  213MOL0     H28727   8.410  10.953   7.616 -2.3959 -2.0331  0.5750
  213MOL0     H28728   8.586  10.965   7.657 -0.2211  0.0868  2.1795
  213MOL0     H28729   8.436  10.716   7.586 -0.7424  0.0213  1.5490
  213MOL0     H28730   8.588  10.722   7.686 -0.3655  3.2290  1.6486
  213MOL0     H28731   8.550  10.831   7.399  3.5031  3.0583 -1.0955
  213MOL0     H28732   8.704  10.833   7.487 -0.8465  1.6731 -0.2827
  213MOL0     H28733   8.660  10.641   7.330 -0.0437 -0.4643  0.1089
  213MOL0     H28734   8.540  10.575   7.450  1.0955 -3.3053 -2.6977
  213MOL0     H28735   8.758  10.468   7.477 -2.9960 -2.2578  4.1958
  213MOL0     H28736   8.737  10.570   7.612 -2.2331 -2.8739 -0.9296
  213MOL0     H28737   8.132  11.404   8.049 -1.2470 -0.7172 -3.5139
  213MOL0     H28738   7.902  11.393   8.137 -2.6027 -1.5738 -2.5634
  213MOL0     H28739   7.740  11.288   8.654  0.7770 -0.1025  0.4696
  213MOL0     H28740   7.506  11.238   8.748 -0.7563  0.7215 -0.9042
  213MOL0     H28741   7.408  10.015   8.887 -0.5960  0.2584 -0.2075
  213MOL0     H28742   7.204  10.049   9.014 -0.7998  0.0219 -0.5106
  213MOL0     H28743   6.857  10.276   9.240  1.0161  0.2443  0.5338
  213MOL0     H28744   6.630  10.246   9.332 -4.4613 -1.9398  3.3839
  213MOL0     H28745   6.448  10.213   9.417 -1.2936 -0.6133 -0.6280
  213MOL0     H28746   6.357  10.092   9.501 -0.1746  1.3896  1.8256
  213MOL0     H28747   6.470  10.174   9.715 -0.8924  1.9952  1.1815
  213MOL0     H28748   6.353  10.280   9.648 -0.5785 -3.5187  0.2024
  213MOL0     H28749   6.530  10.444   9.572  4.9459  1.4110 -1.3091
  213MOL0     H28750   6.655  10.316   9.578 -0.0273 -0.3855  0.5801
  213MOL0     H28751   6.630  10.300   9.824  0.0269 -1.1154 -1.7497
  213MOL0     H28752   6.501  10.422   9.808 -0.7424 -0.3002 -3.7638
  213MOL0     H28753   6.850  10.657   9.735 -2.2661 -0.9243 -3.1479
  213MOL0     H28754   6.731   9.877   9.504 -1.5641  0.2697 -0.7165
  213MOL0     H28755   6.958   9.892   9.413  2.1430  0.9886 -1.0704
  214MOL0     O28756   3.584  11.060   5.280  1.0191  0.5663 -0.8783
  214MOL0     C28757   3.613  11.136   5.375  0.6992  0.4796 -1.5106
  214MOL0     O28758   3.710  11.229   5.387 -0.0916 -0.3565 -0.0095
  214MOL0     C28759   3.785  11.243   5.276 -0.7942 -0.0979 -0.8866
  214MOL0     C28760   3.830  11.375   5.266  0.4234 -0.4933  0.2608
  214MOL0     C28761   3.929  11.403   5.174 -1.3935 -0.3935  0.1647
  214MOL0     C28762   3.989  11.313   5.089  0.0476 -0.3362 -0.2350
  214MOL0     O28763   4.073  11.349   4.990 -0.2319  0.7435  0.4736
  214MOL0     C28764   4.203  11.293   4.982 -0.2877 -1.0671  0.3984
  214MOL0     C28765   4.304  11.369   5.079 -0.2540  0.6008  0.3014
  214MOL0     C28766   4.443  11.334   5.014 -0.1208  0.1064  0.4940
  214MOL0     C28767   4.547  11.319   5.122 -0.5598  1.1401  0.6652
  214MOL0     C28768   4.696  11.347   5.071 -0.8107 -0.7237  0.3098
  214MOL0     C28769   4.791  11.362   5.198 -0.0312  1.0871  0.2253
  214MOL0     C28770   4.838  11.229   5.267  0.2319 -0.0650  0.0124
  214MOL0     C28771   4.930  11.267   5.386 -0.0070  1.2604 -0.2900
  214MOL0     N28772   4.944  11.151   5.474 -0.1839  0.3751 -0.7367
  214MOL0     C28773   4.961  11.016   5.447 -0.5688  0.4231 -0.4836
  214MOL0     C28774   4.983  10.961   5.571  0.3107  0.9674  0.1053
  214MOL0     C28775   4.998  10.815   5.598  0.1540  0.2358 -0.9913
  214MOL0     C28776   4.938  10.753   5.735 -0.0650 -0.9808  0.4565
  214MOL0     C28777   4.844  10.637   5.713 -0.1498 -0.5116 -0.4392
  214MOL0     C28778   4.915  10.522   5.632 -0.3320 -0.1425  0.1412
  214MOL0     O28779   4.865  10.396   5.670 -0.1838 -0.1306  0.4051
  214MOL0     C28780   4.893  10.287   5.596 -0.3611  0.7425  0.3808
  214MOL0     C28781   4.795  10.175   5.606 -0.6252 -0.7742 -0.3293
  214MOL0     C28782   4.811  10.055   5.530  0.3390  0.6630  0.7907
  214MOL0     C28783   4.699   9.951   5.558  0.1193  0.0508  0.7569
  214MOL0     C28784   4.909  10.042   5.431 -0.3674 -0.0846  0.2980
  214MOL0     C28785   4.932   9.923   5.341  0.6148 -0.2104  0.8860
  214MOL0     O28786   5.031   9.921   5.260 -0.2487 -0.7611  0.4432
  214MOL0     C28787   5.085   9.805   5.209  0.2987  0.6448 -0.6955
  214MOL0     C28788   5.152   9.827   5.087 -0.7126  0.2909  0.7477
  214MOL0     C28789   5.196   9.718   5.020 -1.0507 -0.5944  0.5689
  214MOL0     C28790   5.170   9.587   5.056  0.3620 -0.0406 -0.4844
  214MOL0     O28791   5.200   9.494   4.956 -0.6454 -0.4963 -0.5870
  214MOL0     C28792   5.116   9.374   4.942 -0.9178  0.0950 -0.5465
  214MOL0     C28793   5.174   9.258   5.025 -0.2635  0.7440 -0.2504
  214MOL0     C28794   5.109   9.128   5.004 -0.2661  0.1061  0.0011
  214MOL0     C28795   4.958   9.122   5.023  0.4992 -0.6528 -0.4588
  214MOL0     C28796   4.899   8.975   5.050 -0.6255  0.1608 -0.9328
  214MOL0     C28797   4.756   8.949   5.029 -0.3214  0.0961 -0.5247
  214MOL0     C28798   4.710   8.927   4.883 -0.1796 -0.0715 -0.1371
  214MOL0     C28799   4.558   8.953   4.873 -0.3442 -0.7173 -0.6638
  214MOL0    Cl28800   4.463   8.843   4.975 -0.1722 -0.3286 -0.1489
  214MOL0     C28801   5.106   9.562   5.179  0.6635 -0.2471  0.3081
  214MOL0     C28802   5.074   9.673   5.266 -0.6255 -0.0657 -0.6278
  214MOL0     O28803   4.853   9.829   5.352 -0.3455  0.5892 -0.1144
  214MOL0     C28804   4.995  10.150   5.412  0.2470 -0.3073 -0.0288
  214MOL0     C28805   4.986  10.270   5.494  0.1618 -0.1069 -0.1508
  214MOL0     N28806   4.981  11.053   5.669  0.1899 -0.8080 -0.2936
  214MOL0     N28807   4.963  11.172   5.611 -0.6036  0.3292 -0.3517
  214MOL0     C28808   3.937  11.181   5.094  0.0257 -0.7123  0.6094
  214MOL0     C28809   3.839  11.152   5.188  0.2951  0.5836 -0.0262
  214MOL0     C28810   3.527  11.120   5.490  0.4094 -0.1065 -0.1185
  214MOL0     C28811   3.582  11.153   5.616 -0.2159  0.2656 -0.0997
  214MOL0     C28812   3.500  11.149   5.733  0.3093 -0.3287 -0.0967
  214MOL0     C28813   3.360  11.145   5.721 -0.7519 -0.5830  0.4219
  214MOL0     O28814   3.279  11.171   5.829 -0.0190 -0.0570  0.7614
  214MOL0     C28815   3.306  11.112   5.956  0.5264  0.7117 -0.1547
  214MOL0     C28816   3.192  11.119   6.059  0.4728 -1.0803 -0.1206
  214MOL0     C28817   3.043  11.101   5.998  0.1386  0.7900  1.1727
  214MOL0     C28818   2.927  11.116   6.093  0.3757 -0.3381  0.0554
  214MOL0     C28819   2.802  11.125   6.016 -0.1364 -0.1506  0.2112
  214MOL0     C28820   2.695  11.131   5.950 -0.5193 -0.8009  0.3071
  214MOL0     C28821   3.302  11.126   5.589  0.5369 -0.3801 -0.3462
  214MOL0     C28822   3.386  11.111   5.479 -0.3568 -0.3744  0.5333
  214MOL0     H28823   3.778  11.447   5.330 -2.0726 -1.0391 -1.0194
  214MOL0     H28824   3.976  11.501   5.163  2.9599 -2.4391 -2.2632
  214MOL0     H28825   4.210  11.184   4.982  1.7006 -0.9938  2.3648
  214MOL0     H28826   4.230  11.313   4.878  1.7969 -4.1477  0.2336
  214MOL0     H28827   4.296  11.478   5.077 -0.6754  0.5653 -0.1969
  214MOL0     H28828   4.298  11.330   5.181 -0.2719 -0.7384 -0.1895
  214MOL0     H28829   4.442  11.235   4.969  1.8177  1.4088 -2.7102
  214MOL0     H28830   4.477  11.403   4.936  2.8792 -0.9206  0.7694
  214MOL0     H28831   4.525  11.375   5.213  1.9287 -1.8154  3.3835
  214MOL0     H28832   4.522  11.217   5.152 -2.7794  0.8008 -1.9417
  214MOL0     H28833   4.738  11.275   5.001  0.4983  0.7089 -0.4562
  214MOL0     H28834   4.704  11.442   5.017 -0.2601 -1.1761 -0.4301
  214MOL0     H28835   4.872  11.426   5.163  0.2859  0.3737 -0.3850
  214MOL0     H28836   4.737  11.422   5.272 -2.6648 -1.4414  0.5179
  214MOL0     H28837   4.751  11.176   5.305 -0.3057  0.7252 -0.0948
  214MOL0     H28838   4.880  11.160   5.194  1.2394  1.8464 -1.3195
  214MOL0     H28839   4.897  11.363   5.426 -2.3815  1.8928 -3.3546
  214MOL0     H28840   5.026  11.298   5.343 -0.1987  2.3740  0.0604
  214MOL0     H28841   4.955  10.959   5.355  2.2221 -0.8937  0.0159
  214MOL0     H28842   4.952  10.763   5.514 -1.1151  0.1604 -0.2699
  214MOL0     H28843   5.098  10.771   5.594 -0.2473 -0.7935 -0.2566
  214MOL0     H28844   4.867  10.823   5.780 -3.0972 -1.8545 -2.5896
  214MOL0     H28845   5.021  10.727   5.802  2.2692 -0.5651 -2.0865
  214MOL0     H28846   4.765  10.684   5.653  0.8589 -1.2520 -2.4719
  214MOL0     H28847   4.798  10.583   5.796  1.5352  1.3034  1.7708
  214MOL0     H28848   5.024  10.525   5.646  0.1533 -3.5816 -1.7575
  214MOL0     H28849   4.888  10.538   5.527  0.6725  3.2526  0.2740
  214MOL0     H28850   4.727  10.182   5.690  3.1446  0.7266  2.9259
  214MOL0     H28851   4.643   9.956   5.652  0.0747 -2.6750  0.9623
  214MOL0     H28852   4.624   9.962   5.479 -2.2908 -2.2713  2.5247
  214MOL0     H28853   4.735   9.848   5.556 -2.2253 -0.8409  1.1136
  214MOL0     H28854   5.168   9.924   5.042  1.0148  0.7782  2.2819
  214MOL0     H28855   5.261   9.745   4.937  0.2447 -0.5641  1.5583
  214MOL0     H28856   5.013   9.394   4.973 -0.5647 -1.0103  1.5458
  214MOL0     H28857   5.134   9.334   4.842  1.5882 -0.4181  0.0533
  214MOL0     H28858   5.280   9.248   4.999  0.3621 -2.2144  2.7687
  214MOL0     H28859   5.169   9.269   5.134 -0.4023 -3.4372  0.3287
  214MOL0     H28860   5.147   9.063   5.083 -1.6659  1.2779  1.7017
  214MOL0     H28861   5.127   9.088   4.903  0.7080 -0.2968  0.3243
  214MOL0     H28862   4.948   9.178   5.116 -1.9925 -3.6878  1.2731
  214MOL0     H28863   4.898   9.181   4.953 -3.0879  1.6874  4.0663
  214MOL0     H28864   4.911   8.957   5.157  0.1259  1.0111 -0.8679
  214MOL0     H28865   4.948   8.903   4.983 -0.7544  0.8573 -1.7860
  214MOL0     H28866   4.718   8.859   5.078  0.7076 -0.6860 -1.0949
  214MOL0     H28867   4.699   9.033   5.068 -1.3421  1.1302 -3.8681
  214MOL0     H28868   4.731   8.820   4.872 -1.2034 -0.3413  0.3824
  214MOL0     H28869   4.766   8.987   4.811  1.3842 -0.7669  0.4549
  214MOL0     H28870   4.532   8.941   4.767  0.4189 -1.0692 -0.8152
  214MOL0     H28871   4.536   9.053   4.913 -0.9171 -1.2248  0.3248
  214MOL0     H28872   5.080   9.468   5.227  1.0054  0.5520  2.1399
  214MOL0     H28873   5.030   9.666   5.365  0.7987  1.4003  0.1545
  214MOL0     H28874   5.065  10.157   5.329  0.5668  0.4519  0.2929
  214MOL0     H28875   5.053  10.349   5.461  0.7154 -0.0901  0.9817
  214MOL0     H28876   3.964  11.097   5.030 -1.9495 -1.9644  1.3568
  214MOL0     H28877   3.809  11.048   5.188 -0.9007  0.8935  0.6592
  214MOL0     H28878   3.683  11.187   5.636 -0.0754  0.3859 -0.9712
  214MOL0     H28879   3.550  11.169   5.827 -1.4695  2.1872  0.3868
  214MOL0     H28880   3.328  11.005   5.946  4.4325  1.4622 -0.9974
  214MOL0     H28881   3.389  11.166   6.002  0.7127  0.7755 -0.5635
  214MOL0     H28882   3.182  11.214   6.111 -1.3201 -0.4995 -1.4153
  214MOL0     H28883   3.205  11.039   6.132 -0.5644 -1.8362 -0.7197
  214MOL0     H28884   3.042  10.996   5.967  0.4025  1.6123 -1.9263
  214MOL0     H28885   3.035  11.167   5.912 -1.5483 -0.6778  0.1358
  214MOL0     H28886   2.947  11.205   6.153 -2.3896  0.0328  0.5745
  214MOL0     H28887   2.918  11.028   6.158 -2.0720 -0.1667  0.0430
  214MOL0     H28888   2.613  11.142   5.882  0.3207 -1.0472 -0.7785
  214MOL0     H28889   3.194  11.124   5.583  0.5738  0.4651 -1.5515
  214MOL0     H28890   3.337  11.102   5.383 -1.3984 -0.5828  1.0660
  215MOL0     O28891   2.870   8.918   3.798 -0.2942  1.2805  0.2495
  215MOL0     C28892   2.822   8.831   3.869  0.1106  0.6654  0.6769
  215MOL0     O28893   2.704   8.840   3.941  0.3684 -0.1246 -0.5957
  215MOL0     C28894   2.635   8.955   3.940 -0.2969  0.5881  0.8142
  215MOL0     C28895   2.507   8.977   3.871 -0.6290  0.4433  0.7526
  215MOL0     C28896   2.451   9.104   3.874  0.5547  0.5901 -0.1961
  215MOL0     C28897   2.497   9.207   3.956 -0.0816  0.2859  0.0100
  215MOL0     O28898   2.419   9.313   3.980  0.0992 -0.4272 -0.6513
  215MOL0     C28899   2.495   9.436   3.984 -0.1251  0.8146 -0.3138
  215MOL0     C28900   2.411   9.557   3.949 -0.3574  0.2031 -0.4688
  215MOL0     C28901   2.384   9.545   3.794  0.2043 -0.0259 -0.5716
  215MOL0     C28902   2.469   9.653   3.718 -0.0233  0.3598 -0.2923
  215MOL0     C28903   2.407   9.789   3.715  0.2979  0.2946 -0.7370
  215MOL0     C28904   2.485   9.893   3.649 -0.0765 -0.5077 -0.2342
  215MOL0     C28905   2.624   9.926   3.705  0.2219  0.5151  0.0561
  215MOL0     C28906   2.612   9.982   3.843 -1.0241  0.2082 -0.1071
  215MOL0     N28907   2.549  10.109   3.845 -0.5231  0.4364 -0.4463
  215MOL0     C28908   2.437  10.135   3.911 -0.0911  0.7127 -0.4042
  215MOL0     C28909   2.437  10.268   3.910  0.1605 -1.0053 -0.3707
  215MOL0     C28910   2.317  10.361   3.933 -0.2561 -0.3325 -0.2609
  215MOL0     C28911   2.323  10.384   4.089  0.0753  0.7256  0.3632
  215MOL0     C28912   2.193  10.413   4.163 -0.5553 -0.0000 -0.0021
  215MOL0     C28913   2.113  10.290   4.198  0.0349 -0.1440 -0.0138
  215MOL0     O28914   2.135  10.176   4.115  0.7009  0.6760  0.6624
  215MOL0     C28915   2.053  10.069   4.124  0.1356  0.5290 -0.8538
  215MOL0     C28916   2.066   9.961   4.040  0.3876  0.6953  1.0723
  215MOL0     C28917   1.984   9.844   4.040 -1.0425 -0.1661  0.6545
  215MOL0     C28918   2.014   9.744   3.933  0.1030 -2.0641  0.6588
  215MOL0     C28919   1.889   9.833   4.151  0.1291 -0.0031 -0.0065
  215MOL0     C28920   1.783   9.725   4.161 -1.4219 -0.4283  0.1409
  215MOL0     O28921   1.673   9.767   4.231 -0.2658  0.2568 -0.1970
  215MOL0     C28922   1.553   9.715   4.204 -0.9811 -0.2319 -1.6286
  215MOL0     C28923   1.521   9.617   4.298  0.5927  0.3010  0.5520
  215MOL0     C28924   1.389   9.551   4.280  0.2763 -0.1968 -0.5990
  215MOL0     C28925   1.314   9.579   4.163 -0.2137  0.1480 -1.8319
  215MOL0     O28926   1.198   9.516   4.140 -0.3145  0.3789  0.8034
  215MOL0     C28927   1.105   9.533   4.021 -0.1264  0.2393  0.0475
  215MOL0     C28928   1.157   9.473   3.893  0.4089 -0.9950 -0.0419
  215MOL0     C28929   1.047   9.507   3.779 -0.1507  0.1777 -0.2918
  215MOL0     C28930   1.104   9.459   3.641 -0.2957  0.6223  0.4790
  215MOL0     C28931   0.988   9.445   3.531 -1.0168 -0.4103 -1.8160
  215MOL0     C28932   1.060   9.388   3.408 -0.0108 -0.0761 -0.2346
  215MOL0     C28933   1.079   9.510   3.317 -0.6384  0.5412  1.0884
  215MOL0     C28934   1.168   9.481   3.196 -0.2646  0.7617 -0.4151
  215MOL0    Cl28935   1.096   9.402   3.066 -0.0746  0.5197 -0.3253
  215MOL0     C28936   1.358   9.682   4.074  0.5733  1.3068 -0.3716
  215MOL0     C28937   1.480   9.744   4.093  0.3577 -0.9343 -0.0700
  215MOL0     O28938   1.788   9.634   4.077  0.0948  0.8322  0.6152
  215MOL0     C28939   1.882   9.932   4.237 -0.6725 -0.5500 -0.5181
  215MOL0     C28940   1.960  10.054   4.223  0.8387 -0.6168  0.9242
  215MOL0     N28941   2.560  10.312   3.864  0.8110  0.1355 -0.5139
  215MOL0     N28942   2.629  10.213   3.815  0.7101  0.4499 -0.2646
  215MOL0     C28943   2.617   9.180   4.017  0.2691 -0.2379  0.5823
  215MOL0     C28944   2.685   9.061   4.013  0.0725 -0.0667  0.1271
  215MOL0     C28945   2.882   8.695   3.852  0.0534  0.3221  0.1203
  215MOL0     C28946   2.832   8.589   3.929 -0.9830  0.1844 -0.9048
  215MOL0     C28947   2.898   8.461   3.925 -0.6777 -0.9051 -0.0590
  215MOL0     C28948   2.997   8.430   3.830 -0.8681 -0.0249  1.2251
  215MOL0     O28949   3.052   8.304   3.831  0.0977 -0.4658  0.3456
  215MOL0     C28950   3.164   8.287   3.748  0.6447  0.5947 -1.3714
  215MOL0     C28951   3.132   8.274   3.604 -0.5298 -0.3621  0.2419
  215MOL0     C28952   3.203   8.144   3.549 -0.7170  0.2032  0.1787
  215MOL0     C28953   3.100   8.033   3.544  1.1823  0.4771  0.4411
  215MOL0     C28954   3.157   7.918   3.469  0.6520  0.4646 -0.1090
  215MOL0     C28955   3.219   7.833   3.418  0.2637  0.3005  0.7117
  215MOL0     C28956   3.044   8.534   3.744 -0.8659 -0.0054 -1.1103
  215MOL0     C28957   2.977   8.663   3.757  0.3203 -0.6449 -0.2006
  215MOL0     H28958   2.466   8.902   3.804 -2.2478  0.5169  1.6294
  215MOL0     H28959   2.352   9.090   3.830 -0.8318  1.4214  2.4033
  215MOL0     H28960   2.515   9.466   4.088  2.0666  2.0549 -1.0363
  215MOL0     H28961   2.581   9.434   3.917 -0.8433 -1.5384 -1.2555
  215MOL0     H28962   2.331   9.555   4.024  2.2792  1.4890  2.5923
  215MOL0     H28963   2.461   9.650   3.978  0.4574 -0.9533  2.1627
  215MOL0     H28964   2.396   9.440   3.765 -1.6643 -0.5624  0.4092
  215MOL0     H28965   2.282   9.573   3.766 -0.1728 -0.0061  0.7680
  215MOL0     H28966   2.570   9.652   3.761  0.0314 -0.5685 -0.4320
  215MOL0     H28967   2.468   9.617   3.615 -0.8783  0.0533 -0.1784
  215MOL0     H28968   2.303   9.786   3.682 -0.3864  0.3980  1.2737
  215MOL0     H28969   2.385   9.821   3.818 -1.6298 -1.8941 -0.3971
  215MOL0     H28970   2.505   9.865   3.546  0.6338  1.0036 -0.5423
  215MOL0     H28971   2.421   9.982   3.644  1.1206  0.3215 -1.3870
  215MOL0     H28972   2.675   9.830   3.694 -0.5363  0.2809 -1.8360
  215MOL0     H28973   2.669  10.011   3.653 -2.9372  0.7991 -2.5530
  215MOL0     H28974   2.706  10.000   3.896 -0.5311  1.9658 -1.4934
  215MOL0     H28975   2.570   9.907   3.911 -0.2825  1.0855  1.3514
  215MOL0     H28976   2.366  10.060   3.945  3.0840 -2.8509 -0.8916
  215MOL0     H28977   2.341  10.452   3.877  3.1687  0.8172  2.6987
  215MOL0     H28978   2.221  10.324   3.898 -1.1695 -0.4857  2.2067
  215MOL0     H28979   2.383  10.475   4.096 -2.1749  2.2546  0.8343
  215MOL0     H28980   2.371  10.303   4.145 -1.1426 -2.2833 -2.6265
  215MOL0     H28981   2.136  10.471   4.090  1.4714 -0.7110 -2.2691
  215MOL0     H28982   2.219  10.473   4.251 -0.4839  3.1138 -2.0079
  215MOL0     H28983   2.009  10.324   4.199  0.5083  1.4040 -0.3952
  215MOL0     H28984   2.141  10.263   4.301  1.8946 -0.3198 -0.5386
  215MOL0     H28985   2.143   9.965   3.962  0.7150 -0.9763  1.2784
  215MOL0     H28986   1.993   9.789   3.835  0.0662  1.1256  2.0125
  215MOL0     H28987   2.123   9.741   3.929  0.1960 -0.0907  0.2201
  215MOL0     H28988   1.977   9.642   3.942 -0.9851 -1.7337  0.1750
  215MOL0     H28989   1.570   9.608   4.394 -2.7031  2.7216  2.6782
  215MOL0     H28990   1.364   9.469   4.346  0.4439  2.3656  2.9656
  215MOL0     H28991   1.019   9.472   4.052  1.1217 -0.8424  1.5737
  215MOL0     H28992   1.075   9.637   4.008 -0.6695  0.2048  0.9063
  215MOL0     H28993   1.249   9.529   3.871 -0.2968  1.1984  2.1665
  215MOL0     H28994   1.182   9.367   3.905  2.9098 -0.6568 -1.4472
  215MOL0     H28995   1.029   9.613   3.760  0.0028 -0.0932 -2.0912
  215MOL0     H28996   0.955   9.449   3.796 -1.4562  1.1533 -3.3006
  215MOL0     H28997   1.189   9.511   3.597  2.5641 -0.8358  3.8077
  215MOL0     H28998   1.150   9.361   3.658  0.9083  0.7982 -1.5018
  215MOL0     H28999   0.936   9.538   3.505  0.5309  0.8375 -0.6502
  215MOL0     H29000   0.914   9.376   3.573 -2.7700  2.0052 -0.6749
  215MOL0     H29001   1.155   9.340   3.432 -0.4010  0.3748  2.4340
  215MOL0     H29002   0.994   9.313   3.364  0.7487 -0.0654 -1.4351
  215MOL0     H29003   1.147   9.579   3.367  2.2682 -1.3959  0.0484
  215MOL0     H29004   0.987   9.564   3.294  0.1558  0.9570 -1.3057
  215MOL0     H29005   1.260   9.426   3.220  0.7225  1.7969 -1.6424
  215MOL0     H29006   1.213   9.570   3.151  2.4106  0.4947  1.4438
  215MOL0     H29007   1.295   9.701   3.988 -0.1275  0.4110 -0.0774
  215MOL0     H29008   1.513   9.807   4.011 -1.6036 -0.0830 -0.2463
  215MOL0     H29009   1.822   9.937   4.326  1.6099  2.4604  1.0625
  215MOL0     H29010   1.966  10.131   4.299 -0.5535  0.3078  0.1330
  215MOL0     H29011   2.644   9.257   4.089  0.4589 -0.0725  0.3376
  215MOL0     H29012   2.776   9.061   4.073  1.6089  2.6099 -2.0204
  215MOL0     H29013   2.749   8.611   3.996  0.7488  2.9248  0.5196
  215MOL0     H29014   2.874   8.373   3.983  3.9317 -1.9255  0.7443
  215MOL0     H29015   3.249   8.356   3.757  1.0953 -0.1625  0.5200
  215MOL0     H29016   3.207   8.197   3.793 -1.1182  0.5640  0.3573
  215MOL0     H29017   3.185   8.354   3.551  1.3197 -0.0521  2.4180
  215MOL0     H29018   3.023   8.275   3.594 -0.4696  1.3639 -0.5565
  215MOL0     H29019   3.291   8.109   3.605 -1.1007 -2.2655 -0.6390
  215MOL0     H29020   3.228   8.165   3.445  1.7497  0.6545  0.7727
  215MOL0     H29021   3.009   8.062   3.490  0.0280 -3.7814 -0.3526
  215MOL0     H29022   3.066   7.990   3.638  1.0795  0.4572  0.3954
  215MOL0     H29023   3.259   7.747   3.368  0.1751  0.1119  0.9643
  215MOL0     H29024   3.130   8.534   3.677  3.8345  0.9270  4.1146
  215MOL0     H29025   2.995   8.746   3.690 -1.2491  1.1803  1.5311
  216MOL0     O29026   1.910   6.718   3.514 -0.4496 -0.0638 -1.0559
  216MOL0     C29027   1.964   6.812   3.458  0.2446 -0.7353  0.2278
  216MOL0     O29028   1.949   6.840   3.324 -0.4079 -0.3004 -0.0006
  216MOL0     C29029   1.860   6.766   3.255 -0.4087  0.4397  0.4875
  216MOL0     C29030   1.737   6.817   3.218 -0.6154 -0.9893 -0.4467
  216MOL0     C29031   1.653   6.742   3.146 -0.1716  0.4766  0.0469
  216MOL0     C29032   1.673   6.608   3.120 -0.4092 -0.0547 -0.6287
  216MOL0     O29033   1.569   6.546   3.059  0.5119 -1.1920 -0.4588
  216MOL0     C29034   1.465   6.520   3.152 -0.5099  0.3421 -0.2302
  216MOL0     C29035   1.370   6.409   3.122 -0.0365  0.0795 -0.8943
  216MOL0     C29036   1.300   6.444   2.988 -0.4968 -0.2645  0.1850
  216MOL0     C29037   1.195   6.343   2.927 -1.1691  0.5277  0.5462
  216MOL0     C29038   1.119   6.396   2.802  0.6459 -0.4289  1.2111
  216MOL0     C29039   0.985   6.317   2.750  0.4127 -0.2995  1.0139
  216MOL0     C29040   0.944   6.373   2.611 -0.6322  0.6712 -0.4732
  216MOL0     C29041   0.931   6.524   2.605  0.0812  0.0846  0.4244
  216MOL0     N29042   0.814   6.561   2.681 -0.3488 -0.5822  0.0398
  216MOL0     C29043   0.818   6.651   2.779 -0.7498 -0.2468  0.2453
  216MOL0     C29044   0.690   6.676   2.801  1.0162 -0.2052 -0.9366
  216MOL0     C29045   0.645   6.761   2.911 -0.4687 -0.1647  0.9336
  216MOL0     C29046   0.501   6.801   2.887  0.5259  0.0873 -0.1893
  216MOL0     C29047   0.389   6.710   2.948 -0.3669  1.4848  1.0285
  216MOL0     C29048   0.367   6.726   3.097  0.1751  0.0879 -0.4977
  216MOL0     O29049   0.329   6.865   3.131  0.9979 -1.0228  1.0779
  216MOL0     C29050   0.390   6.910   3.240  0.7372 -0.4797 -0.1754
  216MOL0     C29051   0.405   7.045   3.236  0.4909  0.4581  0.1420
  216MOL0     C29052   0.442   7.122   3.356 -0.6748  0.3752 -0.7561
  216MOL0     C29053   0.433   7.273   3.355 -0.7018  0.2747 -0.5163
  216MOL0     C29054   0.486   7.046   3.463 -0.7345  0.6251 -0.3855
  216MOL0     C29055   0.551   7.094   3.591  0.8262 -0.4924 -0.1195
  216MOL0     O29056   0.580   7.005   3.689 -0.8968 -0.3960 -0.5034
  216MOL0     C29057   0.649   7.066   3.797 -0.2117 -0.9004  0.9919
  216MOL0     C29058   0.785   7.085   3.800 -0.0381  0.0255  0.8515
  216MOL0     C29059   0.857   7.127   3.912  0.6336  1.0030  0.0804
  216MOL0     C29060   0.778   7.178   4.021  0.2434  0.3848  1.1192
  216MOL0     O29061   0.832   7.231   4.134  0.2575 -0.2277 -0.4602
  216MOL0     C29062   0.976   7.215   4.150  0.0198 -0.4758 -0.0522
  216MOL0     C29063   0.981   7.255   4.293 -0.2700  0.2091 -0.6040
  216MOL0     C29064   1.106   7.338   4.326  0.5699 -0.4964  0.9115
  216MOL0     C29065   1.103   7.413   4.459  0.1309  0.5094 -0.3142
  216MOL0     C29066   1.236   7.496   4.482  0.7418  0.5974 -0.0613
  216MOL0     C29067   1.230   7.534   4.625 -0.5697  0.0215 -0.1558
  216MOL0     C29068   1.363   7.602   4.668 -0.0294  0.9034  0.6733
  216MOL0     C29069   1.344   7.745   4.686  0.7662 -0.9777  0.4904
  216MOL0    Cl29070   1.237   7.782   4.835  0.0568  0.1088  0.8457
  216MOL0     C29071   0.648   7.165   4.017  0.0652  0.0850  0.3147
  216MOL0     C29072   0.576   7.119   3.906 -0.1519 -0.2613 -0.3945
  216MOL0     O29073   0.569   7.213   3.600  0.2287  0.6681  1.1368
  216MOL0     C29074   0.487   6.900   3.464  0.1804  0.2755  0.1531
  216MOL0     C29075   0.432   6.835   3.349  0.3755  0.1958  0.5552
  216MOL0     N29076   0.612   6.593   2.718  0.4588 -0.4402 -0.3634
  216MOL0     N29077   0.689   6.513   2.663 -0.4787  0.6372  0.5356
  216MOL0     C29078   1.798   6.547   3.150 -0.4946  0.3574  0.7571
  216MOL0     C29079   1.889   6.623   3.230  0.0535 -0.2602  0.1147
  216MOL0     C29080   2.042   6.905   3.542 -0.1071  0.4406  0.5555
  216MOL0     C29081   2.043   7.041   3.509 -0.3831 -0.0713  0.3265
  216MOL0     C29082   2.115   7.137   3.582 -0.2737  1.0452 -0.0689
  216MOL0     C29083   2.174   7.105   3.699  0.4876  0.7317 -0.6520
  216MOL0     O29084   2.246   7.208   3.764  0.7493 -0.1341  0.1109
  216MOL0     C29085   2.378   7.167   3.795  0.0158 -0.0507 -0.4737
  216MOL0     C29086   2.468   7.136   3.681 -0.0780 -1.4031  0.4856
  216MOL0     C29087   2.609   7.110   3.722 -0.2847 -0.0773 -0.3035
  216MOL0     C29088   2.713   7.222   3.682  0.2316 -0.9712  0.6309
  216MOL0     C29089   2.700   7.339   3.767  0.6370  0.4034  0.4771
  216MOL0     C29090   2.716   7.422   3.853 -0.1473 -0.3602 -0.4911
  216MOL0     C29091   2.154   6.972   3.751 -0.2215 -0.5391 -0.4248
  216MOL0     C29092   2.099   6.869   3.664  0.2506 -0.1484  0.3706
  216MOL0     H29093   1.714   6.923   3.225 -1.0407 -0.9135 -2.4056
  216MOL0     H29094   1.556   6.787   3.129 -0.4879 -0.7148 -1.5806
  216MOL0     H29095   1.507   6.508   3.252 -2.2468  2.7899  0.9102
  216MOL0     H29096   1.403   6.610   3.154 -2.0209 -0.6246 -1.5080
  216MOL0     H29097   1.445   6.329   3.111  2.2334  1.6138  1.9638
  216MOL0     H29098   1.298   6.405   3.203  2.0312  2.2373  1.2172
  216MOL0     H29099   1.249   6.539   3.005  2.6887  1.8600 -1.1586
  216MOL0     H29100   1.373   6.465   2.909 -1.0978 -1.7704 -0.8139
  216MOL0     H29101   1.253   6.257   2.893 -1.7178  0.6106 -0.6415
  216MOL0     H29102   1.128   6.308   3.006  1.2781 -1.2312  1.9737
  216MOL0     H29103   1.084   6.497   2.825 -2.7998 -1.4902  1.1819
  216MOL0     H29104   1.180   6.406   2.712 -1.4858  0.1631 -0.2474
  216MOL0     H29105   1.003   6.209   2.746 -0.0995 -0.3548 -1.9831
  216MOL0     H29106   0.907   6.336   2.825 -0.6521  0.8198 -0.3266
  216MOL0     H29107   1.023   6.344   2.542 -0.3434 -1.4388  0.6697
  216MOL0     H29108   0.852   6.322   2.580  1.8707 -2.0769 -4.2763
  216MOL0     H29109   0.920   6.556   2.501  2.5791  1.8401  0.6243
  216MOL0     H29110   1.022   6.571   2.644 -0.8096  0.2372  2.4418
  216MOL0     H29111   0.896   6.694   2.841 -1.4921  1.7692 -0.1655
  216MOL0     H29112   0.665   6.722   3.011  2.3003  2.8193  1.7422
  216MOL0     H29113   0.703   6.854   2.902 -0.2834  0.1349  3.9426
  216MOL0     H29114   0.484   6.810   2.779 -0.3795  2.7340  0.0973
  216MOL0     H29115   0.488   6.904   2.924 -1.3160 -1.0243  2.5323
  216MOL0     H29116   0.419   6.606   2.930 -0.4482  1.8715 -1.7909
  216MOL0     H29117   0.289   6.732   2.909  0.4550  1.8341 -1.0007
  216MOL0     H29118   0.466   6.699   3.133 -0.1001  2.8740  2.8606
  216MOL0     H29119   0.310   6.644   3.141  1.4106 -1.6273 -1.8999
  216MOL0     H29120   0.383   7.107   3.151  2.8321 -1.0382 -1.6902
  216MOL0     H29121   0.375   7.302   3.444  1.6209 -0.5649  1.3962
  216MOL0     H29122   0.539   7.298   3.362 -0.6768  0.1078 -0.2768
  216MOL0     H29123   0.397   7.307   3.258  0.9027 -1.7823 -1.9026
  216MOL0     H29124   0.844   7.048   3.716 -1.7622 -2.4823  0.6479
  216MOL0     H29125   0.965   7.130   3.910  0.6575  0.6512  0.6139
  216MOL0     H29126   1.010   7.112   4.137 -0.2317 -0.7566  1.3429
  216MOL0     H29127   1.021   7.278   4.072 -1.7600 -0.1681 -0.8692
  216MOL0     H29128   0.899   7.322   4.321  0.0859 -0.1030  1.2954
  216MOL0     H29129   0.971   7.175   4.366  1.9065  1.4290  1.1604
  216MOL0     H29130   1.112   7.415   4.249 -0.1633 -2.1044 -0.8269
  216MOL0     H29131   1.202   7.285   4.321  0.7118 -0.1616 -0.1303
  216MOL0     H29132   1.010   7.470   4.458  0.8757  1.8479 -3.0063
  216MOL0     H29133   1.106   7.328   4.529  0.7440  1.2041  0.5260
  216MOL0     H29134   1.240   7.590   4.426  1.6879  0.7588  0.2737
  216MOL0     H29135   1.315   7.423   4.462 -1.1085 -1.6192  0.2157
  216MOL0     H29136   1.147   7.603   4.638 -1.2700 -0.6969 -0.7225
  216MOL0     H29137   1.225   7.454   4.699  1.5923 -0.6534 -0.6636
  216MOL0     H29138   1.431   7.599   4.583  1.1519 -0.4310  1.6072
  216MOL0     H29139   1.404   7.552   4.757  0.6283 -0.5480 -0.4053
  216MOL0     H29140   1.296   7.784   4.596 -1.7133 -1.1684  1.6512
  216MOL0     H29141   1.441   7.794   4.697  0.2782 -0.2085  1.5264
  216MOL0     H29142   0.591   7.203   4.101 -0.3972 -2.9561  1.4902
  216MOL0     H29143   0.473   7.086   3.919  0.0268 -1.3897 -1.5377
  216MOL0     H29144   0.523   6.835   3.542  1.8950 -1.7292 -2.1640
  216MOL0     H29145   0.410   6.729   3.344 -1.5198  0.5150  1.0458
  216MOL0     H29146   1.823   6.441   3.149  1.8626  0.7078  4.2488
  216MOL0     H29147   1.977   6.576   3.273 -0.1534  2.0293  3.4237
  216MOL0     H29148   1.990   7.068   3.418 -1.2929  0.1654  0.9160
  216MOL0     H29149   2.122   7.242   3.554  1.7763  0.6919 -1.0806
  216MOL0     H29150   2.422   7.246   3.855 -0.1709  0.6169 -1.1979
  216MOL0     H29151   2.381   7.080   3.862 -0.4615 -0.6445 -1.1980
  216MOL0     H29152   2.465   7.219   3.611  2.9288  0.9203  2.8435
  216MOL0     H29153   2.439   7.043   3.630  1.4582 -0.5940 -2.0266
  216MOL0     H29154   2.643   7.012   3.687 -1.9931 -0.1380 -1.9181
  216MOL0     H29155   2.619   7.100   3.831 -2.9317  1.4019  0.1633
  216MOL0     H29156   2.711   7.236   3.574  0.7420  0.6176  0.8051
  216MOL0     H29157   2.814   7.182   3.697  1.2804  1.3355  0.1111
  216MOL0     H29158   2.733   7.511   3.910  0.9441 -2.1364  2.1166
  216MOL0     H29159   2.190   6.937   3.847  1.5986  0.0220 -0.8770
  216MOL0     H29160   2.097   6.769   3.705  0.2406  0.4482  1.9108
  217MOL0     O29161   0.379   5.245   5.442 -0.1727 -0.2928 -0.3865
  217MOL0     C29162   0.329   5.313   5.353  0.9282 -0.7276 -0.7485
  217MOL0     O29163   0.332   5.292   5.222 -0.9194 -0.2942 -0.0598
  217MOL0     C29164   0.418   5.188   5.181 -0.0419 -0.1503 -0.3591
  217MOL0     C29165   0.558   5.169   5.225  0.7247  0.0417 -0.1704
  217MOL0     C29166   0.635   5.056   5.174  0.5789  0.2282  0.0888
  217MOL0     C29167   0.580   4.974   5.077  0.1911  0.8182 -0.5505
  217MOL0     O29168   0.649   4.872   5.018 -0.3537  0.0289 -0.0573
  217MOL0     C29169   0.793   4.908   4.994 -0.8111  0.4294 -0.2973
  217MOL0     C29170   0.859   4.785   4.920  1.2919 -0.4747  0.7078
  217MOL0     C29171   0.879   4.649   4.987  0.0564 -1.0723  0.1027
  217MOL0     C29172   0.971   4.575   4.894 -0.7235 -0.4472  0.4364
  217MOL0     C29173   0.994   4.433   4.937  0.2702  0.1113  1.0714
  217MOL0     C29174   1.042   4.397   5.084 -0.1584  0.0641  0.6279
  217MOL0     C29175   1.181   4.454   5.113 -0.7511  0.1916  0.3740
  217MOL0     C29176   1.306   4.380   5.061 -0.5106 -0.3021 -0.0519
  217MOL0     N29177   1.418   4.354   5.156 -0.4143 -0.9615  0.1963
  217MOL0     C29178   1.466   4.429   5.261  0.4995  0.0034  0.8404
  217MOL0     C29179   1.588   4.374   5.305 -0.8346 -0.6083 -0.4267
  217MOL0     C29180   1.675   4.435   5.407  0.6373 -0.0932 -0.2468
  217MOL0     C29181   1.697   4.334   5.531  0.0625  0.5792 -0.4517
  217MOL0     C29182   1.758   4.398   5.655  0.1065 -0.1688 -0.8040
  217MOL0     C29183   1.822   4.303   5.760 -0.0135 -0.1446  0.1211
  217MOL0     O29184   1.831   4.367   5.888  0.1148  0.7560 -0.5607
  217MOL0     C29185   1.915   4.478   5.895  0.1897  0.9115 -0.7312
  217MOL0     C29186   2.015   4.496   5.798 -0.4650  0.2511 -0.7491
  217MOL0     C29187   2.113   4.593   5.803 -0.9193 -0.0758  0.4276
  217MOL0     C29188   2.215   4.600   5.703 -0.4409  0.2878 -1.1650
  217MOL0     C29189   2.116   4.674   5.919 -0.4323  0.4515 -0.1328
  217MOL0     C29190   2.212   4.781   5.950  0.1019  0.3938 -0.4203
  217MOL0     O29191   2.166   4.898   6.000 -0.2000  0.1527 -0.6482
  217MOL0     C29192   2.245   5.012   6.024 -0.0840 -0.1624  0.2159
  217MOL0     C29193   2.281   5.068   6.153  0.8002  0.1924 -0.4423
  217MOL0     C29194   2.344   5.191   6.171  0.0647 -0.9622 -0.6510
  217MOL0     C29195   2.370   5.271   6.059  0.1176 -0.8195 -0.4145
  217MOL0     O29196   2.438   5.388   6.055  0.2620  0.4182  0.8530
  217MOL0     C29197   2.540   5.413   6.163  0.2099  0.3792 -0.0047
  217MOL0     C29198   2.653   5.302   6.148  0.7211 -0.1454 -0.0009
  217MOL0     C29199   2.764   5.342   6.242 -0.3432 -0.0428 -0.1963
  217MOL0     C29200   2.889   5.251   6.224  0.4475  0.3794  0.7489
  217MOL0     C29201   2.992   5.286   6.332 -0.2563  0.1097 -0.0476
  217MOL0     C29202   3.131   5.245   6.290  0.3446 -0.0856 -0.0208
  217MOL0     C29203   3.165   5.252   6.141  0.9575  0.3215 -0.1313
  217MOL0     C29204   3.302   5.287   6.091  0.7055 -0.3663 -0.2277
  217MOL0    Cl29205   3.426   5.211   6.195  0.1473  0.2680  0.1757
  217MOL0     C29206   2.321   5.223   5.938 -0.0611 -0.2238 -0.0537
  217MOL0     C29207   2.273   5.100   5.919  0.4604  0.4906 -0.0499
  217MOL0     O29208   2.333   4.765   5.925  0.1160 -0.1437  0.5522
  217MOL0     C29209   2.015   4.663   6.017  0.3651  0.2436 -0.9265
  217MOL0     C29210   1.913   4.569   6.003  0.1815  0.6395 -0.4968
  217MOL0     N29211   1.597   4.262   5.224  0.2540 -0.2263 -0.2734
  217MOL0     N29212   1.507   4.256   5.141  1.2878  0.7405  0.5314
  217MOL0     C29213   0.450   4.997   5.033 -0.3121  0.5077 -0.3738
  217MOL0     C29214   0.374   5.106   5.080 -0.6267  0.7318  0.6708
  217MOL0     C29215   0.228   5.405   5.409 -0.6836 -1.3859  0.0686
  217MOL0     C29216   0.127   5.438   5.323 -0.1476 -0.9433 -0.2013
  217MOL0     C29217   0.032   5.525   5.366 -0.0902  0.4348 -0.0984
  217MOL0     C29218   0.022   5.572   5.500  0.2945 -0.6743  0.3279
  217MOL0     O29219  -0.068   5.656   5.558  0.2002  0.0976  0.4663
  217MOL0     C29220  -0.196   5.597   5.584 -0.4751 -0.0657 -0.2200
  217MOL0     C29221  -0.281   5.730   5.596 -0.6267 -0.3372 -0.1272
  217MOL0     C29222  -0.407   5.690   5.677  0.4562 -0.2259 -0.0775
  217MOL0     C29223  -0.507   5.803   5.690 -0.4954 -0.1539  0.0762
  217MOL0     C29224  -0.461   5.900   5.794  1.0259  0.6325 -0.8056
  217MOL0     C29225  -0.428   5.992   5.852 -0.0570  0.0203  0.2160
  217MOL0     C29226   0.119   5.525   5.591  0.0892  0.9653 -0.0482
  217MOL0     C29227   0.230   5.452   5.543 -0.1083  1.5079  0.0260
  217MOL0     H29228   0.598   5.228   5.307 -0.8898 -0.4250  0.9930
  217MOL0     H29229   0.733   5.040   5.217 -0.0765 -1.7395  1.0172
  217MOL0     H29230   0.801   4.994   4.926 -2.6961 -0.2414 -1.4353
  217MOL0     H29231   0.849   4.931   5.085  1.9283 -2.4017 -1.0707
  217MOL0     H29232   0.802   4.756   4.831  0.9038  0.1398  0.7543
  217MOL0     H29233   0.958   4.818   4.889 -0.0475  3.0064 -0.2714
  217MOL0     H29234   0.918   4.667   5.088 -3.3511 -1.8151  1.7014
  217MOL0     H29235   0.791   4.587   5.002  1.3702 -3.3139 -0.9696
  217MOL0     H29236   0.941   4.576   4.789 -1.0921  0.3419  0.5439
  217MOL0     H29237   1.068   4.626   4.887 -1.6909  1.4240 -0.2399
  217MOL0     H29238   0.896   4.391   4.915  1.6772 -1.8004 -2.4078
  217MOL0     H29239   1.072   4.396   4.869 -0.1792 -0.0518  0.6451
  217MOL0     H29240   0.980   4.445   5.161  0.5567 -0.9405  1.8574
  217MOL0     H29241   1.043   4.290   5.103 -2.3741 -0.8833 -3.3295
  217MOL0     H29242   1.191   4.549   5.059  0.4398 -0.2006 -0.1241
  217MOL0     H29243   1.176   4.469   5.221  0.3808 -0.5802  0.5489
  217MOL0     H29244   1.352   4.444   4.985 -0.2927 -0.4330 -0.0324
  217MOL0     H29245   1.278   4.286   5.013 -1.2648  0.4000 -1.0245
  217MOL0     H29246   1.421   4.519   5.302 -1.6435 -2.3617  4.1193
  217MOL0     H29247   1.776   4.463   5.375  1.9151  2.3010  4.7392
  217MOL0     H29248   1.631   4.527   5.446 -1.7743 -1.2679 -0.0562
  217MOL0     H29249   1.765   4.252   5.505  1.8407  0.6494  3.2387
  217MOL0     H29250   1.603   4.295   5.572  1.0296 -2.6420 -1.0178
  217MOL0     H29251   1.681   4.453   5.711 -0.6027 -3.5107  1.8182
  217MOL0     H29252   1.833   4.464   5.610  1.0907 -1.2333 -0.7455
  217MOL0     H29253   1.914   4.262   5.716 -1.7239 -2.6307 -1.3462
  217MOL0     H29254   1.756   4.218   5.778 -1.6187  0.8220 -0.9568
  217MOL0     H29255   2.025   4.441   5.705 -0.8758  2.0630 -1.9089
  217MOL0     H29256   2.272   4.692   5.693  0.9724  0.2896  3.8997
  217MOL0     H29257   2.278   4.516   5.735  2.8125  3.7338  2.5865
  217MOL0     H29258   2.169   4.581   5.606  1.6906 -0.7215 -2.0388
  217MOL0     H29259   2.261   5.008   6.241 -3.2890 -0.0658 -1.3450
  217MOL0     H29260   2.386   5.217   6.268 -0.2294 -1.1616 -0.4678
  217MOL0     H29261   2.588   5.511   6.163  0.9774  0.0725  2.7106
  217MOL0     H29262   2.481   5.404   6.254 -3.0448 -0.7816 -2.0533
  217MOL0     H29263   2.614   5.202   6.172  0.1645 -0.1859 -1.0228
  217MOL0     H29264   2.686   5.301   6.043 -1.4129  2.5656 -0.8037
  217MOL0     H29265   2.736   5.335   6.348  0.8843 -1.3167  0.0767
  217MOL0     H29266   2.787   5.448   6.231  0.4631 -0.0937  0.7987
  217MOL0     H29267   2.872   5.144   6.239  0.8608  0.1503 -0.3433
  217MOL0     H29268   2.915   5.263   6.119 -1.0490  0.5879  0.3786
  217MOL0     H29269   2.959   5.248   6.429  4.2775 -0.2458  1.5896
  217MOL0     H29270   2.998   5.395   6.333  2.3818  0.0390 -0.9307
  217MOL0     H29271   3.205   5.298   6.352  0.2517 -0.2899  0.2660
  217MOL0     H29272   3.138   5.140   6.320  1.1060  0.4108  1.6347
  217MOL0     H29273   3.106   5.333   6.096  0.8850  1.1790  1.4115
  217MOL0     H29274   3.146   5.157   6.091 -1.5440  0.7236 -0.1183
  217MOL0     H29275   3.301   5.395   6.112  1.2970 -0.6500  1.4822
  217MOL0     H29276   3.321   5.275   5.984  3.7484 -0.2293  0.1899
  217MOL0     H29277   2.346   5.285   5.853  0.4162 -2.4049 -1.5870
  217MOL0     H29278   2.225   5.066   5.827 -0.5485 -0.1229  0.6825
  217MOL0     H29279   2.019   4.729   6.103 -0.5857 -0.8115 -0.0574
  217MOL0     H29280   1.833   4.567   6.077  2.3331  1.4103  2.0451
  217MOL0     H29281   0.410   4.921   4.967 -0.8198 -0.4021  0.9391
  217MOL0     H29282   0.272   5.112   5.045 -0.2851 -1.5645 -0.9698
  217MOL0     H29283   0.134   5.397   5.223 -2.7122 -0.9206 -0.4519
  217MOL0     H29284  -0.037   5.562   5.291 -3.8763  0.2090  2.9314
  217MOL0     H29285  -0.235   5.536   5.502 -1.1806 -0.9274  0.7226
  217MOL0     H29286  -0.183   5.549   5.682 -1.6744 -5.0787 -2.2277
  217MOL0     H29287  -0.301   5.763   5.494  1.1761 -1.8930 -1.0499
  217MOL0     H29288  -0.227   5.804   5.654 -0.1403 -0.9729  0.2487
  217MOL0     H29289  -0.381   5.643   5.773 -0.8187 -0.1614  0.3136
  217MOL0     H29290  -0.454   5.607   5.623 -1.5426  0.3806  0.6372
  217MOL0     H29291  -0.597   5.752   5.726 -0.6181 -1.1426 -1.5246
  217MOL0     H29292  -0.513   5.849   5.591  1.3488  3.6582  1.5223
  217MOL0     H29293  -0.393   6.080   5.902  0.4834 -1.2002  2.1155
  217MOL0     H29294   0.122   5.565   5.692  1.8577  1.1578 -0.1544
  217MOL0     H29295   0.306   5.430   5.617 -0.5730  0.0500  0.0983
  218MOL0     O29296  11.077   9.661   2.043 -0.6398 -0.4036  0.2083
  218MOL0     C29297  11.185   9.684   1.991 -0.6814 -0.4373 -0.3077
  218MOL0     O29298  11.215   9.672   1.858  0.4465  0.5489 -0.6463
  218MOL0     C29299  11.121   9.638   1.767 -0.0354 -0.1140  0.3095
  218MOL0     C29300  11.185   9.609   1.653  0.5662 -0.3675  1.0170
  218MOL0     C29301  11.110   9.606   1.535  0.1101 -1.2070  0.5527
  218MOL0     C29302  10.968   9.604   1.535 -0.4316  1.1653 -0.8601
  218MOL0     O29303  10.901   9.575   1.427  0.8313  0.2404  0.0675
  218MOL0     C29304  10.914   9.441   1.381  0.1634 -0.9730 -0.3874
  218MOL0     C29305  10.822   9.343   1.442  0.4578 -0.5730  0.8750
  218MOL0     C29306  10.829   9.205   1.367 -0.4391 -0.3693  0.2898
  218MOL0     C29307  10.737   9.110   1.442 -0.8463  0.5211  0.0734
  218MOL0     C29308  10.728   8.966   1.388  0.1583  0.2054 -1.1938
  218MOL0     C29309  10.868   8.907   1.393 -0.9383  0.5557 -0.0342
  218MOL0     C29310  10.881   8.760   1.362 -0.0940  0.0259 -0.4147
  218MOL0     C29311  10.825   8.720   1.225 -0.4161  0.1581  0.6918
  218MOL0     N29312  10.863   8.581   1.198 -1.1385 -0.9386  0.5621
  218MOL0     C29313  10.981   8.509   1.222  0.0589  0.0194  0.6780
  218MOL0     C29314  10.972   8.399   1.147 -0.4445  0.4011 -0.8432
  218MOL0     C29315  11.072   8.294   1.155 -0.0145  0.2522  0.3852
  218MOL0     C29316  11.072   8.218   1.289  1.0058  0.8805  0.7606
  218MOL0     C29317  10.967   8.104   1.310  0.3342  0.2135  0.0884
  218MOL0     C29318  10.824   8.167   1.343 -0.4350 -0.4476 -0.6644
  218MOL0     O29319  10.727   8.071   1.377  0.6138 -0.0727 -0.1070
  218MOL0     C29320  10.633   8.018   1.293 -1.0015  0.6726 -0.0413
  218MOL0     C29321  10.628   8.066   1.165 -0.1254 -0.1697  0.4787
  218MOL0     C29322  10.548   8.005   1.072  0.1864  1.1742  0.0469
  218MOL0     C29323  10.540   8.055   0.930  0.0563  0.1925  0.1896
  218MOL0     C29324  10.466   7.884   1.111 -1.0349  0.4190 -0.5948
  218MOL0     C29325  10.363   7.811   1.026  0.4964  0.0461  0.3159
  218MOL0     O29326  10.293   7.705   1.086  0.5657  0.1504  0.3509
  218MOL0     C29327  10.224   7.608   1.010 -0.3764 -0.5415  0.4713
  218MOL0     C29328  10.251   7.568   0.878 -1.3333 -0.3570  0.2875
  218MOL0     C29329  10.178   7.485   0.813  0.3248  0.8043 -0.1438
  218MOL0     C29330  10.064   7.428   0.868  0.1405 -0.7441 -0.5637
  218MOL0     O29331   9.982   7.348   0.792  0.7514  0.0576 -0.1691
  218MOL0     C29332   9.928   7.220   0.850  0.3526 -0.1910 -0.1416
  218MOL0     C29333  10.035   7.123   0.919  0.4455 -0.1349 -0.0431
  218MOL0     C29334   9.973   6.997   0.982  0.6400  0.2806  0.1975
  218MOL0     C29335   9.874   7.015   1.091 -0.1945 -0.0831  0.1333
  218MOL0     C29336   9.732   7.000   1.032 -0.7611  0.4048  0.2839
  218MOL0     C29337   9.635   7.056   1.131  0.2284  0.1667 -0.3546
  218MOL0     C29338   9.488   7.020   1.126 -0.9397  1.4389 -0.2000
  218MOL0     C29339   9.415   7.054   1.257  0.1091  0.2915  0.0147
  218MOL0    Cl29340   9.239   7.071   1.236 -0.1229  0.0729  0.0641
  218MOL0     C29341  10.019   7.472   1.002 -0.4665  0.2424 -0.3895
  218MOL0     C29342  10.103   7.565   1.069 -0.1586  0.2555 -0.2767
  218MOL0     O29343  10.354   7.846   0.905 -0.6424 -0.4396  0.2805
  218MOL0     C29344  10.482   7.845   1.245  1.0850 -0.2424  0.0696
  218MOL0     C29345  10.562   7.912   1.333 -0.1312 -0.0791  1.1223
  218MOL0     N29346  10.847   8.390   1.083 -0.5483  0.0711  0.6539
  218MOL0     N29347  10.782   8.500   1.108 -0.5315 -0.6977 -0.7732
  218MOL0     C29348  10.901   9.623   1.655  0.5314  0.4264  0.2875
  218MOL0     C29349  10.980   9.639   1.772  0.1415  0.3985 -0.1859
  218MOL0     C29350  11.308   9.718   2.071 -0.3882 -0.6957  0.0931
  218MOL0     C29351  11.437   9.742   2.016  0.3647  1.0539 -0.4141
  218MOL0     C29352  11.543   9.774   2.093 -0.4444  0.1087  0.7875
  218MOL0     C29353  11.537   9.775   2.227 -0.0873 -0.3999 -0.6732
  218MOL0     O29354  11.660   9.775   2.289  0.4728  0.1315  0.1462
  218MOL0     C29355  11.677   9.758   2.432 -0.5319 -0.2840 -0.1034
  218MOL0     C29356  11.655   9.892   2.511  0.0261 -0.2154 -0.4957
  218MOL0     C29357  11.758   9.999   2.478 -1.3339  0.6520 -0.5513
  218MOL0     C29358  11.811  10.058   2.615 -1.3187  0.0529  1.0328
  218MOL0     C29359  11.927  10.142   2.586  0.0067 -0.3519 -0.7657
  218MOL0     C29360  12.025  10.205   2.545  0.2834 -0.5373 -0.7958
  218MOL0     C29361  11.414   9.771   2.294 -0.4459  0.0506 -0.9709
  218MOL0     C29362  11.300   9.749   2.206  1.2480 -0.7386  0.2751
  218MOL0     H29363  11.293   9.608   1.644  0.4767 -0.2683 -0.3692
  218MOL0     H29364  11.163   9.628   1.443 -0.2938  1.5595  0.9021
  218MOL0     H29365  10.870   9.450   1.281 -1.0564  1.1559  0.2924
  218MOL0     H29366  11.016   9.404   1.392 -0.1166 -1.2809  1.5828
  218MOL0     H29367  10.836   9.331   1.549 -0.8087 -0.5034  1.0691
  218MOL0     H29368  10.720   9.383   1.434  1.4393  1.7312 -2.2756
  218MOL0     H29369  10.789   9.226   1.267 -2.4087  3.9948  1.7807
  218MOL0     H29370  10.934   9.172   1.366  0.0670  1.2007 -0.4442
  218MOL0     H29371  10.778   9.112   1.543 -1.6859 -0.4470  0.4493
  218MOL0     H29372  10.636   9.151   1.438 -1.1881 -0.2446  0.5275
  218MOL0     H29373  10.668   8.903   1.455  1.2260  0.2046 -0.2043
  218MOL0     H29374  10.680   8.969   1.290 -2.4844  1.1260  0.0306
  218MOL0     H29375  10.944   8.955   1.331  1.9464 -2.4118  0.8685
  218MOL0     H29376  10.899   8.921   1.498  0.8718  2.6960 -0.7730
  218MOL0     H29377  10.987   8.735   1.374  0.4980  2.4692  0.1617
  218MOL0     H29378  10.828   8.698   1.434 -2.0994 -0.1782 -1.9988
  218MOL0     H29379  10.847   8.789   1.144 -1.5039  0.8086  0.9338
  218MOL0     H29380  10.716   8.718   1.240 -0.5993  1.9440 -0.2008
  218MOL0     H29381  11.071   8.536   1.276 -0.6417  2.5936  0.6734
  218MOL0     H29382  11.035   8.227   1.077 -1.4023  0.9849  0.3925
  218MOL0     H29383  11.172   8.329   1.128 -0.1352  2.3894  2.3428
  218MOL0     H29384  11.050   8.296   1.363 -1.1208 -0.1001  1.2247
  218MOL0     H29385  11.169   8.168   1.304 -0.8143 -2.9924  0.9440
  218MOL0     H29386  11.003   8.054   1.401  0.9988  1.6047  0.6102
  218MOL0     H29387  10.961   8.046   1.217 -0.4769  0.2394  0.1167
  218MOL0     H29388  10.798   8.228   1.257 -2.3977 -0.4803 -0.1308
  218MOL0     H29389  10.834   8.226   1.435 -1.2847  0.3987 -1.0992
  218MOL0     H29390  10.680   8.155   1.131  0.6313 -1.2589 -1.3611
  218MOL0     H29391  10.439   8.091   0.908 -0.3298 -1.0481 -0.1656
  218MOL0     H29392  10.610   8.138   0.912  1.2951 -0.6960  0.7459
  218MOL0     H29393  10.566   7.972   0.863 -3.2411 -2.2543  1.6953
  218MOL0     H29394  10.344   7.607   0.837 -1.8896  1.7314  0.9031
  218MOL0     H29395  10.206   7.453   0.713 -0.7861 -1.1085  0.0944
  218MOL0     H29396   9.864   7.263   0.928  0.0299 -0.5245 -0.2217
  218MOL0     H29397   9.873   7.164   0.773  1.9198  1.3219 -2.5155
  218MOL0     H29398  10.111   7.093   0.846  1.3834 -1.5417  1.4269
  218MOL0     H29399  10.096   7.177   0.992  2.2500 -2.7794  0.5819
  218MOL0     H29400  10.057   6.937   1.016 -2.4882 -4.4779  0.3777
  218MOL0     H29401   9.930   6.934   0.903  2.6968 -1.1529  0.1675
  218MOL0     H29402   9.900   6.936   1.163  1.4014  0.7358  0.5024
  218MOL0     H29403   9.889   7.108   1.145 -4.2261 -0.2767  1.9549
  218MOL0     H29404   9.719   6.893   1.012 -1.8994  0.3659  1.1928
  218MOL0     H29405   9.728   7.053   0.936 -0.5399 -1.5978 -0.8978
  218MOL0     H29406   9.674   7.034   1.231  1.1152 -0.0921 -0.7400
  218MOL0     H29407   9.643   7.165   1.120  2.1583 -0.0323 -1.5962
  218MOL0     H29408   9.478   6.915   1.098  1.7491  0.5792  1.6863
  218MOL0     H29409   9.441   7.073   1.042 -2.2644  0.0637 -0.3541
  218MOL0     H29410   9.447   7.150   1.298 -2.7485  2.3346 -2.0770
  218MOL0     H29411   9.418   6.984   1.341 -1.8681  0.5644  0.3671
  218MOL0     H29412   9.933   7.427   1.051 -1.6975  2.0096 -0.8366
  218MOL0     H29413  10.086   7.620   1.161  1.6763  1.8703 -0.8157
  218MOL0     H29414  10.452   7.748   1.283 -1.8643  0.3198 -0.5723
  218MOL0     H29415  10.577   7.874   1.434  0.7314  0.4536  1.2026
  218MOL0     H29416  10.794   9.617   1.642  0.7774 -2.3076 -1.1970
  218MOL0     H29417  10.931   9.678   1.860  0.2673  1.7578 -0.6964
  218MOL0     H29418  11.464   9.725   1.912  0.5843 -0.9279 -0.0686
  218MOL0     H29419  11.638   9.768   2.039 -1.8606 -1.9024 -1.7465
  218MOL0     H29420  11.608   9.679   2.462 -1.9414  1.1606  0.6437
  218MOL0     H29421  11.778   9.735   2.465 -0.6422  1.5783  1.7631
  218MOL0     H29422  11.648   9.868   2.618 -0.4025  2.2122  0.0922
  218MOL0     H29423  11.554   9.930   2.492  0.4274  0.4032 -1.4749
  218MOL0     H29424  11.705  10.075   2.419 -3.3699 -2.2042 -2.6547
  218MOL0     H29425  11.839   9.953   2.421  1.2823  0.6369  2.8759
  218MOL0     H29426  11.837   9.976   2.684  0.7032 -1.6604 -1.5678
  218MOL0     H29427  11.727  10.113   2.658 -1.3835  1.6093 -0.9653
  218MOL0     H29428  12.102  10.265   2.500  2.3707 -1.7847  0.9070
  218MOL0     H29429  11.402   9.779   2.401 -0.5148  2.3672 -1.1049
  218MOL0     H29430  11.211   9.744   2.269  1.6540 -0.8289  0.8478
  219MOL0     O29431   2.791  10.417   9.873  0.2530  0.4550  0.5235
  219MOL0     C29432   2.802  10.331   9.964 -0.5963 -0.9609 -0.4287
  219MOL0     O29433   2.818  10.362  10.090  0.0513 -0.2564 -1.6671
  219MOL0     C29434   2.870  10.484  10.126  0.4314 -0.2556 -0.5411
  219MOL0     C29435   2.799  10.558  10.217 -0.2419  0.6420  0.4388
  219MOL0     C29436   2.842  10.690  10.239 -0.0169  0.1095  0.7470
  219MOL0     C29437   2.965  10.738  10.197 -0.0159  1.0421 -0.6650
  219MOL0     O29438   3.002  10.859  10.228 -0.2649 -0.8101  0.0666
  219MOL0     C29439   3.103  10.937  10.161 -0.5154  1.1417  0.4332
  219MOL0     C29440   3.098  11.084  10.210 -0.8939 -0.1995 -0.5312
  219MOL0     C29441   3.206  11.169  10.143 -0.8522 -0.4994 -0.0237
  219MOL0     C29442   3.284  11.245  10.256 -0.0120 -0.1722 -0.0768
  219MOL0     C29443   3.365  11.364  10.195  0.7676  0.0565  0.1291
  219MOL0     C29444   3.452  11.426  10.297 -0.2529 -0.0073 -0.0706
  219MOL0     C29445   3.573  11.335  10.352 -0.4506  0.3587 -0.1307
  219MOL0     C29446   3.670  11.277  10.249 -0.3389 -0.2557 -0.2400
  219MOL0     N29447   3.736  11.374  10.171  0.0770 -0.0394  0.4494
  219MOL0     C29448   3.833  11.463  10.198 -0.9857 -0.3407 -0.4489
  219MOL0     C29449   3.872  11.526  10.086  0.1864 -0.3647  0.4161
  219MOL0     C29450   3.970  11.648  10.062  0.0636  0.6777  0.5437
  219MOL0     C29451   3.912  11.793  10.062  0.1691  1.1564  0.1738
  219MOL0     C29452   3.812  11.806  10.175  0.8171 -0.7485 -0.0425
  219MOL0     C29453   3.754  11.939  10.190  0.2648  0.2343 -0.3212
  219MOL0     O29454   3.627  11.938  10.254  0.0861  1.6461  0.3927
  219MOL0     C29455   3.630  11.899  10.384  0.6277  0.7594  0.1473
  219MOL0     C29456   3.675  11.995  10.474 -0.1517  0.5248  0.0526
  219MOL0     C29457   3.696  11.958  10.610  0.6661 -0.1931  0.1450
  219MOL0     C29458   3.774  12.058  10.708 -0.0472 -0.1422 -0.1512
  219MOL0     C29459   3.669  11.829  10.659  0.3819  0.3076  0.4246
  219MOL0     C29460   3.674  11.779  10.802 -0.1656 -0.0402 -0.0759
  219MOL0     O29461   3.646  11.646  10.825  0.9226 -0.2678  0.5654
  219MOL0     C29462   3.665  11.587  10.949 -0.6663  0.2173  0.1424
  219MOL0     C29463   3.726  11.464  10.949  1.2730  0.1257  0.1080
  219MOL0     C29464   3.755  11.402  11.078 -0.5532 -0.0320  0.4593
  219MOL0     C29465   3.696  11.444  11.198 -0.0999  0.6002  0.5902
  219MOL0     O29466   3.729  11.380  11.310 -0.0421 -0.0562  0.0181
  219MOL0     C29467   3.638  11.394  11.425 -0.5128 -1.3059 -0.0517
  219MOL0     C29468   3.645  11.250  11.493 -0.5303  0.1660  0.5380
  219MOL0     C29469   3.760  11.237  11.581  0.3785  0.5829  1.2589
  219MOL0     C29470   3.866  11.149  11.516 -0.2315 -0.5277 -0.2101
  219MOL0     C29471   3.968  11.107  11.621  0.5321  0.6635 -0.7240
  219MOL0     C29472   4.082  11.036  11.559 -0.5437  0.1033 -0.0977
  219MOL0     C29473   4.189  10.984  11.649  0.1353 -0.0373 -0.9667
  219MOL0     C29474   4.163  10.859  11.726 -0.1323 -0.7021  0.0634
  219MOL0    Cl29475   4.325  10.820  11.805  0.3272  0.1914  0.2475
  219MOL0     C29476   3.629  11.575  11.194  0.2494 -0.0041 -0.2029
  219MOL0     C29477   3.615  11.636  11.069  0.4956  0.0377  0.7322
  219MOL0     O29478   3.720  11.856  10.891 -0.3420  0.3879 -0.9795
  219MOL0     C29479   3.615  11.740  10.566 -0.7265  0.2027  0.4181
  219MOL0     C29480   3.589  11.770  10.431 -0.4148  0.2754  0.4315
  219MOL0     N29481   3.799  11.467   9.984 -0.1687 -0.4505  0.3404
  219MOL0     N29482   3.721  11.378  10.036  0.0326  1.0897 -0.0528
  219MOL0     C29483   3.044  10.645  10.122 -0.0475  0.4269  0.9749
  219MOL0     C29484   2.995  10.519  10.080  0.3457  0.4356 -0.2378
  219MOL0     C29485   2.753  10.192   9.938 -0.2764  0.1499 -0.2996
  219MOL0     C29486   2.738  10.140   9.814  0.0985 -0.4865  0.0287
  219MOL0     C29487   2.675  10.017   9.782 -0.1525 -0.4024 -1.6488
  219MOL0     C29488   2.629   9.937   9.898 -0.8698  0.4455 -0.5312
  219MOL0     O29489   2.578   9.807   9.872 -0.4245 -0.2903 -1.0557
  219MOL0     C29490   2.452   9.799   9.806 -0.3562  0.1213  0.6785
  219MOL0     C29491   2.361   9.723   9.896 -0.0675 -0.5184 -0.9342
  219MOL0     C29492   2.318   9.805  10.021  0.6540  0.2658 -0.1246
  219MOL0     C29493   2.269   9.706  10.134  0.0754 -0.0993  1.0382
  219MOL0     C29494   2.146   9.626  10.101 -0.0476 -0.0352  0.7885
  219MOL0     C29495   2.046   9.567  10.071  0.2089  0.9167 -0.0290
  219MOL0     C29496   2.660   9.977  10.025  0.2239 -0.3104  0.7254
  219MOL0     C29497   2.722  10.107  10.045  0.9811  0.7073 -0.5681
  219MOL0     H29498   2.705  10.542  10.270  0.7025  0.9305  2.2966
  219MOL0     H29499   2.772  10.760  10.285 -0.3488  1.0680 -1.1173
  219MOL0     H29500   3.204  10.907  10.189 -0.8839  0.4839  1.0981
  219MOL0     H29501   3.087  10.950  10.053  1.1119 -1.9721 -0.3003
  219MOL0     H29502   3.003  11.130  10.182 -0.0166  0.1792 -3.1564
  219MOL0     H29503   3.100  11.073  10.318 -1.1452 -0.7743 -0.5854
  219MOL0     H29504   3.276  11.120  10.076 -0.2365  1.3801 -0.8308
  219MOL0     H29505   3.161  11.248  10.081  2.1496  1.6841  0.3334
  219MOL0     H29506   3.210  11.276  10.330 -1.5081 -0.4596 -1.4025
  219MOL0     H29507   3.360  11.182  10.303  2.0794  0.4942 -2.3583
  219MOL0     H29508   3.427  11.331  10.112 -0.7154 -0.9241 -0.6370
  219MOL0     H29509   3.296  11.443  10.162 -1.5178 -1.4455  1.0826
  219MOL0     H29510   3.490  11.526  10.274  0.4689  0.0005  1.0883
  219MOL0     H29511   3.380  11.450  10.376  0.1576 -0.4450  0.4414
  219MOL0     H29512   3.636  11.394  10.419  0.5366  1.0144 -1.5662
  219MOL0     H29513   3.541  11.246  10.407 -0.5869  0.6587  0.2760
  219MOL0     H29514   3.608  11.210  10.187 -0.5925 -1.9525  1.7324
  219MOL0     H29515   3.747  11.220  10.302 -0.9104  2.0369  3.3481
  219MOL0     H29516   3.884  11.481  10.292 -0.2043  0.3937 -0.9946
  219MOL0     H29517   4.050  11.647  10.137 -1.7324  3.1707  2.6873
  219MOL0     H29518   4.019  11.636   9.965 -2.1113  0.9590 -0.6521
  219MOL0     H29519   3.862  11.821   9.968  0.0890  0.1488 -0.1024
  219MOL0     H29520   3.988  11.870  10.067 -0.2576  1.6348 -0.4718
  219MOL0     H29521   3.864  11.787  10.269 -0.7359  2.9956  1.7967
  219MOL0     H29522   3.728  11.737  10.179 -1.6550  1.9163 -1.5372
  219MOL0     H29523   3.731  11.989  10.095  0.5231  0.7809 -0.0975
  219MOL0     H29524   3.825  12.001  10.245 -0.0081  0.9055 -0.7219
  219MOL0     H29525   3.710  12.093  10.445 -1.4988  1.2575  0.8002
  219MOL0     H29526   3.704  12.093  10.785  0.7214  1.0268  0.0380
  219MOL0     H29527   3.854  12.000  10.754  2.3101  2.6433 -0.4340
  219MOL0     H29528   3.823  12.139  10.653 -0.0476  0.4371  0.6852
  219MOL0     H29529   3.766  11.411  10.864  0.6817  2.0047 -1.3990
  219MOL0     H29530   3.821  11.316  11.080 -0.9213 -0.4144 -1.5690
  219MOL0     H29531   3.676  11.467  11.497  0.6530 -2.1077  0.1790
  219MOL0     H29532   3.535  11.404  11.392  0.3264 -0.5647 -2.6998
  219MOL0     H29533   3.552  11.239  11.549 -1.9110 -3.9703 -2.1709
  219MOL0     H29534   3.633  11.165  11.426 -2.2076  0.0317  0.9593
  219MOL0     H29535   3.736  11.187  11.676  0.0149 -2.7447 -0.4276
  219MOL0     H29536   3.798  11.336  11.605  0.1021  0.8323  0.6864
  219MOL0     H29537   3.840  11.055  11.466  1.7418 -1.0951 -0.2464
  219MOL0     H29538   3.918  11.222  11.453 -1.1075  0.4724  0.1884
  219MOL0     H29539   3.919  11.044  11.696  1.6876  1.2241  0.5301
  219MOL0     H29540   3.997  11.198  11.674 -0.8556  1.2719 -0.9543
  219MOL0     H29541   4.043  10.958  11.494  0.8927 -0.7726  0.0564
  219MOL0     H29542   4.135  11.107  11.495 -1.9778  4.4654  3.0321
  219MOL0     H29543   4.214  11.067  11.716  2.3939  0.5539 -2.4025
  219MOL0     H29544   4.274  10.961  11.584  1.7561 -2.1651  1.7015
  219MOL0     H29545   4.118  10.787  11.658 -0.2129 -1.0566  0.4905
  219MOL0     H29546   4.082  10.872  11.798 -0.2772  1.2138 -0.3780
  219MOL0     H29547   3.591  11.617  11.287 -0.6789 -0.1787 -0.4916
  219MOL0     H29548   3.571  11.735  11.072  0.8440  0.1878  0.9780
  219MOL0     H29549   3.584  11.639  10.590  2.7183 -1.9549 -2.8907
  219MOL0     H29550   3.560  11.681  10.376  0.3760 -0.9454  1.8893
  219MOL0     H29551   3.143  10.678  10.091  1.1626 -0.8873  3.1213
  219MOL0     H29552   3.049  10.452  10.014 -0.0305  0.7505 -0.8715
  219MOL0     H29553   2.769  10.197   9.727  1.1659 -1.1444 -0.0293
  219MOL0     H29554   2.651   9.978   9.684  1.1667 -2.1267 -1.3184
  219MOL0     H29555   2.403   9.893   9.778  2.4708  2.3846  2.7381
  219MOL0     H29556   2.473   9.743   9.714  2.1253  1.7062  0.1901
  219MOL0     H29557   2.412   9.627   9.909  3.4506  1.0771 -1.7920
  219MOL0     H29558   2.270   9.702   9.837 -1.4385 -2.7782  1.7402
  219MOL0     H29559   2.237   9.871   9.990  1.2310  0.4376 -1.3300
  219MOL0     H29560   2.404   9.862  10.057  0.3446  2.0591 -2.0088
  219MOL0     H29561   2.256   9.761  10.227  0.7678  2.7474 -0.4266
  219MOL0     H29562   2.355   9.643  10.158  2.1537  3.2621  3.1443
  219MOL0     H29563   1.958   9.517  10.038 -0.4321  2.3421 -0.5691
  219MOL0     H29564   2.624   9.916  10.108 -1.1290  2.2848  2.1876
  219MOL0     H29565   2.747  10.131  10.147 -0.6807 -5.4089  1.7489
  220MOL0     O29566   7.628   8.925   9.314 -0.3372  0.9664  0.6688
  220MOL0     C29567   7.562   8.830   9.356  0.8380 -0.4353 -1.0301
  220MOL0     O29568   7.520   8.717   9.290 -0.3152 -1.1387  0.1506
  220MOL0     C29569   7.520   8.727   9.152  0.4623  0.2671  0.4875
  220MOL0     C29570   7.396   8.718   9.087 -1.2748  0.1861 -0.5432
  220MOL0     C29571   7.392   8.721   8.945 -0.9003  0.6239  0.1808
  220MOL0     C29572   7.509   8.728   8.865 -0.2206 -0.1587 -0.4769
  220MOL0     O29573   7.507   8.739   8.732  0.5929 -0.1272  0.1602
  220MOL0     C29574   7.391   8.735   8.648  0.5400 -0.5436 -0.2469
  220MOL0     C29575   7.435   8.750   8.498  0.1203  0.3810 -0.1176
  220MOL0     C29576   7.360   8.637   8.412 -0.6645 -0.4491 -0.4674
  220MOL0     C29577   7.444   8.511   8.408 -0.0043  0.6473  0.0587
  220MOL0     C29578   7.358   8.398   8.352  0.4973  0.6813 -0.5529
  220MOL0     C29579   7.361   8.412   8.197 -0.7112 -0.1229 -0.9494
  220MOL0     C29580   7.486   8.344   8.136 -0.3669  0.4682 -0.5805
  220MOL0     C29581   7.488   8.183   8.130 -0.1499  0.3449 -0.1257
  220MOL0     N29582   7.436   8.133   8.001 -0.3905 -0.2778 -0.4184
  220MOL0     C29583   7.355   8.201   7.914 -0.9155  0.1416  0.6335
  220MOL0     C29584   7.344   8.107   7.815  1.1253  0.8899  1.2419
  220MOL0     C29585   7.272   8.128   7.681  0.3282  0.2666  0.1344
  220MOL0     C29586   7.179   8.007   7.650 -0.2713 -0.1065  0.1110
  220MOL0     C29587   7.104   8.009   7.514  0.0618  0.3922 -0.1992
  220MOL0     C29588   7.018   7.877   7.493  0.2265 -0.0055  0.3443
  220MOL0     O29589   6.902   7.872   7.576  0.4486 -0.3501  0.5543
  220MOL0     C29590   6.825   7.760   7.559 -1.3603  0.0874  0.0347
  220MOL0     C29591   6.849   7.665   7.456  0.0839  0.2385 -0.1289
  220MOL0     C29592   6.754   7.566   7.421  0.1856  0.0389 -0.1898
  220MOL0     C29593   6.777   7.493   7.298  0.1663  0.2245  1.3481
  220MOL0     C29594   6.653   7.525   7.523  0.3125  1.1813  0.8206
  220MOL0     C29595   6.568   7.405   7.513 -0.1782  0.8411 -1.0989
  220MOL0     O29596   6.457   7.415   7.595 -0.0917  1.1000 -0.0106
  220MOL0     C29597   6.354   7.321   7.609 -0.7925 -0.0015  0.3294
  220MOL0     C29598   6.248   7.361   7.694  0.5559  0.6163 -0.4709
  220MOL0     C29599   6.134   7.285   7.692  0.3781 -0.5561  0.7295
  220MOL0     C29600   6.122   7.166   7.636  0.7824  0.4313 -0.9615
  220MOL0     O29601   6.013   7.087   7.643 -0.5557 -0.8841 -0.0990
  220MOL0     C29602   5.946   7.058   7.766 -0.5315 -0.2097  0.3952
  220MOL0     C29603   5.915   6.907   7.772 -0.4189  1.1441 -0.2391
  220MOL0     C29604   5.872   6.866   7.916 -0.4862 -0.4770  0.4704
  220MOL0     C29605   5.910   6.722   7.961  0.1935  0.5229 -0.5137
  220MOL0     C29606   6.033   6.717   8.055  0.1661  0.0814  0.1232
  220MOL0     C29607   6.102   6.573   8.059 -0.5182  0.6024 -0.8806
  220MOL0     C29608   6.232   6.566   8.139 -0.2209 -0.5116  0.8833
  220MOL0     C29609   6.357   6.597   8.060 -0.6619 -1.0044  0.3959
  220MOL0    Cl29610   6.501   6.520   8.120 -0.5644 -0.0567 -0.5430
  220MOL0     C29611   6.231   7.118   7.567 -0.4079 -0.4976 -0.0852
  220MOL0     C29612   6.350   7.195   7.548 -0.9851  0.2085  0.2007
  220MOL0     O29613   6.601   7.304   7.450 -0.4638 -0.2777  0.2108
  220MOL0     C29614   6.647   7.615   7.635  0.3702 -0.3833 -0.7538
  220MOL0     C29615   6.727   7.727   7.647  0.0747  0.7332 -0.3842
  220MOL0     N29616   7.390   7.981   7.860  0.3958  0.3846 -0.5957
  220MOL0     N29617   7.444   8.001   7.975 -0.2159 -0.1262  0.0674
  220MOL0     C29618   7.637   8.725   8.931  0.0772 -0.6494 -0.4422
  220MOL0     C29619   7.642   8.729   9.069  0.1576  1.5212  0.7195
  220MOL0     C29620   7.529   8.835   9.502 -0.1007  0.6979  0.1772
  220MOL0     C29621   7.488   8.716   9.573 -0.1619  0.2285  0.5870
  220MOL0     C29622   7.441   8.723   9.709 -0.4449 -0.1750  0.4874
  220MOL0     C29623   7.452   8.837   9.782  0.2492 -0.7087  0.1800
  220MOL0     O29624   7.402   8.836   9.906  0.2916 -0.1409  0.0636
  220MOL0     C29625   7.423   8.943  10.004  0.1225 -0.8225 -0.1933
  220MOL0     C29626   7.363   8.877  10.123  0.4089 -0.4530 -0.4450
  220MOL0     C29627   7.317   8.983  10.221  0.2456 -0.6664 -0.1981
  220MOL0     C29628   7.441   9.056  10.283  0.4535  0.8345 -0.3412
  220MOL0     C29629   7.402   9.154  10.389  0.1337  0.2669  0.6285
  220MOL0     C29630   7.369   9.244  10.464  0.9491 -0.0146  0.6964
  220MOL0     C29631   7.491   8.954   9.720 -0.3330  0.2034  0.2274
  220MOL0     C29632   7.535   8.947   9.580  0.2216 -0.8037  0.5863
  220MOL0     H29633   7.305   8.713   9.145 -0.0664 -0.3047  1.3831
  220MOL0     H29634   7.295   8.726   8.896 -2.5840  3.6794  3.3441
  220MOL0     H29635   7.330   8.644   8.648 -2.5563  1.3953 -1.0726
  220MOL0     H29636   7.316   8.810   8.675  0.4150 -1.2215  1.4145
  220MOL0     H29637   7.397   8.847   8.465  0.1510 -0.0146 -1.3673
  220MOL0     H29638   7.543   8.737   8.485  0.2015 -1.2996  1.7804
  220MOL0     H29639   7.260   8.610   8.446  0.5135 -2.4025  1.7836
  220MOL0     H29640   7.343   8.674   8.311  2.9868  0.5598 -0.8422
  220MOL0     H29641   7.539   8.528   8.358 -0.3973 -0.9529 -1.3595
  220MOL0     H29642   7.459   8.482   8.512  1.3902 -3.2388 -1.0335
  220MOL0     H29643   7.389   8.300   8.389  0.4975  1.1701  0.7966
  220MOL0     H29644   7.255   8.400   8.390 -0.6254 -2.4455 -2.9661
  220MOL0     H29645   7.266   8.383   8.151 -2.4035  2.5480  0.6108
  220MOL0     H29646   7.379   8.516   8.170 -1.3118 -0.2405 -1.8312
  220MOL0     H29647   7.489   8.393   8.038 -2.3328 -1.4951 -1.6948
  220MOL0     H29648   7.578   8.375   8.186  0.6189  0.7457 -2.4717
  220MOL0     H29649   7.431   8.152   8.218  0.3240 -0.7470 -0.1839
  220MOL0     H29650   7.583   8.135   8.155 -1.0024 -1.1304  0.3905
  220MOL0     H29651   7.318   8.303   7.912  1.5888  1.1319 -1.4012
  220MOL0     H29652   7.206   8.214   7.694  2.2266  1.4629  2.8019
  220MOL0     H29653   7.338   8.157   7.598 -0.2925  0.1981 -0.3897
  220MOL0     H29654   7.108   8.023   7.732  2.2485  1.8229  2.0986
  220MOL0     H29655   7.220   7.906   7.659 -0.4583 -1.0661 -5.6839
  220MOL0     H29656   7.186   8.013   7.443  1.3644  0.1388  1.2338
  220MOL0     H29657   7.046   8.102   7.507 -0.7625  0.0230  1.2991
  220MOL0     H29658   7.087   7.793   7.502 -1.4656 -1.6305 -1.0525
  220MOL0     H29659   6.988   7.898   7.390 -0.6220  5.0456  1.3550
  220MOL0     H29660   6.940   7.669   7.398 -0.1035  0.1183 -0.4309
  220MOL0     H29661   6.824   7.396   7.315  1.4994  0.3110 -1.3108
  220MOL0     H29662   6.684   7.481   7.242 -0.3511  0.0725  2.2212
  220MOL0     H29663   6.850   7.551   7.241  1.3655  1.3173  3.8618
  220MOL0     H29664   6.247   7.447   7.761 -1.2603 -0.7148  1.3364
  220MOL0     H29665   6.053   7.327   7.750  1.9069 -0.3765  2.8785
  220MOL0     H29666   6.028   7.071   7.838  0.0602  0.3832 -0.3613
  220MOL0     H29667   5.857   7.121   7.775 -3.2381 -2.1779 -6.3888
  220MOL0     H29668   5.848   6.881   7.690  1.6355  0.2636 -1.7247
  220MOL0     H29669   6.011   6.854   7.768 -1.3635 -0.6722 -0.1945
  220MOL0     H29670   5.763   6.873   7.909 -0.2864  1.5530 -3.6006
  220MOL0     H29671   5.912   6.936   7.989  0.6999  3.9249 -3.8709
  220MOL0     H29672   5.820   6.677   8.003 -0.7830  1.6487 -1.3231
  220MOL0     H29673   5.938   6.660   7.875 -0.4475 -5.0005  2.8084
  220MOL0     H29674   5.994   6.751   8.152 -0.8266 -2.0169  0.5189
  220MOL0     H29675   6.108   6.784   8.013  1.1872 -0.7157  0.6001
  220MOL0     H29676   6.033   6.505   8.110 -2.0903  4.0482  2.0671
  220MOL0     H29677   6.117   6.533   7.959 -0.0260 -1.5604  0.0175
  220MOL0     H29678   6.239   6.457   8.142  0.5878 -0.7293 -3.1723
  220MOL0     H29679   6.231   6.611   8.238 -1.4023 -1.1882  1.2096
  220MOL0     H29680   6.376   6.705   8.064 -2.9194 -0.5247 -0.5189
  220MOL0     H29681   6.344   6.557   7.959 -1.3057  2.9911 -1.2854
  220MOL0     H29682   6.221   7.023   7.515 -0.2174 -1.2045  1.1227
  220MOL0     H29683   6.412   7.152   7.469  0.0586 -0.0858  1.1536
  220MOL0     H29684   6.583   7.604   7.722  1.1787  1.7205  0.1498
  220MOL0     H29685   6.720   7.785   7.739  1.1376  0.0473  0.1469
  220MOL0     H29686   7.730   8.746   8.880 -0.7322  2.2808 -0.9379
  220MOL0     H29687   7.729   8.729   9.134 -1.2188  2.3974  2.6762
  220MOL0     H29688   7.503   8.627   9.511 -0.1832  0.6051  0.0378
  220MOL0     H29689   7.397   8.636   9.757 -0.8848 -0.4831 -0.4478
  220MOL0     H29690   7.530   8.964  10.015 -0.5390  1.5060  3.0512
  220MOL0     H29691   7.363   9.026   9.965 -0.3147 -0.4373  1.2541
  220MOL0     H29692   7.452   8.823  10.159  0.1515  0.0447  1.0081
  220MOL0     H29693   7.276   8.817  10.098  0.7209 -0.1825 -2.2737
  220MOL0     H29694   7.269   8.924  10.300 -0.4698  1.4725  1.0640
  220MOL0     H29695   7.250   9.059  10.179  1.3136  1.1238  1.1844
  220MOL0     H29696   7.505   9.109  10.211  2.7765  1.4754  2.0279
  220MOL0     H29697   7.495   8.979  10.340  2.4563  2.0629 -0.4536
  220MOL0     H29698   7.352   9.310  10.547  0.3946  0.9199 -0.1430
  220MOL0     H29699   7.501   9.058   9.752 -4.0678  0.4635  1.0464
  220MOL0     H29700   7.552   9.041   9.529 -1.4590 -0.8010 -0.0386
  221MOL0     O29701   6.369  11.496   9.019  0.3513 -0.3896  0.8499
  221MOL0     C29702   6.485  11.496   8.985  0.3958  0.7088  0.3955
  221MOL0     O29703   6.574  11.400   9.025 -0.4943  0.3868 -0.0875
  221MOL0     C29704   6.529  11.293   9.094  1.0110  0.4831 -0.6351
  221MOL0     C29705   6.482  11.303   9.224  0.2510 -0.1226  0.4710
  221MOL0     C29706   6.417  11.197   9.292 -0.0191  0.3296  0.3771
  221MOL0     C29707   6.395  11.073   9.229 -0.9394  0.2742 -1.3641
  221MOL0     O29708   6.342  10.961   9.291 -0.7331  0.3853 -0.1816
  221MOL0     C29709   6.208  10.977   9.322  0.2764 -0.6077 -0.1170
  221MOL0     C29710   6.130  10.918   9.207  1.2214 -0.2300  0.4139
  221MOL0     C29711   5.984  10.955   9.229  0.0981  0.1051 -0.5777
  221MOL0     C29712   5.896  10.878   9.130  0.6732 -0.0187  0.0995
  221MOL0     C29713   5.752  10.888   9.169 -1.0026  0.2045  0.4152
  221MOL0     C29714   5.668  10.881   9.040 -0.1518  0.3844  0.6762
  221MOL0     C29715   5.524  10.916   9.062  0.4853  0.2650  0.0851
  221MOL0     C29716   5.431  10.814   8.996  0.9227 -0.1196  1.3766
  221MOL0     N29717   5.290  10.819   9.029  0.0076  0.5193 -0.1727
  221MOL0     C29718   5.243  10.768   9.141  0.7570 -0.3901  0.2563
  221MOL0     C29719   5.112  10.741   9.112  0.6522  0.7497  0.3101
  221MOL0     C29720   5.013  10.673   9.208 -0.3404 -0.2326 -0.3579
  221MOL0     C29721   4.890  10.611   9.131  0.5703  0.9188 -0.7235
  221MOL0     C29722   4.761  10.581   9.227 -0.3143 -0.4752 -0.5368
  221MOL0     C29723   4.685  10.716   9.258  0.1779  0.4284  0.3661
  221MOL0     O29724   4.605  10.693   9.371 -0.4057  0.4567 -0.9732
  221MOL0     C29725   4.552  10.813   9.401  0.4014  0.5010  0.1365
  221MOL0     C29726   4.623  10.917   9.456 -0.4723 -0.1197  0.6479
  221MOL0     C29727   4.565  11.044   9.484  0.6481  0.9905  0.2111
  221MOL0     C29728   4.658  11.153   9.535  0.5452 -1.4309 -1.2243
  221MOL0     C29729   4.426  11.064   9.452  0.4974 -0.0472  0.0574
  221MOL0     C29730   4.356  11.195   9.466 -0.3381  1.1827 -0.1447
  221MOL0     O29731   4.220  11.190   9.428 -0.7016 -0.3744 -0.5301
  221MOL0     C29732   4.140  11.298   9.465 -0.5343 -1.8485 -0.1057
  221MOL0     C29733   4.087  11.315   9.593  0.2583 -0.5162 -0.3780
  221MOL0     C29734   3.989  11.412   9.619 -0.1047  0.4562 -0.6740
  221MOL0     C29735   3.984  11.519   9.519 -0.8742  0.5702  0.1459
  221MOL0     O29736   3.908  11.629   9.536  1.3557 -0.0569  0.1228
  221MOL0     C29737   3.863  11.673   9.669  0.8735 -0.1219  0.1791
  221MOL0     C29738   3.827  11.819   9.660 -0.1753  0.9234 -0.0140
  221MOL0     C29739   3.960  11.893   9.652 -0.2795 -0.2849 -0.0524
  221MOL0     C29740   3.951  12.042   9.609 -0.1943 -0.0704 -0.3439
  221MOL0     C29741   3.923  12.064   9.460 -0.6858  0.7214 -0.1466
  221MOL0     C29742   3.990  12.186   9.414  0.4183 -0.2294 -0.0011
  221MOL0     C29743   3.967  12.323   9.475  0.7244  0.5317 -0.9470
  221MOL0     C29744   3.832  12.376   9.467  0.2192 -0.1451 -0.2740
  221MOL0    Cl29745   3.836  12.550   9.513 -0.2046 -0.4252  1.0036
  221MOL0     C29746   4.048  11.514   9.395  0.1142 -1.2603  0.5659
  221MOL0     C29747   4.119  11.399   9.362 -0.2850 -0.0576 -0.8269
  221MOL0     O29748   4.408  11.296   9.509 -0.4156 -0.0093 -0.2086
  221MOL0     C29749   4.355  10.953   9.405 -0.6363 -0.1108 -0.3739
  221MOL0     C29750   4.418  10.831   9.381  0.7354  0.6065 -0.1152
  221MOL0     N29751   5.081  10.775   8.981  0.6154 -0.8001  0.8477
  221MOL0     N29752   5.184  10.838   8.938  0.1362 -0.3332 -0.4834
  221MOL0     C29753   6.443  11.059   9.105 -0.4608  0.0013 -0.0299
  221MOL0     C29754   6.507  11.162   9.036  0.3073  0.1052 -0.3982
  221MOL0     C29755   6.550  11.624   8.928  0.6767  0.7565  0.1177
  221MOL0     C29756   6.683  11.655   8.942  0.9356  0.4731  0.4858
  221MOL0     C29757   6.746  11.761   8.883  0.0735  0.4420  0.0596
  221MOL0     C29758   6.665  11.839   8.795 -0.3515  0.4994  0.2938
  221MOL0     O29759   6.730  11.938   8.734  0.1127 -0.4024  0.4955
  221MOL0     C29760   6.661  12.051   8.676 -0.2636 -0.1149 -1.4199
  221MOL0     C29761   6.756  12.137   8.600  0.5593 -1.3239  0.5030
  221MOL0     C29762   6.864  12.203   8.691 -0.4334  0.5304 -0.5347
  221MOL0     C29763   6.978  12.102   8.737 -0.8385  0.5964  0.6017
  221MOL0     C29764   7.091  12.185   8.772 -0.8352 -0.1237 -0.9748
  221MOL0     C29765   7.187  12.246   8.813 -0.5160  0.3477 -0.3094
  221MOL0     C29766   6.536  11.801   8.762  0.8791  0.4118  0.0829
  221MOL0     C29767   6.474  11.695   8.835  0.1920 -0.0929 -0.3972
  221MOL0     H29768   6.498  11.394   9.281  2.2635  1.3350 -2.2062
  221MOL0     H29769   6.397  11.220   9.396 -0.0485 -1.8979  0.9177
  221MOL0     H29770   6.174  10.929   9.415  1.7680  0.2168  0.9067
  221MOL0     H29771   6.184  11.084   9.323 -1.3146 -0.8400 -3.0580
  221MOL0     H29772   6.167  10.950   9.109 -1.6823 -2.7358 -1.6978
  221MOL0     H29773   6.154  10.812   9.219 -1.4438 -1.2376 -1.9543
  221MOL0     H29774   5.955  10.937   9.333  0.9993  0.8561 -0.1948
  221MOL0     H29775   5.975  11.061   9.207 -1.9321  0.7672  2.7177
  221MOL0     H29776   5.898  10.921   9.030 -1.8731  0.5692  0.2555
  221MOL0     H29777   5.916  10.770   9.128  0.7420 -0.1175  2.6540
  221MOL0     H29778   5.732  10.800   9.230  1.8638 -2.7340 -2.5272
  221MOL0     H29779   5.725  10.984   9.216  0.5721  2.0554 -2.2047
  221MOL0     H29780   5.700  10.950   8.961 -2.5314  0.6053 -0.1832
  221MOL0     H29781   5.682  10.782   8.993  1.8657  1.5539 -1.4185
  221MOL0     H29782   5.518  10.901   9.170 -0.9280 -0.7191 -0.1009
  221MOL0     H29783   5.499  11.021   9.042 -0.1455 -0.0729 -0.9820
  221MOL0     H29784   5.474  10.715   9.011  0.7027 -0.3080  0.7831
  221MOL0     H29785   5.448  10.831   8.889 -1.5631 -2.4222  0.5166
  221MOL0     H29786   5.296  10.736   9.230  2.8958  4.4289  1.0060
  221MOL0     H29787   5.062  10.598   9.271  3.4523 -1.6648 -4.4743
  221MOL0     H29788   4.976  10.746   9.280  0.7383 -1.6105  1.6991
  221MOL0     H29789   4.925  10.509   9.112  0.8781  0.4682  1.8508
  221MOL0     H29790   4.865  10.655   9.034 -0.4156  1.3167 -0.3036
  221MOL0     H29791   4.798  10.542   9.322 -1.5809 -0.0020  0.1703
  221MOL0     H29792   4.696  10.506   9.181  0.7040 -2.3802  1.0010
  221MOL0     H29793   4.621  10.739   9.172  0.2208 -0.2108  0.1598
  221MOL0     H29794   4.756  10.799   9.270  0.3226  0.7492 -2.1310
  221MOL0     H29795   4.726  10.893   9.478 -0.3803 -2.0066 -1.4572
  221MOL0     H29796   4.625  11.197   9.629  1.3866 -2.0732 -0.6051
  221MOL0     H29797   4.762  11.120   9.546  0.2664 -2.1585 -0.7100
  221MOL0     H29798   4.654  11.237   9.464  0.5281 -0.3494  0.0241
  221MOL0     H29799   4.097  11.239   9.671  0.1491  1.2081  1.3953
  221MOL0     H29800   3.933  11.397   9.711  0.4835 -4.0536 -0.8088
  221MOL0     H29801   3.773  11.612   9.682 -0.2168  1.0433 -1.4287
  221MOL0     H29802   3.935  11.647   9.747  1.2946 -0.9069 -0.4479
  221MOL0     H29803   3.769  11.823   9.568  0.2206  0.1319 -0.3055
  221MOL0     H29804   3.761  11.857   9.739 -0.7001  4.8527 -2.1179
  221MOL0     H29805   4.028  11.854   9.575  0.6305  0.4971  0.3331
  221MOL0     H29806   4.025  11.893   9.740 -0.2241 -1.2621 -0.0805
  221MOL0     H29807   3.880  12.100   9.669  0.3709  2.1176 -1.7016
  221MOL0     H29808   4.053  12.078   9.620 -0.8611  1.5289  1.0612
  221MOL0     H29809   3.815  12.066   9.441 -0.5072  1.1503 -1.2171
  221MOL0     H29810   3.968  11.978   9.410 -0.5170 -0.2387  1.5812
  221MOL0     H29811   4.097  12.165   9.413  0.2339 -1.2766 -1.5762
  221MOL0     H29812   3.977  12.200   9.306  3.4394  1.3231 -0.2675
  221MOL0     H29813   4.026  12.392   9.415 -1.6784  0.2811 -3.7991
  221MOL0     H29814   4.004  12.313   9.578  0.4866 -0.8994 -0.9785
  221MOL0     H29815   3.755  12.336   9.535 -0.8941  0.0275 -1.3938
  221MOL0     H29816   3.795  12.368   9.364  1.7198  2.8070 -1.1458
  221MOL0     H29817   4.018  11.585   9.318 -0.3500 -0.3802  1.5390
  221MOL0     H29818   4.169  11.387   9.267  4.0355 -0.2987  1.2493
  221MOL0     H29819   4.250  10.949   9.377 -0.8410  0.2871  0.3249
  221MOL0     H29820   4.374  10.741   9.339  3.6419 -0.4621 -1.1718
  221MOL0     H29821   6.457  10.959   9.065  0.4371 -0.3211  1.0152
  221MOL0     H29822   6.546  11.133   8.939 -2.3027  0.1157 -1.5350
  221MOL0     H29823   6.743  11.597   9.011  1.1196  1.7568  1.4444
  221MOL0     H29824   6.847  11.797   8.900 -0.3288  0.8649  1.6815
  221MOL0     H29825   6.584  12.030   8.601 -0.9538  2.8194 -1.6635
  221MOL0     H29826   6.605  12.105   8.752  0.8304  1.4964 -1.6961
  221MOL0     H29827   6.698  12.220   8.560 -1.9996  0.5585  6.8413
  221MOL0     H29828   6.807  12.086   8.518  1.2219 -1.1470  0.7994
  221MOL0     H29829   6.814  12.256   8.773  0.3446 -0.1072  0.3863
  221MOL0     H29830   6.908  12.279   8.627 -1.4780  1.6018 -0.0096
  221MOL0     H29831   7.007  12.033   8.658 -1.8212  0.5241  0.2931
  221MOL0     H29832   6.946  12.036   8.818 -0.7887 -1.5560 -1.0736
  221MOL0     H29833   7.265  12.294   8.868  1.0536 -1.4628 -0.8662
  221MOL0     H29834   6.488  11.855   8.681  1.5178  1.1711  0.2075
  221MOL0     H29835   6.371  11.674   8.807 -0.5074  3.4356 -0.8904
  222MOL0     O29836   6.800   4.137   1.729  0.2150 -0.1189  0.3804
  222MOL0     C29837   6.733   4.221   1.781 -0.5897  0.4766 -0.0949
  222MOL0     O29838   6.606   4.209   1.818 -0.2052 -0.4826  0.2296
  222MOL0     C29839   6.560   4.079   1.816 -0.5367 -0.0421  0.5758
  222MOL0     C29840   6.490   4.024   1.709  0.6871 -0.6401 -0.7773
  222MOL0     C29841   6.416   3.914   1.738 -0.4887  0.4962  0.5252
  222MOL0     C29842   6.408   3.848   1.860  0.9033 -0.3386  0.9731
  222MOL0     O29843   6.332   3.739   1.880  0.3036  0.4932 -0.5094
  222MOL0     C29844   6.284   3.673   1.765  0.0490 -0.1137 -0.7991
  222MOL0     C29845   6.208   3.557   1.817  0.0861 -0.5828  0.0284
  222MOL0     C29846   6.275   3.420   1.776  0.2413 -0.4248 -0.3198
  222MOL0     C29847   6.407   3.382   1.842  0.4696  0.3659  0.3710
  222MOL0     C29848   6.449   3.234   1.816 -0.3410 -0.3120 -0.4534
  222MOL0     C29849   6.567   3.188   1.902 -0.1862 -0.0652  0.0287
  222MOL0     C29850   6.653   3.073   1.856 -0.5012  0.2716  0.4919
  222MOL0     C29851   6.563   2.957   1.801  0.3914 -0.3017 -0.7351
  222MOL0     N29852   6.633   2.831   1.778 -0.2358 -0.0324 -0.3989
  222MOL0     C29853   6.585   2.708   1.817 -0.5606  0.8496  0.3266
  222MOL0     C29854   6.663   2.612   1.770 -0.5763 -0.3166 -0.2351
  222MOL0     C29855   6.653   2.463   1.803  0.1611  0.2618  0.3165
  222MOL0     C29856   6.776   2.424   1.901 -0.1388  1.5437  0.7233
  222MOL0     C29857   6.789   2.271   1.883  0.0123  0.5007  0.2216
  222MOL0     C29858   6.923   2.231   1.934  0.3534  0.1158 -0.2810
  222MOL0     O29859   6.929   2.252   2.070  0.3231  0.2808 -0.1253
  222MOL0     C29860   6.932   2.142   2.162 -0.0010 -0.6215 -0.1609
  222MOL0     C29861   6.947   2.187   2.293 -0.0473  0.9452  0.3001
  222MOL0     C29862   6.955   2.092   2.402  0.4820 -1.0839 -0.5096
  222MOL0     C29863   6.984   2.141   2.541 -0.0182  0.8841 -0.8760
  222MOL0     C29864   6.954   1.953   2.365  0.1621 -0.5457 -0.1414
  222MOL0     C29865   6.937   1.849   2.476  0.0732  0.0833  0.5786
  222MOL0     O29866   6.973   1.729   2.424 -0.2352  0.8308  0.0497
  222MOL0     C29867   6.927   1.612   2.477  0.5933 -0.4936  0.0993
  222MOL0     C29868   6.864   1.518   2.386 -0.1870  0.0281  0.4774
  222MOL0     C29869   6.804   1.398   2.438  0.3378  0.7688  0.4158
  222MOL0     C29870   6.819   1.359   2.567  0.5096  0.4063 -0.7162
  222MOL0     O29871   6.777   1.238   2.613 -0.2003 -0.2786  0.0734
  222MOL0     C29872   6.658   1.261   2.688 -0.2371 -0.0068 -0.4008
  222MOL0     C29873   6.579   1.127   2.701  0.9198  0.4121 -0.0560
  222MOL0     C29874   6.675   1.028   2.776  0.1142 -0.5735  0.7090
  222MOL0     C29875   6.605   0.945   2.883 -0.5636 -0.2637  0.2045
  222MOL0     C29876   6.694   0.887   2.999  0.0470 -0.7225 -0.0258
  222MOL0     C29877   6.804   0.797   2.939  0.6116 -0.4172 -0.2020
  222MOL0     C29878   6.757   0.666   2.871 -0.8207  0.8384  0.6705
  222MOL0     C29879   6.884   0.575   2.852  0.8933 -0.7564 -0.3735
  222MOL0    Cl29880   6.855   0.428   2.750 -0.3935  0.4200  0.0270
  222MOL0     C29881   6.875   1.456   2.654 -0.3208  0.5663  0.1435
  222MOL0     C29882   6.939   1.575   2.604  0.7043  0.4519 -0.8012
  222MOL0     O29883   6.909   1.867   2.598 -0.3461 -0.1390 -0.9665
  222MOL0     C29884   6.940   1.913   2.235  0.3999  0.3052 -0.9274
  222MOL0     C29885   6.929   2.003   2.134  1.1833 -0.7270 -1.4800
  222MOL0     N29886   6.763   2.683   1.704 -0.7040 -0.0065  0.0723
  222MOL0     N29887   6.734   2.809   1.692 -0.2655  0.0791 -1.0949
  222MOL0     C29888   6.492   3.888   1.961  0.4484 -0.2262  0.2889
  222MOL0     C29889   6.571   3.997   1.934 -1.7465  0.2067  0.7037
  222MOL0     C29890   6.798   4.348   1.794 -0.4213  0.4062 -0.6041
  222MOL0     C29891   6.736   4.444   1.867  0.1659  0.1013 -0.3415
  222MOL0     C29892   6.773   4.574   1.867  0.4399 -0.9997  0.1270
  222MOL0     C29893   6.886   4.616   1.792  0.2555 -0.1261 -0.1294
  222MOL0     O29894   6.900   4.751   1.782  0.7540 -0.5223 -0.5177
  222MOL0     C29895   7.020   4.804   1.724 -0.1451  0.9661  0.0618
  222MOL0     C29896   7.030   4.944   1.776 -0.3664 -0.4033  0.4697
  222MOL0     C29897   7.115   5.018   1.669 -0.5302  0.3172 -0.2359
  222MOL0     C29898   7.266   4.988   1.659  0.5345  0.7067 -0.8393
  222MOL0     C29899   7.331   5.000   1.787  0.5188  0.2488  0.5063
  222MOL0     C29900   7.405   5.009   1.878  0.2864 -0.3906  1.2093
  222MOL0     C29901   6.953   4.523   1.713  1.4682  0.0866  0.7630
  222MOL0     C29902   6.916   4.383   1.725 -0.6038 -0.3838  0.8464
  222MOL0     H29903   6.484   4.064   1.608  3.3086  1.5511 -0.1640
  222MOL0     H29904   6.365   3.865   1.656 -1.6930  2.2232  0.1937
  222MOL0     H29905   6.217   3.744   1.717  3.0289  1.0427 -3.5843
  222MOL0     H29906   6.368   3.642   1.702  0.6418  0.3796 -0.2704
  222MOL0     H29907   6.192   3.566   1.925 -4.5226 -1.4379 -0.3794
  222MOL0     H29908   6.109   3.570   1.773  0.8532  4.4373 -0.8071
  222MOL0     H29909   6.196   3.352   1.808  0.1357  0.4112  1.2889
  222MOL0     H29910   6.272   3.405   1.667 -2.1970 -3.4199  0.0447
  222MOL0     H29911   6.490   3.449   1.819  0.7747  0.8290  2.6351
  222MOL0     H29912   6.391   3.397   1.949 -2.0584 -0.9544  0.2445
  222MOL0     H29913   6.356   3.182   1.840  0.0137  0.0408  1.9264
  222MOL0     H29914   6.479   3.223   1.711  0.9798  2.9680 -0.5483
  222MOL0     H29915   6.637   3.268   1.924 -0.8799  0.5658 -0.0153
  222MOL0     H29916   6.532   3.156   2.001  0.7500 -6.1795 -1.1927
  222MOL0     H29917   6.722   3.096   1.775 -1.1480 -0.4569 -0.2933
  222MOL0     H29918   6.726   3.041   1.930  0.5633 -1.2445 -1.1241
  222MOL0     H29919   6.521   3.002   1.711 -0.6285  2.6980  1.0851
  222MOL0     H29920   6.481   2.942   1.872  0.1490  0.1573 -0.9152
  222MOL0     H29921   6.509   2.689   1.893  0.4796  2.7427  1.9303
  222MOL0     H29922   6.554   2.454   1.849  0.1752 -0.6036  0.1868
  222MOL0     H29923   6.649   2.401   1.713 -1.4001 -2.5939  2.1912
  222MOL0     H29924   6.754   2.461   2.001  4.4796 -1.9000  3.4019
  222MOL0     H29925   6.870   2.475   1.878  2.0359 -2.8195 -1.3575
  222MOL0     H29926   6.774   2.235   1.780 -2.8437  0.2085  0.6619
  222MOL0     H29927   6.722   2.222   1.954 -0.6339  1.5198  0.3289
  222MOL0     H29928   6.990   2.306   1.890  1.4845  0.3850  1.7700
  222MOL0     H29929   6.950   2.129   1.905 -0.6514  0.0523 -1.0779
  222MOL0     H29930   6.944   2.294   2.312 -0.3515  0.6040  2.4374
  222MOL0     H29931   6.892   2.135   2.599  1.0047 -2.3418  0.6756
  222MOL0     H29932   7.058   2.070   2.580 -2.2819 -1.4262 -0.5578
  222MOL0     H29933   7.040   2.235   2.539  2.9285 -0.3901  4.1555
  222MOL0     H29934   6.853   1.545   2.282 -2.5920 -1.4798  0.2818
  222MOL0     H29935   6.736   1.329   2.389 -0.2343 -0.3519  2.6364
  222MOL0     H29936   6.675   1.311   2.784 -0.2287  0.1326 -0.4735
  222MOL0     H29937   6.582   1.326   2.644 -2.4662 -1.3299  1.3201
  222MOL0     H29938   6.501   1.148   2.774  1.2153 -0.7245  0.6106
  222MOL0     H29939   6.546   1.087   2.605 -0.5266 -0.7085  0.8640
  222MOL0     H29940   6.754   1.089   2.823 -1.5331  1.7028  0.7069
  222MOL0     H29941   6.715   0.970   2.693 -2.3763  1.1949 -1.9300
  222MOL0     H29942   6.521   1.005   2.920 -0.3116 -0.6239  1.4092
  222MOL0     H29943   6.553   0.859   2.840 -0.6097  0.0209 -0.3208
  222MOL0     H29944   6.631   0.835   3.073  0.1537 -1.6284 -0.5585
  222MOL0     H29945   6.751   0.963   3.053  2.0469 -2.9108  1.1471
  222MOL0     H29946   6.860   0.861   2.870  1.0038  0.1871  0.6614
  222MOL0     H29947   6.860   0.767   3.028 -0.2756  0.1546  0.5812
  222MOL0     H29948   6.707   0.688   2.776  0.8458 -2.6199 -1.1906
  222MOL0     H29949   6.682   0.619   2.935 -1.0807  1.2345  0.6581
  222MOL0     H29950   6.925   0.536   2.946 -1.6176 -3.0161 -0.0664
  222MOL0     H29951   6.973   0.622   2.811  0.0557 -0.5752 -2.0678
  222MOL0     H29952   6.900   1.424   2.755  1.8636  2.6075  0.3294
  222MOL0     H29953   7.004   1.626   2.675 -0.1430 -1.1054  1.1893
  222MOL0     H29954   6.935   1.810   2.200 -0.1277 -1.3332  3.4263
  222MOL0     H29955   6.915   1.963   2.034 -1.8250 -1.7537 -0.7647
  222MOL0     H29956   6.499   3.837   2.057 -1.9223  2.1376  1.8609
  222MOL0     H29957   6.638   4.041   2.008  0.2524  4.6312 -3.2462
  222MOL0     H29958   6.645   4.424   1.923  1.1576  1.2404  1.8063
  222MOL0     H29959   6.713   4.642   1.926 -0.9080  1.2851 -3.4972
  222MOL0     H29960   7.110   4.756   1.762 -0.5208 -0.0874 -0.3500
  222MOL0     H29961   7.001   4.795   1.617 -2.7605  1.4631  0.4179
  222MOL0     H29962   7.060   4.948   1.881 -2.0145 -1.7076  1.0320
  222MOL0     H29963   6.936   5.000   1.772  0.3297  0.7263 -1.4302
  222MOL0     H29964   7.114   5.123   1.699  3.5709  0.3246  0.4591
  222MOL0     H29965   7.061   5.004   1.575 -3.6025  3.8070  0.7439
  222MOL0     H29966   7.305   5.056   1.583  2.1925  0.6375 -0.0873
  222MOL0     H29967   7.299   4.890   1.624  0.0488  0.1618  0.1623
  222MOL0     H29968   7.477   5.016   1.957 -0.3956 -2.0315  2.0191
  222MOL0     H29969   7.041   4.539   1.652  1.2077  1.1173  0.6424
  222MOL0     H29970   6.967   4.330   1.645  0.3779  0.5772  0.8260
  223MOL0     O29971   3.669   7.579   7.421  0.0887 -0.1274  0.3973
  223MOL0     C29972   3.684   7.540   7.299  0.2829 -0.6650 -0.7210
  223MOL0     O29973   3.801   7.494   7.247 -0.2391 -0.3042 -0.1566
  223MOL0     C29974   3.910   7.510   7.333  0.5692 -0.4422 -0.3583
  223MOL0     C29975   3.996   7.407   7.360 -1.1075 -0.2196 -0.7501
  223MOL0     C29976   4.114   7.412   7.437  0.4846 -0.5222 -0.2711
  223MOL0     C29977   4.138   7.543   7.490  0.2332  0.1485  0.4689
  223MOL0     O29978   4.257   7.557   7.557 -0.8201 -0.3407  0.4356
  223MOL0     C29979   4.262   7.660   7.648 -0.5575 -0.2383 -0.2132
  223MOL0     C29980   4.378   7.645   7.751  0.3015  0.0578 -0.4698
  223MOL0     C29981   4.380   7.511   7.829  0.5675  0.1100  0.5200
  223MOL0     C29982   4.257   7.515   7.921 -0.7691  0.5204 -1.3157
  223MOL0     C29983   4.278   7.453   8.063 -0.2579 -0.0859 -1.1067
  223MOL0     C29984   4.159   7.457   8.162  0.5834  0.6681  0.3060
  223MOL0     C29985   4.190   7.379   8.298  0.5902 -0.7641  0.8418
  223MOL0     C29986   4.050   7.375   8.361 -0.0982 -0.3775 -0.3959
  223MOL0     N29987   4.043   7.308   8.482 -0.1586 -0.1057  0.2068
  223MOL0     C29988   4.041   7.356   8.608 -1.2003  0.4301  0.4116
  223MOL0     C29989   4.042   7.246   8.688  0.3334 -0.1136  0.0747
  223MOL0     C29990   4.044   7.254   8.843 -0.2990  0.2322 -0.9236
  223MOL0     C29991   4.161   7.172   8.921  0.2022 -0.3099  0.3189
  223MOL0     C29992   4.154   7.214   9.066  0.3431 -0.1273  1.1868
  223MOL0     C29993   4.204   7.095   9.149 -0.8257 -0.1851  0.7023
  223MOL0     O29994   4.227   7.136   9.287 -0.3662 -0.1338  0.7245
  223MOL0     C29995   4.317   7.223   9.339  0.6480  0.3900  0.4951
  223MOL0     C29996   4.439   7.251   9.273  0.3604 -0.2485  0.1042
  223MOL0     C29997   4.534   7.335   9.338 -0.1388  0.3412 -0.0877
  223MOL0     C29998   4.653   7.343   9.243 -0.1805  0.3074 -0.5293
  223MOL0     C29999   4.499   7.397   9.465 -0.5766 -0.2542 -0.5029
  223MOL0     C30000   4.601   7.491   9.518 -0.4595  0.0190 -0.3046
  223MOL0     O30001   4.580   7.529   9.647 -0.2400 -0.3899  0.1579
  223MOL0     C30002   4.654   7.625   9.711  0.3291 -0.4774  0.3031
  223MOL0     C30003   4.586   7.721   9.795 -0.2624  0.7380 -0.0280
  223MOL0     C30004   4.662   7.820   9.870  1.1179  0.8050 -0.2431
  223MOL0     C30005   4.800   7.823   9.869 -0.5301  0.1796  0.3571
  223MOL0     O30006   4.877   7.891   9.964  0.0306 -0.4487 -0.2554
  223MOL0     C30007   4.809   7.985  10.043  0.6485  0.1280 -0.0888
  223MOL0     C30008   4.872   8.127  10.050 -0.1107  0.0955  0.0232
  223MOL0     C30009   5.013   8.120  10.099 -0.1474  0.1774  0.1582
  223MOL0     C30010   5.096   8.248  10.098  0.2764  0.0045 -1.1757
  223MOL0     C30011   5.148   8.290   9.963 -0.6471 -0.4200 -0.1508
  223MOL0     C30012   5.241   8.410   9.984 -1.9069 -0.1915  0.0493
  223MOL0     C30013   5.334   8.427   9.866  0.6718  0.6690 -1.0128
  223MOL0     C30014   5.263   8.506   9.745  0.5383  0.6160 -0.4226
  223MOL0    Cl30015   5.342   8.465   9.599 -0.0635  0.0666 -0.3492
  223MOL0     C30016   4.865   7.718   9.791  0.2534 -0.6280 -0.1945
  223MOL0     C30017   4.796   7.616   9.722 -1.1071  0.5278  0.7517
  223MOL0     O30018   4.700   7.525   9.448  0.5543  0.9360  0.0277
  223MOL0     C30019   4.373   7.372   9.526 -0.2088  0.5540  0.4693
  223MOL0     C30020   4.285   7.283   9.459  0.1294  0.6503  0.3778
  223MOL0     N30021   4.011   7.132   8.616 -0.9915 -0.7572  0.4804
  223MOL0     N30022   4.014   7.170   8.490  0.1307  0.3013  0.2253
  223MOL0     C30023   4.051   7.657   7.467 -0.9555 -0.1655 -0.3465
  223MOL0     C30024   3.944   7.641   7.380 -0.9692 -0.1588  0.4598
  223MOL0     C30025   3.566   7.551   7.214  0.4004  0.1023 -0.1125
  223MOL0     C30026   3.432   7.594   7.255 -0.0324  0.2085 -0.5890
  223MOL0     C30027   3.331   7.614   7.157  0.2228  0.3087  0.0482
  223MOL0     C30028   3.360   7.606   7.017 -0.2774 -0.0522  0.3210
  223MOL0     O30029   3.262   7.622   6.923  0.0683  0.6951  0.3418
  223MOL0     C30030   3.270   7.602   6.784 -0.0407  1.1361  0.1691
  223MOL0     C30031   3.144   7.671   6.727  0.1276 -0.2554  0.5184
  223MOL0     C30032   3.098   7.598   6.594 -0.3192  0.5838  0.7933
  223MOL0     C30033   2.971   7.674   6.541 -0.5737 -0.4008  0.0449
  223MOL0     C30034   2.994   7.816   6.515 -0.7159 -0.2770  0.4559
  223MOL0     C30035   3.043   7.912   6.464 -0.0139 -0.0163  0.3617
  223MOL0     C30036   3.488   7.572   6.974  0.2937  0.0205 -0.1659
  223MOL0     C30037   3.586   7.537   7.070  0.4087  0.2184  0.5676
  223MOL0     H30038   3.973   7.303   7.338 -0.4969 -0.7145  0.8363
  223MOL0     H30039   4.189   7.334   7.430  1.5420  0.5670 -1.6804
  223MOL0     H30040   4.267   7.759   7.602  3.3806 -0.1559  0.0201
  223MOL0     H30041   4.171   7.651   7.709 -3.0684  0.3019 -3.6161
  223MOL0     H30042   4.466   7.644   7.685 -0.6239  1.0450 -1.7738
  223MOL0     H30043   4.370   7.731   7.818 -0.2931 -0.2933 -0.0811
  223MOL0     H30044   4.382   7.422   7.766  3.5403  0.7529 -0.4255
  223MOL0     H30045   4.475   7.507   7.883  1.5809 -1.7510 -1.2570
  223MOL0     H30046   4.223   7.617   7.942 -0.6853  0.2521  0.2915
  223MOL0     H30047   4.174   7.462   7.873 -0.2750 -0.8387 -0.7443
  223MOL0     H30048   4.314   7.350   8.061 -1.0850 -0.4524  0.9257
  223MOL0     H30049   4.366   7.509   8.095 -0.2998  0.9027 -2.5772
  223MOL0     H30050   4.140   7.565   8.164  0.2145  0.6045  0.2997
  223MOL0     H30051   4.078   7.399   8.117  0.9212 -0.4937  1.1456
  223MOL0     H30052   4.232   7.279   8.286 -1.2619 -1.2888 -2.2341
  223MOL0     H30053   4.259   7.443   8.354  0.6118  1.5086 -1.5955
  223MOL0     H30054   3.987   7.317   8.293 -0.3654 -1.6218  0.8625
  223MOL0     H30055   4.014   7.477   8.376 -1.3179 -1.0593  1.8575
  223MOL0     H30056   4.051   7.463   8.627 -3.6270  0.8318 -0.2619
  223MOL0     H30057   4.055   7.357   8.879 -1.2123  0.6441 -1.7808
  223MOL0     H30058   3.948   7.216   8.878 -1.3847  2.2257 -1.5764
  223MOL0     H30059   4.258   7.184   8.873  0.4383 -1.6480  0.4317
  223MOL0     H30060   4.136   7.068   8.898  0.2096  0.2470 -2.6461
  223MOL0     H30061   4.048   7.223   9.094  0.3373 -0.2843  1.2172
  223MOL0     H30062   4.205   7.308   9.088 -0.7450  1.2978 -1.8788
  223MOL0     H30063   4.303   7.064   9.116 -0.5680 -0.5148  1.7496
  223MOL0     H30064   4.128   7.017   9.143 -1.7193  0.7884 -2.7150
  223MOL0     H30065   4.469   7.193   9.186  0.5954  0.5078 -0.3264
  223MOL0     H30066   4.647   7.298   9.143  0.2959  1.3330 -1.0363
  223MOL0     H30067   4.670   7.449   9.224 -0.5932  0.6534  0.9163
  223MOL0     H30068   4.741   7.309   9.298 -1.6711 -2.2485  0.4263
  223MOL0     H30069   4.477   7.726   9.798 -0.3493 -1.0713  1.9003
  223MOL0     H30070   4.604   7.879   9.940 -1.1830  0.2475 -1.5785
  223MOL0     H30071   4.713   8.012   9.998 -0.2237 -2.0346  0.3553
  223MOL0     H30072   4.796   7.939  10.141 -0.8270 -0.7005 -0.6440
  223MOL0     H30073   4.880   8.152   9.944 -0.6375  0.6182  0.1007
  223MOL0     H30074   4.825   8.210  10.104  1.1731 -0.9085  2.9404
  223MOL0     H30075   5.060   8.050  10.030  2.1603  1.6736  0.1304
  223MOL0     H30076   5.010   8.086  10.203 -0.7911 -4.1639 -1.1133
  223MOL0     H30077   5.038   8.326  10.148  2.7167  0.0463  1.9283
  223MOL0     H30078   5.179   8.234  10.168  0.1155 -1.2275 -1.2248
  223MOL0     H30079   5.060   8.306   9.900 -1.8989  0.6810  1.7566
  223MOL0     H30080   5.211   8.206   9.932  3.9189  2.6575 -0.0442
  223MOL0     H30081   5.193   8.506  10.002 -0.7361  0.9551 -2.4249
  223MOL0     H30082   5.301   8.391  10.073 -1.2259  1.0993 -0.1138
  223MOL0     H30083   5.378   8.329   9.842  2.5865  1.0147  0.7488
  223MOL0     H30084   5.421   8.483   9.900  2.3993 -0.9277 -2.5220
  223MOL0     H30085   5.274   8.614   9.758  1.1636  0.5730 -0.5586
  223MOL0     H30086   5.157   8.487   9.725  0.9219  1.1021 -3.4770
  223MOL0     H30087   4.971   7.704   9.809  0.2686  0.3558  0.5847
  223MOL0     H30088   4.871   7.549   9.683 -0.0782  2.5712 -1.0181
  223MOL0     H30089   4.342   7.410   9.623 -2.2631 -3.1892  1.4481
  223MOL0     H30090   4.188   7.269   9.506 -1.5007  3.4244 -1.8491
  223MOL0     H30091   4.067   7.754   7.512  0.2402 -1.3167  1.8510
  223MOL0     H30092   3.885   7.728   7.353  0.3380  0.6822  0.1958
  223MOL0     H30093   3.408   7.619   7.357 -1.0101  3.3897 -1.4961
  223MOL0     H30094   3.228   7.641   7.181  0.5306  2.0481 -0.4411
  223MOL0     H30095   3.355   7.660   6.746 -1.7351  0.6731 -5.1696
  223MOL0     H30096   3.278   7.497   6.757  0.7201  1.2430 -0.0203
  223MOL0     H30097   3.165   7.776   6.709 -2.1261 -0.0336 -1.2403
  223MOL0     H30098   3.061   7.650   6.796 -0.2705  0.9582  0.4291
  223MOL0     H30099   3.095   7.492   6.619  4.4716 -0.9342 -3.3893
  223MOL0     H30100   3.167   7.605   6.509  0.8002  0.6237  1.6725
  223MOL0     H30101   2.881   7.649   6.598  0.3063 -3.3001  0.3622
  223MOL0     H30102   2.944   7.628   6.446  0.0343 -2.0507  0.6316
  223MOL0     H30103   3.067   8.007   6.422 -0.3370 -0.5926 -1.2055
  223MOL0     H30104   3.515   7.567   6.869 -2.0367 -0.1364 -0.8149
  223MOL0     H30105   3.682   7.527   7.022 -0.6350  0.2665 -1.6688
  224MOL0     O30106   5.121   2.140   1.631 -0.6826 -0.2760 -0.6594
  224MOL0     C30107   5.132   2.227   1.553  0.3881  0.2831  1.3970
  224MOL0     O30108   5.202   2.216   1.438  0.4518  0.2586 -0.3601
  224MOL0     C30109   5.283   2.107   1.417 -0.0052 -0.4630  0.5375
  224MOL0     C30110   5.258   1.971   1.427  0.6549 -0.3770  0.3121
  224MOL0     C30111   5.344   1.872   1.370  0.7706 -0.5587  0.2072
  224MOL0     C30112   5.462   1.899   1.310  0.3921  0.9243  0.0017
  224MOL0     O30113   5.538   1.803   1.247 -0.3002 -0.4699  0.6818
  224MOL0     C30114   5.524   1.659   1.281 -0.4409  1.4103  0.4820
  224MOL0     C30115   5.648   1.583   1.216 -1.4678 -0.1725 -0.0619
  224MOL0     C30116   5.779   1.633   1.290 -0.0495 -0.6021 -0.4623
  224MOL0     C30117   5.875   1.685   1.186  0.1161  0.8985 -0.4774
  224MOL0     C30118   5.849   1.811   1.119 -0.2357 -0.2204 -0.5120
  224MOL0     C30119   5.745   1.819   1.007  0.4623 -0.3514  0.9184
  224MOL0     C30120   5.756   1.949   0.917 -0.2501  0.6828  0.3741
  224MOL0     C30121   5.616   1.983   0.854 -0.9970 -0.3638 -1.1644
  224MOL0     N30122   5.605   2.127   0.832 -0.2591 -0.1002 -0.5838
  224MOL0     C30123   5.656   2.184   0.729 -0.9848 -1.0669 -0.5339
  224MOL0     C30124   5.654   2.324   0.748 -0.0599 -0.1061  0.6553
  224MOL0     C30125   5.698   2.444   0.663 -0.2295  1.0114  0.0221
  224MOL0     C30126   5.846   2.454   0.652 -0.1814 -0.6667 -0.0730
  224MOL0     C30127   5.907   2.590   0.604 -1.3693 -0.1885  0.5784
  224MOL0     C30128   6.056   2.601   0.620 -0.6750  0.8369 -1.4964
  224MOL0     O30129   6.080   2.626   0.762 -0.3653  0.3018 -0.0813
  224MOL0     C30130   6.050   2.752   0.804 -0.1317 -0.8003  0.0832
  224MOL0     C30131   6.014   2.771   0.938  0.1661  0.4688  0.5013
  224MOL0     C30132   5.989   2.897   0.988 -1.1092  0.0925  0.1544
  224MOL0     C30133   5.960   2.915   1.132  0.2370  0.1207 -0.7056
  224MOL0     C30134   5.999   3.014   0.909 -0.4576  0.4492  0.6171
  224MOL0     C30135   5.992   3.155   0.956  0.2240  0.2410  0.5514
  224MOL0     O30136   5.881   3.215   0.914 -0.5735  0.0456  0.6864
  224MOL0     C30137   5.893   3.354   0.906  0.2838 -0.3213  0.2734
  224MOL0     C30138   5.905   3.438   1.018  0.3181  0.3416 -0.4003
  224MOL0     C30139   5.913   3.578   1.001  0.0101  0.1369 -0.1932
  224MOL0     C30140   5.914   3.637   0.879 -0.8493  0.1267  0.3191
  224MOL0     O30141   5.903   3.776   0.873 -0.6163  0.1744  1.0991
  224MOL0     C30142   5.985   3.843   0.770 -0.1671  0.8141  0.1256
  224MOL0     C30143   5.990   3.980   0.810 -0.0164 -0.3045  0.1016
  224MOL0     C30144   6.055   4.079   0.709 -0.8962 -0.8927 -0.7933
  224MOL0     C30145   5.955   4.105   0.602  0.1062 -1.0372  0.8611
  224MOL0     C30146   6.002   4.188   0.479  0.1359 -0.5424  0.4544
  224MOL0     C30147   5.889   4.193   0.378  0.4991 -0.1199 -0.4067
  224MOL0     C30148   5.911   4.300   0.265  0.5277 -0.5183  0.5833
  224MOL0     C30149   5.927   4.448   0.314 -0.7554 -0.5337  0.9959
  224MOL0    Cl30150   6.092   4.494   0.339  0.4672  0.1233  0.0724
  224MOL0     C30151   5.910   3.552   0.759  0.2387  0.2643  0.3558
  224MOL0     C30152   5.896   3.411   0.779  0.1994 -0.6498 -0.0128
  224MOL0     O30153   6.074   3.202   1.028 -0.4544 -0.4197 -0.4238
  224MOL0     C30154   6.039   2.992   0.783  1.7868  0.0750  1.7430
  224MOL0     C30155   6.053   2.866   0.727 -0.3275  0.4843 -0.3316
  224MOL0     N30156   5.601   2.334   0.877 -0.8833 -0.4688  0.4632
  224MOL0     N30157   5.578   2.219   0.927 -0.2739 -0.8335 -0.4774
  224MOL0     C30158   5.496   2.035   1.297 -0.3281  0.3940 -0.4681
  224MOL0     C30159   5.416   2.133   1.353  0.9737  0.2846 -0.4872
  224MOL0     C30160   5.063   2.351   1.569  0.6103  0.0211 -0.3569
  224MOL0     C30161   4.976   2.372   1.678 -0.0921 -0.7747 -0.5139
  224MOL0     C30162   4.929   2.508   1.706  0.5393 -0.0003 -0.5549
  224MOL0     C30163   4.955   2.618   1.617 -0.5448  0.5716  0.2135
  224MOL0     O30164   4.916   2.752   1.637 -0.4580  0.7123 -0.0285
  224MOL0     C30165   4.826   2.785   1.745 -0.0133 -0.0415  0.1245
  224MOL0     C30166   4.676   2.750   1.701 -0.1975 -0.0668 -1.1677
  224MOL0     C30167   4.581   2.829   1.796 -0.1077 -0.0214 -0.7642
  224MOL0     C30168   4.466   2.897   1.725  0.1653  0.0560  0.1299
  224MOL0     C30169   4.526   3.012   1.650 -0.3906  0.1178  0.0184
  224MOL0     C30170   4.567   3.101   1.585 -0.5124 -0.9209  0.1841
  224MOL0     C30171   5.037   2.586   1.507 -0.6801 -0.0866  0.3396
  224MOL0     C30172   5.094   2.458   1.492 -0.1353  0.1413  1.3906
  224MOL0     H30173   5.168   1.941   1.480  0.4921  1.8831  1.4377
  224MOL0     H30174   5.320   1.766   1.378  0.2965 -0.6296 -1.7667
  224MOL0     H30175   5.509   1.639   1.387  2.1070 -1.5271  0.4350
  224MOL0     H30176   5.432   1.620   1.236  0.3040 -0.8264  0.7803
  224MOL0     H30177   5.647   1.473   1.216 -0.0949 -0.2170 -1.3307
  224MOL0     H30178   5.656   1.606   1.110  0.7900 -2.6583 -0.5707
  224MOL0     H30179   5.766   1.720   1.355  1.3654  1.0247 -2.2378
  224MOL0     H30180   5.827   1.554   1.348 -0.1793  0.5108  1.2257
  224MOL0     H30181   5.969   1.704   1.237  1.3593  1.6489 -2.9091
  224MOL0     H30182   5.883   1.613   1.104 -4.0616 -1.5605  0.9413
  224MOL0     H30183   5.828   1.886   1.196  3.4958 -0.2879  0.7884
  224MOL0     H30184   5.945   1.842   1.075  1.1376 -0.6687  1.9703
  224MOL0     H30185   5.761   1.728   0.948 -0.7951 -0.5183  0.8043
  224MOL0     H30186   5.645   1.813   1.052 -1.7093 -2.2780 -3.5020
  224MOL0     H30187   5.790   2.027   0.985  0.8551 -0.6841  1.4724
  224MOL0     H30188   5.826   1.937   0.834 -1.7242 -1.8462 -0.6436
  224MOL0     H30189   5.544   1.946   0.927 -0.4538  2.5527  1.0339
  224MOL0     H30190   5.598   1.928   0.761 -1.3073  2.3936 -2.8533
  224MOL0     H30191   5.692   2.132   0.641 -3.2738  1.7758 -3.3860
  224MOL0     H30192   5.653   2.419   0.566 -1.8440 -1.5933  1.3373
  224MOL0     H30193   5.654   2.541   0.691 -3.1931 -0.4085  0.7220
  224MOL0     H30194   5.876   2.374   0.582  0.1464 -1.9350  1.4498
  224MOL0     H30195   5.899   2.434   0.746  2.1654 -2.6650 -1.6966
  224MOL0     H30196   5.861   2.674   0.657 -0.1323  2.1454 -1.8423
  224MOL0     H30197   5.884   2.611   0.499 -0.3128  0.1387  0.4073
  224MOL0     H30198   6.114   2.671   0.560  0.8307  0.7024 -0.2621
  224MOL0     H30199   6.093   2.502   0.594  1.1198  0.3085  2.3323
  224MOL0     H30200   6.033   2.697   1.015 -1.4180  2.0707  2.5613
  224MOL0     H30201   6.058   2.931   1.179 -0.4561  1.3838  0.3904
  224MOL0     H30202   5.893   3.000   1.149 -0.3518 -0.3630 -0.6073
  224MOL0     H30203   5.925   2.820   1.171  0.8034  0.1221 -0.1747
  224MOL0     H30204   5.885   3.391   1.114  2.5683  1.5092  0.7123
  224MOL0     H30205   5.921   3.637   1.092 -2.0726 -0.0201  0.1368
  224MOL0     H30206   6.083   3.796   0.779  1.2799  3.4983 -0.4292
  224MOL0     H30207   5.936   3.840   0.672  0.0650  2.8440 -0.0967
  224MOL0     H30208   5.888   4.013   0.833 -0.7269 -2.2228 -0.1238
  224MOL0     H30209   6.040   3.987   0.908  0.9706 -1.0640 -0.3331
  224MOL0     H30210   6.150   4.032   0.684 -0.4363 -1.3995  1.6820
  224MOL0     H30211   6.079   4.166   0.771 -2.2365 -0.7292 -0.4516
  224MOL0     H30212   5.914   4.010   0.566 -0.2581 -1.7144  2.9060
  224MOL0     H30213   5.875   4.164   0.647  1.9256  3.5456 -1.2435
  224MOL0     H30214   6.088   4.136   0.435 -0.1988 -0.4156 -0.3634
  224MOL0     H30215   6.026   4.284   0.526  0.5000 -0.5895  0.3648
  224MOL0     H30216   5.883   4.093   0.333 -1.1594 -0.3792  0.3249
  224MOL0     H30217   5.788   4.212   0.414  0.6884 -3.9126  2.8043
  224MOL0     H30218   5.832   4.289   0.189 -0.0441 -0.1964  1.1211
  224MOL0     H30219   5.995   4.273   0.200 -1.9593 -1.7989 -2.3809
  224MOL0     H30220   5.875   4.458   0.409  2.0265 -0.3405  2.6174
  224MOL0     H30221   5.891   4.517   0.236  1.9977  0.7128  0.6918
  224MOL0     H30222   5.904   3.579   0.655 -1.3168 -1.3539 -0.0355
  224MOL0     H30223   5.875   3.347   0.694  1.4286  0.0600 -0.8718
  224MOL0     H30224   6.060   3.071   0.713 -0.4653  2.6113  3.6831
  224MOL0     H30225   6.067   2.859   0.619  0.6429  0.5797 -0.2224
  224MOL0     H30226   5.585   2.063   1.242  0.2686  1.0871  0.7843
  224MOL0     H30227   5.454   2.234   1.369  0.2991  0.3067  1.2021
  224MOL0     H30228   4.938   2.301   1.751 -3.1466  1.1927  0.0049
  224MOL0     H30229   4.881   2.526   1.801 -3.8670  1.5289 -2.8082
  224MOL0     H30230   4.857   2.738   1.839 -1.8743  0.8941  1.2719
  224MOL0     H30231   4.837   2.888   1.779  2.9380 -0.9955  2.4658
  224MOL0     H30232   4.669   2.641   1.705 -1.9121  0.0409 -0.0812
  224MOL0     H30233   4.656   2.778   1.597  2.3027  1.7033 -1.2538
  224MOL0     H30234   4.639   2.892   1.864  1.0483 -3.2501  1.4797
  224MOL0     H30235   4.543   2.752   1.863  2.0919  1.0404  1.8618
  224MOL0     H30236   4.385   2.925   1.793  1.5566 -2.2502  2.9386
  224MOL0     H30237   4.425   2.829   1.650  1.9037 -0.3480 -0.5123
  224MOL0     H30238   4.618   3.182   1.537 -2.2227  0.0389 -0.1112
  224MOL0     H30239   5.075   2.669   1.448 -0.6423 -0.6654 -0.4636
  224MOL0     H30240   5.172   2.453   1.416  0.2156  2.8302  1.4777
  225MOL0     O30241   5.288  11.018   2.174  0.1719  0.5024  0.4212
  225MOL0     C30242   5.350  11.070   2.083 -0.1342  0.2889  0.4126
  225MOL0     O30243   5.455  11.011   2.014 -0.3649 -0.1920 -0.1645
  225MOL0     C30244   5.483  10.870   2.018 -0.1768 -0.4009 -1.1066
  225MOL0     C30245   5.530  10.804   1.902 -0.5761 -1.1478 -1.0079
  225MOL0     C30246   5.531  10.666   1.886  0.7268 -0.0377 -0.3116
  225MOL0     C30247   5.500  10.593   1.996 -0.2104  0.8405 -0.3771
  225MOL0     O30248   5.493  10.453   1.988  0.4522  0.0553 -0.4271
  225MOL0     C30249   5.438  10.377   2.088  0.0739  0.7220 -0.3990
  225MOL0     C30250   5.431  10.235   2.040 -0.0751 -0.4308  0.1232
  225MOL0     C30251   5.564  10.189   1.978  0.1047 -0.3627  0.0897
  225MOL0     C30252   5.562  10.031   1.947 -0.9276 -0.1242 -0.6850
  225MOL0     C30253   5.639   9.943   2.054 -0.5620  1.0631 -0.3756
  225MOL0     C30254   5.785   9.951   2.033 -0.3925  0.3915 -0.0112
  225MOL0     C30255   5.870   9.886   2.138  0.0321  0.3865  0.4124
  225MOL0     C30256   5.868   9.739   2.167  0.2756 -0.0429  1.2348
  225MOL0     N30257   5.757   9.686   2.244 -0.1507 -0.4931  0.0683
  225MOL0     C30258   5.766   9.694   2.387  0.4386  0.2306  0.6926
  225MOL0     C30259   5.658   9.608   2.422 -0.9303 -0.2810  0.1216
  225MOL0     C30260   5.631   9.562   2.563  0.2226  1.6190  0.1758
  225MOL0     C30261   5.513   9.461   2.557 -0.9044  0.4819 -1.0476
  225MOL0     C30262   5.448   9.433   2.701 -0.3361 -0.2572  0.3488
  225MOL0     C30263   5.534   9.335   2.784 -0.2362  0.3181 -0.3100
  225MOL0     O30264   5.654   9.400   2.831  0.8771  0.6805  0.9429
  225MOL0     C30265   5.748   9.307   2.871 -0.2615  0.4776  0.4380
  225MOL0     C30266   5.758   9.282   2.998  0.3390  0.0096 -0.0371
  225MOL0     C30267   5.865   9.202   3.052  0.5264 -0.5175 -0.5073
  225MOL0     C30268   5.860   9.178   3.198 -0.0965 -0.1080 -0.0288
  225MOL0     C30269   5.961   9.148   2.958 -0.6610 -0.2048  0.1546
  225MOL0     C30270   6.068   9.056   2.995 -0.1522  0.0717  0.0572
  225MOL0     O30271   6.092   9.043   3.134 -0.3103 -0.9075  0.8717
  225MOL0     C30272   6.186   8.951   3.174  0.0084 -0.1390  0.0589
  225MOL0     C30273   6.139   8.849   3.258  0.5934  0.0585  0.4454
  225MOL0     C30274   6.232   8.758   3.296  0.3396 -0.2601  0.1432
  225MOL0     C30275   6.364   8.766   3.255 -0.5683  0.2807 -0.9971
  225MOL0     O30276   6.467   8.678   3.296  0.0328  0.0565 -0.2253
  225MOL0     C30277   6.427   8.536   3.284 -0.4660 -1.0764  0.9294
  225MOL0     C30278   6.546   8.448   3.303 -0.0801  0.9804  0.3142
  225MOL0     C30279   6.659   8.490   3.225  0.0283  0.7297 -0.0623
  225MOL0     C30280   6.751   8.382   3.201  0.1525  0.4611 -0.1963
  225MOL0     C30281   6.859   8.419   3.095 -0.2452 -0.6904 -0.3409
  225MOL0     C30282   6.799   8.455   2.959  0.1913  0.5952  0.2673
  225MOL0     C30283   6.907   8.443   2.857 -0.3748 -0.6037 -0.6558
  225MOL0     C30284   6.861   8.514   2.733 -0.9180 -0.1695 -0.2986
  225MOL0    Cl30285   6.949   8.452   2.591 -0.3636 -0.3454 -0.2387
  225MOL0     C30286   6.406   8.872   3.182  0.5166  0.4922  0.3097
  225MOL0     C30287   6.321   8.969   3.144  0.2674 -0.0254  0.6882
  225MOL0     O30288   6.123   8.994   2.911  0.8128  0.4345  0.2203
  225MOL0     C30289   5.946   9.182   2.820  0.0867 -0.1350  0.6978
  225MOL0     C30290   5.840   9.259   2.769 -0.4915 -0.6563 -0.3076
  225MOL0     N30291   5.599   9.571   2.306  0.4241 -0.6123 -1.0479
  225MOL0     N30292   5.661   9.617   2.203  0.7404  0.9185 -0.6139
  225MOL0     C30293   5.476  10.660   2.125  0.1973  0.0039 -0.3071
  225MOL0     C30294   5.462  10.795   2.133  0.0842 -0.3688  0.8992
  225MOL0     C30295   5.287  11.183   2.016  0.2919 -0.1436  0.5049
  225MOL0     C30296   5.150  11.212   2.027 -0.6461  0.9885 -0.0374
  225MOL0     C30297   5.094  11.327   1.961 -1.0344  0.5224  0.2225
  225MOL0     C30298   5.178  11.415   1.883  0.8618 -0.7580  0.1474
  225MOL0     O30299   5.112  11.515   1.823  0.1197  0.6313  0.6056
  225MOL0     C30300   5.017  11.478   1.716 -0.5598  0.6392 -0.0358
  225MOL0     C30301   5.043  11.584   1.608  0.3840 -0.4601 -0.9024
  225MOL0     C30302   5.194  11.581   1.570 -0.8800 -0.2115  0.1924
  225MOL0     C30303   5.231  11.662   1.447 -0.8917 -0.1836 -0.6845
  225MOL0     C30304   5.370  11.623   1.403  0.3384 -0.4226  0.1058
  225MOL0     C30305   5.481  11.582   1.383  0.4320  0.4047 -0.2067
  225MOL0     C30306   5.313  11.392   1.873 -0.5097 -0.2084 -0.5017
  225MOL0     C30307   5.362  11.270   1.938  0.3042 -0.4635 -0.2029
  225MOL0     H30308   5.560  10.860   1.815 -0.8673  1.3082  0.3828
  225MOL0     H30309   5.588  10.621   1.805  6.3814  1.9483  2.0851
  225MOL0     H30310   5.504  10.374   2.176 -0.6922 -1.2062  0.1666
  225MOL0     H30311   5.339  10.414   2.114 -1.7282 -4.8577  2.3845
  225MOL0     H30312   5.403  10.179   2.130 -0.3645 -0.4589  0.0186
  225MOL0     H30313   5.348  10.217   1.972  0.0640 -1.0755  0.1207
  225MOL0     H30314   5.590  10.245   1.887  0.3282 -1.6532 -0.6665
  225MOL0     H30315   5.648  10.216   2.043 -1.7826  3.7902  1.1873
  225MOL0     H30316   5.461   9.991   1.931 -1.9101  1.2802  1.5115
  225MOL0     H30317   5.621  10.031   1.855 -2.0048 -1.3534 -1.4218
  225MOL0     H30318   5.625   9.980   2.156 -2.1103  0.3316 -0.2988
  225MOL0     H30319   5.612   9.838   2.041  2.3854 -0.0204  1.3061
  225MOL0     H30320   5.809   9.924   1.929  1.0854  2.8020 -0.3873
  225MOL0     H30321   5.818  10.055   2.041  1.6561 -0.3290  1.7005
  225MOL0     H30322   5.973   9.915   2.112  1.2710 -1.7126  2.5877
  225MOL0     H30323   5.861   9.936   2.235 -1.7704  2.1693 -0.5859
  225MOL0     H30324   5.968   9.714   2.205  1.8902 -0.7842 -2.9425
  225MOL0     H30325   5.875   9.696   2.067  0.2628 -0.8129  1.5545
  225MOL0     H30326   5.840   9.752   2.441  0.0420  3.1280 -1.5980
  225MOL0     H30327   5.719   9.514   2.608 -0.0797  1.1047  0.2271
  225MOL0     H30328   5.590   9.644   2.622 -0.1457  1.8249 -0.3626
  225MOL0     H30329   5.559   9.369   2.520  1.0106  1.0856 -0.2805
  225MOL0     H30330   5.439   9.485   2.480 -4.1706  0.7174  1.8778
  225MOL0     H30331   5.347   9.393   2.689 -0.8599  0.8707  0.8510
  225MOL0     H30332   5.435   9.526   2.757  0.3324  0.8255 -1.2445
  225MOL0     H30333   5.564   9.246   2.728  1.1149 -0.0264  0.8902
  225MOL0     H30334   5.492   9.308   2.881  0.8380  0.6864  0.2725
  225MOL0     H30335   5.676   9.307   3.064 -1.9972 -1.8120 -2.0761
  225MOL0     H30336   5.853   9.069   3.210 -0.2629 -0.2906 -1.5572
  225MOL0     H30337   5.946   9.221   3.249 -0.5433  0.0574  0.5989
  225MOL0     H30338   5.770   9.220   3.243  0.9025  1.6511  0.4010
  225MOL0     H30339   6.038   8.843   3.297  0.1109 -2.7220 -1.0018
  225MOL0     H30340   6.187   8.678   3.354  0.7323 -1.8169 -1.6152
  225MOL0     H30341   6.352   8.509   3.359 -0.2450 -0.4090  1.3953
  225MOL0     H30342   6.390   8.514   3.184 -0.1126 -3.0611  1.1914
  225MOL0     H30343   6.578   8.421   3.404 -0.1413 -3.5922 -0.6402
  225MOL0     H30344   6.509   8.350   3.271 -0.2931  1.1859 -0.0671
  225MOL0     H30345   6.705   8.580   3.268 -1.1168  0.2221  2.4551
  225MOL0     H30346   6.618   8.535   3.134 -0.4023  1.1241  0.3228
  225MOL0     H30347   6.791   8.347   3.297 -4.5800 -0.9872  1.5618
  225MOL0     H30348   6.695   8.293   3.171 -0.1136 -0.2557  2.1627
  225MOL0     H30349   6.926   8.334   3.078 -0.8920 -1.2493 -0.1047
  225MOL0     H30350   6.917   8.500   3.140 -1.4837 -1.6674  3.4079
  225MOL0     H30351   6.711   8.391   2.948  0.8544  0.0708 -3.0783
  225MOL0     H30352   6.763   8.559   2.957  0.8145  0.8420  1.1693
  225MOL0     H30353   6.928   8.337   2.840  0.7563 -0.1236 -2.5210
  225MOL0     H30354   7.003   8.481   2.893 -1.1741  0.7849  0.0866
  225MOL0     H30355   6.880   8.620   2.753  1.0048  0.0417 -2.7314
  225MOL0     H30356   6.754   8.501   2.716 -0.7279 -1.2081 -0.7948
  225MOL0     H30357   6.512   8.888   3.165  0.3704  3.5233  1.5964
  225MOL0     H30358   6.360   9.061   3.102  0.1070 -0.0498  0.4867
  225MOL0     H30359   6.018   9.148   2.747 -0.2821 -0.7031  0.5892
  225MOL0     H30360   5.828   9.268   2.662 -3.0761  1.8696  0.0603
  225MOL0     H30361   5.459  10.600   2.213 -1.7767  0.7424 -0.1279
  225MOL0     H30362   5.419  10.833   2.226  0.1811  1.3914  0.2716
  225MOL0     H30363   5.089  11.141   2.083  0.4630  0.1706  0.1629
  225MOL0     H30364   4.987  11.344   1.964 -1.0097  2.8734 -4.0330
  225MOL0     H30365   5.024  11.376   1.678 -0.9496 -0.2167  2.0306
  225MOL0     H30366   4.913  11.478   1.750 -0.8236 -3.1402 -0.4528
  225MOL0     H30367   5.006  11.676   1.655 -0.3440  0.4748 -3.1381
  225MOL0     H30368   4.974  11.561   1.526  0.2292  0.0994 -0.9381
  225MOL0     H30369   5.234  11.479   1.571 -2.6867 -1.0168  2.9040
  225MOL0     H30370   5.263  11.621   1.646  1.5360 -0.8837 -1.5155
  225MOL0     H30371   5.212  11.770   1.455  1.4520  0.3029 -1.0010
  225MOL0     H30372   5.171  11.638   1.359  0.9203 -2.5498 -1.3775
  225MOL0     H30373   5.585  11.570   1.363  0.3719  2.0580 -1.8205
  225MOL0     H30374   5.383  11.449   1.812  2.5071 -0.2794  2.6105
  225MOL0     H30375   5.466  11.242   1.921  1.0996  2.3633 -0.5484
  226MOL0     O30376   8.921   1.504   5.302  0.2779 -0.2663  0.1365
  226MOL0     C30377   8.861   1.468   5.198 -0.4244  0.1881 -0.0371
  226MOL0     O30378   8.759   1.370   5.183  0.0536  0.6387  0.0856
  226MOL0     C30379   8.700   1.306   5.294 -0.4523  0.0931  0.5029
  226MOL0     C30380   8.741   1.296   5.427  0.3058 -0.8260 -0.2470
  226MOL0     C30381   8.661   1.231   5.522  0.3503  0.1794  0.7330
  226MOL0     C30382   8.535   1.181   5.490  0.3709  0.0488 -0.4646
  226MOL0     O30383   8.463   1.098   5.575 -0.3517 -0.2152  0.1354
  226MOL0     C30384   8.535   1.001   5.647 -1.5065 -0.2019 -0.1868
  226MOL0     C30385   8.616   0.900   5.567  0.1349  0.0819 -0.4287
  226MOL0     C30386   8.544   0.775   5.516  0.8260  0.6626 -0.6800
  226MOL0     C30387   8.645   0.710   5.432  0.6442  0.1342  0.3001
  226MOL0     C30388   8.778   0.653   5.496 -0.0511 -0.6950 -0.0379
  226MOL0     C30389   8.745   0.576   5.629 -0.0013  0.6531  0.1406
  226MOL0     C30390   8.885   0.538   5.686 -0.2815  0.0801 -0.5996
  226MOL0     C30391   8.861   0.436   5.802 -0.2769 -0.1552 -0.4357
  226MOL0     N30392   8.968   0.370   5.868  0.0014 -0.1957 -0.7249
  226MOL0     C30393   8.985   0.237   5.879  0.1287  0.3944  0.6651
  226MOL0     C30394   9.106   0.223   5.920 -0.6200 -0.5990 -0.1099
  226MOL0     C30395   9.177   0.098   5.922 -0.7427  0.1987 -1.0758
  226MOL0     C30396   9.226   0.058   5.779 -0.1825  0.1007  0.7578
  226MOL0     C30397   9.329   0.137   5.713 -0.4896  0.6177  0.1911
  226MOL0     C30398   9.287   0.266   5.643 -0.4780 -0.0619  0.3756
  226MOL0     O30399   9.150   0.276   5.600 -0.2186 -0.5765 -0.2412
  226MOL0     C30400   9.108   0.241   5.479 -0.0844 -0.5676  0.0922
  226MOL0     C30401   9.189   0.169   5.383  0.4453 -0.5985  0.5524
  226MOL0     C30402   9.134   0.161   5.253  0.1145  0.1983 -0.0365
  226MOL0     C30403   9.234   0.115   5.157 -0.0821  0.2669 -0.4242
  226MOL0     C30404   9.007   0.192   5.215 -0.4027  0.4338  0.0308
  226MOL0     C30405   8.951   0.176   5.080 -0.7726 -0.2603 -0.5091
  226MOL0     O30406   9.006   0.079   5.002  0.5319  0.3587 -0.1894
  226MOL0     C30407   8.982   0.110   4.870  0.2162 -0.3943 -0.0340
  226MOL0     C30408   8.892   0.035   4.783 -0.2954  0.8198  0.8368
  226MOL0     C30409   8.877   0.075   4.651  0.4882  0.8015  0.4295
  226MOL0     C30410   8.944   0.186   4.603  0.6463  0.4818  0.8258
  226MOL0     O30411   8.923   0.234   4.477  0.1554  0.1575 -0.2754
  226MOL0     C30412   8.939   0.378   4.458 -1.1113 -0.0184  0.5719
  226MOL0     C30413   8.877   0.417   4.330  0.4606 -0.4060 -0.1238
  226MOL0     C30414   8.715   0.435   4.336 -1.0752 -0.6330 -0.7085
  226MOL0     C30415   8.654   0.458   4.195 -0.3803  0.6970  0.0513
  226MOL0     C30416   8.502   0.425   4.204 -0.1247  0.4035 -0.5535
  226MOL0     C30417   8.422   0.427   4.074 -0.6209 -0.9599 -0.0878
  226MOL0     C30418   8.275   0.444   4.081 -0.8216  0.8159 -0.4585
  226MOL0     C30419   8.244   0.589   4.094 -0.2354  0.1448  0.8577
  226MOL0    Cl30420   8.063   0.632   4.064 -0.0777 -0.1880  0.1609
  226MOL0     C30421   9.044   0.245   4.680 -0.5922 -0.0244 -0.0547
  226MOL0     C30422   9.050   0.211   4.814 -1.2691 -0.3647 -0.1767
  226MOL0     O30423   8.868   0.263   5.049  0.2530  0.8904  0.5413
  226MOL0     C30424   8.923   0.247   5.315 -0.9384  0.5371  0.8956
  226MOL0     C30425   8.985   0.272   5.443  0.4567  0.2682  0.5521
  226MOL0     N30426   9.174   0.343   5.943  0.2514  0.7043 -0.5127
  226MOL0     N30427   9.083   0.430   5.914 -0.7047  0.3738 -0.1330
  226MOL0     C30428   8.493   1.197   5.362 -0.6160  0.0903  0.7898
  226MOL0     C30429   8.576   1.254   5.258  0.7921  0.2697 -0.4937
  226MOL0     C30430   8.904   1.527   5.073 -0.9951 -0.2852 -0.5315
  226MOL0     C30431   9.028   1.602   5.077  0.2263 -0.4364 -0.0040
  226MOL0     C30432   9.063   1.667   4.962  0.0025  0.5820  0.1258
  226MOL0     C30433   8.986   1.654   4.843 -0.5861  0.5375 -0.3089
  226MOL0     O30434   9.034   1.700   4.724 -0.2859  0.3281  0.3029
  226MOL0     C30435   9.156   1.780   4.728  0.1729  0.6078 -0.2404
  226MOL0     C30436   9.187   1.850   4.599  0.0060 -0.0928 -0.5169
  226MOL0     C30437   9.131   1.988   4.582  0.9600  1.3527 -1.1238
  226MOL0     C30438   9.129   2.029   4.434 -0.0654 -0.9449  0.0270
  226MOL0     C30439   9.013   1.960   4.366 -0.1171  0.1542 -0.9915
  226MOL0     C30440   8.916   1.918   4.308 -0.0002 -0.2985 -0.4024
  226MOL0     C30441   8.876   1.569   4.839 -0.1239 -1.3712  0.0513
  226MOL0     C30442   8.834   1.501   4.955  0.4675 -0.7224 -1.0459
  226MOL0     H30443   8.832   1.345   5.461  0.5956  1.2068 -3.5213
  226MOL0     H30444   8.711   1.221   5.618 -1.2527 -1.5468  1.4584
  226MOL0     H30445   8.608   1.043   5.716 -1.0065 -0.3758 -0.6021
  226MOL0     H30446   8.461   0.955   5.713 -5.1288  3.5439 -1.2222
  226MOL0     H30447   8.656   0.949   5.477  0.6013 -2.9533 -2.0018
  226MOL0     H30448   8.691   0.886   5.646 -0.6027  4.2030  1.2512
  226MOL0     H30449   8.514   0.716   5.602  0.9321  3.7598  1.6791
  226MOL0     H30450   8.451   0.806   5.467 -0.5786 -2.0830  0.0626
  226MOL0     H30451   8.594   0.622   5.391  0.3449 -0.7936  2.5225
  226MOL0     H30452   8.673   0.779   5.352 -1.2217 -0.1297 -0.6365
  226MOL0     H30453   8.834   0.585   5.431 -0.9784 -0.4065 -1.1870
  226MOL0     H30454   8.855   0.727   5.518  0.4295 -0.2300 -2.8991
  226MOL0     H30455   8.703   0.634   5.712 -2.0328 -0.6856  0.0995
  226MOL0     H30456   8.688   0.484   5.616 -0.9568  0.9159  2.1027
  226MOL0     H30457   8.950   0.498   5.608 -0.6074  0.7217 -1.2098
  226MOL0     H30458   8.942   0.618   5.733  2.4686 -3.8334  3.5172
  226MOL0     H30459   8.801   0.352   5.765  1.2772 -2.2129  1.4462
  226MOL0     H30460   8.802   0.491   5.876  0.3351  1.2845 -0.9919
  226MOL0     H30461   8.920   0.161   5.837 -2.0802  0.1973  4.0516
  226MOL0     H30462   9.269   0.106   5.981 -2.5437 -3.5578  2.7885
  226MOL0     H30463   9.127   0.013   5.968 -0.6034 -1.2080 -3.3649
  226MOL0     H30464   9.150   0.049   5.700  2.7269 -1.4782 -2.1310
  226MOL0     H30465   9.267  -0.044   5.782  0.6378  0.1362 -3.4076
  226MOL0     H30466   9.358   0.071   5.631 -1.0775  0.1292  0.3629
  226MOL0     H30467   9.399   0.157   5.795 -3.2301 -2.2908  3.6363
  226MOL0     H30468   9.347   0.294   5.555 -0.8971  1.8839  0.6565
  226MOL0     H30469   9.301   0.338   5.724  0.8191  0.1525 -0.0088
  226MOL0     H30470   9.286   0.131   5.413  0.1268 -0.8709  1.2744
  226MOL0     H30471   9.245   0.182   5.071  2.1096  1.1258  0.4683
  226MOL0     H30472   9.333   0.114   5.202  0.8781 -0.1325 -2.4193
  226MOL0     H30473   9.213   0.011   5.130  1.7848 -0.4021  0.5626
  226MOL0     H30474   8.834  -0.049   4.820  0.2996  1.0341  2.3082
  226MOL0     H30475   8.801   0.026   4.591 -0.3530  0.3844  1.7924
  226MOL0     H30476   8.912   0.436   4.547  1.2011 -1.4165  2.2838
  226MOL0     H30477   9.043   0.401   4.435 -1.0474  1.3057  2.0255
  226MOL0     H30478   8.920   0.510   4.291 -1.3189  0.9810  1.0500
  226MOL0     H30479   8.902   0.332   4.266 -0.8193 -0.2093 -0.9221
  226MOL0     H30480   8.693   0.521   4.400 -0.4014 -0.2300 -1.0121
  226MOL0     H30481   8.680   0.338   4.373  2.2699 -1.4385  0.7242
  226MOL0     H30482   8.657   0.565   4.173 -3.0810  0.8867  0.2711
  226MOL0     H30483   8.697   0.401   4.113  0.2331 -1.9407  2.0881
  226MOL0     H30484   8.469   0.502   4.275 -0.5736 -2.0678  2.1159
  226MOL0     H30485   8.489   0.328   4.252 -4.0728  0.8187 -0.4815
  226MOL0     H30486   8.466   0.501   4.005 -0.5338 -1.2679 -0.3639
  226MOL0     H30487   8.433   0.330   4.025  1.5297 -0.4559 -0.7555
  226MOL0     H30488   8.239   0.393   4.170 -3.0164  0.7810 -1.3205
  226MOL0     H30489   8.215   0.405   3.999 -1.0957  1.6339 -0.6532
  226MOL0     H30490   8.296   0.641   4.013 -0.1703 -2.1618 -0.7103
  226MOL0     H30491   8.277   0.628   4.190  1.8114  1.1572 -0.2029
  226MOL0     H30492   9.093   0.339   4.657 -1.5306  0.7634  1.0457
  226MOL0     H30493   9.108   0.279   4.875  2.4629 -2.3348 -1.1702
  226MOL0     H30494   8.823   0.279   5.289 -1.4087 -1.9877 -0.8874
  226MOL0     H30495   8.927   0.311   5.526  0.8260 -1.0287  1.4410
  226MOL0     H30496   8.396   1.159   5.331  0.9001 -2.3591 -1.3831
  226MOL0     H30497   8.539   1.257   5.156  3.7597  2.2194 -1.6562
  226MOL0     H30498   9.077   1.610   5.173 -1.3324  1.5299  0.7040
  226MOL0     H30499   9.158   1.717   4.971  0.8003  0.1376 -3.9752
  226MOL0     H30500   9.147   1.851   4.810  3.5252  0.9910 -0.0590
  226MOL0     H30501   9.240   1.717   4.758 -2.3406 -1.0395  4.2993
  226MOL0     H30502   9.148   1.787   4.519  0.1764 -2.5870  1.2729
  226MOL0     H30503   9.296   1.848   4.587  0.1149  1.6416 -0.1643
  226MOL0     H30504   9.214   2.036   4.635  0.9096 -2.0047  2.5251
  226MOL0     H30505   9.041   2.001   4.643  0.0095  0.2783 -2.2458
  226MOL0     H30506   9.223   1.997   4.389 -0.0687  1.4697 -1.9012
  226MOL0     H30507   9.124   2.138   4.423  1.2222 -0.5860  2.3780
  226MOL0     H30508   8.833   1.880   4.251 -0.1580  0.8210 -0.9293
  226MOL0     H30509   8.829   1.562   4.741  0.8503  1.9915 -0.7896
  226MOL0     H30510   8.750   1.433   4.947 -0.1928 -0.1665  0.7170
  227MOL0     O30511   6.661   7.646   5.981 -0.1508  0.1296 -0.3852
  227MOL0     C30512   6.760   7.610   5.923  0.0366  0.1046  0.5750
  227MOL0     O30513   6.883   7.683   5.916 -0.2684  0.3526 -0.5696
  227MOL0     C30514   6.898   7.788   6.003 -0.1515 -0.0469 -0.5214
  227MOL0     C30515   6.936   7.908   5.954 -0.0218  0.2776 -0.1979
  227MOL0     C30516   6.970   8.019   6.030  1.0013 -0.3719  0.3107
  227MOL0     C30517   6.955   8.012   6.167 -0.4071 -0.1289  0.6142
  227MOL0     O30518   6.980   8.118   6.258  0.1253  0.4490  0.2193
  227MOL0     C30519   7.046   8.231   6.200 -0.0929  0.1576 -0.0408
  227MOL0     C30520   7.079   8.320   6.320 -0.5947  0.4291  0.6604
  227MOL0     C30521   6.972   8.378   6.400  0.0987 -0.5910 -0.0061
  227MOL0     C30522   7.010   8.386   6.546 -0.7305 -0.3807 -0.8560
  227MOL0     C30523   6.894   8.425   6.648 -1.3028  0.3028 -0.4426
  227MOL0     C30524   6.873   8.577   6.646 -0.1076  0.1044 -0.0119
  227MOL0     C30525   6.769   8.630   6.739  0.6356  0.4545 -1.2858
  227MOL0     C30526   6.814   8.624   6.889 -0.2538  0.6629 -0.3256
  227MOL0     N30527   6.709   8.660   6.987 -0.1269  0.1568  0.8095
  227MOL0     C30528   6.652   8.783   6.990 -0.8700 -0.1373  0.1722
  227MOL0     C30529   6.555   8.765   7.082  1.6133 -0.1343  0.0078
  227MOL0     C30530   6.437   8.856   7.107  0.0776 -0.9180  0.2209
  227MOL0     C30531   6.463   8.983   7.191  0.3769  0.3806  0.3928
  227MOL0     C30532   6.338   9.030   7.277  0.0170 -0.4660  0.8665
  227MOL0     C30533   6.365   9.164   7.347 -0.0579 -0.2419  0.2345
  227MOL0     O30534   6.253   9.216   7.431  0.4406  0.1409  0.0274
  227MOL0     C30535   6.138   9.264   7.359 -0.5926 -0.1877 -0.4084
  227MOL0     C30536   6.122   9.282   7.220  0.2642  0.1115  0.4363
  227MOL0     C30537   5.996   9.328   7.156  0.5972 -0.5066 -0.4650
  227MOL0     C30538   5.979   9.365   7.010  0.1905  0.0366  0.5521
  227MOL0     C30539   5.890   9.352   7.248 -0.7873  0.3958  0.2516
  227MOL0     C30540   5.763   9.403   7.205  0.3118  0.2152  0.1528
  227MOL0     O30541   5.704   9.344   7.105  0.0340  0.2116  0.1892
  227MOL0     C30542   5.581   9.380   7.067 -0.1766  0.9581 -0.3577
  227MOL0     C30543   5.561   9.427   6.936  0.9463 -0.1818  0.3140
  227MOL0     C30544   5.439   9.474   6.893  0.2066 -1.1265 -0.4711
  227MOL0     C30545   5.326   9.480   6.986  0.0614 -1.0777 -0.0993
  227MOL0     O30546   5.213   9.555   6.954  0.5852 -0.4264  1.2058
  227MOL0     C30547   5.083   9.520   7.013  1.3032 -0.6703 -0.2214
  227MOL0     C30548   4.976   9.580   6.911 -0.8718 -0.9696  0.2040
  227MOL0     C30549   4.984   9.509   6.774  0.2807 -0.1468 -0.7954
  227MOL0     C30550   4.890   9.573   6.664  0.1177 -0.1612 -0.1618
  227MOL0     C30551   4.746   9.540   6.703 -0.0400 -0.4202 -0.5167
  227MOL0     C30552   4.661   9.521   6.579  0.7382  0.9467  1.0350
  227MOL0     C30553   4.511   9.506   6.615  0.2860  0.2095 -0.6523
  227MOL0     C30554   4.417   9.500   6.497 -0.4033 -1.1001 -0.4628
  227MOL0    Cl30555   4.498   9.407   6.369  0.5999 -0.2633  0.0365
  227MOL0     C30556   5.348   9.429   7.116  1.4791  0.2500 -0.2481
  227MOL0     C30557   5.470   9.374   7.153 -0.1279 -0.4400 -0.1597
  227MOL0     O30558   5.720   9.499   7.269 -0.5759  0.3322  0.3366
  227MOL0     C30559   5.916   9.340   7.387  0.0259  0.0601  0.0573
  227MOL0     C30560   6.040   9.297   7.439  0.3895  0.1153  0.4948
  227MOL0     N30561   6.573   8.646   7.149 -0.5925 -0.1690 -1.2048
  227MOL0     N30562   6.661   8.579   7.082  0.7730 -0.4024  0.0064
  227MOL0     C30563   6.921   7.885   6.215  0.2152  0.2684  0.2188
  227MOL0     C30564   6.906   7.780   6.136  0.9492  0.5184 -0.0083
  227MOL0     C30565   6.749   7.474   5.865  0.8134  0.6345 -0.0809
  227MOL0     C30566   6.870   7.406   5.820  0.8045 -0.2221  0.4663
  227MOL0     C30567   6.878   7.280   5.767  0.3959  0.5090 -0.0118
  227MOL0     C30568   6.755   7.207   5.768  0.6074  0.7412 -0.0732
  227MOL0     O30569   6.760   7.080   5.724  0.8238 -0.2512 -0.4687
  227MOL0     C30570   6.634   7.008   5.736 -0.6018  0.0782 -0.2502
  227MOL0     C30571   6.560   7.025   5.615  0.1713 -0.4077 -0.5112
  227MOL0     C30572   6.423   6.963   5.642  0.6037 -0.3279 -0.0676
  227MOL0     C30573   6.334   7.014   5.529 -0.8421 -0.7373  0.3880
  227MOL0     C30574   6.218   6.934   5.530 -0.8029  0.2531  0.0791
  227MOL0     C30575   6.128   6.855   5.518 -0.0605 -0.4823 -0.1968
  227MOL0     C30576   6.639   7.268   5.804  0.5135  0.0156  0.2130
  227MOL0     C30577   6.634   7.399   5.857  0.4821 -0.2662 -0.1947
  227MOL0     H30578   6.948   7.913   5.847 -0.2866  2.3330 -0.1574
  227MOL0     H30579   7.001   8.106   5.973 -1.1550 -0.3809 -1.0256
  227MOL0     H30580   7.138   8.205   6.146 -1.7197 -5.5758 -0.7420
  227MOL0     H30581   6.981   8.288   6.134  2.2001  2.4278 -0.4969
  227MOL0     H30582   7.153   8.267   6.381 -0.2499  2.3847  2.0521
  227MOL0     H30583   7.143   8.405   6.294  0.5007 -0.3585  0.7205
  227MOL0     H30584   6.945   8.475   6.355 -0.6456 -1.0404 -0.5656
  227MOL0     H30585   6.884   8.313   6.396 -0.8205  0.6029  0.2232
  227MOL0     H30586   7.041   8.287   6.580 -2.7303 -0.6351  0.3822
  227MOL0     H30587   7.100   8.448   6.548 -0.9387  0.2013 -4.0466
  227MOL0     H30588   6.809   8.365   6.616 -0.2652 -0.3655 -2.1152
  227MOL0     H30589   6.927   8.388   6.746  2.0502  0.2619 -1.4472
  227MOL0     H30590   6.967   8.634   6.652 -0.3187  0.4870 -0.3086
  227MOL0     H30591   6.844   8.604   6.544  3.2292  1.0308 -0.8555
  227MOL0     H30592   6.742   8.733   6.716  0.3704  0.6622 -0.1136
  227MOL0     H30593   6.673   8.580   6.722 -1.1554  3.3123 -0.1760
  227MOL0     H30594   6.892   8.700   6.889  0.7691 -0.3184 -2.2239
  227MOL0     H30595   6.861   8.534   6.930  0.4867  0.6381 -1.2138
  227MOL0     H30596   6.665   8.875   6.934  0.1179 -0.3721  0.0052
  227MOL0     H30597   6.399   8.901   7.015  2.5892  0.0960 -0.4132
  227MOL0     H30598   6.357   8.790   7.139 -1.7953  2.1329  2.3420
  227MOL0     H30599   6.500   9.068   7.132  1.6875  1.7251  2.9982
  227MOL0     H30600   6.550   8.967   7.255  0.0884 -0.7141  0.5243
  227MOL0     H30601   6.329   8.961   7.362  1.7699  0.5754  1.9384
  227MOL0     H30602   6.241   9.033   7.225  0.2494  0.3782  0.4664
  227MOL0     H30603   6.389   9.242   7.275  0.2893 -1.0538 -0.5483
  227MOL0     H30604   6.445   9.153   7.421 -1.2841  3.6101  2.3968
  227MOL0     H30605   6.205   9.246   7.161 -0.2955  0.2923 -0.4806
  227MOL0     H30606   5.935   9.276   6.962  1.0814 -0.2849  0.2984
  227MOL0     H30607   5.923   9.457   6.993  2.3098  0.9864 -1.8904
  227MOL0     H30608   6.081   9.370   6.971  1.5806 -1.6089  3.6200
  227MOL0     H30609   5.645   9.433   6.867  0.8941  2.8668  0.4001
  227MOL0     H30610   5.436   9.502   6.788  1.7881 -1.5040 -0.6423
  227MOL0     H30611   5.086   9.411   7.026  1.0816 -0.4234  2.3473
  227MOL0     H30612   5.065   9.579   7.103 -4.5924  1.2723 -2.1889
  227MOL0     H30613   4.876   9.552   6.947 -0.1760 -2.4851  1.0406
  227MOL0     H30614   4.999   9.684   6.887 -2.5898 -0.7648 -0.7807
  227MOL0     H30615   4.964   9.402   6.780 -0.1874 -0.2087 -2.7574
  227MOL0     H30616   5.090   9.529   6.752 -0.5000  2.8264 -2.3354
  227MOL0     H30617   4.904   9.682   6.667 -2.8630  0.3280 -0.9466
  227MOL0     H30618   4.903   9.525   6.567 -0.6349 -2.2445  0.7239
  227MOL0     H30619   4.714   9.638   6.740  1.7838  1.0118 -2.4658
  227MOL0     H30620   4.732   9.453   6.767  1.0428 -0.2674 -0.0455
  227MOL0     H30621   4.674   9.601   6.506 -4.4011 -1.1976 -2.8769
  227MOL0     H30622   4.701   9.433   6.529  0.0095  0.7457  0.7854
  227MOL0     H30623   4.494   9.598   6.672  1.5377 -1.3074  2.4158
  227MOL0     H30624   4.483   9.432   6.690 -2.5627  1.5706 -0.2385
  227MOL0     H30625   4.389   9.601   6.463  3.4917 -0.3033 -1.8316
  227MOL0     H30626   4.324   9.461   6.539 -2.3188  4.4971  1.4204
  227MOL0     H30627   5.273   9.450   7.192  2.0150  0.2659  0.2863
  227MOL0     H30628   5.478   9.313   7.243 -3.7922 -0.3359  0.4057
  227MOL0     H30629   5.833   9.375   7.448  0.2487  2.9310 -1.1080
  227MOL0     H30630   6.047   9.284   7.547 -0.8090  3.1635  1.0300
  227MOL0     H30631   6.923   7.878   6.324  1.8501  3.0891  0.4768
  227MOL0     H30632   6.876   7.689   6.187 -0.8627  0.8903 -0.3532
  227MOL0     H30633   6.967   7.451   5.838  2.2191 -3.0173  0.4080
  227MOL0     H30634   6.964   7.228   5.726 -0.4609 -2.2493  1.4345
  227MOL0     H30635   6.661   6.903   5.749 -1.8130 -0.4191 -1.3962
  227MOL0     H30636   6.574   7.041   5.822 -0.6889  2.9425 -1.2876
  227MOL0     H30637   6.607   6.968   5.534  0.2736 -2.0710  0.6644
  227MOL0     H30638   6.572   7.131   5.591  1.5141 -0.2990  0.5352
  227MOL0     H30639   6.384   6.982   5.742 -1.5965  0.4211 -0.9978
  227MOL0     H30640   6.424   6.854   5.639  2.4864 -0.3351 -0.3674
  227MOL0     H30641   6.381   6.995   5.432 -0.6391 -0.8571  0.5092
  227MOL0     H30642   6.304   7.119   5.529  1.7219  0.1081  2.7911
  227MOL0     H30643   6.065   6.769   5.511 -1.8032  0.8851 -3.6946
  227MOL0     H30644   6.540   7.230   5.780 -0.3157  3.2717 -2.2441
  227MOL0     H30645   6.542   7.435   5.900  1.1443 -3.9567  5.3915
  228MOL0     O30646   4.584   1.341   4.551 -0.3158  0.0210 -0.5797
  228MOL0     C30647   4.492   1.420   4.541 -0.4610  0.2036 -0.3933
  228MOL0     O30648   4.499   1.558   4.557  0.0684 -0.5252  0.1524
  228MOL0     C30649   4.608   1.624   4.613  0.3540  0.4843  0.0612
  228MOL0     C30650   4.590   1.678   4.743  0.8737 -1.4470  0.4126
  228MOL0     C30651   4.694   1.728   4.820  0.0376  0.5093  0.3542
  228MOL0     C30652   4.817   1.736   4.761 -1.3575  0.9767 -0.2388
  228MOL0     O30653   4.923   1.788   4.827 -0.4003 -0.7847  0.2425
  228MOL0     C30654   4.911   1.930   4.855  0.5918  0.2742 -0.4467
  228MOL0     C30655   5.050   1.994   4.842 -0.0202 -0.5931  0.1289
  228MOL0     C30656   5.044   2.141   4.878  0.4142  0.8661  0.3639
  228MOL0     C30657   5.056   2.166   5.021  0.2730 -0.2817  0.2514
  228MOL0     C30658   5.014   2.309   5.058  0.5890 -0.6153  0.8245
  228MOL0     C30659   5.055   2.343   5.196 -0.3867 -0.1624  0.5885
  228MOL0     C30660   4.976   2.445   5.278  0.2889  0.2981  0.4599
  228MOL0     C30661   4.960   2.585   5.217 -0.1373  0.7963  0.4723
  228MOL0     N30662   5.061   2.684   5.247 -0.3928 -0.2833  0.1623
  228MOL0     C30663   5.196   2.657   5.232  0.0785  0.5072  0.7041
  228MOL0     C30664   5.258   2.741   5.307 -0.7390  0.5065 -0.1379
  228MOL0     C30665   5.408   2.731   5.338  0.7112  0.5449  0.5001
  228MOL0     C30666   5.439   2.787   5.478 -0.6861  0.2783 -0.4063
  228MOL0     C30667   5.399   2.692   5.593 -0.1687 -0.2318  0.1291
  228MOL0     C30668   5.453   2.746   5.724  1.0815  0.6561 -0.2451
  228MOL0     O30669   5.400   2.667   5.832 -0.5236 -0.2264  0.2192
  228MOL0     C30670   5.282   2.712   5.891 -0.2361  0.5909 -1.1315
  228MOL0     C30671   5.172   2.780   5.831  0.0279 -0.5687  0.5567
  228MOL0     C30672   5.053   2.815   5.901  0.7545 -0.4318 -0.7846
  228MOL0     C30673   4.937   2.880   5.837  0.0826 -1.2383  0.4369
  228MOL0     C30674   5.039   2.787   6.040 -0.4377 -0.6663  0.0715
  228MOL0     C30675   4.921   2.809   6.127  0.8665 -0.0231  0.1879
  228MOL0     O30676   4.952   2.835   6.266 -0.2622 -0.3414  0.9583
  228MOL0     C30677   4.851   2.886   6.352 -0.0380  0.2987  1.1855
  228MOL0     C30678   4.870   2.855   6.487 -0.6627  0.6441  0.3893
  228MOL0     C30679   4.781   2.915   6.586 -0.3167  0.1009  0.7718
  228MOL0     C30680   4.684   3.013   6.545  0.3374 -0.2637 -0.1431
  228MOL0     O30681   4.592   3.072   6.636  0.1624  0.7174  0.2441
  228MOL0     C30682   4.636   3.106   6.767 -0.0661  0.4290 -0.0326
  228MOL0     C30683   4.535   3.175   6.848  0.1761 -0.3133  0.5264
  228MOL0     C30684   4.576   3.224   6.985 -1.2975 -0.6078 -0.5476
  228MOL0     C30685   4.616   3.103   7.075  0.0896  0.1460  0.1592
  228MOL0     C30686   4.678   3.143   7.208 -0.1336 -0.1666  0.3139
  228MOL0     C30687   4.732   3.030   7.299  0.8486 -0.2779 -0.6209
  228MOL0     C30688   4.865   2.974   7.250 -0.0675 -0.1760 -0.8156
  228MOL0     C30689   4.938   2.892   7.363  0.1309  0.8032 -0.4298
  228MOL0    Cl30690   4.983   3.010   7.499  0.1765 -0.0365 -0.0694
  228MOL0     C30691   4.658   3.019   6.417 -0.7766 -0.8092  0.5238
  228MOL0     C30692   4.738   2.965   6.319  0.2628 -0.4555  0.6743
  228MOL0     O30693   4.808   2.799   6.084  0.7077  0.5688  0.0841
  228MOL0     C30694   5.153   2.731   6.105  0.0810 -0.5481  0.3984
  228MOL0     C30695   5.267   2.694   6.031 -0.8652 -0.4434  0.2247
  228MOL0     N30696   5.173   2.826   5.370  0.6796 -0.6626  0.2961
  228MOL0     N30697   5.050   2.790   5.331  0.6677 -0.2693  0.0617
  228MOL0     C30698   4.844   1.690   4.631  0.1601 -0.4789  0.3073
  228MOL0     C30699   4.740   1.627   4.564  0.6156  0.0123  0.8939
  228MOL0     C30700   4.358   1.360   4.481 -0.1121  0.0513 -0.1171
  228MOL0     C30701   4.338   1.228   4.437 -0.1682 -0.2465 -0.0270
  228MOL0     C30702   4.216   1.183   4.384  0.2875  0.5280  0.8008
  228MOL0     C30703   4.119   1.278   4.361 -0.1483 -0.1588  0.6409
  228MOL0     O30704   4.000   1.258   4.301  0.4605  0.1580 -0.3240
  228MOL0     C30705   3.975   1.129   4.238  0.0948 -0.8814  0.2913
  228MOL0     C30706   4.039   1.114   4.103 -0.1860 -0.3346  0.7403
  228MOL0     C30707   3.987   1.221   3.994 -0.9186 -0.0302 -0.7105
  228MOL0     C30708   4.056   1.216   3.856  0.4163  0.9535 -0.2347
  228MOL0     C30709   3.989   1.296   3.758 -0.1868 -0.3178  0.3223
  228MOL0     C30710   3.938   1.380   3.685  0.3865  0.0099 -0.3268
  228MOL0     C30711   4.143   1.412   4.398  0.9299 -0.1508  0.3227
  228MOL0     C30712   4.252   1.448   4.471 -1.2787 -0.4058  0.0483
  228MOL0     H30713   4.488   1.689   4.781  1.7910  2.3848  2.3241
  228MOL0     H30714   4.664   1.754   4.921 -2.2559  1.8547 -0.5692
  228MOL0     H30715   4.853   1.967   4.770  0.3478  1.4812  0.2216
  228MOL0     H30716   4.855   1.944   4.947 -1.2184 -0.2855 -1.4090
  228MOL0     H30717   5.121   1.951   4.913  0.9441 -0.0234 -0.4469
  228MOL0     H30718   5.079   1.975   4.738 -1.1519  0.6973 -0.4595
  228MOL0     H30719   5.124   2.192   4.823  0.1447 -0.0020 -0.8632
  228MOL0     H30720   4.946   2.179   4.849 -0.1794 -1.8677 -1.5124
  228MOL0     H30721   4.994   2.098   5.081 -2.8319  1.3443 -0.8887
  228MOL0     H30722   5.162   2.155   5.044 -0.3175 -2.0715  2.5688
  228MOL0     H30723   5.048   2.388   4.991 -1.7660 -1.5394 -1.6651
  228MOL0     H30724   4.904   2.309   5.057  0.5072 -0.6451 -2.3149
  228MOL0     H30725   5.038   2.254   5.258 -4.5048  0.8135  1.1665
  228MOL0     H30726   5.163   2.356   5.185 -0.7213  1.6854 -1.2254
  228MOL0     H30727   4.878   2.401   5.298  0.3167  0.6058  1.2909
  228MOL0     H30728   5.036   2.461   5.368 -0.7877  0.6674  1.1287
  228MOL0     H30729   4.862   2.614   5.255 -0.4744 -2.1869  2.1977
  228MOL0     H30730   4.948   2.587   5.108 -3.6299  1.3068  0.7776
  228MOL0     H30731   5.238   2.574   5.177 -1.0060  2.2305 -3.0892
  228MOL0     H30732   5.433   2.624   5.339 -0.3222  0.2210 -1.7653
  228MOL0     H30733   5.470   2.781   5.262  1.1478 -0.6454  0.0437
  228MOL0     H30734   5.392   2.884   5.494 -0.6777  0.5398 -1.7983
  228MOL0     H30735   5.546   2.808   5.478 -0.6544  0.1175 -0.1508
  228MOL0     H30736   5.457   2.603   5.568 -2.7490 -2.0495  0.1809
  228MOL0     H30737   5.292   2.667   5.604 -0.1246 -1.2042 -1.4522
  228MOL0     H30738   5.418   2.849   5.734 -4.6125 -0.5518 -2.9992
  228MOL0     H30739   5.562   2.740   5.726  1.0941 -1.2404  3.7896
  228MOL0     H30740   5.174   2.812   5.727 -6.0122 -0.0349  0.2484
  228MOL0     H30741   4.854   2.810   5.826 -1.4058  0.4178  0.5626
  228MOL0     H30742   4.893   2.968   5.886 -2.4628 -2.3366  0.2565
  228MOL0     H30743   4.963   2.914   5.736 -1.2474 -1.7986 -0.1148
  228MOL0     H30744   4.958   2.800   6.521  0.1826 -0.4975 -3.2050
  228MOL0     H30745   4.803   2.896   6.691 -1.7882  1.0318  1.2822
  228MOL0     H30746   4.666   3.015   6.820  0.4933  1.0154  0.6722
  228MOL0     H30747   4.724   3.169   6.753 -0.2247  0.2694 -2.1454
  228MOL0     H30748   4.506   3.259   6.784  1.4466 -1.1449 -1.1826
  228MOL0     H30749   4.448   3.111   6.864 -0.9966  1.1140  0.1236
  228MOL0     H30750   4.497   3.287   7.025  1.7784  3.5553 -0.3833
  228MOL0     H30751   4.664   3.285   6.962  1.5426 -4.6765 -1.7317
  228MOL0     H30752   4.527   3.043   7.095  0.3621 -0.3431 -0.0748
  228MOL0     H30753   4.697   3.053   7.021  2.2111  2.7328  0.7109
  228MOL0     H30754   4.593   3.180   7.267 -0.0427 -1.3146  1.1950
  228MOL0     H30755   4.752   3.222   7.193  1.4859 -1.2257  2.0953
  228MOL0     H30756   4.750   3.074   7.397  0.9141 -0.5930 -0.4927
  228MOL0     H30757   4.661   2.948   7.310  0.9875 -0.2811  0.3299
  228MOL0     H30758   4.932   3.047   7.203  0.4234  1.0904  1.6550
  228MOL0     H30759   4.842   2.908   7.166 -1.0099  0.1222 -0.7971
  228MOL0     H30760   5.035   2.855   7.329 -0.9851 -0.9759 -1.8569
  228MOL0     H30761   4.874   2.809   7.395  0.4771  0.4549 -0.6546
  228MOL0     H30762   4.579   3.080   6.375  1.2665  2.6772  1.3400
  228MOL0     H30763   4.704   2.981   6.217 -1.3891 -3.8543  0.5367
  228MOL0     H30764   5.154   2.704   6.210 -0.2311 -0.2965  0.4676
  228MOL0     H30765   5.351   2.645   6.079 -0.9176  0.5070  1.3535
  228MOL0     H30766   4.944   1.688   4.588  0.0479 -3.3533  0.0284
  228MOL0     H30767   4.752   1.579   4.468  2.4666  3.4912 -0.8005
  228MOL0     H30768   4.425   1.166   4.460  2.5807  3.0020 -0.8997
  228MOL0     H30769   4.189   1.078   4.373  1.3673 -0.1091  3.3806
  228MOL0     H30770   3.992   1.037   4.295 -2.7504 -1.3193  0.6043
  228MOL0     H30771   3.866   1.132   4.223 -0.3234  1.0342  3.0598
  228MOL0     H30772   4.021   1.013   4.064 -0.5995  0.3198 -0.8467
  228MOL0     H30773   4.147   1.116   4.121 -0.2515  2.5503  1.3596
  228MOL0     H30774   3.996   1.320   4.040 -0.4907 -0.9240  1.2762
  228MOL0     H30775   3.878   1.213   3.992 -0.8621 -1.3908  0.1146
  228MOL0     H30776   4.058   1.114   3.817 -1.1012  1.3073 -1.3415
  228MOL0     H30777   4.160   1.248   3.868  0.7171  0.6211 -1.7481
  228MOL0     H30778   3.880   1.453   3.632 -0.1458  1.2132  1.7677
  228MOL0     H30779   4.062   1.477   4.367  0.1705 -0.6765  1.1512
  228MOL0     H30780   4.260   1.549   4.511  1.2441 -0.2096 -0.7716
  229MOL0     O30781   2.132   2.486  10.363 -0.8874  0.1917 -0.0839
  229MOL0     C30782   2.193   2.433  10.453  0.0922  0.0963 -1.3055
  229MOL0     O30783   2.153   2.435  10.585  0.5723  0.8949 -0.3964
  229MOL0     C30784   2.049   2.515  10.613 -0.8404 -0.3786 -0.3801
  229MOL0     C30785   1.916   2.482  10.603 -0.3130 -0.4278 -0.5631
  229MOL0     C30786   1.809   2.559  10.654  0.2515  0.5699 -0.5856
  229MOL0     C30787   1.840   2.690  10.699 -0.0519  0.4782 -0.1253
  229MOL0     O30788   1.724   2.761  10.734 -0.7626 -0.6297  0.7682
  229MOL0     C30789   1.734   2.898  10.741 -0.1303  0.0699 -0.4247
  229MOL0     C30790   1.596   2.969  10.728  0.0360 -0.3609  0.4910
  229MOL0     C30791   1.518   2.949  10.595 -0.5139  0.1569  0.9075
  229MOL0     C30792   1.595   2.990  10.464  0.0870  0.7437  0.1112
  229MOL0     C30793   1.688   2.869  10.414 -0.7723 -0.4267 -0.3570
  229MOL0     C30794   1.720   2.869  10.264 -0.4071 -0.5600 -0.2242
  229MOL0     C30795   1.781   2.740  10.220  0.7962 -0.2186 -0.1301
  229MOL0     C30796   1.927   2.731  10.214 -0.8155  0.3062  0.2572
  229MOL0     N30797   1.978   2.787  10.087 -0.4082 -0.1561  0.4627
  229MOL0     C30798   2.002   2.709   9.981  0.1748  0.0358 -0.9629
  229MOL0     C30799   2.055   2.795   9.897 -0.2050 -1.1847 -0.1151
  229MOL0     C30800   2.120   2.753   9.766 -0.2316 -0.7279 -0.2584
  229MOL0     C30801   2.028   2.809   9.655 -0.6188  0.2656 -0.9986
  229MOL0     C30802   1.958   2.948   9.668  0.3176  0.6202  0.3649
  229MOL0     C30803   2.054   3.064   9.668 -1.4180  0.2060 -0.4169
  229MOL0     O30804   2.143   3.036   9.562  0.0476  0.2736  0.5894
  229MOL0     C30805   2.243   3.132   9.549 -0.6017  1.4283 -0.4093
  229MOL0     C30806   2.367   3.090   9.493  0.5295 -0.0033  0.4368
  229MOL0     C30807   2.471   3.180   9.457  0.5357 -0.7400  0.0109
  229MOL0     C30808   2.599   3.138   9.387  0.0090 -0.3542  0.4159
  229MOL0     C30809   2.447   3.318   9.483  0.4331  0.1827 -0.6248
  229MOL0     C30810   2.533   3.427   9.449 -0.2400  0.0170 -0.2883
  229MOL0     O30811   2.659   3.414   9.497 -0.0198  0.0512  0.1151
  229MOL0     C30812   2.752   3.513   9.465  1.1692 -0.6757 -0.3379
  229MOL0     C30813   2.786   3.608   9.563 -0.0719  0.1794  0.0030
  229MOL0     C30814   2.887   3.699   9.538  0.3619  0.5489  0.2475
  229MOL0     C30815   2.948   3.709   9.409 -0.6200  0.0141  0.0036
  229MOL0     O30816   3.040   3.806   9.390 -0.7089  0.0389 -0.0449
  229MOL0     C30817   2.985   3.932   9.352 -0.5209 -0.7551 -0.8465
  229MOL0     C30818   3.090   4.031   9.316  0.7611 -0.7248 -0.5082
  229MOL0     C30819   3.192   4.006   9.204 -0.0792  0.6347  0.8405
  229MOL0     C30820   3.275   4.134   9.168 -0.5379 -0.1137  0.5169
  229MOL0     C30821   3.402   4.087   9.088 -0.0043  0.7801  0.2838
  229MOL0     C30822   3.492   4.192   9.066 -1.2630 -0.7655  0.3874
  229MOL0     C30823   3.622   4.153   8.984  0.6608 -0.8015  0.3195
  229MOL0     C30824   3.700   4.275   8.938 -0.1351  0.5355  0.0525
  229MOL0    Cl30825   3.611   4.400   8.865  0.1537  0.1367  0.1329
  229MOL0     C30826   2.909   3.625   9.308 -0.1829 -0.3432  0.0157
  229MOL0     C30827   2.824   3.518   9.337 -0.2354 -0.0537  0.8343
  229MOL0     O30828   2.489   3.519   9.380  0.3940 -0.4404  0.0951
  229MOL0     C30829   2.320   3.362   9.533  0.3529  0.0915 -0.3570
  229MOL0     C30830   2.227   3.272   9.581  0.7522  0.2350 -0.2266
  229MOL0     N30831   2.039   2.926   9.951  0.4318  0.0412  0.8189
  229MOL0     N30832   1.991   2.920  10.065 -0.1335 -0.9475 -0.1041
  229MOL0     C30833   1.976   2.735  10.701 -0.1429  0.4532 -0.7649
  229MOL0     C30834   2.080   2.644  10.666  0.6208 -0.7855  0.5193
  229MOL0     C30835   2.327   2.384  10.413 -0.4037  0.5195  0.2599
  229MOL0     C30836   2.425   2.372  10.516 -0.4829  0.4716 -0.0500
  229MOL0     C30837   2.546   2.312  10.494 -0.5745 -0.7254  0.0900
  229MOL0     C30838   2.580   2.268  10.365  0.1149 -0.1012  0.0138
  229MOL0     O30839   2.701   2.204  10.352  0.3520  0.1056 -0.0686
  229MOL0     C30840   2.814   2.292  10.392  0.4123 -0.7327  0.6068
  229MOL0     C30841   2.904   2.209  10.488  0.3299  0.0170  0.3878
  229MOL0     C30842   2.839   2.179  10.625 -0.7502 -0.5044 -0.0026
  229MOL0     C30843   2.929   2.089  10.699  1.2414 -0.6260 -0.7941
  229MOL0     C30844   2.865   2.034  10.822 -0.2978  1.1018 -0.0341
  229MOL0     C30845   2.790   1.994  10.902  0.0432 -0.2374  0.5548
  229MOL0     C30846   2.479   2.280  10.266 -0.0182 -0.1479 -1.1510
  229MOL0     C30847   2.359   2.338  10.286 -0.0103 -0.8288 -0.2391
  229MOL0     H30848   1.886   2.382  10.574 -1.6344 -0.6028  1.1939
  229MOL0     H30849   1.705   2.526  10.654 -0.5141  2.6693  1.6678
  229MOL0     H30850   1.773   2.926  10.839 -0.2827 -1.5773  0.1345
  229MOL0     H30851   1.799   2.944  10.666 -0.6878 -0.2605 -1.1295
  229MOL0     H30852   1.527   2.925  10.800 -0.5557 -1.9222 -0.9580
  229MOL0     H30853   1.604   3.076  10.747  1.9924 -0.8952  3.1812
  229MOL0     H30854   1.497   2.843  10.579 -3.3983  0.7784  0.0914
  229MOL0     H30855   1.423   3.003  10.596  0.4556  1.9436  0.8922
  229MOL0     H30856   1.523   3.011  10.384 -0.3885  3.5066  1.1361
  229MOL0     H30857   1.635   3.092  10.475 -1.0018  1.4251 -1.7127
  229MOL0     H30858   1.787   2.869  10.459 -1.2313 -2.8754  0.8421
  229MOL0     H30859   1.650   2.769  10.439 -1.4145  0.0718  0.7511
  229MOL0     H30860   1.629   2.898  10.210  0.0862 -2.7870 -2.4747
  229MOL0     H30861   1.800   2.939  10.240 -0.9933  0.4782  0.7511
  229MOL0     H30862   1.732   2.661  10.278 -0.5535  0.9180  0.3306
  229MOL0     H30863   1.748   2.726  10.116  1.8868  2.5326 -0.9393
  229MOL0     H30864   1.959   2.626  10.219 -1.8903  0.0101  2.0076
  229MOL0     H30865   1.969   2.795  10.292  1.2111 -0.5932 -0.0312
  229MOL0     H30866   2.002   2.601   9.977  1.4068  0.0078 -5.5873
  229MOL0     H30867   2.219   2.799   9.762  0.2228 -1.7493 -2.7655
  229MOL0     H30868   2.141   2.646   9.771  2.1854 -0.3517 -0.9784
  229MOL0     H30869   1.949   2.738   9.628 -0.2619 -0.0380 -1.2569
  229MOL0     H30870   2.101   2.814   9.574  0.1449  2.0845 -0.2338
  229MOL0     H30871   1.884   2.957   9.748 -2.3484 -0.4038 -1.8221
  229MOL0     H30872   1.901   2.969   9.577 -1.0613 -3.7205  0.0075
  229MOL0     H30873   2.113   3.087   9.757 -2.5076 -1.0723  0.6999
  229MOL0     H30874   1.996   3.148   9.629 -0.8478  2.6050  3.3701
  229MOL0     H30875   2.375   2.990   9.452 -1.0537  0.6647 -1.6238
  229MOL0     H30876   2.661   3.080   9.455 -1.9666 -1.7014  1.1380
  229MOL0     H30877   2.580   3.056   9.318 -1.6634 -1.9660  2.6668
  229MOL0     H30878   2.646   3.220   9.331 -4.0470  2.1362  0.2714
  229MOL0     H30879   2.738   3.597   9.660 -1.8514  1.0390 -0.7537
  229MOL0     H30880   2.922   3.765   9.617  2.0920 -2.2544  2.0220
  229MOL0     H30881   2.926   3.909   9.263 -3.1908  0.3918  0.4746
  229MOL0     H30882   2.920   3.968   9.433  0.5700  0.7006 -0.5799
  229MOL0     H30883   3.033   4.120   9.286  1.4207  1.4789  3.9659
  229MOL0     H30884   3.148   4.059   9.404 -0.8560  0.0336  0.3714
  229MOL0     H30885   3.145   3.974   9.110 -0.8044  2.1711  0.6511
  229MOL0     H30886   3.262   3.929   9.238 -0.1313 -1.9111 -3.8183
  229MOL0     H30887   3.209   4.208   9.121  0.8029  2.4460  2.4087
  229MOL0     H30888   3.302   4.188   9.259 -2.1331  2.4553 -0.4271
  229MOL0     H30889   3.390   4.034   8.993  0.4809 -0.8995  1.1109
  229MOL0     H30890   3.446   4.022   9.164 -0.9303  0.3703  0.4822
  229MOL0     H30891   3.447   4.280   9.020 -0.3079  0.3097  1.4702
  229MOL0     H30892   3.521   4.215   9.169  0.5561  2.4034 -0.6828
  229MOL0     H30893   3.589   4.090   8.901 -1.2803 -0.6745  0.9579
  229MOL0     H30894   3.683   4.087   9.047  1.3452 -0.5460 -0.0611
  229MOL0     H30895   3.773   4.262   8.858 -1.5328 -0.8350 -1.0738
  229MOL0     H30896   3.749   4.323   9.023  0.9094  0.4474 -0.4905
  229MOL0     H30897   2.970   3.632   9.219  2.2907  1.0296  1.7210
  229MOL0     H30898   2.800   3.439   9.266 -1.9394  0.5519  0.6821
  229MOL0     H30899   2.305   3.465   9.563 -1.5530 -0.3272  0.3105
  229MOL0     H30900   2.130   3.302   9.620  0.3816  0.1932 -1.0786
  229MOL0     H30901   1.997   2.831  10.746  0.8593 -0.0560 -0.1292
  229MOL0     H30902   2.180   2.683  10.681 -0.0579  0.9345  0.8539
  229MOL0     H30903   2.414   2.394  10.622  2.0963 -0.8905  0.6068
  229MOL0     H30904   2.621   2.320  10.572  0.1226  1.8425 -0.7370
  229MOL0     H30905   2.872   2.331  10.308 -2.0469  1.2829 -0.2944
  229MOL0     H30906   2.781   2.383  10.445  0.5600  0.4480 -1.2285
  229MOL0     H30907   3.003   2.253  10.504 -0.3107  1.4049  0.6485
  229MOL0     H30908   2.920   2.117  10.430 -2.4732 -1.1057  1.2295
  229MOL0     H30909   2.743   2.126  10.625 -0.3872 -1.1725  0.0352
  229MOL0     H30910   2.819   2.271  10.681 -0.1884 -1.6778  2.2364
  229MOL0     H30911   3.025   2.139  10.713  0.1681  1.1014  0.9581
  229MOL0     H30912   2.942   1.997  10.641 -0.1854 -0.8229 -0.8400
  229MOL0     H30913   2.730   1.947  10.978  1.9528 -1.9865  1.0786
  229MOL0     H30914   2.498   2.249  10.163  0.1488 -0.1634 -1.1174
  229MOL0     H30915   2.296   2.352  10.199  0.7849  0.5021 -0.6406
  230MOL0     O30916   1.071   9.719   1.890 -0.0409  0.0942  0.0965
  230MOL0     C30917   1.027   9.790   1.809  0.4632 -1.0152 -0.2160
  230MOL0     O30918   1.050   9.928   1.792 -0.2731  0.2711 -0.2249
  230MOL0     C30919   1.135  10.008   1.864 -0.2711 -0.0064 -0.6035
  230MOL0     C30920   1.145  10.139   1.830  0.0956 -0.1422 -0.1667
  230MOL0     C30921   1.232  10.232   1.882 -0.5624  0.5348  0.4296
  230MOL0     C30922   1.316  10.201   1.986 -1.0641  0.1648  0.4047
  230MOL0     O30923   1.396  10.298   2.039  0.0401  0.2747  0.2945
  230MOL0     C30924   1.442  10.301   2.179 -0.2365  1.3440 -0.1224
  230MOL0     C30925   1.347  10.290   2.294  0.0991 -0.0528 -0.2517
  230MOL0     C30926   1.231  10.392   2.297 -0.8115 -0.4219 -0.4486
  230MOL0     C30927   1.109  10.369   2.384 -0.0609  0.0600 -0.5000
  230MOL0     C30928   1.159  10.368   2.523  0.3868  0.2282  0.4628
  230MOL0     C30929   1.040  10.385   2.624  0.2961 -0.1696 -0.0834
  230MOL0     C30930   1.091  10.428   2.770  0.6399  0.4463 -0.2441
  230MOL0     C30931   1.199  10.342   2.826 -0.1232 -0.4351 -0.2925
  230MOL0     N30932   1.271  10.436   2.919  0.0984  0.6403  0.2336
  230MOL0     C30933   1.405  10.443   2.937 -0.9021  0.5918  0.2820
  230MOL0     C30934   1.428  10.542   3.032 -0.2163 -0.3695  0.7954
  230MOL0     C30935   1.570  10.567   3.089 -0.1790 -0.4030 -0.3806
  230MOL0     C30936   1.620  10.718   3.103 -0.3957 -0.3303  0.9428
  230MOL0     C30937   1.587  10.792   2.968  0.1939 -0.0645 -0.3382
  230MOL0     C30938   1.656  10.936   2.979 -0.5295  1.4846  0.3751
  230MOL0     O30939   1.596  11.024   2.880  0.2603  0.0303  0.1984
  230MOL0     C30940   1.639  11.014   2.743  0.5706 -0.4783  0.3502
  230MOL0     C30941   1.763  10.978   2.696 -0.1202 -0.1557 -0.0278
  230MOL0     C30942   1.775  10.976   2.553  0.2588  0.5394 -0.4712
  230MOL0     C30943   1.917  10.953   2.495 -0.3199  0.0619  0.7961
  230MOL0     C30944   1.668  11.006   2.469 -0.0801 -0.6061  0.8940
  230MOL0     C30945   1.676  10.990   2.321  0.5154 -0.3071  0.1711
  230MOL0     O30946   1.721  10.872   2.275  0.5626  0.7522  0.2251
  230MOL0     C30947   1.685  10.825   2.145  0.2841 -0.7341 -0.3299
  230MOL0     C30948   1.779  10.757   2.060  0.6132  0.3497 -0.1214
  230MOL0     C30949   1.735  10.716   1.933  0.9566 -0.6297 -0.2356
  230MOL0     C30950   1.605  10.735   1.881  0.6594 -0.1281  0.6530
  230MOL0     O30951   1.567  10.698   1.749  0.2928  0.8560 -0.2275
  230MOL0     C30952   1.617  10.571   1.705 -0.5235  0.4048 -0.6700
  230MOL0     C30953   1.501  10.468   1.687 -0.6742  0.1465  0.7361
  230MOL0     C30954   1.426  10.493   1.559 -0.4762 -0.2988 -0.7898
  230MOL0     C30955   1.332  10.376   1.529  0.1236 -0.4974 -0.9858
  230MOL0     C30956   1.248  10.415   1.406 -0.1119  0.4471 -0.5916
  230MOL0     C30957   1.172  10.293   1.343 -1.0255 -0.4108 -0.1667
  230MOL0     C30958   1.256  10.173   1.286 -0.2790  0.7710  0.4774
  230MOL0     C30959   1.174  10.062   1.219  0.0469 -0.3068 -0.2286
  230MOL0    Cl30960   1.109   9.969   1.357 -0.0069 -0.0576 -0.7500
  230MOL0     C30961   1.513  10.804   1.962  0.2323 -0.0950  0.5534
  230MOL0     C30962   1.551  10.841   2.097 -0.5066 -0.3405  0.4189
  230MOL0     O30963   1.616  11.073   2.253  0.7193 -0.3180  0.1116
  230MOL0     C30964   1.542  11.021   2.524 -0.0199 -0.2502  0.4095
  230MOL0     C30965   1.530  11.023   2.657  0.0080 -0.3922 -0.0794
  230MOL0     N30966   1.304  10.605   3.058  0.4819  0.0660 -0.3430
  230MOL0     N30967   1.216  10.536   2.993 -0.9251  0.3855  0.5135
  230MOL0     C30968   1.309  10.068   2.030 -0.1796  1.0440  0.6160
  230MOL0     C30969   1.219   9.971   1.970 -0.1350  0.0123 -0.2032
  230MOL0     C30970   0.948   9.720   1.713  0.1511  0.7795 -0.7902
  230MOL0     C30971   0.896   9.589   1.733 -0.7751 -0.2459 -0.6670
  230MOL0     C30972   0.816   9.529   1.640 -0.3862  0.2784  0.0597
  230MOL0     C30973   0.774   9.604   1.529 -0.9788 -0.1348 -0.3101
  230MOL0     O30974   0.718   9.563   1.406 -0.5765 -0.2996  0.1848
  230MOL0     C30975   0.602   9.481   1.426 -0.3157  0.3021  0.4421
  230MOL0     C30976   0.481   9.555   1.386  0.8198  0.2853 -0.5443
  230MOL0     C30977   0.364   9.455   1.439 -0.6055  0.1227  0.3677
  230MOL0     C30978   0.221   9.501   1.464 -1.1340 -0.1311 -0.9529
  230MOL0     C30979   0.137   9.381   1.489  0.1402  0.0315  0.9582
  230MOL0     C30980   0.080   9.273   1.523 -0.1841  0.0993 -0.3113
  230MOL0     C30981   0.811   9.732   1.517 -0.0357 -0.5850  0.8002
  230MOL0     C30982   0.897   9.793   1.605 -0.6096 -1.0010  0.1744
  230MOL0     H30983   1.074  10.172   1.754 -1.7283 -0.7157  1.2178
  230MOL0     H30984   1.223  10.336   1.852 -0.8780  1.0911  2.2897
  230MOL0     H30985   1.522  10.229   2.199 -2.3222 -1.1488 -0.0715
  230MOL0     H30986   1.487  10.399   2.195  1.0620  0.6163  0.8393
  230MOL0     H30987   1.310  10.187   2.288  0.7250 -0.2427 -1.0056
  230MOL0     H30988   1.383  10.302   2.397 -2.9075  3.2650  0.6076
  230MOL0     H30989   1.278  10.488   2.316  1.9663 -1.3282 -2.1179
  230MOL0     H30990   1.201  10.394   2.191  0.8093 -2.4578 -1.0243
  230MOL0     H30991   1.030  10.445   2.375  1.7274  2.0568 -0.1819
  230MOL0     H30992   1.073  10.273   2.347  2.0199 -1.2789  0.7259
  230MOL0     H30993   1.202  10.268   2.533 -1.3008 -0.7404 -1.3227
  230MOL0     H30994   1.231  10.451   2.527 -0.9940  2.0646 -4.8336
  230MOL0     H30995   0.970  10.460   2.586  0.4512  1.0311  1.8560
  230MOL0     H30996   0.994  10.286   2.622  0.0156 -0.2184  3.1160
  230MOL0     H30997   1.128  10.531   2.759 -1.8291  1.2204 -2.1573
  230MOL0     H30998   1.012  10.427   2.845  1.1663  1.7047  0.3513
  230MOL0     H30999   1.267  10.314   2.745 -0.9616  0.5934 -1.4035
  230MOL0     H31000   1.151  10.258   2.877  0.3808 -0.0946  0.7602
  230MOL0     H31001   1.467  10.364   2.897 -1.6572 -0.8622  1.8935
  230MOL0     H31002   1.583  10.522   3.188  3.2600 -1.3786 -1.1385
  230MOL0     H31003   1.652  10.524   3.032  2.2212  2.3867  0.6678
  230MOL0     H31004   1.727  10.717   3.125 -0.3606  1.2214  0.9385
  230MOL0     H31005   1.563  10.765   3.184 -1.1881  1.7222 -0.7343
  230MOL0     H31006   1.478  10.806   2.964  0.4443  3.1464  0.9897
  230MOL0     H31007   1.628  10.738   2.882 -0.6976 -0.8804 -0.2833
  230MOL0     H31008   1.763  10.916   2.968 -1.1574 -2.2169 -0.1466
  230MOL0     H31009   1.632  10.989   3.071 -1.0997  1.4986  0.2172
  230MOL0     H31010   1.843  10.978   2.770 -0.5961  0.0216  0.4964
  230MOL0     H31011   1.922  10.965   2.386  1.2406  0.9444  0.9426
  230MOL0     H31012   1.989  11.028   2.529 -0.3831 -0.3876  1.9675
  230MOL0     H31013   1.948  10.854   2.529 -0.5728 -0.8290 -1.3992
  230MOL0     H31014   1.884  10.745   2.085  0.8620  2.1666 -0.1663
  230MOL0     H31015   1.796  10.662   1.861 -0.2059 -2.0497 -0.2088
  230MOL0     H31016   1.679  10.587   1.616  0.0746 -2.3458 -0.8356
  230MOL0     H31017   1.676  10.520   1.782  0.3042  2.9559  0.4907
  230MOL0     H31018   1.546  10.369   1.678  1.5421  1.1574 -0.1936
  230MOL0     H31019   1.432  10.461   1.772  0.4425  1.9154  1.8546
  230MOL0     H31020   1.496  10.511   1.477 -1.3955  3.9891 -0.8949
  230MOL0     H31021   1.374  10.589   1.570 -0.7093 -0.7053  2.9588
  230MOL0     H31022   1.393  10.288   1.508  1.5940  0.2319  0.0752
  230MOL0     H31023   1.271  10.359   1.618  0.0817  0.9714 -0.7095
  230MOL0     H31024   1.320  10.457   1.336  0.6226  0.7366  0.3179
  230MOL0     H31025   1.172  10.488   1.435  1.1214  0.0527  4.8205
  230MOL0     H31026   1.103  10.251   1.416 -0.4897 -5.8966 -2.3723
  230MOL0     H31027   1.109  10.335   1.264  0.7807  0.3620 -1.2781
  230MOL0     H31028   1.322  10.131   1.363  2.9898  3.5955 -0.5174
  230MOL0     H31029   1.332  10.209   1.216  0.3080 -0.3126  0.5197
  230MOL0     H31030   1.241   9.995   1.164 -0.6289  1.9997 -4.1574
  230MOL0     H31031   1.096  10.105   1.156 -1.6703 -0.6947  1.4948
  230MOL0     H31032   1.411  10.828   1.936 -0.0175 -0.8405  0.7926
  230MOL0     H31033   1.478  10.905   2.145  1.3796  0.1642  2.8365
  230MOL0     H31034   1.451  11.029   2.466  0.3178  2.2386  0.1418
  230MOL0     H31035   1.436  11.049   2.706  0.6387  0.2639  0.8202
  230MOL0     H31036   1.376  10.040   2.111  1.1415 -0.5704 -0.9549
  230MOL0     H31037   1.218   9.866   1.999 -1.2527 -0.5269 -2.0384
  230MOL0     H31038   0.922   9.531   1.822  0.0614  0.6281 -0.3299
  230MOL0     H31039   0.794   9.424   1.654  2.0333 -0.3727 -0.6265
  230MOL0     H31040   0.603   9.391   1.364  0.6022 -0.5324  1.6245
  230MOL0     H31041   0.593   9.446   1.529  2.9074 -0.0266  0.7035
  230MOL0     H31042   0.480   9.572   1.278 -0.9571  0.3748 -0.5454
  230MOL0     H31043   0.472   9.653   1.436 -0.6249  0.0659 -0.3156
  230MOL0     H31044   0.402   9.401   1.526  2.9744  1.0210 -0.4695
  230MOL0     H31045   0.364   9.392   1.350 -0.1318 -1.5285  1.4997
  230MOL0     H31046   0.173   9.558   1.383 -0.9660  1.6111  0.1051
  230MOL0     H31047   0.218   9.565   1.553 -0.9763  2.2657 -2.5619
  230MOL0     H31048   0.039   9.187   1.572 -0.3339 -0.0988 -0.7871
  230MOL0     H31049   0.764   9.798   1.445 -2.5596 -2.5010  0.5330
  230MOL0     H31050   0.926   9.898   1.600 -0.8531 -0.9097  0.6072
  231MOL0     O31051   8.232   5.631   5.644  0.1141  0.5108  0.5984
  231MOL0     C31052   8.132   5.698   5.659 -0.1048  0.2933  0.7393
  231MOL0     O31053   8.051   5.700   5.763 -0.2278  0.3597 -0.5604
  231MOL0     C31054   8.072   5.616   5.872 -0.3369 -0.6150  0.0419
  231MOL0     C31055   8.113   5.482   5.873  0.1296 -0.8219  0.2457
  231MOL0     C31056   8.133   5.413   5.989  1.3602 -0.0743 -0.1918
  231MOL0     C31057   8.124   5.477   6.115  0.1748  0.4027  0.2778
  231MOL0     O31058   8.152   5.414   6.239 -0.3368  0.1351  0.3787
  231MOL0     C31059   8.244   5.477   6.322 -0.2334 -0.9418 -0.5955
  231MOL0     C31060   8.394   5.457   6.278  0.3342  0.8553 -0.3289
  231MOL0     C31061   8.422   5.306   6.254  0.0968  0.4915  0.2748
  231MOL0     C31062   8.569   5.267   6.213  0.5751  0.4909 -0.1845
  231MOL0     C31063   8.580   5.236   6.065 -0.7802 -0.5383 -0.1083
  231MOL0     C31064   8.529   5.351   5.973 -1.0891 -0.0407 -0.8408
  231MOL0     C31065   8.521   5.299   5.818 -0.6960  0.1504 -0.1887
  231MOL0     C31066   8.507   5.416   5.724 -0.5310 -0.6021 -0.6186
  231MOL0     N31067   8.535   5.375   5.583  0.2422 -0.1754  0.0133
  231MOL0     C31068   8.449   5.346   5.481 -0.1463 -0.5728 -0.5967
  231MOL0     C31069   8.523   5.316   5.381  0.8317  0.5298  0.0019
  231MOL0     C31070   8.471   5.273   5.253 -0.5686  0.4126 -0.4816
  231MOL0     C31071   8.387   5.388   5.189 -0.8732 -1.1628 -0.1276
  231MOL0     C31072   8.300   5.330   5.079 -0.5155 -0.3278  0.5946
  231MOL0     C31073   8.221   5.429   4.995 -0.7008 -0.1364 -0.5517
  231MOL0     O31074   8.146   5.529   5.070 -0.6353  0.7712  0.4161
  231MOL0     C31075   8.078   5.607   4.992  0.9753 -0.1299 -0.3875
  231MOL0     C31076   8.054   5.596   4.857  0.3283 -0.4613  0.5310
  231MOL0     C31077   7.977   5.695   4.790 -0.2241  0.0483  0.4131
  231MOL0     C31078   7.974   5.681   4.642 -0.4833 -1.3510  0.3870
  231MOL0     C31079   7.895   5.778   4.858  1.0920  1.0253 -0.8287
  231MOL0     C31080   7.791   5.867   4.806 -0.3613 -0.9703  0.3295
  231MOL0     O31081   7.760   5.971   4.892 -0.2227  0.5227  0.7789
  231MOL0     C31082   7.657   6.055   4.845 -0.1240 -1.1861  0.7400
  231MOL0     C31083   7.684   6.184   4.801 -0.3614  0.2394  0.6586
  231MOL0     C31084   7.582   6.269   4.751 -0.6540  0.2514  0.2160
  231MOL0     C31085   7.455   6.221   4.749 -0.0778 -0.5639 -0.1151
  231MOL0     O31086   7.341   6.288   4.702 -0.0158  0.2589  0.1541
  231MOL0     C31087   7.358   6.425   4.652 -0.4485  0.6131  0.5959
  231MOL0     C31088   7.220   6.492   4.619  0.3879 -0.5858 -0.9392
  231MOL0     C31089   7.143   6.403   4.523  0.2220 -0.2037  0.9752
  231MOL0     C31090   7.009   6.461   4.461 -0.4757 -1.1599 -0.2312
  231MOL0     C31091   6.912   6.350   4.424  0.0041  0.3854  0.2429
  231MOL0     C31092   6.826   6.386   4.307  0.8326  0.2201  0.2861
  231MOL0     C31093   6.739   6.512   4.327  0.1089  0.1170  0.1948
  231MOL0     C31094   6.612   6.490   4.408  0.6271  0.2546  0.7746
  231MOL0    Cl31095   6.657   6.465   4.585 -0.7174 -0.6407  0.2963
  231MOL0     C31096   7.424   6.095   4.798 -0.5422 -0.1916 -0.5603
  231MOL0     C31097   7.521   6.020   4.852 -1.0716  0.8777  0.0366
  231MOL0     O31098   7.739   5.856   4.696 -0.1130  0.1224  0.5204
  231MOL0     C31099   7.901   5.772   4.998  0.1293  0.2931 -0.3484
  231MOL0     C31100   7.990   5.682   5.061 -0.2018  0.0159  0.3225
  231MOL0     N31101   8.660   5.313   5.417  0.1162 -0.3636 -0.6372
  231MOL0     N31102   8.665   5.353   5.537  1.0300  0.0649 -0.6029
  231MOL0     C31103   8.074   5.608   6.112 -1.1202 -0.4750 -0.7021
  231MOL0     C31104   8.043   5.676   5.995 -0.1452  0.5582  0.6683
  231MOL0     C31105   8.106   5.791   5.542 -0.7935 -0.6749  0.0479
  231MOL0     C31106   8.020   5.899   5.549  1.3023 -0.3602  0.0450
  231MOL0     C31107   7.991   5.967   5.430 -0.8050 -0.9549  0.5577
  231MOL0     C31108   8.064   5.959   5.309 -0.0340  0.7256  0.2534
  231MOL0     O31109   8.029   6.018   5.190 -0.4659 -0.5895 -0.6238
  231MOL0     C31110   7.950   6.138   5.187  0.5984 -0.0239  0.3099
  231MOL0     C31111   8.025   6.251   5.253 -0.2950 -0.4627 -0.2961
  231MOL0     C31112   7.976   6.394   5.201 -0.0547  0.1012 -0.3652
  231MOL0     C31113   7.839   6.434   5.272  0.0945  0.6777  0.7730
  231MOL0     C31114   7.792   6.567   5.216 -0.4119  0.1861 -0.4512
  231MOL0     C31115   7.749   6.665   5.159 -0.3475 -0.0701 -1.3899
  231MOL0     C31116   8.166   5.861   5.313 -0.4041 -0.2362 -0.3018
  231MOL0     C31117   8.185   5.786   5.418  0.3625 -0.1742 -1.4550
  231MOL0     H31118   8.128   5.430   5.779  0.9622 -2.6627  1.3364
  231MOL0     H31119   8.157   5.308   5.984  1.1483 -0.1268 -0.1022
  231MOL0     H31120   8.210   5.581   6.326 -3.5132 -1.8952 -0.5075
  231MOL0     H31121   8.230   5.447   6.426 -4.2237 -2.4957 -1.3776
  231MOL0     H31122   8.416   5.506   6.182 -0.2021 -1.7586 -1.9047
  231MOL0     H31123   8.456   5.494   6.360 -0.1387 -0.4102  0.6383
  231MOL0     H31124   8.399   5.250   6.346  0.1829  1.0604  0.6490
  231MOL0     H31125   8.355   5.279   6.172  0.5459  0.6968 -0.1649
  231MOL0     H31126   8.641   5.347   6.234 -0.0658  1.1348 -0.4156
  231MOL0     H31127   8.598   5.188   6.283 -0.4241  1.8179  1.7881
  231MOL0     H31128   8.684   5.212   6.043 -0.7563  1.3851 -2.6294
  231MOL0     H31129   8.516   5.149   6.046 -0.7809 -1.2071  2.6335
  231MOL0     H31130   8.431   5.386   6.008 -0.2948 -0.1891  1.7275
  231MOL0     H31131   8.598   5.434   5.988  1.1092 -2.2629  2.7672
  231MOL0     H31132   8.618   5.264   5.781 -1.2120  0.2351 -1.6809
  231MOL0     H31133   8.442   5.224   5.813  0.7438 -1.5631  1.2647
  231MOL0     H31134   8.564   5.498   5.767 -4.2711  0.1972  3.5286
  231MOL0     H31135   8.405   5.455   5.726  0.5801  2.6026 -0.4491
  231MOL0     H31136   8.342   5.364   5.469 -0.9828 -4.5478 -0.3694
  231MOL0     H31137   8.542   5.220   5.189 -2.1421 -0.3672 -1.6627
  231MOL0     H31138   8.396   5.197   5.280 -2.6549  2.2877 -0.6801
  231MOL0     H31139   8.455   5.464   5.149 -1.1391  0.8883  2.9488
  231MOL0     H31140   8.324   5.441   5.261 -2.4114 -2.0909 -0.7467
  231MOL0     H31141   8.235   5.252   5.119  1.1031 -2.7148 -1.1941
  231MOL0     H31142   8.363   5.277   5.007 -0.1688  1.4761 -0.5022
  231MOL0     H31143   8.145   5.364   4.951 -1.7135  0.7032 -0.0866
  231MOL0     H31144   8.290   5.475   4.923  0.1440  3.3634  2.1958
  231MOL0     H31145   8.105   5.526   4.792  0.7574  0.2622  0.0799
  231MOL0     H31146   7.894   5.615   4.610  0.5325 -2.4778  0.0993
  231MOL0     H31147   7.960   5.783   4.604  1.7549  0.5002  3.9412
  231MOL0     H31148   8.068   5.648   4.597 -0.9703  0.0304 -1.8089
  231MOL0     H31149   7.785   6.221   4.789 -0.1776 -0.9398 -2.8945
  231MOL0     H31150   7.604   6.366   4.707  1.4831  0.3877  1.4571
  231MOL0     H31151   7.423   6.488   4.713 -0.4201  0.8836  0.2927
  231MOL0     H31152   7.409   6.422   4.555 -1.5725  2.3056 -0.1023
  231MOL0     H31153   7.168   6.507   4.715 -3.0846  0.0044 -2.7544
  231MOL0     H31154   7.230   6.590   4.571 -0.5550 -1.4832 -3.0922
  231MOL0     H31155   7.110   6.307   4.565  0.8867 -1.0126 -0.2694
  231MOL0     H31156   7.210   6.371   4.442  0.3108  1.7130  0.2575
  231MOL0     H31157   6.955   6.519   4.536  0.2184  0.7627 -1.1595
  231MOL0     H31158   7.019   6.546   4.394 -2.8007  1.2560  2.2355
  231MOL0     H31159   6.852   6.327   4.512  0.9379 -2.4456  0.2557
  231MOL0     H31160   6.962   6.253   4.410 -1.0909 -1.3643  5.9512
  231MOL0     H31161   6.890   6.400   4.219  1.1108  1.6385  0.6890
  231MOL0     H31162   6.745   6.312   4.308  2.3767 -1.5479  0.3067
  231MOL0     H31163   6.713   6.543   4.225 -1.3012 -3.3133 -0.6485
  231MOL0     H31164   6.792   6.596   4.374 -4.3899  2.7613  1.1499
  231MOL0     H31165   6.561   6.402   4.369  0.5206 -0.5178  2.5564
  231MOL0     H31166   6.552   6.581   4.408  1.8511  1.2171  4.3459
  231MOL0     H31167   7.326   6.051   4.812 -0.5476  0.7258  4.4281
  231MOL0     H31168   7.498   5.922   4.892  1.2974 -0.5090 -1.7355
  231MOL0     H31169   7.836   5.817   5.072  1.7505 -1.5877  2.4248
  231MOL0     H31170   8.007   5.690   5.168  3.0691  1.8220 -0.1902
  231MOL0     H31171   8.059   5.651   6.211  4.9654  2.1365 -0.4032
  231MOL0     H31172   8.013   5.780   5.996  4.5898  2.2520 -1.6462
  231MOL0     H31173   7.959   5.914   5.637 -0.0601  3.0676 -1.3144
  231MOL0     H31174   7.910   6.039   5.443 -1.7555 -1.6256 -1.3834
  231MOL0     H31175   7.927   6.174   5.086 -2.8313  1.2833  1.3886
  231MOL0     H31176   7.856   6.119   5.240 -0.4885 -2.5129 -2.2542
  231MOL0     H31177   8.131   6.236   5.230 -0.1456 -0.3761  0.3157
  231MOL0     H31178   8.023   6.240   5.362  1.3561 -2.1236 -0.3846
  231MOL0     H31179   7.961   6.389   5.093  0.1329 -0.6301 -0.3671
  231MOL0     H31180   8.055   6.464   5.228 -0.8990 -0.1282  3.1636
  231MOL0     H31181   7.846   6.444   5.381 -0.1893 -2.4525  1.1517
  231MOL0     H31182   7.764   6.357   5.252 -0.1754  0.9335  0.7968
  231MOL0     H31183   7.706   6.755   5.121  1.6358  0.7901 -1.6904
  231MOL0     H31184   8.223   5.851   5.221  0.2923 -6.3679  0.3257
  231MOL0     H31185   8.264   5.712   5.413  3.1262  2.5926 -1.0632
  232MOL0     O31186   8.395   5.973   9.047  0.7438  0.1934 -0.3594
  232MOL0     C31187   8.391   5.852   9.031 -0.7115  0.0763 -0.3735
  232MOL0     O31188   8.369   5.763   9.135 -0.0365  0.3480  0.7196
  232MOL0     C31189   8.347   5.805   9.255  0.0794 -0.7084 -0.5695
  232MOL0     C31190   8.452   5.806   9.351  0.4035 -0.4169 -0.3652
  232MOL0     C31191   8.423   5.839   9.485  0.1911 -1.3773 -0.3794
  232MOL0     C31192   8.289   5.866   9.521  0.9700 -0.3168 -0.2312
  232MOL0     O31193   8.244   5.893   9.648 -0.6102  0.0976 -0.0194
  232MOL0     C31194   8.330   5.981   9.722  0.4343  0.2380  0.6606
  232MOL0     C31195   8.248   5.993   9.852  0.0858  0.5845  0.2824
  232MOL0     C31196   8.317   6.052   9.979  1.0579 -0.2902  0.8022
  232MOL0     C31197   8.407   5.952  10.048  0.4839 -0.2390 -0.5840
  232MOL0     C31198   8.431   5.993  10.196 -0.4795 -0.1713 -0.0046
  232MOL0     C31199   8.528   5.902  10.273 -0.1236  0.2999 -0.3612
  232MOL0     C31200   8.550   5.943  10.414 -0.4935 -0.5022  0.5068
  232MOL0     C31201   8.438   5.920  10.510  0.4636 -0.6806  0.2313
  232MOL0     N31202   8.414   5.775  10.521 -0.1486  0.4064 -0.4637
  232MOL0     C31203   8.508   5.682  10.554 -0.2792  0.3704  0.5346
  232MOL0     C31204   8.459   5.569  10.505  0.2708  0.9208  1.1268
  232MOL0     C31205   8.525   5.426  10.488 -0.3344  0.1890 -0.1024
  232MOL0     C31206   8.487   5.355  10.364  0.7323 -0.3359  0.7989
  232MOL0     C31207   8.564   5.221  10.343  0.1595  0.1958  0.6170
  232MOL0     C31208   8.516   5.130  10.223 -0.1269 -0.7019  0.2741
  232MOL0     O31209   8.574   5.174  10.091 -0.1793  0.2176 -0.0761
  232MOL0     C31210   8.524   5.113   9.977 -0.2265 -0.6716 -0.3687
  232MOL0     C31211   8.607   5.119   9.866 -0.7693  0.1045 -0.3349
  232MOL0     C31212   8.563   5.059   9.743 -0.0806  0.3304  0.3103
  232MOL0     C31213   8.650   5.078   9.612  0.3147  0.1225  0.4240
  232MOL0     C31214   8.439   4.990   9.730  0.2536  0.2957 -0.6366
  232MOL0     C31215   8.383   4.926   9.609  0.5860 -0.5453  0.7216
  232MOL0     O31216   8.243   4.937   9.591 -0.6101  0.4764 -0.2050
  232MOL0     C31217   8.186   4.884   9.477 -0.2619 -0.6770 -0.1499
  232MOL0     C31218   8.236   4.841   9.347 -0.2166  0.9816  0.6048
  232MOL0     C31219   8.153   4.773   9.253 -1.1452 -0.1033  0.2447
  232MOL0     C31220   8.025   4.742   9.269  0.1631 -0.2148  0.9044
  232MOL0     O31221   7.939   4.692   9.171 -0.2883 -0.1330 -0.3354
  232MOL0     C31222   7.993   4.614   9.068  0.7893  0.3845 -0.4307
  232MOL0     C31223   7.884   4.528   9.012 -0.4794  0.0218  0.9381
  232MOL0     C31224   7.957   4.433   8.902 -0.6503  0.8138 -0.8171
  232MOL0     C31225   7.853   4.353   8.822 -0.6018  0.1760  0.7041
  232MOL0     C31226   7.923   4.264   8.723  0.5362 -0.5978  0.1430
  232MOL0     C31227   8.011   4.151   8.770 -0.5873 -0.5665  0.4776
  232MOL0     C31228   8.162   4.199   8.765  0.6498 -0.3125  0.0292
  232MOL0     C31229   8.254   4.103   8.838  0.5586 -0.7961 -0.3380
  232MOL0    Cl31230   8.419   4.165   8.827 -0.2476  0.4369 -0.0448
  232MOL0     C31231   7.971   4.797   9.386 -0.4837 -0.3635 -1.0292
  232MOL0     C31232   8.045   4.864   9.488 -0.5570 -0.3409  0.9607
  232MOL0     O31233   8.459   4.882   9.520  0.4455 -0.5129 -0.1969
  232MOL0     C31234   8.358   4.993   9.842  0.6695  0.3748  0.8814
  232MOL0     C31235   8.394   5.060   9.957 -0.5918  0.0314 -0.7087
  232MOL0     N31236   8.342   5.593  10.449  0.0047  0.1110  0.8519
  232MOL0     N31237   8.305   5.713  10.466 -0.6011 -0.8241 -0.4748
  232MOL0     C31238   8.191   5.845   9.424 -0.1649 -0.4839 -0.7184
  232MOL0     C31239   8.210   5.809   9.298 -0.0103  0.9182 -0.7019
  232MOL0     C31240   8.426   5.785   8.903  0.5672 -0.6891 -0.8530
  232MOL0     C31241   8.456   5.863   8.791 -0.5596 -0.3077  0.0771
  232MOL0     C31242   8.481   5.800   8.669 -0.0150  0.1275 -0.3458
  232MOL0     C31243   8.492   5.658   8.657 -0.4762  0.1285  0.0948
  232MOL0     O31244   8.529   5.613   8.536 -0.3782  0.1540 -0.6801
  232MOL0     C31245   8.524   5.482   8.502 -0.6645 -0.0338 -0.0169
  232MOL0     C31246   8.633   5.394   8.569 -0.5033  0.5248 -0.7196
  232MOL0     C31247   8.626   5.249   8.521 -0.4565 -1.0832 -0.4049
  232MOL0     C31248   8.733   5.171   8.602 -0.2094  0.3944  0.4490
  232MOL0     C31249   8.764   5.049   8.519 -0.6417 -0.5118 -0.2252
  232MOL0     C31250   8.809   4.961   8.451  0.6373  1.0017 -0.3146
  232MOL0     C31251   8.463   5.585   8.769  1.0359  0.3126  1.3263
  232MOL0     C31252   8.425   5.647   8.889 -0.3623  0.3388  0.5872
  232MOL0     H31253   8.552   5.773   9.326  0.5081  1.6962 -3.1681
  232MOL0     H31254   8.500   5.846   9.561 -0.1948  2.3157 -0.1868
  232MOL0     H31255   8.434   5.948   9.734  1.4802  2.8263 -0.4573
  232MOL0     H31256   8.336   6.083   9.684  1.0537  0.7071  1.9551
  232MOL0     H31257   8.169   6.067   9.833 -1.1919 -1.2428 -2.0626
  232MOL0     H31258   8.188   5.903   9.867 -1.4062  1.4787 -0.0335
  232MOL0     H31259   8.381   6.135   9.946 -1.4580  1.0492 -1.1130
  232MOL0     H31260   8.247   6.085  10.057  0.1871  2.0862 -0.8589
  232MOL0     H31261   8.355   5.857  10.051  1.9250 -1.0530 -0.5252
  232MOL0     H31262   8.499   5.940   9.989 -0.5572  1.2513 -2.6602
  232MOL0     H31263   8.463   6.097  10.199 -1.8267  0.2797  3.7659
  232MOL0     H31264   8.343   5.991  10.262 -0.7526  1.7186 -0.2501
  232MOL0     H31265   8.481   5.803  10.274 -0.4760  0.4743  0.6817
  232MOL0     H31266   8.623   5.907  10.218 -0.1409  0.2913 -0.3918
  232MOL0     H31267   8.628   5.873  10.446  0.4305  0.2751 -0.0025
  232MOL0     H31268   8.594   6.043  10.425 -1.2370 -0.1382  0.2167
  232MOL0     H31269   8.346   5.971  10.481 -0.7881 -2.0039  1.6962
  232MOL0     H31270   8.455   5.962  10.609 -3.0249  0.2219  0.5907
  232MOL0     H31271   8.611   5.692  10.588 -0.8935 -0.0263  2.6955
  232MOL0     H31272   8.633   5.442  10.482  0.5552 -4.5496 -0.6395
  232MOL0     H31273   8.514   5.371  10.582 -1.8616  1.5916  0.5903
  232MOL0     H31274   8.497   5.423  10.280  1.0184 -3.3359 -1.7782
  232MOL0     H31275   8.382   5.326  10.373  0.7782 -0.6100  0.4602
  232MOL0     H31276   8.554   5.161  10.435  0.5757 -0.8341  0.0104
  232MOL0     H31277   8.671   5.230  10.328  0.4742 -3.3814 -0.2519
  232MOL0     H31278   8.407   5.137  10.217 -0.1298 -1.9013 -2.7692
  232MOL0     H31279   8.538   5.026  10.247 -1.0560 -0.7980  0.7751
  232MOL0     H31280   8.704   5.166   9.882 -0.3727 -0.3377 -1.3627
  232MOL0     H31281   8.697   5.175   9.625 -0.0662  0.2243  1.0654
  232MOL0     H31282   8.715   4.992   9.591 -1.9020 -1.6282  0.2303
  232MOL0     H31283   8.596   5.087   9.517 -0.3531 -2.2265  0.5081
  232MOL0     H31284   8.339   4.851   9.313 -0.0925 -2.1323 -0.2009
  232MOL0     H31285   8.213   4.752   9.165  1.1168  1.0257  1.4299
  232MOL0     H31286   8.023   4.675   8.982 -2.0424  4.6761  1.2757
  232MOL0     H31287   8.080   4.556   9.100  1.4689  1.2926 -0.5862
  232MOL0     H31288   7.824   4.470   9.082 -3.2803 -0.9122 -1.9538
  232MOL0     H31289   7.810   4.587   8.958  1.1299  1.9003  0.6618
  232MOL0     H31290   8.020   4.361   8.954 -0.5262  3.4384  3.0440
  232MOL0     H31291   8.025   4.492   8.840 -0.0649  0.0542 -0.9053
  232MOL0     H31292   7.795   4.285   8.885 -0.0407 -0.8711  0.1202
  232MOL0     H31293   7.791   4.426   8.769 -0.9412 -1.0237 -0.5983
  232MOL0     H31294   7.971   4.323   8.644  0.3306 -2.1551 -1.1971
  232MOL0     H31295   7.843   4.210   8.673  0.1355  0.5627 -0.5034
  232MOL0     H31296   7.984   4.125   8.873  0.9452 -2.3091  0.4887
  232MOL0     H31297   7.999   4.061   8.709  0.9227 -0.6181  0.2156
  232MOL0     H31298   8.180   4.298   8.807  1.2947 -0.6529  0.5740
  232MOL0     H31299   8.191   4.219   8.661 -2.9891  0.7053 -0.9435
  232MOL0     H31300   8.251   4.001   8.799  1.5666 -1.1032  0.3362
  232MOL0     H31301   8.210   4.111   8.938 -0.1722  1.5530 -0.7801
  232MOL0     H31302   7.863   4.785   9.391 -0.6950  1.7170  1.0413
  232MOL0     H31303   8.012   4.896   9.586  0.3316  2.4964  0.4389
  232MOL0     H31304   8.252   4.970   9.837  0.4762  1.4592 -0.9569
  232MOL0     H31305   8.317   5.077  10.032 -0.7696  1.7095 -1.2286
  232MOL0     H31306   8.088   5.875   9.434 -0.4993 -1.1126 -2.0283
  232MOL0     H31307   8.127   5.786   9.232 -0.4428  2.1420 -0.5973
  232MOL0     H31308   8.466   5.971   8.798  0.6200 -0.2066 -2.3047
  232MOL0     H31309   8.487   5.867   8.583  1.1135  1.1337  0.4921
  232MOL0     H31310   8.424   5.448   8.531  0.0670 -1.6727  0.6936
  232MOL0     H31311   8.537   5.472   8.394  2.4377 -3.2364  0.4788
  232MOL0     H31312   8.646   5.403   8.677 -0.3114 -1.9848 -0.4692
  232MOL0     H31313   8.730   5.435   8.538 -1.2108  1.3966 -1.9100
  232MOL0     H31314   8.640   5.250   8.413 -4.1432  0.5020 -1.0358
  232MOL0     H31315   8.521   5.220   8.532 -0.8687  0.1751 -0.8066
  232MOL0     H31316   8.696   5.141   8.700 -0.8640 -1.2644 -0.2740
  232MOL0     H31317   8.822   5.233   8.610 -0.5661  0.8831  0.7016
  232MOL0     H31318   8.841   4.891   8.377 -0.5125 -0.2167  0.2952
  232MOL0     H31319   8.463   5.477   8.780 -0.1954  0.0107 -1.0444
  232MOL0     H31320   8.413   5.581   8.974 -0.6581 -0.5291 -0.0977
  233MOL0     O31321  10.375   6.097   9.806  0.3076 -0.0852 -0.5826
  233MOL0     C31322  10.377   6.188   9.725  0.6954 -0.0893  0.5190
  233MOL0     O31323  10.498   6.233   9.662 -0.0275  0.1790 -1.9009
  233MOL0     C31324  10.607   6.147   9.661  0.4926  0.6200  0.6339
  233MOL0     C31325  10.678   6.144   9.540 -1.0417 -0.0638 -0.1941
  233MOL0     C31326  10.794   6.062   9.520 -0.6317 -0.5539  0.4581
  233MOL0     C31327  10.832   5.967   9.615  1.3509 -0.4182  0.0849
  233MOL0     O31328  10.940   5.878   9.579 -0.0764  0.4802 -0.2719
  233MOL0     C31329  10.959   5.762   9.665 -0.4235 -0.2216 -0.9514
  233MOL0     C31330  11.105   5.748   9.691  0.6926  0.0487  0.8521
  233MOL0     C31331  11.194   5.687   9.581 -0.1375  0.2203 -0.2319
  233MOL0     C31332  11.335   5.740   9.605 -0.0277 -0.0896  0.5845
  233MOL0     C31333  11.439   5.679   9.507 -0.5488 -0.3395  1.2985
  233MOL0     C31334  11.562   5.607   9.574  0.1568  0.3299 -0.0959
  233MOL0     C31335  11.592   5.469   9.488  0.1146 -0.4768 -0.3449
  233MOL0     C31336  11.687   5.470   9.384 -0.2997  0.1740  0.1326
  233MOL0     N31337  11.637   5.557   9.273  0.8959  0.4970 -0.6560
  233MOL0     C31338  11.509   5.554   9.217  0.6601 -0.0985 -0.6850
  233MOL0     C31339  11.512   5.682   9.164  1.0093 -0.2846  0.6256
  233MOL0     C31340  11.382   5.745   9.105  0.2618  1.0719  0.0631
  233MOL0     C31341  11.305   5.820   9.218 -0.6580 -0.2807  0.4054
  233MOL0     C31342  11.221   5.924   9.149 -0.3590  0.2501  0.2627
  233MOL0     C31343  11.092   5.927   9.228  0.3901 -0.2175 -0.0286
  233MOL0     O31344  11.011   5.801   9.239  0.4379  0.2274  0.6778
  233MOL0     C31345  10.897   5.806   9.159 -0.0311 -0.1354  1.2221
  233MOL0     C31346  10.791   5.708   9.182  0.2588 -0.6264  0.7342
  233MOL0     C31347  10.669   5.712   9.110 -0.6358  0.9049  1.1454
  233MOL0     C31348  10.570   5.606   9.159 -0.0491  0.8793 -0.1982
  233MOL0     C31349  10.638   5.811   9.021 -1.0786 -0.2280 -0.3028
  233MOL0     C31350  10.503   5.827   8.961  0.5678  0.3956  0.0409
  233MOL0     O31351  10.395   5.767   9.014  0.0634 -0.0190  0.6286
  233MOL0     C31352  10.267   5.780   8.950  0.7381 -0.2720 -0.4365
  233MOL0     C31353  10.239   5.797   8.810 -0.2150  0.4617 -0.0592
  233MOL0     C31354  10.099   5.791   8.770  0.0311  0.6303  0.3379
  233MOL0     C31355   9.998   5.772   8.857 -0.4578  0.1417 -0.9109
  233MOL0     O31356   9.869   5.784   8.822  0.2329  0.2508 -0.8093
  233MOL0     C31357   9.801   5.687   8.741  0.4947  0.3239 -0.6613
  233MOL0     C31358   9.685   5.757   8.666  0.5591 -0.7598  0.2986
  233MOL0     C31359   9.731   5.814   8.532 -0.3662 -0.3047  0.0226
  233MOL0     C31360   9.632   5.817   8.417  0.1009 -1.0221  0.9152
  233MOL0     C31361   9.578   5.679   8.367  0.7133 -0.2218  0.4837
  233MOL0     C31362   9.566   5.677   8.215 -0.6415  0.1309 -0.5454
  233MOL0     C31363   9.510   5.540   8.161 -0.1974 -0.6371 -0.7846
  233MOL0     C31364   9.529   5.543   8.010 -0.6258 -0.3242 -0.3907
  233MOL0    Cl31365   9.669   5.438   7.964 -0.0757 -0.1682  0.0143
  233MOL0     C31366  10.030   5.771   8.991 -0.6256  0.3046  0.1231
  233MOL0     C31367  10.161   5.766   9.040 -1.0089  0.0203 -0.5916
  233MOL0     O31368  10.497   5.912   8.876 -0.9921  0.0651  0.2326
  233MOL0     C31369  10.753   5.881   8.983 -0.3640 -0.4255  0.1786
  233MOL0     C31370  10.870   5.890   9.053  1.0410 -0.5390  0.6206
  233MOL0     N31371  11.628   5.761   9.180  0.0271  0.1393  0.4323
  233MOL0     N31372  11.688   5.682   9.262 -0.3400  0.1821  0.8800
  233MOL0     C31373  10.756   5.971   9.731 -0.2573 -0.3829 -0.4165
  233MOL0     C31374  10.646   6.050   9.753 -0.0685 -0.0920 -0.0117
  233MOL0     C31375  10.249   6.256   9.680  0.1887  0.5585 -0.0203
  233MOL0     C31376  10.235   6.301   9.549  0.4673  0.2784  0.1341
  233MOL0     C31377  10.127   6.380   9.509 -0.6290  0.1096  0.2335
  233MOL0     C31378  10.013   6.402   9.595  0.0365  0.4213  0.8083
  233MOL0     O31379   9.917   6.488   9.553  0.5124  0.5585  0.0746
  233MOL0     C31380   9.780   6.428   9.550 -0.1148 -1.2076 -0.1440
  233MOL0     C31381   9.667   6.539   9.575 -0.2717  0.2433 -0.1795
  233MOL0     C31382   9.532   6.500   9.510 -1.3647  0.9929 -0.0857
  233MOL0     C31383   9.420   6.613   9.520 -0.2327 -0.3200 -0.8510
  233MOL0     C31384   9.359   6.605   9.653  0.7309  0.4274 -0.6896
  233MOL0     C31385   9.311   6.610   9.764 -0.2295 -0.4487  0.8351
  233MOL0     C31386  10.026   6.350   9.724 -0.4677  0.4310  0.2426
  233MOL0     C31387  10.139   6.273   9.766 -0.2494  0.2462  0.5040
  233MOL0     H31388  10.645   6.203   9.455 -1.4145  0.4682  0.3215
  233MOL0     H31389  10.851   6.066   9.428 -0.2207 -0.3561  0.7214
  233MOL0     H31390  10.916   5.770   9.765 -0.2932 -0.9309 -0.8387
  233MOL0     H31391  10.920   5.667   9.627  0.3125 -0.1430 -1.9596
  233MOL0     H31392  11.132   5.848   9.725 -1.3649  0.7555  0.5625
  233MOL0     H31393  11.123   5.676   9.771 -0.6999 -0.8340  0.4033
  233MOL0     H31394  11.203   5.578   9.583 -0.2385 -0.0076 -4.3028
  233MOL0     H31395  11.162   5.720   9.482  2.4772 -1.2908 -1.7051
  233MOL0     H31396  11.334   5.850   9.597 -2.5258 -0.0870  0.2062
  233MOL0     H31397  11.377   5.715   9.703 -0.7010 -0.4980  0.7738
  233MOL0     H31398  11.383   5.606   9.447 -2.0636 -1.6028  4.0282
  233MOL0     H31399  11.475   5.760   9.444 -2.2522 -0.2085  0.4456
  233MOL0     H31400  11.655   5.662   9.588  0.3083 -0.5363  3.2030
  233MOL0     H31401  11.526   5.580   9.674 -0.5512  1.4513 -0.0328
  233MOL0     H31402  11.635   5.406   9.567  1.1301  1.6676  0.8947
  233MOL0     H31403  11.498   5.417   9.470  0.4462 -1.7765  1.3533
  233MOL0     H31404  11.708   5.366   9.359  2.2672  1.1060 -2.0273
  233MOL0     H31405  11.782   5.519   9.410 -0.3013  0.0157  0.4363
  233MOL0     H31406  11.414   5.501   9.219 -1.2206  2.9150  2.6953
  233MOL0     H31407  11.405   5.808   9.019  0.4412  1.1602  0.1753
  233MOL0     H31408  11.310   5.668   9.075  1.2392 -2.2498  4.9532
  233MOL0     H31409  11.374   5.874   9.284 -1.0395 -0.4602  0.9537
  233MOL0     H31410  11.244   5.747   9.272 -0.0945 -1.1105 -0.0577
  233MOL0     H31411  11.196   5.884   9.051  1.3215 -4.6535  1.5695
  233MOL0     H31412  11.267   6.023   9.139  0.4279 -0.3067 -2.5487
  233MOL0     H31413  11.038   6.017   9.199 -1.4577 -0.8138  1.3202
  233MOL0     H31414  11.112   5.940   9.335  1.4502 -1.3971 -0.0527
  233MOL0     H31415  10.800   5.648   9.271 -1.3558  1.2306  2.2439
  233MOL0     H31416  10.490   5.660   9.210 -0.5525  0.9769 -1.0600
  233MOL0     H31417  10.527   5.561   9.069 -0.1227 -1.6388  1.0196
  233MOL0     H31418  10.621   5.528   9.216 -1.8038 -1.6979 -1.9651
  233MOL0     H31419  10.321   5.808   8.739 -0.4952  0.5233 -0.3739
  233MOL0     H31420  10.082   5.805   8.664  2.0669 -0.1971 -0.1243
  233MOL0     H31421   9.864   5.621   8.681 -2.1268  0.5127 -3.9268
  233MOL0     H31422   9.745   5.624   8.811  1.0737 -1.2258 -1.5252
  233MOL0     H31423   9.601   5.689   8.648 -1.5937  1.2990  1.8625
  233MOL0     H31424   9.639   5.836   8.726  0.7841 -0.5563  0.2038
  233MOL0     H31425   9.819   5.758   8.500  2.6522  4.0271 -0.1737
  233MOL0     H31426   9.770   5.916   8.538 -0.1589 -0.4334  4.6983
  233MOL0     H31427   9.554   5.894   8.428 -0.6736 -1.9040  1.7517
  233MOL0     H31428   9.689   5.848   8.329 -2.3979 -2.4159 -1.3429
  233MOL0     H31429   9.476   5.673   8.407 -0.3406  3.8351 -1.0786
  233MOL0     H31430   9.630   5.588   8.396  0.9545 -0.5404 -0.8429
  233MOL0     H31431   9.500   5.755   8.177 -0.1809  0.2791 -1.0505
  233MOL0     H31432   9.666   5.696   8.175  0.6166 -2.4427  1.0674
  233MOL0     H31433   9.401   5.536   8.170 -0.1882  0.3513 -0.0922
  233MOL0     H31434   9.562   5.453   8.203  2.0116 -0.6620 -3.2637
  233MOL0     H31435   9.544   5.645   7.976  0.0875  0.3104  1.6865
  233MOL0     H31436   9.439   5.502   7.962  0.1473 -0.7610 -1.5102
  233MOL0     H31437   9.950   5.751   9.062  2.2032 -4.0328  2.5495
  233MOL0     H31438  10.167   5.758   9.148  2.4261 -0.4452 -0.7255
  233MOL0     H31439  10.733   5.946   8.898 -1.2910  0.9811  1.4127
  233MOL0     H31440  10.939   5.958   9.005 -1.3489 -0.3854 -3.0251
  233MOL0     H31441  10.774   5.912   9.821  0.4277  2.0490  1.1340
  233MOL0     H31442  10.600   6.043   9.851 -0.6408 -0.4318 -0.3038
  233MOL0     H31443  10.313   6.285   9.475  0.3248  3.2443 -0.7760
  233MOL0     H31444  10.127   6.439   9.418 -1.0396 -0.0342  0.1377
  233MOL0     H31445   9.765   6.365   9.462 -2.5729  0.2207 -0.8647
  233MOL0     H31446   9.767   6.356   9.631  0.5007 -3.0123 -1.5866
  233MOL0     H31447   9.693   6.634   9.528  0.6009  0.3137  0.4260
  233MOL0     H31448   9.657   6.559   9.682  4.1478  0.7245  0.3124
  233MOL0     H31449   9.500   6.410   9.562  3.0874 -0.4213  0.6652
  233MOL0     H31450   9.562   6.476   9.408 -0.1865  3.0098 -0.2764
  233MOL0     H31451   9.344   6.594   9.444  0.9981 -2.4174 -1.6311
  233MOL0     H31452   9.463   6.712   9.506 -0.0498 -0.4087 -0.9148
  233MOL0     H31453   9.269   6.607   9.862 -1.0036 -0.4441  0.5059
  233MOL0     H31454   9.945   6.368   9.794 -0.8433  3.7442 -0.8405
  233MOL0     H31455  10.127   6.236   9.867  0.7135 -1.4536  0.0341
  234MOL0     O31456   6.487   3.962   9.459 -0.4299 -0.3228 -0.1478
  234MOL0     C31457   6.368   3.973   9.450 -0.1838 -0.4759 -0.4089
  234MOL0     O31458   6.298   3.945   9.341  0.0743 -0.3062 -1.8157
  234MOL0     C31459   6.366   3.928   9.223 -0.5153  1.2991 -0.8271
  234MOL0     C31460   6.357   3.816   9.147  0.5321 -0.1498  0.2138
  234MOL0     C31461   6.397   3.807   9.012  0.6410  0.4427 -0.4289
  234MOL0     C31462   6.468   3.913   8.961 -0.1868  0.5133  0.0335
  234MOL0     O31463   6.503   3.901   8.835 -0.5280  0.5654  0.1577
  234MOL0     C31464   6.646   3.928   8.815 -0.3252  0.2981  0.6204
  234MOL0     C31465   6.687   3.900   8.665 -0.1661  0.3174 -0.1779
  234MOL0     C31466   6.621   3.997   8.564 -0.5455  0.6220 -0.2033
  234MOL0     C31467   6.681   3.950   8.430 -0.7168  0.1992 -0.1115
  234MOL0     C31468   6.609   4.015   8.328 -0.0105  0.3498  0.5779
  234MOL0     C31469   6.455   3.971   8.312  0.0173 -0.3711 -0.3240
  234MOL0     C31470   6.428   3.976   8.164 -0.5713 -0.1638 -1.2868
  234MOL0     C31471   6.284   3.940   8.138  0.1755  0.6410  0.8803
  234MOL0     N31472   6.239   3.980   8.005  0.1897 -0.6159 -1.1856
  234MOL0     C31473   6.293   4.082   7.938  0.5143 -0.8924 -0.2652
  234MOL0     C31474   6.286   4.052   7.808  0.9731 -0.1166 -0.5245
  234MOL0     C31475   6.303   4.154   7.708 -0.0623  1.0169  0.7881
  234MOL0     C31476   6.160   4.209   7.677 -0.1344 -0.2692  0.0577
  234MOL0     C31477   6.166   4.343   7.601  0.5920 -0.3522  0.2601
  234MOL0     C31478   6.237   4.335   7.470 -0.0725  0.0152  0.2789
  234MOL0     O31479   6.337   4.439   7.482 -1.0783 -0.1582 -0.6231
  234MOL0     C31480   6.305   4.573   7.451  0.1469  0.2130  0.1660
  234MOL0     C31481   6.187   4.613   7.385 -0.3241  0.0436  0.2040
  234MOL0     C31482   6.145   4.752   7.362 -0.2156 -0.4231 -0.2737
  234MOL0     C31483   6.017   4.793   7.290  0.0045  0.7702 -1.6338
  234MOL0     C31484   6.244   4.853   7.406  0.3187 -0.8074  0.4607
  234MOL0     C31485   6.225   4.997   7.399 -0.1409 -0.4628  0.1684
  234MOL0     O31486   6.283   5.069   7.508 -0.4566 -0.3244  0.2445
  234MOL0     C31487   6.267   5.207   7.518 -0.0275  0.9158  0.6988
  234MOL0     C31488   6.146   5.276   7.499 -0.0128 -0.1438  0.4822
  234MOL0     C31489   6.130   5.411   7.523  0.4455 -0.6103  0.0221
  234MOL0     C31490   6.238   5.490   7.553  0.0959 -0.3538 -0.2920
  234MOL0     O31491   6.237   5.624   7.574  0.6224  0.2622  0.3906
  234MOL0     C31492   6.180   5.696   7.464  0.8336 -0.1978  0.6861
  234MOL0     C31493   6.222   5.841   7.467 -0.5173 -1.1453 -0.0896
  234MOL0     C31494   6.188   5.909   7.340  0.5497  0.4535 -0.7687
  234MOL0     C31495   6.251   6.046   7.329 -0.4209  0.5081 -0.3970
  234MOL0     C31496   6.239   6.098   7.183  0.7933 -0.5204  0.0338
  234MOL0     C31497   6.292   6.236   7.159 -0.4525 -0.5769 -0.1880
  234MOL0     C31498   6.263   6.280   7.010 -0.1447  0.0792  0.5460
  234MOL0     C31499   6.284   6.432   7.017  0.4906  0.0618 -0.0259
  234MOL0    Cl31500   6.177   6.512   7.123  0.2781 -0.5406 -0.0280
  234MOL0     C31501   6.356   5.426   7.570  0.2289 -0.2030 -0.7137
  234MOL0     C31502   6.369   5.287   7.559 -0.4153  0.4759 -0.9919
  234MOL0     O31503   6.169   5.047   7.299 -0.2978  0.0429 -0.0385
  234MOL0     C31504   6.358   4.806   7.469  0.4413  0.1664 -0.8873
  234MOL0     C31505   6.393   4.676   7.502  0.6815  0.6534 -1.0280
  234MOL0     N31506   6.230   3.929   7.792 -0.5378 -0.7726 -0.5989
  234MOL0     N31507   6.210   3.879   7.920 -0.6572 -0.0213  0.0587
  234MOL0     C31508   6.490   4.027   9.034  0.4409 -1.1029 -0.4872
  234MOL0     C31509   6.442   4.032   9.164  0.0176 -0.6294 -0.3618
  234MOL0     C31510   6.281   3.991   9.570  0.0163 -0.3111 -0.1125
  234MOL0     C31511   6.334   3.991   9.700 -0.2685 -0.2083 -0.6221
  234MOL0     C31512   6.247   3.990   9.817  0.2601 -0.5255  0.2471
  234MOL0     C31513   6.111   4.002   9.799  0.6245  0.4319  0.9967
  234MOL0     O31514   6.021   4.015   9.903 -0.3147  0.0937 -0.1879
  234MOL0     C31515   5.939   3.896   9.911  0.6155  0.4397  0.2752
  234MOL0     C31516   5.827   3.885  10.021  0.3547 -0.5150 -0.0184
  234MOL0     C31517   5.702   3.974  10.008 -0.5387  0.4430 -0.4091
  234MOL0     C31518   5.648   3.982   9.864  0.7962  0.3695  0.2184
  234MOL0     C31519   5.634   3.849   9.801  0.7894  0.0835  0.0329
  234MOL0     C31520   5.622   3.735   9.766  0.1355 -0.3686  0.0668
  234MOL0     C31521   6.048   3.994   9.672 -0.2047 -0.1458  0.5685
  234MOL0     C31522   6.133   3.981   9.562  0.5568 -1.0923 -0.5308
  234MOL0     H31523   6.288   3.741   9.183 -0.0177  0.2175 -0.0524
  234MOL0     H31524   6.398   3.715   8.954  1.2655 -1.8233  2.8922
  234MOL0     H31525   6.682   4.030   8.832  1.5248 -0.7830  4.2999
  234MOL0     H31526   6.711   3.871   8.883  0.4216  1.6183  1.0415
  234MOL0     H31527   6.795   3.915   8.662 -0.1565  0.4139  0.4000
  234MOL0     H31528   6.651   3.800   8.638 -0.8239 -0.0115  1.7087
  234MOL0     H31529   6.512   3.984   8.569 -0.1748 -3.3270  2.0289
  234MOL0     H31530   6.649   4.100   8.586 -1.7335  1.0553 -0.6047
  234MOL0     H31531   6.789   3.967   8.425 -0.1674 -2.4764  1.1199
  234MOL0     H31532   6.661   3.845   8.406  0.6124 -0.0693 -0.1084
  234MOL0     H31533   6.617   4.123   8.348 -1.0272  0.0237  3.1420
  234MOL0     H31534   6.667   4.008   8.236 -0.6150  3.4285 -0.1518
  234MOL0     H31535   6.444   3.869   8.350 -0.7448 -0.2595 -0.2265
  234MOL0     H31536   6.391   4.035   8.374  0.7822  2.4803 -2.3008
  234MOL0     H31537   6.442   4.083   8.144 -0.9827  0.1302 -0.1015
  234MOL0     H31538   6.487   3.908   8.101 -0.6393 -0.0696 -1.4545
  234MOL0     H31539   6.212   3.989   8.204 -0.6213  2.2134 -1.0463
  234MOL0     H31540   6.262   3.834   8.153  1.4677  0.3487  0.8012
  234MOL0     H31541   6.335   4.176   7.974  2.3793 -1.6471 -0.3991
  234MOL0     H31542   6.370   4.230   7.748 -0.1013  1.5543 -0.1326
  234MOL0     H31543   6.357   4.103   7.627  0.0342 -0.5249  1.7844
  234MOL0     H31544   6.110   4.225   7.773  1.1911 -0.4788  0.8114
  234MOL0     H31545   6.117   4.129   7.616 -0.0184 -1.6372  1.6998
  234MOL0     H31546   6.217   4.413   7.668 -2.2458  1.6665  0.5073
  234MOL0     H31547   6.067   4.387   7.587  0.0849 -1.2981  0.8035
  234MOL0     H31548   6.182   4.361   7.379  2.8447 -1.0993 -1.9599
  234MOL0     H31549   6.283   4.238   7.451  1.9532  1.2229 -1.4629
  234MOL0     H31550   6.111   4.540   7.362 -0.5731 -0.2718  1.8671
  234MOL0     H31551   5.968   4.883   7.328 -1.2758 -0.6821  0.3550
  234MOL0     H31552   6.044   4.796   7.184 -1.1046 -1.4683 -2.0502
  234MOL0     H31553   5.945   4.712   7.303 -0.3793  0.7831 -3.4516
  234MOL0     H31554   6.058   5.219   7.471 -2.8031  2.6326  2.9602
  234MOL0     H31555   6.037   5.467   7.518  0.6012  0.0377  2.8024
  234MOL0     H31556   6.221   5.648   7.375  0.3515  0.4936  0.0655
  234MOL0     H31557   6.072   5.674   7.459  0.2701  2.4340 -2.6584
  234MOL0     H31558   6.179   5.895   7.552  2.6703 -0.9557  1.5846
  234MOL0     H31559   6.332   5.845   7.472 -0.5053  1.5444  4.9992
  234MOL0     H31560   6.080   5.928   7.337 -0.0847 -2.5020 -0.3302
  234MOL0     H31561   6.219   5.840   7.261  4.3038 -1.8073  2.3243
  234MOL0     H31562   6.203   6.109   7.405  1.1317  1.2893 -0.0271
  234MOL0     H31563   6.355   6.040   7.361 -0.8561 -2.0966  0.7707
  234MOL0     H31564   6.130   6.103   7.173  0.5965 -1.9401  1.1004
  234MOL0     H31565   6.280   6.025   7.113  2.0167 -1.2419  1.4455
  234MOL0     H31566   6.276   6.306   7.242  3.8198  0.6775 -0.1662
  234MOL0     H31567   6.400   6.225   7.173 -0.6073  1.2284  4.0915
  234MOL0     H31568   6.161   6.246   6.989 -0.6489  1.7104  0.1966
  234MOL0     H31569   6.332   6.223   6.948 -0.1862 -1.3362  1.7636
  234MOL0     H31570   6.281   6.465   6.913  1.8153 -1.3075 -0.5371
  234MOL0     H31571   6.383   6.457   7.056  1.2965 -0.7852 -1.4529
  234MOL0     H31572   6.438   5.486   7.609 -3.6440  5.3916  0.0527
  234MOL0     H31573   6.462   5.242   7.593  1.7246  3.6976 -2.1185
  234MOL0     H31574   6.422   4.880   7.516  0.9209  0.9251 -2.6511
  234MOL0     H31575   6.482   4.649   7.559  1.1053  0.0298 -1.9599
  234MOL0     H31576   6.541   4.114   8.995  2.5911 -3.0330 -2.2970
  234MOL0     H31577   6.460   4.119   9.227 -0.2022 -1.2404  0.5653
  234MOL0     H31578   6.441   3.975   9.713 -0.0729  0.9426 -0.7623
  234MOL0     H31579   6.291   3.993   9.916  1.4318  0.1454 -0.2758
  234MOL0     H31580   5.897   3.882   9.812  0.4476  2.9680 -0.0718
  234MOL0     H31581   6.000   3.807   9.930 -1.7360 -0.9442  1.7903
  234MOL0     H31582   5.883   3.906  10.113  1.3940 -0.0554 -0.7405
  234MOL0     H31583   5.794   3.781  10.028  1.7509 -0.8675  3.0458
  234MOL0     H31584   5.718   4.072  10.052 -0.3014 -0.1624  0.8896
  234MOL0     H31585   5.625   3.927  10.070  2.8272 -4.0884  0.8206
  234MOL0     H31586   5.709   4.054   9.810  0.6252  1.4797  1.4654
  234MOL0     H31587   5.546   4.022   9.870  0.4425 -0.1045 -1.8457
  234MOL0     H31588   5.592   3.636   9.737  1.2301 -0.5067 -0.6152
  234MOL0     H31589   5.944   4.002   9.645  0.0362  0.1931 -0.2950
  234MOL0     H31590   6.081   3.990   9.468 -1.5512 -0.5371  0.6320
  235MOL0     O31591   7.152  10.602   3.463  0.1332  0.2850 -0.4023
  235MOL0     C31592   7.136  10.565   3.347  0.5803 -0.1859 -1.2589
  235MOL0     O31593   7.035  10.589   3.257 -0.0133  0.2374  0.0299
  235MOL0     C31594   6.917  10.636   3.292 -0.1882 -0.0613  0.8555
  235MOL0     C31595   6.827  10.583   3.201  0.1341 -0.3393 -0.0465
  235MOL0     C31596   6.687  10.616   3.201 -0.1962 -0.4299  0.5786
  235MOL0     C31597   6.640  10.691   3.306  0.0829  0.0480 -0.7430
  235MOL0     O31598   6.507  10.725   3.308  0.4558  0.5234  1.1408
  235MOL0     C31599   6.433  10.783   3.200 -0.0774 -0.1079 -0.4320
  235MOL0     C31600   6.464  10.933   3.164 -0.5894  0.6634  0.8713
  235MOL0     C31601   6.447  11.025   3.283 -0.2047  0.3898 -0.1503
  235MOL0     C31602   6.534  11.148   3.256 -0.2786 -0.1443  0.3543
  235MOL0     C31603   6.489  11.271   3.332 -0.2671 -0.0978 -1.1426
  235MOL0     C31604   6.535  11.412   3.277 -0.5897 -0.5597  0.2999
  235MOL0     C31605   6.522  11.511   3.398  0.5843 -1.1589 -0.4223
  235MOL0     C31606   6.373  11.545   3.420 -0.9992  0.4175  0.4345
  235MOL0     N31607   6.356  11.644   3.530 -0.1561 -0.4918  0.9726
  235MOL0     C31608   6.235  11.696   3.578 -0.5172  0.4547  0.4300
  235MOL0     C31609   6.276  11.799   3.659 -1.7753 -0.1453 -0.7107
  235MOL0     C31610   6.185  11.884   3.744 -0.7474 -0.9394 -0.0997
  235MOL0     C31611   6.186  12.031   3.695 -0.3539  0.1162 -0.1310
  235MOL0     C31612   6.288  12.124   3.759 -0.2746 -0.3102 -0.3878
  235MOL0     C31613   6.243  12.266   3.724  0.2851 -1.3881  0.2589
  235MOL0     O31614   6.362  12.343   3.697  0.3302 -0.8530  0.1721
  235MOL0     C31615   6.345  12.482   3.668  0.3475 -0.6272 -0.3813
  235MOL0     C31616   6.220  12.547   3.679  0.6232 -0.4862  0.1725
  235MOL0     C31617   6.209  12.687   3.651  0.1583 -1.3142 -1.0036
  235MOL0     C31618   6.088  12.750   3.694  1.0912 -0.1828 -0.9481
  235MOL0     C31619   6.324  12.756   3.614  1.0050 -0.6783  0.5633
  235MOL0     C31620   6.312  12.908   3.566 -0.2786  0.0303  0.9180
  235MOL0     O31621   6.431  12.977   3.581 -0.6458  0.5140  0.0019
  235MOL0     C31622   6.452  13.083   3.495  0.0765 -0.1790  0.7569
  235MOL0     C31623   6.533  13.079   3.374  0.3708  0.1447  0.2156
  235MOL0     C31624   6.537  13.186   3.283  0.6400 -0.3739  0.1167
  235MOL0     C31625   6.474  13.306   3.310  1.0432  0.2561 -0.7682
  235MOL0     O31626   6.461  13.392   3.207 -0.3120 -0.2969  0.1261
  235MOL0     C31627   6.378  13.508   3.208 -0.0517 -0.8531  0.1058
  235MOL0     C31628   6.464  13.634   3.220 -0.4629 -0.4139 -0.2914
  235MOL0     C31629   6.569  13.651   3.114 -0.5118  0.9495 -0.8377
  235MOL0     C31630   6.510  13.697   2.981  1.6312  1.2594 -1.0219
  235MOL0     C31631   6.617  13.733   2.881  0.5452  0.2979  0.6561
  235MOL0     C31632   6.668  13.874   2.905  1.3456 -0.2705  0.2098
  235MOL0     C31633   6.743  13.903   2.772  0.4960 -0.3678  0.1103
  235MOL0     C31634   6.788  14.052   2.774 -0.6995 -0.1543  0.5491
  235MOL0    Cl31635   6.916  14.066   2.645 -0.2186 -0.3022  0.3847
  235MOL0     C31636   6.418  13.321   3.437  0.2878 -0.3867 -0.3621
  235MOL0     C31637   6.413  13.210   3.527  0.1184  0.3882  0.4686
  235MOL0     O31638   6.211  12.954   3.512 -0.3754 -0.2229 -0.3110
  235MOL0     C31639   6.442  12.692   3.599 -0.4506  1.5825  1.0067
  235MOL0     C31640   6.454  12.552   3.629  0.1564  0.1699 -0.1119
  235MOL0     N31641   6.412  11.794   3.678  0.6883  0.0506  0.2862
  235MOL0     N31642   6.454  11.698   3.603  0.0950 -0.4803  0.0160
  235MOL0     C31643   6.723  10.740   3.404 -1.5047 -0.6447 -1.1677
  235MOL0     C31644   6.864  10.708   3.401  0.4439 -0.0251 -0.3613
  235MOL0     C31645   7.240  10.469   3.311 -0.1808  0.0059 -0.0173
  235MOL0     C31646   7.355  10.452   3.386  0.2401 -0.0632 -0.6545
  235MOL0     C31647   7.464  10.378   3.346  0.1872  0.6705 -0.0377
  235MOL0     C31648   7.458  10.311   3.226  0.8342 -0.2673 -0.1263
  235MOL0     O31649   7.561  10.250   3.161 -0.8211 -0.4380 -0.5604
  235MOL0     C31650   7.665  10.203   3.249  0.2079 -0.9000  0.4430
  235MOL0     C31651   7.729  10.078   3.187  0.2669  0.2247 -0.1352
  235MOL0     C31652   7.822  10.098   3.067 -0.9609  0.2895 -0.3708
  235MOL0     C31653   7.825   9.983   2.968  0.1288  0.3740 -0.2422
  235MOL0     C31654   7.685   9.957   2.909  0.8033  0.6871  0.4044
  235MOL0     C31655   7.590   9.937   2.833  1.1052 -0.2977  0.6625
  235MOL0     C31656   7.342  10.312   3.154 -0.5780 -0.6158  0.3566
  235MOL0     C31657   7.235  10.401   3.189 -0.6133 -0.2565 -0.4134
  235MOL0     H31658   6.851  10.504   3.130  1.3427 -1.5368  1.6190
  235MOL0     H31659   6.620  10.583   3.122  2.8108 -3.9975 -0.7692
  235MOL0     H31660   6.438  10.720   3.111 -3.2661 -0.1368 -0.6882
  235MOL0     H31661   6.327  10.763   3.217 -0.5543 -1.6046 -4.1781
  235MOL0     H31662   6.567  10.942   3.130 -0.4879  0.8653  1.2349
  235MOL0     H31663   6.398  10.966   3.082  1.0938 -1.6287 -1.5811
  235MOL0     H31664   6.343  11.058   3.295 -0.8439 -2.0440  1.8509
  235MOL0     H31665   6.477  10.972   3.374  0.9214  0.6915 -0.3357
  235MOL0     H31666   6.631  11.117   3.294 -1.1976 -2.0472  1.2991
  235MOL0     H31667   6.533  11.164   3.148  0.3092 -1.9123  0.0572
  235MOL0     H31668   6.380  11.274   3.318 -0.1387  1.4078 -2.0289
  235MOL0     H31669   6.513  11.258   3.438  1.9203 -2.0868 -1.8176
  235MOL0     H31670   6.640  11.418   3.248 -0.6709 -1.7097 -0.2696
  235MOL0     H31671   6.468  11.441   3.195  1.0019  0.2918 -0.7479
  235MOL0     H31672   6.578  11.478   3.486  0.4513  4.1131  2.0584
  235MOL0     H31673   6.569  11.604   3.364  1.0203 -0.5567  1.6912
  235MOL0     H31674   6.309  11.457   3.435  0.4812 -0.9238 -0.7672
  235MOL0     H31675   6.334  11.600   3.334 -1.0700 -0.9968 -0.4708
  235MOL0     H31676   6.135  11.658   3.560 -0.2863 -1.2112  2.3094
  235MOL0     H31677   6.079  11.855   3.738 -0.6481 -1.2300 -0.5344
  235MOL0     H31678   6.210  11.884   3.850  2.0094 -2.5591 -0.6537
  235MOL0     H31679   6.087  12.075   3.708  1.2929  4.2508 -0.1109
  235MOL0     H31680   6.218  12.022   3.591  2.9932  1.4620  0.6595
  235MOL0     H31681   6.377  12.095   3.702  0.0480 -0.9762  0.4378
  235MOL0     H31682   6.310  12.109   3.865 -0.1931 -0.3126 -0.4052
  235MOL0     H31683   6.181  12.308   3.803 -0.6737 -1.5714 -0.3783
  235MOL0     H31684   6.182  12.266   3.633 -0.4425 -1.3416  0.7393
  235MOL0     H31685   6.134  12.491   3.715 -0.2038  1.1066  0.7498
  235MOL0     H31686   6.007  12.686   3.733  1.8767  0.1120  1.2872
  235MOL0     H31687   6.111  12.829   3.765 -2.2919 -0.3429  0.5495
  235MOL0     H31688   6.039  12.809   3.616 -3.3044 -0.2064  1.4751
  235MOL0     H31689   6.584  12.989   3.340  0.4776 -0.6250  2.2436
  235MOL0     H31690   6.589  13.171   3.189  1.1367  0.4355  0.2514
  235MOL0     H31691   6.332  13.511   3.109 -0.4306 -3.8051  0.1086
  235MOL0     H31692   6.296  13.520   3.280 -1.2979  1.7225 -1.5837
  235MOL0     H31693   6.399  13.721   3.209  0.8733  0.4178 -2.2851
  235MOL0     H31694   6.511  13.654   3.317 -3.0149 -0.8603  1.1102
  235MOL0     H31695   6.612  13.551   3.108 -0.7367  0.3438  3.7247
  235MOL0     H31696   6.646  13.718   3.153 -1.9326  1.0881  1.9994
  235MOL0     H31697   6.445  13.622   2.934 -0.3914  3.2569 -1.6091
  235MOL0     H31698   6.439  13.780   2.981 -0.8089 -0.7024  0.3001
  235MOL0     H31699   6.568  13.727   2.783  1.2610  0.2930  0.2922
  235MOL0     H31700   6.706  13.669   2.878  2.4971  2.7662  2.1157
  235MOL0     H31701   6.593  13.950   2.929  2.2304  1.0064 -0.9130
  235MOL0     H31702   6.746  13.865   2.981  0.4897 -0.7420  1.0679
  235MOL0     H31703   6.675  13.897   2.686 -2.1726  2.1176  1.8414
  235MOL0     H31704   6.834  13.846   2.755  1.9976  1.0997  2.6654
  235MOL0     H31705   6.842  14.086   2.862  0.6548  1.8945 -0.9770
  235MOL0     H31706   6.706  14.122   2.755 -2.7549 -1.9919  2.0463
  235MOL0     H31707   6.388  13.422   3.464  0.3049 -1.2725  3.6609
  235MOL0     H31708   6.359  13.222   3.620  0.2793  1.1871  0.4671
  235MOL0     H31709   6.523  12.733   3.539  0.5382  0.3764  1.4582
  235MOL0     H31710   6.556  12.515   3.621  0.1142  0.3308 -1.8098
  235MOL0     H31711   6.702  10.804   3.490  1.5112  0.9683 -1.5068
  235MOL0     H31712   6.938  10.751   3.468 -0.2477 -2.3583  2.0630
  235MOL0     H31713   7.377  10.509   3.475  0.2381  0.8982 -1.2640
  235MOL0     H31714   7.547  10.406   3.410  0.6012  2.0161 -1.1078
  235MOL0     H31715   7.744  10.278   3.254 -0.2970 -0.2471 -0.8479
  235MOL0     H31716   7.623  10.192   3.350 -1.5137  2.7873  0.2985
  235MOL0     H31717   7.644  10.015   3.163 -0.6316  1.6674 -0.8792
  235MOL0     H31718   7.783  10.024   3.266 -0.0343 -1.7752 -1.2503
  235MOL0     H31719   7.922  10.110   3.108 -0.5896 -2.1044 -0.4366
  235MOL0     H31720   7.815  10.191   3.009  0.6440  1.0553  0.5797
  235MOL0     H31721   7.874   9.898   3.016 -0.6427  1.5276  2.8272
  235MOL0     H31722   7.895  10.006   2.886  0.1481 -2.8649 -1.2521
  235MOL0     H31723   7.518   9.928   2.754  3.1502  0.1757 -1.3572
  235MOL0     H31724   7.335  10.257   3.060  3.0626  0.0205 -0.4235
  235MOL0     H31725   7.152  10.418   3.122 -0.5389  0.4081 -0.3460
  236MOL0     O31726   3.665   6.262   6.957 -0.9207 -0.4656  0.2533
  236MOL0     C31727   3.768   6.217   6.903 -0.6309 -0.3429  0.0021
  236MOL0     O31728   3.806   6.250   6.777 -0.3830 -0.7489 -0.1205
  236MOL0     C31729   3.725   6.307   6.677  0.7430  0.6323  0.5065
  236MOL0     C31730   3.585   6.305   6.675 -0.5111  0.3051 -0.3627
  236MOL0     C31731   3.509   6.365   6.580  0.1303 -0.0506  0.5597
  236MOL0     C31732   3.566   6.431   6.467  0.0755 -0.9511  0.1985
  236MOL0     O31733   3.488   6.480   6.373  0.6331 -0.7956  1.4356
  236MOL0     C31734   3.555   6.549   6.258  0.4782  0.4317  0.2451
  236MOL0     C31735   3.461   6.569   6.134  0.5496 -0.0045 -0.3053
  236MOL0     C31736   3.532   6.664   6.035 -0.5886  0.1429  0.8141
  236MOL0     C31737   3.453   6.671   5.901 -0.0682  0.8915  0.3312
  236MOL0     C31738   3.532   6.759   5.804 -0.5472  0.8082 -0.4421
  236MOL0     C31739   3.465   6.773   5.671 -0.4679  0.7454 -0.0333
  236MOL0     C31740   3.563   6.850   5.577  0.2095 -0.2906 -0.3180
  236MOL0     C31741   3.532   6.997   5.582  0.3224 -0.6782  0.8674
  236MOL0     N31742   3.596   7.076   5.478  0.3913 -0.8848 -0.0422
  236MOL0     C31743   3.541   7.200   5.438 -0.2227  0.3752 -0.6017
  236MOL0     C31744   3.623   7.241   5.340 -0.0953  0.6645 -0.1794
  236MOL0     C31745   3.611   7.375   5.263 -0.0663 -0.0915 -0.0818
  236MOL0     C31746   3.559   7.365   5.122 -0.2845  0.6230 -0.0825
  236MOL0     C31747   3.433   7.270   5.125 -0.1775 -0.4320 -0.3912
  236MOL0     C31748   3.347   7.282   4.994  0.8568  0.0299  0.0482
  236MOL0     O31749   3.419   7.233   4.887  0.6122  0.7586  0.8661
  236MOL0     C31750   3.344   7.160   4.795 -0.6686  0.1233  0.8912
  236MOL0     C31751   3.212   7.111   4.807  0.0505  0.6233 -0.0009
  236MOL0     C31752   3.147   7.037   4.707  0.7764 -0.2072  0.1125
  236MOL0     C31753   2.999   6.992   4.715 -0.0102 -0.4085 -0.1360
  236MOL0     C31754   3.223   7.008   4.586  0.2689  0.8029 -0.1457
  236MOL0     C31755   3.167   6.925   4.477  0.1854  0.3912 -0.7656
  236MOL0     O31756   3.068   6.837   4.510 -0.3406 -0.0328 -0.5272
  236MOL0     C31757   3.012   6.752   4.413 -0.8547 -0.5329  0.0966
  236MOL0     C31758   2.977   6.799   4.279 -0.6362  0.2627  0.5671
  236MOL0     C31759   2.921   6.706   4.191  0.5952 -0.1268  0.2202
  236MOL0     C31760   2.889   6.577   4.228  0.0291  0.2755 -0.9390
  236MOL0     O31761   2.824   6.489   4.138 -0.1106 -0.5012  0.3109
  236MOL0     C31762   2.815   6.349   4.162  0.5752 -0.8031  0.2159
  236MOL0     C31763   2.741   6.284   4.046  0.3100 -0.8514  0.7250
  236MOL0     C31764   2.733   6.133   4.050  0.0582  0.4608 -0.5359
  236MOL0     C31765   2.689   6.070   4.185 -0.0048 -0.1042 -0.5340
  236MOL0     C31766   2.680   5.919   4.173 -0.5123  0.2765 -0.6160
  236MOL0     C31767   2.628   5.852   4.296 -0.5194 -0.4776  0.2242
  236MOL0     C31768   2.670   5.705   4.295 -0.3582 -0.1910 -0.6369
  236MOL0     C31769   2.632   5.628   4.418 -0.1368 -0.2338 -0.0169
  236MOL0    Cl31770   2.712   5.701   4.562 -0.2495 -0.0658  0.4596
  236MOL0     C31771   2.910   6.537   4.362  0.2580  0.2872  0.4590
  236MOL0     C31772   2.972   6.623   4.452  0.5258  0.1785 -0.0323
  236MOL0     O31773   3.225   6.933   4.369 -0.8391  0.2319  0.7758
  236MOL0     C31774   3.363   7.043   4.585  0.3056  0.5281  0.2986
  236MOL0     C31775   3.414   7.121   4.688  0.5270 -0.2090 -0.3893
  236MOL0     N31776   3.729   7.151   5.327 -0.2069  0.0894  0.8947
  236MOL0     N31777   3.702   7.054   5.405  0.5316 -0.1551 -0.1674
  236MOL0     C31778   3.710   6.435   6.464  0.1196  0.4151 -0.5609
  236MOL0     C31779   3.787   6.363   6.564 -0.9653  0.9841  0.5616
  236MOL0     C31780   3.862   6.129   6.990 -0.2840  0.2519  0.1370
  236MOL0     C31781   3.823   6.079   7.112  0.5083  0.5218 -0.5707
  236MOL0     C31782   3.922   6.003   7.186  1.0643 -0.7092 -0.2693
  236MOL0     C31783   4.037   5.948   7.134  0.7347  0.1257 -0.1373
  236MOL0     O31784   4.097   5.854   7.205 -0.2515  0.1305  0.0405
  236MOL0     C31785   4.196   5.900   7.294  0.6009 -0.0428  0.7351
  236MOL0     C31786   4.158   5.814   7.410 -0.3317 -0.5597 -1.3653
  236MOL0     C31787   4.256   5.816   7.530  1.0986  0.1784  0.4391
  236MOL0     C31788   4.260   5.945   7.619  0.6941 -0.2556 -0.3232
  236MOL0     C31789   4.134   6.000   7.673 -0.3914 -0.0199  0.0397
  236MOL0     C31790   4.038   6.064   7.711 -0.1538  0.0423 -0.7600
  236MOL0     C31791   4.066   5.990   7.007  0.2315  0.7858  0.1371
  236MOL0     C31792   3.987   6.085   6.933  0.0924  1.2974  0.1290
  236MOL0     H31793   3.532   6.275   6.765 -0.1847  2.7635  0.7298
  236MOL0     H31794   3.403   6.346   6.569  0.1575  0.3946 -0.6605
  236MOL0     H31795   3.576   6.651   6.291 -0.5008  0.5371  0.5687
  236MOL0     H31796   3.642   6.491   6.225 -1.7062 -3.4101  0.6640
  236MOL0     H31797   3.441   6.471   6.088 -1.2487  1.6786 -3.4941
  236MOL0     H31798   3.358   6.601   6.155  0.3241 -1.4300  0.9537
  236MOL0     H31799   3.532   6.763   6.083 -1.6932  1.5437 -1.8545
  236MOL0     H31800   3.639   6.644   6.024 -0.7242  0.1114 -0.6865
  236MOL0     H31801   3.455   6.574   5.850 -3.0842  1.3621 -0.9179
  236MOL0     H31802   3.353   6.712   5.920  0.8458  4.0958 -1.0384
  236MOL0     H31803   3.544   6.856   5.853 -3.0667  0.2365  1.5117
  236MOL0     H31804   3.634   6.727   5.780  0.8575  1.4373  3.7986
  236MOL0     H31805   3.440   6.679   5.620  1.2559  0.1474  0.1625
  236MOL0     H31806   3.363   6.813   5.669  0.2178  2.9341 -5.1419
  236MOL0     H31807   3.664   6.828   5.613 -0.1028  2.4097  2.6418
  236MOL0     H31808   3.549   6.821   5.473 -2.3201 -2.0880  0.4153
  236MOL0     H31809   3.557   7.039   5.680  1.3521 -1.2332  0.8555
  236MOL0     H31810   3.425   7.002   5.564  0.2639  1.6756  1.5270
  236MOL0     H31811   3.458   7.259   5.477  1.0842  0.7845  1.7938
  236MOL0     H31812   3.553   7.455   5.310 -1.1169 -1.7866  1.6454
  236MOL0     H31813   3.702   7.435   5.257 -1.3246  2.3495  2.6639
  236MOL0     H31814   3.636   7.322   5.057 -0.6394  1.3809 -1.0315
  236MOL0     H31815   3.525   7.455   5.069 -0.5733 -0.0355 -1.0519
  236MOL0     H31816   3.359   7.313   5.193 -1.6169 -0.3650 -1.9424
  236MOL0     H31817   3.457   7.169   5.159  5.3365  0.6040 -0.2266
  236MOL0     H31818   3.324   7.386   4.968 -3.4208 -0.1068  2.3268
  236MOL0     H31819   3.251   7.233   5.011 -0.2078  2.2733  0.8969
  236MOL0     H31820   3.145   7.127   4.891  3.1347  0.5509  2.6562
  236MOL0     H31821   2.994   6.885   4.740 -1.3328 -0.6391 -1.2373
  236MOL0     H31822   2.941   7.050   4.788 -0.9952  1.0354 -1.9863
  236MOL0     H31823   2.937   7.004   4.626 -2.1552  3.7970  1.6482
  236MOL0     H31824   3.005   6.897   4.241 -0.8845 -0.5097 -1.7913
  236MOL0     H31825   2.920   6.721   4.083  1.6247  1.9462  0.4402
  236MOL0     H31826   2.913   6.303   4.176  1.3574  1.2070  1.9084
  236MOL0     H31827   2.744   6.332   4.243  1.7764 -4.2375  0.6752
  236MOL0     H31828   2.639   6.323   4.040  1.4811  2.5347 -5.4827
  236MOL0     H31829   2.790   6.319   3.955 -2.8318  0.5189 -0.5551
  236MOL0     H31830   2.831   6.087   4.030  0.5705  1.6063 -0.7125
  236MOL0     H31831   2.667   6.096   3.971  0.6025 -2.5063  0.2684
  236MOL0     H31832   2.756   6.097   4.266 -0.0298 -0.8055 -0.2712
  236MOL0     H31833   2.587   6.110   4.189  1.5003  4.2327 -0.1473
  236MOL0     H31834   2.780   5.883   4.146 -0.1232  0.8462  0.0373
  236MOL0     H31835   2.617   5.892   4.087 -0.7575 -0.0397 -0.3368
  236MOL0     H31836   2.672   5.902   4.382  1.6306 -0.9934 -0.5134
  236MOL0     H31837   2.520   5.857   4.313 -0.7867  0.0793 -1.4505
  236MOL0     H31838   2.779   5.696   4.289 -0.2401  1.4594 -1.4874
  236MOL0     H31839   2.628   5.660   4.204 -0.0541  0.6100 -1.1809
  236MOL0     H31840   2.662   5.523   4.407  0.5327  0.0314 -0.7919
  236MOL0     H31841   2.523   5.635   4.424 -0.1838  0.1042 -1.1123
  236MOL0     H31842   2.885   6.442   4.408  1.7534 -0.9396 -1.1332
  236MOL0     H31843   2.976   6.610   4.559 -1.2346  2.7402  0.4322
  236MOL0     H31844   3.399   7.022   4.486 -2.6690  1.3508 -1.0785
  236MOL0     H31845   3.514   7.162   4.687  0.4710 -0.0347  0.5225
  236MOL0     H31846   3.770   6.491   6.393 -2.5007 -0.5186 -3.7375
  236MOL0     H31847   3.895   6.370   6.557 -0.8461 -1.0836 -0.5860
  236MOL0     H31848   3.722   6.087   7.152  0.8984  1.8664  0.2052
  236MOL0     H31849   3.875   5.944   7.265  2.7000 -1.5507  0.1134
  236MOL0     H31850   4.294   5.881   7.248 -0.6747 -0.0964 -2.2008
  236MOL0     H31851   4.183   6.002   7.332 -2.2377 -0.2042  0.4151
  236MOL0     H31852   4.169   5.711   7.376 -2.1002 -0.7674 -1.4105
  236MOL0     H31853   4.053   5.821   7.442 -0.1222  1.6619 -0.9860
  236MOL0     H31854   4.361   5.808   7.503  0.7279  1.5654 -1.6564
  236MOL0     H31855   4.226   5.727   7.586  0.9664  0.7351  1.2783
  236MOL0     H31856   4.297   6.025   7.553 -0.8698 -1.3158 -2.6163
  236MOL0     H31857   4.326   5.921   7.703  0.1373 -0.2599  0.1189
  236MOL0     H31858   3.948   6.120   7.721  0.7617  1.7290 -1.5378
  236MOL0     H31859   4.151   5.941   6.961  2.5236  2.7831  1.9900
  236MOL0     H31860   4.021   6.116   6.835  1.5657  3.6034  1.2629
  237MOL0     O31861   9.570   9.368   7.308 -0.1799 -0.1263 -0.3483
  237MOL0     C31862   9.623   9.265   7.284 -0.8391  0.7192 -0.2057
  237MOL0     O31863   9.553   9.151   7.229  0.0716 -0.5669 -0.3071
  237MOL0     C31864   9.440   9.181   7.159  0.1880 -0.8338  0.9297
  237MOL0     C31865   9.386   9.295   7.098 -0.1997 -0.2327  0.0251
  237MOL0     C31866   9.251   9.281   7.053 -0.7097 -0.2078  0.0451
  237MOL0     C31867   9.176   9.172   7.036  0.4849 -0.0892  0.2168
  237MOL0     O31868   9.052   9.180   6.974 -0.6618 -0.5357  0.6808
  237MOL0     C31869   8.949   9.078   6.975 -0.1873 -0.2335 -0.4657
  237MOL0     C31870   8.824   9.127   6.900  0.8586 -0.5281 -0.7351
  237MOL0     C31871   8.811   9.093   6.751  0.1670 -0.9916 -0.5887
  237MOL0     C31872   8.845   8.940   6.731 -0.1771 -0.9063  0.7016
  237MOL0     C31873   8.838   8.904   6.579 -0.2203  0.2733 -0.5334
  237MOL0     C31874   8.819   8.755   6.543  0.0845 -0.4625 -0.4687
  237MOL0     C31875   8.937   8.673   6.594  0.1813 -0.1770  0.9659
  237MOL0     C31876   8.935   8.524   6.569  0.2888 -0.3451 -0.1153
  237MOL0     N31877   9.064   8.471   6.602  0.2074 -0.2316  0.0304
  237MOL0     C31878   9.108   8.398   6.710 -0.1014  1.0033 -0.4592
  237MOL0     C31879   9.233   8.359   6.696 -0.8062  0.3716  0.8675
  237MOL0     C31880   9.301   8.264   6.797  0.8158 -0.1187 -0.9246
  237MOL0     C31881   9.284   8.124   6.763  0.5817  0.0411 -0.6279
  237MOL0     C31882   9.286   8.035   6.893 -0.8865  0.1982 -0.5633
  237MOL0     C31883   9.424   8.055   6.969 -0.9781  0.6075 -0.3182
  237MOL0     O31884   9.447   7.937   7.052  0.5410 -0.0316  0.4898
  237MOL0     C31885   9.381   7.914   7.165  1.1346  0.0797  0.7128
  237MOL0     C31886   9.402   7.792   7.226 -0.4788 -0.8276 -0.4012
  237MOL0     C31887   9.348   7.762   7.353  0.3870 -0.4484  0.8026
  237MOL0     C31888   9.376   7.620   7.406  0.9100 -0.4404 -0.3339
  237MOL0     C31889   9.276   7.870   7.425  0.7588 -0.4382  0.3597
  237MOL0     C31890   9.223   7.857   7.568  0.7120 -0.6561  0.1403
  237MOL0     O31891   9.133   7.954   7.606  0.5853 -0.2277  0.8105
  237MOL0     C31892   9.056   7.929   7.708 -0.6489 -0.1957  0.9531
  237MOL0     C31893   8.936   7.862   7.678  0.0429 -0.0714 -0.2053
  237MOL0     C31894   8.846   7.825   7.775  0.6454 -0.0983 -0.9594
  237MOL0     C31895   8.877   7.847   7.915  0.1416 -0.8189  0.5780
  237MOL0     O31896   8.791   7.798   8.006 -0.1769 -0.2334 -0.0310
  237MOL0     C31897   8.806   7.850   8.138 -0.2133  0.4114 -1.4770
  237MOL0     C31898   8.679   7.802   8.223  1.0550 -0.7285  0.5496
  237MOL0     C31899   8.658   7.652   8.240 -0.5324  1.0152 -0.3709
  237MOL0     C31900   8.520   7.601   8.198 -0.1363 -0.7829  0.1535
  237MOL0     C31901   8.493   7.450   8.221 -0.0216 -0.2740  0.2026
  237MOL0     C31902   8.348   7.413   8.198 -0.1206 -0.0440  0.2122
  237MOL0     C31903   8.294   7.304   8.298 -0.5529 -0.6798 -0.6168
  237MOL0     C31904   8.250   7.370   8.428 -0.4418  0.4432  0.0680
  237MOL0    Cl31905   8.176   7.242   8.539  0.3300 -0.0087 -0.5120
  237MOL0     C31906   9.007   7.906   7.943 -0.1842  0.9041  0.8809
  237MOL0     C31907   9.097   7.942   7.842  0.3403  0.1643  0.0279
  237MOL0     O31908   9.261   7.770   7.646  0.0114  0.2742 -0.6706
  237MOL0     C31909   9.238   7.992   7.349  0.5630 -0.7636  0.3295
  237MOL0     C31910   9.292   8.005   7.219 -0.4916 -0.0781  0.2780
  237MOL0     N31911   9.269   8.397   6.572  0.2801  0.0263  0.3621
  237MOL0     N31912   9.162   8.457   6.508 -0.1451  0.2409  0.5956
  237MOL0     C31913   9.230   9.055   7.089  0.1540 -0.1935  0.3425
  237MOL0     C31914   9.361   9.065   7.146 -0.8996 -0.4155 -0.0918
  237MOL0     C31915   9.752   9.234   7.348 -0.1235 -0.8273  0.4858
  237MOL0     C31916   9.807   9.321   7.445 -0.8729 -0.0937  0.9990
  237MOL0     C31917   9.926   9.291   7.507  0.3253  0.2554 -0.1034
  237MOL0     C31918   9.990   9.172   7.482 -0.0543  0.3074 -0.5679
  237MOL0     O31919  10.111   9.123   7.533 -0.2015  0.4201  0.5927
  237MOL0     C31920  10.190   9.208   7.611 -0.8675 -0.0671  0.2343
  237MOL0     C31921  10.135   9.203   7.750  0.6107  0.0229  0.4665
  237MOL0     C31922  10.120   9.059   7.816  0.1605 -0.8395 -0.2049
  237MOL0     C31923  10.244   8.969   7.801  0.5673  0.3411 -0.1538
  237MOL0     C31924  10.206   8.830   7.839 -0.1729 -1.0441  0.2669
  237MOL0     C31925  10.171   8.717   7.844 -0.4578  0.5749  0.0509
  237MOL0     C31926   9.932   9.082   7.391 -0.9428 -1.0411  0.1136
  237MOL0     C31927   9.812   9.113   7.320  0.6211 -0.7064 -0.1419
  237MOL0     H31928   9.431   9.394   7.105  3.4453 -1.5564 -2.0776
  237MOL0     H31929   9.208   9.379   7.031 -0.6042 -0.0145  0.6666
  237MOL0     H31930   9.003   8.996   6.926 -0.8122 -0.2401 -1.1675
  237MOL0     H31931   8.931   9.040   7.076  1.6407  1.2372  0.4641
  237MOL0     H31932   8.733   9.088   6.947 -0.0195 -1.1322 -2.7939
  237MOL0     H31933   8.812   9.234   6.917 -3.8677 -0.3373 -3.6328
  237MOL0     H31934   8.707   9.107   6.719  0.1920  1.5844  0.1577
  237MOL0     H31935   8.868   9.173   6.701 -0.0676  0.8012  1.8130
  237MOL0     H31936   8.949   8.918   6.757  0.5644 -1.4958 -2.3377
  237MOL0     H31937   8.779   8.869   6.782 -1.7918 -1.8753 -2.4877
  237MOL0     H31938   8.751   8.948   6.529  1.0611 -1.8302 -5.0897
  237MOL0     H31939   8.922   8.956   6.532  0.7634  2.1102  2.8560
  237MOL0     H31940   8.732   8.719   6.598  1.6522  0.0969  2.5693
  237MOL0     H31941   8.783   8.742   6.440  1.4621 -0.0022 -1.0330
  237MOL0     H31942   9.031   8.693   6.541  1.1784 -3.7554  1.1313
  237MOL0     H31943   8.950   8.687   6.702 -0.0746  1.3249  0.8235
  237MOL0     H31944   8.904   8.516   6.464  0.4418  2.0631 -0.3880
  237MOL0     H31945   8.860   8.479   6.635 -0.9566  2.7117  0.7199
  237MOL0     H31946   9.050   8.369   6.797 -3.1227 -1.7508 -3.1239
  237MOL0     H31947   9.408   8.289   6.801  0.8675 -0.3285 -1.0050
  237MOL0     H31948   9.245   8.279   6.890 -1.2633 -1.3785 -1.9075
  237MOL0     H31949   9.368   8.089   6.702 -0.4413  1.7986 -3.1958
  237MOL0     H31950   9.194   8.112   6.702  1.3445  0.7480 -1.9449
  237MOL0     H31951   9.277   7.929   6.865  0.8870 -0.1565  0.1000
  237MOL0     H31952   9.205   8.065   6.961  1.3250 -0.0090  2.3993
  237MOL0     H31953   9.423   8.145   7.030  0.2312  0.4628 -0.0580
  237MOL0     H31954   9.515   8.057   6.907 -0.4188  3.8722  0.4276
  237MOL0     H31955   9.469   7.723   7.177  0.9986  0.2869 -0.0188
  237MOL0     H31956   9.472   7.621   7.459 -1.1329  1.8255  3.7949
  237MOL0     H31957   9.300   7.598   7.481 -1.4506  1.8487 -1.8612
  237MOL0     H31958   9.375   7.542   7.329  1.3899 -0.4859 -0.2986
  237MOL0     H31959   8.905   7.844   7.576 -0.3750 -4.1099  0.4500
  237MOL0     H31960   8.752   7.779   7.749  0.1172 -0.0465  0.7130
  237MOL0     H31961   8.889   7.816   8.201 -1.2945 -0.8966 -0.6880
  237MOL0     H31962   8.810   7.959   8.133  2.0157  0.4096 -0.7749
  237MOL0     H31963   8.674   7.846   8.323  0.6770 -1.0723  0.6859
  237MOL0     H31964   8.587   7.849   8.187 -0.8737 -0.5148  5.0513
  237MOL0     H31965   8.665   7.629   8.346  1.9570 -0.0502 -0.6842
  237MOL0     H31966   8.735   7.596   8.185 -3.4950 -2.4994 -1.3220
  237MOL0     H31967   8.459   7.676   8.250  2.9049  3.0880 -1.3659
  237MOL0     H31968   8.510   7.626   8.092  0.7087  0.8140  0.4141
  237MOL0     H31969   8.530   7.428   8.321  0.0350 -0.5517  0.1231
  237MOL0     H31970   8.557   7.395   8.152 -2.1033 -1.9305 -0.5368
  237MOL0     H31971   8.286   7.503   8.208 -1.4490 -1.0252  1.0940
  237MOL0     H31972   8.337   7.367   8.099 -0.0980 -0.5444  0.4383
  237MOL0     H31973   8.352   7.213   8.318 -3.4392 -2.5306  0.0058
  237MOL0     H31974   8.205   7.265   8.247 -1.1330  0.1942 -0.2884
  237MOL0     H31975   8.165   7.437   8.409 -1.4014 -0.6842  0.3334
  237MOL0     H31976   8.320   7.437   8.480 -0.2697 -1.0317  1.8126
  237MOL0     H31977   9.036   7.924   8.046  1.2401 -0.6188  0.7848
  237MOL0     H31978   9.196   7.980   7.867 -0.6263  1.2792  2.5302
  237MOL0     H31979   9.174   8.075   7.374 -1.2662 -2.3709  1.2408
  237MOL0     H31980   9.279   8.088   7.149  2.0116 -0.0323 -0.2572
  237MOL0     H31981   9.173   8.962   7.088  0.1404 -0.2128  1.4657
  237MOL0     H31982   9.417   8.975   7.168  0.0490  0.4075  1.0169
  237MOL0     H31983   9.754   9.405   7.488 -0.9389  0.1171  0.5166
  237MOL0     H31984   9.987   9.360   7.566  1.7959  1.2264 -2.5841
  237MOL0     H31985  10.292   9.171   7.625 -0.7661  0.3057  0.5082
  237MOL0     H31986  10.197   9.311   7.577 -1.0393  0.7759  2.5456
  237MOL0     H31987  10.037   9.253   7.747  0.7913  0.3592  0.0729
  237MOL0     H31988  10.193   9.267   7.818 -2.6634  0.8151  2.7975
  237MOL0     H31989  10.035   8.994   7.791 -1.5787  1.0261  0.5271
  237MOL0     H31990  10.091   9.081   7.919 -0.8660  1.2322 -0.8827
  237MOL0     H31991  10.321   8.998   7.874  1.3483 -3.3407  0.6777
  237MOL0     H31992  10.293   8.977   7.703  0.9673 -0.7047 -0.0555
  237MOL0     H31993  10.109   8.630   7.852 -2.4773  2.0607  1.8844
  237MOL0     H31994   9.993   8.995   7.370  1.0113  0.3885 -0.4537
  237MOL0     H31995   9.771   9.033   7.259  1.8998 -2.1067  0.7402
  238MOL0     O31996   0.415  11.433  10.404 -0.2975  0.4142 -0.8475
  238MOL0     C31997   0.512  11.472  10.333  0.9697 -0.5891 -0.5829
  238MOL0     O31998   0.500  11.521  10.206 -0.0396  0.0561 -0.0640
  238MOL0     C31999   0.378  11.560  10.157 -0.4375  0.0436  0.4140
  238MOL0     C32000   0.259  11.593  10.219  0.0289  1.1250  0.1097
  238MOL0     C32001   0.146  11.640  10.159 -0.6710 -0.0737  0.5317
  238MOL0     C32002   0.151  11.666  10.028 -0.0470 -0.0419  0.1993
  238MOL0     O32003   0.036  11.720   9.975  0.5793  0.7147  0.3997
  238MOL0     C32004   0.044  11.861   9.959 -0.7039 -0.0744 -0.0458
  238MOL0     C32005  -0.095  11.922   9.986 -1.1379  0.2080  1.1028
  238MOL0     C32006  -0.086  12.068   9.957 -0.1267 -0.4555 -0.3102
  238MOL0     C32007  -0.234  12.125   9.946 -1.2284  0.3669  0.0052
  238MOL0     C32008  -0.228  12.281   9.925  0.4869  0.4708 -0.2022
  238MOL0     C32009  -0.188  12.321   9.782  0.2408 -0.6775 -0.2267
  238MOL0     C32010  -0.163  12.476   9.749  1.4491  0.1625  0.8358
  238MOL0     C32011  -0.295  12.552   9.721  0.2854 -0.0560 -0.2640
  238MOL0     N32012  -0.270  12.675   9.647 -0.0619  0.3631  0.0353
  238MOL0     C32013  -0.186  12.774   9.687  0.4012  0.0991 -0.1660
  238MOL0     C32014  -0.225  12.873   9.601  0.7006  0.3463 -0.3806
  238MOL0     C32015  -0.187  13.011   9.605  0.7700 -0.1920  0.0263
  238MOL0     C32016  -0.077  13.056   9.508  0.2982  0.4851 -0.1679
  238MOL0     C32017  -0.068  13.213   9.502  0.2584  0.0464 -0.4383
  238MOL0     C32018  -0.057  13.288   9.646  0.8483 -0.4257 -0.3192
  238MOL0     O32019   0.038  13.218   9.720 -0.1314  0.9168 -0.2964
  238MOL0     C32020   0.072  13.262   9.849 -0.0154  1.3058 -0.1900
  238MOL0     C32021   0.070  13.400   9.887 -1.2556  0.8438  0.6413
  238MOL0     C32022   0.097  13.433  10.025  0.5895 -0.7711  0.5897
  238MOL0     C32023   0.083  13.585  10.056 -0.3757  0.5620 -0.0435
  238MOL0     C32024   0.125  13.333  10.115 -0.2323 -0.4063  0.3173
  238MOL0     C32025   0.151  13.365  10.260  0.3319 -0.1378  0.4543
  238MOL0     O32026   0.117  13.265  10.346  0.3514  0.5641 -0.2895
  238MOL0     C32027   0.152  13.283  10.480 -0.2218 -0.5180  0.1969
  238MOL0     C32028   0.224  13.182  10.539 -0.5285 -0.5366  0.2011
  238MOL0     C32029   0.277  13.199  10.665  0.3854  0.3675 -0.6543
  238MOL0     C32030   0.252  13.317  10.736 -0.4537  0.2549 -1.4112
  238MOL0     O32031   0.269  13.335  10.870  0.5513 -0.4295 -0.6240
  238MOL0     C32032   0.350  13.240  10.937  0.6923  0.0836 -0.1113
  238MOL0     C32033   0.317  13.253  11.080 -0.7913 -1.0528 -0.3390
  238MOL0     C32034   0.366  13.154  11.174  0.0640 -0.1909 -0.0520
  238MOL0     C32035   0.503  13.196  11.219  0.0076  0.7297  0.6094
  238MOL0     C32036   0.599  13.075  11.219 -0.6113 -0.3722 -0.1076
  238MOL0     C32037   0.737  13.096  11.283  0.7234 -0.2370  0.2471
  238MOL0     C32038   0.829  13.188  11.196 -0.1551 -0.1256 -0.7359
  238MOL0     C32039   0.979  13.176  11.254  0.6980 -0.0466 -0.7724
  238MOL0    Cl32040   1.090  13.261  11.136  0.0854 -0.2666 -0.4567
  238MOL0     C32041   0.156  13.412  10.679 -1.3309  0.4079 -0.1615
  238MOL0     C32042   0.126  13.398  10.550  0.8573  0.2128  0.1716
  238MOL0     O32043   0.226  13.459  10.277 -0.5993 -0.7604  0.4788
  238MOL0     C32044   0.120  13.192  10.080 -0.6678 -0.1958  0.0094
  238MOL0     C32045   0.103  13.158   9.944  0.1885  0.3804 -0.0520
  238MOL0     N32046  -0.333  12.837   9.519 -0.5502  0.8018  0.8892
  238MOL0     N32047  -0.352  12.720   9.549 -0.1100  0.2966  0.2017
  238MOL0     C32048   0.267  11.625   9.952 -0.8684 -0.3432  0.4814
  238MOL0     C32049   0.376  11.576  10.017  0.2902  1.1894 -0.0296
  238MOL0     C32050   0.635  11.480  10.401  0.5044 -0.0806 -1.3258
  238MOL0     C32051   0.759  11.468  10.331 -1.0722  0.1356  0.1428
  238MOL0     C32052   0.886  11.485  10.387  0.1497  0.2654 -0.6950
  238MOL0     C32053   0.893  11.499  10.527  0.9109 -1.4779 -0.3455
  238MOL0     O32054   1.015  11.493  10.592 -0.1179 -0.3142 -0.3617
  238MOL0     C32055   1.108  11.588  10.546 -0.1832  0.7882 -0.5264
  238MOL0     C32056   1.224  11.611  10.655  0.3323  0.1788  0.4972
  238MOL0     C32057   1.170  11.656  10.786 -0.3018 -1.0261  0.9952
  238MOL0     C32058   1.284  11.662  10.883  0.5479  0.0650 -0.3773
  238MOL0     C32059   1.379  11.761  10.848  0.0711  0.8883 -0.5014
  238MOL0     C32060   1.476  11.832  10.811 -0.9347 -0.1053  0.3017
  238MOL0     C32061   0.780  11.523  10.599 -1.0971 -0.0240 -0.5993
  238MOL0     C32062   0.651  11.518  10.537  0.7347 -0.4922 -0.8822
  238MOL0     H32063   0.272  11.612  10.326 -0.8523  1.5420  0.1573
  238MOL0     H32064   0.056  11.666  10.214 -0.1502 -2.5607  2.8088
  238MOL0     H32065   0.108  11.918  10.027 -2.1187  1.5124  0.0307
  238MOL0     H32066   0.077  11.899   9.861 -1.6160  1.8410  0.3422
  238MOL0     H32067  -0.174  11.878   9.925 -1.1098  2.5740 -0.7833
  238MOL0     H32068  -0.117  11.907  10.092 -0.1304  0.6520  1.3827
  238MOL0     H32069  -0.031  12.127  10.031 -1.9089  1.3232 -0.3172
  238MOL0     H32070  -0.030  12.087   9.864  1.0119  0.2732  0.5022
  238MOL0     H32071  -0.283  12.090   9.855  4.2396 -0.3511 -3.0906
  238MOL0     H32072  -0.280  12.081  10.035  0.0148 -2.3311 -0.5916
  238MOL0     H32073  -0.322  12.327   9.954  0.5831 -0.0350  0.9656
  238MOL0     H32074  -0.143  12.313   9.986  1.5810  0.7992 -1.8275
  238MOL0     H32075  -0.088  12.278   9.769  2.3809  0.9924  6.6824
  238MOL0     H32076  -0.260  12.279   9.712  0.4652 -1.9215  0.2659
  238MOL0     H32077  -0.092  12.529   9.813  2.2641 -0.8315  0.7658
  238MOL0     H32078  -0.107  12.475   9.655  0.3105 -0.5642  0.1394
  238MOL0     H32079  -0.339  12.566   9.820  0.3569  0.2190 -0.2722
  238MOL0     H32080  -0.351  12.488   9.652  2.6450 -0.0667 -2.2783
  238MOL0     H32081  -0.107  12.774   9.761  3.4591  0.1183 -3.1653
  238MOL0     H32082  -0.283  13.060   9.588 -1.4288 -3.9673  0.4568
  238MOL0     H32083  -0.157  13.030   9.709 -3.8550 -1.5981  1.8797
  238MOL0     H32084  -0.099  13.014   9.410 -0.6849 -2.6472  1.2735
  238MOL0     H32085   0.017  13.003   9.529 -0.1516 -0.3836 -0.3082
  238MOL0     H32086  -0.163  13.240   9.456  0.6360  0.1037 -1.1946
  238MOL0     H32087   0.019  13.245   9.444  1.5812 -0.6471  1.0692
  238MOL0     H32088  -0.156  13.295   9.693  1.6205  4.2664  1.0845
  238MOL0     H32089  -0.016  13.389   9.648  1.2063 -0.4770  4.0033
  238MOL0     H32090   0.064  13.479   9.813 -2.6204  1.7611  1.6774
  238MOL0     H32091   0.181  13.634  10.051  2.8978 -5.2165 -1.1814
  238MOL0     H32092   0.006  13.635   9.997 -3.1856 -1.3385  1.7641
  238MOL0     H32093   0.046  13.606  10.157 -3.3568 -2.9462 -0.1842
  238MOL0     H32094   0.251  13.097  10.476 -2.5966  0.8586 -2.8057
  238MOL0     H32095   0.337  13.113  10.693  0.4532  0.2921 -1.0208
  238MOL0     H32096   0.332  13.134  10.919  5.8385 -0.6712 -2.4623
  238MOL0     H32097   0.456  13.251  10.912  0.3249 -0.1093 -1.8771
  238MOL0     H32098   0.347  13.355  11.105 -1.9740 -0.5334 -0.9357
  238MOL0     H32099   0.208  13.244  11.085 -0.7812 -0.5573  1.4165
  238MOL0     H32100   0.379  13.058  11.124  2.5146  1.6911 -3.4645
  238MOL0     H32101   0.313  13.138  11.268  1.4183 -0.0536  0.7599
  238MOL0     H32102   0.547  13.273  11.156 -1.0182  1.6030  0.9400
  238MOL0     H32103   0.497  13.228  11.324  0.5866 -1.8898  1.5407
  238MOL0     H32104   0.602  13.052  11.112 -3.3189  3.3976 -1.2160
  238MOL0     H32105   0.559  12.995  11.283  1.5753 -1.6999 -0.2982
  238MOL0     H32106   0.708  13.132  11.383  0.6665 -1.5593  0.7302
  238MOL0     H32107   0.780  12.996  11.290 -3.5410 -2.3335  0.1155
  238MOL0     H32108   0.791  13.290  11.209 -0.3489 -0.2528 -0.2937
  238MOL0     H32109   0.822  13.161  11.090 -0.9405  0.3797 -0.8200
  238MOL0     H32110   1.018  13.074  11.266  2.4335  0.8164  2.0267
  238MOL0     H32111   0.994  13.205  11.359 -0.0643 -3.1537  0.3050
  238MOL0     H32112   0.124  13.495  10.741 -0.3184  1.6524 -1.2479
  238MOL0     H32113   0.064  13.474  10.503 -2.2694 -2.1486  0.1262
  238MOL0     H32114   0.125  13.107  10.147 -1.4880 -0.2081  0.0704
  238MOL0     H32115   0.122  13.055   9.916  1.3274  1.1484 -2.3084
  238MOL0     H32116   0.260  11.634   9.844 -4.4747 -2.1452  0.4140
  238MOL0     H32117   0.462  11.532   9.966 -0.2371  1.8868 -1.6078
  238MOL0     H32118   0.759  11.441  10.226  1.1818 -2.3400  0.6557
  238MOL0     H32119   0.975  11.474  10.326 -0.3990 -0.0260 -1.4570
  238MOL0     H32120   1.160  11.557  10.454  0.0391  2.0628 -0.8446
  238MOL0     H32121   1.051  11.677  10.519  0.1128  0.7113 -1.4550
  238MOL0     H32122   1.289  11.686  10.610 -0.2425  1.1555  1.2403
  238MOL0     H32123   1.278  11.518  10.672  0.5021  0.7261  3.7628
  238MOL0     H32124   1.095  11.580  10.810  2.7143 -3.6916  2.8747
  238MOL0     H32125   1.119  11.752  10.795  1.0128 -0.1323 -0.6239
  238MOL0     H32126   1.336  11.566  10.889 -0.9848 -0.7955 -0.3357
  238MOL0     H32127   1.241  11.678  10.982  2.1720 -0.2880  0.4023
  238MOL0     H32128   1.571  11.883  10.815  0.4713 -2.5827  2.9819
  238MOL0     H32129   0.787  11.543  10.705  2.4752  0.5385 -0.8088
  238MOL0     H32130   0.566  11.537  10.602 -0.1035 -1.4846 -1.6543
  239MOL0     O32131  11.435   0.538   8.324  0.5283 -0.3368  0.4976
  239MOL0     C32132  11.457   0.452   8.408 -0.1290 -0.0324 -0.4568
  239MOL0     O32133  11.524   0.468   8.528 -0.2865  0.8139 -0.5557
  239MOL0     C32134  11.565   0.583   8.574 -0.1865 -0.0259  0.0189
  239MOL0     C32135  11.694   0.590   8.626 -0.7371 -0.1589  0.5103
  239MOL0     C32136  11.759   0.706   8.666 -0.0282  0.0959 -0.8248
  239MOL0     C32137  11.690   0.832   8.662  0.9454  0.6632 -0.2870
  239MOL0     O32138  11.750   0.950   8.688 -0.9872  0.2888 -0.5416
  239MOL0     C32139  11.885   0.967   8.643  0.0318  0.8784 -0.9213
  239MOL0     C32140  11.927   1.112   8.658 -0.3067  0.2126  0.6136
  239MOL0     C32141  12.075   1.128   8.624 -0.4127 -0.2054  0.6061
  239MOL0     C32142  12.132   1.264   8.632 -0.3250 -0.5583  0.1170
  239MOL0     C32143  12.107   1.327   8.767 -0.4249  0.0457  0.5230
  239MOL0     C32144  12.228   1.392   8.841 -0.4150  0.9963 -0.3330
  239MOL0     C32145  12.225   1.416   9.001 -0.4424 -0.3629 -0.6975
  239MOL0     C32146  12.342   1.509   9.055  0.0443  0.3165  0.2483
  239MOL0     N32147  12.298   1.646   9.028  0.9886  0.5881  0.6187
  239MOL0     C32148  12.201   1.719   9.102 -0.7164 -0.7751  0.6168
  239MOL0     C32149  12.209   1.838   9.038 -0.2896 -0.4757 -0.5972
  239MOL0     C32150  12.119   1.956   9.059  1.2261 -0.0303 -0.9314
  239MOL0     C32151  12.161   2.030   9.184  0.5594 -0.4317 -0.8243
  239MOL0     C32152  12.294   2.107   9.183  0.3908 -0.2484  0.5536
  239MOL0     C32153  12.273   2.242   9.124  0.4754 -0.4484 -0.0375
  239MOL0     O32154  12.388   2.316   9.121 -0.7252  0.0034  0.0013
  239MOL0     C32155  12.508   2.297   9.047 -0.1551  0.1492 -1.2723
  239MOL0     C32156  12.634   2.365   9.081  1.4413  0.3430 -0.3640
  239MOL0     C32157  12.748   2.325   9.035 -0.2088 -0.1551  0.3620
  239MOL0     C32158  12.873   2.390   9.097 -0.1012 -0.1296 -1.3367
  239MOL0     C32159  12.752   2.238   8.924  0.5526  1.0940  0.0290
  239MOL0     C32160  12.875   2.199   8.839  0.2482 -0.1958 -0.5508
  239MOL0     O32161  12.849   2.118   8.730  0.5865 -0.5117  0.0332
  239MOL0     C32162  12.954   2.044   8.674 -0.6542 -0.3509  0.1489
  239MOL0     C32163  12.948   2.029   8.538 -0.3305  0.1415  0.1913
  239MOL0     C32164  13.017   1.927   8.480  0.2037  0.5201  0.2669
  239MOL0     C32165  13.098   1.836   8.550 -0.5949 -0.6153 -0.3363
  239MOL0     O32166  13.174   1.736   8.498  0.0087  0.1451  0.7521
  239MOL0     C32167  13.217   1.750   8.361 -0.7978  0.4607  1.0094
  239MOL0     C32168  13.359   1.699   8.339  0.6653 -0.1995  0.0133
  239MOL0     C32169  13.453   1.777   8.428  0.4253  0.5030 -0.7460
  239MOL0     C32170  13.594   1.729   8.419  0.3404 -0.2047  0.2198
  239MOL0     C32171  13.626   1.597   8.498  0.3116  0.8413  0.7034
  239MOL0     C32172  13.648   1.644   8.644  0.5075  1.1019  0.6496
  239MOL0     C32173  13.716   1.528   8.724  0.6787 -0.6240 -0.8135
  239MOL0     C32174  13.787   1.577   8.848 -0.3066  0.7325 -0.0415
  239MOL0    Cl32175  13.922   1.688   8.825  0.4595 -0.7383  0.1281
  239MOL0     C32176  13.128   1.864   8.682 -0.8461  0.2270 -0.2711
  239MOL0     C32177  13.045   1.957   8.742  0.5167  0.1039  0.0016
  239MOL0     O32178  12.988   2.237   8.871 -0.0211 -0.1700  0.1065
  239MOL0     C32179  12.637   2.165   8.886  0.5037 -0.0446 -0.2685
  239MOL0     C32180  12.521   2.190   8.957 -0.1626 -0.4408 -0.3124
  239MOL0     N32181  12.304   1.842   8.937 -0.4147 -0.6016 -0.0303
  239MOL0     N32182  12.343   1.720   8.924 -1.3011 -0.0780 -0.0731
  239MOL0     C32183  11.560   0.831   8.629  1.7907 -0.1264 -1.0427
  239MOL0     C32184  11.494   0.708   8.581  0.1157 -0.1499 -0.2037
  239MOL0     C32185  11.408   0.312   8.376  0.4074 -0.2237  0.3523
  239MOL0     C32186  11.422   0.194   8.456  1.0924  0.0228 -0.1221
  239MOL0     C32187  11.358   0.071   8.428 -0.2312  0.5761  0.4042
  239MOL0     C32188  11.283   0.066   8.313 -0.3904 -0.7966  0.5519
  239MOL0     O32189  11.206  -0.042   8.280  0.1219 -0.8661  0.6661
  239MOL0     C32190  11.265  -0.172   8.273 -0.3893 -0.1190  0.4569
  239MOL0     C32191  11.200  -0.252   8.164 -0.5105  0.3929  0.3849
  239MOL0     C32192  11.258  -0.395   8.152 -0.0610 -0.2775 -0.1809
  239MOL0     C32193  11.294  -0.418   8.007  0.0289 -0.7536 -0.0662
  239MOL0     C32194  11.398  -0.321   7.957  0.3405 -0.5871 -0.2011
  239MOL0     C32195  11.479  -0.241   7.913  0.0269  0.9087  1.1185
  239MOL0     C32196  11.262   0.176   8.228  0.4474 -0.5641 -0.5033
  239MOL0     C32197  11.322   0.296   8.253 -0.6625  0.3102 -1.4780
  239MOL0     H32198  11.734   0.491   8.646  0.0750 -0.1774 -1.0998
  239MOL0     H32199  11.866   0.705   8.684 -0.1435 -2.4978  0.1746
  239MOL0     H32200  11.948   0.907   8.709 -0.0099  0.8640 -0.8953
  239MOL0     H32201  11.893   0.930   8.540  0.3914 -2.2561  0.1269
  239MOL0     H32202  11.863   1.162   8.584 -3.1415 -2.4478  1.0553
  239MOL0     H32203  11.901   1.149   8.758  2.1953  2.0101  0.6921
  239MOL0     H32204  12.113   1.068   8.707  1.9415  0.3920  0.0372
  239MOL0     H32205  12.086   1.086   8.524  0.0049  0.2970  0.4302
  239MOL0     H32206  12.238   1.266   8.606  1.0985 -1.3818  4.8660
  239MOL0     H32207  12.081   1.325   8.557 -2.0090  0.4104  1.9656
  239MOL0     H32208  12.039   1.408   8.741  1.9224  1.6892 -0.9958
  239MOL0     H32209  12.056   1.262   8.837 -0.9013  0.1317  0.2614
  239MOL0     H32210  12.316   1.330   8.821  0.7867  3.1549 -2.2869
  239MOL0     H32211  12.239   1.492   8.798 -0.7784  1.2940  0.2525
  239MOL0     H32212  12.128   1.461   9.023  1.3856  1.9464  3.7809
  239MOL0     H32213  12.230   1.322   9.057  1.6221 -0.0346 -0.2579
  239MOL0     H32214  12.439   1.494   9.006  1.2015 -3.2051  3.1665
  239MOL0     H32215  12.364   1.492   9.161  0.6973  5.2697  1.1570
  239MOL0     H32216  12.141   1.691   9.188  0.0273  0.0173  1.4156
  239MOL0     H32217  12.122   2.022   8.972 -1.3004  2.1786  0.4838
  239MOL0     H32218  12.018   1.918   9.080  1.0797 -0.7004 -2.6746
  239MOL0     H32219  12.168   1.965   9.272  0.8166 -2.4372 -2.2375
  239MOL0     H32220  12.071   2.090   9.201 -0.4040 -2.6580  3.3210
  239MOL0     H32221  12.360   2.049   9.118 -1.9368 -0.6290 -1.6114
  239MOL0     H32222  12.326   2.118   9.288  1.6154 -4.7731  0.8627
  239MOL0     H32223  12.202   2.291   9.191  0.0814 -0.8167 -0.1814
  239MOL0     H32224  12.228   2.233   9.024  0.6295 -1.1773 -0.0446
  239MOL0     H32225  12.617   2.447   9.151 -0.2509  0.8667 -1.3104
  239MOL0     H32226  12.941   2.310   9.126  0.2350  0.4027 -0.6494
  239MOL0     H32227  12.914   2.456   9.020  1.8803 -0.4402 -0.5907
  239MOL0     H32228  12.847   2.439   9.191 -0.8843 -3.1894  0.1531
  239MOL0     H32229  12.886   2.090   8.473  1.4947  0.2611 -1.5509
  239MOL0     H32230  13.019   1.921   8.371  1.1393  0.8229  0.2536
  239MOL0     H32231  13.135   1.700   8.308 -0.0221 -1.6896  1.7626
  239MOL0     H32232  13.222   1.857   8.341 -0.1829  0.1805 -0.4384
  239MOL0     H32233  13.365   1.591   8.358 -0.9993  0.1408  3.0336
  239MOL0     H32234  13.386   1.713   8.234 -1.7064  3.1596 -0.3100
  239MOL0     H32235  13.424   1.763   8.532 -2.0041 -0.9436 -1.5417
  239MOL0     H32236  13.461   1.884   8.404  3.6034 -0.1048 -3.1574
  239MOL0     H32237  13.617   1.714   8.313  1.1126 -3.2752  0.7164
  239MOL0     H32238  13.665   1.808   8.444  1.6560 -0.9869 -0.8676
  239MOL0     H32239  13.722   1.552   8.471  0.0387 -1.3820  3.0836
  239MOL0     H32240  13.543   1.528   8.485  0.8529  0.0714  1.2433
  239MOL0     H32241  13.718   1.727   8.638 -0.4219  1.8227 -0.7751
  239MOL0     H32242  13.554   1.683   8.686  1.3139  2.2445  1.4285
  239MOL0     H32243  13.791   1.481   8.660  0.8054  1.0893 -1.9740
  239MOL0     H32244  13.646   1.450   8.759  1.8458 -1.7504 -0.9195
  239MOL0     H32245  13.821   1.488   8.900 -2.4805 -0.0844  0.1009
  239MOL0     H32246  13.717   1.611   8.925 -0.7454 -2.4348  1.1084
  239MOL0     H32247  13.213   1.826   8.738  0.3008 -0.0129 -2.0751
  239MOL0     H32248  13.053   1.972   8.849 -1.3012  3.7915 -0.2118
  239MOL0     H32249  12.637   2.090   8.808 -0.8636 -1.1765  0.7819
  239MOL0     H32250  12.440   2.128   8.920 -1.6183  1.6083 -0.7775
  239MOL0     H32251  11.504   0.924   8.628  0.1591 -1.0574  0.0255
  239MOL0     H32252  11.391   0.717   8.550 -0.0392  0.1355  0.3796
  239MOL0     H32253  11.497   0.185   8.534  0.8390  3.2168  0.6222
  239MOL0     H32254  11.382  -0.012   8.493  2.8958  0.9178 -0.1851
  239MOL0     H32255  11.369  -0.150   8.247 -0.6844  2.0758  0.9648
  239MOL0     H32256  11.271  -0.225   8.369  0.9259 -1.2041 -0.1843
  239MOL0     H32257  11.198  -0.196   8.070 -0.5344 -1.0911 -0.5382
  239MOL0     H32258  11.100  -0.263   8.206 -0.5768  0.6572  0.3002
  239MOL0     H32259  11.181  -0.466   8.180  2.6185 -3.7515 -0.9156
  239MOL0     H32260  11.346  -0.406   8.216  2.1925  0.4499 -2.9574
  239MOL0     H32261  11.202  -0.406   7.950  0.5603  0.3405 -0.7295
  239MOL0     H32262  11.334  -0.519   7.992  1.0993 -0.1033 -2.1105
  239MOL0     H32263  11.542  -0.182   7.850  3.7901 -2.9967  0.7516
  239MOL0     H32264  11.199   0.173   8.140  0.1594  1.3513 -0.3991
  239MOL0     H32265  11.298   0.386   8.197 -3.7877  1.8058  1.8166
  240MOL0     O32266   9.675   5.566   0.951 -0.4911  0.5448 -0.2117
  240MOL0     C32267   9.600   5.483   1.001  0.1391  0.1935  0.3530
  240MOL0     O32268   9.468   5.501   1.026  0.9601  0.5637  0.7168
  240MOL0     C32269   9.398   5.617   0.991 -0.0060 -0.5916  0.5380
  240MOL0     C32270   9.307   5.679   1.085 -0.0684 -0.3015  0.4861
  240MOL0     C32271   9.222   5.785   1.044  0.4512 -0.1711 -0.1131
  240MOL0     C32272   9.230   5.837   0.910 -0.3881  0.0211 -0.8570
  240MOL0     O32273   9.156   5.937   0.875  0.2212 -0.3240  0.4811
  240MOL0     C32274   9.227   6.053   0.835 -0.2967 -0.7362 -0.3319
  240MOL0     C32275   9.115   6.166   0.824 -0.4167 -0.4243 -0.3528
  240MOL0     C32276   9.161   6.300   0.884  0.0008 -1.5099 -0.0796
  240MOL0     C32277   9.092   6.328   1.018 -0.1537 -0.4675  0.3125
  240MOL0     C32278   9.145   6.457   1.071  0.4908 -0.6632 -0.1370
  240MOL0     C32279   9.087   6.512   1.205 -0.2562  0.5050  0.9121
  240MOL0     C32280   9.136   6.659   1.219  0.3409 -0.1633  1.1495
  240MOL0     C32281   9.074   6.746   1.329  0.4348  0.2902  0.5216
  240MOL0     N32282   9.098   6.691   1.467  0.5602 -0.4662 -0.5748
  240MOL0     C32283   9.022   6.590   1.525 -0.2187  0.3366  0.2731
  240MOL0     C32284   9.082   6.576   1.647  0.4969 -0.6184  0.5996
  240MOL0     C32285   9.041   6.484   1.755 -0.3451 -0.1587  0.3734
  240MOL0     C32286   8.894   6.481   1.795 -0.1256  0.4793  1.1291
  240MOL0     C32287   8.809   6.386   1.717 -0.3683 -0.1651  0.1339
  240MOL0     C32288   8.672   6.380   1.769 -0.1645 -0.5615  0.0100
  240MOL0     O32289   8.609   6.258   1.721 -0.1744 -0.0738 -0.0718
  240MOL0     C32290   8.536   6.254   1.605  0.0686 -0.2762  0.3621
  240MOL0     C32291   8.413   6.321   1.594  0.2806  0.2155 -0.3091
  240MOL0     C32292   8.333   6.310   1.485 -0.3724 -0.0712 -0.3248
  240MOL0     C32293   8.198   6.377   1.481 -0.1595  0.2504  0.7451
  240MOL0     C32294   8.368   6.228   1.377 -0.0149 -0.0895  1.0504
  240MOL0     C32295   8.290   6.196   1.254 -0.2105 -0.3909 -0.8005
  240MOL0     O32296   8.150   6.207   1.253  0.8059  0.2528  0.7469
  240MOL0     C32297   8.087   6.182   1.129  0.3100 -0.6567 -0.6710
  240MOL0     C32298   8.080   6.278   1.030  0.9983  0.6048  0.3579
  240MOL0     C32299   7.972   6.267   0.935 -1.4739  0.1808  0.4232
  240MOL0     C32300   7.885   6.160   0.946  0.8728 -0.0563  0.4219
  240MOL0     O32301   7.772   6.154   0.877  0.6548 -1.0866  0.8986
  240MOL0     C32302   7.729   6.032   0.810 -0.3318  1.0799 -0.1146
  240MOL0     C32303   7.578   5.989   0.814  0.8153  0.2295  0.2719
  240MOL0     C32304   7.497   6.094   0.728 -0.2211 -0.5132 -0.9035
  240MOL0     C32305   7.354   6.104   0.771  0.3039  0.3626  0.9195
  240MOL0     C32306   7.278   5.967   0.748 -1.1211  0.1794  0.1228
  240MOL0     C32307   7.281   5.938   0.594  0.4220  0.4097  0.4050
  240MOL0     C32308   7.188   5.830   0.539  0.0536  0.0078 -0.7283
  240MOL0     C32309   7.041   5.883   0.550  0.5062 -0.1310  0.2061
  240MOL0    Cl32310   6.928   5.783   0.645 -0.3474 -0.1589  0.1848
  240MOL0     C32311   7.908   6.053   1.032 -0.3672  0.1689 -0.0228
  240MOL0     C32312   8.005   6.069   1.134 -0.2925  0.3006  0.0028
  240MOL0     O32313   8.352   6.129   1.175 -0.0885 -0.6596 -0.0500
  240MOL0     C32314   8.491   6.153   1.389  0.1450 -0.0175 -0.4386
  240MOL0     C32315   8.573   6.168   1.500 -0.0348 -0.3900 -0.6024
  240MOL0     N32316   9.201   6.652   1.652 -0.0745 -0.0403  0.0746
  240MOL0     N32317   9.207   6.719   1.539  0.0666 -0.4392  0.2566
  240MOL0     C32318   9.325   5.781   0.817  0.1724  0.3936 -0.5150
  240MOL0     C32319   9.399   5.670   0.856 -0.2692 -0.9533  1.3586
  240MOL0     C32320   9.651   5.351   1.026 -0.5549 -0.1051 -1.0669
  240MOL0     C32321   9.573   5.240   1.049  1.2895 -0.3368 -1.2759
  240MOL0     C32322   9.626   5.115   1.079  0.3074 -0.5879  0.0618
  240MOL0     C32323   9.771   5.099   1.070  0.2970  0.0217  0.1010
  240MOL0     O32324   9.838   4.981   1.095 -0.2665  0.3178  0.4715
  240MOL0     C32325   9.767   4.863   1.145 -1.1789 -0.4291 -0.7730
  240MOL0     C32326   9.754   4.877   1.299 -0.2213 -0.2650 -0.5213
  240MOL0     C32327   9.654   4.776   1.363 -0.6661 -0.0638 -0.2676
  240MOL0     C32328   9.731   4.648   1.419  0.1156 -0.8206  0.3260
  240MOL0     C32329   9.666   4.519   1.454 -0.4988 -0.7295 -0.6076
  240MOL0     C32330   9.623   4.417   1.497  1.0960 -0.1488  0.6968
  240MOL0     C32331   9.848   5.201   1.029 -0.0928  0.3535  0.0015
  240MOL0     C32332   9.788   5.329   1.022  0.4221  1.0282  0.2941
  240MOL0     H32333   9.288   5.651   1.188 -3.3182 -0.4609 -0.0421
  240MOL0     H32334   9.149   5.825   1.113 -0.9197 -1.4333 -0.7687
  240MOL0     H32335   9.295   6.085   0.915 -0.3114 -0.9149 -0.2486
  240MOL0     H32336   9.282   6.047   0.741 -2.0205  2.7758 -1.7760
  240MOL0     H32337   9.089   6.180   0.718 -0.1842  0.0244 -0.3536
  240MOL0     H32338   9.021   6.130   0.866 -0.9358 -0.5925 -1.5921
  240MOL0     H32339   9.268   6.297   0.906  0.4432  1.3098 -1.3770
  240MOL0     H32340   9.138   6.378   0.811 -2.2511 -2.1417 -0.1105
  240MOL0     H32341   8.984   6.341   1.006 -0.3428  0.3489  2.5105
  240MOL0     H32342   9.113   6.243   1.083  1.4403 -2.4293 -2.5422
  240MOL0     H32343   9.254   6.448   1.079  0.6492  1.7291  1.3857
  240MOL0     H32344   9.131   6.527   0.988  2.6181  0.3279  0.2520
  240MOL0     H32345   8.978   6.509   1.202 -0.3267  2.6082 -0.6932
  240MOL0     H32346   9.121   6.443   1.283 -0.4894 -2.0986 -1.1532
  240MOL0     H32347   9.242   6.654   1.245  0.6138  0.9033  0.3123
  240MOL0     H32348   9.122   6.712   1.125 -0.7943 -0.1001  1.3418
  240MOL0     H32349   8.970   6.750   1.295  0.6991 -1.2664 -0.5589
  240MOL0     H32350   9.114   6.848   1.335  1.4233 -0.1669  2.3263
  240MOL0     H32351   8.929   6.544   1.492 -0.0094  1.1415 -1.4908
  240MOL0     H32352   9.074   6.385   1.722 -1.1404 -0.6509  0.9985
  240MOL0     H32353   9.102   6.510   1.842  1.6397  0.6064 -1.1853
  240MOL0     H32354   8.851   6.582   1.791 -2.5810 -0.5515 -0.5612
  240MOL0     H32355   8.900   6.440   1.896  0.7357 -3.5157 -0.3798
  240MOL0     H32356   8.859   6.289   1.715  1.7993  0.8777 -0.1757
  240MOL0     H32357   8.819   6.418   1.613  2.9438 -1.5180 -0.0884
  240MOL0     H32358   8.634   6.477   1.738  2.8302  0.9224  0.5619
  240MOL0     H32359   8.671   6.383   1.878 -0.1673 -1.7131  0.0574
  240MOL0     H32360   8.371   6.369   1.682 -2.3234  0.7154 -1.7386
  240MOL0     H32361   8.194   6.456   1.556 -2.1232 -0.6486  1.6508
  240MOL0     H32362   8.194   6.422   1.381 -1.8552  1.1215  1.1615
  240MOL0     H32363   8.121   6.300   1.491 -0.3606  0.3770  0.2402
  240MOL0     H32364   8.140   6.368   1.026 -1.1355  2.0839 -1.1979
  240MOL0     H32365   7.940   6.348   0.870 -1.7942 -0.8744 -0.7733
  240MOL0     H32366   7.738   6.053   0.703 -4.6501 -0.5971 -1.0161
  240MOL0     H32367   7.789   5.941   0.810 -1.7213  0.0551 -2.2980
  240MOL0     H32368   7.576   5.885   0.779  0.0800  0.4774 -0.4484
  240MOL0     H32369   7.548   5.977   0.918  1.2085 -2.9312  0.1249
  240MOL0     H32370   7.515   6.073   0.622  1.0011  1.9212 -1.2430
  240MOL0     H32371   7.537   6.195   0.739 -4.0883  1.0504  0.6475
  240MOL0     H32372   7.342   6.138   0.874 -3.8532  2.9470 -0.1749
  240MOL0     H32373   7.300   6.176   0.710 -3.1142 -2.4059  0.3331
  240MOL0     H32374   7.180   5.981   0.795 -0.9285 -2.1153  1.3377
  240MOL0     H32375   7.334   5.886   0.797 -0.3600 -1.9638 -3.8179
  240MOL0     H32376   7.248   6.026   0.537 -3.0495 -2.4874 -2.6120
  240MOL0     H32377   7.385   5.931   0.561  1.6047  3.4050  3.0316
  240MOL0     H32378   7.200   5.731   0.585 -0.1612 -0.7201 -2.1649
  240MOL0     H32379   7.210   5.816   0.432  0.4749 -2.4162 -0.3883
  240MOL0     H32380   7.001   5.878   0.448  0.4897  0.0699  0.2032
  240MOL0     H32381   7.032   5.990   0.571 -2.5176  0.0951 -1.6932
  240MOL0     H32382   7.830   5.977   1.034 -2.4943  2.2345 -0.0288
  240MOL0     H32383   8.029   5.996   1.211  1.2975 -1.8182 -2.3121
  240MOL0     H32384   8.522   6.077   1.318  0.6996 -1.6610  1.4624
  240MOL0     H32385   8.665   6.112   1.512 -0.2032 -0.4276  0.5987
  240MOL0     H32386   9.313   5.811   0.714 -2.3020  5.5221  0.9329
  240MOL0     H32387   9.467   5.622   0.787  1.0062  0.7353  1.3710
  240MOL0     H32388   9.466   5.246   1.034  1.7341 -0.1914 -5.2142
  240MOL0     H32389   9.558   5.033   1.100 -3.3389  2.2211  0.2238
  240MOL0     H32390   9.668   4.856   1.098 -1.4017 -0.7288 -0.2680
  240MOL0     H32391   9.827   4.771   1.138 -0.7591 -0.0621 -2.4575
  240MOL0     H32392   9.712   4.976   1.316  1.0021  0.5091 -1.7646
  240MOL0     H32393   9.845   4.873   1.359 -0.4886 -0.9836 -0.1472
  240MOL0     H32394   9.586   4.740   1.286 -0.0719  2.9903 -2.3538
  240MOL0     H32395   9.598   4.823   1.445 -1.7547  0.6693 -1.4080
  240MOL0     H32396   9.768   4.687   1.514 -0.0994 -0.7796  0.3921
  240MOL0     H32397   9.814   4.632   1.350  0.8437  1.7729  0.5240
  240MOL0     H32398   9.581   4.328   1.539  1.2866 -2.0595 -2.7795
  240MOL0     H32399   9.956   5.192   1.029  0.0781  0.8909  3.7585
  240MOL0     H32400   9.859   5.408   1.000 -0.8182  1.7071 -1.5008
  241MOL0     O32401   5.970   3.050   5.714 -0.8342 -0.6198 -0.8424
  241MOL0     C32402   5.928   3.000   5.615  0.1609  0.2020  0.0907
  241MOL0     O32403   5.968   2.874   5.559  0.4508 -0.0125 -0.7337
  241MOL0     C32404   6.099   2.824   5.579  1.1844 -0.3316 -0.0118
  241MOL0     C32405   6.211   2.903   5.610 -0.3025  0.4947  0.2137
  241MOL0     C32406   6.333   2.850   5.633  0.0180 -0.2774  0.4077
  241MOL0     C32407   6.361   2.718   5.618 -0.1159  0.4316  0.4257
  241MOL0     O32408   6.482   2.650   5.614 -0.1071  0.7806 -0.3704
  241MOL0     C32409   6.589   2.712   5.686 -0.5352 -0.3166  0.3677
  241MOL0     C32410   6.712   2.625   5.676 -0.1248  0.8243  0.1676
  241MOL0     C32411   6.745   2.612   5.524  0.6882 -0.7672 -0.1127
  241MOL0     C32412   6.774   2.749   5.452 -0.9192  1.4892  0.1207
  241MOL0     C32413   6.852   2.739   5.320 -0.0199 -0.2397  0.9535
  241MOL0     C32414   6.841   2.865   5.237  0.8164 -0.7098  0.4681
  241MOL0     C32415   6.949   2.867   5.125 -0.2316 -0.1397 -0.2256
  241MOL0     C32416   6.920   2.973   5.027  0.0834 -0.1711  0.7130
  241MOL0     N32417   6.853   2.912   4.912 -0.0342  0.1334  0.7901
  241MOL0     C32418   6.735   2.836   4.908  0.3915  0.2481 -0.1362
  241MOL0     C32419   6.747   2.770   4.791 -0.1765  0.3299  0.9717
  241MOL0     C32420   6.646   2.695   4.711  0.5197  0.7296 -0.5617
  241MOL0     C32421   6.563   2.778   4.617 -0.7083 -0.3587 -0.6611
  241MOL0     C32422   6.593   2.764   4.470 -0.9235 -0.2047  0.8097
  241MOL0     C32423   6.539   2.879   4.383 -0.0845  0.5544 -0.6745
  241MOL0     O32424   6.608   2.889   4.260 -0.6185  0.5213 -0.2406
  241MOL0     C32425   6.531   2.934   4.159  0.7231  0.0057 -0.1142
  241MOL0     C32426   6.562   2.882   4.029 -0.5532 -0.4705 -0.8879
  241MOL0     C32427   6.503   2.929   3.918  0.7513 -0.0152  0.6650
  241MOL0     C32428   6.533   2.861   3.789  0.2893 -0.2684 -0.4213
  241MOL0     C32429   6.378   3.011   3.925  1.1497  0.2364 -0.3934
  241MOL0     C32430   6.278   3.046   3.819  0.2921 -0.4141 -0.1362
  241MOL0     O32431   6.308   3.020   3.689 -0.2729  0.3737  0.6012
  241MOL0     C32432   6.231   3.069   3.593  0.6021  0.4055 -0.4609
  241MOL0     C32433   6.118   2.998   3.550  0.4990 -0.5974 -0.6136
  241MOL0     C32434   6.036   3.060   3.450  0.8051 -0.3634 -0.4081
  241MOL0     C32435   6.063   3.178   3.397 -0.1048 -0.2131  0.7467
  241MOL0     O32436   5.972   3.219   3.298  0.5334  0.4027  0.4910
  241MOL0     C32437   6.022   3.271   3.181  0.6354 -1.1855 -0.1874
  241MOL0     C32438   5.921   3.257   3.064 -0.0051  0.1789  0.8085
  241MOL0     C32439   5.950   3.149   2.966 -0.5500  0.8410  0.1398
  241MOL0     C32440   5.950   3.001   3.028  0.1994  0.7015  0.6381
  241MOL0     C32441   5.998   2.913   2.915 -0.0159  0.2655 -0.2896
  241MOL0     C32442   6.007   2.771   2.954 -0.3742 -0.0427  0.1978
  241MOL0     C32443   5.870   2.716   2.960 -0.1199 -0.7251  0.3024
  241MOL0     C32444   5.870   2.564   2.976 -0.7130  0.1578 -0.7347
  241MOL0    Cl32445   5.994   2.486   2.872  0.1539  0.1794  0.6357
  241MOL0     C32446   6.178   3.252   3.427 -0.1774 -0.4572 -0.4776
  241MOL0     C32447   6.266   3.194   3.525  0.2377  0.4894 -0.5494
  241MOL0     O32448   6.174   3.093   3.855 -0.4906  0.1478 -0.4931
  241MOL0     C32449   6.339   3.050   4.059  0.0733  0.2426 -0.9108
  241MOL0     C32450   6.416   3.006   4.171  0.6903  1.1262  0.3501
  241MOL0     N32451   6.876   2.792   4.734 -0.6120 -0.2440  0.6150
  241MOL0     N32452   6.927   2.888   4.801  0.0685 -0.8822 -0.4301
  241MOL0     C32453   6.255   2.635   5.584  0.1138  0.6755 -0.8083
  241MOL0     C32454   6.125   2.693   5.571 -0.1210  0.9034  0.6402
  241MOL0     C32455   5.804   3.058   5.564 -0.2467  0.0771  0.7412
  241MOL0     C32456   5.725   3.153   5.630 -1.4457  0.4409 -0.0316
  241MOL0     C32457   5.612   3.200   5.571 -0.4417  0.2157  0.2996
  241MOL0     C32458   5.569   3.155   5.450 -0.3874 -0.3549 -0.2885
  241MOL0     O32459   5.464   3.216   5.398 -0.1627 -0.5557  0.1064
  241MOL0     C32460   5.346   3.142   5.370 -0.7591 -1.1452 -0.5353
  241MOL0     C32461   5.226   3.174   5.463 -0.7524  0.5044 -0.1102
  241MOL0     C32462   5.234   3.086   5.585 -0.0039  0.5961 -0.4195
  241MOL0     C32463   5.181   3.156   5.713 -0.2311  0.1018 -1.2058
  241MOL0     C32464   5.261   3.117   5.828  1.0604  0.0533 -0.6138
  241MOL0     C32465   5.322   3.078   5.919 -0.8315  0.5157  0.4470
  241MOL0     C32466   5.641   3.060   5.384  0.7602  0.6247 -0.3787
  241MOL0     C32467   5.762   3.016   5.439  0.5272 -0.3359  0.8776
  241MOL0     H32468   6.196   3.008   5.630  1.8107  0.9909 -0.5554
  241MOL0     H32469   6.403   2.928   5.664  1.5047 -1.3426 -0.1327
  241MOL0     H32470   6.610   2.810   5.645 -0.0006 -1.5173 -2.4186
  241MOL0     H32471   6.560   2.731   5.790  2.9471  2.0429  1.0521
  241MOL0     H32472   6.790   2.660   5.744  0.2386  2.7286 -1.1136
  241MOL0     H32473   6.676   2.533   5.721 -3.5683  1.7135 -0.5014
  241MOL0     H32474   6.840   2.556   5.522 -1.1023 -4.0961  0.6168
  241MOL0     H32475   6.657   2.571   5.474 -0.6792 -0.9319  2.3053
  241MOL0     H32476   6.676   2.792   5.432 -1.8788 -0.4782  0.3415
  241MOL0     H32477   6.837   2.815   5.513  1.2113 -0.5102  0.2456
  241MOL0     H32478   6.959   2.720   5.333  0.0167 -0.2075  0.7165
  241MOL0     H32479   6.805   2.663   5.256 -0.8854  0.5770  0.6021
  241MOL0     H32480   6.744   2.875   5.186  1.5856  1.7427 -0.7066
  241MOL0     H32481   6.852   2.952   5.303 -4.1294 -0.5824  1.5015
  241MOL0     H32482   7.041   2.891   5.179 -0.8062 -0.7314  1.0362
  241MOL0     H32483   6.966   2.768   5.082  4.0042 -0.0279  0.7536
  241MOL0     H32484   7.013   3.026   5.001 -0.1161  0.4866  1.3264
  241MOL0     H32485   6.856   3.047   5.073 -2.0563 -1.8119  0.5240
  241MOL0     H32486   6.640   2.843   4.959  0.9585 -3.4162  1.7477
  241MOL0     H32487   6.697   2.610   4.666 -1.6371 -2.1468  2.0346
  241MOL0     H32488   6.579   2.654   4.788  2.8205 -0.6229  0.8308
  241MOL0     H32489   6.590   2.881   4.640  0.5465 -0.8588  0.2361
  241MOL0     H32490   6.456   2.766   4.636 -0.9143  2.0438  0.0065
  241MOL0     H32491   6.558   2.667   4.435  2.1205 -0.5130 -1.8684
  241MOL0     H32492   6.703   2.764   4.462 -0.6031  0.3224  3.8573
  241MOL0     H32493   6.522   2.967   4.446 -3.6946 -1.6032  1.7100
  241MOL0     H32494   6.438   2.847   4.354 -0.7259  1.3466  0.6080
  241MOL0     H32495   6.646   2.815   4.013  0.1400  0.4436 -1.1994
  241MOL0     H32496   6.618   2.792   3.800 -0.8951 -1.7764 -0.3583
  241MOL0     H32497   6.450   2.798   3.755  1.4006 -1.6151 -0.7295
  241MOL0     H32498   6.560   2.928   3.708 -3.1367  2.5168  0.4911
  241MOL0     H32499   6.096   2.902   3.597 -2.0123 -0.1043 -0.6431
  241MOL0     H32500   5.948   3.014   3.407 -0.7665  0.7172  1.4979
  241MOL0     H32501   6.037   3.379   3.184  0.4229 -1.1607 -0.0654
  241MOL0     H32502   6.112   3.217   3.149  2.7136  2.1375 -0.4601
  241MOL0     H32503   5.831   3.228   3.117 -0.7347  1.2062  0.1640
  241MOL0     H32504   5.912   3.353   3.011 -0.7788 -0.4027 -0.1430
  241MOL0     H32505   6.045   3.163   2.914 -1.3361  2.7388 -0.8902
  241MOL0     H32506   5.877   3.148   2.884 -0.4069 -0.6704 -0.0110
  241MOL0     H32507   6.017   3.004   3.114  0.2323  5.9520  0.7661
  241MOL0     H32508   5.850   2.970   3.059  1.1885 -1.2322  2.1267
  241MOL0     H32509   6.102   2.943   2.899  0.7349 -2.2778 -0.5588
  241MOL0     H32510   5.938   2.919   2.824 -2.9722  0.3455  1.5349
  241MOL0     H32511   6.081   2.727   2.886  0.6168 -0.1294  1.2966
  241MOL0     H32512   6.039   2.762   3.058 -2.3513  1.7918  1.0283
  241MOL0     H32513   5.818   2.742   2.867 -0.0931 -0.5801  0.3277
  241MOL0     H32514   5.815   2.766   3.040 -0.5572 -0.7211  0.0019
  241MOL0     H32515   5.771   2.520   2.960 -0.5926 -1.2991  1.9598
  241MOL0     H32516   5.908   2.542   3.076  0.4806  0.0279 -1.2089
  241MOL0     H32517   6.189   3.352   3.387 -1.9718  0.5987  1.4775
  241MOL0     H32518   6.362   3.244   3.538  0.8262 -1.4114  4.4767
  241MOL0     H32519   6.250   3.108   4.082 -0.0440  0.4551 -1.8449
  241MOL0     H32520   6.381   3.033   4.270  1.1330 -4.4970  2.4052
  241MOL0     H32521   6.269   2.527   5.588 -0.3881  0.6287  2.0921
  241MOL0     H32522   6.043   2.635   5.529 -0.6580  0.1033  2.6905
  241MOL0     H32523   5.762   3.185   5.727 -0.5678 -1.9070  0.4868
  241MOL0     H32524   5.560   3.274   5.631 -2.4274 -0.6989 -0.2302
  241MOL0     H32525   5.317   3.172   5.269  2.6315 -2.4708 -2.0556
  241MOL0     H32526   5.370   3.035   5.374  0.0062 -0.9644 -0.1309
  241MOL0     H32527   5.128   3.140   5.429  0.2216 -1.9271 -0.7579
  241MOL0     H32528   5.218   3.280   5.489 -2.4344  0.9201 -2.1030
  241MOL0     H32529   5.340   3.060   5.591 -0.4725 -2.6542 -3.1875
  241MOL0     H32530   5.175   2.995   5.573 -0.8022  0.3813  3.7573
  241MOL0     H32531   5.077   3.123   5.719 -0.7070  1.2156 -2.7102
  241MOL0     H32532   5.183   3.265   5.704 -0.7626  0.0678 -1.8105
  241MOL0     H32533   5.386   3.026   5.987  1.3074  2.2715 -0.0772
  241MOL0     H32534   5.624   3.028   5.282  0.6123 -2.7467  0.5930
  241MOL0     H32535   5.822   2.952   5.376 -1.3405 -1.1907 -0.1142
  242MOL0     O32536  10.268   2.830  11.272  0.2469 -1.1012 -0.6607
  242MOL0     C32537  10.310   2.785  11.166  0.6414 -0.4008  0.0275
  242MOL0     O32538  10.249   2.793  11.050 -0.4072  0.3346  0.1062
  242MOL0     C32539  10.157   2.889  11.023 -0.4484  0.2984  0.7039
  242MOL0     C32540  10.166   3.022  11.079 -0.3680 -0.0257  0.2673
  242MOL0     C32541  10.076   3.120  11.039 -1.2546  0.0581  0.6658
  242MOL0     C32542   9.981   3.089  10.938  0.9891  0.6498  0.7251
  242MOL0     O32543   9.880   3.171  10.899 -0.0426  0.0634  0.2561
  242MOL0     C32544   9.831   3.278  10.979  0.0168  0.7135 -0.1669
  242MOL0     C32545   9.757   3.375  10.892 -0.2783  0.2261 -0.1756
  242MOL0     C32546   9.850   3.439  10.782  0.1284 -0.7840  0.2137
  242MOL0     C32547   9.758   3.533  10.703 -0.7599 -0.1255 -0.6196
  242MOL0     C32548   9.854   3.636  10.639  0.8346 -0.1179 -0.6663
  242MOL0     C32549   9.802   3.677  10.504  0.0041 -0.2245  0.4612
  242MOL0     C32550   9.903   3.640  10.389 -0.4045  0.7485 -0.0921
  242MOL0     C32551  10.008   3.750  10.361 -0.4373 -0.1287 -0.0353
  242MOL0     N32552   9.942   3.878  10.365 -0.1497  0.0677  0.0350
  242MOL0     C32553   9.842   3.921  10.282 -0.5406  0.9649  0.2047
  242MOL0     C32554   9.810   4.041  10.325 -0.6565  0.0622 -0.6931
  242MOL0     C32555   9.683   4.113  10.291  0.5020 -0.4433  0.0180
  242MOL0     C32556   9.678   4.245  10.372 -0.3124 -0.9438 -1.1702
  242MOL0     C32557   9.565   4.333  10.334  0.3529  0.3391 -0.8334
  242MOL0     C32558   9.569   4.466  10.397  0.0020  0.1438  0.6869
  242MOL0     O32559   9.457   4.534  10.331 -0.7711 -1.0704  0.0146
  242MOL0     C32560   9.441   4.666  10.332 -0.1048  0.3088 -1.1078
  242MOL0     C32561   9.523   4.752  10.399 -0.3796 -0.7549 -0.1995
  242MOL0     C32562   9.500   4.896  10.391 -0.3112 -0.4482  0.0796
  242MOL0     C32563   9.596   4.983  10.460  0.8842 -0.3240 -0.0175
  242MOL0     C32564   9.387   4.944  10.329  0.1293  0.1331  0.4001
  242MOL0     C32565   9.330   5.082  10.314  0.0521  0.1757 -0.1343
  242MOL0     O32566   9.198   5.085  10.265 -0.2633 -0.5545 -0.4304
  242MOL0     C32567   9.119   5.202  10.260 -0.8484  0.0440  0.8331
  242MOL0     C32568   9.150   5.331  10.302 -1.1458 -0.1247 -0.1898
  242MOL0     C32569   9.069   5.435  10.272 -0.5005  0.7905 -0.7090
  242MOL0     C32570   8.955   5.426  10.191 -0.2679  0.3679 -0.8649
  242MOL0     O32571   8.895   5.548  10.163 -0.6417 -0.4001 -0.3763
  242MOL0     C32572   8.756   5.555  10.143  0.0242 -0.1924 -0.0339
  242MOL0     C32573   8.739   5.614  10.001  0.5924  0.0812  0.8837
  242MOL0     C32574   8.592   5.636   9.966 -0.2991  0.7235 -0.3160
  242MOL0     C32575   8.562   5.686   9.830  0.3628 -0.0488 -0.3162
  242MOL0     C32576   8.591   5.579   9.724  0.1054 -1.1417  0.6943
  242MOL0     C32577   8.484   5.471   9.728  0.6403 -0.7882 -0.5370
  242MOL0     C32578   8.331   5.518   9.720 -0.5770 -0.2241 -0.7487
  242MOL0     C32579   8.253   5.387   9.718  0.3313  1.1099 -0.1230
  242MOL0    Cl32580   8.306   5.267   9.597 -0.1505 -0.2983  0.2039
  242MOL0     C32581   8.917   5.303  10.156  0.0339  1.2851  0.2184
  242MOL0     C32582   9.000   5.190  10.194 -0.1017 -0.4786 -0.0357
  242MOL0     O32583   9.388   5.177  10.359 -0.5025 -0.4540  0.1265
  242MOL0     C32584   9.298   4.844  10.275 -0.3313 -0.2853  0.3652
  242MOL0     C32585   9.324   4.717  10.274  0.6689  0.1879 -0.3924
  242MOL0     N32586   9.905   4.073  10.427 -1.2537 -0.1137  0.5685
  242MOL0     N32587   9.985   3.975  10.452 -0.7042  0.1688  0.1850
  242MOL0     C32588   9.975   2.954  10.886 -0.5347  0.2263 -0.0141
  242MOL0     C32589  10.065   2.857  10.921  0.5766 -0.9572 -0.7445
  242MOL0     C32590  10.442   2.719  11.172 -0.6068 -0.1425 -0.6134
  242MOL0     C32591  10.534   2.722  11.282 -0.7713  0.2141  0.3035
  242MOL0     C32592  10.642   2.627  11.281 -0.2580  0.6255  0.6145
  242MOL0     C32593  10.668   2.541  11.177 -0.1055 -0.8351  0.7273
  242MOL0     O32594  10.776   2.466  11.190 -0.4058 -0.1057  0.5988
  242MOL0     C32595  10.830   2.393  11.075 -0.4753 -0.8837 -0.6230
  242MOL0     C32596  10.890   2.497  10.976  0.2555  0.6411 -0.1173
  242MOL0     C32597  11.023   2.556  11.030 -0.1864 -0.5804  0.6064
  242MOL0     C32598  11.103   2.652  10.945 -0.1958 -1.2841 -0.0836
  242MOL0     C32599  11.008   2.741  10.870  0.4411  0.4209  0.2432
  242MOL0     C32600  10.935   2.814  10.805 -0.6724  0.1381  0.6789
  242MOL0     C32601  10.583   2.544  11.067  0.4858 -0.1107 -0.1017
  242MOL0     C32602  10.472   2.623  11.072  0.1030 -0.5598  0.3124
  242MOL0     H32603  10.247   3.054  11.143 -0.5253 -3.0864  2.2114
  242MOL0     H32604  10.092   3.220  11.077  3.2151 -1.2096  2.7506
  242MOL0     H32605   9.756   3.249  11.054 -2.3656  2.6323 -1.6517
  242MOL0     H32606   9.907   3.320  11.046  0.4462 -0.4567  0.0940
  242MOL0     H32607   9.673   3.327  10.840 -2.3187  2.5018  0.8406
  242MOL0     H32608   9.719   3.454  10.957 -1.9569 -0.2227 -0.5538
  242MOL0     H32609   9.923   3.497  10.839  0.7375 -0.4605 -0.8695
  242MOL0     H32610   9.917   3.376  10.722 -2.9337 -3.1223 -1.0572
  242MOL0     H32611   9.695   3.476  10.635 -2.5735  0.0436  0.8531
  242MOL0     H32612   9.702   3.597  10.772  1.6651  0.9299  0.5303
  242MOL0     H32613   9.863   3.714  10.714 -0.2968 -0.4555 -0.1495
  242MOL0     H32614   9.956   3.600  10.631  0.9876 -0.1862  1.2893
  242MOL0     H32615   9.708   3.625  10.482  0.1016 -0.0095 -0.5288
  242MOL0     H32616   9.763   3.779  10.519 -0.4658 -0.1562 -1.0712
  242MOL0     H32617   9.952   3.549  10.426 -1.2779  0.6927  0.9689
  242MOL0     H32618   9.855   3.624  10.291 -0.9637 -1.5437  0.4825
  242MOL0     H32619  10.058   3.743  10.264  0.8198 -1.3970  0.6763
  242MOL0     H32620  10.078   3.745  10.444 -0.3937 -0.0752 -0.0696
  242MOL0     H32621   9.785   3.866  10.207  0.0269 -1.3941  1.4057
  242MOL0     H32622   9.677   4.124  10.183  3.2589  0.2619 -0.1277
  242MOL0     H32623   9.603   4.049  10.331 -2.7361  0.6639 -4.0702
  242MOL0     H32624   9.767   4.306  10.357 -0.1966 -0.7933  0.0290
  242MOL0     H32625   9.677   4.221  10.479  1.6867 -0.1249 -0.9231
  242MOL0     H32626   9.473   4.279  10.357  0.6431  0.3906  0.5122
  242MOL0     H32627   9.578   4.333  10.225  0.2328  2.5165 -0.8971
  242MOL0     H32628   9.665   4.513  10.372  0.4359  0.3178  2.5361
  242MOL0     H32629   9.541   4.458  10.502 -0.9831  1.1250  0.5190
  242MOL0     H32630   9.619   4.711  10.430  0.5010 -0.9899 -3.0057
  242MOL0     H32631   9.650   4.916  10.527 -1.8059 -2.7791 -0.0962
  242MOL0     H32632   9.666   5.033  10.392  0.1766  0.6392 -0.0563
  242MOL0     H32633   9.558   5.068  10.517  0.7427 -0.5500  0.2271
  242MOL0     H32634   9.247   5.359  10.342 -0.2540 -1.1584 -1.5423
  242MOL0     H32635   9.114   5.529  10.303 -0.6538  1.8047 -3.3067
  242MOL0     H32636   8.707   5.461  10.169  0.2925 -0.7549 -1.4627
  242MOL0     H32637   8.726   5.629  10.218  3.1896  0.3918  0.8144
  242MOL0     H32638   8.793   5.708   9.994 -2.7879  2.1307  0.2694
  242MOL0     H32639   8.774   5.540   9.928 -0.4092  0.1516  0.3165
  242MOL0     H32640   8.561   5.704  10.047 -1.1891 -1.1085  0.9664
  242MOL0     H32641   8.528   5.550   9.986  1.4040 -0.6717 -0.7057
  242MOL0     H32642   8.461   5.723   9.812  0.4924 -0.6123 -2.4138
  242MOL0     H32643   8.633   5.768   9.812  3.2967 -2.5630 -1.0539
  242MOL0     H32644   8.690   5.536   9.743 -0.7626 -2.6634  2.0595
  242MOL0     H32645   8.596   5.620   9.623  1.9078 -1.1448  0.7506
  242MOL0     H32646   8.507   5.398   9.649  0.7144 -0.5854 -0.7055
  242MOL0     H32647   8.511   5.424   9.823 -0.5046 -1.0586 -0.3232
  242MOL0     H32648   8.317   5.589   9.638 -0.5966  2.6127  1.5379
  242MOL0     H32649   8.296   5.586   9.799  0.3090 -0.8560  0.2179
  242MOL0     H32650   8.145   5.398   9.719 -0.3279 -2.9921 -3.0204
  242MOL0     H32651   8.264   5.338   9.816 -1.8152 -0.4343 -0.5945
  242MOL0     H32652   8.825   5.282  10.102 -0.2577 -2.6013  1.8918
  242MOL0     H32653   8.976   5.091  10.156  1.5780 -0.5691 -0.9698
  242MOL0     H32654   9.204   4.873  10.230 -0.9491 -1.1937  1.0483
  242MOL0     H32655   9.256   4.646  10.229  4.3478 -3.6620 -0.5130
  242MOL0     H32656   9.900   2.929  10.812 -1.1854 -0.8858  0.9927
  242MOL0     H32657  10.059   2.757  10.879 -2.5164 -0.7000 -1.1535
  242MOL0     H32658  10.531   2.809  11.345  1.1380  1.9457 -1.8177
  242MOL0     H32659  10.722   2.638  11.353  2.6952  0.9551 -2.4565
  242MOL0     H32660  10.895   2.311  11.107  1.9983  0.5810 -1.6816
  242MOL0     H32661  10.750   2.342  11.020 -0.7239 -1.8455  0.5902
  242MOL0     H32662  10.820   2.576  10.946 -0.6942 -0.3782 -0.7186
  242MOL0     H32663  10.915   2.448  10.881 -0.6110  2.7543 -1.5157
  242MOL0     H32664  11.090   2.475  11.060  0.8703 -0.1746 -0.5889
  242MOL0     H32665  11.003   2.618  11.118  1.2797  1.0024 -0.1141
  242MOL0     H32666  11.173   2.594  10.883 -1.3926 -0.1580 -2.6500
  242MOL0     H32667  11.167   2.711  11.012  2.9183 -3.9488 -0.4393
  242MOL0     H32668  10.890   2.880  10.733 -1.3697 -1.6430 -0.5842
  242MOL0     H32669  10.597   2.469  10.990 -0.6699 -1.2959  0.7919
  242MOL0     H32670  10.394   2.628  10.996  1.0203  2.9815 -0.5858
  243MOL0     O32671   3.861  10.487   4.672 -0.2117 -0.3063  0.5202
  243MOL0     C32672   3.780  10.584   4.664  0.6175  0.1715 -0.2869
  243MOL0     O32673   3.802  10.707   4.714 -0.5817 -0.0690  0.3044
  243MOL0     C32674   3.901  10.734   4.804  0.3986 -0.3949  0.2258
  243MOL0     C32675   4.031  10.766   4.757  0.0888  0.9839  0.2984
  243MOL0     C32676   4.139  10.779   4.846  0.0075  0.8153  0.0369
  243MOL0     C32677   4.110  10.772   4.984 -0.2421 -0.4886 -0.5232
  243MOL0     O32678   4.208  10.794   5.079  0.5826  0.1484  0.1512
  243MOL0     C32679   4.343  10.826   5.030  0.9399 -0.9841  1.1004
  243MOL0     C32680   4.427  10.845   5.150  0.8347  0.3629 -0.2776
  243MOL0     C32681   4.560  10.794   5.130 -0.0007 -0.0110  1.2146
  243MOL0     C32682   4.638  10.798   5.262  0.3105  0.1667 -0.8396
  243MOL0     C32683   4.760  10.705   5.260  0.9813  0.2472  0.0698
  243MOL0     C32684   4.724  10.571   5.323  0.1174 -1.3732  0.5800
  243MOL0     C32685   4.639  10.474   5.241 -0.4284  0.4729 -0.1637
  243MOL0     C32686   4.634  10.329   5.289  0.0836 -0.5627 -0.8163
  243MOL0     N32687   4.526  10.259   5.221 -0.4261  0.9396  0.0275
  243MOL0     C32688   4.467  10.150   5.273  0.6242  0.1486 -1.1244
  243MOL0     C32689   4.402  10.095   5.173 -0.3342 -0.4085  0.4685
  243MOL0     C32690   4.319   9.974   5.180  0.1217 -0.2332 -0.7340
  243MOL0     C32691   4.417   9.855   5.191  0.0824  0.6946  0.1251
  243MOL0     C32692   4.347   9.726   5.178 -0.1503  0.4020 -0.6326
  243MOL0     C32693   4.296   9.674   5.037  0.4005 -0.4345 -0.1148
  243MOL0     O32694   4.189   9.750   4.978 -0.3470  0.6982 -0.7706
  243MOL0     C32695   4.215   9.812   4.852 -0.7930  0.0638  0.2493
  243MOL0     C32696   4.338   9.856   4.798  0.2262 -0.1823 -0.6146
  243MOL0     C32697   4.345   9.929   4.680  0.1489  0.6874 -0.4343
  243MOL0     C32698   4.490   9.974   4.641  0.9843  0.3478  0.4094
  243MOL0     C32699   4.231   9.964   4.612  0.3795 -0.6820  0.4249
  243MOL0     C32700   4.229  10.048   4.495 -1.3326  0.1341 -0.1112
  243MOL0     O32701   4.116  10.132   4.493  0.0335 -0.4406 -0.5373
  243MOL0     C32702   4.107  10.236   4.402 -0.8520 -0.4878  0.1833
  243MOL0     C32703   4.042  10.346   4.453 -0.3744  0.6988 -0.6649
  243MOL0     C32704   4.026  10.461   4.378 -0.0689 -0.3998 -0.0665
  243MOL0     C32705   4.064  10.460   4.244  0.8301  0.2647 -0.3748
  243MOL0     O32706   4.033  10.556   4.142 -0.2983 -0.3098 -0.3700
  243MOL0     C32707   3.937  10.656   4.184 -0.2547  0.2632 -1.0899
  243MOL0     C32708   4.016  10.760   4.263 -0.1010  0.0980  0.5383
  243MOL0     C32709   3.915  10.862   4.325 -0.2048 -0.4638  0.3037
  243MOL0     C32710   3.993  10.956   4.413  0.2754 -0.0323 -0.6795
  243MOL0     C32711   3.907  11.080   4.455  0.3432 -0.8232  0.1393
  243MOL0     C32712   3.972  11.176   4.555 -0.2176 -1.2607  0.2839
  243MOL0     C32713   4.083  11.258   4.486  0.1601  0.3999  0.7483
  243MOL0     C32714   4.123  11.364   4.590 -0.5649  0.1016  1.5015
  243MOL0    Cl32715   4.267  11.444   4.514  0.1496  0.0051  0.1543
  243MOL0     C32716   4.113  10.340   4.197 -0.2381  0.3405  0.4478
  243MOL0     C32717   4.143  10.223   4.265 -0.2445  0.4126 -0.1578
  243MOL0     O32718   4.327  10.049   4.416  0.2770 -0.4690 -0.2669
  243MOL0     C32719   4.113   9.923   4.660 -0.5585  0.8441  0.1877
  243MOL0     C32720   4.104   9.847   4.779  0.2972 -0.3682 -0.6501
  243MOL0     N32721   4.438  10.164   5.054  0.4222  0.0823 -1.1718
  243MOL0     N32722   4.516  10.261   5.089  0.6197 -0.0647  0.6431
  243MOL0     C32723   3.979  10.737   5.029 -0.1848 -0.5115  0.2611
  243MOL0     C32724   3.872  10.729   4.944  0.3888  0.6798  1.4115
  243MOL0     C32725   3.652  10.543   4.598 -0.8110 -0.3649 -0.5902
  243MOL0     C32726   3.547  10.636   4.591  1.3737 -0.0978 -0.5799
  243MOL0     C32727   3.432  10.602   4.517  0.4405 -0.6778  1.4419
  243MOL0     C32728   3.418  10.476   4.452  0.3151  0.5058  0.5451
  243MOL0     O32729   3.299  10.474   4.386  0.2026 -0.0724 -0.0412
  243MOL0     C32730   3.272  10.342   4.320 -0.2100 -0.1154 -0.5025
  243MOL0     C32731   3.217  10.233   4.421 -0.8309 -0.5606  0.0361
  243MOL0     C32732   3.091  10.140   4.390 -0.6166 -0.0053 -0.3444
  243MOL0     C32733   3.113  10.058   4.261 -1.3997  0.5881 -0.1791
  243MOL0     C32734   2.997   9.997   4.207 -0.6010  0.1919  0.9419
  243MOL0     C32735   2.899   9.957   4.147  0.6005  0.0772 -0.0213
  243MOL0     C32736   3.519  10.375   4.479  0.4678  0.2646 -0.5454
  243MOL0     C32737   3.630  10.414   4.544  0.1594  0.2707  0.3584
  243MOL0     H32738   4.039  10.761   4.649 -3.6482 -0.5563 -0.0766
  243MOL0     H32739   4.235  10.799   4.800 -1.3256 -0.0155 -3.4115
  243MOL0     H32740   4.381  10.739   4.975 -0.0345 -0.6632 -0.1305
  243MOL0     H32741   4.332  10.914   4.967 -1.4311 -1.7058  0.3628
  243MOL0     H32742   4.434  10.947   5.189 -1.0806  0.1483  0.6863
  243MOL0     H32743   4.389  10.785   5.233  4.9996 -1.1836  0.7958
  243MOL0     H32744   4.557  10.689   5.098 -1.4338  0.8229 -1.6987
  243MOL0     H32745   4.616  10.862   5.065 -0.0375  1.2537  2.4808
  243MOL0     H32746   4.651  10.902   5.294  0.1063 -0.1882  0.4587
  243MOL0     H32747   4.570  10.759   5.338 -2.0163  0.7914 -2.4908
  243MOL0     H32748   4.812  10.694   5.165  0.4201 -3.1056  0.0297
  243MOL0     H32749   4.831  10.752   5.329  0.9124  0.0910  0.2495
  243MOL0     H32750   4.812  10.506   5.320  1.0756 -0.0748 -1.0189
  243MOL0     H32751   4.694  10.583   5.428  0.3965 -0.6639  0.5844
  243MOL0     H32752   4.537  10.514   5.241 -0.5612  0.3492  2.9847
  243MOL0     H32753   4.689  10.462   5.144  2.2765 -1.0832  1.3146
  243MOL0     H32754   4.610  10.316   5.395 -0.1543  2.1156 -0.4528
  243MOL0     H32755   4.731  10.282   5.269  0.1667 -1.0162  0.5539
  243MOL0     H32756   4.489  10.121   5.375  1.7801 -0.8506 -1.6266
  243MOL0     H32757   4.262   9.967   5.273  1.1566 -0.2704 -0.0765
  243MOL0     H32758   4.251   9.974   5.095 -3.6065  1.8218  1.9857
  243MOL0     H32759   4.463   9.858   5.290  5.7073 -1.9400 -1.9622
  243MOL0     H32760   4.503   9.863   5.123 -0.5987  2.0522 -0.6282
  243MOL0     H32761   4.258   9.740   5.240  0.2762  1.0222 -0.1624
  243MOL0     H32762   4.412   9.657   5.234 -0.4502  0.5715 -0.0704
  243MOL0     H32763   4.268   9.569   5.047  0.2309 -0.2562  1.4806
  243MOL0     H32764   4.381   9.671   4.968 -2.1660  0.7309 -3.6412
  243MOL0     H32765   4.429   9.828   4.850 -1.3429 -2.4143  1.1067
  243MOL0     H32766   4.559   9.970   4.726  0.3625 -0.9592  0.8830
  243MOL0     H32767   4.535   9.916   4.560  0.8531 -0.0357  0.6088
  243MOL0     H32768   4.485  10.079   4.611 -1.1212 -0.7594 -3.8316
  243MOL0     H32769   4.010  10.332   4.556 -0.5650  1.2603 -0.6459
  243MOL0     H32770   3.997  10.552   4.428 -3.4331 -0.8311 -1.0162
  243MOL0     H32771   3.902  10.708   4.094 -1.6717  2.2375  0.5019
  243MOL0     H32772   3.850  10.606   4.226 -0.8545  0.3287 -2.2190
  243MOL0     H32773   4.074  10.705   4.337 -1.6254 -0.9309  1.0331
  243MOL0     H32774   4.094  10.813   4.209  1.4395 -1.0739  1.5314
  243MOL0     H32775   3.851  10.802   4.391  1.9061 -2.7662  0.4075
  243MOL0     H32776   3.865  10.917   4.245  0.5114 -1.0260 -0.5441
  243MOL0     H32777   4.031  10.910   4.505  0.7826  1.7604  0.0490
  243MOL0     H32778   4.083  10.997   4.366  2.4105 -0.9201  2.3756
  243MOL0     H32779   3.816  11.062   4.513 -2.3510  2.9177 -2.4214
  243MOL0     H32780   3.874  11.144   4.373  0.6369  0.5575  1.0563
  243MOL0     H32781   3.888  11.242   4.578 -0.3930 -1.3745 -0.0236
  243MOL0     H32782   4.008  11.126   4.645  0.2456  0.2771  0.9940
  243MOL0     H32783   4.055  11.308   4.393 -2.2498  1.9503  2.2051
  243MOL0     H32784   4.166  11.188   4.471 -1.4518 -1.3887 -0.2060
  243MOL0     H32785   4.142  11.316   4.687 -0.1964  0.4595  1.6083
  243MOL0     H32786   4.038  11.433   4.594 -0.8375  0.0241 -1.4142
  243MOL0     H32787   4.128  10.334   4.090 -2.5908 -0.7949  0.1208
  243MOL0     H32788   4.178  10.131   4.220  4.3616  3.3105 -3.3440
  243MOL0     H32789   4.017   9.944   4.615 -0.1307 -0.9189 -1.7166
  243MOL0     H32790   4.010   9.811   4.819  2.8129 -3.3146  3.3818
  243MOL0     H32791   3.940  10.742   5.130 -1.2421 -0.5276 -0.1358
  243MOL0     H32792   3.772  10.726   4.985  0.1820  3.1050  1.1898
  243MOL0     H32793   3.548  10.736   4.633  0.6466 -0.2583 -0.1694
  243MOL0     H32794   3.350  10.673   4.510 -1.2901 -2.5015  2.1463
  243MOL0     H32795   3.198  10.360   4.241 -1.3001  0.9875  0.7039
  243MOL0     H32796   3.363  10.309   4.269  0.7322 -0.5369  1.3872
  243MOL0     H32797   3.205  10.297   4.508  3.3155  3.6428 -2.0398
  243MOL0     H32798   3.305  10.178   4.456  0.4235  1.1081 -0.3725
  243MOL0     H32799   3.002  10.200   4.366 -3.0185 -2.8563  0.8850
  243MOL0     H32800   3.071  10.084   4.481  1.7707  2.7436  2.1084
  243MOL0     H32801   3.177   9.972   4.281  0.1324  2.0569  1.5214
  243MOL0     H32802   3.159  10.108   4.175 -0.4012 -1.5757 -0.9825
  243MOL0     H32803   2.803   9.920   4.115  0.2281 -0.6734  1.8104
  243MOL0     H32804   3.531  10.280   4.428 -1.1726  1.6073 -3.6986
  243MOL0     H32805   3.708  10.342   4.521  1.6913  1.9335  0.1303
  244MOL0     O32806   1.124   8.787  10.970 -0.4201  0.5960 -0.5675
  244MOL0     C32807   1.227   8.748  10.912 -0.9455  0.4133  0.4819
  244MOL0     O32808   1.243   8.697  10.787  0.0458 -0.1921 -1.0888
  244MOL0     C32809   1.140   8.676  10.707  0.3361  0.1430 -0.3826
  244MOL0     C32810   1.032   8.765  10.695  0.0123 -0.2164 -0.9496
  244MOL0     C32811   0.931   8.744  10.600  0.3415 -0.2422  0.1072
  244MOL0     C32812   0.929   8.627  10.520 -0.0972  0.1133 -0.1932
  244MOL0     O32813   0.824   8.606  10.442  0.9893  0.1570  0.6677
  244MOL0     C32814   0.766   8.724  10.378 -0.1119  0.0308  0.0619
  244MOL0     C32815   0.686   8.682  10.257  0.0091  0.1884  0.1572
  244MOL0     C32816   0.605   8.792  10.194 -0.1881  0.2453  0.2734
  244MOL0     C32817   0.562   8.770  10.046 -0.0623  0.2326 -0.1048
  244MOL0     C32818   0.466   8.878   9.998 -0.2744  0.9166 -0.3064
  244MOL0     C32819   0.406   8.856   9.858  0.5519 -0.2528 -0.5411
  244MOL0     C32820   0.364   8.981   9.797 -0.6549 -0.6269 -0.4863
  244MOL0     C32821   0.291   8.965   9.659  0.0721  0.5031 -0.5237
  244MOL0     N32822   0.369   8.917   9.550  0.2105 -0.7773  0.3108
  244MOL0     C32823   0.479   8.983   9.502 -0.5870  0.2013 -0.1265
  244MOL0     C32824   0.514   8.928   9.385  0.4961  0.1790  0.1823
  244MOL0     C32825   0.625   8.985   9.312 -0.1683 -0.5185  0.1652
  244MOL0     C32826   0.575   9.111   9.235  0.0117  0.0898  0.5269
  244MOL0     C32827   0.683   9.170   9.149  0.2332  0.0207  0.4864
  244MOL0     C32828   0.657   9.283   9.049 -0.9229  0.0401 -0.4440
  244MOL0     O32829   0.590   9.379   9.120 -0.2938 -0.1567 -0.9201
  244MOL0     C32830   0.524   9.483   9.057  0.4882  0.0365 -0.5126
  244MOL0     C32831   0.464   9.577   9.139  0.9087  0.7048  0.0150
  244MOL0     C32832   0.389   9.685   9.078  0.1617  0.0781  0.3798
  244MOL0     C32833   0.310   9.763   9.184 -1.3393  0.4114 -0.3616
  244MOL0     C32834   0.373   9.692   8.934 -0.2831  0.0422 -0.3502
  244MOL0     C32835   0.298   9.801   8.865 -0.8191  0.5836  0.3164
  244MOL0     O32836   0.285   9.789   8.726 -0.5689 -0.4272 -0.2241
  244MOL0     C32837   0.257   9.898   8.645  1.5066 -0.4118 -0.2187
  244MOL0     C32838   0.150   9.991   8.672 -0.2572 -0.5065 -0.3927
  244MOL0     C32839   0.136  10.110   8.596 -0.6254  0.3269 -0.7241
  244MOL0     C32840   0.235  10.141   8.507 -0.6009  0.8409 -0.1026
  244MOL0     O32841   0.221  10.260   8.433  0.6880  0.8240  0.1786
  244MOL0     C32842   0.340  10.338   8.438 -0.6502  0.7840 -0.9623
  244MOL0     C32843   0.326  10.479   8.389  0.0572 -0.1283  0.4086
  244MOL0     C32844   0.247  10.490   8.259 -0.2872 -0.3196 -0.0470
  244MOL0     C32845   0.238  10.642   8.207 -1.0472  1.3384 -0.2069
  244MOL0     C32846   0.148  10.747   8.282 -0.2759  1.6262  0.1855
  244MOL0     C32847   0.005  10.703   8.261  0.0315  0.0784 -0.0309
  244MOL0     C32848  -0.079  10.795   8.343 -0.5241 -0.3243  0.1296
  244MOL0     C32849  -0.227  10.759   8.343 -0.9183 -0.5236 -0.5096
  244MOL0    Cl32850  -0.291  10.795   8.175  0.3750 -0.4936  0.4538
  244MOL0     C32851   0.334  10.045   8.473  0.2403  0.1171 -0.2207
  244MOL0     C32852   0.342   9.922   8.539 -0.1085 -0.1026 -0.3304
  244MOL0     O32853   0.266   9.894   8.931  0.7468  0.3583 -0.4718
  244MOL0     C32854   0.454   9.595   8.859 -1.7174 -0.8333  0.3664
  244MOL0     C32855   0.512   9.487   8.921 -0.6603 -0.6742  0.4540
  244MOL0     N32856   0.415   8.822   9.351 -0.3715 -0.7290 -0.0645
  244MOL0     N32857   0.338   8.815   9.466 -0.0938  0.0256  0.8205
  244MOL0     C32858   1.037   8.538  10.537 -0.1787 -0.2685 -0.6466
  244MOL0     C32859   1.151   8.567  10.622  0.4167 -0.3269  0.3056
  244MOL0     C32860   1.359   8.788  10.975  0.7317 -0.1144  1.8493
  244MOL0     C32861   1.481   8.714  10.952  0.1354 -0.0805 -0.6576
  244MOL0     C32862   1.600   8.756  11.011 -0.3248  0.6473 -0.0821
  244MOL0     C32863   1.614   8.876  11.083  1.1729 -0.6146  0.1884
  244MOL0     O32864   1.738   8.920  11.122 -0.1409 -0.2440  0.0754
  244MOL0     C32865   1.746   8.960  11.264 -0.6161 -1.1431 -0.5531
  244MOL0     C32866   1.809   9.097  11.266 -0.6050 -0.5867 -0.6914
  244MOL0     C32867   1.868   9.125  11.396 -0.3778 -0.5208  0.0610
  244MOL0     C32868   1.941   9.260  11.395 -0.1189 -0.7796  0.3091
  244MOL0     C32869   1.854   9.369  11.411  0.4505 -0.2255  0.1937
  244MOL0     C32870   1.771   9.457  11.431 -0.0755 -0.7934  0.7317
  244MOL0     C32871   1.492   8.949  11.098 -1.1696 -0.7312 -0.1108
  244MOL0     C32872   1.373   8.902  11.047 -0.1082 -0.1427  0.3114
  244MOL0     H32873   1.026   8.853  10.758 -2.4022 -0.2545 -1.0146
  244MOL0     H32874   0.850   8.816  10.598 -1.1787 -1.9080 -0.8823
  244MOL0     H32875   0.695   8.747  10.457  0.6430 -0.0116  0.7626
  244MOL0     H32876   0.826   8.815  10.372 -2.3864  1.7228  1.4682
  244MOL0     H32877   0.747   8.639  10.177 -3.0399 -0.2464 -2.1274
  244MOL0     H32878   0.615   8.606  10.291 -0.0046  1.1590  2.4457
  244MOL0     H32879   0.509   8.796  10.247  0.9273 -0.0117  2.4320
  244MOL0     H32880   0.650   8.888  10.223 -1.1192  0.4355  1.1380
  244MOL0     H32881   0.652   8.772   9.985  2.0437  0.0783  2.7788
  244MOL0     H32882   0.508   8.675  10.045 -2.0624  1.2621  1.3551
  244MOL0     H32883   0.395   8.886  10.081  0.5349  0.8446  0.4059
  244MOL0     H32884   0.518   8.974   9.986 -1.5938  1.6093 -0.6883
  244MOL0     H32885   0.480   8.823   9.784 -0.3693 -1.1377 -1.1008
  244MOL0     H32886   0.324   8.785   9.871 -1.4717  2.2231  1.2345
  244MOL0     H32887   0.289   9.023   9.865 -0.6621 -0.2079 -0.7478
  244MOL0     H32888   0.443   9.055   9.783 -0.2217 -0.9385  0.2569
  244MOL0     H32889   0.256   9.063   9.626  0.4503  0.8801  0.1687
  244MOL0     H32890   0.201   8.903   9.666  0.7033 -0.4522 -0.6725
  244MOL0     H32891   0.520   9.072   9.549 -2.3091 -0.0388  2.0134
  244MOL0     H32892   0.712   9.011   9.373  1.1450 -0.9728 -1.4213
  244MOL0     H32893   0.671   8.914   9.242  4.8796 -1.0510  3.4745
  244MOL0     H32894   0.518   9.188   9.289  0.3104  0.6079  0.1091
  244MOL0     H32895   0.510   9.060   9.164 -0.6206  1.3550  0.1607
  244MOL0     H32896   0.721   9.086   9.090  3.5833  1.0349  0.9726
  244MOL0     H32897   0.770   9.183   9.214 -0.0053 -1.8364  1.2291
  244MOL0     H32898   0.595   9.241   8.970 -2.9183 -0.4307  1.2667
  244MOL0     H32899   0.755   9.319   9.017 -0.1952 -0.7441  0.7959
  244MOL0     H32900   0.493   9.567   9.243 -0.3978  0.0061  0.3417
  244MOL0     H32901   0.348   9.753   9.286 -2.1866 -1.9241 -0.2181
  244MOL0     H32902   0.330   9.869   9.165  0.8510  0.9523  3.6787
  244MOL0     H32903   0.201   9.756   9.187 -1.2357 -1.6145  0.2159
  244MOL0     H32904   0.091   9.982   8.762 -0.7318 -2.1037 -0.8300
  244MOL0     H32905   0.070  10.193   8.616 -2.0734 -1.0023  0.3093
  244MOL0     H32906   0.385  10.337   8.537  2.5133  0.1727 -2.2990
  244MOL0     H32907   0.417  10.293   8.375 -2.3862 -1.7248 -1.4449
  244MOL0     H32908   0.280  10.526   8.476 -3.6133 -4.3823  1.1409
  244MOL0     H32909   0.424  10.527   8.375 -0.6626  0.7509 -2.2469
  244MOL0     H32910   0.148  10.444   8.250 -1.5178  2.1644 -0.0787
  244MOL0     H32911   0.308  10.428   8.192  0.3392 -0.5203  0.6935
  244MOL0     H32912   0.337  10.687   8.198 -1.5685  2.2997 -1.4598
  244MOL0     H32913   0.202  10.628   8.105 -0.5700 -2.0985 -0.0022
  244MOL0     H32914   0.183  10.847   8.256 -1.3058  1.2618 -2.9941
  244MOL0     H32915   0.179  10.729   8.385  2.2576 -0.7294 -0.8686
  244MOL0     H32916  -0.028  10.696   8.157  1.0524 -1.5753 -0.2792
  244MOL0     H32917  -0.006  10.602   8.302 -0.0892  0.3832  0.7166
  244MOL0     H32918  -0.070  10.899   8.310  1.5942  0.1688  2.0474
  244MOL0     H32919  -0.042  10.795   8.446  0.0078  2.3442 -0.0054
  244MOL0     H32920  -0.271  10.832   8.412 -2.3583  0.3627 -2.2788
  244MOL0     H32921  -0.251  10.655   8.367 -1.5001  0.0649  1.6945
  244MOL0     H32922   0.408  10.070   8.397  0.1645  2.8170  0.5119
  244MOL0     H32923   0.417   9.843   8.538 -0.3101 -0.2921 -0.4062
  244MOL0     H32924   0.473   9.587   8.753 -0.4904 -1.4903  0.6125
  244MOL0     H32925   0.557   9.423   8.846 -4.1347  1.7945 -4.2040
  244MOL0     H32926   1.032   8.452  10.471  0.7690 -0.4206 -0.5228
  244MOL0     H32927   1.230   8.495  10.608  0.4299 -0.4114  0.7935
  244MOL0     H32928   1.484   8.627  10.888  0.9462 -0.4139 -0.1884
  244MOL0     H32929   1.687   8.693  10.994 -1.3319 -1.3672  1.7569
  244MOL0     H32930   1.644   8.961  11.302 -1.1668  0.0696 -1.9716
  244MOL0     H32931   1.813   8.888  11.313  0.4024  0.5995  0.7255
  244MOL0     H32932   1.737   9.174  11.234  0.5000  0.1380 -1.5057
  244MOL0     H32933   1.890   9.099  11.193  0.3818  1.9804  0.3427
  244MOL0     H32934   1.929   9.038  11.421 -1.6781 -0.9471  1.9566
  244MOL0     H32935   1.803   9.127  11.484  0.7238 -1.6773  0.9213
  244MOL0     H32936   2.004   9.265  11.306 -0.1419  1.1215  0.3449
  244MOL0     H32937   2.017   9.263  11.473  1.0403  0.0831 -0.8015
  244MOL0     H32938   1.703   9.532  11.466  0.7358 -1.0368  3.0008
  244MOL0     H32939   1.493   9.048  11.141  0.4315  0.6202 -2.9225
  244MOL0     H32940   1.284   8.961  11.067  0.2025  0.2322  0.6220
  245MOL0     O32941   3.078   6.200   1.478  0.2522 -0.4725 -0.1476
  245MOL0     C32942   3.070   6.323   1.492 -0.1099 -1.1093 -0.5499
  245MOL0     O32943   3.062   6.412   1.390  0.4918  0.2747 -0.3840
  245MOL0     C32944   3.085   6.382   1.258 -1.1183  0.6035 -0.9392
  245MOL0     C32945   3.105   6.488   1.171  0.2060 -0.2350 -0.0959
  245MOL0     C32946   3.157   6.473   1.037 -0.2991  0.4192  0.1317
  245MOL0     C32947   3.180   6.346   0.991 -0.2156  0.3201 -0.7081
  245MOL0     O32948   3.246   6.315   0.877  0.0569  0.0616  0.0666
  245MOL0     C32949   3.313   6.412   0.787 -0.5443 -0.4548 -0.1573
  245MOL0     C32950   3.384   6.339   0.676 -0.9328 -0.1849 -0.0422
  245MOL0     C32951   3.472   6.434   0.592  0.2498 -1.1793  0.1845
  245MOL0     C32952   3.571   6.352   0.504  0.7948 -0.0237  0.9313
  245MOL0     C32953   3.717   6.364   0.539  0.1225  0.4847 -0.0185
  245MOL0     C32954   3.788   6.280   0.434 -0.4653 -0.3427 -0.0574
  245MOL0     C32955   3.940   6.291   0.437  0.9473  0.2393 -0.0337
  245MOL0     C32956   4.012   6.262   0.566  0.3677 -0.2310 -0.1630
  245MOL0     N32957   3.970   6.134   0.620  1.0879 -0.5231 -0.9519
  245MOL0     C32958   3.989   6.013   0.566 -0.9529  0.0355  0.0241
  245MOL0     C32959   3.931   5.921   0.650 -1.0011  0.2063 -0.8027
  245MOL0     C32960   3.950   5.775   0.641  0.2058  0.3039 -0.4151
  245MOL0     C32961   4.077   5.717   0.591 -0.1831  0.0436 -0.3956
  245MOL0     C32962   4.074   5.575   0.602 -1.5541 -0.2777 -0.0282
  245MOL0     C32963   4.204   5.503   0.558  1.1112  0.5723  0.0426
  245MOL0     O32964   4.319   5.540   0.638 -0.3795  0.1506  0.2998
  245MOL0     C32965   4.302   5.528   0.778 -0.1873  0.5285  0.7308
  245MOL0     C32966   4.383   5.612   0.865  0.4489 -0.4674 -0.0018
  245MOL0     C32967   4.404   5.588   0.999  0.7654  0.1083  0.1058
  245MOL0     C32968   4.505   5.678   1.069 -0.1802 -0.4220  0.3659
  245MOL0     C32969   4.332   5.478   1.055  0.1977  0.3596 -0.4239
  245MOL0     C32970   4.368   5.427   1.191  0.0454  0.5016  0.2047
  245MOL0     O32971   4.432   5.517   1.269 -0.3240  0.2850 -0.0650
  245MOL0     C32972   4.467   5.500   1.402 -0.3501  0.0217 -0.4928
  245MOL0     C32973   4.466   5.384   1.488  0.4685  0.1594  0.8039
  245MOL0     C32974   4.494   5.389   1.627  0.2821 -0.5648  0.2925
  245MOL0     C32975   4.563   5.502   1.679 -0.4785  0.0785 -0.3501
  245MOL0     O32976   4.615   5.496   1.804  0.4478 -0.8904 -0.3816
  245MOL0     C32977   4.744   5.431   1.813 -0.4280 -0.5761 -0.2167
  245MOL0     C32978   4.797   5.420   1.955  0.3366 -0.2123  0.2731
  245MOL0     C32979   4.713   5.344   2.053  0.5446  1.1595 -0.0249
  245MOL0     C32980   4.785   5.229   2.121 -0.5404  0.2339 -0.5857
  245MOL0     C32981   4.708   5.164   2.241  1.1145  0.0377 -1.2204
  245MOL0     C32982   4.714   5.015   2.238 -0.3203 -0.2096 -0.5858
  245MOL0     C32983   4.640   4.953   2.121 -0.2605 -0.0225  0.0969
  245MOL0     C32984   4.725   4.835   2.059 -0.9796 -0.6202 -0.1502
  245MOL0    Cl32985   4.853   4.894   1.941  0.0612  0.0229  0.0660
  245MOL0     C32986   4.575   5.611   1.597  0.4484 -0.0049  0.0342
  245MOL0     C32987   4.534   5.610   1.459 -0.2561  0.7744 -0.2416
  245MOL0     O32988   4.334   5.313   1.217 -0.2897  0.6373  0.3372
  245MOL0     C32989   4.267   5.389   0.970  0.0015  0.0366  0.6581
  245MOL0     C32990   4.246   5.419   0.837 -0.3655 -0.5971 -0.6424
  245MOL0     N32991   3.882   5.988   0.758 -0.4091  0.5078  0.4692
  245MOL0     N32992   3.901   6.121   0.740  0.2364 -0.3912  0.5071
  245MOL0     C32993   3.135   6.239   1.072 -0.2614  0.1816  0.2200
  245MOL0     C32994   3.089   6.256   1.197  0.6872 -0.2115  0.2404
  245MOL0     C32995   3.057   6.368   1.636 -0.1748  0.5025  0.9150
  245MOL0     C32996   2.959   6.319   1.718  0.3790  0.5717  0.6134
  245MOL0     C32997   2.949   6.366   1.852  1.2089 -0.5442  0.4468
  245MOL0     C32998   3.042   6.461   1.906  0.7548 -0.4054  1.3810
  245MOL0     O32999   3.039   6.484   2.038  0.6479 -0.2882 -0.2297
  245MOL0     C33000   2.908   6.515   2.097  0.4409  0.0588 -0.4002
  245MOL0     C33001   2.927   6.541   2.239 -0.1647 -0.0093  0.5625
  245MOL0     C33002   2.804   6.513   2.331  0.3559  0.6096 -0.2966
  245MOL0     C33003   2.666   6.556   2.283  0.2894 -1.2319  1.0048
  245MOL0     C33004   2.565   6.555   2.390 -0.9833 -0.2122 -0.0715
  245MOL0     C33005   2.471   6.554   2.466  0.0784 -0.0085  1.0016
  245MOL0     C33006   3.136   6.525   1.818  0.0934  0.6646 -0.1675
  245MOL0     C33007   3.137   6.475   1.680 -0.7863 -0.0172 -0.0428
  245MOL0     H33008   3.101   6.591   1.206 -5.2635  0.2882 -1.4265
  245MOL0     H33009   3.187   6.559   0.979 -2.1627  0.7764 -0.3636
  245MOL0     H33010   3.239   6.480   0.744 -0.6368 -2.0378 -2.7371
  245MOL0     H33011   3.387   6.475   0.837 -0.6858 -1.5971  1.5934
  245MOL0     H33012   3.441   6.256   0.719  1.5622 -0.1605 -3.0108
  245MOL0     H33013   3.315   6.296   0.603 -0.1886  2.8789 -2.7868
  245MOL0     H33014   3.406   6.485   0.522  0.4729 -1.9616 -0.6057
  245MOL0     H33015   3.530   6.514   0.639 -0.0430  1.9987 -4.2651
  245MOL0     H33016   3.553   6.246   0.521  2.3047 -0.1816  1.6982
  245MOL0     H33017   3.552   6.366   0.397 -0.9299  3.6158  1.5257
  245MOL0     H33018   3.741   6.471   0.534 -3.0452  1.4237  1.6510
  245MOL0     H33019   3.740   6.323   0.638 -0.2949 -0.5249 -0.3268
  245MOL0     H33020   3.745   6.179   0.432 -2.3336  0.2565  2.7591
  245MOL0     H33021   3.755   6.313   0.335  1.7038  3.3534  0.2786
  245MOL0     H33022   3.989   6.233   0.359  0.9409 -0.0866  0.2024
  245MOL0     H33023   3.959   6.396   0.413 -0.1930  0.5978  0.5400
  245MOL0     H33024   3.992   6.336   0.645  0.2327  1.8000 -2.0030
  245MOL0     H33025   4.118   6.268   0.542  0.4727 -2.5708 -0.4705
  245MOL0     H33026   4.038   5.986   0.472 -1.1179 -2.0749  0.4995
  245MOL0     H33027   3.932   5.733   0.740 -1.3437 -1.2858 -1.3247
  245MOL0     H33028   3.860   5.743   0.589 -2.1857 -0.5708  3.8619
  245MOL0     H33029   4.154   5.744   0.665  2.2286  0.3529 -2.8750
  245MOL0     H33030   4.106   5.748   0.491  1.8374 -0.2589  0.0574
  245MOL0     H33031   3.992   5.543   0.537 -0.7172 -0.1613 -1.1510
  245MOL0     H33032   4.061   5.547   0.707  2.5074  0.8825  0.9826
  245MOL0     H33033   4.221   5.513   0.450  0.5645 -1.0572 -0.2287
  245MOL0     H33034   4.191   5.395   0.574 -0.0211  0.8646  1.2169
  245MOL0     H33035   4.431   5.696   0.815  0.3319  0.5023  1.4433
  245MOL0     H33036   4.469   5.737   1.153 -0.4714  0.5716 -0.4336
  245MOL0     H33037   4.584   5.607   1.094 -1.2004 -1.0604  1.8974
  245MOL0     H33038   4.537   5.749   0.992 -1.5039 -2.1640 -1.9356
  245MOL0     H33039   4.418   5.297   1.444  0.7404  1.0846 -1.4762
  245MOL0     H33040   4.470   5.295   1.677 -1.7757 -1.3668 -1.9784
  245MOL0     H33041   4.727   5.329   1.776 -0.3257  0.0490 -2.1010
  245MOL0     H33042   4.819   5.472   1.745 -2.2391  0.4130 -1.7185
  245MOL0     H33043   4.891   5.366   1.941  0.1648 -0.0554 -1.8003
  245MOL0     H33044   4.825   5.518   1.996 -0.3642  0.5381 -0.9698
  245MOL0     H33045   4.630   5.313   1.988  1.4085  1.0064 -1.0889
  245MOL0     H33046   4.673   5.419   2.122  0.5992  2.9670 -1.8590
  245MOL0     H33047   4.809   5.155   2.044 -0.0965 -2.2863  1.8479
  245MOL0     H33048   4.884   5.259   2.156  0.4754  2.1238 -4.4070
  245MOL0     H33049   4.604   5.188   2.216  1.2598 -0.3277 -2.2273
  245MOL0     H33050   4.731   5.208   2.339  2.2778 -1.3978 -0.8025
  245MOL0     H33051   4.818   4.979   2.237  0.0957  0.9172  0.0185
  245MOL0     H33052   4.670   4.974   2.330  2.0681 -0.6735  0.4310
  245MOL0     H33053   4.598   5.033   2.059 -0.0285  4.1701  4.7175
  245MOL0     H33054   4.552   4.901   2.160 -1.0298  0.7838 -0.5045
  245MOL0     H33055   4.651   4.765   2.019  0.4024 -2.1318 -0.1658
  245MOL0     H33056   4.782   4.778   2.132 -0.9078  1.6195  1.6420
  245MOL0     H33057   4.617   5.700   1.644 -0.4752  1.0193 -1.0544
  245MOL0     H33058   4.556   5.694   1.393  2.0127 -1.0918 -2.0446
  245MOL0     H33059   4.207   5.307   1.007  1.2961 -0.4813  1.6795
  245MOL0     H33060   4.189   5.351   0.774  0.8632 -1.5304 -0.7949
  245MOL0     H33061   3.131   6.138   1.032 -2.1991  0.4321 -0.3368
  245MOL0     H33062   3.078   6.165   1.256  2.1274  0.8757  2.3219
  245MOL0     H33063   2.889   6.252   1.668  2.4102 -0.4815 -0.9687
  245MOL0     H33064   2.873   6.336   1.923  1.8490 -0.2784  1.2551
  245MOL0     H33065   2.865   6.602   2.047 -0.4552 -0.3443 -0.3503
  245MOL0     H33066   2.834   6.435   2.094  1.3543 -0.8032 -0.3033
  245MOL0     H33067   2.956   6.644   2.259 -1.8579  0.4569  0.8432
  245MOL0     H33068   3.001   6.473   2.281 -0.1523  0.9475  2.1450
  245MOL0     H33069   2.828   6.562   2.425  0.1304 -0.5159  0.3670
  245MOL0     H33070   2.791   6.405   2.344 -0.2095  0.4371 -1.9906
  245MOL0     H33071   2.633   6.495   2.198  0.5468  1.1340 -0.9086
  245MOL0     H33072   2.675   6.657   2.241 -2.9929  0.5911  4.1883
  245MOL0     H33073   2.407   6.546   2.552 -2.0251 -0.7355 -0.5365
  245MOL0     H33074   3.205   6.597   1.859  1.2995  0.0587 -1.0703
  245MOL0     H33075   3.207   6.531   1.619  1.7217 -1.0360  1.7143
  246MOL0     O33076   4.721   3.979   4.229  0.4981 -0.4289  0.3071
  246MOL0     C33077   4.658   4.069   4.286 -0.8421  0.5678  0.3607
  246MOL0     O33078   4.645   4.194   4.251  0.5559  0.1695 -0.8926
  246MOL0     C33079   4.696   4.241   4.132  0.0391 -0.2598 -0.0106
  246MOL0     C33080   4.750   4.368   4.131 -0.3836 -0.8815 -0.0167
  246MOL0     C33081   4.823   4.431   4.033 -0.8929 -0.2198  0.1705
  246MOL0     C33082   4.843   4.361   3.914 -0.2689  0.1726 -0.2190
  246MOL0     O33083   4.911   4.415   3.816  0.3402 -1.2663  0.4562
  246MOL0     C33084   5.039   4.341   3.792 -0.1609  0.1758  0.2009
  246MOL0     C33085   5.061   4.332   3.645  0.2531 -0.5089 -0.7179
  246MOL0     C33086   5.116   4.464   3.584 -0.7950 -0.1056 -0.7298
  246MOL0     C33087   5.128   4.454   3.432  0.7578 -0.2855 -0.8751
  246MOL0     C33088   5.242   4.366   3.384  1.2623  0.2007  0.4218
  246MOL0     C33089   5.267   4.413   3.238 -1.4766 -0.2694 -0.2600
  246MOL0     C33090   5.168   4.357   3.131 -0.7968 -0.7222  0.0813
  246MOL0     C33091   5.182   4.401   2.987  0.1313 -0.8025  0.7412
  246MOL0     N33092   5.181   4.545   2.957 -1.2129 -0.9866  0.9209
  246MOL0     C33093   5.088   4.623   2.891  0.1318 -0.0703 -1.1744
  246MOL0     C33094   5.143   4.750   2.890  0.7522 -0.4054  0.1831
  246MOL0     C33095   5.084   4.874   2.831 -0.2476 -0.7025  0.1779
  246MOL0     C33096   5.154   4.905   2.706 -0.5031  0.2605 -0.2663
  246MOL0     C33097   5.099   4.827   2.581 -0.3878  0.5993 -0.1237
  246MOL0     C33098   4.949   4.804   2.560 -0.5984  0.5425  0.4733
  246MOL0     O33099   4.907   4.693   2.642 -0.4026  0.8845 -0.2018
  246MOL0     C33100   4.784   4.633   2.636  1.0907 -0.3773  0.3036
  246MOL0     C33101   4.667   4.692   2.582  1.5693 -0.3650  0.3141
  246MOL0     C33102   4.550   4.621   2.566  0.5816  0.2701  0.7003
  246MOL0     C33103   4.438   4.687   2.490  0.1725 -0.6224 -0.3532
  246MOL0     C33104   4.544   4.494   2.619  0.3326  0.0265 -0.6431
  246MOL0     C33105   4.419   4.403   2.623 -0.9239 -0.4739  0.2922
  246MOL0     O33106   4.433   4.283   2.685 -0.6437 -0.6997 -0.3325
  246MOL0     C33107   4.334   4.191   2.695 -0.2965  0.2514  0.0721
  246MOL0     C33108   4.284   4.127   2.580  0.2151  0.0377  0.3826
  246MOL0     C33109   4.170   4.038   2.590 -0.0333 -0.3625 -0.7726
  246MOL0     C33110   4.109   4.013   2.716 -0.1440 -0.7896  0.0881
  246MOL0     O33111   4.006   3.917   2.743 -0.0886 -0.4182 -0.0144
  246MOL0     C33112   3.961   3.837   2.632  0.2968 -0.9928  0.0518
  246MOL0     C33113   3.854   3.733   2.659  0.7060  0.1359 -0.3618
  246MOL0     C33114   3.737   3.788   2.736  0.4260  0.0877 -0.2857
  246MOL0     C33115   3.605   3.760   2.675  0.4359  0.1490  0.0793
  246MOL0     C33116   3.487   3.831   2.758  0.4013  0.7480  0.3510
  246MOL0     C33117   3.461   3.982   2.731  0.6243 -0.0800 -0.2645
  246MOL0     C33118   3.320   4.028   2.787 -0.0456  0.5832 -1.2122
  246MOL0     C33119   3.324   4.172   2.837 -0.5512  0.4524  0.3333
  246MOL0    Cl33120   3.378   4.300   2.730  0.5179 -0.4114  0.0351
  246MOL0     C33121   4.156   4.077   2.828 -1.0179 -0.1260  0.8370
  246MOL0     C33122   4.273   4.162   2.821  0.3267 -0.2265 -0.2434
  246MOL0     O33123   4.321   4.449   2.564  0.6291 -0.0222  1.0808
  246MOL0     C33124   4.664   4.436   2.680  0.2999  0.5844 -0.6279
  246MOL0     C33125   4.783   4.505   2.681  0.4914 -0.4370  0.9268
  246MOL0     N33126   5.256   4.746   2.975  0.6244 -0.2506 -0.0665
  246MOL0     N33127   5.285   4.628   2.995 -0.9003 -0.1423  0.3489
  246MOL0     C33128   4.785   4.235   3.903  0.6196 -0.6120 -0.2087
  246MOL0     C33129   4.710   4.179   4.009  0.7398 -0.8007  0.2669
  246MOL0     C33130   4.616   4.035   4.422 -0.0692 -0.5698 -0.3516
  246MOL0     C33131   4.609   4.126   4.528  0.3868 -0.1741 -0.2786
  246MOL0     C33132   4.567   4.095   4.654 -0.6143 -0.2911 -0.2283
  246MOL0     C33133   4.521   3.969   4.683  0.1883 -0.2692  0.5487
  246MOL0     O33134   4.494   3.947   4.809  0.3152  0.7094  0.2366
  246MOL0     C33135   4.435   3.820   4.855 -0.2373  0.5091 -0.5421
  246MOL0     C33136   4.293   3.803   4.812  0.3620  0.7245  0.2532
  246MOL0     C33137   4.250   3.650   4.824 -0.3264 -0.4944 -0.0904
  246MOL0     C33138   4.115   3.636   4.896  0.3514  0.0101  0.7242
  246MOL0     C33139   4.009   3.705   4.831 -0.7191  0.1819  0.1646
  246MOL0     C33140   3.926   3.782   4.786  0.4462  0.0801  1.1055
  246MOL0     C33141   4.518   3.872   4.577 -0.8568 -0.1937  0.7278
  246MOL0     C33142   4.565   3.903   4.449  0.4061 -0.6030 -0.3518
  246MOL0     H33143   4.746   4.419   4.227 -2.2010 -2.2878  0.7237
  246MOL0     H33144   4.871   4.528   4.039  1.3862 -1.1835 -1.0267
  246MOL0     H33145   5.127   4.385   3.839 -0.2539 -0.9251  1.4756
  246MOL0     H33146   5.046   4.244   3.841 -0.8818  1.1933  2.4995
  246MOL0     H33147   5.135   4.261   3.608  1.8900  1.7257 -2.0545
  246MOL0     H33148   4.972   4.303   3.590 -0.7087 -1.0212  1.0230
  246MOL0     H33149   5.047   4.542   3.617  0.1236 -0.6447  2.8590
  246MOL0     H33150   5.216   4.469   3.628 -0.1818 -3.4447 -1.4325
  246MOL0     H33151   5.038   4.416   3.383  1.7821 -3.8880 -0.3087
  246MOL0     H33152   5.153   4.554   3.395  1.3498  0.1107  0.5206
  246MOL0     H33153   5.331   4.367   3.448  3.7385  2.5183 -2.7078
  246MOL0     H33154   5.212   4.261   3.372  3.3277 -0.4695  0.7139
  246MOL0     H33155   5.273   4.522   3.230  0.4283 -0.3091  0.1503
  246MOL0     H33156   5.364   4.384   3.199 -0.3754  2.8100 -0.1285
  246MOL0     H33157   5.188   4.250   3.140 -1.8051 -0.8173  1.5124
  246MOL0     H33158   5.066   4.377   3.166  0.2286  0.4870  2.6539
  246MOL0     H33159   5.103   4.348   2.932 -2.4603  1.8070  1.7341
  246MOL0     H33160   5.281   4.366   2.956  0.9709  2.9666 -1.4178
  246MOL0     H33161   4.992   4.585   2.857 -0.2548  0.0911 -0.2926
  246MOL0     H33162   4.977   4.858   2.820  0.2339 -2.6968 -3.0610
  246MOL0     H33163   5.098   4.953   2.905  1.9032 -1.1462  0.3095
  246MOL0     H33164   5.261   4.882   2.717 -0.1789  2.4887  2.0672
  246MOL0     H33165   5.153   5.010   2.678 -0.1492 -0.4381 -3.3026
  246MOL0     H33166   5.159   4.736   2.575  4.8607  3.7193 -1.1081
  246MOL0     H33167   5.148   4.893   2.509 -1.2993  0.2735 -1.0859
  246MOL0     H33168   4.927   4.792   2.454 -1.0486  2.1918  0.3615
  246MOL0     H33169   4.889   4.884   2.604 -1.1892 -0.3928  1.4227
  246MOL0     H33170   4.672   4.796   2.551  2.0826  0.0940  1.8726
  246MOL0     H33171   4.414   4.615   2.410 -3.6110 -1.3313  1.2170
  246MOL0     H33172   4.345   4.707   2.544 -0.4569 -0.7604 -1.3591
  246MOL0     H33173   4.470   4.783   2.448 -0.1487 -1.5177 -2.8226
  246MOL0     H33174   4.337   4.149   2.488 -1.5107  0.4355 -0.5444
  246MOL0     H33175   4.124   3.995   2.502 -1.0981  0.9467 -0.8844
  246MOL0     H33176   3.918   3.912   2.566  2.0541  3.4641  3.4079
  246MOL0     H33177   4.045   3.787   2.582  4.4469  3.2414  1.9963
  246MOL0     H33178   3.824   3.696   2.561 -1.7234  4.6506 -1.6277
  246MOL0     H33179   3.900   3.659   2.725 -2.6936  0.6310  2.9393
  246MOL0     H33180   3.743   3.896   2.720  1.9228  0.1147  0.2573
  246MOL0     H33181   3.721   3.757   2.840  1.6533 -2.7083 -0.8429
  246MOL0     H33182   3.598   3.801   2.573 -1.5621 -0.6466 -0.1555
  246MOL0     H33183   3.596   3.653   2.654 -1.9514  0.1811  0.6565
  246MOL0     H33184   3.524   3.827   2.861  3.8722 -0.7194 -0.8019
  246MOL0     H33185   3.400   3.768   2.741  2.5869 -2.1689 -0.9956
  246MOL0     H33186   3.547   4.042   2.759  0.4705  1.9672 -3.6252
  246MOL0     H33187   3.458   3.983   2.622  3.0264 -0.4906 -0.3899
  246MOL0     H33188   3.293   3.960   2.868 -0.3519 -0.0664 -1.8496
  246MOL0     H33189   3.247   4.003   2.709 -0.7717  0.2234 -0.4290
  246MOL0     H33190   3.370   4.167   2.936 -6.5002 -0.8125  3.5423
  246MOL0     H33191   3.227   4.210   2.871 -1.0627 -0.9151  0.4952
  246MOL0     H33192   4.103   4.060   2.921 -0.6485 -0.7057  0.9493
  246MOL0     H33193   4.321   4.188   2.915 -1.1927  0.0130  0.4954
  246MOL0     H33194   4.669   4.338   2.726  0.3614 -0.7444 -3.2932
  246MOL0     H33195   4.876   4.456   2.708 -0.8684 -4.1818 -0.4969
  246MOL0     H33196   4.779   4.195   3.802 -1.7882 -0.6779 -0.0910
  246MOL0     H33197   4.660   4.084   3.995 -0.3320 -0.2435  0.2308
  246MOL0     H33198   4.646   4.222   4.495 -0.8106 -0.0427 -1.3121
  246MOL0     H33199   4.557   4.177   4.725  0.2170 -1.2070  0.9880
  246MOL0     H33200   4.501   3.737   4.827 -0.8642  0.2254 -1.2374
  246MOL0     H33201   4.446   3.810   4.963 -0.1951 -1.2528 -0.6767
  246MOL0     H33202   4.287   3.828   4.705  2.5037 -0.1943 -0.1274
  246MOL0     H33203   4.238   3.880   4.867 -0.8683  0.6104 -0.7768
  246MOL0     H33204   4.321   3.613   4.899  0.4011  2.0919  0.6111
  246MOL0     H33205   4.255   3.595   4.730  1.6224 -0.9643  0.2476
  246MOL0     H33206   4.131   3.671   4.999 -0.1368 -1.3491  1.2728
  246MOL0     H33207   4.082   3.533   4.884  1.2193 -0.2439  0.4433
  246MOL0     H33208   3.871   3.871   4.762  0.4496 -0.5338 -1.5052
  246MOL0     H33209   4.479   3.773   4.599  0.2666 -1.2926 -1.7924
  246MOL0     H33210   4.554   3.842   4.360  0.1880  0.1595 -0.8558
  247MOL0     O33211  11.318   7.960  11.493 -0.9289 -0.1105 -0.2586
  247MOL0     C33212  11.226   7.900  11.427 -0.3141  0.1868  0.7739
  247MOL0     O33213  11.244   7.817  11.323  0.6339 -0.2041  0.0347
  247MOL0     C33214  11.372   7.815  11.264 -0.9988  0.0002 -0.2264
  247MOL0     C33215  11.409   7.917  11.165  0.0145  0.0400 -0.1988
  247MOL0     C33216  11.530   7.902  11.093 -0.4480 -0.6102  1.0683
  247MOL0     C33217  11.633   7.821  11.139  0.9395 -0.5095 -0.1693
  247MOL0     O33218  11.754   7.812  11.097 -0.5932  0.2748 -0.0005
  247MOL0     C33219  11.822   7.929  11.045  0.5907 -0.0423  0.6396
  247MOL0     C33220  11.969   7.941  11.067  0.0971  0.3128  0.1015
  247MOL0     C33221  12.052   7.825  11.004 -0.0065  0.0816 -0.1385
  247MOL0     C33222  12.051   7.685  11.081  0.3691 -1.1376 -0.1132
  247MOL0     C33223  12.093   7.563  10.989 -0.5167 -0.4455 -1.0411
  247MOL0     C33224  11.972   7.534  10.891  0.5204  0.3189 -0.3168
  247MOL0     C33225  12.028   7.441  10.787 -0.0355  0.7337  0.6692
  247MOL0     C33226  11.910   7.380  10.708 -1.0246  0.7587 -0.3639
  247MOL0     N33227  11.937   7.275  10.613 -1.4354  0.0225 -1.1096
  247MOL0     C33228  11.911   7.271  10.483  0.1972  0.9200  0.6388
  247MOL0     C33229  11.954   7.145  10.452 -0.3142 -0.8366  0.2674
  247MOL0     C33230  11.954   7.083  10.317 -1.2597 -0.0261  0.7146
  247MOL0     C33231  12.005   7.186  10.221 -0.5746 -0.8792  0.0175
  247MOL0     C33232  12.040   7.136  10.082  0.5056 -0.4642 -0.3518
  247MOL0     C33233  12.144   7.018  10.075  0.0175 -0.1045 -0.0511
  247MOL0     O33234  12.261   7.051  10.147  0.3098  0.1438  0.1025
  247MOL0     C33235  12.348   7.143  10.094  0.4021  0.2601  0.3080
  247MOL0     C33236  12.365   7.174   9.958  0.0264  0.3814 -0.5341
  247MOL0     C33237  12.458   7.264   9.911  0.6555 -0.4124 -0.0486
  247MOL0     C33238  12.449   7.312   9.770 -0.0639 -0.5609 -0.4325
  247MOL0     C33239  12.567   7.303  10.001 -0.1984 -0.8725 -0.1936
  247MOL0     C33240  12.686   7.394   9.969 -0.0312 -0.2732  0.9115
  247MOL0     O33241  12.680   7.442   9.842 -0.7672 -1.2784 -0.7344
  247MOL0     C33242  12.769   7.543   9.823 -0.0061  1.0143  0.4702
  247MOL0     C33243  12.721   7.669   9.799 -0.4567  0.5594 -1.1242
  247MOL0     C33244  12.810   7.782   9.782  0.7107 -0.4353  0.7369
  247MOL0     C33245  12.944   7.765   9.785  0.0457  0.3099  0.6386
  247MOL0     O33246  13.024   7.877   9.775  0.2092  0.1019 -0.5351
  247MOL0     C33247  13.157   7.864   9.782 -0.2279  0.6590  0.2829
  247MOL0     C33248  13.210   7.999   9.738  0.0869 -0.6511  1.4179
  247MOL0     C33249  13.358   8.012   9.720  0.4288 -0.6687 -0.2941
  247MOL0     C33250  13.423   8.147   9.685 -0.4114  0.0788  0.7967
  247MOL0     C33251  13.571   8.136   9.641  0.6759 -0.5436 -0.2674
  247MOL0     C33252  13.640   8.266   9.628  0.0870  0.5910 -0.4167
  247MOL0     C33253  13.781   8.245   9.573  0.1909  0.3487  0.6126
  247MOL0     C33254  13.866   8.371   9.584 -1.3202  1.0434  1.1088
  247MOL0    Cl33255  13.945   8.366   9.749  0.3113 -0.9068 -0.1154
  247MOL0     C33256  12.993   7.637   9.807 -0.3814  0.0036 -0.7387
  247MOL0     C33257  12.905   7.529   9.807  0.1155  0.0896  0.0404
  247MOL0     O33258  12.766   7.424  10.054 -0.8478  0.0550 -0.5739
  247MOL0     C33259  12.539   7.282  10.143 -0.4293  0.2725  0.2137
  247MOL0     C33260  12.432   7.203  10.183  0.6521  0.3473 -0.0774
  247MOL0     N33261  12.000   7.082  10.564 -0.0540 -0.1105  1.6135
  247MOL0     N33262  11.974   7.158  10.663 -0.2289  0.1499  0.7608
  247MOL0     C33263  11.604   7.731  11.241  1.1163 -0.2664 -0.4651
  247MOL0     C33264  11.479   7.734  11.305 -0.3106 -0.1648 -0.3910
  247MOL0     C33265  11.084   7.927  11.467 -0.2691  0.4702 -0.1677
  247MOL0     C33266  10.964   7.884  11.393 -0.4758  0.6370  0.3384
  247MOL0     C33267  10.844   7.906  11.445 -0.2011 -1.0801  0.6548
  247MOL0     C33268  10.817   7.978  11.558 -0.7264 -0.4892  0.8528
  247MOL0     O33269  10.686   8.004  11.573  0.6755 -0.0359  0.1051
  247MOL0     C33270  10.617   8.105  11.660 -0.1033 -0.1504  0.1293
  247MOL0     C33271  10.455   8.102  11.652  0.0817  0.3362 -1.0140
  247MOL0     C33272  10.390   7.989  11.736 -0.6409  0.0341  0.0777
  247MOL0     C33273  10.242   7.985  11.707 -0.7718  0.3512  0.5042
  247MOL0     C33274  10.184   8.106  11.756 -0.3757  0.4281  0.1523
  247MOL0     C33275  10.127   8.205  11.798 -0.4531  0.2909 -0.3604
  247MOL0     C33276  10.924   8.036  11.627  0.1795  0.2290 -0.7869
  247MOL0     C33277  11.058   8.005  11.585  0.1721 -0.0001  0.4807
  247MOL0     H33278  11.324   7.974  11.130 -0.2755  1.5853  2.7307
  247MOL0     H33279  11.543   7.955  10.999 -2.9636  0.1002  1.0383
  247MOL0     H33280  11.800   7.915  10.938  3.4210  0.0866 -0.0348
  247MOL0     H33281  11.786   8.020  11.094  2.2491  0.0812  1.6902
  247MOL0     H33282  12.006   8.029  11.014 -1.9396  0.0720 -1.8654
  247MOL0     H33283  11.979   7.950  11.176 -1.5804 -0.9917  0.4026
  247MOL0     H33284  12.016   7.811  10.901 -0.2820 -1.2687  0.1197
  247MOL0     H33285  12.157   7.856  11.003 -0.0537  0.4612  2.2118
  247MOL0     H33286  12.126   7.704  11.158 -0.2230  0.7989  0.0346
  247MOL0     H33287  11.952   7.656  11.117 -0.9693  0.0725 -2.5402
  247MOL0     H33288  12.178   7.598  10.930 -1.1359  2.4502 -0.3619
  247MOL0     H33289  12.108   7.481  11.060 -0.3265  1.1964  0.8926
  247MOL0     H33290  11.884   7.491  10.941  0.0537  1.6105  0.0115
  247MOL0     H33291  11.933   7.624  10.842 -1.3732 -0.5556 -0.4882
  247MOL0     H33292  12.095   7.494  10.719 -0.8968 -0.4471 -1.2195
  247MOL0     H33293  12.081   7.359  10.835  0.8387  1.8084  1.5761
  247MOL0     H33294  11.838   7.451  10.666  0.1618  1.2704 -1.6107
  247MOL0     H33295  11.851   7.334  10.787  2.3836  0.1609  2.0473
  247MOL0     H33296  11.874   7.354  10.423  1.7507  3.7769  3.3318
  247MOL0     H33297  12.019   6.995  10.312  3.2437  2.9553  0.1316
  247MOL0     H33298  11.847   7.069  10.298 -0.9794  1.3488 -2.5084
  247MOL0     H33299  12.100   7.222  10.263  0.0922  1.5129 -3.1032
  247MOL0     H33300  11.939   7.273  10.213  1.7386  1.1276  1.1602
  247MOL0     H33301  12.091   7.220  10.037 -0.6753  0.5107  0.0660
  247MOL0     H33302  11.944   7.105  10.038 -0.1074 -2.3395  2.0302
  247MOL0     H33303  12.145   6.977   9.973 -1.8786  1.5774 -0.8099
  247MOL0     H33304  12.107   6.926  10.121 -1.0644 -1.1601 -2.8070
  247MOL0     H33305  12.306   7.125   9.881  3.3601 -3.0689 -1.1638
  247MOL0     H33306  12.453   7.421   9.775  5.7543 -0.4256 -1.4025
  247MOL0     H33307  12.537   7.280   9.713 -1.0195 -1.2170 -1.5936
  247MOL0     H33308  12.355   7.276   9.727  0.7637 -2.8423 -0.5088
  247MOL0     H33309  12.618   7.702   9.804 -0.1244  1.5009  2.4303
  247MOL0     H33310  12.760   7.871   9.745 -2.4700 -2.7236 -0.9315
  247MOL0     H33311  13.196   7.842   9.882  2.4440  0.5047 -0.7055
  247MOL0     H33312  13.196   7.788   9.714 -0.1498 -1.0569  2.1546
  247MOL0     H33313  13.171   8.042   9.645  2.1312 -0.0517  0.7802
  247MOL0     H33314  13.188   8.072   9.816 -0.8463  1.1269 -0.3991
  247MOL0     H33315  13.391   7.941   9.643 -0.0906 -0.8030 -0.3973
  247MOL0     H33316  13.406   7.992   9.816  2.9840  0.0975 -1.3418
  247MOL0     H33317  13.364   8.184   9.601 -0.9191 -1.7315  0.3126
  247MOL0     H33318  13.424   8.221   9.765 -2.1078  0.9866  0.0400
  247MOL0     H33319  13.582   8.095   9.540  0.9824  1.7907 -1.2420
  247MOL0     H33320  13.623   8.073   9.715  0.1147  0.5790  1.1284
  247MOL0     H33321  13.582   8.334   9.565 -1.9146 -0.8760 -0.2342
  247MOL0     H33322  13.646   8.311   9.728 -1.7669 -1.1502  0.5397
  247MOL0     H33323  13.773   8.226   9.465 -0.0380  0.0657  0.6759
  247MOL0     H33324  13.834   8.161   9.618  3.5573  0.1240 -3.1937
  247MOL0     H33325  13.819   8.470   9.577  0.7761  1.9678 -1.5549
  247MOL0     H33326  13.933   8.375   9.498 -2.3818  0.7253  0.2431
  247MOL0     H33327  13.097   7.605   9.817 -1.1061 -1.9932  1.1299
  247MOL0     H33328  12.944   7.428   9.815 -0.0012  0.0546  0.1854
  247MOL0     H33329  12.604   7.319  10.222 -1.6569  1.6885  0.6313
  247MOL0     H33330  12.411   7.187  10.288 -0.8284  1.9035 -0.0871
  247MOL0     H33331  11.676   7.666  11.291  0.5079 -0.5353  0.0734
  247MOL0     H33332  11.466   7.669  11.391  2.2755  0.4711  0.5739
  247MOL0     H33333  10.978   7.822  11.305 -1.5699 -0.9309  1.2236
  247MOL0     H33334  10.752   7.865  11.406  0.1034 -2.5773  1.4317
  247MOL0     H33335  10.652   8.109  11.763 -2.5536 -0.7732  1.0524
  247MOL0     H33336  10.621   8.203  11.612 -2.7223 -0.7434 -1.5257
  247MOL0     H33337  10.434   8.104  11.544  0.2828 -0.2364 -1.0699
  247MOL0     H33338  10.422   8.197  11.693  0.2418 -0.1965  0.4127
  247MOL0     H33339  10.412   8.003  11.842  2.7006 -0.4492 -0.4581
  247MOL0     H33340  10.431   7.900  11.689 -3.7924 -1.1645 -0.6892
  247MOL0     H33341  10.198   7.898  11.758 -0.7316  0.8531  1.4060
  247MOL0     H33342  10.217   7.972  11.601 -3.3251  1.1816  0.9169
  247MOL0     H33343  10.076   8.287  11.843 -1.2464 -0.4524  0.1102
  247MOL0     H33344  10.901   8.077  11.725 -4.2265 -2.0220 -0.6240
  247MOL0     H33345  11.129   8.044  11.657 -1.2292 -0.0180  1.9339
  248MOL0     O33346  10.319   2.549  10.518 -0.7210 -0.3466  0.2241
  248MOL0     C33347  10.337   2.629  10.611 -0.5345  0.2437 -0.7287
  248MOL0     O33348  10.266   2.620  10.729  0.2696 -0.5863 -0.2277
  248MOL0     C33349  10.194   2.516  10.767 -0.7607  1.4319 -0.6588
  248MOL0     C33350  10.259   2.399  10.804  0.5905 -0.4998 -0.8133
  248MOL0     C33351  10.184   2.293  10.845 -0.5215 -0.2911  0.2324
  248MOL0     C33352  10.043   2.294  10.832  0.4908 -0.4187 -0.4765
  248MOL0     O33353   9.975   2.178  10.876  0.0811 -0.7331 -0.5840
  248MOL0     C33354   9.847   2.154  10.835  0.3718  0.0329  0.5574
  248MOL0     C33355   9.816   2.110  10.696  0.2978  0.3687 -0.1439
  248MOL0     C33356   9.923   2.009  10.640  0.4135  0.2873 -0.6146
  248MOL0     C33357   9.907   1.950  10.501  0.3949 -0.3489 -0.0360
  248MOL0     C33358   9.760   1.893  10.485 -0.4990  0.3178 -0.0288
  248MOL0     C33359   9.747   1.760  10.565  0.2311  0.7486  0.3574
  248MOL0     C33360   9.603   1.708  10.550 -0.1478  0.4823 -0.0452
  248MOL0     C33361   9.498   1.794  10.612  0.7048 -0.6587  0.0657
  248MOL0     N33362   9.505   1.817  10.762 -0.0270  0.5885 -0.5083
  248MOL0     C33363   9.441   1.759  10.867  1.0707 -0.4042  0.8418
  248MOL0     C33364   9.473   1.847  10.965 -0.5327  0.0630 -0.4341
  248MOL0     C33365   9.420   1.822  11.105  0.1738  0.5449  1.1705
  248MOL0     C33366   9.522   1.833  11.220  0.0553  0.4181  0.6335
  248MOL0     C33367   9.616   1.712  11.239 -0.5180  0.2143 -0.5593
  248MOL0     C33368   9.720   1.704  11.129  0.1818  0.8251 -0.5835
  248MOL0     O33369   9.667   1.648  11.007  0.0917  0.7197  0.2196
  248MOL0     C33370   9.756   1.603  10.908  0.2067 -0.4670  0.2200
  248MOL0     C33371   9.889   1.647  10.887 -0.0742 -0.6536 -0.1853
  248MOL0     C33372   9.967   1.607  10.786 -1.6273  0.8588 -0.8588
  248MOL0     C33373  10.109   1.667  10.783 -0.1162  0.0391 -0.1337
  248MOL0     C33374   9.915   1.504  10.705 -0.3937  0.3302 -0.0344
  248MOL0     C33375   9.998   1.442  10.603 -0.9443  0.3362 -0.1912
  248MOL0     O33376   9.969   1.308  10.570 -0.6988 -0.3970 -0.4951
  248MOL0     C33377  10.057   1.229  10.492  0.0634 -0.4773 -0.7789
  248MOL0     C33378   9.990   1.146  10.405  0.3397 -0.0913 -0.8024
  248MOL0     C33379  10.056   1.072  10.306 -0.4211  0.5297  0.0464
  248MOL0     C33380  10.192   1.068  10.293 -0.5951  0.2518  0.1129
  248MOL0     O33381  10.246   1.005  10.187 -0.1552  0.0159 -0.0320
  248MOL0     C33382  10.385   1.024  10.145 -0.9780 -0.1461  0.1283
  248MOL0     C33383  10.411   1.155  10.079  0.4463  0.0660  0.1628
  248MOL0     C33384  10.336   1.176   9.949  0.7241 -0.0715 -0.3397
  248MOL0     C33385  10.288   1.323   9.938  0.3022 -0.1092  0.5776
  248MOL0     C33386  10.179   1.357   9.831  0.9365  0.2197  0.3593
  248MOL0     C33387  10.225   1.336   9.682 -0.2334 -0.1672 -1.8897
  248MOL0     C33388  10.160   1.436   9.594 -0.7988 -0.2632  0.3972
  248MOL0     C33389  10.228   1.447   9.456 -0.3043  0.1000  0.3496
  248MOL0    Cl33390  10.152   1.567   9.345 -0.2472 -0.0372  0.0940
  248MOL0     C33391  10.264   1.142  10.395  0.4865 -0.4891  0.1394
  248MOL0     C33392  10.196   1.223  10.491 -0.5698 -0.3059  0.1773
  248MOL0     O33393  10.074   1.509  10.541 -0.6076 -0.3611 -0.3687
  248MOL0     C33394   9.784   1.461  10.721  0.1843 -0.5492  0.0864
  248MOL0     C33395   9.704   1.506  10.828  0.2626 -0.0417 -0.8177
  248MOL0     N33396   9.558   1.942  10.927  0.9146  1.2079 -0.2025
  248MOL0     N33397   9.569   1.928  10.801 -0.1193  0.6545 -0.2241
  248MOL0     C33398   9.979   2.404  10.779 -0.2723 -0.2020 -0.4366
  248MOL0     C33399  10.052   2.521  10.748 -0.3743 -0.4339 -0.3097
  248MOL0     C33400  10.431   2.741  10.595 -0.0525 -0.4758 -1.0438
  248MOL0     C33401  10.510   2.737  10.484 -0.2162 -0.1367 -0.7137
  248MOL0     C33402  10.596   2.847  10.458  0.6272  0.2151  0.0222
  248MOL0     C33403  10.600   2.950  10.547  0.7968 -0.5285  0.0192
  248MOL0     O33404  10.681   3.063  10.536  0.0343 -0.3599  0.4764
  248MOL0     C33405  10.646   3.163  10.433  0.3145  0.3995 -1.3148
  248MOL0     C33406  10.751   3.275  10.453  0.3546  0.6655 -0.7748
  248MOL0     C33407  10.724   3.370  10.577  1.4637 -0.2982 -0.5928
  248MOL0     C33408  10.671   3.312  10.710 -0.0518  0.3467  0.3140
  248MOL0     C33409  10.632   3.424  10.798  0.4667 -0.5523  0.8269
  248MOL0     C33410  10.629   3.528  10.865 -0.3584  0.2860  0.0480
  248MOL0     C33411  10.532   2.943  10.663  0.6264 -0.2681  0.8441
  248MOL0     C33412  10.445   2.845  10.688  0.0441  0.0313 -0.1655
  248MOL0     H33413  10.366   2.404  10.821  0.1740  0.6125  2.2260
  248MOL0     H33414  10.231   2.208  10.894 -1.1227 -0.8609 -0.1636
  248MOL0     H33415   9.809   2.080  10.907 -0.0407 -1.8943 -1.4986
  248MOL0     H33416   9.770   2.226  10.862 -1.5395 -0.9132 -1.9631
  248MOL0     H33417   9.720   2.058  10.689  0.6687 -0.2219 -1.0435
  248MOL0     H33418   9.814   2.192  10.623  0.1965  0.8401  0.3899
  248MOL0     H33419  10.025   2.048  10.653  0.4496  0.1750 -0.5614
  248MOL0     H33420   9.926   1.920  10.703  0.2851  1.4399  1.0726
  248MOL0     H33421   9.916   2.025  10.421 -2.4943  0.0024 -0.1581
  248MOL0     H33422   9.978   1.868  10.495  1.6961  0.5971  1.6796
  248MOL0     H33423   9.674   1.956  10.510 -0.1225  0.5941  0.6000
  248MOL0     H33424   9.741   1.870  10.380  0.9726 -1.2916  0.0257
  248MOL0     H33425   9.809   1.683  10.518 -1.6138 -1.3209  1.0970
  248MOL0     H33426   9.776   1.778  10.669  0.2141  0.6116  0.3867
  248MOL0     H33427   9.579   1.694  10.444  0.2951  3.3630 -0.6127
  248MOL0     H33428   9.591   1.610  10.597  0.0707 -0.1615 -1.2856
  248MOL0     H33429   9.398   1.755  10.591 -0.8633  2.0543  1.9083
  248MOL0     H33430   9.492   1.895  10.571  0.4600 -1.3494 -1.6968
  248MOL0     H33431   9.377   1.671  10.875  1.2934 -0.6020  0.4916
  248MOL0     H33432   9.349   1.901  11.132 -1.4729 -0.4585 -0.0429
  248MOL0     H33433   9.371   1.724  11.110 -0.6351  0.7644 -1.1674
  248MOL0     H33434   9.468   1.834  11.315 -0.8507 -0.5229  0.1409
  248MOL0     H33435   9.574   1.929  11.208 -1.8773  1.4643  0.1667
  248MOL0     H33436   9.554   1.622  11.232 -3.3075  2.0895 -2.3024
  248MOL0     H33437   9.659   1.717  11.339  0.9955  0.7648 -1.2073
  248MOL0     H33438   9.801   1.636  11.159  0.5453  0.4850 -2.2234
  248MOL0     H33439   9.762   1.802  11.106  2.7280 -0.6706 -2.9587
  248MOL0     H33440   9.909   1.732  10.951 -6.3541  1.6981 -0.6716
  248MOL0     H33441  10.139   1.721  10.874  1.2601  1.9123 -1.6219
  248MOL0     H33442  10.179   1.583  10.786  0.5772  0.5974 -0.2059
  248MOL0     H33443  10.116   1.733  10.696 -3.2609 -1.7439 -1.9049
  248MOL0     H33444   9.881   1.139  10.407  0.2211  0.0806 -3.4629
  248MOL0     H33445   9.996   1.006  10.244  2.5825 -3.3299  0.8884
  248MOL0     H33446  10.452   1.005  10.229  2.6595 -1.2448 -2.7541
  248MOL0     H33447  10.427   0.951  10.075  1.4537  1.4940 -0.2154
  248MOL0     H33448  10.380   1.232  10.150 -1.2847  0.0407 -0.5029
  248MOL0     H33449  10.518   1.171  10.061  1.1877  0.0837  3.8546
  248MOL0     H33450  10.244   1.118   9.946 -0.4777  1.4695  2.5257
  248MOL0     H33451  10.402   1.148   9.866 -1.6083 -1.1894 -1.9260
  248MOL0     H33452  10.236   1.352  10.030 -1.1787  1.3200 -0.6440
  248MOL0     H33453  10.376   1.384   9.916 -1.4526  2.4960  0.3569
  248MOL0     H33454  10.136   1.454   9.858 -1.3153  0.0143 -2.0836
  248MOL0     H33455  10.103   1.282   9.857  2.0683 -1.1746 -0.2065
  248MOL0     H33456  10.332   1.347   9.662  0.4368 -0.1278  1.3001
  248MOL0     H33457  10.195   1.233   9.662 -0.0899 -0.4704 -0.6128
  248MOL0     H33458  10.168   1.534   9.641 -1.2945  0.0229 -0.0995
  248MOL0     H33459  10.050   1.432   9.592 -0.8282  0.2206  0.8896
  248MOL0     H33460  10.222   1.355   9.397  2.7465  0.1437 -0.2162
  248MOL0     H33461  10.333   1.475   9.463  0.4723 -2.6141  1.0636
  248MOL0     H33462  10.371   1.126  10.400  0.2927 -1.7032  0.7330
  248MOL0     H33463  10.252   1.283  10.562  0.4817 -4.3257  3.0949
  248MOL0     H33464   9.766   1.362  10.681  1.8898 -1.7304  2.0473
  248MOL0     H33465   9.601   1.471  10.818 -0.4546  1.5480  0.4363
  248MOL0     H33466   9.870   2.402  10.778 -0.3518  1.6180  0.3747
  248MOL0     H33467  10.004   2.612  10.714  0.3269 -0.0757 -0.3618
  248MOL0     H33468  10.504   2.653  10.416  1.5149 -2.9925  2.3399
  248MOL0     H33469  10.650   2.849  10.364  1.4480  0.8533  0.4979
  248MOL0     H33470  10.649   3.121  10.332 -0.7109 -0.4458 -1.0126
  248MOL0     H33471  10.546   3.204  10.452 -0.1997 -1.6403  1.0143
  248MOL0     H33472  10.756   3.338  10.364  2.4641 -1.3356 -2.1742
  248MOL0     H33473  10.853   3.240  10.469  0.4803  1.6291  0.8078
  248MOL0     H33474  10.658   3.447  10.535  1.0088  0.1216  0.8300
  248MOL0     H33475  10.818   3.424  10.587  1.8398 -0.2199 -3.5491
  248MOL0     H33476  10.746   3.244  10.749 -0.0479 -1.0191 -1.8748
  248MOL0     H33477  10.574   3.262  10.699 -0.6219  0.4811  3.6588
  248MOL0     H33478  10.639   3.626  10.908 -1.1811 -0.2221  1.4775
  248MOL0     H33479  10.538   3.024  10.735 -0.5157  1.3264 -0.7541
  248MOL0     H33480  10.380   2.853  10.775 -0.9362  4.8267 -1.0590
  249MOL0     O33481   2.219   8.523  11.442  0.9939  0.1757  0.2851
  249MOL0     C33482   2.148   8.621  11.442  0.1523 -0.4995 -0.1639
  249MOL0     O33483   2.043   8.637  11.355 -0.0721 -0.3524 -0.1566
  249MOL0     C33484   2.033   8.557  11.243 -0.3269 -0.9630  0.1268
  249MOL0     C33485   1.908   8.491  11.232 -0.4455  1.0511 -0.4783
  249MOL0     C33486   1.870   8.423  11.112 -0.6349 -0.0167 -0.6441
  249MOL0     C33487   1.958   8.407  11.009  0.0923 -0.8232  0.5774
  249MOL0     O33488   1.931   8.326  10.907 -0.1851 -0.3392  0.6465
  249MOL0     C33489   1.978   8.358  10.774 -0.2407  0.0219  0.1167
  249MOL0     C33490   1.929   8.251  10.688  0.1873  0.3056  0.2221
  249MOL0     C33491   1.781   8.213  10.687  0.2966 -0.5150  1.1172
  249MOL0     C33492   1.774   8.062  10.662  0.0624  0.1233 -0.1361
  249MOL0     C33493   1.629   8.016  10.670  0.2357 -0.8838 -0.0589
  249MOL0     C33494   1.615   7.869  10.696  0.3090  0.3363 -0.6559
  249MOL0     C33495   1.459   7.849  10.717  0.3756  0.6106 -0.6587
  249MOL0     C33496   1.418   7.726  10.798  0.4476  0.5215  0.3851
  249MOL0     N33497   1.276   7.742  10.828  0.5138  0.8751 -0.8734
  249MOL0     C33498   1.211   7.808  10.932 -0.9795  1.0099 -0.3204
  249MOL0     C33499   1.077   7.796  10.895  0.3024 -0.3794 -0.1792
  249MOL0     C33500   0.966   7.864  10.968  0.7238  1.2736  0.1551
  249MOL0     C33501   0.946   7.775  11.087  0.0501 -0.0593 -0.0172
  249MOL0     C33502   0.873   7.834  11.214 -0.2231  0.2651  0.5925
  249MOL0     C33503   0.878   7.753  11.344 -0.4000 -0.9366 -0.3127
  249MOL0     O33504   0.997   7.772  11.417 -0.4597 -0.4870 -0.0971
  249MOL0     C33505   1.007   7.881  11.500 -0.2510  0.3401 -0.9191
  249MOL0     C33506   0.918   7.990  11.490 -0.1630  0.0254 -0.7073
  249MOL0     C33507   0.943   8.104  11.575 -0.3042  0.4914  0.3983
  249MOL0     C33508   0.876   8.239  11.549  0.4276  0.0310 -0.3743
  249MOL0     C33509   1.045   8.088  11.681  0.9283 -0.3028 -0.3624
  249MOL0     C33510   1.088   8.193  11.788  0.2633 -0.6809  0.0280
  249MOL0     O33511   1.025   8.323  11.779 -0.9801 -0.2451  0.0024
  249MOL0     C33512   1.101   8.442  11.804 -0.1221  0.1653 -0.1282
  249MOL0     C33513   1.042   8.559  11.750  0.1088 -0.2029  0.2022
  249MOL0     C33514   1.117   8.677  11.769 -0.4266  0.5834 -0.1972
  249MOL0     C33515   1.243   8.679  11.825 -0.9694 -0.7688  0.8659
  249MOL0     O33516   1.309   8.800  11.836  0.8515 -0.6571 -0.0307
  249MOL0     C33517   1.403   8.823  11.939  0.4434 -0.6219  0.5037
  249MOL0     C33518   1.340   8.820  12.079  0.3236  0.3219  0.3457
  249MOL0     C33519   1.250   8.949  12.100 -0.2223 -0.1413 -0.9588
  249MOL0     C33520   1.160   8.946  12.227  0.0169 -0.6479 -0.7208
  249MOL0     C33521   1.243   8.996  12.345 -0.0189  0.1373 -0.2808
  249MOL0     C33522   1.173   8.990  12.471  0.8876  0.6005 -0.6077
  249MOL0     C33523   1.263   9.019  12.596 -1.0860 -0.7200  0.0409
  249MOL0     C33524   1.188   9.026  12.729 -0.0803  0.3787 -0.7177
  249MOL0    Cl33525   1.320   9.054  12.865 -0.4380 -0.5347  0.3098
  249MOL0     C33526   1.314   8.559  11.846 -0.6307 -0.1327 -1.2241
  249MOL0     C33527   1.236   8.443  11.854 -0.2956  0.6386 -0.3479
  249MOL0     O33528   1.151   8.152  11.888 -0.1680 -0.0278 -0.2810
  249MOL0     C33529   1.125   7.980  11.689 -0.3184 -0.0354  0.3317
  249MOL0     C33530   1.109   7.876  11.602 -0.2563  0.2159 -0.3600
  249MOL0     N33531   1.060   7.727  10.776 -0.0022 -0.8050 -0.3004
  249MOL0     N33532   1.180   7.699  10.738  0.3242  0.8547  0.0897
  249MOL0     C33533   2.075   8.490  11.008 -0.7905 -0.0308 -0.6276
  249MOL0     C33534   2.104   8.574  11.119 -0.0248  0.2482  0.0421
  249MOL0     C33535   2.209   8.732  11.504  0.7799  0.2957  0.2560
  249MOL0     C33536   2.307   8.710  11.610  0.8472  0.3846 -0.0180
  249MOL0     C33537   2.372   8.825  11.659 -0.0730 -0.6359  0.4386
  249MOL0     C33538   2.354   8.951  11.606 -0.4921 -0.3591 -0.2659
  249MOL0     O33539   2.435   9.043  11.673 -0.1478 -0.0608 -0.5640
  249MOL0     C33540   2.427   9.180  11.638  0.9440  0.7740 -0.2505
  249MOL0     C33541   2.312   9.254  11.720 -0.1677  0.0006  0.9225
  249MOL0     C33542   2.326   9.400  11.702 -0.0080  0.3874 -0.3352
  249MOL0     C33543   2.240   9.470  11.804 -0.5497 -0.9100  0.2323
  249MOL0     C33544   2.097   9.441  11.788 -0.1435 -0.6290  0.2605
  249MOL0     C33545   1.983   9.420  11.772  0.2441 -0.3469  0.3065
  249MOL0     C33546   2.253   8.979  11.511  0.8115 -0.5543 -0.4591
  249MOL0     C33547   2.186   8.865  11.451 -0.2168  0.2843 -0.0698
  249MOL0     H33548   1.831   8.505  11.307  3.6550  2.3328  3.9353
  249MOL0     H33549   1.773   8.376  11.100  1.0501 -3.1402 -3.7259
  249MOL0     H33550   1.937   8.447  10.726  0.0823 -0.1212 -0.4342
  249MOL0     H33551   2.087   8.364  10.760 -0.3415 -1.1541 -1.5254
  249MOL0     H33552   1.958   8.277  10.585 -0.9461 -1.3466 -0.5614
  249MOL0     H33553   1.987   8.163  10.717  1.9501  0.8470 -1.4281
  249MOL0     H33554   1.731   8.233  10.782 -0.9658  2.2156 -0.0154
  249MOL0     H33555   1.730   8.272  10.610  1.8534 -0.3194  0.1887
  249MOL0     H33556   1.812   8.030  10.564  1.4939  0.9689  0.1107
  249MOL0     H33557   1.815   7.997  10.739 -0.8498 -0.0281  0.2349
  249MOL0     H33558   1.586   8.059  10.761  0.3903 -0.4987 -0.1699
  249MOL0     H33559   1.569   8.037  10.581  2.7842 -4.8542 -3.0775
  249MOL0     H33560   1.652   7.802  10.618  0.9359  0.1112 -0.1777
  249MOL0     H33561   1.650   7.843  10.797 -0.6420 -0.3049 -0.4681
  249MOL0     H33562   1.416   7.936  10.768  1.6669 -0.4372  2.4482
  249MOL0     H33563   1.411   7.837  10.619 -2.1779  0.2433  0.5753
  249MOL0     H33564   1.481   7.714  10.887 -2.1193 -0.5195  2.1940
  249MOL0     H33565   1.432   7.646  10.726 -0.3895  1.9080 -1.4111
  249MOL0     H33566   1.265   7.848  11.017 -2.9635 -1.1269  2.0832
  249MOL0     H33567   0.987   7.969  10.993 -0.4456  2.0571 -1.8967
  249MOL0     H33568   0.873   7.876  10.911 -0.2351  4.5379  2.1318
  249MOL0     H33569   1.044   7.744  11.126  0.3578 -0.6553 -1.2197
  249MOL0     H33570   0.896   7.686  11.051 -0.5672  0.7664 -1.2738
  249MOL0     H33571   0.771   7.839  11.175  0.2637  2.4261 -0.6101
  249MOL0     H33572   0.905   7.939  11.221 -3.2036  1.4744 -1.5933
  249MOL0     H33573   0.880   7.652  11.305 -2.3062 -0.6214 -1.3286
  249MOL0     H33574   0.793   7.775  11.410  0.1968  0.1547  0.1221
  249MOL0     H33575   0.845   7.993  11.409 -0.0187 -1.8042 -0.9382
  249MOL0     H33576   0.819   8.256  11.456  3.0106  0.8465 -1.9193
  249MOL0     H33577   0.816   8.241  11.640  2.5809 -0.4892  1.1162
  249MOL0     H33578   0.947   8.322  11.542 -0.0116  0.4918  0.5212
  249MOL0     H33579   0.946   8.552  11.700  1.5810  0.0902 -2.9250
  249MOL0     H33580   1.077   8.774  11.739  0.3386  0.5929 -1.2751
  249MOL0     H33581   1.483   8.749  11.925 -0.9481 -1.7083 -2.6289
  249MOL0     H33582   1.450   8.922  11.934 -1.3840  0.2485 -0.3245
  249MOL0     H33583   1.281   8.729  12.090  0.2045  0.4489  0.8031
  249MOL0     H33584   1.420   8.821  12.154 -0.2017  5.3020  1.1877
  249MOL0     H33585   1.186   8.954  12.012  0.0074 -3.1754 -1.3991
  249MOL0     H33586   1.313   9.039  12.094  0.4082 -0.6714 -4.1763
  249MOL0     H33587   1.065   9.001  12.222  1.7642  2.5960 -1.4569
  249MOL0     H33588   1.136   8.844  12.257 -4.2240  0.2310 -0.4364
  249MOL0     H33589   1.272   9.099  12.321 -0.1932  0.0637 -0.8333
  249MOL0     H33590   1.331   8.932  12.350  0.7526  1.2415  0.8945
  249MOL0     H33591   1.089   9.060  12.478  1.0520  0.6244  1.9193
  249MOL0     H33592   1.139   8.888  12.492  2.0506  0.1139 -1.0123
  249MOL0     H33593   1.304   9.118  12.570 -1.4338 -0.3068  1.0163
  249MOL0     H33594   1.342   8.944  12.602  2.6858  2.8010 -0.6246
  249MOL0     H33595   1.123   8.939  12.739 -2.7819  2.1655 -1.7457
  249MOL0     H33596   1.125   9.115  12.729  0.1773  0.6427  1.9163
  249MOL0     H33597   1.418   8.562  11.878 -1.6449 -0.5061  2.6265
  249MOL0     H33598   1.293   8.362  11.898 -2.0769  0.7272  2.3234
  249MOL0     H33599   1.201   7.968  11.766  1.6238  1.2319 -1.2940
  249MOL0     H33600   1.165   7.784  11.621  0.0685  0.0899 -1.8088
  249MOL0     H33601   2.151   8.483  10.932  1.4803  0.1887  1.5014
  249MOL0     H33602   2.183   8.649  11.107 -0.6473  0.7448 -1.1408
  249MOL0     H33603   2.333   8.611  11.647  2.1960  0.6453 -0.2205
  249MOL0     H33604   2.452   8.808  11.731 -0.4229 -2.8655  0.3929
  249MOL0     H33605   2.520   9.233  11.663 -0.8082  3.0402  2.0999
  249MOL0     H33606   2.415   9.181  11.530 -1.5229 -0.7539 -0.0608
  249MOL0     H33607   2.314   9.224  11.825 -1.0366 -0.6810  0.7605
  249MOL0     H33608   2.217   9.213  11.684  1.1640 -2.2746 -0.2968
  249MOL0     H33609   2.289   9.417  11.601 -0.5250  1.8532  0.0693
  249MOL0     H33610   2.429   9.437  11.706  0.0639  0.1101  0.6870
  249MOL0     H33611   2.251   9.578  11.789  0.3751 -0.4466  3.4403
  249MOL0     H33612   2.257   9.446  11.910 -2.6898  0.0985  0.8643
  249MOL0     H33613   1.878   9.402  11.763 -0.2042 -1.0471  4.8805
  249MOL0     H33614   2.229   9.081  11.484 -0.2087 -1.2876 -2.6161
  249MOL0     H33615   2.123   8.890  11.366 -0.9342 -1.0622  0.0447
  250MOL0     O33616   2.655   6.236   2.181  0.5580 -0.2044 -1.0732
  250MOL0     C33617   2.529   6.203   2.186 -0.5740 -0.6988 -0.0997
  250MOL0     O33618   2.479   6.110   2.262  0.1696  0.1796  0.6669
  250MOL0     C33619   2.552   6.044   2.358  0.1536 -0.8416  1.0669
  250MOL0     C33620   2.666   6.095   2.434 -0.6091  0.2591  0.2939
  250MOL0     C33621   2.720   6.024   2.539  0.2792  0.1232  0.0628
  250MOL0     C33622   2.678   5.904   2.570 -0.9956  0.7043  1.1333
  250MOL0     O33623   2.737   5.853   2.683 -0.7603  0.4501 -0.6567
  250MOL0     C33624   2.783   5.712   2.686 -0.6329 -0.0965 -0.7778
  250MOL0     C33625   2.933   5.724   2.714  0.2137  0.4761  0.6296
  250MOL0     C33626   2.955   5.773   2.856 -0.8568  0.4932 -0.6974
  250MOL0     C33627   3.106   5.804   2.868  0.6629 -0.9895 -0.8210
  250MOL0     C33628   3.144   5.869   2.995  0.0817 -0.3003  0.7584
  250MOL0     C33629   3.069   5.997   3.033  0.2889 -0.2492 -0.2427
  250MOL0     C33630   3.045   5.995   3.178  0.3111 -0.2673 -0.6131
  250MOL0     C33631   2.964   6.117   3.232  0.3899  1.1780  0.0182
  250MOL0     N33632   2.815   6.107   3.217 -0.9222  1.6567 -0.1508
  250MOL0     C33633   2.744   6.129   3.098  0.9669  1.0091 -0.8591
  250MOL0     C33634   2.617   6.139   3.129  0.3594  0.0769  0.0720
  250MOL0     C33635   2.499   6.173   3.041  0.3622  1.1030 -0.0677
  250MOL0     C33636   2.508   6.176   2.887  0.0208  0.8359  0.2598
  250MOL0     C33637   2.386   6.238   2.821  0.3938 -0.6697  0.2906
  250MOL0     C33638   2.383   6.211   2.667 -1.2818  0.9858 -0.2530
  250MOL0     O33639   2.301   6.319   2.624  0.6594 -0.4172  0.1988
  250MOL0     C33640   2.183   6.274   2.574 -0.5632 -0.9864 -0.2621
  250MOL0     C33641   2.120   6.170   2.634 -1.1754  0.0371  0.4411
  250MOL0     C33642   2.001   6.112   2.592 -0.3614  0.0284  0.5834
  250MOL0     C33643   1.971   5.981   2.666  0.5020 -0.1901 -0.5378
  250MOL0     C33644   1.942   6.166   2.468 -0.7894  0.4923  0.0266
  250MOL0     C33645   1.836   6.103   2.390 -0.1747  0.2761 -0.9239
  250MOL0     O33646   1.812   5.973   2.424 -0.3482 -0.6001  0.5485
  250MOL0     C33647   1.718   5.904   2.345  0.0071 -0.7826 -0.8306
  250MOL0     C33648   1.613   5.835   2.410 -1.7151  1.1491  0.5119
  250MOL0     C33649   1.517   5.768   2.336  0.0666  0.1709  0.1910
  250MOL0     C33650   1.523   5.763   2.195  0.3567 -0.1545  0.1919
  250MOL0     O33651   1.421   5.725   2.105  0.2182 -0.5316  0.5093
  250MOL0     C33652   1.299   5.685   2.159 -0.1180 -0.3929 -0.8224
  250MOL0     C33653   1.191   5.681   2.050  0.0583  0.3829 -0.6905
  250MOL0     C33654   1.214   5.555   1.979  0.5410  0.2285  2.2054
  250MOL0     C33655   1.107   5.532   1.867  0.3705  0.4097 -0.6020
  250MOL0     C33656   0.978   5.468   1.908  0.1036  0.8830 -1.0249
  250MOL0     C33657   0.873   5.478   1.794 -0.5789  0.6494 -0.6385
  250MOL0     C33658   0.742   5.419   1.833  1.2345 -0.3692  0.7222
  250MOL0     C33659   0.747   5.259   1.854  0.0538 -1.1478  0.0004
  250MOL0    Cl33660   0.583   5.194   1.835  0.2645 -0.1021  0.0557
  250MOL0     C33661   1.629   5.826   2.135 -0.3815  0.4649  0.4077
  250MOL0     C33662   1.731   5.894   2.210  0.1097  0.1672  0.3375
  250MOL0     O33663   1.771   6.174   2.310  0.1659  0.5548  0.2068
  250MOL0     C33664   2.004   6.279   2.418  0.6555  0.2292 -0.0968
  250MOL0     C33665   2.119   6.341   2.466 -0.5455  0.5613 -0.7162
  250MOL0     N33666   2.608   6.116   3.267 -0.5028 -0.1777  0.1259
  250MOL0     N33667   2.723   6.107   3.319 -0.1236  0.5030 -0.0904
  250MOL0     C33668   2.572   5.851   2.499 -0.4168  0.7781  0.0668
  250MOL0     C33669   2.518   5.917   2.390  1.3719 -0.2526  0.1582
  250MOL0     C33670   2.427   6.297   2.123 -1.1173  0.1094 -0.1036
  250MOL0     C33671   2.467   6.405   2.034  0.5130 -0.2715 -0.2472
  250MOL0     C33672   2.368   6.485   1.965 -0.6372  0.3127 -0.0770
  250MOL0     C33673   2.235   6.468   2.006 -0.0407  1.3537  0.8790
  250MOL0     O33674   2.140   6.555   1.949 -0.6999  0.7543 -0.4459
  250MOL0     C33675   2.002   6.520   1.955  0.0398 -1.1507 -0.6558
  250MOL0     C33676   1.930   6.625   1.859  0.1735 -0.5438 -0.4233
  250MOL0     C33677   1.774   6.620   1.878  0.7703  0.9686 -0.3216
  250MOL0     C33678   1.725   6.754   1.819 -1.3430  0.5499 -0.0582
  250MOL0     C33679   1.586   6.765   1.851  1.2578  0.0668  0.7108
  250MOL0     C33680   1.467   6.778   1.875 -0.2454 -1.1499 -0.6110
  250MOL0     C33681   2.200   6.374   2.104  0.2624  1.1911  0.3716
  250MOL0     C33682   2.290   6.280   2.148 -0.2183 -0.0647 -0.0755
  250MOL0     H33683   2.704   6.194   2.414  0.5257 -1.0667 -6.2568
  250MOL0     H33684   2.787   6.069   2.613 -0.0783 -1.8288  1.6429
  250MOL0     H33685   2.737   5.645   2.759  2.6278 -1.3341  0.3183
  250MOL0     H33686   2.755   5.672   2.588  1.7102 -3.2642 -0.3150
  250MOL0     H33687   2.996   5.636   2.701 -1.5820 -0.6901 -0.5459
  250MOL0     H33688   2.971   5.804   2.650  3.2966 -1.0087  0.4377
  250MOL0     H33689   2.888   5.857   2.879 -0.8647 -0.1050  1.7828
  250MOL0     H33690   2.919   5.705   2.934 -1.6689  3.3399  1.6379
  250MOL0     H33691   3.165   5.715   2.845 -0.0513 -1.1934 -1.9443
  250MOL0     H33692   3.130   5.884   2.798  0.8866  1.3019  1.6957
  250MOL0     H33693   3.133   5.789   3.069 -3.0009 -0.4602  0.2472
  250MOL0     H33694   3.251   5.892   2.987  0.0142 -0.5576 -1.2494
  250MOL0     H33695   3.117   6.092   3.007 -0.5338  0.8925  2.1388
  250MOL0     H33696   2.969   5.998   2.988  0.2365  0.9997 -0.1523
  250MOL0     H33697   2.986   5.910   3.211  1.6067 -0.2901  1.8857
  250MOL0     H33698   3.146   5.994   3.219 -0.2112 -0.5986  0.6867
  250MOL0     H33699   2.991   6.214   3.190  1.7830  1.8457  2.2435
  250MOL0     H33700   2.992   6.120   3.338  0.7316 -0.8306  0.0368
  250MOL0     H33701   2.788   6.137   2.999  2.1192 -2.8724 -0.8250
  250MOL0     H33702   2.419   6.102   3.065  1.5591 -1.1565 -2.3838
  250MOL0     H33703   2.484   6.277   3.070  1.9178  3.0108 -5.0310
  250MOL0     H33704   2.511   6.071   2.858  0.4171 -1.2441  6.3669
  250MOL0     H33705   2.599   6.228   2.858 -0.0012  0.8789  0.2673
  250MOL0     H33706   2.395   6.345   2.842  2.9658 -0.7148 -0.2048
  250MOL0     H33707   2.301   6.190   2.870  0.5301 -3.5479 -1.9985
  250MOL0     H33708   2.354   6.109   2.641  1.0742 -0.9903  3.9843
  250MOL0     H33709   2.482   6.230   2.624 -3.3398  5.7952 -3.8069
  250MOL0     H33710   2.160   6.111   2.716 -3.5470 -1.3521  0.6790
  250MOL0     H33711   1.865   5.953   2.661  0.3402  0.0605  0.9860
  250MOL0     H33712   2.030   5.902   2.617 -1.9988 -3.0114  0.6775
  250MOL0     H33713   1.987   5.996   2.773  0.0370 -0.0177 -0.4884
  250MOL0     H33714   1.624   5.837   2.518 -0.6483 -0.9548  0.4943
  250MOL0     H33715   1.436   5.720   2.390 -0.0194  0.1918  0.0820
  250MOL0     H33716   1.303   5.585   2.204  1.6340 -1.5166 -3.2633
  250MOL0     H33717   1.273   5.746   2.246 -0.9916 -0.2356 -1.1866
  250MOL0     H33718   1.094   5.682   2.101  0.2087 -0.7248 -0.3517
  250MOL0     H33719   1.191   5.770   1.987 -0.6735  1.5523  0.9122
  250MOL0     H33720   1.229   5.460   2.030 -1.5963 -2.4972 -1.7271
  250MOL0     H33721   1.311   5.552   1.927 -1.5750 -4.2405 -2.3807
  250MOL0     H33722   1.088   5.623   1.809 -1.0519 -0.1142 -1.0125
  250MOL0     H33723   1.157   5.469   1.793 -0.1024 -1.4168  0.5668
  250MOL0     H33724   0.927   5.504   1.997 -1.4345  0.7205 -1.8018
  250MOL0     H33725   0.998   5.362   1.927 -1.4208  0.7019 -0.2734
  250MOL0     H33726   0.849   5.582   1.771 -1.4045  0.5460 -0.2645
  250MOL0     H33727   0.919   5.440   1.702  1.2054 -0.8027  0.7822
  250MOL0     H33728   0.673   5.453   1.755 -0.2446  0.4770  2.3357
  250MOL0     H33729   0.712   5.470   1.925 -1.0786 -0.5414  0.1148
  250MOL0     H33730   0.797   5.244   1.950  0.8306 -2.9057 -0.6339
  250MOL0     H33731   0.806   5.212   1.774 -0.9370  1.8587 -2.7481
  250MOL0     H33732   1.632   5.831   2.027 -3.0160 -0.3688  0.2250
  250MOL0     H33733   1.817   5.941   2.163  1.4406  0.1576  2.6200
  250MOL0     H33734   1.959   6.326   2.331 -1.4889 -1.5978 -0.0790
  250MOL0     H33735   2.166   6.430   2.425 -1.7820  1.3317 -0.5241
  250MOL0     H33736   2.521   5.763   2.536  1.8566 -0.0622  1.4253
  250MOL0     H33737   2.432   5.867   2.347  1.3216  3.1169 -4.4175
  250MOL0     H33738   2.571   6.427   2.011  0.8451  1.4761  2.5606
  250MOL0     H33739   2.403   6.566   1.902 -2.8390  1.1881 -0.2738
  250MOL0     H33740   1.978   6.419   1.924 -3.3319 -0.5422 -0.3816
  250MOL0     H33741   1.969   6.523   2.059  0.5014 -1.0669 -0.5099
  250MOL0     H33742   1.957   6.602   1.755 -3.8539  1.3834 -2.1013
  250MOL0     H33743   1.970   6.724   1.880  1.6368 -1.1760 -0.1034
  250MOL0     H33744   1.762   6.606   1.986  2.2971 -2.4593 -0.4735
  250MOL0     H33745   1.760   6.532   1.814  0.6802  2.6047 -2.6678
  250MOL0     H33746   1.745   6.753   1.712  0.9400 -1.4435  0.2883
  250MOL0     H33747   1.776   6.835   1.872  0.9434 -0.5635 -0.4155
  250MOL0     H33748   1.363   6.785   1.900  0.3021 -0.0700  1.6406
  250MOL0     H33749   2.102   6.366   2.152  0.6506  1.5638  1.2507
  250MOL0     H33750   2.264   6.215   2.231  1.9970 -2.4443 -1.1318
  251MOL0     O33751   5.921   0.858   9.407 -0.1959  1.1457  0.3662
  251MOL0     C33752   5.961   0.740   9.419  0.1842  0.6096  0.3006
  251MOL0     O33753   5.913   0.629   9.354  0.6858  0.5862 -1.8429
  251MOL0     C33754   5.812   0.631   9.271 -0.0233  0.1377 -0.2118
  251MOL0     C33755   5.680   0.687   9.275 -0.6404  0.8002  0.7364
  251MOL0     C33756   5.595   0.663   9.165 -0.1457 -0.7301 -0.6124
  251MOL0     C33757   5.621   0.585   9.057 -1.0948  0.0681 -0.2259
  251MOL0     O33758   5.508   0.549   8.981 -0.0645  0.1245  0.2371
  251MOL0     C33759   5.540   0.484   8.866  0.3269  0.6564 -0.6832
  251MOL0     C33760   5.441   0.525   8.762 -0.4859  0.6001  0.7424
  251MOL0     C33761   5.460   0.678   8.721 -0.3937 -0.6030 -0.2395
  251MOL0     C33762   5.511   0.711   8.587 -0.4198 -0.4796  0.0354
  251MOL0     C33763   5.545   0.859   8.579  0.3169  0.9005 -0.1233
  251MOL0     C33764   5.595   0.890   8.438 -0.5101 -0.1377 -0.3161
  251MOL0     C33765   5.649   1.036   8.430 -0.4674  0.0161 -0.5434
  251MOL0     C33766   5.697   1.076   8.296  0.5377  0.9517  1.1064
  251MOL0     N33767   5.601   1.027   8.188 -0.1845 -0.4849 -0.8220
  251MOL0     C33768   5.478   1.083   8.157 -0.2525 -0.0180 -0.8907
  251MOL0     C33769   5.430   0.997   8.059  0.5395  0.8048 -0.2568
  251MOL0     C33770   5.303   0.997   7.973 -0.3319 -1.0158  0.6360
  251MOL0     C33771   5.259   0.871   7.898  0.0655 -0.6123 -0.3778
  251MOL0     C33772   5.114   0.909   7.843 -0.1985  0.3641  0.1965
  251MOL0     C33773   5.058   0.807   7.738 -1.5347 -0.6558 -0.0830
  251MOL0     O33774   5.151   0.804   7.624 -0.4096 -0.4195  0.3178
  251MOL0     C33775   5.141   0.896   7.526 -0.2413  0.8054  1.5704
  251MOL0     C33776   5.227   0.891   7.416 -0.1708  0.4752  0.2061
  251MOL0     C33777   5.234   0.978   7.309  0.3468  1.1181  0.0645
  251MOL0     C33778   5.349   0.958   7.216 -0.0813 -0.0375 -0.3942
  251MOL0     C33779   5.130   1.077   7.305  0.3032 -1.0600  0.1890
  251MOL0     C33780   5.101   1.178   7.198 -0.2910  0.8626  0.3671
  251MOL0     O33781   5.025   1.286   7.228 -0.3817  0.4253  0.4531
  251MOL0     C33782   5.031   1.393   7.142 -0.4358 -0.0997 -0.1376
  251MOL0     C33783   5.148   1.452   7.095 -0.8540  0.1205 -0.0643
  251MOL0     C33784   5.146   1.569   7.020  0.2995  0.2040  1.0704
  251MOL0     C33785   5.013   1.627   6.988 -0.1401  1.1722  0.2511
  251MOL0     O33786   4.991   1.744   6.919 -0.7894  0.0742 -1.0272
  251MOL0     C33787   5.101   1.830   6.888 -0.6540  0.1377 -0.2275
  251MOL0     C33788   5.034   1.935   6.795  0.3715  1.1992 -0.9458
  251MOL0     C33789   5.127   2.027   6.730  0.9068 -0.0102 -0.1198
  251MOL0     C33790   5.067   2.087   6.608  0.3511  0.1739 -0.2361
  251MOL0     C33791   5.185   2.145   6.520 -0.4199 -0.8258  0.5382
  251MOL0     C33792   5.124   2.236   6.415 -0.8576  0.8049 -0.5963
  251MOL0     C33793   5.213   2.337   6.336 -0.8904  1.0425 -0.3028
  251MOL0     C33794   5.228   2.327   6.191  0.1407 -0.0088 -0.4221
  251MOL0    Cl33795   5.081   2.366   6.105  0.5649 -0.0642  0.3371
  251MOL0     C33796   4.900   1.565   7.033 -0.1843  0.1651 -0.2972
  251MOL0     C33797   4.908   1.450   7.110 -0.0973 -0.3175 -0.0506
  251MOL0     O33798   5.166   1.169   7.093  0.1877 -0.9070  0.3389
  251MOL0     C33799   5.043   1.077   7.417 -0.7385  0.0444  0.9161
  251MOL0     C33800   5.044   0.991   7.521  0.5047 -0.4181 -0.4761
  251MOL0     N33801   5.515   0.891   8.043 -0.6835 -0.3992  0.0705
  251MOL0     N33802   5.614   0.907   8.119 -0.1932 -0.5960  0.5082
  251MOL0     C33803   5.752   0.527   9.053  0.0343  0.5002 -0.6052
  251MOL0     C33804   5.835   0.546   9.161 -0.6620 -0.5596  0.4401
  251MOL0     C33805   6.063   0.714   9.526  0.6655  0.1859  0.8844
  251MOL0     C33806   6.093   0.583   9.568 -1.2590 -0.4007 -0.1572
  251MOL0     C33807   6.171   0.561   9.676 -0.2653  0.1255  0.4384
  251MOL0     C33808   6.235   0.667   9.742  0.1018 -0.1101 -0.2381
  251MOL0     O33809   6.290   0.633   9.864  0.0312 -0.3585 -0.1729
  251MOL0     C33810   6.316   0.727   9.968 -0.1697 -0.1501 -0.2385
  251MOL0     C33811   6.192   0.773  10.037 -0.2434  0.1924 -0.1874
  251MOL0     C33812   6.106   0.665  10.109  0.1509 -0.1961  0.9159
  251MOL0     C33813   6.029   0.708  10.238  1.0128 -0.5464  0.0619
  251MOL0     C33814   5.962   0.593  10.284 -0.3141 -0.2572 -1.0541
  251MOL0     C33815   5.925   0.493  10.343 -0.3627  0.4709  1.5164
  251MOL0     C33816   6.212   0.799   9.696  0.2877  0.9033  0.8547
  251MOL0     C33817   6.134   0.824   9.580  0.1572  0.1857 -0.0980
  251MOL0     H33818   5.674   0.752   9.362  1.0762  1.4716  0.3858
  251MOL0     H33819   5.499   0.712   9.171  0.4960  0.3981  1.8746
  251MOL0     H33820   5.636   0.516   8.824  1.0868  0.9583  1.1957
  251MOL0     H33821   5.541   0.375   8.874  2.8099  0.4821 -2.2474
  251MOL0     H33822   5.454   0.464   8.672  0.1718  0.8132  0.6854
  251MOL0     H33823   5.336   0.522   8.794 -1.5391  2.5455 -2.1069
  251MOL0     H33824   5.370   0.729   8.755 -1.3781 -2.8333  0.7289
  251MOL0     H33825   5.531   0.725   8.790 -1.2307  1.2603 -0.5955
  251MOL0     H33826   5.601   0.651   8.571 -0.6005 -0.4110 -1.3774
  251MOL0     H33827   5.440   0.673   8.513  0.1812 -1.0738 -0.2501
  251MOL0     H33828   5.453   0.912   8.604 -1.3147 -1.7168 -0.2495
  251MOL0     H33829   5.619   0.877   8.658  0.5859  0.0257 -0.1623
  251MOL0     H33830   5.678   0.825   8.410  0.6969  1.2533 -0.0894
  251MOL0     H33831   5.510   0.885   8.369  0.2337  3.6329 -1.7405
  251MOL0     H33832   5.570   1.098   8.471 -0.0924 -0.3334  0.7571
  251MOL0     H33833   5.736   1.049   8.495  0.8814  0.0873 -2.2792
  251MOL0     H33834   5.796   1.030   8.285 -0.4477 -1.9207  3.0327
  251MOL0     H33835   5.718   1.183   8.294 -1.4757  1.3697  0.3689
  251MOL0     H33836   5.441   1.180   8.190 -1.4758 -1.3587  2.1096
  251MOL0     H33837   5.227   1.040   8.040  2.2327  1.3060  2.2787
  251MOL0     H33838   5.319   1.080   7.904 -1.0425  1.0518  2.8030
  251MOL0     H33839   5.248   0.796   7.977  2.3295 -0.7679 -0.1531
  251MOL0     H33840   5.329   0.847   7.817 -1.2306  0.5030 -1.8999
  251MOL0     H33841   5.126   1.009   7.800  1.5017 -0.4667 -1.4198
  251MOL0     H33842   5.045   0.907   7.928 -0.6617 -1.5308 -0.1804
  251MOL0     H33843   4.953   0.834   7.721 -1.3199 -0.4616 -1.1823
  251MOL0     H33844   5.070   0.711   7.788  1.2365 -1.5102 -2.1444
  251MOL0     H33845   5.304   0.815   7.422 -1.5299 -1.2955 -2.7487
  251MOL0     H33846   5.430   1.031   7.227 -1.0162  1.0365 -0.3321
  251MOL0     H33847   5.381   0.855   7.232 -3.5534 -1.3135 -0.7537
  251MOL0     H33848   5.312   0.956   7.113  1.2802 -1.6789 -0.8766
  251MOL0     H33849   5.246   1.407   7.110 -0.3782  1.4223  0.9699
  251MOL0     H33850   5.235   1.610   6.974 -0.1525 -0.7298 -0.7642
  251MOL0     H33851   5.135   1.860   6.988 -0.0168 -5.0433  1.4143
  251MOL0     H33852   5.177   1.777   6.831 -0.1430  1.4431 -0.7815
  251MOL0     H33853   4.965   1.887   6.724  0.5949 -2.2523  0.9389
  251MOL0     H33854   4.968   1.996   6.858  0.6196 -0.7437  1.3259
  251MOL0     H33855   5.213   1.972   6.692 -0.2946 -1.7135 -0.4910
  251MOL0     H33856   5.146   2.106   6.803  0.9923 -1.7105  1.7754
  251MOL0     H33857   5.023   2.006   6.548 -0.4163  0.1757  0.3030
  251MOL0     H33858   4.992   2.161   6.636 -0.1909 -1.2747  2.4816
  251MOL0     H33859   5.245   2.068   6.470  1.9733  0.5647  1.0945
  251MOL0     H33860   5.246   2.213   6.581 -2.3941  0.3376  1.3110
  251MOL0     H33861   5.073   2.166   6.348 -0.3687 -1.0272  0.8634
  251MOL0     H33862   5.044   2.284   6.473 -0.3000  0.2489  0.6805
  251MOL0     H33863   5.308   2.315   6.386 -2.0010  1.5668  2.1864
  251MOL0     H33864   5.179   2.438   6.360  0.1778  0.6209  3.6354
  251MOL0     H33865   5.242   2.219   6.184 -2.2442 -0.9049  4.2104
  251MOL0     H33866   5.311   2.388   6.155 -0.9229  0.9229 -1.3655
  251MOL0     H33867   4.798   1.598   7.020 -1.7232 -3.5578  1.0775
  251MOL0     H33868   4.816   1.403   7.144 -0.1570 -0.4818 -0.4374
  251MOL0     H33869   4.972   1.159   7.416  0.1682  0.8980  2.4288
  251MOL0     H33870   4.970   0.999   7.600  1.5282  0.8462  0.4136
  251MOL0     H33871   5.775   0.461   8.970  1.1584 -0.3207  0.3177
  251MOL0     H33872   5.932   0.497   9.159  0.3555  1.2077  2.3438
  251MOL0     H33873   6.043   0.491   9.538  1.7224 -1.2615 -3.1417
  251MOL0     H33874   6.175   0.458   9.709  3.1810 -1.0386 -2.8824
  251MOL0     H33875   6.379   0.685  10.047 -0.5630  0.4607  0.4044
  251MOL0     H33876   6.378   0.809   9.929 -0.2828  0.3763  0.6600
  251MOL0     H33877   6.144   0.827   9.954  2.1123  0.3733 -1.5267
  251MOL0     H33878   6.214   0.852  10.109 -1.3291  1.0312 -0.7412
  251MOL0     H33879   6.176   0.584  10.129  0.0905 -0.9997 -1.6992
  251MOL0     H33880   6.042   0.623  10.031  1.0781  0.9350 -0.5138
  251MOL0     H33881   5.951   0.782  10.215  3.0147  0.9619 -2.3134
  251MOL0     H33882   6.103   0.749  10.307 -0.3873  1.1947  0.6197
  251MOL0     H33883   5.884   0.408  10.394 -1.5868  0.3378  0.3375
  251MOL0     H33884   6.264   0.879   9.747 -3.3781  3.1043  1.5842
  251MOL0     H33885   6.116   0.927   9.551  0.1708  0.6866  1.5417
  252MOL0     O33886   3.383  10.086   2.933 -0.4320  0.3160  0.1538
  252MOL0     C33887   3.278  10.016   2.953 -1.0981 -0.1020 -0.4263
  252MOL0     O33888   3.149  10.048   2.926  0.3117 -0.3830 -0.1796
  252MOL0     C33889   3.115  10.170   2.855  0.2115  0.8574  0.0346
  252MOL0     C33890   2.989  10.217   2.869  0.7369 -0.4458  0.0222
  252MOL0     C33891   2.941  10.326   2.796 -0.5772 -0.8658 -0.4141
  252MOL0     C33892   3.022  10.409   2.718 -0.6536  0.6520 -0.4855
  252MOL0     O33893   2.960  10.523   2.670  0.5055 -0.2159  0.3582
  252MOL0     C33894   3.039  10.637   2.635 -1.3293 -0.0216 -0.0110
  252MOL0     C33895   2.954  10.753   2.579  0.0565  1.3824  0.8312
  252MOL0     C33896   3.032  10.887   2.579 -0.3896 -0.2446 -0.0171
  252MOL0     C33897   3.037  10.958   2.718 -0.0442  0.9923 -0.1685
  252MOL0     C33898   3.104  11.093   2.722 -0.1779 -0.2598 -0.1456
  252MOL0     C33899   3.025  11.199   2.644 -0.4079 -1.6549 -0.7131
  252MOL0     C33900   3.090  11.339   2.653 -0.4822  1.6353  0.7334
  252MOL0     C33901   3.092  11.410   2.787 -0.1667  0.6783  0.1538
  252MOL0     N33902   2.964  11.440   2.854 -0.0126 -0.7873 -0.0386
  252MOL0     C33903   2.939  11.394   2.981  1.0319  1.0365 -0.9000
  252MOL0     C33904   2.845  11.478   3.035 -0.4274  0.3407  1.0146
  252MOL0     C33905   2.784  11.458   3.161  0.8646 -0.4578 -0.4832
  252MOL0     C33906   2.646  11.394   3.130 -0.5429 -0.3407 -0.6654
  252MOL0     C33907   2.571  11.380   3.261  0.5486  0.0313  0.8184
  252MOL0     C33908   2.476  11.252   3.257  0.1547  0.9597 -0.2604
  252MOL0     O33909   2.462  11.209   3.388  0.4220  0.1407  0.1053
  252MOL0     C33910   2.376  11.101   3.399 -0.6688  0.1066  0.9137
  252MOL0     C33911   2.238  11.108   3.371  0.2506 -0.1582  0.6230
  252MOL0     C33912   2.139  11.011   3.386 -0.4240  0.4288 -0.1363
  252MOL0     C33913   1.996  11.036   3.333  0.3584  0.7195 -0.5409
  252MOL0     C33914   2.187  10.885   3.428  0.7607  0.6268 -0.0123
  252MOL0     C33915   2.100  10.766   3.443  0.9579 -0.6924  0.3649
  252MOL0     O33916   1.998  10.763   3.351  1.4723 -0.8452  0.2520
  252MOL0     C33917   1.886  10.682   3.389 -0.8403  0.1503 -0.2099
  252MOL0     C33918   1.786  10.720   3.489 -0.4667  0.9145 -0.1863
  252MOL0     C33919   1.674  10.635   3.514  0.9304  0.2008 -0.6296
  252MOL0     C33920   1.656  10.514   3.441  0.2499 -0.4977  1.1137
  252MOL0     O33921   1.550  10.430   3.456 -0.0423 -0.2330  0.5349
  252MOL0     C33922   1.422  10.495   3.443  0.4559  0.4765 -0.0344
  252MOL0     C33923   1.328  10.415   3.356 -0.0828  0.2709 -1.2617
  252MOL0     C33924   1.181  10.466   3.357 -0.7654  0.1342 -1.4510
  252MOL0     C33925   1.090  10.354   3.332 -0.3111 -0.5055 -0.0433
  252MOL0     C33926   0.939  10.405   3.300 -0.5494  0.3166 -0.1246
  252MOL0     C33927   0.867  10.278   3.234 -0.3416 -1.3467 -0.3209
  252MOL0     C33928   0.927  10.241   3.093  0.7473 -0.3695  0.0333
  252MOL0     C33929   0.819  10.208   2.989  1.5726  0.1780  0.1909
  252MOL0    Cl33930   0.736  10.356   2.960 -0.2394  0.1036  0.4673
  252MOL0     C33931   1.762  10.476   3.359  0.3490 -0.5716 -0.4552
  252MOL0     C33932   1.874  10.557   3.329  0.4761 -0.0437  0.4402
  252MOL0     O33933   2.122  10.686   3.520 -0.1511 -0.2861 -0.3587
  252MOL0     C33934   2.322  10.876   3.466 -0.2447  0.3317  0.6784
  252MOL0     C33935   2.417  10.979   3.444 -0.1455  0.1419 -0.0546
  252MOL0     N33936   2.816  11.579   2.948 -0.2499  0.6834  0.2186
  252MOL0     N33937   2.893  11.557   2.849 -0.0141 -0.3175  0.2754
  252MOL0     C33938   3.154  10.356   2.694 -0.1244 -0.2230  0.4660
  252MOL0     C33939   3.198  10.235   2.755  0.5468  0.4156 -0.0168
  252MOL0     C33940   3.287   9.880   3.022 -0.4100 -0.2168  0.2942
  252MOL0     C33941   3.408   9.819   3.024 -0.9166  0.3677 -0.4180
  252MOL0     C33942   3.429   9.696   3.098  1.3039  0.1727  0.5537
  252MOL0     C33943   3.313   9.637   3.165 -0.2922  0.5338  0.1202
  252MOL0     O33944   3.319   9.529   3.247  0.4738  0.2032  0.3570
  252MOL0     C33945   3.447   9.459   3.258  0.9303 -0.4080 -0.0592
  252MOL0     C33946   3.495   9.460   3.399  0.0663 -0.8730 -0.9334
  252MOL0     C33947   3.630   9.387   3.420  1.1609 -0.2019 -0.7663
  252MOL0     C33948   3.688   9.439   3.554  0.4408  0.2938 -0.3044
  252MOL0     C33949   3.750   9.577   3.550  1.0272  0.4405 -0.1478
  252MOL0     C33950   3.797   9.679   3.507  0.8099  0.6675 -0.3173
  252MOL0     C33951   3.192   9.701   3.163  0.2197 -0.2372 -0.4107
  252MOL0     C33952   3.178   9.821   3.092  0.6909 -0.2710 -0.7851
  252MOL0     H33953   2.926  10.161   2.938 -3.8622  1.0505 -2.5795
  252MOL0     H33954   2.842  10.367   2.812 -1.0616 -2.2902  0.4317
  252MOL0     H33955   3.103  10.673   2.716 -2.6558 -2.1091  2.0863
  252MOL0     H33956   3.112  10.611   2.559  0.0374 -1.1289  1.6071
  252MOL0     H33957   2.929  10.718   2.479 -1.7816 -1.1388  2.0607
  252MOL0     H33958   2.867  10.757   2.645  2.1620  1.3087  3.8116
  252MOL0     H33959   3.129  10.879   2.528 -1.5847  0.7279 -2.5776
  252MOL0     H33960   2.972  10.947   2.511 -0.4686 -1.0542 -0.6821
  252MOL0     H33961   2.939  10.969   2.766 -0.1296  0.4246 -0.2033
  252MOL0     H33962   3.084  10.897   2.796 -1.0291  1.1084  0.5367
  252MOL0     H33963   3.129  11.123   2.824  0.9205 -0.2494 -0.3991
  252MOL0     H33964   3.204  11.084   2.678  0.0755  0.4803  0.2629
  252MOL0     H33965   3.028  11.171   2.538  1.4175 -1.9744 -0.6236
  252MOL0     H33966   2.920  11.209   2.670 -0.4070  0.0140 -1.2237
  252MOL0     H33967   3.191  11.336   2.610 -0.1690 -0.8574  1.4589
  252MOL0     H33968   3.031  11.410   2.594 -0.0126  1.5727  0.1761
  252MOL0     H33969   3.147  11.504   2.780 -0.2840  0.8236  1.1082
  252MOL0     H33970   3.152  11.340   2.847 -0.0290  0.0928 -0.6506
  252MOL0     H33971   2.971  11.305   3.035  0.7268  0.2410 -1.9980
  252MOL0     H33972   2.837  11.398   3.236 -0.3620  3.2193  3.8383
  252MOL0     H33973   2.767  11.553   3.212  0.6939  0.9494 -3.0165
  252MOL0     H33974   2.657  11.301   3.073  0.4606  0.6474 -2.1224
  252MOL0     H33975   2.600  11.464   3.061  1.2875  0.8571 -0.7345
  252MOL0     H33976   2.514  11.471   3.280 -2.7871 -1.1574 -2.3615
  252MOL0     H33977   2.650  11.374   3.337  1.2300  1.4303  0.2400
  252MOL0     H33978   2.529  11.180   3.195 -0.8528  0.1656 -0.2334
  252MOL0     H33979   2.381  11.276   3.208  0.5743 -1.7596 -2.6827
  252MOL0     H33980   2.207  11.207   3.338 -0.0455 -0.3388  0.3580
  252MOL0     H33981   1.985  10.980   3.239  3.2275 -2.7526  0.9636
  252MOL0     H33982   1.932  10.999   3.413 -0.1247 -2.7443 -2.3419
  252MOL0     H33983   1.987  11.143   3.312  1.0527  0.7114 -0.9027
  252MOL0     H33984   1.795  10.821   3.527  1.2421  1.1889 -1.2047
  252MOL0     H33985   1.598  10.673   3.581 -0.5746 -3.0250 -0.3145
  252MOL0     H33986   1.369  10.491   3.539  1.5057 -2.1118  0.5196
  252MOL0     H33987   1.420  10.600   3.410 -3.8703  1.1003  1.5784
  252MOL0     H33988   1.368  10.410   3.255 -0.2263  1.7966 -1.4257
  252MOL0     H33989   1.337  10.318   3.405 -0.3202  0.6427 -0.4578
  252MOL0     H33990   1.172  10.545   3.281 -1.4082 -1.0584 -2.6484
  252MOL0     H33991   1.161  10.523   3.448 -0.2432  1.6749 -2.2506
  252MOL0     H33992   1.126  10.289   3.251  0.5460 -0.6938  0.4813
  252MOL0     H33993   1.092  10.287   3.418  3.2913 -1.1633 -0.5011
  252MOL0     H33994   0.939  10.484   3.224 -1.1471 -1.9035 -2.5985
  252MOL0     H33995   0.898  10.434   3.397  1.2676  1.5731  0.3026
  252MOL0     H33996   0.865  10.194   3.305 -1.4538 -0.2772  0.9787
  252MOL0     H33997   0.762  10.302   3.215 -0.1813  1.4682  1.7524
  252MOL0     H33998   0.993  10.155   3.108  1.6788  0.4744  0.9573
  252MOL0     H33999   0.983  10.323   3.047 -1.6688  0.8955 -0.8222
  252MOL0     H34000   0.745  10.145   3.038  1.0827  0.6683  0.0896
  252MOL0     H34001   0.859  10.170   2.894  3.0179  1.8523  0.0641
  252MOL0     H34002   1.740  10.385   3.304 -0.8415 -0.1204 -0.7515
  252MOL0     H34003   1.939  10.528   3.246  0.1549  2.0479 -0.6163
  252MOL0     H34004   2.364  10.790   3.516 -0.5646  0.5302  1.3039
  252MOL0     H34005   2.521  10.952   3.457  0.8320  3.2268 -0.4638
  252MOL0     H34006   3.211  10.427   2.637  0.1232  0.0202  1.0059
  252MOL0     H34007   3.297  10.195   2.732 -0.0337 -0.6171 -0.8410
  252MOL0     H34008   3.490   9.863   2.968  0.1404  1.1878  1.6628
  252MOL0     H34009   3.524   9.647   3.086  1.8636  1.4383 -0.4758
  252MOL0     H34010   3.421   9.358   3.224 -2.9321  1.4428 -3.5778
  252MOL0     H34011   3.529   9.483   3.190  2.4659 -2.5877  0.9189
  252MOL0     H34012   3.413   9.423   3.461  1.5895 -1.1792  0.9851
  252MOL0     H34013   3.519   9.566   3.408  0.2322 -0.9794 -0.0692
  252MOL0     H34014   3.708   9.422   3.351  0.9604 -3.3277 -2.8133
  252MOL0     H34015   3.616   9.279   3.414 -0.3638 -0.0453 -0.2174
  252MOL0     H34016   3.751   9.365   3.605 -2.8933  1.2462  6.3019
  252MOL0     H34017   3.604   9.436   3.624  0.0221 -3.9515 -0.7160
  252MOL0     H34018   3.845   9.770   3.481  2.1976  1.0835  3.1661
  252MOL0     H34019   3.113   9.668   3.230  0.7927  1.4638  1.1790
  252MOL0     H34020   3.081   9.869   3.100  0.8429 -0.0777  0.0067
  253MOL0     O34021   9.538   7.788   4.921 -0.3862  0.0816 -0.8348
  253MOL0     C34022   9.479   7.690   4.875  0.0629 -0.2380 -1.0591
  253MOL0     O34023   9.404   7.696   4.759  0.8243  0.4271 -0.3552
  253MOL0     C34024   9.356   7.814   4.703 -0.2319  0.4038 -0.3095
  253MOL0     C34025   9.343   7.932   4.771 -0.0949  0.2767  0.3271
  253MOL0     C34026   9.298   8.047   4.700 -0.0376 -0.6043  1.5757
  253MOL0     C34027   9.280   8.046   4.554 -1.1287 -0.2478  0.1952
  253MOL0     O34028   9.256   8.157   4.479 -0.3140  1.0875  0.3379
  253MOL0     C34029   9.390   8.197   4.447  0.2395 -0.6030  0.0929
  253MOL0     C34030   9.374   8.346   4.413  0.2295 -0.1711 -0.0802
  253MOL0     C34031   9.313   8.418   4.530  0.1594  0.0832 -0.2094
  253MOL0     C34032   9.329   8.566   4.510  0.1046  0.3800  0.2282
  253MOL0     C34033   9.472   8.611   4.560 -0.0285 -0.1132  0.1320
  253MOL0     C34034   9.500   8.762   4.588  0.3103  0.0589  0.0414
  253MOL0     C34035   9.644   8.797   4.552 -0.1941  0.0359  0.0229
  253MOL0     C34036   9.668   8.952   4.559 -0.3528 -0.1709  0.3944
  253MOL0     N34037   9.603   9.029   4.454  0.1530  0.1619 -0.3668
  253MOL0     C34038   9.624   8.999   4.319  0.2442  0.0100  0.4775
  253MOL0     C34039   9.527   9.068   4.252 -0.8327  0.5213  0.7535
  253MOL0     C34040   9.487   9.046   4.112 -0.8497  0.4378  0.1551
  253MOL0     C34041   9.458   8.893   4.073  0.0507  0.1517 -0.1999
  253MOL0     C34042   9.357   8.824   4.175  0.3214  0.4109  0.1878
  253MOL0     C34043   9.337   8.686   4.129 -0.0557 -0.9757 -0.7690
  253MOL0     O34044   9.458   8.612   4.137 -0.0428 -0.6754  0.6777
  253MOL0     C34045   9.459   8.476   4.117 -0.9505  0.9978 -0.0555
  253MOL0     C34046   9.352   8.397   4.066 -0.3218  0.5825 -0.4480
  253MOL0     C34047   9.367   8.251   4.045  0.1555 -0.4633 -0.6012
  253MOL0     C34048   9.247   8.164   4.019  0.8056 -0.1230 -0.3233
  253MOL0     C34049   9.492   8.189   4.081 -0.3461 -1.0699 -0.2606
  253MOL0     C34050   9.522   8.046   4.083  0.0907 -0.0072  0.1065
  253MOL0     O34051   9.422   7.960   4.131 -0.4482 -0.8559  0.8866
  253MOL0     C34052   9.460   7.822   4.127  0.8885  0.9210 -0.7031
  253MOL0     C34053   9.438   7.747   4.018  0.0111  0.3951  0.3151
  253MOL0     C34054   9.494   7.621   4.000  0.6963  0.6810 -0.4211
  253MOL0     C34055   9.553   7.555   4.108 -0.6139 -0.0548  0.6544
  253MOL0     O34056   9.605   7.428   4.088  0.3642  0.5206 -0.1190
  253MOL0     C34057   9.595   7.334   4.192 -0.9180  0.1811 -0.3163
  253MOL0     C34058   9.679   7.210   4.155 -0.4475  0.2641  0.5357
  253MOL0     C34059   9.633   7.127   4.020 -0.3722  0.1613 -0.1053
  253MOL0     C34060   9.723   7.001   3.991  1.1642 -0.7894 -0.4053
  253MOL0     C34061   9.654   6.877   4.060 -0.0849  0.3560 -0.4159
  253MOL0     C34062   9.718   6.756   3.988  0.6294  0.6411  0.1906
  253MOL0     C34063   9.630   6.631   4.002  0.0388 -1.2046 -0.0742
  253MOL0     C34064   9.681   6.510   3.925  0.5114 -0.3477 -0.6218
  253MOL0    Cl34065   9.593   6.369   3.976 -0.0078 -0.4969  0.2448
  253MOL0     C34066   9.550   7.626   4.230 -0.5423  0.1366  0.2386
  253MOL0     C34067   9.507   7.763   4.240 -0.0739 -0.1833 -0.8020
  253MOL0     O34068   9.634   8.013   4.033  0.7967 -0.6179  0.1056
  253MOL0     C34069   9.596   8.273   4.127 -0.4033  0.7179 -0.6044
  253MOL0     C34070   9.581   8.413   4.150  0.4059 -0.2531  0.2927
  253MOL0     N34071   9.457   9.138   4.351  0.0564  0.7859 -0.3969
  253MOL0     N34072   9.508   9.121   4.473  0.3653  1.0375  0.3444
  253MOL0     C34073   9.276   7.924   4.490 -0.5509 -0.1952 -0.1956
  253MOL0     C34074   9.316   7.813   4.562 -0.2249 -0.1763  0.5332
  253MOL0     C34075   9.481   7.564   4.948  0.3685 -0.1957  0.2418
  253MOL0     C34076   9.413   7.454   4.907 -0.3324 -0.7828 -0.2375
  253MOL0     C34077   9.420   7.335   4.967 -0.6155  0.4139 -0.2083
  253MOL0     C34078   9.484   7.323   5.091  0.1260 -0.8230  0.5484
  253MOL0     O34079   9.507   7.205   5.161  0.0475  0.1754  0.1962
  253MOL0     C34080   9.423   7.085   5.136  0.7682  0.6734  0.0933
  253MOL0     C34081   9.490   7.020   5.013 -0.4612  0.2550  0.6926
  253MOL0     C34082   9.492   6.871   5.029  0.1868  0.3974  0.4434
  253MOL0     C34083   9.556   6.782   4.921  0.2561 -0.2132 -1.0566
  253MOL0     C34084   9.697   6.759   4.946 -0.0839  0.7669 -0.0652
  253MOL0     C34085   9.810   6.746   4.988 -0.8238  0.4123  1.1302
  253MOL0     C34086   9.557   7.430   5.135  0.2874  0.3169  0.5168
  253MOL0     C34087   9.555   7.553   5.066  0.0981  0.3779 -0.1737
  253MOL0     H34088   9.365   7.952   4.876 -5.0812 -0.4106  1.7516
  253MOL0     H34089   9.297   8.140   4.756  3.6525 -0.5918  1.9032
  253MOL0     H34090   9.471   8.191   4.520  2.2814 -2.5401 -2.1630
  253MOL0     H34091   9.416   8.137   4.359 -3.8164 -3.4237  0.5673
  253MOL0     H34092   9.470   8.395   4.394 -1.1750  2.6986 -0.2320
  253MOL0     H34093   9.317   8.360   4.321  0.2673  0.7780  0.0296
  253MOL0     H34094   9.206   8.393   4.534 -0.8107  3.6419 -0.1607
  253MOL0     H34095   9.369   8.374   4.613 -0.2702 -0.9781 -0.4643
  253MOL0     H34096   9.304   8.599   4.409  0.4747 -1.0963 -0.3807
  253MOL0     H34097   9.261   8.620   4.576 -2.5011 -0.7093 -1.4383
  253MOL0     H34098   9.499   8.548   4.644 -1.4839 -1.5611 -0.4389
  253MOL0     H34099   9.542   8.583   4.480 -0.1680  0.1045 -0.0693
  253MOL0     H34100   9.420   8.820   4.540  0.8532  1.2751  0.5493
  253MOL0     H34101   9.499   8.780   4.696 -0.4854 -1.7238  0.3686
  253MOL0     H34102   9.719   8.737   4.604 -0.5311 -0.1291  0.3159
  253MOL0     H34103   9.660   8.764   4.449 -0.5172  2.1453 -0.7616
  253MOL0     H34104   9.776   8.960   4.539 -0.2070 -1.9508  0.3362
  253MOL0     H34105   9.638   8.983   4.660 -1.9520 -2.1059  0.5630
  253MOL0     H34106   9.688   8.920   4.282  1.5651  1.8705 -1.4765
  253MOL0     H34107   9.390   9.092   4.090 -1.1242 -0.3360 -0.2726
  253MOL0     H34108   9.567   9.089   4.052  1.4153 -1.8377  1.3273
  253MOL0     H34109   9.555   8.843   4.080 -0.2574 -0.2188  3.7625
  253MOL0     H34110   9.418   8.902   3.972 -1.3730  2.2713  0.5016
  253MOL0     H34111   9.268   8.887   4.175  1.2048  1.7717  2.3729
  253MOL0     H34112   9.398   8.828   4.276 -1.7536 -0.8724  1.1499
  253MOL0     H34113   9.301   8.675   4.026 -1.4079  0.2919 -0.4689
  253MOL0     H34114   9.254   8.644   4.187 -2.1786  1.7934 -1.5633
  253MOL0     H34115   9.267   8.452   4.028  0.4739  2.5199  0.4387
  253MOL0     H34116   9.217   8.127   4.117 -1.7003 -2.4920 -1.8822
  253MOL0     H34117   9.167   8.228   3.980  1.0766  0.8788  0.6992
  253MOL0     H34118   9.279   8.089   3.946  2.9060 -2.2581  2.5754
  253MOL0     H34119   9.389   7.791   3.932  0.6602  1.2522  0.3742
  253MOL0     H34120   9.482   7.564   3.908 -0.2690 -0.0944  0.1685
  253MOL0     H34121   9.662   7.376   4.268  0.3319  3.9775 -3.2257
  253MOL0     H34122   9.490   7.317   4.218 -0.3301  0.8039  2.9852
  253MOL0     H34123   9.782   7.244   4.144  0.3305 -2.3603 -1.3318
  253MOL0     H34124   9.670   7.129   4.229  0.3324 -0.4551 -0.1456
  253MOL0     H34125   9.625   7.192   3.932 -0.0075  1.0851  0.5249
  253MOL0     H34126   9.529   7.105   4.043 -0.0166  0.7498  2.3754
  253MOL0     H34127   9.747   6.991   3.885 -2.0518  0.1487 -1.3211
  253MOL0     H34128   9.820   7.020   4.038  1.8069 -2.1878 -1.1231
  253MOL0     H34129   9.548   6.867   4.037  0.8295 -2.4381 -4.6356
  253MOL0     H34130   9.671   6.873   4.168  0.2248 -1.3684 -0.4871
  253MOL0     H34131   9.739   6.774   3.882  0.9785 -2.9926 -0.4937
  253MOL0     H34132   9.816   6.730   4.030  0.9887  0.6697 -0.6157
  253MOL0     H34133   9.531   6.655   3.961  0.2481  1.3465  0.7010
  253MOL0     H34134   9.624   6.600   4.107  3.0091 -3.1990 -0.3878
  253MOL0     H34135   9.786   6.496   3.953  1.0411  1.7754 -1.3184
  253MOL0     H34136   9.674   6.513   3.816  1.5973 -1.2838 -0.7380
  253MOL0     H34137   9.592   7.583   4.320  3.2609 -0.2667 -1.5470
  253MOL0     H34138   9.502   7.820   4.332  0.5859  0.5974 -1.2415
  253MOL0     H34139   9.692   8.228   4.149 -0.3459  1.1426  0.0361
  253MOL0     H34140   9.660   8.477   4.188  0.7554 -0.2868 -0.3600
  253MOL0     H34141   9.248   7.908   4.386  1.3479 -0.1751 -0.7439
  253MOL0     H34142   9.330   7.720   4.507 -3.3729 -0.5405  0.1450
  253MOL0     H34143   9.361   7.455   4.811  2.5182  0.1258 -1.9008
  253MOL0     H34144   9.383   7.245   4.921  0.5827 -1.4569  2.2283
  253MOL0     H34145   9.441   7.025   5.225 -0.7625  2.2067  1.5226
  253MOL0     H34146   9.320   7.115   5.113  0.7588  1.0563  0.5873
  253MOL0     H34147   9.595   7.052   5.009 -0.5690  0.8543  2.1350
  253MOL0     H34148   9.446   7.050   4.917  3.3979 -2.6987 -2.3568
  253MOL0     H34149   9.388   6.841   5.039  0.8883 -2.0937  1.0322
  253MOL0     H34150   9.545   6.833   5.117  0.1488 -1.1822 -0.1710
  253MOL0     H34151   9.555   6.800   4.813  0.7074 -2.4428 -1.4829
  253MOL0     H34152   9.510   6.684   4.933  2.2579 -0.9627  1.6268
  253MOL0     H34153   9.912   6.735   5.020 -0.2866 -1.3003 -0.9754
  253MOL0     H34154   9.628   7.418   5.216  0.5382 -1.5217  0.0765
  253MOL0     H34155   9.620   7.623   5.119  0.2392 -0.5351  0.8938
  254MOL0     O34156   7.784   7.383   6.540  1.4833 -0.3368  0.3701
  254MOL0     C34157   7.693   7.312   6.488 -0.5688 -0.6761  0.1564
  254MOL0     O34158   7.578   7.270   6.539  0.1979 -1.0275 -0.0565
  254MOL0     C34159   7.552   7.291   6.665 -0.1905 -0.0843  0.1551
  254MOL0     C34160   7.504   7.410   6.708 -1.3859  0.6080  0.7156
  254MOL0     C34161   7.463   7.439   6.836 -0.2659  0.2010  0.9282
  254MOL0     C34162   7.481   7.347   6.937 -0.3120  0.1870  0.5000
  254MOL0     O34163   7.452   7.400   7.060  0.3620  0.2913 -0.0283
  254MOL0     C34164   7.404   7.301   7.141 -0.6431 -0.0155  0.0111
  254MOL0     C34165   7.295   7.341   7.247  0.1703  0.5884 -0.1700
  254MOL0     C34166   7.371   7.416   7.353  0.6636  0.9802 -0.0368
  254MOL0     C34167   7.286   7.440   7.477  0.1009  0.1258  0.1814
  254MOL0     C34168   7.345   7.566   7.561 -1.0735 -0.0051  0.2821
  254MOL0     C34169   7.324   7.537   7.706 -0.0614  0.6102 -0.3900
  254MOL0     C34170   7.416   7.619   7.797  0.8918 -0.3494 -0.1377
  254MOL0     C34171   7.400   7.606   7.954  0.0518 -0.1601  0.2742
  254MOL0     N34172   7.267   7.605   8.009 -0.2031  0.3233  0.4465
  254MOL0     C34173   7.164   7.698   7.980 -0.7394  0.0738  0.2398
  254MOL0     C34174   7.065   7.665   8.065 -0.4151  0.5459  0.0693
  254MOL0     C34175   6.946   7.742   8.105  0.3981 -0.6552  0.0877
  254MOL0     C34176   6.897   7.831   7.991 -0.0073  0.1324  0.5388
  254MOL0     C34177   6.952   7.976   7.986 -0.1116  0.7688  0.1478
  254MOL0     C34178   6.891   8.057   8.086  0.4336 -0.0805 -0.0186
  254MOL0     O34179   6.969   8.181   8.084 -0.2897  0.3547  0.7105
  254MOL0     C34180   6.900   8.296   8.054  0.7011 -0.1105 -0.0752
  254MOL0     C34181   6.901   8.407   8.140 -0.3937  0.4488 -0.5329
  254MOL0     C34182   6.852   8.529   8.116 -0.3046 -1.3853 -0.4683
  254MOL0     C34183   6.873   8.651   8.204 -0.5124 -0.0775  0.1031
  254MOL0     C34184   6.764   8.537   8.001  0.0876 -0.6974  0.0159
  254MOL0     C34185   6.684   8.656   7.965  1.0573 -0.1763  1.2186
  254MOL0     O34186   6.590   8.621   7.875 -0.4012 -0.5141 -0.0256
  254MOL0     C34187   6.478   8.698   7.850  0.3626  0.4281  0.3169
  254MOL0     C34188   6.418   8.696   7.726 -0.2311 -0.0981  0.2365
  254MOL0     C34189   6.298   8.770   7.705  0.3346  0.5084  0.2850
  254MOL0     C34190   6.239   8.845   7.803  0.2197 -0.0913 -0.1169
  254MOL0     O34191   6.121   8.904   7.775 -0.2061  0.2245 -0.1473
  254MOL0     C34192   6.079   9.015   7.871  0.0322 -0.7120  0.1738
  254MOL0     C34193   5.990   8.971   7.999  0.6006  0.8250 -0.1042
  254MOL0     C34194   5.926   8.832   7.997 -0.1967  0.5011 -0.3924
  254MOL0     C34195   5.791   8.824   8.066  0.2168  0.2346  0.6670
  254MOL0     C34196   5.802   8.859   8.219  0.4584 -0.2184  0.2332
  254MOL0     C34197   5.880   8.750   8.296  0.1190 -0.3302  0.7570
  254MOL0     C34198   5.867   8.781   8.444  0.3263 -1.2902  0.7901
  254MOL0     C34199   5.865   8.664   8.541  0.1051 -0.0490 -0.0711
  254MOL0    Cl34200   5.731   8.553   8.500  0.2437 -0.2439  0.0939
  254MOL0     C34201   6.300   8.859   7.924  0.1231 -0.5099 -0.7956
  254MOL0     C34202   6.413   8.778   7.952  0.1209  0.5417 -0.2229
  254MOL0     O34203   6.712   8.768   8.009 -0.4762  0.0046 -0.7688
  254MOL0     C34204   6.754   8.423   7.910 -0.8181 -0.0973 -0.0399
  254MOL0     C34205   6.828   8.310   7.936 -0.5193 -0.1845 -0.2166
  254MOL0     N34206   7.098   7.543   8.124  0.1974  0.6934  1.2603
  254MOL0     N34207   7.213   7.503   8.082 -0.5656  0.9098 -0.6786
  254MOL0     C34208   7.541   7.224   6.895 -0.4871  0.2215 -0.7845
  254MOL0     C34209   7.580   7.189   6.759  0.4285 -0.1511 -0.0032
  254MOL0     C34210   7.730   7.261   6.359  0.2756  0.5031  0.1397
  254MOL0     C34211   7.793   7.339   6.263  0.6194  0.7638  0.0461
  254MOL0     C34212   7.863   7.273   6.152 -0.2400 -0.4191  0.2556
  254MOL0     C34213   7.836   7.146   6.118 -0.4969  0.3817 -0.9462
  254MOL0     O34214   7.882   7.086   6.005  0.1526 -0.1098 -0.3880
  254MOL0     C34215   7.942   7.169   5.914 -0.2801  0.1222 -0.3845
  254MOL0     C34216   7.951   7.086   5.783  0.0509 -0.4461  0.2688
  254MOL0     C34217   7.817   7.081   5.712 -0.2295  0.9591  0.4075
  254MOL0     C34218   7.813   7.050   5.558  0.6497  0.2363 -0.4044
  254MOL0     C34219   7.679   7.083   5.494 -0.8176  1.6838  0.3107
  254MOL0     C34220   7.577   7.089   5.432  0.1061 -0.3125  0.2898
  254MOL0     C34221   7.761   7.068   6.211 -0.6015 -0.1486 -0.5668
  254MOL0     C34222   7.708   7.123   6.334 -0.2364  0.1841  0.6817
  254MOL0     H34223   7.515   7.488   6.634  1.0136  2.4775  2.8603
  254MOL0     H34224   7.448   7.541   6.870  2.1040  0.3892  1.6308
  254MOL0     H34225   7.363   7.216   7.085  2.3524 -3.1636  2.2320
  254MOL0     H34226   7.486   7.262   7.202  1.2254  2.3963 -0.7909
  254MOL0     H34227   7.211   7.402   7.213  1.4059  1.4329 -1.8742
  254MOL0     H34228   7.255   7.250   7.293 -0.4904  1.9067  1.9975
  254MOL0     H34229   7.456   7.370   7.404  0.2701  0.4372  0.1403
  254MOL0     H34230   7.399   7.517   7.321 -3.2848  2.8194  1.5464
  254MOL0     H34231   7.188   7.461   7.433  0.8081  2.3269 -0.4698
  254MOL0     H34232   7.284   7.349   7.537  1.8324  0.9963  1.6406
  254MOL0     H34233   7.453   7.572   7.544 -1.3966 -0.2438 -2.2504
  254MOL0     H34234   7.306   7.662   7.526  0.5777  1.3555  1.9764
  254MOL0     H34235   7.217   7.551   7.719 -0.8420 -1.9383 -3.0240
  254MOL0     H34236   7.344   7.433   7.731  1.2773  0.4873 -1.8196
  254MOL0     H34237   7.515   7.583   7.767  2.0009  0.4403  2.2628
  254MOL0     H34238   7.396   7.725   7.778  0.2489  0.9200  5.6005
  254MOL0     H34239   7.459   7.682   8.006  1.7085  1.0090 -3.0424
  254MOL0     H34240   7.440   7.507   7.980 -2.2302 -1.4666 -0.8866
  254MOL0     H34241   7.161   7.794   7.929  0.0823 -0.4746 -0.8684
  254MOL0     H34242   6.866   7.672   8.133  1.3310 -2.7858 -2.1501
  254MOL0     H34243   6.966   7.811   8.188 -0.7042  4.9086 -3.7196
  254MOL0     H34244   6.788   7.834   7.989  0.0204  1.3772  0.4922
  254MOL0     H34245   6.926   7.787   7.895 -3.5825  1.4826 -1.3409
  254MOL0     H34246   6.933   8.013   7.885  1.4974 -2.2784 -1.4079
  254MOL0     H34247   7.061   7.985   7.991 -0.0569  0.3157 -0.1764
  254MOL0     H34248   6.896   8.020   8.189  0.9884 -1.3266 -0.4728
  254MOL0     H34249   6.787   8.068   8.053  1.5360  0.2916 -3.9842
  254MOL0     H34250   6.960   8.394   8.231 -0.1121  0.8837 -0.6485
  254MOL0     H34251   6.947   8.628   8.281 -0.5533 -1.2032 -0.1689
  254MOL0     H34252   6.916   8.729   8.141  2.2627 -1.2411  0.4188
  254MOL0     H34253   6.782   8.679   8.259 -0.0865 -0.5005  1.0485
  254MOL0     H34254   6.472   8.647   7.645  3.1441  1.1985  1.5310
  254MOL0     H34255   6.261   8.762   7.603  0.0463  0.7028  0.3742
  254MOL0     H34256   6.148   9.094   7.899 -3.6075  3.1784 -0.7610
  254MOL0     H34257   5.998   9.072   7.823 -1.0758 -1.2839  1.3193
  254MOL0     H34258   6.048   8.981   8.092  0.0907 -1.8035  0.5791
  254MOL0     H34259   5.913   9.049   8.004  0.3327  0.5070  3.2392
  254MOL0     H34260   5.994   8.753   8.030 -1.0006  0.6890  1.8414
  254MOL0     H34261   5.902   8.806   7.894 -1.1720 -0.7666  0.1343
  254MOL0     H34262   5.724   8.892   8.012  2.5507 -0.7484 -3.9697
  254MOL0     H34263   5.757   8.721   8.053 -0.5489  0.2661  2.2495
  254MOL0     H34264   5.705   8.879   8.265 -0.7494  0.0598 -2.2618
  254MOL0     H34265   5.849   8.958   8.224 -0.3096  0.1648 -0.0432
  254MOL0     H34266   5.840   8.651   8.277  1.1021 -0.6594  0.3122
  254MOL0     H34267   5.983   8.750   8.258 -0.9175 -1.5674 -2.3117
  254MOL0     H34268   5.775   8.836   8.467  1.6664  1.7047 -0.5106
  254MOL0     H34269   5.946   8.855   8.463 -1.0576  0.6118 -0.4342
  254MOL0     H34270   5.845   8.692   8.644 -1.4594 -1.3555  0.0256
  254MOL0     H34271   5.956   8.605   8.528 -0.7295 -1.5013  0.4076
  254MOL0     H34272   6.264   8.923   8.004  1.5024 -1.3616  0.5519
  254MOL0     H34273   6.451   8.768   8.053 -1.7233 -1.9320  0.3085
  254MOL0     H34274   6.691   8.405   7.823 -0.0800 -3.9353  0.0274
  254MOL0     H34275   6.831   8.226   7.866 -0.6032 -1.0553  0.8053
  254MOL0     H34276   7.546   7.155   6.979 -2.1774  0.2883 -0.5879
  254MOL0     H34277   7.619   7.090   6.735  0.0681  0.0088 -1.3141
  254MOL0     H34278   7.800   7.441   6.298 -1.5111  0.1653  2.5667
  254MOL0     H34279   7.933   7.336   6.098 -0.8449 -1.1614 -1.4584
  254MOL0     H34280   7.889   7.262   5.889 -2.0765 -0.3895  1.3035
  254MOL0     H34281   8.044   7.191   5.946 -0.1888  1.5925 -1.5087
  254MOL0     H34282   8.003   6.992   5.805  1.7474  1.0824  3.4281
  254MOL0     H34283   8.019   7.143   5.719 -0.2363 -2.5990 -2.1024
  254MOL0     H34284   7.758   7.172   5.726 -0.4420  1.2973 -2.2232
  254MOL0     H34285   7.767   7.003   5.770  0.3779  2.0262  2.4659
  254MOL0     H34286   7.835   6.944   5.543 -1.9760 -0.3033 -0.9231
  254MOL0     H34287   7.886   7.107   5.501  1.9226 -2.0754 -1.2348
  254MOL0     H34288   7.484   7.109   5.382 -0.4833  0.0488  1.4951
  254MOL0     H34289   7.739   6.967   6.175  0.7501 -0.7381  0.1912
  254MOL0     H34290   7.655   7.050   6.395 -1.2126 -2.0888 -2.5900
  255MOL0     O34291   6.104   2.892   9.140  0.1080 -0.1106  0.3286
  255MOL0     C34292   6.111   3.016   9.140 -0.2613  0.8317  0.5056
  255MOL0     O34293   6.036   3.099   9.202 -0.8193  0.2478  1.1359
  255MOL0     C34294   5.923   3.066   9.272 -0.0012  0.2809 -0.1885
  255MOL0     C34295   5.863   3.162   9.347 -0.5433  0.1668 -1.0507
  255MOL0     C34296   5.766   3.145   9.443 -0.5819  0.0315 -0.3746
  255MOL0     C34297   5.711   3.017   9.467  0.4060  0.2746 -0.6452
  255MOL0     O34298   5.643   2.985   9.584  0.9229  0.0741  0.0805
  255MOL0     C34299   5.586   2.847   9.607 -0.6978 -1.0436 -0.5239
  255MOL0     C34300   5.505   2.824   9.735  0.8148 -0.6335 -0.6657
  255MOL0     C34301   5.403   2.938   9.756 -0.7370  0.6726  0.1139
  255MOL0     C34302   5.360   2.943   9.911  0.6089  0.4388 -0.6989
  255MOL0     C34303   5.269   3.065   9.946 -0.2461 -0.1980 -0.2261
  255MOL0     C34304   5.131   3.065   9.872 -0.8754 -0.4673  0.1220
  255MOL0     C34305   5.024   3.146   9.944 -0.7725  0.0479  0.1922
  255MOL0     C34306   4.955   3.071  10.054 -1.1622  0.7461 -0.4685
  255MOL0     N34307   4.857   2.968  10.008  0.1798  1.4725 -0.2184
  255MOL0     C34308   4.762   2.911  10.090  0.0513  0.5416  0.9138
  255MOL0     C34309   4.681   2.832  10.019  0.5123 -0.1633  0.0237
  255MOL0     C34310   4.545   2.780  10.054 -0.9166 -0.6469 -0.5096
  255MOL0     C34311   4.559   2.642  10.115 -0.4913  0.2929 -0.3751
  255MOL0     C34312   4.608   2.625  10.264 -0.9695 -0.1743 -0.7339
  255MOL0     C34313   4.764   2.621  10.280  0.9223  0.3335  0.2150
  255MOL0     O34314   4.814   2.520  10.185 -0.1546 -0.4051 -0.5146
  255MOL0     C34315   4.943   2.461  10.202  0.2786  0.3291  0.4687
  255MOL0     C34316   5.052   2.505  10.280  0.0464 -0.8392 -0.4568
  255MOL0     C34317   5.171   2.433  10.309 -0.4353 -0.0877  0.3180
  255MOL0     C34318   5.282   2.514  10.368  0.0155  0.0469  0.7576
  255MOL0     C34319   5.180   2.296  10.272 -0.4694 -0.8077 -0.1821
  255MOL0     C34320   5.294   2.206  10.307  0.6886 -0.0739 -0.3154
  255MOL0     O34321   5.339   2.131  10.210  0.4076  1.1165 -0.4871
  255MOL0     C34322   5.445   2.036  10.225 -0.6711 -0.3905  0.5424
  255MOL0     C34323   5.487   1.964  10.342 -0.2359 -0.1331  0.1752
  255MOL0     C34324   5.599   1.878  10.344  0.1613 -0.1322  0.4555
  255MOL0     C34325   5.683   1.879  10.231 -0.1844 -0.6389 -0.4435
  255MOL0     O34326   5.806   1.826  10.222 -0.4280  0.0141 -1.1463
  255MOL0     C34327   5.875   1.770  10.331 -0.7384  0.3032  0.4776
  255MOL0     C34328   6.017   1.745  10.285  0.0985 -0.4491 -0.1662
  255MOL0     C34329   6.092   1.630  10.351 -0.5679  0.2082 -1.4018
  255MOL0     C34330   6.214   1.593  10.279 -1.0179  0.0592  0.6614
  255MOL0     C34331   6.277   1.468  10.325  0.0015  1.3099 -0.3576
  255MOL0     C34332   6.216   1.337  10.248  0.2471 -0.4891 -0.3385
  255MOL0     C34333   6.293   1.210  10.250  0.6299 -0.7345 -0.2980
  255MOL0     C34334   6.335   1.166  10.384  1.0331 -0.2860  0.5157
  255MOL0    Cl34335   6.464   1.036  10.353  0.0060  0.2129  0.4146
  255MOL0     C34336   5.633   1.935  10.108  0.1322  0.2559  0.1004
  255MOL0     C34337   5.516   2.009  10.103  0.5960  0.3656 -0.7046
  255MOL0     O34338   5.343   2.217  10.414 -0.1118  0.7100 -0.2542
  255MOL0     C34339   5.069   2.244  10.196 -1.4345 -0.0930  0.2570
  255MOL0     C34340   4.959   2.321  10.162  0.2100 -0.0690  0.2658
  255MOL0     N34341   4.727   2.850   9.886 -0.7470  0.1608  0.1056
  255MOL0     N34342   4.840   2.917   9.877  0.3941  0.5015 -0.2174
  255MOL0     C34343   5.763   2.916   9.376  0.2291 -0.0239 -0.1118
  255MOL0     C34344   5.865   2.936   9.283 -0.3496 -0.0929  0.0235
  255MOL0     C34345   6.242   3.059   9.070  0.5030 -0.5352 -0.3725
  255MOL0     C34346   6.317   2.994   8.978  0.5612  0.3234 -0.5705
  255MOL0     C34347   6.431   3.056   8.923 -0.8994 -0.9294  0.4577
  255MOL0     C34348   6.474   3.185   8.949 -0.0472 -0.3160 -0.6759
  255MOL0     O34349   6.572   3.237   8.866  0.2906 -0.1244  0.8548
  255MOL0     C34350   6.664   3.342   8.914 -0.5458 -0.3174  0.0846
  255MOL0     C34351   6.750   3.365   8.789 -0.3304  0.0526 -0.2377
  255MOL0     C34352   6.877   3.439   8.823  0.2370 -0.0936 -0.2198
  255MOL0     C34353   6.967   3.464   8.705 -0.4496 -0.7615 -0.7613
  255MOL0     C34354   7.064   3.358   8.684  0.4163 -0.2562  0.2160
  255MOL0     C34355   7.132   3.259   8.683 -0.2025  0.0988  0.0174
  255MOL0     C34356   6.404   3.247   9.058 -0.5821  0.5295 -0.2763
  255MOL0     C34357   6.297   3.188   9.115  0.0568  0.6509 -0.5201
  255MOL0     H34358   5.908   3.261   9.340  0.8113 -0.2605  0.9537
  255MOL0     H34359   5.741   3.231   9.504  2.4575  1.8092 -1.4526
  255MOL0     H34360   5.507   2.825   9.534 -3.1775 -0.4343  1.8153
  255MOL0     H34361   5.661   2.769   9.591 -0.3460 -0.1457 -4.0308
  255MOL0     H34362   5.451   2.730   9.725 -0.3348  0.1476 -2.3943
  255MOL0     H34363   5.567   2.840   9.823  1.2296  0.9365 -1.1954
  255MOL0     H34364   5.457   3.030   9.731  2.8014 -0.5818  2.2861
  255MOL0     H34365   5.315   2.914   9.696 -1.4991  0.5424  1.2685
  255MOL0     H34366   5.301   2.853   9.932  1.6534 -0.0157  0.3904
  255MOL0     H34367   5.458   2.941   9.959  1.4598 -3.6815 -2.1897
  255MOL0     H34368   5.250   3.051  10.053 -0.3159 -3.6424 -0.5617
  255MOL0     H34369   5.336   3.150   9.933 -0.0855 -0.4544 -1.1435
  255MOL0     H34370   5.141   3.111   9.774  2.2711 -0.1206  0.5143
  255MOL0     H34371   5.095   2.963   9.855  0.7966 -1.0885  0.1363
  255MOL0     H34372   5.045   3.246   9.982 -1.0216  0.6772 -1.2298
  255MOL0     H34373   4.937   3.172   9.883 -0.7790  3.1829  1.3833
  255MOL0     H34374   4.904   3.142  10.119 -0.9603  0.3562  0.1214
  255MOL0     H34375   5.029   3.013  10.110  1.0202  1.3902 -2.4972
  255MOL0     H34376   4.742   2.950  10.190  0.9346 -0.4357  1.4942
  255MOL0     H34377   4.507   2.845  10.134  1.7373 -0.8342  1.0496
  255MOL0     H34378   4.475   2.785   9.971 -1.7098  1.9893  0.2123
  255MOL0     H34379   4.636   2.586  10.063 -1.8717 -1.8434 -0.2554
  255MOL0     H34380   4.462   2.591  10.122  0.0519 -0.6214  1.0027
  255MOL0     H34381   4.552   2.548  10.317 -2.0832  0.5272 -0.8441
  255MOL0     H34382   4.571   2.715  10.316 -1.3940  0.2910 -1.8010
  255MOL0     H34383   4.779   2.577  10.379  0.4183  2.4921  1.3107
  255MOL0     H34384   4.799   2.724  10.271  0.1118  0.5717 -0.3278
  255MOL0     H34385   5.042   2.607  10.315 -4.0351 -0.5846 -1.8202
  255MOL0     H34386   5.264   2.622  10.375  3.1956  1.0356 -2.7969
  255MOL0     H34387   5.304   2.472  10.466 -0.0005 -2.1225 -0.1193
  255MOL0     H34388   5.374   2.505  10.311  0.3523  0.5597  1.2124
  255MOL0     H34389   5.427   1.966  10.433  0.9624 -0.7132  0.9966
  255MOL0     H34390   5.628   1.813  10.426  2.2473  2.6913  2.1461
  255MOL0     H34391   5.881   1.848  10.408  0.1095  3.1628 -2.2814
  255MOL0     H34392   5.826   1.680  10.367  1.2344 -0.6499  0.9098
  255MOL0     H34393   6.004   1.704  10.184  1.8388  1.3208 -1.1853
  255MOL0     H34394   6.076   1.837  10.275  0.3718 -0.8227 -2.8499
  255MOL0     H34395   6.027   1.545  10.375  0.7572 -0.7424 -1.0743
  255MOL0     H34396   6.125   1.670  10.448 -0.1821  1.2054 -1.9356
  255MOL0     H34397   6.191   1.582  10.173 -0.7502 -0.0486  0.6161
  255MOL0     H34398   6.275   1.682  10.299 -0.9888  0.1026  0.3739
  255MOL0     H34399   6.258   1.460  10.432 -0.9338 -1.1393 -0.6443
  255MOL0     H34400   6.384   1.471  10.301  0.1900 -1.8863 -0.4198
  255MOL0     H34401   6.116   1.317  10.289  0.7679 -2.1225  0.1998
  255MOL0     H34402   6.207   1.365  10.143  0.7099 -2.3708 -0.9174
  255MOL0     H34403   6.373   1.223  10.176  1.2785  0.0112  0.5251
  255MOL0     H34404   6.231   1.125  10.219  0.6828 -1.0158  0.3646
  255MOL0     H34405   6.241   1.130  10.427 -1.0651  1.7149 -2.1104
  255MOL0     H34406   6.378   1.250  10.440  1.2227 -1.2188  1.8166
  255MOL0     H34407   5.696   1.934  10.020  1.2499  1.3774  0.8562
  255MOL0     H34408   5.475   2.040  10.008 -2.9487 -2.6357 -0.3789
  255MOL0     H34409   5.083   2.149  10.145  0.2075 -1.0394  2.3138
  255MOL0     H34410   4.886   2.279  10.093  1.4341 -4.3321  1.2563
  255MOL0     H34411   5.724   2.815   9.378 -0.4821  0.2423 -0.2712
  255MOL0     H34412   5.905   2.854   9.224 -2.6681 -0.3040 -1.3935
  255MOL0     H34413   6.287   2.899   8.934 -1.9588 -0.3298  2.2156
  255MOL0     H34414   6.486   3.004   8.845  0.9066  1.5304 -0.0270
  255MOL0     H34415   6.608   3.428   8.953 -2.8652 -1.6957  0.0003
  255MOL0     H34416   6.731   3.299   8.989 -0.3308  0.3734  0.3023
  255MOL0     H34417   6.688   3.407   8.709 -1.8970 -1.3018  0.1891
  255MOL0     H34418   6.784   3.266   8.756  0.5989 -0.4549  2.0398
  255MOL0     H34419   6.932   3.381   8.898  1.9603  3.6051  1.6370
  255MOL0     H34420   6.855   3.534   8.871  2.3486  0.8291 -0.9476
  255MOL0     H34421   7.027   3.555   8.709  0.7593 -1.3306 -3.6650
  255MOL0     H34422   6.895   3.479   8.624 -1.7719  1.6880  0.7568
  255MOL0     H34423   7.220   3.200   8.668  0.6325  1.8933 -3.0902
  255MOL0     H34424   6.430   3.343   9.101 -0.8602 -0.0593  1.2997
  255MOL0     H34425   6.243   3.247   9.189 -3.1465 -0.8948 -1.4369
  256MOL0     O34426   6.688   0.806   8.096 -0.2915  0.3461 -1.1149
  256MOL0     C34427   6.717   0.691   8.062  0.1056  0.2587  1.1078
  256MOL0     O34428   6.652   0.611   7.961 -0.2660 -0.7535 -0.4902
  256MOL0     C34429   6.544   0.662   7.893 -0.8053 -0.4568 -0.1697
  256MOL0     C34430   6.548   0.661   7.754  1.0505  0.1733  0.3259
  256MOL0     C34431   6.433   0.710   7.682 -0.2726 -0.7508 -0.1936
  256MOL0     C34432   6.316   0.765   7.748 -0.7415 -0.3577  0.8520
  256MOL0     O34433   6.222   0.830   7.678 -0.1882 -0.7718 -0.0793
  256MOL0     C34434   6.197   0.804   7.540 -0.0979  0.3991  0.4275
  256MOL0     C34435   6.061   0.868   7.510  1.0852 -0.7661  0.9185
  256MOL0     C34436   6.056   1.010   7.447  0.1799  0.2915 -0.8940
  256MOL0     C34437   6.082   1.129   7.541  0.9756  0.0207  0.5207
  256MOL0     C34438   6.214   1.129   7.628  0.3044 -0.4136 -0.1480
  256MOL0     C34439   6.271   1.275   7.658 -0.8997 -0.5046  0.2161
  256MOL0     C34440   6.163   1.364   7.723  0.3428 -0.1368 -0.2255
  256MOL0     C34441   6.220   1.488   7.791  0.7113  0.2150 -0.6511
  256MOL0     N34442   6.115   1.583   7.846  0.2710  0.1581 -0.3862
  256MOL0     C34443   6.070   1.698   7.787 -0.2334 -0.4449 -0.5536
  256MOL0     C34444   5.978   1.739   7.879  0.6281  0.0294  1.0531
  256MOL0     C34445   5.892   1.849   7.852 -0.2433 -0.3315  0.0662
  256MOL0     C34446   5.825   1.852   7.712  0.3833 -0.2926 -0.8459
  256MOL0     C34447   5.733   1.977   7.713  0.1589 -0.4793 -0.1842
  256MOL0     C34448   5.655   1.997   7.585  0.0253  0.3216  0.2467
  256MOL0     O34449   5.537   2.061   7.617 -0.0288 -1.2165 -0.8780
  256MOL0     C34450   5.557   2.191   7.670 -0.4113  0.8088 -0.7691
  256MOL0     C34451   5.472   2.230   7.770 -0.0349 -0.2665 -0.4126
  256MOL0     C34452   5.485   2.345   7.838 -1.1092  0.6198 -1.2516
  256MOL0     C34453   5.384   2.364   7.942  0.2675  0.1280 -0.4279
  256MOL0     C34454   5.580   2.445   7.805 -1.3587  0.1889  1.2281
  256MOL0     C34455   5.594   2.579   7.857 -0.3651  0.0969 -0.0766
  256MOL0     O34456   5.685   2.667   7.810  0.0700 -0.6908  0.0076
  256MOL0     C34457   5.672   2.795   7.853 -0.7749  0.2579  0.1611
  256MOL0     C34458   5.644   2.896   7.765  0.0910 -0.2511  0.6634
  256MOL0     C34459   5.639   3.030   7.809 -0.5988  0.3108 -0.2908
  256MOL0     C34460   5.672   3.063   7.942  0.5530  0.0059  0.6982
  256MOL0     O34461   5.642   3.187   7.989  0.4313 -0.7493  0.6734
  256MOL0     C34462   5.676   3.311   7.910  0.0050  0.4580 -0.1535
  256MOL0     C34463   5.799   3.385   7.960 -0.8136  0.5542  0.3339
  256MOL0     C34464   5.843   3.502   7.883 -0.0675  0.2179  0.1794
  256MOL0     C34465   5.979   3.575   7.943  0.0674  0.4266  0.5941
  256MOL0     C34466   6.107   3.485   7.924 -0.1970  0.1034  0.9474
  256MOL0     C34467   6.174   3.482   7.784 -0.1224  0.3006 -0.8520
  256MOL0     C34468   6.231   3.355   7.751  0.4235  0.6265 -0.4076
  256MOL0     C34469   6.130   3.242   7.752  0.2817  0.9363 -0.0911
  256MOL0    Cl34470   5.971   3.288   7.662 -0.3453  0.1762  0.0808
  256MOL0     C34471   5.713   2.955   8.032 -0.5878 -0.7131  0.6575
  256MOL0     C34472   5.717   2.831   7.978 -0.7864  0.0863 -0.3528
  256MOL0     O34473   5.518   2.604   7.946  0.1170  0.3575  0.3129
  256MOL0     C34474   5.672   2.401   7.700 -0.3620 -0.9000  0.2783
  256MOL0     C34475   5.660   2.285   7.632 -0.2675 -0.1323  0.7682
  256MOL0     N34476   5.959   1.650   7.984 -1.1685  0.7809 -0.7392
  256MOL0     N34477   6.050   1.558   7.964 -0.8504 -0.6003 -0.4963
  256MOL0     C34478   6.318   0.766   7.885  0.7949 -0.0852  0.2313
  256MOL0     C34479   6.429   0.706   7.959  0.6381 -0.2081  0.1368
  256MOL0     C34480   6.838   0.619   8.133  0.1896  0.0115  0.5798
  256MOL0     C34481   6.876   0.651   8.262  0.7997  0.5606  0.4703
  256MOL0     C34482   6.976   0.579   8.319  0.3360 -1.3695 -0.4180
  256MOL0     C34483   7.042   0.479   8.263 -1.2635 -0.3766  0.1384
  256MOL0     O34484   7.130   0.411   8.332  0.1379 -0.3803 -0.7407
  256MOL0     C34485   7.259   0.472   8.365 -0.5128 -0.4831 -0.0876
  256MOL0     C34486   7.334   0.541   8.250  0.1487  0.4466 -0.8488
  256MOL0     C34487   7.340   0.462   8.121  0.7913 -0.5985  0.5904
  256MOL0     C34488   7.473   0.387   8.098 -0.6094 -0.5487  0.1162
  256MOL0     C34489   7.499   0.309   8.214  0.5096  0.2883  0.6161
  256MOL0     C34490   7.531   0.248   8.316  0.6024  0.3984 -0.6704
  256MOL0     C34491   6.993   0.431   8.145  0.3208 -0.0932  0.0685
  256MOL0     C34492   6.903   0.509   8.076  0.5023 -0.2023  0.0481
  256MOL0     H34493   6.636   0.630   7.700  0.2539 -0.7945 -0.4504
  256MOL0     H34494   6.445   0.716   7.574  0.3899 -0.5097 -0.1139
  256MOL0     H34495   6.267   0.849   7.469 -1.5187  1.8780 -0.0890
  256MOL0     H34496   6.180   0.698   7.519  3.0577  0.2487 -2.2954
  256MOL0     H34497   6.000   0.815   7.436 -1.5203  2.7948  0.2364
  256MOL0     H34498   6.004   0.872   7.603  2.2818 -4.1989  1.9525
  256MOL0     H34499   6.118   1.008   7.358 -1.7153  1.2068 -2.3178
  256MOL0     H34500   5.953   1.019   7.410 -0.0830 -1.1534 -0.5928
  256MOL0     H34501   6.075   1.217   7.477 -4.0750  0.6069  1.4747
  256MOL0     H34502   5.996   1.133   7.608  0.0126  0.9091 -0.7229
  256MOL0     H34503   6.191   1.076   7.722 -0.0991 -4.2879 -2.2236
  256MOL0     H34504   6.288   1.066   7.577 -1.6219 -0.3279 -3.2354
  256MOL0     H34505   6.366   1.268   7.713 -0.0796  0.1290 -1.0651
  256MOL0     H34506   6.285   1.329   7.564  1.1870  1.5377  1.5605
  256MOL0     H34507   6.094   1.397   7.645  0.4881  1.0430  0.1275
  256MOL0     H34508   6.103   1.305   7.793 -0.6730 -1.1335 -1.8710
  256MOL0     H34509   6.289   1.533   7.719 -0.8038 -0.8243 -2.9040
  256MOL0     H34510   6.288   1.460   7.872  1.1183 -0.5355 -1.2338
  256MOL0     H34511   6.109   1.746   7.698  3.5491 -1.4528  0.3746
  256MOL0     H34512   5.809   1.840   7.923 -1.1801 -0.1347 -0.9634
  256MOL0     H34513   5.953   1.938   7.870  0.3520  0.1962 -3.7054
  256MOL0     H34514   5.767   1.762   7.691  1.2374 -1.0099 -0.2276
  256MOL0     H34515   5.901   1.864   7.634 -1.2796  2.1971 -2.2125
  256MOL0     H34516   5.800   2.061   7.735  1.1847 -1.7942  2.1590
  256MOL0     H34517   5.660   1.958   7.793 -0.3077 -0.9510 -0.7199
  256MOL0     H34518   5.644   1.901   7.534  1.2769 -0.9724  2.2904
  256MOL0     H34519   5.709   2.047   7.505  2.8598 -2.7754  0.0281
  256MOL0     H34520   5.392   2.157   7.785 -1.0730  0.8800 -0.1981
  256MOL0     H34521   5.318   2.448   7.915 -3.0956 -1.7805  1.2095
  256MOL0     H34522   5.315   2.280   7.935  2.4869 -1.6873 -1.8159
  256MOL0     H34523   5.433   2.369   8.039  0.7003 -2.6306 -0.4325
  256MOL0     H34524   5.611   2.865   7.666 -0.5909 -2.5163  1.5266
  256MOL0     H34525   5.626   3.106   7.732 -0.3722 -0.3976 -1.0275
  256MOL0     H34526   5.680   3.299   7.801  0.9981  0.1976 -0.0964
  256MOL0     H34527   5.586   3.371   7.925  0.1885  0.9514 -0.9390
  256MOL0     H34528   5.796   3.407   8.067 -2.7786  1.5357  0.1271
  256MOL0     H34529   5.882   3.315   7.950 -0.9798  0.5573 -1.2358
  256MOL0     H34530   5.773   3.586   7.876 -1.8343 -1.3494 -2.6820
  256MOL0     H34531   5.846   3.488   7.775 -4.2519  0.9346 -0.1988
  256MOL0     H34532   5.990   3.662   7.878  2.7649  1.2708  2.0300
  256MOL0     H34533   5.983   3.610   8.047  2.6983  0.6212  0.5075
  256MOL0     H34534   6.086   3.384   7.961 -1.0584 -0.2052 -0.2886
  256MOL0     H34535   6.176   3.526   7.997 -0.3805 -1.5340  2.0893
  256MOL0     H34536   6.095   3.511   7.714 -0.0729 -1.2527 -1.6093
  256MOL0     H34537   6.250   3.560   7.771  0.7751 -0.2696  0.6944
  256MOL0     H34538   6.293   3.342   7.840 -1.5246  0.1516  0.9516
  256MOL0     H34539   6.293   3.353   7.661  0.4300 -1.3945 -0.3985
  256MOL0     H34540   6.110   3.206   7.853 -0.3943  1.8379  0.1059
  256MOL0     H34541   6.186   3.167   7.695  0.5243  0.5495  0.6419
  256MOL0     H34542   5.735   2.980   8.135 -2.6103  0.5662  0.8412
  256MOL0     H34543   5.746   2.742   8.033 -0.0278 -0.4447 -1.5722
  256MOL0     H34544   5.737   2.486   7.683 -1.6011  0.6383  2.6798
  256MOL0     H34545   5.733   2.264   7.555 -2.6693 -0.2990 -1.5889
  256MOL0     H34546   6.232   0.805   7.938 -2.1100  2.5882 -5.5171
  256MOL0     H34547   6.420   0.698   8.067  0.9704 -1.9233  0.0602
  256MOL0     H34548   6.832   0.741   8.305 -1.8339  0.0723 -0.9808
  256MOL0     H34549   7.016   0.615   8.414  0.3572  4.3716 -2.2268
  256MOL0     H34550   7.238   0.550   8.439  0.4717 -0.7576  0.5066
  256MOL0     H34551   7.320   0.394   8.412 -0.1130 -0.7036 -0.9409
  256MOL0     H34552   7.427   0.582   8.291 -1.8197  1.4522  3.0350
  256MOL0     H34553   7.278   0.630   8.219 -0.9731 -0.2836 -0.9481
  256MOL0     H34554   7.346   0.541   8.045  5.5360 -1.1390  0.1296
  256MOL0     H34555   7.249   0.402   8.119  1.5312 -1.7413  0.3845
  256MOL0     H34556   7.557   0.455   8.084 -1.7585  0.3302 -4.3616
  256MOL0     H34557   7.471   0.326   8.006 -0.7162 -0.8851  0.3382
  256MOL0     H34558   7.571   0.223   8.413 -0.2933  1.8682  0.1293
  256MOL0     H34559   7.043   0.343   8.107  2.4116  0.7682  0.6865
  256MOL0     H34560   6.874   0.485   7.974 -0.9658  0.7381  0.2268
  257MOL0     O34561  10.191  10.913   5.890 -0.2204  0.4056 -0.1261
  257MOL0     C34562  10.181  10.868   5.997 -0.3031 -1.1096 -1.1390
  257MOL0     O34563  10.114  10.759   6.031  0.5529  0.0773  0.8338
  257MOL0     C34564  10.042  10.683   5.940 -0.4479 -0.3254  0.5262
  257MOL0     C34565  10.112  10.636   5.821  0.6921  0.0940 -0.3230
  257MOL0     C34566  10.040  10.550   5.742  0.0330  0.8998 -0.5698
  257MOL0     C34567   9.905  10.507   5.773 -0.3023  0.3579 -0.3432
  257MOL0     O34568   9.820  10.418   5.699 -0.5543 -0.1017 -0.5353
  257MOL0     C34569   9.893  10.320   5.629  0.5519 -0.2616  0.5970
  257MOL0     C34570   9.794  10.218   5.577  0.3887 -0.3467  0.1129
  257MOL0     C34571   9.871  10.098   5.520 -0.8167  0.7429 -0.3468
  257MOL0     C34572   9.982  10.101   5.412  0.9019 -0.2948  0.6036
  257MOL0     C34573  10.012   9.969   5.355  0.1202 -0.0072 -1.0478
  257MOL0     C34574  10.058   9.847   5.451 -0.2497  0.1463 -0.4072
  257MOL0     C34575  10.079   9.706   5.381  0.1717  0.0042  1.0219
  257MOL0     C34576   9.943   9.645   5.335  0.4676  0.2778  0.6348
  257MOL0     N34577   9.965   9.513   5.276 -1.1837 -0.0967  0.0729
  257MOL0     C34578   9.991   9.398   5.346  1.0355 -0.1301  0.3827
  257MOL0     C34579   9.991   9.304   5.251 -0.6957 -0.4267 -0.0267
  257MOL0     C34580   9.972   9.159   5.285 -0.7637 -0.0203  0.2891
  257MOL0     C34581  10.088   9.078   5.340  0.1244  0.1310 -0.5068
  257MOL0     C34582  10.046   8.940   5.339  1.4072  0.4992 -0.1961
  257MOL0     C34583  10.161   8.848   5.386  0.5136 -0.3648 -1.1287
  257MOL0     O34584  10.267   8.842   5.285  0.3434 -0.3152 -0.1529
  257MOL0     C34585  10.388   8.806   5.326 -0.1503  0.2628  0.2389
  257MOL0     C34586  10.497   8.870   5.257  0.3092  0.7805 -1.1452
  257MOL0     C34587  10.633   8.828   5.287 -0.3079  0.7715  0.2242
  257MOL0     C34588  10.748   8.898   5.217  0.1979 -0.9710 -1.1198
  257MOL0     C34589  10.649   8.727   5.380  0.2052 -0.7376 -1.0467
  257MOL0     C34590  10.779   8.665   5.410 -0.0625 -0.3185 -0.5470
  257MOL0     O34591  10.788   8.624   5.542 -0.8870  0.0596 -0.3901
  257MOL0     C34592  10.903   8.564   5.575 -0.4931  0.0372 -0.0822
  257MOL0     C34593  11.023   8.632   5.581  0.6978  0.4105 -0.3732
  257MOL0     C34594  11.150   8.571   5.616  0.2915  0.7161  0.1015
  257MOL0     C34595  11.149   8.427   5.626  0.3168 -0.5157  0.2505
  257MOL0     O34596  11.278   8.378   5.634  0.5722  0.2406 -0.1554
  257MOL0     C34597  11.291   8.236   5.646  0.4060 -0.0168 -0.2724
  257MOL0     C34598  11.438   8.197   5.655  1.0528 -0.2379 -0.7166
  257MOL0     C34599  11.462   8.045   5.660  0.1009 -0.2143  0.2866
  257MOL0     C34600  11.401   7.977   5.793  1.1543  0.4007  0.5144
  257MOL0     C34601  11.484   7.856   5.822 -0.2235  0.3515 -0.4970
  257MOL0     C34602  11.408   7.746   5.914 -0.3950 -1.2231  0.3828
  257MOL0     C34603  11.520   7.636   5.916  0.0370 -0.6925  0.1503
  257MOL0     C34604  11.498   7.529   6.020  0.7151  0.5867  0.0087
  257MOL0    Cl34605  11.537   7.605   6.180 -0.0926  0.0618 -0.3725
  257MOL0     C34606  11.030   8.352   5.601 -0.3831  0.0726 -1.0504
  257MOL0     C34607  10.906   8.426   5.588  0.9535  0.3298  0.0358
  257MOL0     O34608  10.867   8.658   5.327 -0.9149  0.5017  0.0425
  257MOL0     C34609  10.538   8.673   5.439  0.1528  0.0845 -0.5392
  257MOL0     C34610  10.406   8.705   5.409  0.0071  0.6393 -0.3915
  257MOL0     N34611   9.976   9.361   5.123  0.8474 -0.0585 -0.0615
  257MOL0     N34612   9.974   9.491   5.141 -0.0702 -0.2170  0.0841
  257MOL0     C34613   9.852  10.555   5.885 -0.4604  0.3935  0.2323
  257MOL0     C34614   9.914  10.647   5.970 -0.7317  0.4609  0.3164
  257MOL0     C34615  10.250  10.948   6.098 -0.1684 -0.1472 -1.0542
  257MOL0     C34616  10.260  10.900   6.237  0.0099 -0.3359  0.7397
  257MOL0     C34617  10.335  10.974   6.327 -0.4272  0.7419  0.4199
  257MOL0     C34618  10.406  11.088   6.292  0.3068  0.8431  0.2193
  257MOL0     O34619  10.492  11.143   6.383 -0.2255  0.1712 -0.7773
  257MOL0     C34620  10.423  11.207   6.485 -0.3071 -0.4587 -0.3606
  257MOL0     C34621  10.390  11.348   6.447 -0.7352 -0.3929  0.2383
  257MOL0     C34622  10.509  11.433   6.421  0.0172 -0.0189 -0.0715
  257MOL0     C34623  10.632  11.383   6.337  0.1998  0.3295  0.2172
  257MOL0     C34624  10.730  11.496   6.332  0.6230  0.0966 -0.7984
  257MOL0     C34625  10.826  11.565   6.342 -0.4921  0.6073 -0.0954
  257MOL0     C34626  10.397  11.130   6.158  0.1161 -1.0786 -0.1384
  257MOL0     C34627  10.309  11.066   6.061 -0.7203 -0.0634 -0.3745
  257MOL0     H34628  10.210  10.679   5.802 -0.1515  1.9340 -0.7308
  257MOL0     H34629  10.090  10.514   5.653 -0.0551 -0.4211 -0.1107
  257MOL0     H34630   9.940  10.377   5.548  0.1059  0.8980  1.1275
  257MOL0     H34631   9.976  10.272   5.682 -1.1456 -4.0830  0.0720
  257MOL0     H34632   9.717  10.189   5.649 -3.3711  0.1682 -3.3502
  257MOL0     H34633   9.732  10.261   5.499  2.3803  0.0786 -1.2963
  257MOL0     H34634   9.916  10.038   5.600  1.5912  0.3012 -1.9453
  257MOL0     H34635   9.800  10.026   5.478 -1.6773  1.6286 -0.4365
  257MOL0     H34636   9.945  10.156   5.325 -0.8792  1.5490  2.4085
  257MOL0     H34637  10.071  10.148   5.455  1.6276 -0.7515 -0.3603
  257MOL0     H34638   9.917   9.943   5.308 -0.8925  2.2772 -0.4320
  257MOL0     H34639  10.083   9.992   5.276  1.1632  1.6002  0.2880
  257MOL0     H34640  10.158   9.868   5.491  0.0448 -1.8823  0.0613
  257MOL0     H34641  10.004   9.840   5.546 -1.6540  2.2256 -0.9953
  257MOL0     H34642  10.150   9.725   5.299 -0.1346 -0.0641  0.7348
  257MOL0     H34643  10.128   9.644   5.456  3.7764  2.1076  0.6273
  257MOL0     H34644   9.900   9.722   5.269  0.3718  0.0150  0.3895
  257MOL0     H34645   9.871   9.635   5.416  0.0287  1.1399  0.3658
  257MOL0     H34646   9.991   9.382   5.453  3.6885 -0.1811  0.4374
  257MOL0     H34647   9.890   9.152   5.357 -1.2222 -2.5279 -0.4053
  257MOL0     H34648   9.931   9.105   5.200 -0.5974  2.6297 -1.6301
  257MOL0     H34649  10.137   9.103   5.435  0.8000  3.7586 -1.6378
  257MOL0     H34650  10.162   9.091   5.260  0.9318  0.6141  0.2948
  257MOL0     H34651  10.025   8.912   5.236 -1.7687  0.1365  0.4275
  257MOL0     H34652   9.953   8.915   5.393 -0.1000 -0.8022 -3.1693
  257MOL0     H34653  10.116   8.749   5.396 -1.1877  0.4105 -0.6107
  257MOL0     H34654  10.215   8.888   5.472 -1.1323 -0.0536 -0.1987
  257MOL0     H34655  10.479   8.946   5.183 -0.3454  0.2476 -1.5405
  257MOL0     H34656  10.705   8.972   5.149 -0.6458  0.4721  0.8987
  257MOL0     H34657  10.811   8.954   5.287  1.3561  0.3881 -3.1384
  257MOL0     H34658  10.814   8.830   5.162  1.4601  0.3886 -1.3805
  257MOL0     H34659  11.025   8.741   5.578  0.3938  0.4477 -3.7805
  257MOL0     H34660  11.226   8.644   5.642 -1.3445  2.8962 -0.8751
  257MOL0     H34661  11.230   8.184   5.721  1.4760 -2.1637 -0.8010
  257MOL0     H34662  11.259   8.201   5.548  2.0641  1.7758 -1.5101
  257MOL0     H34663  11.493   8.236   5.569 -2.5107 -0.6509 -3.3562
  257MOL0     H34664  11.471   8.251   5.745 -2.6249 -0.4956  0.9806
  257MOL0     H34665  11.566   8.014   5.647  0.4368  1.6682 -2.0785
  257MOL0     H34666  11.413   7.986   5.582 -1.1875 -0.2465  1.0926
  257MOL0     H34667  11.413   8.045   5.878 -0.1507 -0.4242  1.4029
  257MOL0     H34668  11.298   7.943   5.781  1.0669  1.4843 -2.7435
  257MOL0     H34669  11.568   7.890   5.883 -0.0552  1.7601 -1.4729
  257MOL0     H34670  11.518   7.803   5.732 -1.3973  0.3039 -0.9236
  257MOL0     H34671  11.395   7.780   6.017  0.1266 -3.5021  1.2631
  257MOL0     H34672  11.312   7.705   5.880 -1.5065  0.5271  1.2326
  257MOL0     H34673  11.619   7.680   5.930 -0.9459  1.7094  0.1057
  257MOL0     H34674  11.518   7.588   5.818  0.7679 -0.7071  0.1395
  257MOL0     H34675  11.554   7.440   5.991  1.6807  0.9667  0.6355
  257MOL0     H34676  11.399   7.484   6.028  1.4810 -1.2730 -0.3587
  257MOL0     H34677  11.031   8.244   5.614  1.1160  0.0717 -0.9500
  257MOL0     H34678  10.816   8.367   5.575 -0.0569  1.8408 -0.0112
  257MOL0     H34679  10.547   8.585   5.502  1.0618 -0.8341 -1.8731
  257MOL0     H34680  10.325   8.641   5.443  0.7830 -0.3034 -0.2872
  257MOL0     H34681   9.757  10.514   5.919  0.8645 -2.3929  0.8108
  257MOL0     H34682   9.854  10.688   6.050 -0.2767  2.8085 -0.4403
  257MOL0     H34683  10.220  10.806   6.273 -0.9886 -0.0208  0.4772
  257MOL0     H34684  10.354  10.933   6.426 -1.8604  1.2714  0.9334
  257MOL0     H34685  10.340  11.147   6.523 -0.4912  0.7463  1.2311
  257MOL0     H34686  10.492  11.204   6.570  0.3710 -1.3456 -0.9249
  257MOL0     H34687  10.337  11.396   6.530  0.6821  2.1439 -0.2175
  257MOL0     H34688  10.332  11.346   6.354  0.3633 -0.5688 -0.4570
  257MOL0     H34689  10.549  11.468   6.517  3.1534  0.4012 -1.4190
  257MOL0     H34690  10.465  11.523   6.376 -1.0568  2.3678  5.0180
  257MOL0     H34691  10.597  11.358   6.237 -2.3719  0.0749  1.1113
  257MOL0     H34692  10.679  11.297   6.385 -0.2097  0.5822  1.0908
  257MOL0     H34693  10.909  11.633   6.344  0.6778 -0.7563  3.1068
  257MOL0     H34694  10.453  11.221   6.146 -0.0352 -0.8092  1.0598
  257MOL0     H34695  10.291  11.117   5.967  1.7262 -2.8915 -2.5420
  258MOL0     O34696   6.969   6.967  10.632  0.3527 -0.0590  0.6581
  258MOL0     C34697   7.028   6.921  10.729  0.3431 -0.5121  0.4482
  258MOL0     O34698   6.989   6.822  10.813 -0.5802 -0.2738 -0.4454
  258MOL0     C34699   6.871   6.753  10.796 -0.2643 -0.9147  0.0005
  258MOL0     C34700   6.831   6.711  10.668  0.9149  0.7491 -0.3272
  258MOL0     C34701   6.723   6.622  10.639  0.4901 -0.1464  0.3262
  258MOL0     C34702   6.651   6.564  10.752 -0.2297 -0.3802 -0.8208
  258MOL0     O34703   6.569   6.462  10.716  0.8117  0.8693  0.1073
  258MOL0     C34704   6.566   6.348  10.789  0.4840  0.1622  0.7057
  258MOL0     C34705   6.581   6.226  10.697 -1.1566 -0.7067  0.2827
  258MOL0     C34706   6.611   6.103  10.785 -0.4631 -0.2188 -0.3584
  258MOL0     C34707   6.545   5.980  10.737  0.2308 -0.3129  0.8681
  258MOL0     C34708   6.563   5.858  10.821 -0.3025 -0.4298  0.1233
  258MOL0     C34709   6.484   5.737  10.764 -0.3429  0.3438 -0.5751
  258MOL0     C34710   6.553   5.602  10.821  0.1206 -0.4932 -0.0595
  258MOL0     C34711   6.488   5.478  10.741 -0.3821 -0.3237 -0.1833
  258MOL0     N34712   6.360   5.438  10.793 -0.3665  0.1502 -0.1213
  258MOL0     C34713   6.246   5.504  10.804 -0.2561 -0.0253  0.1001
  258MOL0     C34714   6.164   5.418  10.879 -0.2163 -0.6507 -0.8665
  258MOL0     C34715   6.023   5.445  10.923  1.1081  1.2924  0.9104
  258MOL0     C34716   5.951   5.312  10.962  0.5524  0.7869 -0.0324
  258MOL0     C34717   5.897   5.242  10.832  0.0647 -0.7449 -0.0486
  258MOL0     C34718   5.767   5.299  10.791  0.1717  0.3879  0.9430
  258MOL0     O34719   5.711   5.249  10.666 -0.1383 -0.3821 -1.1351
  258MOL0     C34720   5.638   5.350  10.605 -0.0838  0.1622  0.9934
  258MOL0     C34721   5.702   5.440  10.517 -0.2353 -0.2131 -1.3329
  258MOL0     C34722   5.648   5.558  10.472  0.1243  0.0569 -1.1011
  258MOL0     C34723   5.728   5.634  10.386 -0.5482 -0.2840  0.8220
  258MOL0     C34724   5.509   5.577  10.499  0.0083  0.4386  0.1443
  258MOL0     C34725   5.429   5.696  10.457  0.1470  0.7204  0.7781
  258MOL0     O34726   5.467   5.829  10.478  0.1249 -0.4004 -0.2088
  258MOL0     C34727   5.386   5.911  10.407 -0.3833 -1.1602 -0.2253
  258MOL0     C34728   5.401   5.925  10.267 -0.4936 -1.0164 -0.5182
  258MOL0     C34729   5.313   6.017  10.202  0.7151  0.4382  0.7510
  258MOL0     C34730   5.211   6.091  10.256 -0.1653  0.1495 -0.5435
  258MOL0     O34731   5.141   6.179  10.178 -0.2179  0.4578  0.5250
  258MOL0     C34732   5.044   6.261  10.249 -0.0811  0.0928 -0.0590
  258MOL0     C34733   5.021   6.389  10.164  0.1277 -0.6587  0.0913
  258MOL0     C34734   5.143   6.488  10.177 -1.0036 -0.3730  0.2404
  258MOL0     C34735   5.132   6.617  10.102  0.4957  1.0872 -0.9446
  258MOL0     C34736   5.258   6.709  10.102 -0.2709 -0.6268  0.2726
  258MOL0     C34737   5.240   6.845  10.035  0.2023 -0.8581 -1.2406
  258MOL0     C34738   5.215   6.838   9.882 -0.2916 -0.4004 -0.4034
  258MOL0     C34739   5.066   6.823   9.838 -0.4318 -0.3365 -0.4719
  258MOL0    Cl34740   5.067   6.887   9.675 -0.5637  0.1356  0.3467
  258MOL0     C34741   5.195   6.067  10.395 -0.9463 -0.4486  0.1325
  258MOL0     C34742   5.287   5.987  10.466  0.1994 -0.5609  0.7921
  258MOL0     O34743   5.327   5.658  10.395  0.3949  0.4433 -1.1149
  258MOL0     C34744   5.450   5.487  10.594 -0.0262 -0.1691  0.3369
  258MOL0     C34745   5.511   5.374  10.647 -0.1534  0.3200  0.0833
  258MOL0     N34746   6.242   5.297  10.902 -0.7549  0.0512  1.2653
  258MOL0     N34747   6.357   5.315  10.849 -0.6848 -0.0909  0.1130
  258MOL0     C34748   6.677   6.619  10.884  0.0174  1.4015 -0.4735
  258MOL0     C34749   6.786   6.709  10.897 -0.7343  0.0723 -0.0879
  258MOL0     C34750   7.162   6.960  10.749  0.7721  1.0353 -0.4362
  258MOL0     C34751   7.237   7.022  10.648 -0.3704  0.0754  0.1591
  258MOL0     C34752   7.369   7.035  10.672 -0.1860 -0.7911 -0.2625
  258MOL0     C34753   7.436   7.006  10.785  0.1735 -0.6432 -0.1598
  258MOL0     O34754   7.570   7.046  10.803 -0.6071  0.2632  0.7198
  258MOL0     C34755   7.662   6.947  10.744  0.1529  0.1704  0.5099
  258MOL0     C34756   7.790   6.995  10.692  0.6932  0.2860  0.0479
  258MOL0     C34757   7.871   7.084  10.795  0.5096  0.7973  0.0961
  258MOL0     C34758   7.911   7.030  10.931 -0.1224  0.3153 -1.0398
  258MOL0     C34759   8.007   6.922  10.920 -0.4320 -0.1429  0.7412
  258MOL0     C34760   8.087   6.835  10.921  0.1511 -0.4038 -0.4510
  258MOL0     C34761   7.354   6.964  10.896 -1.1222 -1.7346  0.6768
  258MOL0     C34762   7.220   6.929  10.881  0.2207  0.2206  0.9971
  258MOL0     H34763   6.886   6.748  10.582  1.7214  0.9536  0.2634
  258MOL0     H34764   6.697   6.594  10.537 -1.5179 -2.7897  1.4370
  258MOL0     H34765   6.657   6.347  10.850  2.9007  1.2050 -2.6039
  258MOL0     H34766   6.473   6.357  10.845 -2.1321 -0.7763 -3.0658
  258MOL0     H34767   6.490   6.210  10.640 -0.5476 -4.0014  0.0081
  258MOL0     H34768   6.663   6.239  10.625 -1.9237  0.5291 -0.3875
  258MOL0     H34769   6.718   6.086  10.798 -0.3816 -0.4052 -1.2567
  258MOL0     H34770   6.576   6.120  10.888  0.8078 -0.6349  0.1612
  258MOL0     H34771   6.438   6.003  10.744  0.2513  0.2559 -0.3651
  258MOL0     H34772   6.574   5.972  10.632 -1.7473 -1.5282  0.3476
  258MOL0     H34773   6.667   5.826  10.829 -0.0798  0.3700  0.5042
  258MOL0     H34774   6.529   5.881  10.923 -0.8236 -0.5513 -0.0167
  258MOL0     H34775   6.383   5.737  10.807  0.3179 -4.8558  1.7647
  258MOL0     H34776   6.490   5.750  10.656  0.4430  1.4582 -0.4068
  258MOL0     H34777   6.662   5.607  10.811  0.2903 -1.4073  1.0705
  258MOL0     H34778   6.533   5.606  10.929 -3.7542 -1.6440 -0.5828
  258MOL0     H34779   6.554   5.392  10.751 -0.9621 -0.7524 -0.0208
  258MOL0     H34780   6.481   5.482  10.632  1.8663  0.3283 -0.3575
  258MOL0     H34781   6.216   5.588  10.742  1.1950 -2.7098 -4.6918
  258MOL0     H34782   6.017   5.501  11.017 -0.1713  0.6878  1.2096
  258MOL0     H34783   5.969   5.502  10.847  1.3680  0.3316 -0.0246
  258MOL0     H34784   5.876   5.350  11.032  2.8491  1.1840  2.3749
  258MOL0     H34785   6.017   5.244  11.015 -0.2330  0.2264  0.2382
  258MOL0     H34786   5.892   5.134  10.848  2.8713 -1.3353 -2.3399
  258MOL0     H34787   5.965   5.242  10.746 -0.9795 -1.2094 -0.8921
  258MOL0     H34788   5.791   5.406  10.795  0.5877  0.3001  0.8543
  258MOL0     H34789   5.695   5.284  10.872 -1.9895  1.9948 -0.5515
  258MOL0     H34790   5.806   5.420  10.493 -0.1621  0.4370 -1.5717
  258MOL0     H34791   5.680   5.663  10.292 -3.6363 -3.1240  1.3298
  258MOL0     H34792   5.761   5.721  10.444 -0.4822  0.5320 -0.4091
  258MOL0     H34793   5.808   5.569  10.350 -0.4463  0.1668  0.2309
  258MOL0     H34794   5.476   5.869  10.211  2.4426  0.5217  1.5587
  258MOL0     H34795   5.334   6.032  10.097 -0.0445  1.6426  0.7466
  258MOL0     H34796   4.949   6.209  10.266  0.4739 -0.3162  2.1160
  258MOL0     H34797   5.088   6.284  10.347  1.9368  0.5499 -1.0154
  258MOL0     H34798   5.003   6.361  10.059 -1.1774  0.8941 -0.1362
  258MOL0     H34799   4.935   6.445  10.202  0.0585  1.8168 -3.2200
  258MOL0     H34800   5.232   6.444  10.131 -0.8367  2.3345 -2.3260
  258MOL0     H34801   5.157   6.515  10.282  1.3671  1.8792 -0.5305
  258MOL0     H34802   5.103   6.590  10.000  0.7953  1.6026 -1.1705
  258MOL0     H34803   5.049   6.668  10.152 -0.6715 -2.6034  1.2958
  258MOL0     H34804   5.330   6.653  10.042 -0.5441  0.9892 -1.6256
  258MOL0     H34805   5.293   6.719  10.206 -0.5650 -0.3498  0.3445
  258MOL0     H34806   5.158   6.902  10.081  0.9793 -0.7251  0.0305
  258MOL0     H34807   5.336   6.887  10.065 -1.0401 -0.0659  1.9724
  258MOL0     H34808   5.292   6.778   9.832  0.7447  0.8261 -0.3380
  258MOL0     H34809   5.217   6.945   9.860 -0.3788 -0.0720  1.0955
  258MOL0     H34810   4.983   6.866   9.895 -1.3924 -0.8720 -1.4395
  258MOL0     H34811   5.032   6.720   9.823 -0.7112 -0.3944  0.5222
  258MOL0     H34812   5.118   6.121  10.448 -0.6535 -0.3964  0.5094
  258MOL0     H34813   5.265   5.960  10.569 -2.2557  1.4570  0.8991
  258MOL0     H34814   5.349   5.512  10.623  0.7956  2.7951  1.0131
  258MOL0     H34815   5.462   5.311  10.721  0.3536 -0.9966 -0.6926
  258MOL0     H34816   6.622   6.589  10.973 -1.8922  2.5583 -1.2041
  258MOL0     H34817   6.822   6.740  10.995  1.8865  2.0345 -1.5547
  258MOL0     H34818   7.195   7.038  10.550  1.5959 -1.6527 -1.0580
  258MOL0     H34819   7.412   7.090  10.589 -2.4112 -1.0960 -1.7148
  258MOL0     H34820   7.675   6.870  10.820  1.8962 -0.9027 -0.8091
  258MOL0     H34821   7.616   6.901  10.656 -0.7492 -0.9584  1.5353
  258MOL0     H34822   7.786   7.051  10.598 -1.1935 -0.2719 -0.2505
  258MOL0     H34823   7.858   6.911  10.678  2.8964  1.4299  2.6960
  258MOL0     H34824   7.819   7.179  10.811  0.6997  0.6042  2.0754
  258MOL0     H34825   7.965   7.100  10.740 -0.7553  1.0770 -2.0858
  258MOL0     H34826   7.812   7.007  10.972 -0.8736  3.7619 -0.5939
  258MOL0     H34827   7.962   7.108  10.988 -4.8517  1.4753  2.1728
  258MOL0     H34828   8.160   6.756  10.926  0.1450 -0.4202 -0.6205
  258MOL0     H34829   7.406   6.977  10.991 -0.1995 -0.6887  0.0484
  258MOL0     H34830   7.164   6.894  10.967  1.0318 -1.1485  1.0020
  259MOL0     O34831   0.135   3.720   6.640  0.8968  0.3986 -0.8624
  259MOL0     C34832   0.200   3.788   6.716  0.4520 -0.8762 -0.4853
  259MOL0     O34833   0.258   3.745   6.823 -1.0772 -0.8327  0.3046
  259MOL0     C34834   0.232   3.622   6.886  0.9025  0.3156  0.7851
  259MOL0     C34835   0.330   3.577   6.974  0.2853 -0.1834  0.3341
  259MOL0     C34836   0.331   3.449   7.031  0.6032 -0.9814  0.4063
  259MOL0     C34837   0.219   3.369   7.007  0.9750  0.4671 -0.0714
  259MOL0     O34838   0.210   3.248   7.065 -0.8663 -1.0349  0.6158
  259MOL0     C34839   0.320   3.159   7.025  0.5716  0.1032 -0.8197
  259MOL0     C34840   0.301   3.085   6.891  0.3935  0.1910 -0.2095
  259MOL0     C34841   0.203   2.968   6.894  0.4823  0.7300 -0.6764
  259MOL0     C34842   0.056   2.993   6.935 -0.6330 -0.1895 -0.2495
  259MOL0     C34843  -0.013   2.862   6.985 -0.0434 -0.2307 -0.8949
  259MOL0     C34844  -0.164   2.888   6.959 -0.2336 -0.4179  0.5162
  259MOL0     C34845  -0.256   2.766   6.998 -0.5805 -0.2960 -0.1743
  259MOL0     C34846  -0.395   2.778   6.960  0.8805 -0.1210 -0.8068
  259MOL0     N34847  -0.421   2.732   6.825 -0.6790  0.2560  0.0755
  259MOL0     C34848  -0.352   2.770   6.705  0.3630  1.1218 -0.1613
  259MOL0     C34849  -0.428   2.703   6.607 -1.0965 -0.6863 -0.4050
  259MOL0     C34850  -0.412   2.710   6.458  0.1172 -0.3380 -0.2074
  259MOL0     C34851  -0.491   2.831   6.412  0.5644 -0.9317  0.5579
  259MOL0     C34852  -0.431   2.962   6.463  0.0510  0.6537  0.5747
  259MOL0     C34853  -0.489   3.098   6.411  0.6771 -0.3125  0.3505
  259MOL0     O34854  -0.623   3.111   6.476  0.0737 -0.3808  0.3766
  259MOL0     C34855  -0.672   3.238   6.478  0.0300  0.3472 -0.2139
  259MOL0     C34856  -0.794   3.247   6.540  0.0070  0.6412  0.3724
  259MOL0     C34857  -0.855   3.366   6.578  0.3343  0.4892 -0.0242
  259MOL0     C34858  -0.954   3.345   6.689 -0.3177  0.5249 -0.4696
  259MOL0     C34859  -0.787   3.484   6.536 -0.1945 -0.2829 -0.0050
  259MOL0     C34860  -0.818   3.623   6.589  0.0379  0.0648 -0.3272
  259MOL0     O34861  -0.953   3.648   6.586 -0.1855  0.1055 -0.5896
  259MOL0     C34862  -1.013   3.772   6.607  0.3121  0.6781  0.4575
  259MOL0     C34863  -1.139   3.789   6.548  0.5424  0.7160  0.4613
  259MOL0     C34864  -1.217   3.906   6.567 -0.3433  0.0155  0.5026
  259MOL0     C34865  -1.153   4.017   6.624  0.7048  0.3952 -0.1212
  259MOL0     O34866  -1.228   4.129   6.637 -0.4692  0.1712 -0.3029
  259MOL0     C34867  -1.164   4.262   6.630  0.2598 -0.3789  1.1770
  259MOL0     C34868  -1.257   4.353   6.716  0.3895 -0.2443 -0.2960
  259MOL0     C34869  -1.380   4.398   6.651  0.1580 -0.5685  0.3437
  259MOL0     C34870  -1.435   4.534   6.701 -0.3280 -0.4995 -0.1535
  259MOL0     C34871  -1.586   4.563   6.692 -0.9051  0.4418 -0.4697
  259MOL0     C34872  -1.622   4.711   6.673 -0.3455 -1.1532 -0.3202
  259MOL0     C34873  -1.564   4.801   6.779  0.1543 -0.6519  0.0878
  259MOL0     C34874  -1.652   4.924   6.802 -0.2444  0.9278 -0.6242
  259MOL0    Cl34875  -1.578   5.056   6.724  0.6475  0.1216  0.2439
  259MOL0     C34876  -1.024   4.003   6.678  0.0529 -0.2409  0.3301
  259MOL0     C34877  -0.954   3.884   6.658  1.1996 -1.0594 -0.2445
  259MOL0     O34878  -0.730   3.692   6.638 -0.0585 -0.0983  0.7071
  259MOL0     C34879  -0.673   3.474   6.457  0.3108  0.8227 -0.3384
  259MOL0     C34880  -0.617   3.355   6.430 -0.4639 -0.6201  0.4277
  259MOL0     N34881  -0.530   2.641   6.672  0.2746 -0.1376  0.1981
  259MOL0     N34882  -0.527   2.659   6.801 -0.0242 -0.5110  0.0473
  259MOL0     C34883   0.110   3.415   6.935  0.2136  0.1077  0.8626
  259MOL0     C34884   0.121   3.542   6.863  0.0642 -0.1831 -0.4820
  259MOL0     C34885   0.243   3.928   6.673  0.5612  0.0888  0.8662
  259MOL0     C34886   0.338   4.009   6.746  0.5024  0.8501 -0.1527
  259MOL0     C34887   0.367   4.138   6.702  0.4239  0.5113 -0.0328
  259MOL0     C34888   0.304   4.183   6.586  0.8925 -0.7108  0.1065
  259MOL0     O34889   0.314   4.314   6.546  0.4740 -0.3321  0.2647
  259MOL0     C34890   0.401   4.402   6.614 -0.2767  0.1047 -0.2571
  259MOL0     C34891   0.427   4.522   6.532  0.3360  0.3325 -0.3709
  259MOL0     C34892   0.302   4.597   6.481 -0.6993  0.3057 -0.3835
  259MOL0     C34893   0.330   4.714   6.376  0.8461  0.3015 -0.2268
  259MOL0     C34894   0.393   4.826   6.449 -0.9177  0.1139 -1.6125
  259MOL0     C34895   0.433   4.921   6.513 -0.1699 -0.0438 -0.0219
  259MOL0     C34896   0.217   4.102   6.516  0.4430 -0.2728 -0.4621
  259MOL0     C34897   0.196   3.973   6.547 -0.3986  1.1661 -0.3078
  259MOL0     H34898   0.409   3.648   6.996 -1.6362  2.2616 -0.1094
  259MOL0     H34899   0.416   3.416   7.090  3.7182  1.1611 -2.4816
  259MOL0     H34900   0.418   3.205   7.037  1.2199 -1.7814  2.3992
  259MOL0     H34901   0.340   3.090   7.108 -0.8704  1.6530  0.9016
  259MOL0     H34902   0.266   3.162   6.822  0.3321 -0.0232 -0.4189
  259MOL0     H34903   0.396   3.048   6.852  0.1794 -0.5685 -0.0348
  259MOL0     H34904   0.203   2.923   6.795  3.2565  1.2118 -0.9959
  259MOL0     H34905   0.244   2.905   6.974 -1.9259  0.0459  0.1009
  259MOL0     H34906   0.045   3.069   7.013 -0.0514  0.3306 -0.6585
  259MOL0     H34907   0.008   3.040   6.848  0.6944 -2.3805 -2.2705
  259MOL0     H34908   0.029   2.769   6.946  0.9347  1.1840 -3.4534
  259MOL0     H34909   0.005   2.853   7.093  0.7859  1.6579 -0.8380
  259MOL0     H34910  -0.184   2.980   7.015  2.3151 -0.0625  0.9465
  259MOL0     H34911  -0.175   2.909   6.852 -0.7264  1.7545  0.9454
  259MOL0     H34912  -0.201   2.681   6.957 -0.1463 -0.5297  0.8665
  259MOL0     H34913  -0.256   2.751   7.106 -1.6988 -1.6051 -0.3166
  259MOL0     H34914  -0.416   2.885   6.956  0.7868  0.0772  2.6901
  259MOL0     H34915  -0.463   2.735   7.034 -0.0526  2.4097 -0.0987
  259MOL0     H34916  -0.262   2.830   6.695  2.4405 -1.7555  0.1331
  259MOL0     H34917  -0.308   2.730   6.431  0.5504  4.8158  3.6912
  259MOL0     H34918  -0.457   2.620   6.415 -0.4383 -0.6673  1.0229
  259MOL0     H34919  -0.592   2.831   6.455  0.7404 -2.1724  1.0301
  259MOL0     H34920  -0.499   2.833   6.303 -1.3269  2.0360  0.6420
  259MOL0     H34921  -0.324   2.956   6.437 -0.2010  1.6015 -0.7737
  259MOL0     H34922  -0.436   2.973   6.572 -0.4584  0.1035  0.6117
  259MOL0     H34923  -0.489   3.101   6.302  0.2623 -1.0006  0.3246
  259MOL0     H34924  -0.418   3.170   6.454 -2.7139  0.5674  5.4398
  259MOL0     H34925  -0.852   3.159   6.567 -2.0814  0.5924 -3.6007
  259MOL0     H34926  -0.916   3.325   6.789 -4.6693 -0.7255  1.1770
  259MOL0     H34927  -1.013   3.437   6.691  2.0430  2.1195  1.6613
  259MOL0     H34928  -1.032   3.270   6.669  0.4037 -0.2729 -0.3128
  259MOL0     H34929  -1.186   3.699   6.510  0.6328  0.6096  0.6054
  259MOL0     H34930  -1.321   3.905   6.534 -0.1776 -3.0253 -0.2512
  259MOL0     H34931  -1.059   4.257   6.662  1.0742  0.2926 -1.1665
  259MOL0     H34932  -1.155   4.298   6.527 -1.6743 -2.8173  0.0197
  259MOL0     H34933  -1.272   4.301   6.811 -0.0085 -0.3766 -0.4297
  259MOL0     H34934  -1.201   4.444   6.740  0.5456 -1.0962  3.2249
  259MOL0     H34935  -1.458   4.328   6.684 -0.9042  1.9060  3.7233
  259MOL0     H34936  -1.363   4.394   6.543  3.3808  1.7363  0.6315
  259MOL0     H34937  -1.422   4.522   6.809  0.8940  1.6455 -0.0081
  259MOL0     H34938  -1.373   4.623   6.686  1.6233 -1.0720  3.4289
  259MOL0     H34939  -1.636   4.525   6.781 -0.7528 -0.3233 -0.6984
  259MOL0     H34940  -1.629   4.502   6.612  0.9080 -2.9997  0.9712
  259MOL0     H34941  -1.583   4.742   6.576 -0.1689 -2.6716 -0.7582
  259MOL0     H34942  -1.730   4.727   6.660  0.0425  2.6926  0.0471
  259MOL0     H34943  -1.463   4.832   6.752  0.2976  0.2986  1.6146
  259MOL0     H34944  -1.562   4.743   6.871 -5.3469 -0.1194  0.8685
  259MOL0     H34945  -1.673   4.945   6.908 -2.0334  1.7295 -1.0954
  259MOL0     H34946  -1.752   4.903   6.763 -0.1800 -4.6244  1.3593
  259MOL0     H34947  -0.979   4.088   6.729 -0.2866  0.5310 -0.6096
  259MOL0     H34948  -0.853   3.883   6.696  1.5489 -0.6195 -1.1186
  259MOL0     H34949  -0.610   3.559   6.433  3.1064  0.9178  5.6032
  259MOL0     H34950  -0.527   3.370   6.372  0.2492 -2.2045  1.0690
  259MOL0     H34951   0.018   3.359   6.942  0.0330  0.4144  0.9491
  259MOL0     H34952   0.025   3.566   6.817 -2.2260  0.2952  3.9896
  259MOL0     H34953   0.383   3.964   6.834  1.2237  0.9864 -0.4477
  259MOL0     H34954   0.434   4.202   6.758 -0.6901  2.1905 -0.5376
  259MOL0     H34955   0.360   4.438   6.709  0.5043  1.6760 -0.4809
  259MOL0     H34956   0.499   4.360   6.636 -1.6249 -3.7210 -0.8897
  259MOL0     H34957   0.479   4.489   6.441  0.5416 -3.6603  1.0135
  259MOL0     H34958   0.498   4.584   6.586  1.6182 -1.3925  0.0211
  259MOL0     H34959   0.232   4.627   6.560 -1.2376 -1.5974 -0.0711
  259MOL0     H34960   0.242   4.522   6.429 -1.5284 -0.5468  1.6569
  259MOL0     H34961   0.241   4.743   6.320 -0.6247  1.3939  2.4661
  259MOL0     H34962   0.406   4.683   6.303  1.3189  1.3954 -0.2341
  259MOL0     H34963   0.486   4.991   6.576  1.6326 -0.9514 -0.4798
  259MOL0     H34964   0.155   4.147   6.438 -0.5616 -0.5248  0.1805
  259MOL0     H34965   0.132   3.913   6.483 -2.2447 -0.4846  2.8505
  260MOL0     O34966   0.134   5.338   7.235  0.5428 -1.5485 -0.5898
  260MOL0     C34967   0.127   5.453   7.195 -0.2754  0.0021  0.6247
  260MOL0     O34968   0.017   5.526   7.193 -0.4707 -0.2519  0.1285
  260MOL0     C34969  -0.081   5.499   7.288 -0.3349 -0.8292 -0.3826
  260MOL0     C34970  -0.216   5.534   7.256 -0.4945  0.0230 -0.0944
  260MOL0     C34971  -0.316   5.542   7.348  0.1473 -0.4564 -0.4691
  260MOL0     C34972  -0.302   5.499   7.479 -0.1713  0.5457 -0.3233
  260MOL0     O34973  -0.409   5.501   7.563  0.1096 -0.2580 -0.4802
  260MOL0     C34974  -0.452   5.377   7.606 -0.9766 -0.1990  0.2040
  260MOL0     C34975  -0.528   5.403   7.740  0.1017  0.5277 -0.1213
  260MOL0     C34976  -0.571   5.278   7.820 -0.4437 -0.1621 -0.8820
  260MOL0     C34977  -0.635   5.177   7.725  0.6373  1.6613 -0.2590
  260MOL0     C34978  -0.673   5.045   7.798 -0.7100  0.7931 -0.3677
  260MOL0     C34979  -0.728   4.924   7.718  0.4761  0.8993  0.0395
  260MOL0     C34980  -0.804   4.818   7.807  0.2957 -0.2506  0.6137
  260MOL0     C34981  -0.908   4.886   7.905 -0.3113  0.7326 -0.8870
  260MOL0     N34982  -0.983   4.778   7.964 -0.1008 -0.2733  0.1590
  260MOL0     C34983  -1.108   4.743   7.913  1.0014 -0.2651 -0.6175
  260MOL0     C34984  -1.133   4.637   7.996 -0.1115 -0.8440  0.3862
  260MOL0     C34985  -1.244   4.547   7.980 -0.8626  0.1075  0.0117
  260MOL0     C34986  -1.370   4.554   8.058 -0.6352 -0.0229 -0.5935
  260MOL0     C34987  -1.453   4.427   8.072  0.5110  0.4637 -0.2897
  260MOL0     C34988  -1.595   4.467   8.112  0.1706 -0.2410 -0.1021
  260MOL0     O34989  -1.654   4.353   8.171 -0.2801  1.2218 -0.1410
  260MOL0     C34990  -1.690   4.238   8.102  0.5950  0.4278 -0.5768
  260MOL0     C34991  -1.708   4.236   7.960  0.1480 -0.2151 -0.6636
  260MOL0     C34992  -1.741   4.131   7.883  0.7610  0.6833 -0.0523
  260MOL0     C34993  -1.733   4.142   7.737 -0.5317  0.5727  0.0860
  260MOL0     C34994  -1.778   4.010   7.958 -0.3659  0.8178  0.2838
  260MOL0     C34995  -1.790   3.879   7.891  0.0687  0.2207 -0.1508
  260MOL0     O34996  -1.857   3.874   7.776 -0.3346  0.2267  0.3458
  260MOL0     C34997  -1.932   3.765   7.748 -0.0134  0.2372 -0.1854
  260MOL0     C34998  -1.934   3.637   7.808  0.3104 -0.9919 -0.3373
  260MOL0     C34999  -2.022   3.542   7.758  0.7119 -0.0882 -1.5349
  260MOL0     C35000  -2.106   3.556   7.651 -1.0506 -0.2500  1.1691
  260MOL0     O35001  -2.194   3.450   7.624 -1.2489  0.2337  0.8900
  260MOL0     C35002  -2.246   3.438   7.495  0.1758 -0.2975 -0.0197
  260MOL0     C35003  -2.316   3.303   7.484 -1.0641  0.5844  0.5424
  260MOL0     C35004  -2.437   3.300   7.396 -0.5765  0.1132  0.8794
  260MOL0     C35005  -2.527   3.170   7.406 -1.3015  0.5736 -0.4133
  260MOL0     C35006  -2.646   3.160   7.309 -0.8353  0.3688  0.5074
  260MOL0     C35007  -2.769   3.246   7.344  0.2091  1.1768  0.0488
  260MOL0     C35008  -2.860   3.187   7.456 -0.2175  0.3785 -0.6843
  260MOL0     C35009  -2.981   3.274   7.496 -0.4860 -0.3444 -0.0390
  260MOL0    Cl35010  -3.119   3.273   7.385 -0.1474  0.5444 -0.6775
  260MOL0     C35011  -2.092   3.679   7.588  0.5824 -0.6782  1.0790
  260MOL0     C35012  -2.020   3.776   7.644  0.2987 -0.5913  0.3294
  260MOL0     O35013  -1.738   3.783   7.947  0.1787  0.3363 -0.5302
  260MOL0     C35014  -1.784   4.010   8.097  0.2473 -0.2473  0.1506
  260MOL0     C35015  -1.736   4.128   8.164 -0.8810  0.0211  0.5015
  260MOL0     N35016  -1.037   4.628   8.093  1.1504 -0.0034  1.1658
  260MOL0     N35017  -0.941   4.700   8.067  0.5863  0.0713 -0.3154
  260MOL0     C35018  -0.175   5.467   7.513  0.6561  0.8226  0.1631
  260MOL0     C35019  -0.065   5.461   7.428 -0.5391  0.1252  0.0643
  260MOL0     C35020   0.258   5.506   7.143  0.2901 -0.9798 -0.3777
  260MOL0     C35021   0.263   5.638   7.117 -0.7899 -0.1051 -0.4584
  260MOL0     C35022   0.379   5.702   7.075 -0.9398  1.0608 -0.7734
  260MOL0     C35023   0.493   5.625   7.044 -0.5404  0.0293 -0.2509
  260MOL0     O35024   0.611   5.683   7.011  0.4412 -0.2495 -0.5803
  260MOL0     C35025   0.620   5.694   6.868  0.0839  0.6205 -0.0078
  260MOL0     C35026   0.761   5.717   6.824  0.1238 -0.0798  0.8733
  260MOL0     C35027   0.841   5.847   6.866  0.4099 -0.2333 -0.3476
  260MOL0     C35028   0.878   5.820   7.009 -1.0306  0.2271  0.2090
  260MOL0     C35029   1.005   5.888   7.046 -0.4943 -0.8101 -0.0068
  260MOL0     C35030   1.096   5.969   7.072  0.2765  0.3494 -0.9403
  260MOL0     C35031   0.493   5.490   7.075 -0.4944  0.9441 -0.1565
  260MOL0     C35032   0.372   5.430   7.115 -0.2758 -0.4749 -0.3747
  260MOL0     H35033  -0.245   5.574   7.159  1.8121  0.5378 -0.6220
  260MOL0     H35034  -0.418   5.574   7.330 -0.5834 -2.5651 -0.3940
  260MOL0     H35035  -0.519   5.323   7.538 -1.4973 -0.3977  0.8605
  260MOL0     H35036  -0.366   5.314   7.632 -1.8113 -1.7061 -0.5127
  260MOL0     H35037  -0.475   5.477   7.800  2.1593  1.2789 -2.6538
  260MOL0     H35038  -0.626   5.442   7.710 -1.9108  1.0906  5.8184
  260MOL0     H35039  -0.478   5.236   7.860 -2.7800 -1.5396  3.8620
  260MOL0     H35040  -0.640   5.312   7.897 -1.9205 -0.2909 -2.1057
  260MOL0     H35041  -0.729   5.225   7.697  0.6886  0.6526 -2.3263
  260MOL0     H35042  -0.573   5.149   7.639  0.9390  0.9604  0.1781
  260MOL0     H35043  -0.594   5.012   7.866  0.2296 -3.0304 -3.0127
  260MOL0     H35044  -0.761   5.072   7.858 -1.4809 -1.2245 -0.5311
  260MOL0     H35045  -0.784   4.938   7.625  1.3541 -1.2427 -0.8675
  260MOL0     H35046  -0.644   4.866   7.680 -0.3147 -2.3581  2.8500
  260MOL0     H35047  -0.864   4.748   7.747  2.8497 -0.3162 -2.0905
  260MOL0     H35048  -0.728   4.763   7.863 -0.8752 -2.2919  0.2840
  260MOL0     H35049  -0.979   4.950   7.853 -0.9529  3.5977  3.0713
  260MOL0     H35050  -0.851   4.935   7.984 -2.4378  0.9888  0.5370
  260MOL0     H35051  -1.159   4.763   7.820  1.6955 -2.3260 -1.4818
  260MOL0     H35052  -1.258   4.538   7.872  1.0954  0.8081 -0.3569
  260MOL0     H35053  -1.194   4.451   7.998 -1.1436 -0.2974 -1.2711
  260MOL0     H35054  -1.419   4.638   8.008  2.7218  0.2731 -3.8976
  260MOL0     H35055  -1.345   4.594   8.157  0.6992  1.5489 -1.5165
  260MOL0     H35056  -1.406   4.365   8.149 -2.3825 -0.9728  0.4642
  260MOL0     H35057  -1.461   4.372   7.978 -1.5350 -0.1860  0.2099
  260MOL0     H35058  -1.646   4.498   8.020  1.7904  3.8671  0.1913
  260MOL0     H35059  -1.587   4.549   8.184  4.3939  1.9397 -2.6499
  260MOL0     H35060  -1.695   4.327   7.902 -0.3180  0.5574  0.4065
  260MOL0     H35061  -1.669   4.223   7.702 -0.6088 -0.2723 -2.1823
  260MOL0     H35062  -1.692   4.052   7.691 -1.6864 -0.1570  0.4523
  260MOL0     H35063  -1.829   4.167   7.690 -1.1016 -0.7034  0.5405
  260MOL0     H35064  -1.871   3.614   7.894  0.0702 -2.2374 -0.4791
  260MOL0     H35065  -2.024   3.459   7.827 -1.2745  1.2764  0.1888
  260MOL0     H35066  -2.309   3.526   7.482  0.8960 -0.0011 -1.8414
  260MOL0     H35067  -2.158   3.439   7.431 -0.2475  0.6066 -0.6022
  260MOL0     H35068  -2.242   3.230   7.450 -2.9726 -0.9618 -0.5245
  260MOL0     H35069  -2.356   3.274   7.582  0.5375  1.7838  1.6107
  260MOL0     H35070  -2.417   3.314   7.290  0.2352 -0.3708  0.9537
  260MOL0     H35071  -2.501   3.383   7.427 -1.1721 -1.0831  3.1321
  260MOL0     H35072  -2.458   3.087   7.388 -2.2272  0.0230 -1.5108
  260MOL0     H35073  -2.557   3.164   7.511  0.5697  1.4731  0.2182
  260MOL0     H35074  -2.678   3.056   7.316  2.3663 -0.7012  1.0460
  260MOL0     H35075  -2.614   3.169   7.204  3.7472  0.7305  1.6976
  260MOL0     H35076  -2.734   3.339   7.388  1.4704  0.7645 -0.0374
  260MOL0     H35077  -2.831   3.272   7.258 -3.1628  1.6999  2.4200
  260MOL0     H35078  -2.792   3.174   7.540  0.5594  0.0709 -1.3450
  260MOL0     H35079  -2.898   3.090   7.423  1.9236 -0.0920 -1.9637
  260MOL0     H35080  -2.950   3.378   7.507 -0.8373 -0.3446  1.0272
  260MOL0     H35081  -3.017   3.240   7.593 -1.8086  1.6215  0.2210
  260MOL0     H35082  -2.142   3.699   7.494  0.5094 -1.8205  0.8638
  260MOL0     H35083  -2.014   3.871   7.591 -0.0991 -0.7476  0.0075
  260MOL0     H35084  -1.822   3.936   8.166 -0.8471  0.8494  0.7698
  260MOL0     H35085  -1.733   4.124   8.273 -1.9900 -1.4536  0.5210
  260MOL0     H35086  -0.159   5.443   7.618  3.2162 -0.2558 -0.3882
  260MOL0     H35087   0.032   5.439   7.472 -0.2071  1.3662 -0.0101
  260MOL0     H35088   0.177   5.698   7.143  1.7895  2.0403  4.3232
  260MOL0     H35089   0.377   5.808   7.056 -2.9377  1.2764  0.3763
  260MOL0     H35090   0.572   5.616   6.808 -1.5829  2.1115 -0.6999
  260MOL0     H35091   0.573   5.790   6.847  0.4722  1.2660  1.8770
  260MOL0     H35092   0.754   5.721   6.715 -0.5051  0.9500  0.9398
  260MOL0     H35093   0.822   5.627   6.835 -1.9719 -1.5263  1.2519
  260MOL0     H35094   0.773   5.932   6.869 -2.4992 -2.3264 -1.9822
  260MOL0     H35095   0.929   5.872   6.805 -1.4168  0.4710 -2.8429
  260MOL0     H35096   0.895   5.712   7.024  1.0918  0.6223  1.1630
  260MOL0     H35097   0.806   5.863   7.079  2.0253 -0.9223  4.5036
  260MOL0     H35098   1.184   6.023   7.102  0.0987  1.2890 -2.0437
  260MOL0     H35099   0.575   5.428   7.041 -0.0687 -0.3607  2.9130
  260MOL0     H35100   0.370   5.323   7.129  1.2446 -0.4212  0.4789
  261MOL0     O35101   1.977   3.507   3.636 -0.3027 -0.0438  0.0232
  261MOL0     C35102   1.956   3.488   3.756 -0.2841 -0.3512 -0.0642
  261MOL0     O35103   1.853   3.404   3.811  0.5389  0.2066  0.1734
  261MOL0     C35104   1.839   3.290   3.734  0.4403  0.4796  0.5669
  261MOL0     C35105   1.753   3.287   3.623  0.0679  0.3961  0.1616
  261MOL0     C35106   1.752   3.176   3.537 -0.1371  0.7726 -0.0897
  261MOL0     C35107   1.840   3.061   3.554  0.1809 -0.2625 -0.0993
  261MOL0     O35108   1.846   2.952   3.467  0.0307  0.3240 -0.1353
  261MOL0     C35109   1.962   2.878   3.460 -0.5184  0.0136  0.8793
  261MOL0     C35110   1.937   2.727   3.493  0.3757  0.2613  0.6008
  261MOL0     C35111   1.920   2.679   3.638 -0.4468  0.1320  0.5626
  261MOL0     C35112   1.791   2.706   3.711 -0.0789 -0.1368  0.5628
  261MOL0     C35113   1.662   2.646   3.649 -0.3790  0.8775 -1.2562
  261MOL0     C35114   1.650   2.494   3.650  0.3029  0.7836 -0.5561
  261MOL0     C35115   1.677   2.439   3.517 -0.9718  0.4563  0.1062
  261MOL0     C35116   1.650   2.282   3.513 -0.2107  0.7492  0.9746
  261MOL0     N35117   1.514   2.275   3.471  0.3066 -0.0969  0.4899
  261MOL0     C35118   1.411   2.248   3.562 -0.6799  0.5266  0.5361
  261MOL0     C35119   1.310   2.177   3.504 -0.2533 -0.1131  1.1104
  261MOL0     C35120   1.175   2.140   3.559 -0.1522 -0.6678  0.2269
  261MOL0     C35121   1.088   2.059   3.457 -0.4072  0.3593 -1.4128
  261MOL0     C35122   0.991   1.967   3.531 -0.5011 -1.1829 -0.1683
  261MOL0     C35123   0.868   2.039   3.596  0.1107  0.1151  0.0334
  261MOL0     O35124   0.786   1.960   3.680  0.0777  0.5455  0.2712
  261MOL0     C35125   0.658   1.995   3.706  0.3154  0.0477 -0.3944
  261MOL0     C35126   0.604   2.117   3.672 -0.3468  0.0433 -0.0154
  261MOL0     C35127   0.475   2.145   3.717 -0.2706 -0.4520  1.1262
  261MOL0     C35128   0.426   2.282   3.680  0.8489 -0.4041 -0.2080
  261MOL0     C35129   0.397   2.057   3.785  0.2792  0.3563  0.4491
  261MOL0     C35130   0.250   2.083   3.820 -0.5526  0.6623  0.2084
  261MOL0     O35131   0.203   2.210   3.845 -0.5197 -0.2605  0.0719
  261MOL0     C35132   0.083   2.237   3.910 -0.6197 -0.1020 -0.1771
  261MOL0     C35133   0.010   2.153   3.997  0.2220 -0.0565 -0.0323
  261MOL0     C35134  -0.086   2.210   4.080 -0.2269 -0.2791 -0.2993
  261MOL0     C35135  -0.113   2.352   4.070  0.5966  0.2113 -1.3114
  261MOL0     O35136  -0.213   2.413   4.145 -0.0506 -0.2037  0.9869
  261MOL0     C35137  -0.317   2.334   4.196  1.0628 -0.7726 -0.6628
  261MOL0     C35138  -0.442   2.403   4.244 -0.9501 -0.2245  0.1543
  261MOL0     C35139  -0.433   2.477   4.378 -0.2496 -0.5534  0.4942
  261MOL0     C35140  -0.573   2.514   4.431  0.6874 -0.4477  0.9743
  261MOL0     C35141  -0.576   2.584   4.563 -0.3215  0.0114 -0.6378
  261MOL0     C35142  -0.724   2.610   4.590 -0.4161  1.0718 -0.5780
  261MOL0     C35143  -0.739   2.663   4.734 -0.8694 -0.3997  0.7319
  261MOL0     C35144  -0.757   2.565   4.843  0.7417 -1.0039  0.1774
  261MOL0    Cl35145  -0.919   2.484   4.853  0.1143 -0.5086 -0.0564
  261MOL0     C35146  -0.040   2.434   3.992 -0.9838  0.1354  0.4376
  261MOL0     C35147   0.055   2.378   3.903 -0.7875  0.0345 -0.3664
  261MOL0     O35148   0.193   1.977   3.857 -0.7320  0.8242  0.2498
  261MOL0     C35149   0.452   1.933   3.813 -0.4401  0.8909 -0.3228
  261MOL0     C35150   0.579   1.898   3.769  0.3073 -0.8489 -1.6561
  261MOL0     N35151   1.356   2.161   3.369  0.0133  0.2619  0.6113
  261MOL0     N35152   1.473   2.227   3.352  0.0244 -0.2700  1.0103
  261MOL0     C35153   1.922   3.059   3.674 -0.4615  0.0488 -0.5085
  261MOL0     C35154   1.917   3.171   3.760  1.0783 -0.5481 -1.4682
  261MOL0     C35155   2.040   3.573   3.850 -0.8510 -0.1401  0.0965
  261MOL0     C35156   2.027   3.564   3.997 -0.5591 -0.8163 -0.0350
  261MOL0     C35157   2.099   3.650   4.079 -0.2965 -0.3496  0.3940
  261MOL0     C35158   2.181   3.749   4.018 -0.0867  0.7879  0.6637
  261MOL0     O35159   2.247   3.844   4.084  0.2025 -0.2558  0.6022
  261MOL0     C35160   2.380   3.808   4.134 -0.3748 -1.1729 -0.0171
  261MOL0     C35161   2.484   3.887   4.056 -0.6151 -0.0579  0.8126
  261MOL0     C35162   2.450   4.038   4.057 -0.0905  0.2880 -0.4679
  261MOL0     C35163   2.546   4.121   3.967  0.5105  0.0018 -0.0217
  261MOL0     C35164   2.537   4.082   3.826  0.0668 -0.5655 -0.3171
  261MOL0     C35165   2.517   4.066   3.705  0.7995 -0.7356 -0.2055
  261MOL0     C35166   2.202   3.741   3.879 -0.5238 -0.3419  0.3044
  261MOL0     C35167   2.135   3.660   3.793  0.0585 -0.2165 -0.4557
  261MOL0     H35168   1.694   3.371   3.590  1.0387  0.9122 -0.3037
  261MOL0     H35169   1.679   3.172   3.457 -1.3622  0.0755  1.0239
  261MOL0     H35170   1.990   2.878   3.354  0.2160  2.5437  1.0052
  261MOL0     H35171   2.051   2.913   3.512 -1.4846  1.7992  1.4109
  261MOL0     H35172   1.846   2.703   3.436  0.0027  0.3038  1.1668
  261MOL0     H35173   2.015   2.666   3.449  0.9063  1.4427 -0.1449
  261MOL0     H35174   1.929   2.570   3.635  1.9595  0.1243  3.7796
  261MOL0     H35175   2.002   2.694   3.708  0.5535 -2.2290  0.0056
  261MOL0     H35176   1.801   2.678   3.816  0.9261 -1.0419  0.2372
  261MOL0     H35177   1.775   2.814   3.696 -2.9873 -0.7572 -1.8735
  261MOL0     H35178   1.576   2.681   3.707 -0.8863 -2.2681  0.1377
  261MOL0     H35179   1.645   2.679   3.546  3.0901  0.3742 -2.1078
  261MOL0     H35180   1.711   2.442   3.724 -1.9283 -0.0004  0.8564
  261MOL0     H35181   1.548   2.458   3.666  0.1499  2.3246  2.5182
  261MOL0     H35182   1.618   2.487   3.439 -2.3002  0.1523  0.8881
  261MOL0     H35183   1.786   2.449   3.507 -0.3319  0.3824  4.6035
  261MOL0     H35184   1.679   2.235   3.608 -1.3642  2.0072  1.9938
  261MOL0     H35185   1.716   2.247   3.433 -2.1207 -0.6295 -0.0965
  261MOL0     H35186   1.411   2.265   3.669  0.6120 -3.1874  1.3023
  261MOL0     H35187   1.173   2.104   3.662 -0.3816 -1.1169  0.0701
  261MOL0     H35188   1.129   2.239   3.559 -0.5852 -0.8105 -2.0917
  261MOL0     H35189   1.157   1.993   3.404  0.1479 -0.2342 -0.0087
  261MOL0     H35190   1.040   2.126   3.385  1.9279  1.3706 -2.1132
  261MOL0     H35191   1.049   1.913   3.606  1.0661 -0.3113 -0.6902
  261MOL0     H35192   0.961   1.888   3.462  3.1014 -1.4078 -1.7409
  261MOL0     H35193   0.820   2.096   3.516 -0.3958  0.9114  0.8777
  261MOL0     H35194   0.917   2.117   3.655  0.0668  0.6417 -0.6196
  261MOL0     H35195   0.648   2.184   3.600  0.2265 -1.0923 -0.7367
  261MOL0     H35196   0.499   2.334   3.617  0.8476  0.2642  0.3355
  261MOL0     H35197   0.332   2.265   3.627  2.3602 -1.1096 -2.9058
  261MOL0     H35198   0.403   2.327   3.776  1.6341 -2.8460  1.2233
  261MOL0     H35199   0.022   2.045   4.001  0.3966 -0.0471 -0.2918
  261MOL0     H35200  -0.129   2.158   4.165 -2.2609  3.0565  0.9241
  261MOL0     H35201  -0.341   2.252   4.127  2.8607 -0.8504 -1.2484
  261MOL0     H35202  -0.280   2.293   4.290 -3.0582  0.6759  1.8641
  261MOL0     H35203  -0.476   2.466   4.161 -2.8685  1.3424  2.0210
  261MOL0     H35204  -0.520   2.327   4.261  0.2881 -1.5321  0.1906
  261MOL0     H35205  -0.375   2.569   4.369  2.9685 -2.1322  3.0126
  261MOL0     H35206  -0.382   2.410   4.448  0.3656 -2.8032 -1.9767
  261MOL0     H35207  -0.609   2.593   4.363  1.5699  0.9805  2.1002
  261MOL0     H35208  -0.633   2.424   4.417 -1.1609  1.0136 -1.4111
  261MOL0     H35209  -0.534   2.684   4.548  1.9298 -1.0737 -2.1406
  261MOL0     H35210  -0.518   2.526   4.636 -1.2149  2.9153  2.6711
  261MOL0     H35211  -0.761   2.685   4.519  0.6327 -1.1584 -3.7031
  261MOL0     H35212  -0.782   2.519   4.572  1.1528 -0.0355 -0.1960
  261MOL0     H35213  -0.828   2.727   4.728 -0.7486 -0.3566 -1.3470
  261MOL0     H35214  -0.656   2.732   4.751 -0.9746  0.3243 -1.4685
  261MOL0     H35215  -0.735   2.616   4.937  1.3611 -0.3768 -0.2876
  261MOL0     H35216  -0.671   2.497   4.835  2.8132  1.1637  2.3758
  261MOL0     H35217  -0.053   2.541   3.983 -3.0565 -0.2246 -1.9913
  261MOL0     H35218   0.121   2.443   3.846 -1.2988  0.9198  0.0372
  261MOL0     H35219   0.396   1.856   3.865  1.5709 -0.3276  0.1630
  261MOL0     H35220   0.631   1.807   3.798 -1.4130 -0.5992  3.0302
  261MOL0     H35221   1.980   2.973   3.706 -2.6909 -0.2446  3.3328
  261MOL0     H35222   1.978   3.177   3.850 -2.6303 -0.7313  1.3141
  261MOL0     H35223   1.955   3.494   4.039  1.0854 -2.3933  0.2583
  261MOL0     H35224   2.088   3.641   4.187 -1.5629 -3.9166  0.1092
  261MOL0     H35225   2.383   3.816   4.243 -0.3801  0.6955 -0.1352
  261MOL0     H35226   2.398   3.702   4.113  3.6681 -0.8204  0.7890
  261MOL0     H35227   2.470   3.845   3.956  2.1878 -0.3699  0.4649
  261MOL0     H35228   2.586   3.860   4.086 -0.7137  0.2981  1.4921
  261MOL0     H35229   2.456   4.074   4.161 -1.2775 -2.6346  0.7307
  261MOL0     H35230   2.350   4.050   4.014  0.1808 -0.7074 -1.4273
  261MOL0     H35231   2.651   4.120   3.996  1.2213  1.7674 -2.2964
  261MOL0     H35232   2.502   4.219   3.987 -0.8333 -0.3905 -0.9114
  261MOL0     H35233   2.516   4.034   3.603  1.3657 -1.6419  0.0671
  261MOL0     H35234   2.275   3.813   3.842 -0.8644  1.6566  3.1719
  261MOL0     H35235   2.157   3.682   3.690 -3.3008 -0.6365 -1.3977
  262MOL0     O35236   0.257   7.652   9.473 -0.6991  0.6666  0.3725
  262MOL0     C35237   0.161   7.668   9.405  0.0120  0.1157 -0.0988
  262MOL0     O35238   0.122   7.604   9.292  0.6222  0.4925 -0.0997
  262MOL0     C35239   0.202   7.499   9.247 -0.2793  0.6340  0.2924
  262MOL0     C35240   0.327   7.511   9.187  0.0615  0.4846 -0.1478
  262MOL0     C35241   0.397   7.409   9.129  0.5476  0.4904  0.9304
  262MOL0     C35242   0.343   7.286   9.122 -0.7134 -1.1512 -0.0004
  262MOL0     O35243   0.403   7.179   9.060  0.5027 -0.0940 -0.0222
  262MOL0     C35244   0.501   7.197   8.954 -0.1529  0.0619  0.7492
  262MOL0     C35245   0.584   7.062   8.950 -0.1574  0.3020 -0.3290
  262MOL0     C35246   0.497   6.933   8.934 -0.2558  0.7747  0.5566
  262MOL0     C35247   0.582   6.815   8.917 -1.0288  0.8256  0.5871
  262MOL0     C35248   0.519   6.692   8.857  0.3283  0.1858  0.0943
  262MOL0     C35249   0.594   6.569   8.876 -0.3871 -0.3424 -1.6588
  262MOL0     C35250   0.574   6.461   8.770 -0.2620 -0.4101  0.0938
  262MOL0     C35251   0.426   6.412   8.755 -0.7466 -0.3621  0.6494
  262MOL0     N35252   0.359   6.374   8.877  0.0469  0.3060  0.0390
  262MOL0     C35253   0.398   6.282   8.977 -1.2639  0.1834  0.1981
  262MOL0     C35254   0.295   6.266   9.061  0.0870  0.6011 -0.6040
  262MOL0     C35255   0.299   6.175   9.180  0.2014  0.5027 -0.2594
  262MOL0     C35256   0.154   6.133   9.225  0.4786  0.4371  0.0256
  262MOL0     C35257   0.153   6.083   9.368  0.1447  0.1235 -0.4060
  262MOL0     C35258   0.168   6.195   9.467 -0.2898 -1.1538 -0.2833
  262MOL0     O35259   0.168   6.151   9.605 -0.3959 -0.4345  0.3926
  262MOL0     C35260   0.043   6.148   9.668  0.7667 -0.2092  0.2325
  262MOL0     C35261  -0.086   6.170   9.608 -0.4132  0.5119  0.4690
  262MOL0     C35262  -0.204   6.147   9.676  0.5527  0.0016 -0.0817
  262MOL0     C35263  -0.333   6.170   9.606 -0.3442  0.0104  0.6049
  262MOL0     C35264  -0.198   6.093   9.811  0.3382 -0.4733  1.7894
  262MOL0     C35265  -0.318   6.077   9.899  0.1570 -0.5596  0.5063
  262MOL0     O35266  -0.314   5.953   9.960 -0.6160 -0.0832  0.6230
  262MOL0     C35267  -0.423   5.891  10.021  0.8692 -0.2181  0.9078
  262MOL0     C35268  -0.408   5.754  10.039 -0.8962  0.1471 -0.3571
  262MOL0     C35269  -0.505   5.682  10.100 -0.7073 -0.0672  0.0241
  262MOL0     C35270  -0.632   5.736  10.126 -0.1511 -0.2044 -0.5170
  262MOL0     O35271  -0.730   5.646  10.168  0.2572  0.1967 -0.6728
  262MOL0     C35272  -0.868   5.688  10.189  0.7818  0.2884 -0.0047
  262MOL0     C35273  -0.974   5.588  10.237  0.2650 -0.8758 -0.5098
  262MOL0     C35274  -0.916   5.484  10.319 -0.2829 -0.5403  0.7959
  262MOL0     C35275  -1.004   5.424  10.428  0.0082 -0.1877  1.0557
  262MOL0     C35276  -1.134   5.362  10.363  0.3769 -0.0521 -1.5319
  262MOL0     C35277  -1.214   5.284  10.464  0.0177  0.3195 -0.6122
  262MOL0     C35278  -1.296   5.379  10.564 -0.2272  0.4075 -0.3605
  262MOL0     C35279  -1.303   5.327  10.711  1.2392  0.6757 -1.5289
  262MOL0    Cl35280  -1.143   5.282  10.786  0.4965 -0.5625 -0.0769
  262MOL0     C35281  -0.657   5.866  10.103  0.4428 -0.3189  0.7153
  262MOL0     C35282  -0.553   5.949  10.053  0.6013  0.1957  0.6304
  262MOL0     O35283  -0.405   6.166   9.904 -0.4355 -0.1851  0.1434
  262MOL0     C35284  -0.075   6.077   9.867  0.5503  0.0987 -1.1743
  262MOL0     C35285   0.042   6.105   9.801 -1.0542  0.7041 -0.3803
  262MOL0     N35286   0.194   6.359   9.020  0.1057  0.0713 -0.5982
  262MOL0     N35287   0.236   6.422   8.915  0.5040 -0.0525 -0.2594
  262MOL0     C35288   0.228   7.265   9.192  1.3023 -0.0450 -0.0128
  262MOL0     C35289   0.156   7.367   9.253 -0.5418 -0.3429 -0.9160
  262MOL0     C35290   0.075   7.788   9.440  0.0869  0.7014 -0.4273
  262MOL0     C35291   0.123   7.880   9.527  0.2993 -0.0576 -0.5658
  262MOL0     C35292   0.046   7.991   9.548 -0.6198 -0.3038  0.0898
  262MOL0     C35293  -0.072   8.023   9.484 -0.2414  0.0318  0.4153
  262MOL0     O35294  -0.146   8.134   9.518 -0.2281 -0.0560 -0.2262
  262MOL0     C35295  -0.181   8.225   9.407 -0.0802  0.5726 -0.2710
  262MOL0     C35296  -0.053   8.256   9.330 -0.3321  0.5189 -0.0393
  262MOL0     C35297  -0.078   8.334   9.200  0.6114  0.3708  1.4283
  262MOL0     C35298  -0.112   8.489   9.196 -0.4148  0.4815 -0.1571
  262MOL0     C35299   0.001   8.552   9.258 -0.6457  0.4114 -0.0972
  262MOL0     C35300   0.093   8.596   9.328  0.4006  0.2656 -0.8612
  262MOL0     C35301  -0.120   7.925   9.397  0.7545 -1.3870  0.2853
  262MOL0     C35302  -0.050   7.806   9.374 -1.0723  0.8023 -0.0966
  262MOL0     H35303   0.355   7.616   9.177 -3.2256  1.4329 -0.7714
  262MOL0     H35304   0.494   7.426   9.084 -0.5103 -0.7220 -2.0825
  262MOL0     H35305   0.441   7.207   8.863 -0.4838  1.4985  1.0903
  262MOL0     H35306   0.566   7.284   8.966  1.4595 -0.4064 -3.2064
  262MOL0     H35307   0.654   7.072   8.866  1.5077 -0.0972  0.9659
  262MOL0     H35308   0.648   7.065   9.038  2.0967  0.9444 -1.8872
  262MOL0     H35309   0.437   6.917   9.024  3.3959  0.9136  3.2568
  262MOL0     H35310   0.442   6.944   8.841  0.5374  3.5890  0.3249
  262MOL0     H35311   0.672   6.832   8.856 -0.8288 -3.8802 -0.8363
  262MOL0     H35312   0.637   6.801   9.010  0.2283  1.2327 -0.0615
  262MOL0     H35313   0.416   6.675   8.890 -0.5693 -0.8220 -2.8919
  262MOL0     H35314   0.515   6.716   8.750  0.1265 -0.2914 -0.0097
  262MOL0     H35315   0.700   6.586   8.896 -0.3747  2.0952 -3.3388
  262MOL0     H35316   0.558   6.534   8.974 -3.3673 -0.0473 -2.5433
  262MOL0     H35317   0.604   6.498   8.672 -2.1391  1.8852  0.3012
  262MOL0     H35318   0.632   6.371   8.793 -0.9721 -1.1084 -0.7857
  262MOL0     H35319   0.431   6.322   8.693 -1.4062  1.2335 -1.8344
  262MOL0     H35320   0.376   6.484   8.691 -1.3089 -1.1938  0.1345
  262MOL0     H35321   0.497   6.240   8.989 -0.1839  2.2421 -0.8988
  262MOL0     H35322   0.355   6.081   9.172 -1.9301 -0.6985 -2.2844
  262MOL0     H35323   0.340   6.234   9.262 -1.0541  0.9056  0.0910
  262MOL0     H35324   0.136   6.046   9.161  0.6349  2.3270 -2.7259
  262MOL0     H35325   0.079   6.209   9.201 -0.8084 -1.4597 -2.4052
  262MOL0     H35326   0.243   6.023   9.381  0.5004  0.8708  0.7372
  262MOL0     H35327   0.074   6.012   9.395 -0.2591  0.5325 -0.4986
  262MOL0     H35328   0.102   6.281   9.454  1.9584  0.8245  0.6385
  262MOL0     H35329   0.268   6.238   9.455 -1.3579  1.9124  0.9927
  262MOL0     H35330  -0.098   6.206   9.506  1.9703  0.5439  0.1284
  262MOL0     H35331  -0.359   6.276   9.613  2.3636  1.1889 -3.5336
  262MOL0     H35332  -0.315   6.134   9.504 -1.9548 -1.2936  0.7399
  262MOL0     H35333  -0.416   6.106   9.638  0.8974 -0.7294  2.6253
  262MOL0     H35334  -0.319   5.697  10.012  1.5780  2.6596  1.8834
  262MOL0     H35335  -0.489   5.576  10.120 -5.0496 -1.7666 -3.7329
  262MOL0     H35336  -0.872   5.773  10.257 -1.3394 -0.4985  0.9456
  262MOL0     H35337  -0.908   5.717  10.092  0.5473 -1.7619 -0.5811
  262MOL0     H35338  -1.044   5.649  10.295  2.2990  0.7127  0.3976
  262MOL0     H35339  -1.025   5.547  10.149  1.6574 -0.3996 -1.5833
  262MOL0     H35340  -0.833   5.522  10.379  1.5673 -0.6785 -1.5675
  262MOL0     H35341  -0.880   5.411  10.246 -1.8665  0.6080 -1.2447
  262MOL0     H35342  -0.950   5.362  10.501 -1.7352  0.8814  3.4014
  262MOL0     H35343  -1.045   5.502  10.493 -1.3270  0.4796 -0.5121
  262MOL0     H35344  -1.104   5.305  10.274  0.6095 -1.0804 -0.8160
  262MOL0     H35345  -1.200   5.442  10.328 -0.4758 -1.2130 -2.7080
  262MOL0     H35346  -1.295   5.227  10.417  0.2866 -0.6566  0.0748
  262MOL0     H35347  -1.159   5.230  10.542  3.0281  1.5524 -1.7457
  262MOL0     H35348  -1.395   5.392  10.519 -0.0918 -0.1078 -0.8241
  262MOL0     H35349  -1.251   5.478  10.576 -1.2831  0.6703  1.7145
  262MOL0     H35350  -1.369   5.241  10.694  1.3218  0.4914 -0.9573
  262MOL0     H35351  -1.346   5.402  10.779  0.1565 -1.4365  0.2688
  262MOL0     H35352  -0.756   5.908  10.116  0.0071 -1.3524  0.8625
  262MOL0     H35353  -0.586   6.046  10.017 -0.6692 -1.0727 -1.8573
  262MOL0     H35354  -0.051   6.040   9.967  3.2439  0.5049 -1.5932
  262MOL0     H35355   0.139   6.093   9.847 -1.9523  1.2760  1.8101
  262MOL0     H35356   0.176   7.170   9.202 -1.7912  1.6565  1.5237
  262MOL0     H35357   0.055   7.337   9.278  0.1443 -3.4349 -1.4334
  262MOL0     H35358   0.221   7.861   9.569  0.0660 -0.5369 -0.2288
  262MOL0     H35359   0.072   8.064   9.623 -1.0315 -0.6482  0.5719
  262MOL0     H35360  -0.254   8.169   9.347 -0.0054 -0.1661  0.3079
  262MOL0     H35361  -0.225   8.313   9.454  0.9129 -0.1227  2.1436
  262MOL0     H35362  -0.006   8.163   9.297  0.4139  1.0826 -0.5909
  262MOL0     H35363   0.021   8.304   9.395  0.1366 -1.9022  1.3527
  262MOL0     H35364  -0.150   8.270   9.147  1.6404 -1.0886  1.7226
  262MOL0     H35365   0.015   8.324   9.142  0.6420  1.3330  1.2887
  262MOL0     H35366  -0.202   8.503   9.257  1.9568  1.4904  3.4617
  262MOL0     H35367  -0.121   8.521   9.092 -3.4399  2.9743  0.7005
  262MOL0     H35368   0.188   8.624   9.369  1.3001 -1.1587 -1.8456
  262MOL0     H35369  -0.204   7.973   9.347  2.4773  0.0791 -1.3152
  262MOL0     H35370  -0.086   7.733   9.303 -2.0260  0.5268  0.6454
  263MOL0     O35371   4.873   6.045   2.440  1.0807  0.3078 -0.6053
  263MOL0     C35372   4.904   6.157   2.489  0.7735 -0.3850 -0.3319
  263MOL0     O35373   4.871   6.283   2.441  0.2694  0.7955  0.1070
  263MOL0     C35374   4.795   6.279   2.321 -0.5303  0.0538 -0.6371
  263MOL0     C35375   4.651   6.260   2.310  0.3669  0.4360 -0.5431
  263MOL0     C35376   4.583   6.266   2.191  0.3674  0.1417  0.0995
  263MOL0     C35377   4.654   6.268   2.070 -0.1539 -0.4214  0.3725
  263MOL0     O35378   4.608   6.265   1.943 -0.2315 -0.6264  0.0497
  263MOL0     C35379   4.543   6.394   1.907 -0.0454  0.5106  0.4728
  263MOL0     C35380   4.440   6.369   1.803 -1.3852 -0.0581  0.4931
  263MOL0     C35381   4.511   6.344   1.672  0.0949  0.3087  0.1392
  263MOL0     C35382   4.545   6.485   1.606  0.9435 -0.2465 -0.0950
  263MOL0     C35383   4.656   6.481   1.512 -0.9053 -1.1380 -0.0060
  263MOL0     C35384   4.620   6.386   1.404 -0.5062  1.0253  0.3290
  263MOL0     C35385   4.681   6.407   1.272 -1.3463  0.4882 -0.3087
  263MOL0     C35386   4.611   6.326   1.169  0.0869  1.1619 -0.3466
  263MOL0     N35387   4.549   6.407   1.072 -0.5243 -0.2133 -0.0750
  263MOL0     C35388   4.414   6.439   1.074 -1.1204  1.0282  0.3649
  263MOL0     C35389   4.406   6.536   0.987 -0.4212 -0.5655 -0.8435
  263MOL0     C35390   4.280   6.614   0.964  0.7788  0.5505 -0.2888
  263MOL0     C35391   4.277   6.709   0.839  0.5015 -0.2946 -0.5943
  263MOL0     C35392   4.139   6.790   0.818  0.4732  0.0165 -0.1287
  263MOL0     C35393   4.121   6.895   0.934  0.0627  0.1176 -0.2415
  263MOL0     O35394   4.000   6.971   0.918  0.4051 -0.2191 -0.0333
  263MOL0     C35395   3.997   7.061   0.810 -0.8591 -0.1245  0.5471
  263MOL0     C35396   3.872   7.110   0.773 -0.3510  0.0340 -0.5583
  263MOL0     C35397   3.847   7.223   0.693 -0.3880 -0.0575 -0.0984
  263MOL0     C35398   3.692   7.232   0.681 -0.7757 -0.3172 -0.0888
  263MOL0     C35399   3.953   7.304   0.645 -0.3288 -0.6670 -0.1284
  263MOL0     C35400   3.932   7.423   0.555 -0.4947  0.8720 -0.8440
  263MOL0     O35401   4.036   7.505   0.543 -0.1529  0.7779 -0.6155
  263MOL0     C35402   4.035   7.634   0.498  0.2585  0.4837 -1.0952
  263MOL0     C35403   4.111   7.658   0.384 -0.1621  0.2329 -0.1710
  263MOL0     C35404   4.104   7.787   0.326 -0.6778 -0.2836 -0.2477
  263MOL0     C35405   4.031   7.886   0.392 -0.3828 -0.2912  0.4835
  263MOL0     O35406   4.059   8.015   0.345 -0.4806 -0.4496  0.3568
  263MOL0     C35407   4.060   8.130   0.433  0.7650  0.2172  0.5894
  263MOL0     C35408   4.185   8.166   0.502 -0.7685 -0.0237  0.4801
  263MOL0     C35409   4.304   8.161   0.402  0.5612 -0.6667  0.2814
  263MOL0     C35410   4.438   8.190   0.478 -0.7287 -0.2785  1.1756
  263MOL0     C35411   4.559   8.138   0.398 -0.1282 -0.0250 -0.2233
  263MOL0     C35412   4.692   8.192   0.440 -0.8809 -0.2072 -0.3137
  263MOL0     C35413   4.806   8.106   0.383  0.3464  0.0032  0.4812
  263MOL0     C35414   4.921   8.127   0.476 -0.0527  0.6214  0.3032
  263MOL0    Cl35415   4.888   8.047   0.642  0.1288 -0.3083 -0.1038
  263MOL0     C35416   3.942   7.853   0.494  0.7126  0.0754  0.3452
  263MOL0     C35417   3.956   7.730   0.558  0.7345 -0.1855 -1.4993
  263MOL0     O35418   3.819   7.442   0.513 -0.4283 -0.2525  0.4094
  263MOL0     C35419   4.086   7.256   0.677 -0.4796 -0.4965 -0.2152
  263MOL0     C35420   4.108   7.144   0.764  0.3142  0.3278 -0.6479
  263MOL0     N35421   4.531   6.572   0.938 -0.4166  0.8724  0.5709
  263MOL0     N35422   4.617   6.484   0.984 -0.1633 -0.3203  0.7931
  263MOL0     C35423   4.796   6.276   2.075 -0.2939 -0.2545  0.5202
  263MOL0     C35424   4.864   6.278   2.196  0.4322 -0.3503 -0.4357
  263MOL0     C35425   4.970   6.152   2.614  0.5640  0.0862  0.0969
  263MOL0     C35426   4.944   6.043   2.700 -0.1638 -0.3505 -0.8711
  263MOL0     C35427   4.989   6.047   2.827 -0.2248  0.0999  0.6804
  263MOL0     C35428   5.062   6.153   2.869 -0.0646 -0.1125  0.6799
  263MOL0     O35429   5.113   6.155   2.999  0.0134  0.4834  0.1348
  263MOL0     C35430   5.009   6.173   3.102 -0.7165 -0.4021  0.0535
  263MOL0     C35431   5.016   6.323   3.154 -0.0433 -0.2873  0.2935
  263MOL0     C35432   4.899   6.358   3.234  0.4342  0.0833 -0.0617
  263MOL0     C35433   4.819   6.261   3.313  0.8176  0.0304 -0.4418
  263MOL0     C35434   4.735   6.328   3.414 -0.4547 -0.9095 -0.0600
  263MOL0     C35435   4.673   6.402   3.483  0.0190  0.1131  0.4902
  263MOL0     C35436   5.080   6.255   2.789  0.0295 -0.3047  0.5608
  263MOL0     C35437   5.043   6.255   2.657  1.1148 -0.9779  0.1893
  263MOL0     H35438   4.594   6.248   2.402  1.0934 -1.4038 -0.2805
  263MOL0     H35439   4.474   6.273   2.190 -0.1798 -4.4034 -3.3941
  263MOL0     H35440   4.492   6.434   1.995  1.7615 -0.7505  2.2000
  263MOL0     H35441   4.617   6.461   1.861 -0.6967  1.3637  0.6267
  263MOL0     H35442   4.386   6.279   1.831 -0.7920 -0.6878 -0.3301
  263MOL0     H35443   4.367   6.447   1.778 -1.9049 -0.9696 -0.9573
  263MOL0     H35444   4.599   6.283   1.692  0.4425  0.1816 -1.5610
  263MOL0     H35445   4.450   6.285   1.603 -0.0503  0.0499  0.4871
  263MOL0     H35446   4.455   6.537   1.572  0.1846  0.3428  2.5849
  263MOL0     H35447   4.580   6.546   1.690  0.8114 -1.4649  0.8787
  263MOL0     H35448   4.684   6.585   1.494  0.8057 -1.2041  1.8922
  263MOL0     H35449   4.743   6.442   1.565 -1.3508 -0.7653  1.0093
  263MOL0     H35450   4.639   6.286   1.444 -1.4319  0.7757  0.1787
  263MOL0     H35451   4.512   6.396   1.385 -0.3687  2.0888  0.0477
  263MOL0     H35452   4.682   6.512   1.243  0.3638  0.0064 -2.2219
  263MOL0     H35453   4.784   6.375   1.290 -2.3275 -1.4791  2.5137
  263MOL0     H35454   4.542   6.250   1.205  1.5178 -0.9812 -1.8343
  263MOL0     H35455   4.672   6.256   1.110  2.6600  1.4688  1.7418
  263MOL0     H35456   4.344   6.390   1.141  1.8027 -4.2610  0.1697
  263MOL0     H35457   4.202   6.539   0.950 -1.1579  2.6800 -1.4966
  263MOL0     H35458   4.255   6.666   1.057 -0.8134 -2.1854  0.9465
  263MOL0     H35459   4.277   6.654   0.744 -2.2896  1.0910 -1.5132
  263MOL0     H35460   4.364   6.775   0.835  0.6475 -0.5085 -1.0614
  263MOL0     H35461   4.055   6.722   0.832  2.3872 -2.1515  1.6891
  263MOL0     H35462   4.138   6.840   0.721 -0.4880 -1.5468 -0.9693
  263MOL0     H35463   4.210   6.957   0.949  1.4501 -0.9554 -3.2315
  263MOL0     H35464   4.107   6.835   1.024  0.1412 -0.6242 -0.7145
  263MOL0     H35465   3.788   7.058   0.818  0.2392  0.2532  0.8469
  263MOL0     H35466   3.651   7.260   0.779 -1.2985  2.4639 -0.9885
  263MOL0     H35467   3.666   7.307   0.606  2.8123  2.6854  1.3340
  263MOL0     H35468   3.655   7.135   0.649 -0.3002 -0.3710 -0.4903
  263MOL0     H35469   4.161   7.572   0.341 -1.2395  1.2678 -3.8297
  263MOL0     H35470   4.168   7.815   0.242  2.2818 -0.8814  1.6685
  263MOL0     H35471   4.032   8.207   0.360  0.3776 -0.2069  0.2859
  263MOL0     H35472   3.991   8.116   0.517 -1.2267 -1.1966 -1.1833
  263MOL0     H35473   4.178   8.270   0.535  1.6361 -0.1047  1.4250
  263MOL0     H35474   4.205   8.097   0.584 -1.6609  2.2536  2.7497
  263MOL0     H35475   4.293   8.237   0.324 -0.3127  1.9059  2.7344
  263MOL0     H35476   4.315   8.062   0.358 -0.9313  0.1868 -2.1967
  263MOL0     H35477   4.448   8.298   0.491  1.2224 -0.5623  2.4966
  263MOL0     H35478   4.436   8.141   0.576  1.0128 -2.9448 -0.0087
  263MOL0     H35479   4.544   8.166   0.293  1.0663 -1.1515 -0.7325
  263MOL0     H35480   4.564   8.028   0.402 -1.3723 -0.0774  0.2405
  263MOL0     H35481   4.699   8.290   0.393 -1.6282 -0.8094 -1.7568
  263MOL0     H35482   4.712   8.204   0.546 -0.4063  0.7706 -0.5076
  263MOL0     H35483   4.844   8.140   0.286 -1.2431 -1.3364 -0.6781
  263MOL0     H35484   4.784   8.000   0.366 -5.0005  0.8317  0.4580
  263MOL0     H35485   4.941   8.235   0.473 -0.4707  0.6914 -0.1264
  263MOL0     H35486   5.004   8.072   0.431  1.0943  1.8048  0.8955
  263MOL0     H35487   3.881   7.932   0.537  0.3574  1.4725 -2.5039
  263MOL0     H35488   3.893   7.713   0.644  0.5882  1.2066 -1.2994
  263MOL0     H35489   4.162   7.322   0.635 -2.0357  0.4720 -1.6747
  263MOL0     H35490   4.213   7.133   0.792  0.0127 -2.8458 -0.4256
  263MOL0     H35491   4.858   6.271   1.985 -0.1959  0.2489  0.5575
  263MOL0     H35492   4.970   6.302   2.185  0.0594  0.6226 -2.2622
  263MOL0     H35493   4.873   5.963   2.683  1.0860 -1.6165 -0.3247
  263MOL0     H35494   4.962   5.965   2.893  0.3579 -0.7310 -0.0945
  263MOL0     H35495   4.908   6.152   3.064 -0.0982 -0.3038 -1.7142
  263MOL0     H35496   5.035   6.102   3.181  3.3304 -0.7513 -1.3851
  263MOL0     H35497   5.009   6.385   3.064 -0.0459 -0.9450 -0.1594
  263MOL0     H35498   5.111   6.342   3.206  1.3661 -1.9662 -1.5044
  263MOL0     H35499   4.822   6.411   3.177 -1.4002  1.6481  3.5299
  263MOL0     H35500   4.941   6.428   3.308 -1.0122  1.8525 -0.8230
  263MOL0     H35501   4.893   6.200   3.365  0.8598  2.0703  2.1023
  263MOL0     H35502   4.749   6.199   3.257 -1.3248 -0.9591  3.0072
  263MOL0     H35503   4.600   6.473   3.517 -0.9165  0.5143 -2.1521
  263MOL0     H35504   5.133   6.339   2.832  0.4899 -1.4373  2.3005
  263MOL0     H35505   5.058   6.341   2.592 -1.4448 -3.1075 -3.6605
  264MOL0     O35506   1.239   2.824  10.244  0.3491  0.2786 -0.1055
  264MOL0     C35507   1.324   2.733  10.241 -0.4936 -0.1557 -0.7971
  264MOL0     O35508   1.325   2.633  10.327 -0.8863  0.3183  0.0544
  264MOL0     C35509   1.265   2.648  10.453  0.1282 -0.0485  0.1974
  264MOL0     C35510   1.227   2.524  10.513  0.8384 -0.6377 -0.2708
  264MOL0     C35511   1.157   2.522  10.629 -0.8127  0.6035 -0.8001
  264MOL0     C35512   1.106   2.637  10.684  0.0408  0.1301  0.6215
  264MOL0     O35513   1.030   2.636  10.801  0.1544 -1.3365 -0.1325
  264MOL0     C35514   0.926   2.547  10.836 -0.4887 -0.4427 -0.4696
  264MOL0     C35515   0.904   2.563  10.986  0.2906 -0.0986  0.3931
  264MOL0     C35516   0.817   2.442  11.042 -1.1106 -0.2565  0.0256
  264MOL0     C35517   0.843   2.421  11.189 -0.1043 -0.0601  0.2229
  264MOL0     C35518   0.800   2.543  11.274  0.5055 -0.5032 -0.1295
  264MOL0     C35519   0.777   2.499  11.417 -0.3228 -0.2686 -0.8526
  264MOL0     C35520   0.747   2.605  11.514 -0.4335 -0.0702 -0.4378
  264MOL0     C35521   0.732   2.534  11.648  0.5768 -0.5102  0.2464
  264MOL0     N35522   0.617   2.441  11.667 -0.3067 -0.1946 -0.3875
  264MOL0     C35523   0.481   2.475  11.649  0.4996  0.2694 -0.4543
  264MOL0     C35524   0.396   2.363  11.644 -0.1527  0.7886 -1.2381
  264MOL0     C35525   0.245   2.355  11.644  0.1272  0.0610  0.0871
  264MOL0     C35526   0.201   2.246  11.746 -0.3274  0.1443 -1.2570
  264MOL0     C35527   0.260   2.255  11.887  0.0621  0.2338 -0.2000
  264MOL0     C35528   0.234   2.387  11.952  0.2866 -1.2729 -0.4125
  264MOL0     O35529   0.084   2.395  11.978 -0.0105 -0.5932 -1.0932
  264MOL0     C35530   0.022   2.348  12.101 -0.3785 -0.4901  0.4044
  264MOL0     C35531  -0.101   2.406  12.123  0.3397 -0.3217  0.1857
  264MOL0     C35532  -0.187   2.357  12.231 -0.5245 -0.6062  1.0810
  264MOL0     C35533  -0.316   2.428  12.233  0.3909 -0.3340 -0.6637
  264MOL0     C35534  -0.150   2.248  12.308 -0.6376 -0.3463 -0.1897
  264MOL0     C35535  -0.242   2.183  12.412 -0.7708 -0.8265  0.7664
  264MOL0     O35536  -0.172   2.100  12.493  0.6543 -0.0369  0.4357
  264MOL0     C35537  -0.244   2.009  12.571 -0.3858 -0.1454 -1.3176
  264MOL0     C35538  -0.225   1.868  12.565 -0.2145  0.2299  0.6367
  264MOL0     C35539  -0.304   1.777  12.636 -0.0539 -0.0704 -0.1789
  264MOL0     C35540  -0.399   1.828  12.725 -0.0619 -0.6693  0.1912
  264MOL0     O35541  -0.464   1.735  12.804 -0.8191 -0.6107 -0.4318
  264MOL0     C35542  -0.543   1.777  12.913  0.5782  0.0315 -0.2392
  264MOL0     C35543  -0.621   1.652  12.950  0.2054  0.3257  0.1057
  264MOL0     C35544  -0.728   1.624  12.847  0.5036 -0.7027  0.3279
  264MOL0     C35545  -0.843   1.732  12.856 -0.7168  0.5926 -0.3487
  264MOL0     C35546  -0.963   1.709  12.773  0.8745  0.5540 -1.1355
  264MOL0     C35547  -0.925   1.676  12.626  0.4105  0.2859  0.8024
  264MOL0     C35548  -1.055   1.644  12.531  1.6886  0.4231 -0.0257
  264MOL0     C35549  -1.016   1.592  12.399  0.2268 -0.3550 -0.3043
  264MOL0    Cl35550  -0.952   1.439  12.417 -0.0812  0.2334 -0.2094
  264MOL0     C35551  -0.407   1.965  12.741  0.7951 -0.8577  0.4772
  264MOL0     C35552  -0.339   2.060  12.664 -1.1108 -0.1841  0.6337
  264MOL0     O35553  -0.354   2.212  12.413  0.0534  0.5706  0.2000
  264MOL0     C35554  -0.030   2.193  12.279 -0.4488  0.3248  0.9453
  264MOL0     C35555   0.057   2.249  12.189 -0.0762 -0.2398 -0.3761
  264MOL0     N35556   0.496   2.262  11.643 -0.7066  0.5307  0.2357
  264MOL0     N35557   0.615   2.307  11.659 -0.7512  0.9128  0.4483
  264MOL0     C35558   1.158   2.761  10.644  1.3284 -0.0407 -0.2147
  264MOL0     C35559   1.236   2.763  10.532 -0.4307  0.2226  0.2070
  264MOL0     C35560   1.399   2.718  10.108  0.4411 -0.5712 -0.1817
  264MOL0     C35561   1.465   2.597  10.084 -0.8404 -0.4774 -0.2799
  264MOL0     C35562   1.552   2.585   9.970  0.8410 -0.2695 -0.6237
  264MOL0     C35563   1.567   2.697   9.887  1.1425  0.1025 -0.0457
  264MOL0     O35564   1.623   2.675   9.761  0.5174 -0.2028 -0.3501
  264MOL0     C35565   1.589   2.752   9.643  0.3530 -0.4286  0.1836
  264MOL0     C35566   1.643   2.674   9.524 -0.3678 -0.5027 -0.7905
  264MOL0     C35567   1.556   2.548   9.502 -0.0137  0.7801 -0.7722
  264MOL0     C35568   1.412   2.575   9.498  0.3365  0.4486  0.5024
  264MOL0     C35569   1.379   2.687   9.402 -0.7191 -0.0716 -0.2844
  264MOL0     C35570   1.345   2.788   9.343  0.5129 -0.7386 -0.5933
  264MOL0     C35571   1.503   2.819   9.910  1.0758  0.9054  0.4052
  264MOL0     C35572   1.408   2.825  10.015  0.2556 -1.0205  0.9110
  264MOL0     H35573   1.246   2.430  10.462 -1.1736 -2.3129  1.8175
  264MOL0     H35574   1.135   2.445  10.702  1.6148  3.4050  3.3389
  264MOL0     H35575   0.835   2.574  10.782 -0.4894 -0.9764 -0.7449
  264MOL0     H35576   0.950   2.442  10.818 -2.5221 -0.8791 -0.9468
  264MOL0     H35577   1.005   2.554  11.025  0.2329 -3.4540  0.0926
  264MOL0     H35578   0.871   2.662  11.017  0.9871 -0.2418  1.6265
  264MOL0     H35579   0.714   2.476  11.038 -1.3598 -1.0662 -2.0342
  264MOL0     H35580   0.834   2.356  10.976  1.8995 -0.1779  0.5484
  264MOL0     H35581   0.777   2.337  11.215  0.5798 -0.3571  1.0583
  264MOL0     H35582   0.948   2.398  11.207 -0.3393 -0.8793  0.6050
  264MOL0     H35583   0.883   2.615  11.282 -1.1858  1.3072  3.4772
  264MOL0     H35584   0.708   2.593  11.243  0.4743  0.1131  0.9297
  264MOL0     H35585   0.688   2.436  11.419  0.2233 -1.0348  0.2584
  264MOL0     H35586   0.869   2.452  11.454  0.2337  2.8955  2.2334
  264MOL0     H35587   0.824   2.683  11.511 -2.7790  2.5431  1.8390
  264MOL0     H35588   0.652   2.657  11.501 -0.3795  0.5207  1.3235
  264MOL0     H35589   0.699   2.613  11.717 -1.0316 -0.6595 -0.2955
  264MOL0     H35590   0.820   2.490  11.695 -1.1340 -3.7002  0.7697
  264MOL0     H35591   0.447   2.577  11.634  1.2606  1.2659  3.4225
  264MOL0     H35592   0.200   2.451  11.672  0.2515  0.2619 -0.3867
  264MOL0     H35593   0.205   2.337  11.544 -1.9662 -0.6946  1.0060
  264MOL0     H35594   0.216   2.146  11.705 -2.0508 -1.1882  1.0708
  264MOL0     H35595   0.093   2.264  11.749 -0.6780 -1.7799 -1.1734
  264MOL0     H35596   0.369   2.252  11.892  0.0716 -0.0393 -0.5495
  264MOL0     H35597   0.217   2.176  11.949  0.6918 -2.4099 -2.9301
  264MOL0     H35598   0.265   2.478  11.900 -0.9114 -0.2768  0.5566
  264MOL0     H35599   0.282   2.392  12.050  0.2757 -2.1743 -0.3540
  264MOL0     H35600  -0.136   2.480  12.052 -1.1314  0.5221  1.7435
  264MOL0     H35601  -0.352   2.460  12.331  0.2171  0.6924 -1.0473
  264MOL0     H35602  -0.313   2.524  12.180 -1.0187  0.3881  0.4802
  264MOL0     H35603  -0.396   2.366  12.189 -0.6551  0.3691  0.1893
  264MOL0     H35604  -0.161   1.834  12.484 -1.4484  0.1337 -0.3322
  264MOL0     H35605  -0.302   1.668  12.631  2.8593 -0.2156  1.4508
  264MOL0     H35606  -0.472   1.815  12.988  0.6793  1.7023 -1.1349
  264MOL0     H35607  -0.607   1.857  12.875 -1.1009 -1.7928 -1.4279
  264MOL0     H35608  -0.562   1.562  12.971  3.7100  2.5118  0.3463
  264MOL0     H35609  -0.683   1.671  13.038  2.9526  0.6578  2.1213
  264MOL0     H35610  -0.754   1.526  12.886 -0.8053  0.5158  2.7770
  264MOL0     H35611  -0.690   1.616  12.745  2.5440  1.8540  0.7915
  264MOL0     H35612  -0.876   1.751  12.958 -1.2559  3.4709 -0.9728
  264MOL0     H35613  -0.802   1.829  12.824 -1.7966 -0.4407 -5.8900
  264MOL0     H35614  -1.034   1.792  12.765 -0.5332 -0.4672  0.1499
  264MOL0     H35615  -1.013   1.620  12.812  0.4221  0.2903 -2.2641
  264MOL0     H35616  -0.874   1.760  12.577  0.8097  0.0609  0.8295
  264MOL0     H35617  -0.851   1.596  12.624  1.2379  1.0250  1.1295
  264MOL0     H35618  -1.102   1.740  12.509  2.0076  1.2772  2.6602
  264MOL0     H35619  -1.123   1.567  12.570  0.4766  0.6892 -1.5030
  264MOL0     H35620  -0.950   1.664  12.350 -0.5687  1.5221  1.2698
  264MOL0     H35621  -1.112   1.587  12.349  0.4737 -1.5676 -0.6849
  264MOL0     H35622  -0.462   2.016  12.820  1.5078  2.5527 -1.0399
  264MOL0     H35623  -0.341   2.169  12.665  3.3836  0.1181 -1.8047
  264MOL0     H35624   0.017   2.106  12.326 -0.6892  1.4194  3.3325
  264MOL0     H35625   0.147   2.190  12.173 -0.5212 -1.9034  2.5683
  264MOL0     H35626   1.134   2.838  10.716 -4.8070 -1.0776 -0.5807
  264MOL0     H35627   1.269   2.857  10.489  1.5021 -0.4779  0.0783
  264MOL0     H35628   1.470   2.518  10.157 -1.1795  0.5056  0.8465
  264MOL0     H35629   1.597   2.492   9.937  0.7710  0.9242 -4.5372
  264MOL0     H35630   1.483   2.782   9.648  0.1226 -1.4505  2.3081
  264MOL0     H35631   1.642   2.847   9.638  0.9670 -0.8115 -0.7901
  264MOL0     H35632   1.746   2.645   9.544 -1.4323 -2.1961  3.3687
  264MOL0     H35633   1.630   2.742   9.439 -1.2216  1.0408  0.5028
  264MOL0     H35634   1.571   2.469   9.576 -4.1309  1.0314  0.5627
  264MOL0     H35635   1.575   2.496   9.408 -0.1052 -2.0221  0.6498
  264MOL0     H35636   1.377   2.602   9.598  0.7183  1.6771  0.3159
  264MOL0     H35637   1.365   2.488   9.451  2.1064 -0.7367  0.8327
  264MOL0     H35638   1.304   2.854   9.269  1.6362 -0.9465 -1.4355
  264MOL0     H35639   1.531   2.898   9.841  1.0535  1.0332  0.5423
  264MOL0     H35640   1.354   2.916  10.039  3.1248  1.0563  0.0151
  265MOL0     O35641   9.277   8.541   2.619  0.6979  0.2402 -0.0381
  265MOL0     C35642   9.295   8.613   2.722  0.7831  0.6161 -0.8828
  265MOL0     O35643   9.201   8.650   2.809 -0.4066  0.4170  0.0083
  265MOL0     C35644   9.078   8.590   2.819  0.9484  1.2839  0.2090
  265MOL0     C35645   8.952   8.660   2.844 -0.4191 -0.3271  0.1329
  265MOL0     C35646   8.826   8.588   2.853 -0.7543 -0.7328  0.0221
  265MOL0     C35647   8.831   8.449   2.854 -0.6745 -0.1226 -0.9399
  265MOL0     O35648   8.731   8.366   2.881 -0.4419  0.5345  0.1263
  265MOL0     C35649   8.618   8.426   2.950  0.9779  0.3121  0.3917
  265MOL0     C35650   8.645   8.408   3.095 -0.2093 -0.3348 -0.1576
  265MOL0     C35651   8.554   8.500   3.187 -0.5789 -0.2678  0.4585
  265MOL0     C35652   8.584   8.482   3.334  0.5894 -1.0152  0.6886
  265MOL0     C35653   8.471   8.536   3.421 -0.6190 -0.2686 -0.4193
  265MOL0     C35654   8.353   8.454   3.404 -0.8950  0.0633  0.2735
  265MOL0     C35655   8.245   8.505   3.493 -0.0328 -0.1944  0.0938
  265MOL0     C35656   8.124   8.403   3.474 -0.3188 -0.6079  0.2051
  265MOL0     N35657   8.164   8.262   3.509 -0.0450 -0.3450  0.1005
  265MOL0     C35658   8.165   8.168   3.422  0.3841  0.3613 -0.5250
  265MOL0     C35659   8.211   8.060   3.490  0.4694  0.3783  0.3895
  265MOL0     C35660   8.230   7.921   3.447  0.6497 -0.4204 -0.2552
  265MOL0     C35661   8.281   7.827   3.555  0.6121  0.0944  0.8909
  265MOL0     C35662   8.322   7.700   3.503 -0.4714  0.3377  0.7246
  265MOL0     C35663   8.380   7.594   3.603  0.0649  0.4820 -1.0165
  265MOL0     O35664   8.451   7.497   3.522  0.2255  0.3131 -0.2946
  265MOL0     C35665   8.586   7.500   3.521 -0.2611  0.4972  0.9156
  265MOL0     C35666   8.651   7.458   3.639  0.5713 -0.9721 -0.2567
  265MOL0     C35667   8.787   7.452   3.650  0.2264  0.4906 -0.7452
  265MOL0     C35668   8.844   7.370   3.778  0.0109  0.0592 -0.2355
  265MOL0     C35669   8.868   7.495   3.547 -0.1065 -0.4790  1.0373
  265MOL0     C35670   9.011   7.472   3.538 -0.5951 -0.2123 -0.8002
  265MOL0     O35671   9.067   7.471   3.409  0.2060 -0.0925 -0.2059
  265MOL0     C35672   9.194   7.437   3.383  0.3247 -1.2412 -0.7559
  265MOL0     C35673   9.242   7.309   3.394 -0.6331  0.5528  0.0276
  265MOL0     C35674   9.360   7.274   3.340 -0.1299 -0.2215  0.8304
  265MOL0     C35675   9.452   7.368   3.279  1.4223  0.4034  0.2526
  265MOL0     O35676   9.572   7.322   3.229  0.2238 -0.3002 -0.7000
  265MOL0     C35677   9.680   7.342   3.312 -0.1656 -0.3741 -0.1834
  265MOL0     C35678   9.804   7.265   3.264 -0.4594  0.1507 -0.2151
  265MOL0     C35679   9.934   7.300   3.343 -0.5916 -0.9018 -0.5793
  265MOL0     C35680   9.917   7.274   3.489 -0.7063 -0.3853 -0.1200
  265MOL0     C35681   9.907   7.134   3.539  0.5782  0.1460 -0.2243
  265MOL0     C35682  10.029   7.040   3.520  0.4091  0.1658  1.0705
  265MOL0     C35683  10.013   6.897   3.582  0.0485  0.6817  0.1716
  265MOL0     C35684   9.878   6.851   3.594  0.2319 -0.1457 -0.3840
  265MOL0    Cl35685   9.800   6.845   3.433  0.4195  0.1480 -0.5352
  265MOL0     C35686   9.403   7.498   3.259  0.3037 -0.5857  0.2261
  265MOL0     C35687   9.282   7.531   3.313  0.6598  0.1126  0.1021
  265MOL0     O35688   9.077   7.464   3.643  0.6309  0.4175  0.4917
  265MOL0     C35689   8.805   7.544   3.423  0.2562 -0.1452 -1.1946
  265MOL0     C35690   8.665   7.543   3.418 -0.3428  0.1906 -0.2968
  265MOL0     N35691   8.228   8.107   3.623  0.7841 -0.6809 -0.0363
  265MOL0     N35692   8.194   8.228   3.627 -0.0199  0.1877 -0.1448
  265MOL0     C35693   8.951   8.388   2.828 -0.4794  0.7269 -0.2254
  265MOL0     C35694   9.066   8.457   2.805  0.2880 -0.1063 -1.3422
  265MOL0     C35695   9.428   8.670   2.734 -0.0685  0.1317  0.2472
  265MOL0     C35696   9.528   8.603   2.675 -0.7340  0.1980 -0.7291
  265MOL0     C35697   9.663   8.638   2.702 -0.5169  0.5142 -0.1612
  265MOL0     C35698   9.696   8.730   2.802  0.1557 -1.0729 -0.8807
  265MOL0     O35699   9.833   8.746   2.826 -0.1395 -0.3651 -0.6775
  265MOL0     C35700   9.874   8.828   2.936 -0.6697 -0.3671 -0.5568
  265MOL0     C35701  10.034   8.833   2.914 -0.0415 -0.0032 -1.3187
  265MOL0     C35702  10.104   8.914   3.027 -0.1131  0.1983  0.2219
  265MOL0     C35703  10.242   8.959   2.992  0.1043  0.5931  0.8774
  265MOL0     C35704  10.317   9.012   3.104 -1.3221  0.0285 -0.0695
  265MOL0     C35705  10.371   9.057   3.207  0.3760 -0.6388  0.2614
  265MOL0     C35706   9.593   8.790   2.869  0.8040  0.2287 -0.8155
  265MOL0     C35707   9.456   8.763   2.841  1.6821  0.8769  0.9456
  265MOL0     H35708   8.957   8.767   2.859 -1.3368 -0.1836 -0.4893
  265MOL0     H35709   8.735   8.645   2.864 -2.6423 -1.9188 -5.7383
  265MOL0     H35710   8.596   8.531   2.928 -1.0503 -0.5879 -2.4338
  265MOL0     H35711   8.523   8.376   2.929  1.9735 -0.8050 -1.8326
  265MOL0     H35712   8.629   8.305   3.129 -3.2011  1.0164  3.1875
  265MOL0     H35713   8.750   8.432   3.110 -0.3221  0.7578 -0.9674
  265MOL0     H35714   8.580   8.603   3.159  1.9551 -1.4078 -1.7753
  265MOL0     H35715   8.451   8.482   3.155 -1.5081 -1.2132  3.6084
  265MOL0     H35716   8.614   8.379   3.356  4.0524 -0.1313  0.6603
  265MOL0     H35717   8.674   8.543   3.339  2.7847 -4.0578  0.7272
  265MOL0     H35718   8.505   8.524   3.524 -1.2280  1.7927  0.0779
  265MOL0     H35719   8.453   8.643   3.405 -0.4377 -0.0960  0.4838
  265MOL0     H35720   8.318   8.458   3.301 -0.8186  2.1381  0.2872
  265MOL0     H35721   8.380   8.355   3.444 -0.7747  0.9167  2.4505
  265MOL0     H35722   8.284   8.514   3.595  0.5224  1.7980 -0.2354
  265MOL0     H35723   8.214   8.604   3.458  0.0769 -0.0291  0.4542
  265MOL0     H35724   8.082   8.410   3.373  0.6075 -0.5558 -0.1854
  265MOL0     H35725   8.043   8.445   3.536 -1.7963  0.8741 -2.5576
  265MOL0     H35726   8.138   8.172   3.317  0.7357  1.2590 -0.5921
  265MOL0     H35727   8.129   7.891   3.418 -0.1292  0.6597  1.2365
  265MOL0     H35728   8.298   7.934   3.363  0.8764 -0.0809 -0.0209
  265MOL0     H35729   8.197   7.804   3.621 -0.5265 -0.1853 -0.5827
  265MOL0     H35730   8.360   7.880   3.607 -0.4519 -0.1191  2.8155
  265MOL0     H35731   8.401   7.722   3.431 -0.6132  2.9618  1.2432
  265MOL0     H35732   8.232   7.655   3.460  1.3435 -1.1597 -1.7828
  265MOL0     H35733   8.302   7.534   3.652  1.7812  2.4288  4.9826
  265MOL0     H35734   8.446   7.637   3.679  0.1304 -2.9253  1.0209
  265MOL0     H35735   8.585   7.421   3.718 -1.7358  0.8871 -1.1785
  265MOL0     H35736   8.898   7.281   3.744 -0.0990 -0.4139  0.7823
  265MOL0     H35737   8.898   7.434   3.847 -0.9873  0.1220  0.5113
  265MOL0     H35738   8.763   7.320   3.833  0.8824 -4.6881 -2.7053
  265MOL0     H35739   9.177   7.237   3.441  1.2620 -0.7032  0.8662
  265MOL0     H35740   9.401   7.174   3.344  0.8365 -0.0099 -1.8684
  265MOL0     H35741   9.693   7.450   3.320 -0.6253 -0.3565  0.4063
  265MOL0     H35742   9.654   7.304   3.411 -3.7818  0.6604 -0.6193
  265MOL0     H35743   9.791   7.157   3.276 -1.4480  0.4852  2.3027
  265MOL0     H35744   9.801   7.289   3.157 -1.7228  2.3751  0.2583
  265MOL0     H35745   9.959   7.406   3.326  1.4734 -1.0655  1.1172
  265MOL0     H35746  10.024   7.253   3.304  3.2256  4.5289  0.4529
  265MOL0     H35747  10.004   7.316   3.541  1.7579 -4.3213 -0.6361
  265MOL0     H35748   9.842   7.345   3.524 -0.2112  0.8833 -1.4832
  265MOL0     H35749   9.820   7.090   3.491 -0.0617 -1.2184  2.0183
  265MOL0     H35750   9.888   7.146   3.646  1.5518 -3.2641  0.4493
  265MOL0     H35751  10.044   7.026   3.412  2.9696 -0.2713  1.4290
  265MOL0     H35752  10.119   7.086   3.563  0.3462  4.6517 -2.7544
  265MOL0     H35753  10.053   6.897   3.684  0.3798  0.0370  0.0495
  265MOL0     H35754  10.070   6.826   3.522  0.9899  2.0245 -0.5824
  265MOL0     H35755   9.810   6.912   3.653 -1.8969 -2.8282  0.1299
  265MOL0     H35756   9.883   6.759   3.652  2.4423 -0.1738 -0.5184
  265MOL0     H35757   9.458   7.568   3.197 -1.7368 -0.5363 -1.6314
  265MOL0     H35758   9.252   7.635   3.305 -0.1292 -0.1674 -1.0274
  265MOL0     H35759   8.875   7.582   3.350  1.0809 -0.0267 -0.3562
  265MOL0     H35760   8.631   7.585   3.323 -0.3595  1.7798  0.3789
  265MOL0     H35761   8.963   8.280   2.831  2.5539  0.9606 -0.9124
  265MOL0     H35762   9.152   8.394   2.784  2.9359  2.7772  0.1658
  265MOL0     H35763   9.496   8.535   2.597 -0.1146 -1.3411  0.3126
  265MOL0     H35764   9.752   8.602   2.651  1.3156  3.8984  0.3952
  265MOL0     H35765   9.829   8.928   2.930 -1.0903 -0.6370 -4.4345
  265MOL0     H35766   9.840   8.784   3.031  3.7259 -1.0789  0.8921
  265MOL0     H35767  10.041   8.878   2.814 -2.3763  1.3589 -0.9287
  265MOL0     H35768  10.073   8.731   2.902  2.0336  0.6025 -0.2994
  265MOL0     H35769  10.120   8.855   3.118 -0.9714  0.6518  0.6753
  265MOL0     H35770  10.046   9.001   3.059 -0.5971 -0.6395  1.7315
  265MOL0     H35771  10.237   9.030   2.910  0.2874 -0.6352 -0.2217
  265MOL0     H35772  10.296   8.871   2.954  3.2926  2.2162  1.3407
  265MOL0     H35773  10.398   9.084   3.307  0.1403 -0.0309  0.1618
  265MOL0     H35774   9.630   8.866   2.937 -0.2643 -0.1077  0.1733
  265MOL0     H35775   9.370   8.799   2.895 -0.5452 -1.7160 -0.6411
  266MOL0     O35776   5.821   9.415   9.586 -0.3031  0.7153 -0.4113
  266MOL0     C35777   5.869   9.326   9.653 -0.1534  0.4921 -0.1120
  266MOL0     O35778   5.813   9.200   9.675 -0.6290 -0.0153  1.0244
  266MOL0     C35779   5.706   9.145   9.602  0.0482  0.5589 -0.6176
  266MOL0     C35780   5.665   9.183   9.472 -0.6802  1.0622  0.2766
  266MOL0     C35781   5.548   9.132   9.424  0.0140 -0.0360  0.4551
  266MOL0     C35782   5.469   9.043   9.494  0.2553  0.6161  0.7534
  266MOL0     O35783   5.354   8.993   9.447  0.2159  0.1455 -0.3522
  266MOL0     C35784   5.251   8.948   9.538 -0.6146 -0.4291 -0.2456
  266MOL0     C35785   5.118   8.926   9.457  0.1947 -0.6982 -0.2652
  266MOL0     C35786   5.005   8.843   9.539  0.1305 -0.1216 -0.0980
  266MOL0     C35787   5.000   8.694   9.531  0.7927 -0.2763 -0.4571
  266MOL0     C35788   4.880   8.649   9.617 -0.8549 -0.1811 -0.0321
  266MOL0     C35789   4.844   8.509   9.621  0.1727  0.1784  0.2112
  266MOL0     C35790   4.695   8.485   9.654 -0.0809 -0.0224 -0.6849
  266MOL0     C35791   4.635   8.375   9.575  0.5094 -1.0325  0.3476
  266MOL0     N35792   4.512   8.331   9.640  0.2691 -0.7129  0.0777
  266MOL0     C35793   4.503   8.222   9.712  0.8600 -0.5063  0.3931
  266MOL0     C35794   4.370   8.192   9.723 -0.1209  0.3244  0.5819
  266MOL0     C35795   4.305   8.082   9.797  0.1077  1.0761 -0.7713
  266MOL0     C35796   4.226   7.986   9.703  0.9547 -0.2678  0.0520
  266MOL0     C35797   4.183   7.858   9.786 -0.0281 -0.7272  0.7027
  266MOL0     C35798   4.130   7.761   9.691  0.1335 -1.0263  1.2377
  266MOL0     O35799   4.082   7.647   9.760 -0.6413  0.4372 -0.0760
  266MOL0     C35800   4.037   7.534   9.695  0.1424  0.8259 -0.0807
  266MOL0     C35801   3.991   7.429   9.766  1.0921 -0.4216  0.1471
  266MOL0     C35802   3.918   7.321   9.711 -0.1686  0.4054  0.2090
  266MOL0     C35803   3.853   7.217   9.794 -0.5707  0.2440  0.0031
  266MOL0     C35804   3.909   7.312   9.567 -0.5418  0.1261  1.3219
  266MOL0     C35805   3.843   7.208   9.487  0.2050 -0.2609  1.3690
  266MOL0     O35806   3.842   7.232   9.347 -0.0878  1.4416 -0.0551
  266MOL0     C35807   3.800   7.137   9.250 -0.6313  0.4861  0.2317
  266MOL0     C35808   3.734   7.191   9.149  0.0701  0.0230 -0.1178
  266MOL0     C35809   3.709   7.115   9.037  0.3329  0.7026  0.7475
  266MOL0     C35810   3.743   6.979   9.025  0.1655  0.1710 -1.0116
  266MOL0     O35811   3.713   6.907   8.908  0.8154  0.0746  0.7557
  266MOL0     C35812   3.822   6.907   8.810 -0.0588  0.0347 -0.3650
  266MOL0     C35813   3.770   6.857   8.669  0.7621  0.2097 -0.1135
  266MOL0     C35814   3.874   6.781   8.596 -1.3957  0.8519 -0.1814
  266MOL0     C35815   3.821   6.744   8.465  0.0236 -0.1921 -0.2687
  266MOL0     C35816   3.868   6.603   8.418  0.0926  0.9596  0.6293
  266MOL0     C35817   3.782   6.521   8.314 -0.5906 -0.1589 -0.9748
  266MOL0     C35818   3.776   6.604   8.185 -0.8531  0.2562 -0.0841
  266MOL0     C35819   3.910   6.599   8.118 -0.3907 -0.0701  0.9301
  266MOL0    Cl35820   3.921   6.648   7.936 -0.3534  0.0562  0.3269
  266MOL0     C35821   3.815   6.921   9.131 -1.0996 -0.3999  0.1948
  266MOL0     C35822   3.845   7.002   9.236 -1.0479  1.3558 -0.7904
  266MOL0     O35823   3.803   7.099   9.530 -0.7358  0.2578 -0.8237
  266MOL0     C35824   3.975   7.417   9.492  0.4184  1.2418 -0.8932
  266MOL0     C35825   4.036   7.522   9.552 -0.6267  0.8160 -0.3774
  266MOL0     N35826   4.307   8.296   9.658 -0.2771  0.2401  0.2016
  266MOL0     N35827   4.388   8.376   9.610  1.0116  0.9099 -0.6183
  266MOL0     C35828   5.512   9.008   9.630 -0.2338 -0.2573  1.0744
  266MOL0     C35829   5.625   9.060   9.684 -0.2850 -0.0236 -0.2795
  266MOL0     C35830   5.996   9.348   9.730  0.1070 -0.1976  0.8722
  266MOL0     C35831   6.024   9.474   9.781  0.3334 -0.4492  0.1433
  266MOL0     C35832   6.145   9.506   9.848  1.0759 -0.5340 -0.3131
  266MOL0     C35833   6.233   9.409   9.883 -1.0448  0.0928 -0.4071
  266MOL0     O35834   6.347   9.437   9.964 -0.6560  0.6467 -0.0564
  266MOL0     C35835   6.450   9.519   9.903  0.2990  0.4298 -0.2436
  266MOL0     C35836   6.550   9.418   9.859  1.3402 -0.6817 -0.4778
  266MOL0     C35837   6.690   9.474   9.856 -0.9895  0.2831 -1.2820
  266MOL0     C35838   6.800   9.369   9.833  0.2555  0.2788 -0.0785
  266MOL0     C35839   6.804   9.312   9.701  0.0926  0.6126  0.4115
  266MOL0     C35840   6.789   9.255   9.595  0.2699  0.2301 -0.0080
  266MOL0     C35841   6.195   9.276   9.852  0.1476  0.1573  0.6729
  266MOL0     C35842   6.088   9.250   9.762 -0.7363 -0.2404 -0.2041
  266MOL0     H35843   5.726   9.256   9.419  2.5517 -2.1485 -0.8272
  266MOL0     H35844   5.521   9.171   9.327  2.6745  2.1235  0.4683
  266MOL0     H35845   5.292   8.861   9.591  1.2076  0.1600 -0.5916
  266MOL0     H35846   5.235   9.025   9.614  1.2392 -1.1629  0.9795
  266MOL0     H35847   5.085   9.027   9.431 -1.4938 -0.8733  1.0868
  266MOL0     H35848   5.138   8.879   9.360  2.2805  4.6580 -2.8481
  266MOL0     H35849   5.027   8.866   9.644 -1.2873 -3.2980  1.0015
  266MOL0     H35850   4.907   8.879   9.508 -0.8210 -2.3900  0.0685
  266MOL0     H35851   4.999   8.649   9.431  0.5322  0.1372 -0.6436
  266MOL0     H35852   5.084   8.647   9.584 -2.5344 -4.1926  1.9623
  266MOL0     H35853   4.888   8.673   9.723  1.2498  0.4658 -0.2870
  266MOL0     H35854   4.798   8.714   9.586  1.9789  4.0190  0.3875
  266MOL0     H35855   4.865   8.471   9.520  1.5508  1.9835 -0.2306
  266MOL0     H35856   4.915   8.460   9.687  0.3117 -0.6284 -0.5095
  266MOL0     H35857   4.690   8.454   9.759  3.3341 -0.7443 -0.6340
  266MOL0     H35858   4.642   8.579   9.635 -0.0356 -0.1585 -1.5106
  266MOL0     H35859   4.704   8.291   9.567  1.9237  0.1635 -0.4650
  266MOL0     H35860   4.611   8.402   9.472  1.3728 -1.4806  0.0185
  266MOL0     H35861   4.584   8.157   9.743  0.6084  0.3542  3.1495
  266MOL0     H35862   4.373   8.018   9.855 -2.5566 -1.2156  0.0623
  266MOL0     H35863   4.247   8.132   9.875 -0.5826  0.9399 -1.1855
  266MOL0     H35864   4.288   7.947   9.622  1.2004  1.1214 -0.4513
  266MOL0     H35865   4.136   8.033   9.664 -2.2595 -4.9391  0.9256
  266MOL0     H35866   4.118   7.890   9.868  0.7445 -0.7885  1.3542
  266MOL0     H35867   4.276   7.823   9.833  1.4712  2.9811  0.8940
  266MOL0     H35868   4.204   7.729   9.616 -0.9748 -0.1318 -0.2789
  266MOL0     H35869   4.048   7.801   9.632  2.2435 -0.0673 -1.2361
  266MOL0     H35870   3.986   7.435   9.874  0.3215  1.2987  0.0404
  266MOL0     H35871   3.887   7.116   9.768 -0.7247  0.5765 -1.5731
  266MOL0     H35872   3.886   7.236   9.897  0.0305  2.3974 -0.5295
  266MOL0     H35873   3.745   7.213   9.779 -0.4614 -1.5926 -0.6216
  266MOL0     H35874   3.703   7.295   9.156  0.2117  0.0873 -0.4177
  266MOL0     H35875   3.665   7.165   8.951  3.4091  0.3620 -1.1618
  266MOL0     H35876   3.881   6.999   8.806 -1.0671  0.8694  2.0491
  266MOL0     H35877   3.902   6.839   8.839 -0.0304  1.3094  2.9818
  266MOL0     H35878   3.674   6.807   8.660  0.4333  0.6050  1.1380
  266MOL0     H35879   3.760   6.954   8.619 -0.4448  1.0160  1.5945
  266MOL0     H35880   3.911   6.699   8.658 -0.5148  0.4893 -1.1563
  266MOL0     H35881   3.960   6.847   8.586 -0.3591  0.2737  3.5459
  266MOL0     H35882   3.712   6.736   8.462  0.0674 -0.4710 -1.1456
  266MOL0     H35883   3.838   6.827   8.396 -3.8192  0.5096 -0.5839
  266MOL0     H35884   3.861   6.533   8.501  0.1509  1.8425  1.4014
  266MOL0     H35885   3.968   6.623   8.379 -0.3418  1.4866 -0.2542
  266MOL0     H35886   3.827   6.424   8.289 -0.2417 -0.1081 -0.5556
  266MOL0     H35887   3.680   6.509   8.352  1.0665 -1.4834  3.6572
  266MOL0     H35888   3.749   6.710   8.189  0.3419  0.6073 -0.8656
  266MOL0     H35889   3.706   6.551   8.121  0.5277 -2.0153  0.1541
  266MOL0     H35890   3.947   6.496   8.128 -1.0447 -0.4226 -0.1489
  266MOL0     H35891   3.983   6.664   8.167  0.7440  1.1946 -2.1570
  266MOL0     H35892   3.841   6.816   9.128 -1.3436 -0.4537 -1.7816
  266MOL0     H35893   3.908   6.957   9.312 -0.8138  2.3547 -0.3798
  266MOL0     H35894   3.954   7.415   9.386  0.6636 -1.0633 -0.9594
  266MOL0     H35895   4.071   7.597   9.481 -0.5190  0.0383 -1.1595
  266MOL0     H35896   5.467   8.925   9.683  0.5382 -1.0912  0.4663
  266MOL0     H35897   5.666   9.043   9.783  0.2745  2.2523 -0.0439
  266MOL0     H35898   5.944   9.542   9.753 -0.7203 -0.8213  2.1042
  266MOL0     H35899   6.156   9.612   9.867 -3.1864 -0.0979  0.6571
  266MOL0     H35900   6.407   9.587   9.829  0.1272  1.2128  0.5673
  266MOL0     H35901   6.493   9.584   9.980 -2.1648  0.8297  0.8758
  266MOL0     H35902   6.529   9.382   9.757 -1.7910 -2.5797  0.6946
  266MOL0     H35903   6.552   9.340   9.936 -0.3005  0.0948  0.3859
  266MOL0     H35904   6.714   9.535   9.944 -0.9725  0.1638 -1.2027
  266MOL0     H35905   6.703   9.555   9.783 -0.1387  0.3374 -1.0872
  266MOL0     H35906   6.777   9.291   9.906  0.1044 -1.0455 -1.4911
  266MOL0     H35907   6.890   9.420   9.868 -1.1002  1.4330  1.8940
  266MOL0     H35908   6.770   9.197   9.507 -0.4391 -1.8354  1.4050
  266MOL0     H35909   6.259   9.198   9.891  0.4255  0.9667  1.8857
  266MOL0     H35910   6.073   9.147   9.733 -0.4747  0.0078 -1.2942
  267MOL0     O35911   5.326   0.107   9.565 -0.0046 -0.1096 -0.5199
  267MOL0     C35912   5.325   0.163   9.674 -0.8632  0.7996 -0.7030
  267MOL0     O35913   5.371   0.103   9.791  0.5030 -0.4867  1.0758
  267MOL0     C35914   5.407  -0.026   9.777  0.4373  0.3897 -0.4754
  267MOL0     C35915   5.543  -0.066   9.765 -0.8751 -0.4573  1.2862
  267MOL0     C35916   5.582  -0.200   9.784 -1.1513  0.6252  0.6148
  267MOL0     C35917   5.487  -0.287   9.827  0.1025 -0.1576  1.2355
  267MOL0     O35918   5.509  -0.424   9.808 -0.3731  0.2941 -0.2944
  267MOL0     C35919   5.568  -0.504   9.914  0.3091  0.1638  0.3055
  267MOL0     C35920   5.544  -0.656   9.913  0.1653 -0.4378  0.1753
  267MOL0     C35921   5.397  -0.690   9.923  0.2427  1.0971 -0.4648
  267MOL0     C35922   5.356  -0.833   9.969 -0.9213  0.6231  0.2129
  267MOL0     C35923   5.425  -0.937   9.888 -0.4803  0.6137 -0.6318
  267MOL0     C35924   5.381  -1.086   9.939  0.4118 -0.6286  0.1773
  267MOL0     C35925   5.452  -1.182   9.853  0.0750 -0.8641 -0.9655
  267MOL0     C35926   5.397  -1.209   9.711 -0.4955  0.1409 -0.0041
  267MOL0     N35927   5.365  -1.353   9.697  0.0489 -0.7340 -0.7681
  267MOL0     C35928   5.451  -1.456   9.662  0.6391 -0.3669 -0.0986
  267MOL0     C35929   5.385  -1.562   9.633  0.3155 -1.0350 -0.7718
  267MOL0     C35930   5.436  -1.696   9.579  0.2428 -0.8312 -0.0538
  267MOL0     C35931   5.480  -1.787   9.690 -0.0706  0.1606  0.4835
  267MOL0     C35932   5.633  -1.795   9.685  0.2316 -0.6385  0.2322
  267MOL0     C35933   5.694  -1.879   9.802 -0.3591 -0.4760  0.8115
  267MOL0     O35934   5.633  -1.850   9.930  0.4099  0.6985 -0.0243
  267MOL0     C35935   5.637  -1.724   9.975  0.0708  0.4268 -0.2559
  267MOL0     C35936   5.532  -1.684  10.050 -0.1872 -0.2751  0.0710
  267MOL0     C35937   5.536  -1.556  10.107  0.5540 -0.8498  0.2961
  267MOL0     C35938   5.421  -1.532  10.187 -0.8015 -0.5812 -0.2293
  267MOL0     C35939   5.650  -1.463  10.088  0.3952  0.6716 -0.5455
  267MOL0     C35940   5.656  -1.323  10.136 -0.5085 -0.8544  1.3566
  267MOL0     O35941   5.762  -1.244  10.092  0.4560  0.8253 -0.0931
  267MOL0     C35942   5.764  -1.112  10.120  0.6985 -0.6731  0.5448
  267MOL0     C35943   5.809  -1.026  10.016 -0.2663 -0.5822  0.2245
  267MOL0     C35944   5.816  -0.887  10.040 -0.8252 -0.8475  0.2434
  267MOL0     C35945   5.798  -0.829  10.165 -0.0154 -0.1840  0.9675
  267MOL0     O35946   5.806  -0.691  10.187  0.3123 -0.5014 -0.7791
  267MOL0     C35947   5.886  -0.608  10.105 -0.0989 -0.0935 -0.2658
  267MOL0     C35948   5.898  -0.451  10.124 -0.2464 -0.0342  0.7160
  267MOL0     C35949   5.967  -0.415  10.255  0.8890  0.2571  0.5169
  267MOL0     C35950   5.972  -0.267  10.280 -0.1464  0.1048  0.3826
  267MOL0     C35951   6.113  -0.207  10.283  0.3254 -0.6495 -0.0456
  267MOL0     C35952   6.161  -0.195  10.425 -0.3266  0.2753  0.1136
  267MOL0     C35953   6.282  -0.106  10.447 -0.6824 -0.7292  0.1256
  267MOL0     C35954   6.410  -0.146  10.375 -0.0776  0.2481  0.8450
  267MOL0    Cl35955   6.451  -0.310  10.420 -0.0230  0.3975  0.2795
  267MOL0     C35956   5.747  -0.913  10.271  1.3408  0.0329  0.3467
  267MOL0     C35957   5.731  -1.051  10.243  0.5876 -0.7234 -1.2411
  267MOL0     O35958   5.575  -1.299  10.223 -0.6955  0.1921 -0.3528
  267MOL0     C35959   5.751  -1.516  10.019 -1.0753  1.1855  1.5525
  267MOL0     C35960   5.742  -1.640   9.952 -0.3216  0.3946  0.4656
  267MOL0     N35961   5.256  -1.539   9.665  0.1203 -0.6227  0.2607
  267MOL0     N35962   5.238  -1.412   9.696  0.0384  0.4197 -0.2174
  267MOL0     C35963   5.355  -0.258   9.850 -0.1492  0.9162  0.7091
  267MOL0     C35964   5.320  -0.132   9.822 -0.1345 -0.5719 -0.8163
  267MOL0     C35965   5.284   0.307   9.672 -0.2030 -0.1294  0.3770
  267MOL0     C35966   5.310   0.398   9.774  0.0086 -0.8327  0.1269
  267MOL0     C35967   5.265   0.539   9.767 -1.1392  0.5213  0.4174
  267MOL0     C35968   5.215   0.586   9.652 -0.4973  0.6448  0.0723
  267MOL0     O35969   5.186   0.718   9.633  0.5472 -0.6364 -1.2009
  267MOL0     C35970   5.287   0.822   9.639 -0.1849  1.2845 -0.8569
  267MOL0     C35971   5.364   0.838   9.507  0.6139  0.3474 -0.0763
  267MOL0     C35972   5.278   0.920   9.412 -0.1173 -0.2950  0.0374
  267MOL0     C35973   5.350   0.956   9.283 -0.5707  0.8736  0.4228
  267MOL0     C35974   5.307   1.077   9.227 -0.2667 -0.0686  0.7682
  267MOL0     C35975   5.270   1.174   9.170 -0.4498 -0.1100 -0.7331
  267MOL0     C35976   5.188   0.490   9.539  0.4855 -0.6675 -0.6554
  267MOL0     C35977   5.230   0.362   9.554 -0.8523  0.8632 -0.1146
  267MOL0     H35978   5.622   0.002   9.735 -1.3136 -0.6521 -0.3724
  267MOL0     H35979   5.684  -0.221   9.756 -0.1980  3.5134  1.5014
  267MOL0     H35980   5.676  -0.483   9.914  0.9935 -2.8897  0.3308
  267MOL0     H35981   5.541  -0.462  10.011 -0.5551 -0.4782  0.3544
  267MOL0     H35982   5.591  -0.698   9.824  0.5538 -0.4309  0.3721
  267MOL0     H35983   5.591  -0.708   9.998 -2.4929  0.2417  2.2074
  267MOL0     H35984   5.359  -0.617   9.996  4.9748  2.2403  1.1853
  267MOL0     H35985   5.361  -0.678   9.821  2.3533  0.0495 -1.3814
  267MOL0     H35986   5.390  -0.839  10.073 -1.1913 -0.8206  0.2391
  267MOL0     H35987   5.248  -0.845   9.957 -0.5258 -0.0712 -4.9426
  267MOL0     H35988   5.404  -0.931   9.781  0.0175 -2.2599 -0.9849
  267MOL0     H35989   5.533  -0.920   9.901 -0.7103  1.6194  0.0193
  267MOL0     H35990   5.404  -1.100  10.045 -1.2083 -0.1273  0.6283
  267MOL0     H35991   5.273  -1.095   9.924  0.6492 -0.2408 -2.0748
  267MOL0     H35992   5.556  -1.150   9.847  0.9091 -2.4243  2.6895
  267MOL0     H35993   5.457  -1.270   9.917  4.1587 -0.6330 -0.7373
  267MOL0     H35994   5.465  -1.167   9.637 -1.1494  1.9480  0.3745
  267MOL0     H35995   5.311  -1.146   9.688 -2.0636 -1.8085  0.2750
  267MOL0     H35996   5.558  -1.444   9.646  0.7721 -3.0663 -1.8992
  267MOL0     H35997   5.343  -1.735   9.536 -2.4045  3.5369  0.9815
  267MOL0     H35998   5.510  -1.688   9.499 -1.1154  1.0730 -1.2225
  267MOL0     H35999   5.450  -1.891   9.674  1.6424 -0.2144 -0.4234
  267MOL0     H36000   5.438  -1.739   9.779  2.0362  1.3696  0.8825
  267MOL0     H36001   5.678  -1.695   9.690  3.5094 -2.0023  0.3710
  267MOL0     H36002   5.660  -1.832   9.586 -3.2207 -0.3526 -0.9609
  267MOL0     H36003   5.800  -1.855   9.800 -0.0788 -1.4380 -3.1375
  267MOL0     H36004   5.685  -1.986   9.781 -0.7130 -0.2822 -0.0526
  267MOL0     H36005   5.454  -1.759  10.062 -1.7443  1.0988 -0.9785
  267MOL0     H36006   5.373  -1.438  10.157  1.4760  0.0501 -2.1802
  267MOL0     H36007   5.352  -1.616  10.181  1.4010 -2.7990  2.7125
  267MOL0     H36008   5.438  -1.523  10.295  0.4279 -0.2240 -0.4326
  267MOL0     H36009   5.811  -1.061   9.914 -1.0341 -0.5627  0.1942
  267MOL0     H36010   5.836  -0.828   9.951  0.5533  1.1368  1.7672
  267MOL0     H36011   5.985  -0.653  10.120 -0.2279 -0.7036 -1.1589
  267MOL0     H36012   5.860  -0.619  10.000 -0.3153  2.8760 -0.6275
  267MOL0     H36013   5.954  -0.414  10.038  0.2427  1.2545  1.5512
  267MOL0     H36014   5.795  -0.417  10.118 -0.4135 -0.8300 -1.4093
  267MOL0     H36015   6.063  -0.460  10.283  2.6948  2.5939 -1.4986
  267MOL0     H36016   5.892  -0.438  10.332  0.7161  0.0518  0.2897
  267MOL0     H36017   5.922  -0.219  10.196 -0.5057 -1.5324 -0.3791
  267MOL0     H36018   5.920  -0.235  10.371  0.4394 -0.0027  0.7620
  267MOL0     H36019   6.100  -0.112  10.230  1.3167 -0.3196  0.2762
  267MOL0     H36020   6.182  -0.263  10.218 -0.3665 -0.4460 -0.9821
  267MOL0     H36021   6.073  -0.144  10.465 -1.8070  0.0883 -2.6847
  267MOL0     H36022   6.169  -0.291  10.476 -1.2433 -0.2938 -0.7810
  267MOL0     H36023   6.294  -0.107  10.556 -3.5930  1.2043  0.5840
  267MOL0     H36024   6.268  -0.000  10.420  3.6382 -0.3497 -1.3058
  267MOL0     H36025   6.489  -0.075  10.399 -1.4678  2.0987  0.2089
  267MOL0     H36026   6.404  -0.157  10.266 -0.7159  0.6868  0.8314
  267MOL0     H36027   5.740  -0.865  10.368 -0.3371  1.8635 -0.6014
  267MOL0     H36028   5.707  -1.116  10.326  1.1768  2.5535  1.7069
  267MOL0     H36029   5.846  -1.465  10.008 -0.5975 -0.2432 -2.4217
  267MOL0     H36030   5.828  -1.679   9.899  2.2732 -1.5956  5.4455
  267MOL0     H36031   5.285  -0.335   9.880  0.2017  0.1689 -0.3462
  267MOL0     H36032   5.217  -0.099   9.836  0.6673  2.4161 -1.3380
  267MOL0     H36033   5.332   0.355   9.872 -1.9822 -1.1678  0.4763
  267MOL0     H36034   5.283   0.615   9.843  1.1351  1.5877 -1.0565
  267MOL0     H36035   5.232   0.909   9.677 -0.7415 -0.5301  2.9350
  267MOL0     H36036   5.353   0.791   9.720 -0.4349 -1.4542 -1.6130
  267MOL0     H36037   5.378   0.736   9.472  1.2528  1.4173 -3.2267
  267MOL0     H36038   5.460   0.888   9.526 -0.2628  2.8816 -1.8276
  267MOL0     H36039   5.237   1.008   9.462 -3.5748 -2.2636  0.9529
  267MOL0     H36040   5.192   0.855   9.394 -0.3753  0.0708 -0.0577
  267MOL0     H36041   5.337   0.876   9.210  1.2146 -0.4628  1.4845
  267MOL0     H36042   5.458   0.971   9.292 -0.2599 -1.3853  1.1269
  267MOL0     H36043   5.251   1.268   9.122  2.8926  0.7441 -0.6394
  267MOL0     H36044   5.158   0.515   9.438 -1.8448  1.5978  0.4729
  267MOL0     H36045   5.224   0.302   9.463  0.4232  2.1943 -1.1333
  268MOL0     O36046  11.064   6.538   5.905 -0.3863 -0.3150  0.3914
  268MOL0     C36047  10.989   6.598   5.986 -0.8618  0.2862 -0.0036
  268MOL0     O36048  10.948   6.725   5.969  0.0213 -1.0792 -0.1587
  268MOL0     C36049  10.958   6.786   5.844 -0.0004  0.6678 -0.3067
  268MOL0     C36050  11.075   6.801   5.777  0.1327 -0.6658  0.6681
  268MOL0     C36051  11.071   6.852   5.642  0.2747 -0.0614 -0.5110
  268MOL0     C36052  10.962   6.921   5.601  1.0586  0.1287  0.5150
  268MOL0     O36053  10.966   6.998   5.486 -0.1652 -0.0858 -0.5545
  268MOL0     C36054  11.079   7.066   5.449 -0.1283 -0.4692  0.5982
  268MOL0     C36055  11.158   6.993   5.340  0.3167 -0.7184  0.4376
  268MOL0     C36056  11.303   7.031   5.316  0.5546 -0.5773 -0.2887
  268MOL0     C36057  11.351   6.943   5.199 -0.1406  0.7310  0.4471
  268MOL0     C36058  11.505   6.950   5.213 -0.8090 -0.8192 -0.0217
  268MOL0     C36059  11.582   6.831   5.143  0.0440 -0.3296 -0.4260
  268MOL0     C36060  11.619   6.859   5.001  1.0979  0.2537  0.4376
  268MOL0     C36061  11.686   6.748   4.933  0.3997  0.5351  0.6343
  268MOL0     N36062  11.728   6.776   4.800 -0.0707  0.5529 -0.1885
  268MOL0     C36063  11.855   6.782   4.760 -0.8439 -0.1079 -0.3936
  268MOL0     C36064  11.838   6.808   4.629 -0.9466 -0.1027  0.2482
  268MOL0     C36065  11.942   6.791   4.526 -0.4829  0.2510 -0.4864
  268MOL0     C36066  11.984   6.642   4.507 -0.4994  0.3713  0.1173
  268MOL0     C36067  12.080   6.609   4.394 -0.5996  0.7948 -0.1247
  268MOL0     C36068  12.045   6.677   4.260 -1.0492  0.5453 -0.1481
  268MOL0     O36069  12.127   6.623   4.150  0.5651 -0.0243 -0.6170
  268MOL0     C36070  12.086   6.629   4.026 -0.5446 -0.6327  0.8344
  268MOL0     C36071  12.131   6.524   3.953 -0.4871 -0.1209 -1.6760
  268MOL0     C36072  12.094   6.495   3.825  0.2502 -0.3972  0.3806
  268MOL0     C36073  12.135   6.364   3.762 -0.2327  0.3743 -0.6318
  268MOL0     C36074  12.019   6.599   3.765 -0.3386 -0.1223 -0.4289
  268MOL0     C36075  11.991   6.585   3.620  0.3092  1.1038  0.2195
  268MOL0     O36076  12.093   6.578   3.538 -0.0065 -1.0026  0.3691
  268MOL0     C36077  12.068   6.506   3.419 -0.3894 -0.1797 -0.0520
  268MOL0     C36078  12.158   6.537   3.318 -0.4364 -0.1654  0.9420
  268MOL0     C36079  12.153   6.461   3.195  0.8405 -0.1955  0.1669
  268MOL0     C36080  12.062   6.349   3.185 -0.2766 -0.7855  1.0105
  268MOL0     O36081  12.044   6.270   3.070 -0.4478 -0.2025 -0.1637
  268MOL0     C36082  12.118   6.293   2.948  0.8286 -0.9586 -0.6854
  268MOL0     C36083  12.093   6.183   2.848  0.8100  0.6827  0.1370
  268MOL0     C36084  12.204   6.176   2.748  0.1817 -0.3910  0.8242
  268MOL0     C36085  12.167   6.084   2.635  0.0572  0.9782 -1.1452
  268MOL0     C36086  12.068   6.150   2.536 -0.5654  0.2448  0.6892
  268MOL0     C36087  12.057   6.070   2.410 -0.2393 -0.4575 -0.4212
  268MOL0     C36088  11.954   6.147   2.320 -0.2907  1.0692  0.3405
  268MOL0     C36089  11.966   6.092   2.171 -0.8255 -1.1933  0.1623
  268MOL0    Cl36090  11.862   5.959   2.181  0.5717 -0.2796 -0.1824
  268MOL0     C36091  11.977   6.320   3.287  0.5408  0.3209  0.4132
  268MOL0     C36092  11.986   6.393   3.404  0.0258 -0.4829  0.1264
  268MOL0     O36093  11.874   6.592   3.583  0.1513 -0.0463  0.2848
  268MOL0     C36094  11.970   6.713   3.836  0.0130  0.7710 -0.8478
  268MOL0     C36095  12.004   6.724   3.968 -1.1575 -0.7580 -0.0596
  268MOL0     N36096  11.706   6.823   4.593  0.6352 -0.4158  0.4632
  268MOL0     N36097  11.640   6.807   4.698 -0.3989  0.0475 -0.3822
  268MOL0     C36098  10.845   6.907   5.674  0.3124 -0.2863  0.6472
  268MOL0     C36099  10.850   6.847   5.801 -0.0062  0.1071  0.7097
  268MOL0     C36100  10.954   6.525   6.117 -0.1352 -0.1299  1.0190
  268MOL0     C36101  11.011   6.400   6.146  0.0799  0.6697 -0.3393
  268MOL0     C36102  10.982   6.350   6.276  0.2356  0.5041  0.6409
  268MOL0     C36103  10.882   6.401   6.363 -0.4478 -0.5782  0.3133
  268MOL0     O36104  10.857   6.333   6.477  0.5793  0.0205 -0.1541
  268MOL0     C36105  10.757   6.370   6.574 -0.1578 -0.6982  0.2012
  268MOL0     C36106  10.617   6.310   6.547  0.3036 -0.3690  1.2389
  268MOL0     C36107  10.611   6.160   6.554  0.3443 -0.5633 -0.2255
  268MOL0     C36108  10.479   6.085   6.505  0.1856 -1.1823  0.2377
  268MOL0     C36109  10.499   6.058   6.359  0.5259 -0.2336 -0.3024
  268MOL0     C36110  10.520   6.070   6.238  0.2601 -0.4561 -0.4957
  268MOL0     C36111  10.814   6.511   6.323  0.7671 -0.4063  1.2040
  268MOL0     C36112  10.853   6.581   6.209 -0.0120 -0.5840  1.0521
  268MOL0     H36113  11.170   6.776   5.823 -0.2792 -0.8389  1.4412
  268MOL0     H36114  11.164   6.868   5.590  0.0805  3.1822 -0.1040
  268MOL0     H36115  11.056   7.155   5.389 -0.6778 -0.3585  0.9737
  268MOL0     H36116  11.141   7.102   5.532 -1.5380  4.1325 -0.0890
  268MOL0     H36117  11.148   6.885   5.358 -0.3433 -0.8827 -0.7968
  268MOL0     H36118  11.112   7.017   5.244  0.1579  0.9998  0.9158
  268MOL0     H36119  11.317   7.137   5.295 -4.0243 -0.0428 -1.8326
  268MOL0     H36120  11.359   7.003   5.406 -4.8998 -3.5506  2.7567
  268MOL0     H36121  11.329   6.836   5.210  1.2279  0.5851  2.3233
  268MOL0     H36122  11.324   6.978   5.099  0.7891  1.0878  0.3155
  268MOL0     H36123  11.541   7.041   5.164 -2.6227 -0.4192 -0.6826
  268MOL0     H36124  11.531   6.955   5.319 -1.9557  1.3781  0.2034
  268MOL0     H36125  11.672   6.808   5.202 -1.1913 -1.9328  0.9017
  268MOL0     H36126  11.522   6.740   5.144 -1.3081  0.4674 -2.5874
  268MOL0     H36127  11.526   6.873   4.946 -0.1744 -3.8725  1.1625
  268MOL0     H36128  11.676   6.951   4.987 -0.6954  1.1139 -1.8674
  268MOL0     H36129  11.610   6.670   4.930  1.6721 -0.7157 -2.3507
  268MOL0     H36130  11.772   6.703   4.983  0.0550  0.5513  1.2506
  268MOL0     H36131  11.946   6.759   4.813 -2.6321  1.7780  3.9582
  268MOL0     H36132  11.902   6.829   4.431 -1.4697  2.0106  0.5842
  268MOL0     H36133  12.029   6.855   4.545  0.5659 -1.1347 -0.4339
  268MOL0     H36134  11.891   6.585   4.496 -1.4035  1.3797  2.0834
  268MOL0     H36135  12.033   6.605   4.598 -2.0570 -0.5570  0.6154
  268MOL0     H36136  12.095   6.502   4.376  1.0838  1.2797 -1.9108
  268MOL0     H36137  12.183   6.638   4.419 -0.1875 -0.1698 -0.6362
  268MOL0     H36138  12.044   6.787   4.253  1.7550  0.6771  0.4339
  268MOL0     H36139  11.944   6.643   4.236 -0.3416 -0.5835 -1.6643
  268MOL0     H36140  12.199   6.461   4.009  0.1543  1.0630 -1.0910
  268MOL0     H36141  12.215   6.317   3.818  0.2988  0.8352 -0.9880
  268MOL0     H36142  12.064   6.282   3.774  0.0167 -0.1788 -2.6064
  268MOL0     H36143  12.162   6.372   3.656  1.6184  0.6967 -0.1744
  268MOL0     H36144  12.233   6.614   3.328 -0.0539 -0.7494  3.0440
  268MOL0     H36145  12.216   6.494   3.114  3.3978 -2.4936  1.0751
  268MOL0     H36146  12.097   6.387   2.895 -1.2945 -1.8968 -1.6167
  268MOL0     H36147  12.224   6.295   2.974  1.3736 -1.1931 -2.6763
  268MOL0     H36148  12.072   6.085   2.892 -0.2943  0.6985 -0.3414
  268MOL0     H36149  12.000   6.203   2.794  0.7412 -0.6595 -0.2707
  268MOL0     H36150  12.288   6.136   2.806 -0.8470  1.2527  3.6763
  268MOL0     H36151  12.237   6.278   2.723 -0.1147  0.0957  2.3188
  268MOL0     H36152  12.256   6.047   2.582  0.5186 -1.8581  1.3292
  268MOL0     H36153  12.117   5.994   2.673 -0.0549  2.4252  2.5935
  268MOL0     H36154  12.095   6.253   2.507  0.4401 -0.8098 -2.5932
  268MOL0     H36155  11.969   6.154   2.584 -0.9146  0.9084 -0.0531
  268MOL0     H36156  12.148   6.055   2.351  2.3135  3.1416  2.1821
  268MOL0     H36157  12.008   5.976   2.438 -0.0076 -0.9235 -1.5082
  268MOL0     H36158  11.972   6.255   2.313 -1.7914  1.2640 -1.0431
  268MOL0     H36159  11.856   6.125   2.362 -0.6512 -1.3538 -1.5315
  268MOL0     H36160  12.067   6.081   2.129  0.1009  0.4183  1.8206
  268MOL0     H36161  11.927   6.173   2.108  1.4773  0.3550  0.6178
  268MOL0     H36162  11.906   6.239   3.277  1.1571 -0.1764  0.0033
  268MOL0     H36163  11.931   6.365   3.493  2.3070  1.3442  2.2686
  268MOL0     H36164  11.920   6.796   3.788 -1.1162  1.5891  1.5771
  268MOL0     H36165  11.975   6.814   4.020 -1.1792 -0.0525 -1.2594
  268MOL0     H36166  10.752   6.955   5.647  1.8225  2.3518 -0.2772
  268MOL0     H36167  10.771   6.860   5.874 -1.1007 -3.4471  0.3377
  268MOL0     H36168  11.086   6.356   6.081  1.5696  2.3357  0.1789
  268MOL0     H36169  11.038   6.259   6.292 -0.6150 -0.1710 -0.1414
  268MOL0     H36170  10.782   6.318   6.667 -0.3633 -1.7568 -0.3098
  268MOL0     H36171  10.747   6.478   6.582 -2.9022 -0.3976 -4.0902
  268MOL0     H36172  10.583   6.337   6.447  1.7239  1.0056  1.0867
  268MOL0     H36173  10.556   6.355   6.626  1.2293  1.0090  1.2066
  268MOL0     H36174  10.635   6.125   6.654 -0.9884 -0.6420  0.0794
  268MOL0     H36175  10.691   6.128   6.486 -1.2079  1.3391 -3.1864
  268MOL0     H36176  10.384   6.137   6.520  0.8641  0.0209  0.5021
  268MOL0     H36177  10.490   5.986   6.550  1.7790 -2.5134 -2.7492
  268MOL0     H36178  10.563   6.098   6.144 -1.9081  5.9040 -0.0511
  268MOL0     H36179  10.733   6.557   6.378  2.0074  1.8376  1.2747
  268MOL0     H36180  10.820   6.682   6.188  2.0267  0.1379  1.1010
  269MOL0     O36181   5.161   5.920   8.844 -0.3589 -0.0507 -0.3133
  269MOL0     C36182   5.144   5.834   8.764  0.7143 -0.4300  0.1060
  269MOL0     O36183   5.145   5.699   8.775  0.2472 -0.1034  0.2059
  269MOL0     C36184   5.179   5.644   8.894 -0.6696  0.0605 -0.8857
  269MOL0     C36185   5.093   5.633   9.005 -0.3548  0.7083  0.3807
  269MOL0     C36186   5.134   5.567   9.120  0.8600 -0.0995 -0.2150
  269MOL0     C36187   5.260   5.502   9.120  0.0508 -0.3922 -0.1395
  269MOL0     O36188   5.313   5.415   9.212 -0.0266 -0.4374  0.2330
  269MOL0     C36189   5.221   5.347   9.304  0.7874 -0.3249 -0.3778
  269MOL0     C36190   5.287   5.301   9.425  0.3189  0.6277 -0.1196
  269MOL0     C36191   5.322   5.408   9.528  0.4481 -0.0879 -0.0808
  269MOL0     C36192   5.196   5.485   9.571 -0.2831  0.9934  0.5387
  269MOL0     C36193   5.223   5.579   9.690  0.3719  1.0393 -0.9086
  269MOL0     C36194   5.231   5.493   9.822 -0.0781  0.0221  0.0739
  269MOL0     C36195   5.249   5.585   9.951 -0.6011  0.5558  0.6400
  269MOL0     C36196   5.192   5.511  10.070  1.0273  0.6042 -0.1895
  269MOL0     N36197   5.264   5.394  10.095 -0.5605 -0.5648  0.2016
  269MOL0     C36198   5.384   5.391  10.165  1.1248 -0.9241  0.6283
  269MOL0     C36199   5.432   5.266  10.148  0.1054  0.8137  0.6435
  269MOL0     C36200   5.563   5.231  10.211  0.9446  0.5921 -0.0533
  269MOL0     C36201   5.679   5.322  10.166  0.5691  0.5568 -0.8383
  269MOL0     C36202   5.808   5.246  10.202 -0.2315 -0.5990 -0.9327
  269MOL0     C36203   5.938   5.301  10.137 -0.8726 -0.2870  0.4839
  269MOL0     O36204   5.960   5.440  10.149 -0.6441  0.2283  0.2254
  269MOL0     C36205   6.075   5.487  10.090  0.1719 -0.9250 -0.0261
  269MOL0     C36206   6.181   5.400  10.032 -0.3743 -0.4713 -0.2302
  269MOL0     C36207   6.298   5.446   9.981  0.4470  0.9865 -0.2216
  269MOL0     C36208   6.393   5.346   9.922 -0.6127 -0.5849  0.8306
  269MOL0     C36209   6.315   5.590   9.984  0.4129  0.0688  0.2332
  269MOL0     C36210   6.449   5.635   9.942  0.9085  0.9689  0.3850
  269MOL0     O36211   6.471   5.735   9.853 -0.1296  0.1353  0.3317
  269MOL0     C36212   6.366   5.815   9.805 -0.5459  0.3578  0.4979
  269MOL0     C36213   6.372   5.945   9.857 -0.5153  0.9803 -0.4835
  269MOL0     C36214   6.276   6.033   9.819 -0.2165  0.1039 -0.0842
  269MOL0     C36215   6.169   5.994   9.740  0.7879  0.0332  0.4875
  269MOL0     O36216   6.066   6.096   9.720  0.8077  0.7410 -0.5906
  269MOL0     C36217   5.954   6.079   9.637  0.4437 -0.1404  0.1694
  269MOL0     C36218   5.890   6.215   9.601  0.8965  0.1071 -0.4584
  269MOL0     C36219   5.893   6.308   9.728  0.4536  0.5982 -0.4173
  269MOL0     C36220   5.814   6.434   9.681  0.0014  0.1550 -0.8023
  269MOL0     C36221   5.838   6.534   9.790 -0.6915  0.5838  0.1572
  269MOL0     C36222   5.786   6.677   9.773  0.0446 -0.8240 -1.0399
  269MOL0     C36223   5.827   6.774   9.884  1.4533 -0.5129  0.0795
  269MOL0     C36224   5.745   6.763  10.014  0.1476  0.0364  1.5233
  269MOL0    Cl36225   5.786   6.914  10.086  0.1993  0.0456 -0.2059
  269MOL0     C36226   6.168   5.870   9.684  0.5422 -0.1982 -0.8062
  269MOL0     C36227   6.264   5.776   9.706 -0.1850  0.6801 -1.1986
  269MOL0     O36228   6.538   5.598  10.014  0.2535  0.8568 -0.0558
  269MOL0     C36229   6.215   5.678  10.039  0.0959  1.1058  0.8798
  269MOL0     C36230   6.092   5.627  10.083  0.8488 -0.4091  0.6644
  269MOL0     N36231   5.339   5.193  10.072  0.9979 -0.5450 -0.5494
  269MOL0     N36232   5.233   5.265  10.054 -0.4645  0.7911  0.4224
  269MOL0     C36233   5.339   5.501   9.004 -0.2443  1.3236  0.0318
  269MOL0     C36234   5.301   5.572   8.896  0.8358  0.3407  0.6612
  269MOL0     C36235   5.096   5.863   8.631 -0.4533  0.6644 -0.5627
  269MOL0     C36236   5.060   5.771   8.529 -0.7605  0.7195  0.2495
  269MOL0     C36237   5.010   5.807   8.405  0.2971  0.4415  0.3250
  269MOL0     C36238   4.978   5.940   8.375 -0.2119 -0.1098 -0.1410
  269MOL0     O36239   4.939   5.974   8.249  0.5226  0.0769 -0.1638
  269MOL0     C36240   4.934   6.110   8.205 -0.0625 -0.2417 -0.7372
  269MOL0     C36241   4.887   6.122   8.058  0.6300 -0.1124  0.1613
  269MOL0     C36242   4.968   6.030   7.976 -1.7167  0.5424 -0.0983
  269MOL0     C36243   4.933   6.041   7.826 -0.2120 -0.0973 -0.8941
  269MOL0     C36244   5.008   6.158   7.778 -0.5186  0.2394  0.2512
  269MOL0     C36245   5.053   6.271   7.753  0.2210  0.6669  0.2737
  269MOL0     C36246   5.031   6.035   8.465 -0.1139 -0.7423  0.5773
  269MOL0     C36247   5.093   5.997   8.582 -0.2098 -0.3106 -0.4528
  269MOL0     H36248   4.996   5.679   8.990 -0.4666 -0.1623 -1.8925
  269MOL0     H36249   5.066   5.555   9.204  1.2907 -0.1770  0.1262
  269MOL0     H36250   5.133   5.408   9.328 -1.9194 -3.9857 -0.1736
  269MOL0     H36251   5.191   5.257   9.251  0.8582 -1.0342  0.7435
  269MOL0     H36252   5.223   5.235   9.484  1.9134 -0.9026 -0.0165
  269MOL0     H36253   5.378   5.250   9.392 -0.9066  0.7962 -4.2494
  269MOL0     H36254   5.373   5.354   9.608  3.2289  0.0297 -1.6251
  269MOL0     H36255   5.385   5.490   9.491  0.3440  1.1753  2.3328
  269MOL0     H36256   5.168   5.551   9.489 -0.7820  0.7820  0.5363
  269MOL0     H36257   5.127   5.406   9.602  3.0414 -1.9683  1.0601
  269MOL0     H36258   5.316   5.635   9.680  0.7169  1.5332  3.2068
  269MOL0     H36259   5.143   5.653   9.700 -1.5227 -1.1125  1.0704
  269MOL0     H36260   5.145   5.431   9.847 -0.8195 -0.0108 -2.2959
  269MOL0     H36261   5.311   5.419   9.822  1.3084  1.4127 -1.7376
  269MOL0     H36262   5.355   5.595   9.977 -0.9858  0.3181  2.4206
  269MOL0     H36263   5.209   5.685   9.932 -0.5855  1.7460  5.6333
  269MOL0     H36264   5.089   5.476  10.056  2.1505 -5.7673  3.2624
  269MOL0     H36265   5.199   5.582  10.153 -1.6229  1.5189 -0.6396
  269MOL0     H36266   5.436   5.464  10.226  2.2087 -0.6596 -0.5651
  269MOL0     H36267   5.532   5.243  10.315 -0.2063  1.4127 -0.4733
  269MOL0     H36268   5.577   5.122  10.205  0.2558  0.3647  1.7853
  269MOL0     H36269   5.669   5.415  10.223 -1.1653 -0.9723  1.5320
  269MOL0     H36270   5.687   5.334  10.058  2.9096 -1.7786 -1.0279
  269MOL0     H36271   5.811   5.143  10.163 -0.4441 -1.5050  1.3278
  269MOL0     H36272   5.801   5.239  10.311 -0.7359 -2.5781 -1.0426
  269MOL0     H36273   5.933   5.267  10.033 -1.1358  0.7118  0.1640
  269MOL0     H36274   6.012   5.239  10.188 -1.8528 -1.4208  0.5863
  269MOL0     H36275   6.162   5.293  10.026  1.8140 -1.0633  1.7922
  269MOL0     H36276   6.350   5.246   9.917  0.2884 -0.9561 -3.3506
  269MOL0     H36277   6.420   5.369   9.818 -5.8713  0.7333 -0.5262
  269MOL0     H36278   6.481   5.348   9.987  2.5196  0.8423 -2.9801
  269MOL0     H36279   6.441   5.963   9.938  1.4243  0.3790 -1.9218
  269MOL0     H36280   6.272   6.137   9.850  0.2059  0.8404 -2.2943
  269MOL0     H36281   5.993   6.033   9.546  0.2601 -0.0432  0.0417
  269MOL0     H36282   5.884   6.011   9.687 -1.1744  0.2815 -1.4246
  269MOL0     H36283   5.964   6.259   9.534  0.0040  1.3061 -0.6834
  269MOL0     H36284   5.792   6.203   9.555 -1.2782  0.1277  3.7055
  269MOL0     H36285   5.996   6.325   9.760 -0.3076 -1.6169  3.9880
  269MOL0     H36286   5.835   6.276   9.815 -1.6150  2.4775 -1.0150
  269MOL0     H36287   5.858   6.459   9.583  1.0742  0.9530 -0.1363
  269MOL0     H36288   5.705   6.420   9.680  0.1147 -0.7859 -0.5650
  269MOL0     H36289   5.946   6.529   9.809 -1.0375 -1.2627  2.1082
  269MOL0     H36290   5.807   6.497   9.888 -0.7715  1.4517  0.4651
  269MOL0     H36291   5.807   6.721   9.675 -0.9737  2.5832  0.1413
  269MOL0     H36292   5.677   6.674   9.768 -0.0579 -0.5585  0.5820
  269MOL0     H36293   5.802   6.871   9.839  0.9360 -0.7816 -0.2188
  269MOL0     H36294   5.934   6.760   9.902  1.6276 -2.3175 -1.9560
  269MOL0     H36295   5.788   6.681  10.072 -2.5293 -2.4831  0.1995
  269MOL0     H36296   5.637   6.747   9.999  0.5403 -1.4959  0.1018
  269MOL0     H36297   6.080   5.843   9.627 -1.6358  2.3385  1.0681
  269MOL0     H36298   6.259   5.672   9.674 -1.6594  0.5401 -0.6050
  269MOL0     H36299   6.216   5.786  10.026  1.2333  1.0613  0.5441
  269MOL0     H36300   6.008   5.689  10.113 -0.9493 -0.8935 -2.8936
  269MOL0     H36301   5.433   5.446   9.005 -1.6375 -1.2572 -0.9047
  269MOL0     H36302   5.374   5.570   8.816  0.0856 -2.4539 -0.0326
  269MOL0     H36303   5.091   5.668   8.544  0.9411  1.3156  0.9817
  269MOL0     H36304   4.993   5.723   8.339  2.2815  2.1295 -2.4958
  269MOL0     H36305   4.854   6.166   8.256  0.9147  2.3748 -1.9174
  269MOL0     H36306   5.032   6.157   8.215 -0.5091  0.7361 -0.8043
  269MOL0     H36307   4.894   6.225   8.023  2.2330 -0.1114  0.4083
  269MOL0     H36308   4.781   6.100   8.049  0.8320 -0.7337 -0.8365
  269MOL0     H36309   4.956   5.927   8.010  1.2311 -0.1786 -0.8816
  269MOL0     H36310   5.072   6.049   8.004 -1.7945  1.9887 -0.6711
  269MOL0     H36311   4.829   6.070   7.810 -1.2584 -3.4689 -1.0183
  269MOL0     H36312   4.940   5.950   7.765  0.1977 -1.1851  0.7028
  269MOL0     H36313   5.096   6.364   7.721 -0.0088  0.1672 -1.5483
  269MOL0     H36314   5.027   6.142   8.450  0.0376 -0.6891  0.9187
  269MOL0     H36315   5.135   6.080   8.638 -2.3194  2.1987 -2.2917
  270MOL0     O36316   6.377   2.831   0.537  0.2151 -0.0645 -0.6249
  270MOL0     C36317   6.432   2.848   0.646 -0.0625 -1.1175 -0.9801
  270MOL0     O36318   6.493   2.754   0.722  0.4333 -0.0487 -0.6975
  270MOL0     C36319   6.509   2.632   0.666 -0.1024 -0.5818  0.5636
  270MOL0     C36320   6.635   2.598   0.606  0.1921 -0.4357  0.0024
  270MOL0     C36321   6.644   2.476   0.542 -0.0196 -0.8149  0.0338
  270MOL0     C36322   6.543   2.378   0.546 -0.2698 -0.1634 -0.2464
  270MOL0     O36323   6.554   2.252   0.492 -0.5368  0.8691 -0.4586
  270MOL0     C36324   6.640   2.223   0.382  0.2647  0.7613  0.5798
  270MOL0     C36325   6.586   2.296   0.263 -0.5559  0.2799 -0.3780
  270MOL0     C36326   6.657   2.257   0.131  0.1987  0.1850  0.3036
  270MOL0     C36327   6.805   2.304   0.117 -0.2537 -0.3479  0.0925
  270MOL0     C36328   6.887   2.256  -0.015  0.4497  0.6421 -0.7852
  270MOL0     C36329   6.870   2.103  -0.028 -0.7972 -0.5836  0.3795
  270MOL0     C36330   6.961   2.056  -0.146  0.0516 -0.1795 -1.5610
  270MOL0     C36331   6.940   1.900  -0.165 -0.5596  1.2313  0.5253
  270MOL0     N36332   7.044   1.836  -0.081 -0.1059  0.5164 -0.0560
  270MOL0     C36333   7.134   1.736  -0.116  0.4598 -0.1286  0.5538
  270MOL0     C36334   7.164   1.656  -0.007 -0.0442  0.2230  1.1730
  270MOL0     C36335   7.235   1.530  -0.007 -0.0274  0.6522 -0.4093
  270MOL0     C36336   7.163   1.418  -0.068  0.1314 -0.2874  1.1432
  270MOL0     C36337   7.034   1.377   0.018 -0.4738 -0.0581 -0.4213
  270MOL0     C36338   6.967   1.272  -0.062  1.3280 -0.4959 -0.4889
  270MOL0     O36339   6.835   1.241   0.000 -0.1214 -0.7876  0.1971
  270MOL0     C36340   6.773   1.116  -0.037 -0.6390 -0.7607  0.5757
  270MOL0     C36341   6.779   1.070  -0.173  0.1453  0.4789  0.4536
  270MOL0     C36342   6.698   0.966  -0.213  0.3538  0.0418 -0.0477
  270MOL0     C36343   6.704   0.920  -0.360  0.0492 -0.2487 -0.0914
  270MOL0     C36344   6.625   0.897  -0.114 -0.0971  0.3225  0.6372
  270MOL0     C36345   6.569   0.759  -0.131  1.1998 -0.6470 -0.2710
  270MOL0     O36346   6.469   0.717  -0.046  0.3653 -0.7334  0.3973
  270MOL0     C36347   6.415   0.597  -0.077  0.8593  1.0728  0.1671
  270MOL0     C36348   6.369   0.559  -0.198  0.1081  0.5593  0.4339
  270MOL0     C36349   6.298   0.442  -0.217  0.7041 -0.6936  0.3262
  270MOL0     C36350   6.266   0.367  -0.104 -0.7335 -0.3455  0.6117
  270MOL0     O36351   6.209   0.242  -0.117  0.7347  0.1497  0.6746
  270MOL0     C36352   6.206   0.162  -0.243  0.2987 -0.3200  0.0775
  270MOL0     C36353   6.334   0.082  -0.275 -0.7312  0.2855  0.1228
  270MOL0     C36354   6.393   0.002  -0.143  0.2679  0.7428  0.0137
  270MOL0     C36355   6.470  -0.124  -0.189  1.0213  0.9517 -0.3610
  270MOL0     C36356   6.364  -0.237  -0.235 -0.1671  0.5247 -0.1948
  270MOL0     C36357   6.434  -0.359  -0.284 -0.0420  0.3571  0.6328
  270MOL0     C36358   6.478  -0.458  -0.177  0.8287 -0.2867  0.2369
  270MOL0     C36359   6.495  -0.603  -0.224 -0.2874 -0.6850  0.5852
  270MOL0    Cl36360   6.355  -0.698  -0.288  0.0867 -0.0036  0.2763
  270MOL0     C36361   6.293   0.412   0.020 -0.4448 -0.6466 -0.1663
  270MOL0     C36362   6.358   0.527   0.036  0.9645 -0.5021 -0.2507
  270MOL0     O36363   6.624   0.685  -0.215 -0.8896  0.2021 -0.5105
  270MOL0     C36364   6.619   0.951   0.017  0.2984 -0.5137  0.0104
  270MOL0     C36365   6.694   1.061   0.056  0.4705  0.0775 -0.6458
  270MOL0     N36366   7.102   1.713   0.100 -0.4641  0.6557  1.2940
  270MOL0     N36367   7.037   1.819   0.059  0.7294  0.4650  0.2961
  270MOL0     C36368   6.432   2.409   0.628 -0.0040  1.0286 -0.1350
  270MOL0     C36369   6.416   2.535   0.678  0.5587  0.7469  0.7504
  270MOL0     C36370   6.419   2.978   0.713 -0.8186 -0.3012 -0.1574
  270MOL0     C36371   6.486   3.007   0.829  0.5039 -0.4920 -0.5185
  270MOL0     C36372   6.471   3.130   0.887  0.5826  0.5480 -0.7461
  270MOL0     C36373   6.395   3.234   0.831  0.4362 -0.7878  0.1474
  270MOL0     O36374   6.401   3.353   0.893  1.2912 -0.1126 -0.1579
  270MOL0     C36375   6.358   3.477   0.836 -0.5110 -0.1401 -0.0420
  270MOL0     C36376   6.288   3.572   0.946 -0.1966 -0.0138 -0.3768
  270MOL0     C36377   6.376   3.585   1.078  0.5445  0.6836  0.5647
  270MOL0     C36378   6.493   3.681   1.070  0.3426  0.4872  0.0050
  270MOL0     C36379   6.437   3.817   1.057  0.1640 -0.0848  0.8236
  270MOL0     C36380   6.374   3.921   1.056  1.2791  0.6448  0.2844
  270MOL0     C36381   6.324   3.208   0.709 -0.4186  0.2459 -0.0537
  270MOL0     C36382   6.341   3.085   0.654  0.3626  0.5619  0.0188
  270MOL0     H36383   6.719   2.667   0.603  0.3119 -0.5959 -0.4020
  270MOL0     H36384   6.730   2.460   0.478  3.1141  0.0897  3.6212
  270MOL0     H36385   6.743   2.251   0.403  0.2166 -0.6929  3.1888
  270MOL0     H36386   6.633   2.116   0.357 -1.7609  1.8555 -5.1611
  270MOL0     H36387   6.478   2.277   0.255 -0.3065 -1.1450 -0.6358
  270MOL0     H36388   6.601   2.403   0.281 -2.4705  0.8073 -1.6044
  270MOL0     H36389   6.644   2.149   0.140 -3.2071  0.5185  0.7339
  270MOL0     H36390   6.590   2.303   0.057 -0.3701  0.2182  0.8254
  270MOL0     H36391   6.805   2.413   0.102 -1.6796 -0.6800 -3.5299
  270MOL0     H36392   6.854   2.276   0.210 -2.2793  0.3977  1.4466
  270MOL0     H36393   6.851   2.295  -0.111  1.3434  0.8463 -1.0535
  270MOL0     H36394   6.991   2.287  -0.002 -0.5492  4.4386 -0.5468
  270MOL0     H36395   6.899   2.058   0.068  0.5714 -0.4421  0.0465
  270MOL0     H36396   6.765   2.083  -0.049 -1.0623  0.9130  0.1890
  270MOL0     H36397   6.937   2.115  -0.235 -0.5103  2.7557  0.3937
  270MOL0     H36398   7.064   2.082  -0.121  0.4664 -0.1883 -3.1635
  270MOL0     H36399   6.958   1.881  -0.271  0.0904  1.7387  0.5304
  270MOL0     H36400   6.840   1.864  -0.141 -0.2591 -1.1147 -1.3614
  270MOL0     H36401   7.163   1.713  -0.217 -1.6185 -0.3025 -0.0567
  270MOL0     H36402   7.322   1.548  -0.071 -0.5504  0.8455 -1.0828
  270MOL0     H36403   7.267   1.512   0.096  0.7656  2.7276 -0.2566
  270MOL0     H36404   7.233   1.339  -0.096  0.5276 -0.4370  2.4890
  270MOL0     H36405   7.131   1.447  -0.168  2.1414 -1.1090  0.2169
  270MOL0     H36406   6.959   1.452   0.042 -2.5055 -2.5715  1.8000
  270MOL0     H36407   7.071   1.337   0.112 -2.8811 -1.1157  0.1642
  270MOL0     H36408   7.027   1.181  -0.072 -0.3415 -2.3211  3.8443
  270MOL0     H36409   6.953   1.303  -0.166  1.8541 -0.0197 -0.4202
  270MOL0     H36410   6.847   1.125  -0.237  1.4307 -1.0557  0.4120
  270MOL0     H36411   6.766   0.830  -0.356  2.2628  1.2223  1.2299
  270MOL0     H36412   6.612   0.908  -0.417  2.0248 -0.8605 -3.4030
  270MOL0     H36413   6.768   0.992  -0.412  0.6775 -1.5222 -1.1400
  270MOL0     H36414   6.378   0.624  -0.284 -1.5071 -0.6911 -0.7506
  270MOL0     H36415   6.245   0.421  -0.309 -2.9715  4.3331  0.8727
  270MOL0     H36416   6.125   0.089  -0.245 -0.6755  0.6788  1.3913
  270MOL0     H36417   6.175   0.234  -0.319 -1.3838  0.5346  1.4806
  270MOL0     H36418   6.306   0.009  -0.351 -0.9175 -1.3765  1.7121
  270MOL0     H36419   6.409   0.154  -0.309  0.0061  0.4219  1.9000
  270MOL0     H36420   6.310  -0.026  -0.077  0.2516 -2.1428 -1.0703
  270MOL0     H36421   6.469   0.057  -0.087  0.9038 -1.2970  1.2742
  270MOL0     H36422   6.550  -0.096  -0.258  1.0334 -1.8439 -1.6100
  270MOL0     H36423   6.518  -0.160  -0.098 -2.9084 -0.9644  1.2019
  270MOL0     H36424   6.303  -0.208  -0.321 -0.1455 -0.8509 -0.7017
  270MOL0     H36425   6.290  -0.264  -0.159 -0.0144  0.7933  0.0545
  270MOL0     H36426   6.360  -0.405  -0.349  0.3494  2.1904 -1.2028
  270MOL0     H36427   6.515  -0.333  -0.353 -0.1391 -3.8857 -1.4215
  270MOL0     H36428   6.393  -0.458  -0.108 -0.9408 -1.1075 -1.8118
  270MOL0     H36429   6.562  -0.417  -0.121  1.6255  0.4686 -1.4358
  270MOL0     H36430   6.583  -0.605  -0.290  0.1684  0.0879  1.1573
  270MOL0     H36431   6.522  -0.660  -0.135 -0.2788 -1.2003  0.2603
  270MOL0     H36432   6.257   0.360   0.108 -0.2309 -0.8428 -0.1926
  270MOL0     H36433   6.380   0.560   0.137  0.4186 -0.1541 -0.2426
  270MOL0     H36434   6.549   0.902   0.084 -0.0795 -2.9457 -2.0088
  270MOL0     H36435   6.693   1.099   0.157 -1.7110  1.1092 -1.0080
  270MOL0     H36436   6.364   2.325   0.640  0.5573  0.6455  0.4014
  270MOL0     H36437   6.326   2.544   0.738  0.0078 -2.7797  0.6486
  270MOL0     H36438   6.575   2.957   0.864  2.7761  1.6492 -2.8135
  270MOL0     H36439   6.537   3.146   0.971  0.7079  1.5517 -1.0158
  270MOL0     H36440   6.445   3.508   0.777 -0.3087 -0.9106 -0.1679
  270MOL0     H36441   6.283   3.469   0.756  0.6253  1.2237 -1.3120
  270MOL0     H36442   6.193   3.535   0.986 -0.4310  2.4305  1.5661
  270MOL0     H36443   6.257   3.667   0.901  2.3252 -0.5775 -3.6326
  270MOL0     H36444   6.406   3.485   1.112 -1.3119  0.0533  0.4416
  270MOL0     H36445   6.309   3.615   1.159 -0.9835  0.5904 -0.6348
  270MOL0     H36446   6.564   3.656   0.991  0.9283 -0.9276  0.9528
  270MOL0     H36447   6.556   3.677   1.160  2.7864 -1.1542 -1.6502
  270MOL0     H36448   6.321   4.013   1.063 -0.4550 -0.1624 -1.4406
  270MOL0     H36449   6.266   3.286   0.662  0.9856  2.4813  1.6980
  270MOL0     H36450   6.289   3.065   0.560  2.8691 -0.7780 -1.1847
  271MOL0     O36451   1.018   8.131   0.654  1.0061  0.0636 -1.1425
  271MOL0     C36452   0.942   8.088   0.562 -0.3248  0.1795 -0.0176
  271MOL0     O36453   0.827   8.154   0.517 -0.9554  0.4802  0.6991
  271MOL0     C36454   0.801   8.272   0.575  0.1860 -0.3848 -0.0944
  271MOL0     C36455   0.680   8.287   0.647  0.0969 -0.3263  0.0292
  271MOL0     C36456   0.638   8.410   0.700 -0.0826  0.6869 -0.7877
  271MOL0     C36457   0.730   8.511   0.695  0.9585 -1.0580  0.0887
  271MOL0     O36458   0.704   8.645   0.747  0.4849  0.2869 -0.1499
  271MOL0     C36459   0.598   8.655   0.847 -0.0673  0.0781  0.4697
  271MOL0     C36460   0.575   8.804   0.878 -0.1934  1.0626  0.3867
  271MOL0     C36461   0.691   8.855   0.974  0.9543 -0.1131 -0.0391
  271MOL0     C36462   0.694   9.009   0.953 -0.1859  0.6523 -0.0678
  271MOL0     C36463   0.787   9.066   1.056 -0.8032  0.6844  0.0343
  271MOL0     C36464   0.811   9.205   1.009 -0.0607 -0.4100  0.3739
  271MOL0     C36465   0.850   9.312   1.113 -1.0111 -0.8356  0.7003
  271MOL0     C36466   0.883   9.445   1.053  0.2005  0.8425 -0.1295
  271MOL0     N36467   0.973   9.441   0.942 -0.2491  0.2558  0.0779
  271MOL0     C36468   0.953   9.469   0.814  0.4343  0.2694 -0.0140
  271MOL0     C36469   1.081   9.463   0.761  0.3127 -0.0469  0.5392
  271MOL0     C36470   1.128   9.485   0.624  0.7659  0.4007  1.6656
  271MOL0     C36471   1.189   9.622   0.594 -0.5677  0.2429 -0.6522
  271MOL0     C36472   1.134   9.751   0.657  1.1583 -0.2906  0.0007
  271MOL0     C36473   0.982   9.771   0.627 -0.0083  0.3668  0.1314
  271MOL0     O36474   0.911   9.895   0.657  0.0641 -0.5733 -0.2717
  271MOL0     C36475   0.848   9.921   0.775 -0.2307 -0.1039 -0.3088
  271MOL0     C36476   0.873   9.861   0.898 -0.6751 -0.9957  0.0374
  271MOL0     C36477   0.813   9.902   1.019 -0.7164 -0.4162 -0.1689
  271MOL0     C36478   0.858   9.830   1.147 -0.5396 -0.5992  0.0984
  271MOL0     C36479   0.731  10.023   1.020 -0.3833  0.4658 -0.5037
  271MOL0     C36480   0.650  10.073   1.145  0.6769 -0.4180 -0.8963
  271MOL0     O36481   0.716  10.066   1.260  0.4618  0.1710 -0.2670
  271MOL0     C36482   0.663  10.064   1.382  0.1064 -0.5639  0.5020
  271MOL0     C36483   0.736  10.113   1.498 -0.1110 -0.4505 -0.8806
  271MOL0     C36484   0.686  10.107   1.628  0.4118  0.6019 -0.2383
  271MOL0     C36485   0.563  10.050   1.654  1.3781  0.4179 -0.5317
  271MOL0     O36486   0.493  10.068   1.774 -0.3052  1.6792 -0.3891
  271MOL0     C36487   0.572  10.017   1.889  0.0083 -0.3337  0.8638
  271MOL0     C36488   0.619   9.873   1.881  0.6291  0.1467 -0.2555
  271MOL0     C36489   0.513   9.772   1.841 -0.1695 -0.1634  0.7288
  271MOL0     C36490   0.558   9.625   1.883 -0.0133  0.0512  0.5712
  271MOL0     C36491   0.438   9.545   1.928  0.4931 -0.3849 -1.1563
  271MOL0     C36492   0.333   9.528   1.819  0.7207  0.6923  0.0498
  271MOL0     C36493   0.220   9.422   1.840  0.1744  0.4384 -0.4500
  271MOL0     C36494   0.173   9.409   1.992 -0.2049  1.2206  0.8893
  271MOL0    Cl36495   0.105   9.239   1.991  0.5434 -0.1165  0.4093
  271MOL0     C36496   0.481  10.020   1.541  0.6022  0.6199  0.6374
  271MOL0     C36497   0.529  10.021   1.411 -0.6152  0.3302  1.4119
  271MOL0     O36498   0.533  10.113   1.133 -0.7032  0.0549  0.7479
  271MOL0     C36499   0.713  10.088   0.896  0.6515  0.7829 -0.6371
  271MOL0     C36500   0.771  10.037   0.779 -0.0527 -0.9431 -0.2323
  271MOL0     N36501   1.179   9.414   0.850  0.4225 -0.8684  0.5018
  271MOL0     N36502   1.108   9.408   0.956 -0.4488 -0.4420 -0.1230
  271MOL0     C36503   0.846   8.507   0.619 -0.7287  0.2339 -1.5508
  271MOL0     C36504   0.883   8.387   0.559 -0.1187 -0.0227  0.3548
  271MOL0     C36505   0.961   7.946   0.498  0.5066 -0.2615 -0.2967
  271MOL0     C36506   0.882   7.907   0.399  0.2858  0.4858  0.9981
  271MOL0     C36507   0.894   7.770   0.352 -1.3393 -0.1704 -0.6923
  271MOL0     C36508   1.002   7.690   0.395 -0.4255 -0.2142  0.2077
  271MOL0     O36509   1.010   7.571   0.330 -0.4637  0.2748  0.1007
  271MOL0     C36510   1.093   7.472   0.406 -0.6856 -0.3978 -0.5530
  271MOL0     C36511   1.130   7.372   0.297 -0.7534 -0.1663  0.6132
  271MOL0     C36512   1.014   7.265   0.271  0.6777 -0.2655  0.6774
  271MOL0     C36513   0.895   7.299   0.172  0.0070  0.2516  0.3408
  271MOL0     C36514   0.952   7.261   0.042  0.3650  0.6280 -0.5723
  271MOL0     C36515   0.998   7.228  -0.066 -0.5434 -0.0496 -0.4806
  271MOL0     C36516   1.078   7.735   0.508  0.3454 -0.4125  1.3928
  271MOL0     C36517   1.056   7.861   0.554  0.4343  0.0220  0.0205
  271MOL0     H36518   0.614   8.202   0.659  1.9124 -1.7211  0.7097
  271MOL0     H36519   0.558   8.420   0.773  0.4599 -1.4724  0.1825
  271MOL0     H36520   0.504   8.617   0.807 -1.5238  0.2019  3.4831
  271MOL0     H36521   0.630   8.592   0.930  0.4273  0.5873  0.6725
  271MOL0     H36522   0.569   8.860   0.785 -1.3473 -0.0883 -0.2612
  271MOL0     H36523   0.485   8.822   0.937  1.1155  0.8352  2.5968
  271MOL0     H36524   0.665   8.833   1.078 -3.0859 -1.5344 -1.1632
  271MOL0     H36525   0.782   8.798   0.954 -0.1563 -1.3651 -1.8474
  271MOL0     H36526   0.728   9.008   0.849 -2.1233 -0.8010 -0.7515
  271MOL0     H36527   0.594   9.053   0.949 -1.4012 -1.1766  4.3219
  271MOL0     H36528   0.751   9.057   1.159  0.7502 -0.9088  0.4806
  271MOL0     H36529   0.883   9.013   1.055 -1.4561 -0.5960 -2.1768
  271MOL0     H36530   0.886   9.195   0.930  0.3536 -1.8633  0.9200
  271MOL0     H36531   0.718   9.248   0.970 -1.0245 -2.3045  0.4973
  271MOL0     H36532   0.762   9.332   1.176 -0.5669 -2.0011  1.7180
  271MOL0     H36533   0.927   9.277   1.183 -0.2756 -0.0652  0.2971
  271MOL0     H36534   0.920   9.509   1.134  2.2646 -1.5469  0.9764
  271MOL0     H36535   0.785   9.483   1.025  0.9777  3.0244 -0.0715
  271MOL0     H36536   0.855   9.491   0.771 -0.8234 -1.9054  1.5685
  271MOL0     H36537   1.210   9.416   0.602  3.1182  3.8493 -1.7657
  271MOL0     H36538   1.042   9.471   0.557  3.7489 -0.5465 -2.4115
  271MOL0     H36539   1.184   9.641   0.487  0.3735 -1.9574 -1.1335
  271MOL0     H36540   1.293   9.615   0.629 -1.3585 -0.0992  1.8739
  271MOL0     H36541   1.189   9.840   0.626 -1.5682  1.4388 -0.1741
  271MOL0     H36542   1.143   9.732   0.765 -1.6015 -2.8156 -0.1011
  271MOL0     H36543   0.925   9.686   0.665  0.7049 -0.2811 -0.2458
  271MOL0     H36544   0.973   9.763   0.519 -0.3303 -3.0864  0.3220
  271MOL0     H36545   0.920   9.764   0.892 -1.6635 -1.4078 -1.9359
  271MOL0     H36546   0.779   9.791   1.212  1.1294 -1.8834  1.4449
  271MOL0     H36547   0.921   9.743   1.127 -0.4318 -0.6856  0.7934
  271MOL0     H36548   0.926   9.897   1.200  1.1244  1.2948 -3.9688
  271MOL0     H36549   0.835  10.156   1.498 -1.1376  2.1129 -0.5781
  271MOL0     H36550   0.742  10.141   1.715 -0.9068  1.7708  0.1789
  271MOL0     H36551   0.657  10.083   1.908 -1.5281  1.6572  1.1638
  271MOL0     H36552   0.504  10.025   1.975 -1.6222 -1.6245 -0.2309
  271MOL0     H36553   0.709   9.867   1.818  1.6249 -1.4973  1.2184
  271MOL0     H36554   0.648   9.851   1.984 -1.0178 -0.3960  0.1232
  271MOL0     H36555   0.503   9.777   1.732  6.3801 -0.4861 -0.2696
  271MOL0     H36556   0.416   9.807   1.879  1.0629  3.2587  1.0249
  271MOL0     H36557   0.616   9.575   1.805  1.9843  1.6104  0.9491
  271MOL0     H36558   0.622   9.620   1.972  2.9525  0.7498 -1.3692
  271MOL0     H36559   0.387   9.587   2.014  0.1136 -0.2547 -1.4414
  271MOL0     H36560   0.484   9.449   1.953  1.2459  0.1190 -0.5679
  271MOL0     H36561   0.287   9.627   1.814  0.3586  0.6477  1.7022
  271MOL0     H36562   0.378   9.505   1.723 -1.1094 -1.2770 -0.4134
  271MOL0     H36563   0.257   9.328   1.797  1.0494  1.2201 -1.4655
  271MOL0     H36564   0.130   9.435   1.779 -0.1991 -2.4221 -0.6577
  271MOL0     H36565   0.110   9.494   2.020  0.0136  2.9056 -2.9558
  271MOL0     H36566   0.267   9.406   2.047  2.2935 -0.3147 -2.9847
  271MOL0     H36567   0.384   9.974   1.556  1.0061 -0.9922 -1.2635
  271MOL0     H36568   0.477   9.984   1.323  4.3518  2.3155 -2.9016
  271MOL0     H36569   0.637  10.166   0.893  0.2916  0.6368  1.9919
  271MOL0     H36570   0.745  10.089   0.687  2.1685 -0.3773 -0.5871
  271MOL0     H36571   0.902   8.600   0.613  2.9979 -1.7848 -1.4630
  271MOL0     H36572   0.977   8.389   0.505 -0.1717  0.0111  0.2645
  271MOL0     H36573   0.803   7.973   0.367 -1.3619 -1.5007  0.7674
  271MOL0     H36574   0.840   7.727   0.268  0.2438 -1.9076 -0.8698
  271MOL0     H36575   1.191   7.507   0.439  0.6503 -1.9559 -2.6582
  271MOL0     H36576   1.041   7.419   0.487 -0.5063  1.9585  1.2028
  271MOL0     H36577   1.219   7.315   0.323  0.4178  1.3788  0.1643
  271MOL0     H36578   1.163   7.422   0.205 -0.4231 -2.0788 -0.3618
  271MOL0     H36579   0.969   7.243   0.368  1.7764  1.6525  1.6693
  271MOL0     H36580   1.067   7.175   0.237 -1.4371 -0.1111 -3.6806
  271MOL0     H36581   0.848   7.398   0.171 -2.7276 -0.9506  0.1062
  271MOL0     H36582   0.810   7.233   0.194 -1.2691  1.2029 -1.4829
  271MOL0     H36583   1.055   7.196  -0.151 -1.8254 -0.2452 -1.2943
  271MOL0     H36584   1.142   7.660   0.554 -1.9639 -3.7186 -0.3727
  271MOL0     H36585   1.130   7.899   0.624  1.2557  1.7010 -1.6615
  272MOL0     O36586   2.129   4.796   2.757  0.5591  0.3230  0.6351
  272MOL0     C36587   2.192   4.715   2.687 -0.0731  0.6773  0.3900
  272MOL0     O36588   2.156   4.584   2.663  0.5034  0.7812  0.3286
  272MOL0     C36589   2.037   4.543   2.714 -0.5147 -0.0601  0.0926
  272MOL0     C36590   2.002   4.547   2.849 -0.4498 -0.0164 -0.4588
  272MOL0     C36591   1.889   4.472   2.886  0.1532 -0.2162 -0.2613
  272MOL0     C36592   1.811   4.397   2.788  0.0616 -0.4288  0.5065
  272MOL0     O36593   1.698   4.323   2.811  0.5224  0.4295 -0.4712
  272MOL0     C36594   1.606   4.387   2.892  0.4174 -0.3173  0.1000
  272MOL0     C36595   1.468   4.315   2.880 -0.7116  1.0773  0.3093
  272MOL0     C36596   1.468   4.158   2.895  0.4094 -0.3875 -0.1085
  272MOL0     C36597   1.446   4.111   3.037 -0.6530 -0.3630 -1.0008
  272MOL0     C36598   1.423   3.966   3.069 -0.6059  0.4347  0.3830
  272MOL0     C36599   1.556   3.888   3.051 -0.1343  0.8400  0.5317
  272MOL0     C36600   1.542   3.740   3.098 -0.8444  0.4653  0.5590
  272MOL0     C36601   1.677   3.669   3.074  0.4057 -0.5025  0.3950
  272MOL0     N36602   1.679   3.527   3.099 -0.9183  0.2797  0.3209
  272MOL0     C36603   1.742   3.431   3.025  0.3057 -0.9813 -1.2012
  272MOL0     C36604   1.740   3.313   3.097 -0.7031 -0.2303  0.2763
  272MOL0     C36605   1.810   3.184   3.066  0.4542 -0.3414 -0.6316
  272MOL0     C36606   1.940   3.208   2.997 -0.2184  0.5807  0.0023
  272MOL0     C36607   2.021   3.084   2.947 -0.1379  0.6984 -0.5895
  272MOL0     C36608   2.141   3.108   2.865 -1.0175  0.6554 -0.4007
  272MOL0     O36609   2.202   2.987   2.822 -0.2471  0.4601 -0.4168
  272MOL0     C36610   2.166   2.920   2.712  0.2907  0.7748 -0.3100
  272MOL0     C36611   2.200   2.782   2.699  1.2126 -0.1023  0.1143
  272MOL0     C36612   2.159   2.697   2.589 -0.2805 -0.4728 -0.0437
  272MOL0     C36613   2.170   2.543   2.600 -0.1572 -0.6697 -0.5160
  272MOL0     C36614   2.104   2.769   2.473 -0.6698 -1.0309 -0.2573
  272MOL0     C36615   2.094   2.711   2.335  1.0203 -0.6115  0.4145
  272MOL0     O36616   2.037   2.802   2.238  0.3369  0.2283  0.4484
  272MOL0     C36617   2.021   2.767   2.106  0.7184  0.2342  0.6080
  272MOL0     C36618   1.935   2.849   2.049  1.0766  0.2026  0.6559
  272MOL0     C36619   1.902   2.843   1.912  1.2057 -0.1326  0.2989
  272MOL0     C36620   1.976   2.757   1.833  0.7773 -0.5127 -1.1034
  272MOL0     O36621   1.941   2.763   1.696 -0.5129  0.1625 -0.1302
  272MOL0     C36622   2.041   2.709   1.605 -0.3830 -0.6475 -0.4685
  272MOL0     C36623   2.000   2.788   1.488  0.3648 -1.1938  0.4734
  272MOL0     C36624   2.092   2.756   1.369 -0.2303 -0.6414 -0.4879
  272MOL0     C36625   2.059   2.850   1.257 -0.3749  0.3128 -0.5392
  272MOL0     C36626   2.152   2.851   1.131  0.2140  0.2778 -0.2671
  272MOL0     C36627   2.135   2.975   1.055 -0.0568  0.0209  0.7001
  272MOL0     C36628   2.253   2.992   0.948 -0.3314  0.6685  0.7688
  272MOL0     C36629   2.204   2.962   0.801 -0.9622  0.2468  0.4191
  272MOL0    Cl36630   2.339   3.023   0.714  0.1892 -0.3048 -0.2250
  272MOL0     C36631   2.063   2.670   1.895  0.4978 -0.1913 -0.1565
  272MOL0     C36632   2.092   2.681   2.037  0.3820  0.4721  0.6924
  272MOL0     O36633   2.123   2.596   2.316 -0.0420  0.2937 -0.0120
  272MOL0     C36634   2.066   2.903   2.489  0.3187 -0.1003  1.3958
  272MOL0     C36635   2.095   2.973   2.604  0.1462 -0.3645  0.0539
  272MOL0     N36636   1.651   3.341   3.200 -0.4779 -0.6508 -0.0803
  272MOL0     N36637   1.626   3.465   3.209  0.2988 -0.1087 -0.3401
  272MOL0     C36638   1.851   4.396   2.656 -0.4651 -0.7816 -0.5204
  272MOL0     C36639   1.965   4.469   2.618 -0.4710  0.0932  0.2008
  272MOL0     C36640   2.331   4.759   2.641  1.1989 -0.4109 -0.2245
  272MOL0     C36641   2.427   4.667   2.603 -0.3586  0.0081  0.2132
  272MOL0     C36642   2.558   4.707   2.567  0.4052  0.1453  0.5333
  272MOL0     C36643   2.583   4.842   2.557  0.0665 -0.6095  0.3418
  272MOL0     O36644   2.705   4.892   2.514  0.7097 -0.5226 -0.4541
  272MOL0     C36645   2.808   4.812   2.477 -0.4411 -0.2638 -0.9184
  272MOL0     C36646   2.926   4.896   2.419  1.2866 -0.9696 -0.6535
  272MOL0     C36647   2.891   5.016   2.329 -0.0869 -0.1091 -0.5990
  272MOL0     C36648   3.005   5.059   2.237  1.1616 -0.2936  0.2847
  272MOL0     C36649   2.964   5.179   2.165  0.0145 -1.3676 -0.6687
  272MOL0     C36650   2.916   5.278   2.112 -0.0239  0.8056 -0.2483
  272MOL0     C36651   2.478   4.927   2.594 -0.8771 -1.1925  0.9642
  272MOL0     C36652   2.359   4.894   2.645 -0.2376 -0.0881 -1.0818
  272MOL0     H36653   2.057   4.606   2.922  1.0567 -2.4751  0.5565
  272MOL0     H36654   1.852   4.477   2.988 -1.5414 -0.6092 -0.8181
  272MOL0     H36655   1.637   4.377   2.997  1.9235 -3.1332 -0.5336
  272MOL0     H36656   1.598   4.494   2.871  5.6575  0.2904  0.0096
  272MOL0     H36657   1.400   4.359   2.954 -0.3565 -1.1446  2.0889
  272MOL0     H36658   1.439   4.339   2.777 -0.4289  0.4008  0.0654
  272MOL0     H36659   1.388   4.118   2.832 -0.1594 -0.1187  0.4387
  272MOL0     H36660   1.559   4.109   2.860 -0.1181 -1.9310  0.6130
  272MOL0     H36661   1.534   4.155   3.085 -0.3173 -1.9883 -0.0276
  272MOL0     H36662   1.360   4.166   3.077 -0.3605 -0.1564 -0.6517
  272MOL0     H36663   1.392   3.959   3.173 -2.7331  0.8048 -0.1740
  272MOL0     H36664   1.340   3.924   3.011 -1.2420  0.3844  1.3139
  272MOL0     H36665   1.587   3.890   2.946 -2.0724  0.2987 -0.0963
  272MOL0     H36666   1.641   3.932   3.106  0.7584  0.7327 -0.7135
  272MOL0     H36667   1.526   3.734   3.206 -0.9185 -1.1385  0.4794
  272MOL0     H36668   1.464   3.699   3.033 -2.0228  2.3367  0.7287
  272MOL0     H36669   1.753   3.706   3.143  1.9603 -2.7061 -0.0234
  272MOL0     H36670   1.721   3.688   2.976 -0.2177  0.3826  0.2799
  272MOL0     H36671   1.806   3.444   2.938  2.6278  0.6146  0.6365
  272MOL0     H36672   1.838   3.138   3.161  0.5648 -0.7141 -0.8387
  272MOL0     H36673   1.735   3.129   3.008  0.5907 -2.5626  1.1528
  272MOL0     H36674   2.008   3.273   3.053  0.9380  0.3462 -1.0662
  272MOL0     H36675   1.925   3.278   2.915 -1.2652 -0.6574 -0.9003
  272MOL0     H36676   1.952   3.011   2.903  1.4895 -0.9956 -0.4767
  272MOL0     H36677   2.055   3.032   3.037 -1.7669  0.1193 -0.2601
  272MOL0     H36678   2.215   3.177   2.907 -0.3713 -0.2621  0.0189
  272MOL0     H36679   2.095   3.152   2.776 -1.4539  4.3315  1.4695
  272MOL0     H36680   2.251   2.737   2.783 -1.8422  0.7800  2.6636
  272MOL0     H36681   2.211   2.521   2.699 -0.6385 -0.8893 -0.3621
  272MOL0     H36682   2.073   2.498   2.580 -2.5799  3.4714  0.7090
  272MOL0     H36683   2.245   2.511   2.527 -0.1409 -2.7161  0.3318
  272MOL0     H36684   1.893   2.926   2.113  1.2488 -1.0876  2.3973
  272MOL0     H36685   1.827   2.912   1.875  0.1273 -2.2401 -1.7000
  272MOL0     H36686   2.134   2.750   1.645 -0.3574  0.6894 -1.8205
  272MOL0     H36687   2.038   2.600   1.601  2.7406 -1.0706  3.0832
  272MOL0     H36688   1.895   2.760   1.472 -0.1988  0.1780  1.5924
  272MOL0     H36689   2.011   2.894   1.509  1.5926 -1.1104 -0.4468
  272MOL0     H36690   2.076   2.652   1.340  0.6456 -0.1816 -2.8150
  272MOL0     H36691   2.198   2.770   1.391 -0.3948 -0.7521  0.4038
  272MOL0     H36692   1.952   2.847   1.234 -0.4999  2.4998 -0.4241
  272MOL0     H36693   2.063   2.948   1.306 -0.8570  0.9537 -1.7348
  272MOL0     H36694   2.138   2.760   1.073 -3.5751 -0.9534  2.1411
  272MOL0     H36695   2.254   2.852   1.169  0.5936  0.2385 -1.2643
  272MOL0     H36696   2.044   2.965   0.995  0.2654 -2.3422  0.4987
  272MOL0     H36697   2.118   3.069   1.108  2.6528  1.6553 -1.0423
  272MOL0     H36698   2.321   2.910   0.973 -0.2730  0.4069 -0.2107
  272MOL0     H36699   2.301   3.090   0.948 -0.5733  1.0695 -4.7645
  272MOL0     H36700   2.125   3.035   0.784  1.4993  3.7859  2.8032
  272MOL0     H36701   2.202   2.855   0.781  3.2037 -0.3035  1.9125
  272MOL0     H36702   2.117   2.592   1.840 -0.9810 -0.1753 -1.7202
  272MOL0     H36703   2.152   2.603   2.083 -3.5950 -2.0783  2.1835
  272MOL0     H36704   2.017   2.956   2.407  0.5994 -2.5918 -0.5231
  272MOL0     H36705   2.069   3.078   2.602  2.5342  0.2964  0.6329
  272MOL0     H36706   1.783   4.334   2.598 -2.1340  1.3947 -1.0453
  272MOL0     H36707   1.996   4.451   2.516 -1.0388 -0.8447  0.1875
  272MOL0     H36708   2.395   4.563   2.596 -1.2466  0.2778  0.2565
  272MOL0     H36709   2.629   4.627   2.546 -0.2367 -0.3795  0.3429
  272MOL0     H36710   2.835   4.742   2.556 -3.7842  2.4765  3.1221
  272MOL0     H36711   2.782   4.748   2.392  0.2113 -0.7747 -0.7443
  272MOL0     H36712   3.001   4.824   2.383  1.5598 -1.0407  0.0377
  272MOL0     H36713   2.976   4.929   2.511 -1.9403  0.6640  0.6470
  272MOL0     H36714   2.862   5.106   2.383 -1.6325 -0.8716 -0.1020
  272MOL0     H36715   2.801   4.982   2.278 -1.7463  0.6495  1.6418
  272MOL0     H36716   3.022   4.978   2.166 -4.6379 -2.6115  1.0498
  272MOL0     H36717   3.086   5.075   2.309 -0.4903  0.6593  2.0313
  272MOL0     H36718   2.852   5.362   2.093  1.4052  2.3758  1.4813
  272MOL0     H36719   2.504   5.032   2.596 -2.1580 -0.5974 -3.3267
  272MOL0     H36720   2.277   4.958   2.675 -0.1162 -0.9681  1.3536
  273MOL0     O36721   3.112  10.487   8.117 -0.4898  0.4889 -0.0483
  273MOL0     C36722   3.099  10.518   8.002  0.7193  0.1151  0.3249
  273MOL0     O36723   3.173  10.605   7.929 -0.2782  1.0385 -0.1173
  273MOL0     C36724   3.291  10.656   7.985  0.6996  0.4571  0.4699
  273MOL0     C36725   3.281  10.761   8.085 -0.5204  0.0556  0.5432
  273MOL0     C36726   3.392  10.824   8.128 -1.2875 -0.4431 -0.2511
  273MOL0     C36727   3.524  10.787   8.096 -0.3025  0.7293 -0.3175
  273MOL0     O36728   3.626  10.855   8.151  0.3881  0.1144  0.2228
  273MOL0     C36729   3.752  10.831   8.094  0.4176  0.7630 -0.2940
  273MOL0     C36730   3.824  10.731   8.197  0.7679  0.4516  0.2796
  273MOL0     C36731   3.964  10.769   8.257  0.3285 -0.6077  0.2792
  273MOL0     C36732   3.959  10.902   8.336 -0.5270  0.1816  0.1745
  273MOL0     C36733   4.093  10.949   8.402 -0.2049 -0.0017  0.2779
  273MOL0     C36734   4.198  10.970   8.287 -0.6438 -0.4573  0.2977
  273MOL0     C36735   4.307  11.049   8.359  0.1625  0.0340  0.2541
  273MOL0     C36736   4.402  10.978   8.463 -1.0440 -0.5555 -0.6128
  273MOL0     N36737   4.505  11.064   8.519  0.1290  0.2207  0.1813
  273MOL0     C36738   4.508  11.192   8.563 -0.4547  0.5821  0.2189
  273MOL0     C36739   4.636  11.212   8.615  0.7420  0.1106 -0.1695
  273MOL0     C36740   4.675  11.337   8.673  0.1486  0.9041 -0.6067
  273MOL0     C36741   4.729  11.440   8.572  0.3729 -0.2113 -1.1035
  273MOL0     C36742   4.775  11.571   8.640 -0.5452 -0.4657  0.2653
  273MOL0     C36743   4.893  11.540   8.727 -0.1561  0.2040  0.1382
  273MOL0     O36744   4.860  11.522   8.865  0.2908 -0.6536 -0.2709
  273MOL0     C36745   4.814  11.632   8.946 -0.7640 -0.4815  0.1008
  273MOL0     C36746   4.739  11.588   9.060  0.5060  0.3723 -0.3538
  273MOL0     C36747   4.662  11.677   9.132  1.3356 -0.5494 -0.0894
  273MOL0     C36748   4.574  11.623   9.251 -0.1244 -0.5004  0.6266
  273MOL0     C36749   4.681  11.816   9.115  0.2281 -0.2496  0.2739
  273MOL0     C36750   4.655  11.915   9.221  1.1675  0.7474 -0.4621
  273MOL0     O36751   4.697  11.868   9.339 -0.3680 -0.0757 -0.8090
  273MOL0     C36752   4.713  11.965   9.441 -0.0541  0.7747 -0.0949
  273MOL0     C36753   4.840  12.007   9.487  0.1989 -0.0508  0.1025
  273MOL0     C36754   4.847  12.082   9.608 -0.1907 -1.3677 -0.2970
  273MOL0     C36755   4.734  12.123   9.674  1.2011 -0.3046  0.0259
  273MOL0     O36756   4.750  12.183   9.803  0.2617 -0.6671  0.5251
  273MOL0     C36757   4.637  12.279   9.826  0.0741  0.3918 -0.0409
  273MOL0     C36758   4.637  12.397   9.727 -0.2402  0.3321 -0.8343
  273MOL0     C36759   4.772  12.476   9.731  0.5369  1.4535  0.2130
  273MOL0     C36760   4.817  12.503   9.593 -1.0205 -0.7037 -0.2428
  273MOL0     C36761   4.952  12.572   9.588  0.7207 -0.6889  0.2534
  273MOL0     C36762   4.955  12.711   9.659 -0.1528 -0.2131  0.2957
  273MOL0     C36763   5.066  12.791   9.595  0.5363 -0.1121 -0.0101
  273MOL0     C36764   5.079  12.934   9.651  0.7103  0.1011 -0.4065
  273MOL0    Cl36765   5.203  13.031   9.548 -0.4749 -0.2849  0.2471
  273MOL0     C36766   4.614  12.093   9.621  0.5617 -0.1433  0.0212
  273MOL0     C36767   4.599  12.015   9.508  0.8047 -0.7452 -0.0858
  273MOL0     O36768   4.614  12.025   9.192 -0.4145 -0.7481 -0.4932
  273MOL0     C36769   4.758  11.862   9.007 -0.0011 -0.6751 -0.4484
  273MOL0     C36770   4.825  11.775   8.922  0.4202  0.7639 -0.2291
  273MOL0     N36771   4.702  11.095   8.600 -0.5885 -0.4817  0.0637
  273MOL0     N36772   4.631  11.015   8.538  0.4403  0.2037 -0.9415
  273MOL0     C36773   3.528  10.674   8.010  0.2433 -0.0826 -1.1107
  273MOL0     C36774   3.414  10.604   7.947 -0.9585 -1.0465 -0.6891
  273MOL0     C36775   2.980  10.468   7.937  0.3201  0.6002 -0.9295
  273MOL0     C36776   2.901  10.367   7.997 -0.1570 -0.3197 -0.8239
  273MOL0     C36777   2.781  10.318   7.955 -0.1132  0.6018  0.5603
  273MOL0     C36778   2.717  10.381   7.850  0.3102 -0.0304 -0.3310
  273MOL0     O36779   2.592  10.342   7.825  0.5362  0.3079  0.2187
  273MOL0     C36780   2.525  10.375   7.706  0.3241 -0.2409 -0.4197
  273MOL0     C36781   2.377  10.344   7.699 -1.0389 -1.1068  0.1399
  273MOL0     C36782   2.342  10.194   7.710  0.4824 -0.5511  0.1458
  273MOL0     C36783   2.190  10.161   7.737 -0.0634 -0.0019  0.0507
  273MOL0     C36784   2.100  10.234   7.645 -0.6300 -0.8329 -0.2660
  273MOL0     C36785   2.022  10.291   7.574  0.9553 -1.1583 -0.4339
  273MOL0     C36786   2.793  10.484   7.776 -0.2444 -0.1659  0.5013
  273MOL0     C36787   2.917  10.516   7.815 -0.8502 -0.1435 -0.1036
  273MOL0     H36788   3.182  10.787   8.121 -0.9665  2.9226 -2.2628
  273MOL0     H36789   3.392  10.907   8.197  2.4695 -1.0395  0.7172
  273MOL0     H36790   3.770  10.796   7.992 -1.5151  0.1062 -0.4388
  273MOL0     H36791   3.807  10.926   8.095  3.3818 -0.8390 -0.2018
  273MOL0     H36792   3.750  10.712   8.275 -3.8718 -0.0507 -3.7976
  273MOL0     H36793   3.831  10.634   8.147 -0.4088 -0.2366  1.3874
  273MOL0     H36794   4.004  10.689   8.322 -0.6793 -1.6149 -0.3019
  273MOL0     H36795   4.038  10.776   8.176 -0.9427  3.2638 -0.7196
  273MOL0     H36796   3.932  10.976   8.260 -2.7788 -0.0578  0.6811
  273MOL0     H36797   3.871  10.887   8.399 -1.0190 -4.1432 -1.1616
  273MOL0     H36798   4.071  11.049   8.443  1.7290 -0.5234  2.8272
  273MOL0     H36799   4.120  10.881   8.483 -2.0217 -0.1112  0.8512
  273MOL0     H36800   4.248  10.879   8.253  2.2495  1.5407 -1.1856
  273MOL0     H36801   4.158  11.032   8.207 -3.2349 -0.8688  1.1792
  273MOL0     H36802   4.369  11.096   8.282 -1.2435 -1.0990 -1.6511
  273MOL0     H36803   4.266  11.132   8.417 -2.3904 -1.2999  0.4772
  273MOL0     H36804   4.457  10.896   8.416  1.1197  0.4642  0.0302
  273MOL0     H36805   4.339  10.933   8.540  0.3131  0.2005  0.9964
  273MOL0     H36806   4.427  11.264   8.569  0.0055  1.2502 -1.2092
  273MOL0     H36807   4.587  11.390   8.710 -0.9773 -1.5120  0.3793
  273MOL0     H36808   4.735  11.307   8.759 -5.4824 -2.4780  2.8218
  273MOL0     H36809   4.670  11.450   8.480  1.7575  0.3785 -1.9638
  273MOL0     H36810   4.811  11.397   8.514  0.0500 -0.8047 -1.1264
  273MOL0     H36811   4.697  11.614   8.704 -0.9738  4.1824 -2.8924
  273MOL0     H36812   4.806  11.635   8.557 -3.3676 -1.0637 -1.3911
  273MOL0     H36813   4.958  11.627   8.716  2.3694 -1.5548  0.0274
  273MOL0     H36814   4.944  11.445   8.706 -2.0485 -1.1464  1.2998
  273MOL0     H36815   4.721  11.482   9.076  1.4777  0.4634  1.5805
  273MOL0     H36816   4.642  11.621   9.337  1.4815 -0.3010 -0.5838
  273MOL0     H36817   4.499  11.697   9.281  0.3315 -0.2632  1.2096
  273MOL0     H36818   4.518  11.530   9.240 -3.1680  1.4597 -2.8628
  273MOL0     H36819   4.935  11.979   9.441  0.8253  0.7610  0.8806
  273MOL0     H36820   4.943  12.114   9.646 -0.4369 -1.8465  0.7594
  273MOL0     H36821   4.543  12.226   9.815  0.3255  0.0600 -0.5943
  273MOL0     H36822   4.640  12.313   9.930 -0.3022  2.9691 -0.8069
  273MOL0     H36823   4.603  12.370   9.627  3.8555  0.9187 -2.5684
  273MOL0     H36824   4.569  12.469   9.775 -0.4925 -0.9779  0.8889
  273MOL0     H36825   4.849  12.413   9.776  1.6780  4.4365  2.8276
  273MOL0     H36826   4.769  12.564   9.796  1.8186 -2.0837  5.7285
  273MOL0     H36827   4.834  12.407   9.544  3.1556  0.2542 -0.9934
  273MOL0     H36828   4.742  12.566   9.544 -0.0138 -0.7911 -1.9865
  273MOL0     H36829   4.982  12.589   9.484 -0.2104  1.2097  0.2573
  273MOL0     H36830   5.024  12.497   9.622 -0.0203 -0.0362  3.5778
  273MOL0     H36831   4.858  12.763   9.655  0.2930  1.2314  4.0287
  273MOL0     H36832   4.972  12.688   9.764 -1.4935  2.0969  1.0972
  273MOL0     H36833   5.055  12.797   9.486 -0.8890  2.0993  0.1782
  273MOL0     H36834   5.156  12.730   9.607 -0.8391 -2.0304  0.9937
  273MOL0     H36835   5.105  12.938   9.757 -5.6498  0.2246  1.6032
  273MOL0     H36836   4.981  12.983   9.648 -0.3075 -1.6496  1.8678
  273MOL0     H36837   4.518  12.120   9.665 -0.2427 -1.0418 -1.1113
  273MOL0     H36838   4.495  11.999   9.482  0.4467 -1.6099  1.7415
  273MOL0     H36839   4.777  11.968   9.016  1.0810 -0.9286  0.3773
  273MOL0     H36840   4.886  11.818   8.844 -0.9814 -1.0268 -2.4504
  273MOL0     H36841   3.624  10.628   7.986  0.6034 -0.4034  0.7321
  273MOL0     H36842   3.413  10.507   7.900  2.6240 -1.3956 -0.2668
  273MOL0     H36843   2.933  10.316   8.087  0.3345  1.6395  0.1606
  273MOL0     H36844   2.732  10.251   8.024  0.1733  0.2699  0.4449
  273MOL0     H36845   2.540  10.484   7.701 -0.3169 -0.1402 -0.3150
  273MOL0     H36846   2.588  10.327   7.631 -0.5747  0.6167 -1.7761
  273MOL0     H36847   2.336  10.379   7.603 -4.0918  0.7300  1.9515
  273MOL0     H36848   2.327  10.413   7.768  2.6367  0.8559  1.0967
  273MOL0     H36849   2.409  10.138   7.777  2.4642 -1.2825 -2.2908
  273MOL0     H36850   2.366  10.156   7.610 -1.2898 -5.2758  1.2842
  273MOL0     H36851   2.158  10.175   7.840  1.4226 -0.8703  0.6561
  273MOL0     H36852   2.184  10.053   7.722  2.6684 -0.0601 -1.1258
  273MOL0     H36853   1.954  10.341   7.509  2.0042 -1.3863 -1.7403
  273MOL0     H36854   2.755  10.533   7.687  1.8848  0.9786  0.1723
  273MOL0     H36855   2.972  10.587   7.755 -2.5084  1.6077  0.3524
  274MOL0     O36856   2.297   0.614   3.944  1.0947 -0.0761  0.5543
  274MOL0     C36857   2.351   0.701   4.005 -1.1765 -0.1402 -0.2620
  274MOL0     O36858   2.332   0.722   4.140  0.6412 -0.0951 -0.7341
  274MOL0     C36859   2.238   0.649   4.206  0.3197 -0.0282 -1.2990
  274MOL0     C36860   2.268   0.639   4.339  0.0044 -0.0645 -1.5616
  274MOL0     C36861   2.173   0.600   4.435 -1.0640  0.1984 -0.4510
  274MOL0     C36862   2.052   0.549   4.400 -1.2995 -0.5910  1.0282
  274MOL0     O36863   1.969   0.489   4.488 -0.7735  0.3552 -0.4716
  274MOL0     C36864   2.019   0.413   4.599 -0.3518 -0.6649 -0.0217
  274MOL0     C36865   1.920   0.312   4.637 -1.6826  0.1233  0.3201
  274MOL0     C36866   1.775   0.355   4.637  0.5838  0.3988  0.4159
  274MOL0     C36867   1.692   0.233   4.647  0.4902  0.2085  0.4821
  274MOL0     C36868   1.544   0.253   4.648 -0.4603  0.0225 -0.6918
  274MOL0     C36869   1.486   0.325   4.773  0.0486 -0.1393 -0.3108
  274MOL0     C36870   1.332   0.342   4.748  1.0619  0.5188 -0.3515
  274MOL0     C36871   1.253   0.413   4.860  0.1130 -0.2627  0.6582
  274MOL0     N36872   1.113   0.439   4.809 -1.2158 -0.6590  0.2202
  274MOL0     C36873   1.102   0.530   4.716  1.1689 -0.2262  0.5483
  274MOL0     C36874   0.973   0.512   4.677  0.3731 -0.9660  0.1250
  274MOL0     C36875   0.893   0.611   4.582 -0.8337  0.6327 -0.3139
  274MOL0     C36876   0.862   0.742   4.669  0.4592 -0.2580  1.4754
  274MOL0     C36877   0.778   0.839   4.588  0.0040 -0.7173 -0.3562
  274MOL0     C36878   0.759   0.975   4.664  0.4610 -0.2787  0.1019
  274MOL0     O36879   0.884   1.049   4.662  0.5258 -0.4672  0.7413
  274MOL0     C36880   0.893   1.186   4.704 -0.6984  0.1959 -0.5015
  274MOL0     C36881   0.826   1.236   4.816 -0.0316 -0.1571 -0.3016
  274MOL0     C36882   0.839   1.378   4.850  0.8975 -0.0808 -0.5204
  274MOL0     C36883   0.771   1.419   4.974  0.1965 -0.7229  0.5378
  274MOL0     C36884   0.915   1.466   4.760 -0.5183  0.3832 -0.8065
  274MOL0     C36885   0.936   1.615   4.787  0.9473 -0.3178  0.2523
  274MOL0     O36886   0.989   1.683   4.687  0.3622 -0.7379  0.8443
  274MOL0     C36887   0.979   1.825   4.681  0.0899  0.4655 -0.1561
  274MOL0     C36888   1.068   1.895   4.748 -0.2819 -0.5976  0.1648
  274MOL0     C36889   1.061   2.039   4.751 -0.6262  1.1451  0.1472
  274MOL0     C36890   0.961   2.112   4.691 -0.7359 -0.3268 -0.0583
  274MOL0     O36891   0.967   2.247   4.672  0.0537  1.1324 -0.3611
  274MOL0     C36892   1.053   2.323   4.758 -0.7721 -0.2153 -0.8411
  274MOL0     C36893   1.014   2.470   4.736  0.4925 -0.3094 -0.1406
  274MOL0     C36894   1.075   2.522   4.606 -0.5629 -0.1505 -0.2605
  274MOL0     C36895   0.992   2.646   4.552  0.2316  0.0326  0.4727
  274MOL0     C36896   1.024   2.686   4.403 -0.0232  0.5621  0.3110
  274MOL0     C36897   1.029   2.836   4.370  0.4571  0.1078  0.3419
  274MOL0     C36898   0.880   2.886   4.360 -0.6247  0.1463  0.0082
  274MOL0     C36899   0.825   2.853   4.224 -0.8401  0.2632  0.2121
  274MOL0    Cl36900   0.905   2.938   4.075 -0.5574  0.1494 -0.5009
  274MOL0     C36901   0.869   2.039   4.621 -0.0362 -0.1441 -0.4382
  274MOL0     C36902   0.874   1.901   4.616 -0.6605  1.0662  0.6545
  274MOL0     O36903   0.906   1.663   4.892 -0.4372  0.2923  0.4460
  274MOL0     C36904   0.984   1.407   4.655  0.6341  0.4073  0.5809
  274MOL0     C36905   0.976   1.270   4.632 -0.0506 -0.5581  0.4085
  274MOL0     N36906   0.914   0.409   4.742 -0.0003 -1.4772 -1.2770
  274MOL0     N36907   1.002   0.356   4.823 -0.1208 -0.2372  0.0642
  274MOL0     C36908   2.010   0.569   4.266 -0.3816  0.2989 -0.5444
  274MOL0     C36909   2.104   0.612   4.168  0.2672 -0.3425  0.5023
  274MOL0     C36910   2.469   0.767   3.941 -1.0134 -0.3664  0.0858
  274MOL0     C36911   2.558   0.865   4.006  1.4386 -0.5105  0.4249
  274MOL0     C36912   2.650   0.935   3.937  0.3725  0.2398 -0.6476
  274MOL0     C36913   2.667   0.923   3.797 -1.8382  0.6980  0.7197
  274MOL0     O36914   2.754   0.995   3.720 -0.3646 -0.5853  0.1015
  274MOL0     C36915   2.889   0.976   3.775  0.3977  0.3842 -0.6102
  274MOL0     C36916   2.998   1.001   3.667  0.3250  0.8682  0.2863
  274MOL0     C36917   3.038   1.148   3.651  0.5453  0.7199  0.4942
  274MOL0     C36918   3.106   1.190   3.512 -0.0809  0.8659  0.1733
  274MOL0     C36919   3.163   1.320   3.531 -0.6833 -1.0647  0.4364
  274MOL0     C36920   3.203   1.424   3.582  0.0421 -0.4978  0.1719
  274MOL0     C36921   2.586   0.831   3.727 -0.0038  1.0777 -0.5680
  274MOL0     C36922   2.492   0.753   3.799  1.1848 -0.3835 -0.1999
  274MOL0     H36923   2.361   0.686   4.369 -2.3743  3.7417  0.6112
  274MOL0     H36924   2.201   0.610   4.540 -0.6618 -3.3926 -0.0942
  274MOL0     H36925   2.112   0.361   4.572  1.5305  3.2741 -1.8960
  274MOL0     H36926   2.040   0.482   4.681 -0.8089  0.6160 -0.9566
  274MOL0     H36927   1.934   0.221   4.578 -0.5637 -1.1798  2.4649
  274MOL0     H36928   1.940   0.285   4.741 -1.6699  0.6331  0.4547
  274MOL0     H36929   1.750   0.436   4.706  2.0100 -0.3178  1.8270
  274MOL0     H36930   1.749   0.411   4.546  1.2974  0.9601  0.5409
  274MOL0     H36931   1.723   0.180   4.557 -0.3732  0.9611 -0.2826
  274MOL0     H36932   1.714   0.164   4.729  0.2899 -0.2415  0.1606
  274MOL0     H36933   1.510   0.306   4.558  2.4742  0.9667 -1.3661
  274MOL0     H36934   1.510   0.149   4.646  1.0443 -0.6312  2.4852
  274MOL0     H36935   1.507   0.249   4.849 -0.2350 -1.1967 -1.2706
  274MOL0     H36936   1.536   0.421   4.789  1.3248 -0.3610 -2.5189
  274MOL0     H36937   1.315   0.400   4.657 -0.9512 -2.1114 -1.7880
  274MOL0     H36938   1.295   0.239   4.740 -0.7499  1.0346  0.7758
  274MOL0     H36939   1.302   0.510   4.871  2.2963 -1.0545 -1.2444
  274MOL0     H36940   1.265   0.353   4.951  1.8268 -0.5045  0.3087
  274MOL0     H36941   1.175   0.602   4.683  2.9333 -2.8228 -1.6872
  274MOL0     H36942   0.964   0.630   4.502  1.8916 -0.8696  1.5986
  274MOL0     H36943   0.803   0.555   4.553 -0.9467  0.7660 -0.2234
  274MOL0     H36944   0.957   0.792   4.691  0.0475  0.2473  2.1476
  274MOL0     H36945   0.811   0.722   4.764  1.5768 -1.1145  1.9184
  274MOL0     H36946   0.680   0.792   4.577  0.5813 -2.3820  1.0840
  274MOL0     H36947   0.814   0.847   4.485  1.6770  0.5626  0.2904
  274MOL0     H36948   0.722   0.952   4.764 -1.5148 -0.4150 -0.6101
  274MOL0     H36949   0.680   1.028   4.609  1.3440 -0.7290 -1.6787
  274MOL0     H36950   0.764   1.167   4.872 -1.9339  1.3285 -0.4432
  274MOL0     H36951   0.821   1.498   5.031  1.2322 -0.4675 -0.6792
  274MOL0     H36952   0.664   1.429   4.957  0.8065  2.2235 -2.5618
  274MOL0     H36953   0.770   1.334   5.043  0.4786 -1.0569  0.1345
  274MOL0     H36954   1.153   1.839   4.785 -1.5020 -1.0303  2.4588
  274MOL0     H36955   1.145   2.086   4.802  1.2887 -0.7587 -1.0683
  274MOL0     H36956   1.034   2.303   4.864 -3.8891 -0.4045 -1.3455
  274MOL0     H36957   1.159   2.304   4.739  0.1640  3.2408  0.2807
  274MOL0     H36958   0.905   2.470   4.743  0.4632  0.4882 -0.4704
  274MOL0     H36959   1.043   2.531   4.822  0.6145  0.6050 -0.8142
  274MOL0     H36960   1.068   2.443   4.530  0.5479 -2.4004  1.8464
  274MOL0     H36961   1.179   2.548   4.623 -0.7469  1.8474 -1.8123
  274MOL0     H36962   0.884   2.642   4.573  0.0504  0.9151 -0.2128
  274MOL0     H36963   1.017   2.734   4.611  0.2624 -0.8735  1.8552
  274MOL0     H36964   0.955   2.628   4.340  0.8118 -0.7193  0.5364
  274MOL0     H36965   1.125   2.658   4.372 -0.2950  1.4650 -1.5790
  274MOL0     H36966   1.086   2.891   4.445 -0.3799  0.8950  0.4198
  274MOL0     H36967   1.082   2.851   4.275  0.7183  2.3053  0.7794
  274MOL0     H36968   0.890   2.995   4.358  3.6598  0.0674 -5.0903
  274MOL0     H36969   0.814   2.837   4.432  0.1825  0.2306  0.8272
  274MOL0     H36970   0.723   2.891   4.230 -1.8108 -2.3571  3.9801
  274MOL0     H36971   0.810   2.747   4.200 -0.0500  0.0479  0.6530
  274MOL0     H36972   0.789   2.092   4.570  0.7095  2.4083  0.9036
  274MOL0     H36973   0.795   1.839   4.576  1.6331 -2.3252  0.9763
  274MOL0     H36974   1.051   1.462   4.590  1.0934 -2.2244 -1.3015
  274MOL0     H36975   1.045   1.237   4.554  1.1173  2.3830  0.0597
  274MOL0     H36976   1.914   0.534   4.228 -0.9085  0.7986  0.3127
  274MOL0     H36977   2.075   0.627   4.064 -5.2972  1.3203  1.9191
  274MOL0     H36978   2.553   0.891   4.112 -1.2126  1.4023 -0.0777
  274MOL0     H36979   2.717   0.997   3.996 -3.9334  3.6011  1.2423
  274MOL0     H36980   2.915   1.031   3.866  3.6457  0.5807 -1.5040
  274MOL0     H36981   2.888   0.869   3.802  0.9507 -0.0313 -2.1313
  274MOL0     H36982   2.953   0.964   3.574  1.0775 -1.6245  0.8456
  274MOL0     H36983   3.083   0.933   3.678 -0.8615 -0.4791  1.5769
  274MOL0     H36984   3.104   1.148   3.738 -0.4847 -1.4659  1.3674
  274MOL0     H36985   2.958   1.217   3.680  1.8526  1.3429  2.8837
  274MOL0     H36986   3.030   1.184   3.434  0.6151 -1.5802 -0.4035
  274MOL0     H36987   3.183   1.117   3.488 -2.0563 -1.8748  1.5975
  274MOL0     H36988   3.221   1.514   3.638  0.3231 -0.6702  0.3623
  274MOL0     H36989   2.590   0.819   3.619  3.3865 -1.5898 -0.2974
  274MOL0     H36990   2.428   0.682   3.748  1.3266  1.4079 -3.1723
  275MOL0     O36991   1.731   1.209  10.384  0.1554  0.0763  0.4946
  275MOL0     C36992   1.657   1.304  10.373  0.9491 -0.0131  0.1057
  275MOL0     O36993   1.526   1.301  10.385 -0.4132  0.7081  0.6794
  275MOL0     C36994   1.464   1.179  10.411  0.8512 -1.0830 -0.7152
  275MOL0     C36995   1.484   1.091  10.515 -0.0911 -0.6541 -0.5030
  275MOL0     C36996   1.425   0.960  10.523 -0.5272 -0.0551 -0.0963
  275MOL0     C36997   1.349   0.921  10.421  0.2933  0.2828 -0.3965
  275MOL0     O36998   1.299   0.794  10.411  0.0646 -0.3952  1.0899
  275MOL0     C36999   1.369   0.683  10.471  0.7538  0.5283 -0.0190
  275MOL0     C37000   1.341   0.547  10.400  0.1590 -0.5521  1.0387
  275MOL0     C37001   1.436   0.442  10.449  0.2716  0.2568  0.4931
  275MOL0     C37002   1.400   0.298  10.391 -0.5587 -0.1310  0.4781
  275MOL0     C37003   1.438   0.292  10.240  0.6644 -0.2784  0.5004
  275MOL0     C37004   1.384   0.161  10.176  0.0998 -0.3684  0.2640
  275MOL0     C37005   1.233   0.145  10.158  0.1982  0.1048 -0.3763
  275MOL0     C37006   1.210   0.002  10.106 -0.2117 -0.0874 -1.2840
  275MOL0     N37007   1.092  -0.017  10.021  0.1552 -0.3708  0.6241
  275MOL0     C37008   1.072   0.005   9.885 -0.6345 -0.1081  0.2786
  275MOL0     C37009   0.946  -0.016   9.854  0.6455 -1.1675 -0.3491
  275MOL0     C37010   0.861   0.014   9.724  0.0344  0.9359 -0.2793
  275MOL0     C37011   0.942   0.024   9.598 -0.4617 -0.4502  0.0183
  275MOL0     C37012   1.002   0.174   9.593  0.0592 -0.7363  0.3225
  275MOL0     C37013   0.999   0.233   9.446 -0.7087  1.7028 -0.6117
  275MOL0     O37014   1.087   0.152   9.370  0.1286 -0.5588  0.4817
  275MOL0     C37015   1.109   0.192   9.244 -0.4202  0.7236  1.7035
  275MOL0     C37016   1.194   0.107   9.171  0.5673 -0.4228 -0.2887
  275MOL0     C37017   1.225   0.115   9.034 -0.6243 -0.3792 -0.5199
  275MOL0     C37018   1.314   0.007   8.970  0.0007 -0.6746  0.7913
  275MOL0     C37019   1.178   0.230   8.961 -1.0900  0.2391 -1.0165
  275MOL0     C37020   1.204   0.255   8.821  0.1916 -0.6354  0.2204
  275MOL0     O37021   1.108   0.324   8.746 -0.8722 -0.5138  0.3760
  275MOL0     C37022   1.113   0.361   8.619 -0.5056 -0.3395 -0.0161
  275MOL0     C37023   1.002   0.435   8.578 -0.0214  0.5565  0.0878
  275MOL0     C37024   1.003   0.485   8.452 -0.5893 -0.0254  0.1830
  275MOL0     C37025   1.100   0.460   8.358  0.4855  0.3603 -0.5057
  275MOL0     O37026   1.086   0.501   8.227  0.5564  0.9954  0.4337
  275MOL0     C37027   1.201   0.492   8.138 -1.0580  0.2275 -0.6638
  275MOL0     C37028   1.193   0.611   8.054 -0.7399 -0.0808  0.6077
  275MOL0     C37029   1.098   0.587   7.935  0.6221 -0.2417  0.4496
  275MOL0     C37030   1.093   0.712   7.839 -0.1173 -0.2698  0.5119
  275MOL0     C37031   0.975   0.699   7.742 -0.4598 -0.2736 -0.2730
  275MOL0     C37032   0.970   0.809   7.646 -0.2531  0.5146  0.1498
  275MOL0     C37033   0.953   0.947   7.712  0.5253  0.2756  0.3609
  275MOL0     C37034   0.959   1.054   7.597  0.1884  0.2938  0.0046
  275MOL0    Cl37035   0.988   1.207   7.689  0.2479  0.4116  0.2239
  275MOL0     C37036   1.199   0.374   8.393 -0.1266 -0.0169  0.2860
  275MOL0     C37037   1.214   0.331   8.520 -0.1631 -0.6766 -0.2918
  275MOL0     O37038   1.317   0.239   8.778 -0.4480  0.7198  0.3885
  275MOL0     C37039   1.105   0.317   9.035  0.1525 -0.2199  1.0432
  275MOL0     C37040   1.062   0.300   9.166 -0.9892  0.3193 -0.5615
  275MOL0     N37041   0.887  -0.063   9.978 -0.6042 -0.2034 -0.4104
  275MOL0     N37042   0.977  -0.064  10.071  0.1537 -0.7022  0.9073
  275MOL0     C37043   1.307   1.014  10.326  0.8985 -0.6267 -0.9958
  275MOL0     C37044   1.369   1.139  10.320 -0.8527 -0.2592  0.2064
  275MOL0     C37045   1.716   1.439  10.351 -0.1536  0.3916  0.1849
  275MOL0     C37046   1.851   1.451  10.368  0.1287  0.4187 -0.3284
  275MOL0     C37047   1.915   1.571  10.343 -0.0498  0.0702  0.1034
  275MOL0     C37048   1.842   1.690  10.306  0.3666 -0.1268  0.6499
  275MOL0     O37049   1.893   1.820  10.304  0.6241  0.1229 -0.3461
  275MOL0     C37050   2.017   1.850  10.363  0.2170  0.6237 -0.4774
  275MOL0     C37051   1.993   1.862  10.519 -0.3705 -0.4080 -0.4792
  275MOL0     C37052   2.129   1.910  10.569  0.9303 -0.7265  0.3646
  275MOL0     C37053   2.128   1.970  10.714  0.7170  0.3213  1.2457
  275MOL0     C37054   2.061   1.880  10.816  0.3025  0.7906  0.6908
  275MOL0     C37055   2.002   1.797  10.892 -0.1138 -0.6741  0.1343
  275MOL0     C37056   1.706   1.676  10.281  0.8471  0.0398  0.1412
  275MOL0     C37057   1.642   1.556  10.309 -0.1180  0.8950 -0.2829
  275MOL0     H37058   1.562   1.123  10.584 -2.2032 -0.0720  1.7437
  275MOL0     H37059   1.452   0.900  10.609  3.7562  1.3016 -0.2266
  275MOL0     H37060   1.475   0.701  10.450  0.6809  1.0574  0.0341
  275MOL0     H37061   1.361   0.681  10.580 -0.1428 -1.6484 -0.0730
  275MOL0     H37062   1.245   0.501  10.423 -1.0872  1.5867  0.3562
  275MOL0     H37063   1.352   0.559  10.291  3.2985 -3.4055  0.8606
  275MOL0     H37064   1.539   0.472  10.424  1.1550 -3.2776 -0.6969
  275MOL0     H37065   1.414   0.429  10.556 -0.8198  0.1775  0.2641
  275MOL0     H37066   1.468   0.221  10.430  2.7837  2.7807  0.9793
  275MOL0     H37067   1.299   0.269  10.421  0.3208 -2.4550  1.4312
  275MOL0     H37068   1.389   0.378  10.192 -1.1931  0.8473  4.0763
  275MOL0     H37069   1.544   0.306  10.219 -0.1790  4.5067 -2.2787
  275MOL0     H37070   1.427   0.156  10.075 -0.2340  0.7136  0.0609
  275MOL0     H37071   1.418   0.072  10.230  0.5075  0.7299  1.8856
  275MOL0     H37072   1.180   0.160  10.252  1.2928  1.9506  0.0007
  275MOL0     H37073   1.193   0.222  10.091 -1.1216  0.5180  0.8596
  275MOL0     H37074   1.187  -0.059  10.194  1.1921  0.1050 -0.7676
  275MOL0     H37075   1.305  -0.039  10.072 -1.3019 -5.3125  1.0187
  275MOL0     H37076   1.146   0.051   9.820 -0.6090  0.0055  0.3882
  275MOL0     H37077   0.793  -0.070   9.709  1.6082 -0.1695 -1.7209
  275MOL0     H37078   0.805   0.104   9.748  0.4653  1.2684 -0.4929
  275MOL0     H37079   0.889   0.004   9.505  0.6434 -1.2024 -0.4818
  275MOL0     H37080   1.027  -0.044   9.607 -0.1472 -0.0659  0.0225
  275MOL0     H37081   1.103   0.173   9.637  0.3028  0.6168 -0.1633
  275MOL0     H37082   0.939   0.241   9.653  1.5726  1.0057  0.0614
  275MOL0     H37083   1.031   0.337   9.450  3.2586  0.6528 -1.3064
  275MOL0     H37084   0.901   0.240   9.399 -0.9860  1.3230 -0.1098
  275MOL0     H37085   1.234   0.020   9.222  2.9925  0.2338 -0.9246
  275MOL0     H37086   1.299  -0.082   9.032 -1.5044 -0.7698  0.3298
  275MOL0     H37087   1.277  -0.011   8.869 -0.9301 -2.0256  1.3433
  275MOL0     H37088   1.420   0.033   8.961 -0.9446  3.4692 -0.5042
  275MOL0     H37089   0.925   0.470   8.646 -1.5933 -0.5370 -1.0472
  275MOL0     H37090   0.928   0.555   8.417  1.6868  0.5838 -4.2019
  275MOL0     H37091   1.291   0.509   8.197 -1.7829 -0.9832  0.8561
  275MOL0     H37092   1.205   0.398   8.081 -1.2267 -0.7365  0.8699
  275MOL0     H37093   1.171   0.698   8.116  2.4866  0.7701  0.7302
  275MOL0     H37094   1.293   0.624   8.011  0.0360 -1.2786  1.9126
  275MOL0     H37095   0.998   0.582   7.979  0.0714  0.3573 -0.6746
  275MOL0     H37096   1.122   0.497   7.878 -2.4746  0.8511 -2.9676
  275MOL0     H37097   1.080   0.805   7.895 -0.4761  0.0615 -0.1141
  275MOL0     H37098   1.181   0.727   7.776 -0.1464  2.1282  0.9382
  275MOL0     H37099   0.882   0.678   7.795 -2.2919 -3.4504 -4.2423
  275MOL0     H37100   0.995   0.609   7.683 -3.2636  0.8192 -3.1562
  275MOL0     H37101   1.064   0.820   7.590 -1.7242  1.8212 -2.2357
  275MOL0     H37102   0.891   0.788   7.574 -1.1228  0.5638  1.0764
  275MOL0     H37103   1.022   0.980   7.790 -0.1624  1.2611  0.5740
  275MOL0     H37104   0.852   0.953   7.754  0.7488 -3.4213  1.7895
  275MOL0     H37105   0.865   1.054   7.541  0.8549 -0.2822 -1.1463
  275MOL0     H37106   1.045   1.047   7.530  0.9228  1.6924  0.7571
  275MOL0     H37107   1.268   0.344   8.314 -1.6192 -3.1233 -0.0109
  275MOL0     H37108   1.304   0.271   8.532 -0.1035 -0.3839  0.8420
  275MOL0     H37109   1.057   0.403   8.990 -0.7098 -0.8596  0.7130
  275MOL0     H37110   1.002   0.375   9.215 -1.0999  1.5136 -2.4359
  275MOL0     H37111   1.256   0.996  10.232 -1.0982  0.6121 -0.1949
  275MOL0     H37112   1.352   1.203  10.234  0.5428 -0.8593 -0.5423
  275MOL0     H37113   1.916   1.366  10.386 -0.4393 -0.5525 -2.5086
  275MOL0     H37114   2.023   1.567  10.360 -0.1026 -1.3348  0.2843
  275MOL0     H37115   2.090   1.770  10.345 -3.2359 -2.9081 -0.1095
  275MOL0     H37116   2.058   1.943  10.324 -2.0233  2.1285  0.5444
  275MOL0     H37117   1.973   1.768  10.572  0.2532  2.0181  4.6991
  275MOL0     H37118   1.914   1.932  10.551 -0.5935 -1.9510  2.8184
  275MOL0     H37119   2.178   1.971  10.494 -2.3968  2.3479  0.4034
  275MOL0     H37120   2.189   1.819  10.578 -0.4782 -1.6126  1.4312
  275MOL0     H37121   2.080   2.067  10.699  2.4962  1.0238 -0.4027
  275MOL0     H37122   2.233   1.981  10.745  1.6762  2.0019 -2.0623
  275MOL0     H37123   1.959   1.720  10.953 -1.6717 -0.4220 -0.5972
  275MOL0     H37124   1.658   1.772  10.265  4.6199  2.0027 -0.6088
  275MOL0     H37125   1.533   1.558  10.305 -0.1059  1.6279 -0.4710
  276MOL0     O37126   2.192   7.561   8.770  0.6152  0.7602  0.1002
  276MOL0     C37127   2.239   7.660   8.824 -0.0444  0.7913 -1.0088
  276MOL0     O37128   2.222   7.694   8.953  0.2896 -0.7617  0.3028
  276MOL0     C37129   2.135   7.613   9.035 -0.9639 -0.5734  0.2725
  276MOL0     C37130   2.029   7.538   8.995 -0.0913  0.4064  1.0360
  276MOL0     C37131   1.957   7.457   9.080  0.1055 -0.3940 -0.0569
  276MOL0     C37132   2.001   7.457   9.217  0.0062 -0.4106  0.2553
  276MOL0     O37133   1.927   7.388   9.314 -0.0419  0.7128  0.1396
  276MOL0     C37134   1.808   7.310   9.280  0.8453  0.4121 -0.3343
  276MOL0     C37135   1.778   7.202   9.398 -1.2217 -0.3484  0.1244
  276MOL0     C37136   1.906   7.136   9.428 -0.8984 -0.3253 -0.4334
  276MOL0     C37137   1.899   7.013   9.519  0.0436  0.0805 -1.0362
  276MOL0     C37138   2.029   6.943   9.537  0.1896  0.6793 -0.9505
  276MOL0     C37139   2.041   6.834   9.652  0.0403 -0.9500  0.8500
  276MOL0     C37140   1.951   6.707   9.646  0.9735  1.0688 -0.4257
  276MOL0     C37141   1.969   6.636   9.778  0.4564 -0.0332 -0.6577
  276MOL0     N37142   1.919   6.495   9.767  0.0438 -0.7641 -0.0036
  276MOL0     C37143   2.002   6.393   9.727  0.2325  0.4308  0.8687
  276MOL0     C37144   1.910   6.296   9.700  0.1947  0.8884  0.0228
  276MOL0     C37145   1.924   6.162   9.634  0.8242 -0.3388 -0.4674
  276MOL0     C37146   1.805   6.065   9.640  0.2601 -0.1419 -0.6559
  276MOL0     C37147   1.851   5.919   9.626 -0.0855  0.9165  0.3025
  276MOL0     C37148   1.958   5.891   9.518 -0.7635 -1.1102  0.4150
  276MOL0     O37149   1.885   5.881   9.393  0.1885 -0.6136 -0.0490
  276MOL0     C37150   1.950   5.889   9.277 -0.4580 -0.4079  0.4161
  276MOL0     C37151   1.875   5.893   9.160  0.3002 -0.4009  1.7214
  276MOL0     C37152   1.923   5.913   9.029 -0.1687 -0.3498 -0.4860
  276MOL0     C37153   1.825   5.965   8.933 -0.4950  0.7727 -1.1679
  276MOL0     C37154   2.059   5.899   9.003 -0.4633  0.4954 -0.3211
  276MOL0     C37155   2.125   5.906   8.869 -0.2821 -0.7876  0.1662
  276MOL0     O37156   2.052   5.873   8.758  1.1776  1.2952 -0.2648
  276MOL0     C37157   2.122   5.864   8.641 -0.7450  0.4806 -0.1187
  276MOL0     C37158   2.114   5.964   8.556 -0.1632 -0.7714 -0.7345
  276MOL0     C37159   2.196   5.967   8.438  1.0430 -0.9699 -0.0761
  276MOL0     C37160   2.282   5.861   8.413 -0.7424  0.8393 -0.2881
  276MOL0     O37161   2.355   5.872   8.295  0.1283  0.2781 -0.2120
  276MOL0     C37162   2.450   5.766   8.259 -0.2366 -0.6396 -0.1126
  276MOL0     C37163   2.511   5.801   8.122 -0.8313 -0.1706  0.2566
  276MOL0     C37164   2.593   5.932   8.131 -1.0900 -1.3486  0.1072
  276MOL0     C37165   2.726   5.913   8.212  0.3876 -0.4246 -0.3406
  276MOL0     C37166   2.845   6.001   8.161  0.0073 -0.6227  0.7772
  276MOL0     C37167   2.804   6.155   8.151 -0.5830 -0.3216  0.6158
  276MOL0     C37168   2.934   6.231   8.127  0.6094 -0.1334 -0.3062
  276MOL0     C37169   2.929   6.384   8.093 -0.4392  0.6980 -0.0105
  276MOL0    Cl37170   2.880   6.410   7.920  0.0227  0.3229  0.1795
  276MOL0     C37171   2.289   5.759   8.499 -1.0899 -0.2628 -0.4344
  276MOL0     C37172   2.212   5.758   8.616  0.1658  0.2075  0.2725
  276MOL0     O37173   2.248   5.938   8.865 -0.8616 -0.6602 -0.5693
  276MOL0     C37174   2.136   5.864   9.122 -0.6411 -0.6205  0.1311
  276MOL0     C37175   2.092   5.882   9.254 -0.4643  0.2130 -0.0038
  276MOL0     N37176   1.782   6.335   9.733 -0.7520 -0.6241  0.8747
  276MOL0     N37177   1.794   6.456   9.771  0.4181 -0.1956  0.1337
  276MOL0     C37178   2.108   7.528   9.257  0.0754  1.0040 -0.1282
  276MOL0     C37179   2.171   7.621   9.172 -1.0353  0.0949 -1.1385
  276MOL0     C37180   2.288   7.764   8.743 -0.5163 -0.0291 -0.3477
  276MOL0     C37181   2.322   7.891   8.793 -0.0004 -0.5889 -0.1292
  276MOL0     C37182   2.364   7.993   8.703 -0.6740  0.9816  0.0719
  276MOL0     C37183   2.381   7.970   8.569  0.4658  0.4026 -0.0917
  276MOL0     O37184   2.423   8.077   8.502 -0.2847 -0.0023 -0.1860
  276MOL0     C37185   2.405   8.078   8.358  0.6815  0.2485  0.4246
  276MOL0     C37186   2.452   8.206   8.311  0.4912 -0.0032 -0.3231
  276MOL0     C37187   2.603   8.190   8.285  0.5467 -0.2137 -0.7278
  276MOL0     C37188   2.666   8.293   8.191  0.1682 -0.1290 -0.3408
  276MOL0     C37189   2.630   8.429   8.227  0.5888 -0.2791  0.2046
  276MOL0     C37190   2.593   8.543   8.239  0.0069  0.0066 -0.9732
  276MOL0     C37191   2.351   7.842   8.514  0.2931  0.1941  0.2212
  276MOL0     C37192   2.292   7.742   8.604 -0.9315 -0.8704 -0.2960
  276MOL0     H37193   1.976   7.530   8.900 -0.1264 -0.7320  1.1397
  276MOL0     H37194   1.884   7.390   9.037 -0.7623 -0.5515  1.5449
  276MOL0     H37195   1.721   7.377   9.273  0.2390 -0.5322 -2.4909
  276MOL0     H37196   1.824   7.257   9.186 -1.4204 -0.5029 -0.2849
  276MOL0     H37197   1.747   7.256   9.488 -1.1278  1.5029 -0.9114
  276MOL0     H37198   1.714   7.123   9.359  1.4631 -2.0673 -1.0560
  276MOL0     H37199   1.961   7.103   9.339 -0.2219 -4.1480  1.1683
  276MOL0     H37200   1.966   7.208   9.484 -1.0142  1.1598 -2.1215
  276MOL0     H37201   1.861   7.048   9.616 -3.3901 -0.7245 -1.9327
  276MOL0     H37202   1.831   6.934   9.483 -0.4226 -0.1255  0.2430
  276MOL0     H37203   2.047   6.894   9.441 -1.3397 -1.4125 -0.2361
  276MOL0     H37204   2.104   7.019   9.561 -1.3363  1.5370  1.5176
  276MOL0     H37205   2.146   6.804   9.652  0.2026 -0.3991  1.3895
  276MOL0     H37206   2.022   6.885   9.746  2.0653  0.3871  0.5975
  276MOL0     H37207   1.849   6.742   9.627  1.5271  2.1151 -1.6009
  276MOL0     H37208   1.989   6.648   9.562  2.2782  0.1780  0.7562
  276MOL0     H37209   1.910   6.678   9.859 -1.8604 -2.2663 -1.0620
  276MOL0     H37210   2.071   6.616   9.812 -0.1289 -1.6876  0.2686
  276MOL0     H37211   2.108   6.375   9.714 -0.0741  0.3378 -2.4691
  276MOL0     H37212   1.960   6.177   9.532  2.9675 -1.1405  0.1271
  276MOL0     H37213   2.007   6.118   9.690  1.3140  0.0133 -0.9089
  276MOL0     H37214   1.722   6.080   9.571 -0.2461  0.0133 -0.0210
  276MOL0     H37215   1.767   6.070   9.743 -0.0768 -4.0196 -0.4500
  276MOL0     H37216   1.757   5.866   9.608 -0.9692  2.5231 -0.0563
  276MOL0     H37217   1.893   5.894   9.724  1.0173 -2.3681 -0.8623
  276MOL0     H37218   2.007   5.794   9.529 -0.7268 -1.0694  0.6101
  276MOL0     H37219   2.043   5.959   9.524 -1.6093  0.1081 -0.8458
  276MOL0     H37220   1.766   5.899   9.164  0.3495  2.7998  0.9222
  276MOL0     H37221   1.788   5.867   8.903 -0.9149  0.3473  0.6216
  276MOL0     H37222   1.759   6.036   8.985 -2.0387 -1.3766 -0.0152
  276MOL0     H37223   1.863   6.004   8.839  0.6487 -1.0338 -1.5062
  276MOL0     H37224   2.047   6.045   8.583  1.7504  0.3160  0.9723
  276MOL0     H37225   2.173   6.042   8.363  2.4362  1.2936  1.6303
  276MOL0     H37226   2.528   5.752   8.335 -0.7800 -0.7997  0.4280
  276MOL0     H37227   2.391   5.674   8.250 -0.2572 -0.5261 -1.2601
  276MOL0     H37228   2.570   5.714   8.092 -1.1488  0.2802 -1.8735
  276MOL0     H37229   2.436   5.817   8.044  0.1817 -3.3042 -1.5018
  276MOL0     H37230   2.533   6.022   8.141  0.9266  0.0523  0.2817
  276MOL0     H37231   2.632   5.957   8.031 -3.2879  0.2473 -0.4215
  276MOL0     H37232   2.693   5.934   8.313 -1.7060  5.5933 -1.8854
  276MOL0     H37233   2.754   5.807   8.213 -0.2789 -0.6084  1.7458
  276MOL0     H37234   2.877   5.963   8.063 -4.8688  0.4090 -1.5236
  276MOL0     H37235   2.926   5.999   8.234 -3.3418  0.6916  4.9707
  276MOL0     H37236   2.745   6.161   8.060 -1.6465 -1.5613  1.1962
  276MOL0     H37237   2.743   6.189   8.236  0.3768  6.0238 -0.7567
  276MOL0     H37238   2.976   6.179   8.041 -3.2121 -1.1992 -1.7259
  276MOL0     H37239   2.998   6.215   8.214 -1.7745  0.7664  1.7597
  276MOL0     H37240   3.026   6.428   8.116 -0.9073  0.2671  3.2617
  276MOL0     H37241   2.857   6.436   8.158  0.0923  0.4585  0.7883
  276MOL0     H37242   2.348   5.668   8.485 -2.9900 -2.5833  4.2542
  276MOL0     H37243   2.232   5.673   8.680  1.9236 -1.9963 -2.9184
  276MOL0     H37244   2.243   5.845   9.111 -0.0427  1.2687  2.0589
  276MOL0     H37245   2.166   5.880   9.334  0.9846  1.7856 -1.2165
  276MOL0     H37246   2.138   7.521   9.360  0.2052  0.0801 -0.2217
  276MOL0     H37247   2.246   7.685   9.217 -4.8640  3.6457  1.0350
  276MOL0     H37248   2.316   7.922   8.896 -0.0760 -2.8324  0.5965
  276MOL0     H37249   2.374   8.095   8.737  1.5066  1.5191 -1.9334
  276MOL0     H37250   2.435   7.991   8.298 -0.3980  0.0646  0.1237
  276MOL0     H37251   2.296   8.074   8.345  0.9390 -3.3338 -2.1034
  276MOL0     H37252   2.431   8.273   8.394 -1.0354 -1.3358  0.4431
  276MOL0     H37253   2.400   8.219   8.215 -2.2628 -1.4797  0.8360
  276MOL0     H37254   2.620   8.087   8.253  1.3659  0.2769 -1.9163
  276MOL0     H37255   2.649   8.217   8.380 -1.4233  1.6557 -0.2171
  276MOL0     H37256   2.630   8.292   8.087  0.7396  0.8994 -0.5522
  276MOL0     H37257   2.775   8.292   8.188  0.2335  0.6003 -4.6089
  276MOL0     H37258   2.548   8.639   8.223 -2.3367 -1.2201 -2.4221
  276MOL0     H37259   2.358   7.817   8.409 -0.8967 -0.7368  0.3541
  276MOL0     H37260   2.267   7.648   8.556 -0.0300 -0.2679 -2.0065
  277MOL0     O37261   6.574   3.000   6.128  0.3131  0.6474 -0.5277
  277MOL0     C37262   6.515   2.986   6.234 -1.2149  0.1873 -0.0664
  277MOL0     O37263   6.482   2.868   6.296  0.3186 -0.4814  0.0215
  277MOL0     C37264   6.494   2.745   6.238 -0.1980 -0.0147 -0.1011
  277MOL0     C37265   6.474   2.721   6.103  0.5212  0.8648  0.4987
  277MOL0     C37266   6.495   2.592   6.056 -0.6429  0.4293  0.4181
  277MOL0     C37267   6.521   2.480   6.137 -0.2664 -0.1775 -0.4201
  277MOL0     O37268   6.529   2.364   6.059 -0.1762  0.6967 -0.2141
  277MOL0     C37269   6.553   2.235   6.121 -0.8549 -0.4407  0.4823
  277MOL0     C37270   6.498   2.117   6.035 -0.0047 -0.7625  0.3792
  277MOL0     C37271   6.571   2.124   5.889  0.3138  0.1277  0.2404
  277MOL0     C37272   6.544   1.979   5.837 -0.1985  1.0440  0.5995
  277MOL0     C37273   6.556   1.965   5.683  0.5923 -0.0636 -0.8441
  277MOL0     C37274   6.695   1.990   5.624 -0.6490 -0.0598  0.6954
  277MOL0     C37275   6.714   1.927   5.483  0.3245  0.7401  0.0216
  277MOL0     C37276   6.639   2.017   5.379 -0.1274  0.4267  0.1225
  277MOL0     N37277   6.676   1.960   5.251  0.8183 -1.0334 -0.1695
  277MOL0     C37278   6.606   1.869   5.182  1.3140 -0.0256  0.5774
  277MOL0     C37279   6.635   1.890   5.057  0.4776 -0.2401 -0.1300
  277MOL0     C37280   6.592   1.809   4.937  0.3091  0.2449  1.2125
  277MOL0     C37281   6.535   1.896   4.818 -0.3459 -0.3860  0.9721
  277MOL0     C37282   6.401   1.966   4.854  0.3073 -1.2882 -0.3135
  277MOL0     C37283   6.332   2.022   4.726  0.7111 -1.1376  0.2609
  277MOL0     O37284   6.197   2.063   4.765  0.2856 -0.1736 -0.4412
  277MOL0     C37285   6.096   2.011   4.687 -0.9197 -0.1718  0.8391
  277MOL0     C37286   6.035   2.106   4.605 -0.7271  0.4176 -0.7810
  277MOL0     C37287   5.909   2.068   4.550  0.1088 -0.3867 -0.2014
  277MOL0     C37288   5.850   2.177   4.466  0.1387 -0.2215 -0.8449
  277MOL0     C37289   5.853   1.942   4.577  0.0959  1.0603  0.0858
  277MOL0     C37290   5.733   1.879   4.521  0.4417  0.4948  0.1984
  277MOL0     O37291   5.641   1.971   4.484  0.5088 -0.9486 -0.3811
  277MOL0     C37292   5.518   1.930   4.437  0.1305 -0.0357 -0.6099
  277MOL0     C37293   5.409   1.899   4.524 -0.1608  0.7688  0.2363
  277MOL0     C37294   5.292   1.844   4.480  0.2800  0.6138  0.0398
  277MOL0     C37295   5.273   1.836   4.341 -0.1670  0.6429  1.7089
  277MOL0     O37296   5.148   1.790   4.306 -0.4097  0.1792  0.4907
  277MOL0     C37297   5.127   1.723   4.181  0.1789  0.1785 -0.3867
  277MOL0     C37298   4.993   1.673   4.153  0.9287 -0.1930 -0.1717
  277MOL0     C37299   4.878   1.772   4.186 -0.0664  0.4397 -0.1201
  277MOL0     C37300   4.748   1.727   4.133  0.2402  0.1033 -0.4002
  277MOL0     C37301   4.630   1.774   4.223 -0.5555  1.2733 -0.2128
  277MOL0     C37302   4.507   1.714   4.174  0.1685  0.5866  0.3941
  277MOL0     C37303   4.448   1.769   4.040  1.1543  0.2664  0.1540
  277MOL0     C37304   4.320   1.709   3.996 -0.5592 -0.2915  0.3623
  277MOL0    Cl37305   4.189   1.741   4.108 -0.1370 -0.0589  0.1098
  277MOL0     C37306   5.367   1.887   4.251 -0.2802 -0.2328  0.1282
  277MOL0     C37307   5.491   1.939   4.305 -0.2704  1.1198  0.4601
  277MOL0     O37308   5.711   1.751   4.516 -0.4371  0.0496  0.3287
  277MOL0     C37309   5.932   1.843   4.651 -0.4213 -0.3656  0.4464
  277MOL0     C37310   6.051   1.885   4.711 -1.0862 -0.0343 -1.0249
  277MOL0     N37311   6.739   1.977   5.047 -0.5031 -0.3569 -0.0368
  277MOL0     N37312   6.756   2.025   5.164 -0.2602 -0.1287 -0.9568
  277MOL0     C37313   6.520   2.504   6.276  0.0181 -0.7547  0.8534
  277MOL0     C37314   6.508   2.634   6.326 -0.6674 -0.0550 -0.0904
  277MOL0     C37315   6.492   3.095   6.325  0.0009  0.2292 -0.5270
  277MOL0     C37316   6.576   3.208   6.335  0.0974 -0.5593  0.6425
  277MOL0     C37317   6.543   3.318   6.420 -0.4503  0.1354  0.0973
  277MOL0     C37318   6.432   3.302   6.505 -0.0943  0.1835  0.1327
  277MOL0     O37319   6.411   3.422   6.572 -0.0313  0.3228 -0.8929
  277MOL0     C37320   6.275   3.460   6.605  0.4869  0.1007  0.2165
  277MOL0     C37321   6.190   3.496   6.481 -0.3443  0.7384 -0.1425
  277MOL0     C37322   6.056   3.554   6.534  0.3646 -0.3175 -0.8868
  277MOL0     C37323   5.989   3.665   6.449  0.0189 -0.3014  0.8315
  277MOL0     C37324   5.920   3.615   6.328 -0.2908 -0.0466  0.1082
  277MOL0     C37325   5.863   3.557   6.242 -0.0858  0.3490  0.3478
  277MOL0     C37326   6.346   3.191   6.500  0.8240 -0.6596  0.3664
  277MOL0     C37327   6.374   3.089   6.404 -0.0760 -0.5087 -0.3626
  277MOL0     H37328   6.448   2.804   6.038  2.2353  0.9849 -0.1056
  277MOL0     H37329   6.498   2.571   5.949  4.0012  0.4318  0.3457
  277MOL0     H37330   6.659   2.220   6.145 -0.9148  1.8477  2.6581
  277MOL0     H37331   6.500   2.231   6.217  1.8971  5.0493  2.6560
  277MOL0     H37332   6.535   2.026   6.083 -2.1675 -0.8870  1.9675
  277MOL0     H37333   6.389   2.123   6.038  0.0087  1.6260  4.2503
  277MOL0     H37334   6.521   2.203   5.832  0.6024  1.2888  1.5342
  277MOL0     H37335   6.673   2.142   5.923 -0.5579  3.4396  1.4603
  277MOL0     H37336   6.606   1.912   5.896 -0.9587  2.8296  3.6497
  277MOL0     H37337   6.441   1.953   5.861 -0.9891  0.8521 -2.5873
  277MOL0     H37338   6.507   1.870   5.661 -4.4192  1.4475  1.9534
  277MOL0     H37339   6.496   2.046   5.639  2.0931  2.0883  0.8166
  277MOL0     H37340   6.707   2.099   5.618 -0.9868 -0.0798 -0.5595
  277MOL0     H37341   6.771   1.959   5.696 -1.6439 -2.4240  0.8055
  277MOL0     H37342   6.820   1.946   5.463  0.3773  1.7634  1.1636
  277MOL0     H37343   6.696   1.820   5.468  2.1875 -0.1797  3.3179
  277MOL0     H37344   6.658   2.124   5.386  0.0936  0.3920  0.0789
  277MOL0     H37345   6.532   2.018   5.398  0.1500  3.2583  2.1893
  277MOL0     H37346   6.535   1.799   5.226  2.2504 -0.0547  2.0979
  277MOL0     H37347   6.677   1.751   4.898 -0.2213 -0.5204  1.1866
  277MOL0     H37348   6.521   1.728   4.959  1.8142 -1.8027 -0.9156
  277MOL0     H37349   6.516   1.835   4.729  1.6605 -1.0483  0.9462
  277MOL0     H37350   6.618   1.963   4.797  0.1959  0.0830  4.1029
  277MOL0     H37351   6.427   2.056   4.911  2.2573 -1.8476 -0.2472
  277MOL0     H37352   6.321   1.909   4.902 -1.7324  1.1479 -0.6034
  277MOL0     H37353   6.340   1.954   4.641 -1.3487  1.6104 -2.3946
  277MOL0     H37354   6.383   2.114   4.696  1.2851 -0.8871  1.9307
  277MOL0     H37355   6.067   2.209   4.597 -2.1877  1.1493  1.8252
  277MOL0     H37356   5.927   2.253   4.457  2.1958 -1.3932  3.8367
  277MOL0     H37357   5.824   2.145   4.365 -1.1857  1.0966 -0.9504
  277MOL0     H37358   5.761   2.214   4.519  0.0990  0.6466 -1.5101
  277MOL0     H37359   5.426   1.899   4.631 -0.5831 -0.0825  0.3131
  277MOL0     H37360   5.217   1.807   4.549  1.2349  1.3651  1.5389
  277MOL0     H37361   5.156   1.788   4.098 -1.1027  0.2165 -0.8220
  277MOL0     H37362   5.196   1.638   4.176  1.3147  1.0840 -0.7604
  277MOL0     H37363   4.980   1.649   4.047 -1.8704  2.3680 -0.5219
  277MOL0     H37364   4.968   1.584   4.212 -1.6607  0.2750 -0.4747
  277MOL0     H37365   4.891   1.871   4.140 -0.0919  0.3428 -0.3340
  277MOL0     H37366   4.867   1.775   4.295  3.1784  2.9950  0.3197
  277MOL0     H37367   4.732   1.770   4.034 -3.0493 -0.3655 -0.1730
  277MOL0     H37368   4.750   1.620   4.113  0.1057  0.1085 -0.4403
  277MOL0     H37369   4.629   1.881   4.245  0.5110  0.8676  2.1615
  277MOL0     H37370   4.628   1.741   4.327 -2.3636 -0.2750 -0.6896
  277MOL0     H37371   4.524   1.607   4.165  1.0316  0.6867  0.7232
  277MOL0     H37372   4.426   1.734   4.245 -2.4833 -0.0852 -2.2593
  277MOL0     H37373   4.507   1.743   3.952  1.5159  0.3818  0.3575
  277MOL0     H37374   4.446   1.878   4.044 -2.7162  0.2997  0.7111
  277MOL0     H37375   4.330   1.600   3.990  3.0230 -0.1040  0.5570
  277MOL0     H37376   4.305   1.744   3.894 -0.6510  0.1906  0.5378
  277MOL0     H37377   5.348   1.885   4.144  0.1438  1.0432  0.0159
  277MOL0     H37378   5.570   1.958   4.234 -0.9112 -1.4177 -1.0673
  277MOL0     H37379   5.892   1.746   4.677  0.3258 -0.4788  1.1974
  277MOL0     H37380   6.116   1.817   4.765 -0.4175  0.0604 -1.7055
  277MOL0     H37381   6.534   2.427   6.351  0.1978  0.1793  1.8150
  277MOL0     H37382   6.556   2.652   6.422 -1.3846  0.5575  0.1652
  277MOL0     H37383   6.669   3.226   6.282  1.0674  0.2169  2.5313
  277MOL0     H37384   6.605   3.407   6.422 -0.4252  0.1274 -0.3243
  277MOL0     H37385   6.224   3.382   6.663  1.0109 -3.1052 -3.1832
  277MOL0     H37386   6.288   3.550   6.665  0.9270  0.5191 -0.4881
  277MOL0     H37387   6.160   3.408   6.424  2.9562  0.9371 -2.4795
  277MOL0     H37388   6.248   3.555   6.409  1.7971 -0.7276  0.2861
  277MOL0     H37389   6.068   3.615   6.624  1.8602 -2.3414  0.4078
  277MOL0     H37390   5.997   3.469   6.570  5.7355 -4.1217  0.2958
  277MOL0     H37391   6.056   3.747   6.422  1.1145 -1.1897  0.8392
  277MOL0     H37392   5.902   3.692   6.511 -2.6746 -0.4351 -2.5620
  277MOL0     H37393   5.806   3.515   6.162 -1.7184  0.2023  1.5362
  277MOL0     H37394   6.265   3.194   6.572  2.9374 -0.5266  2.9048
  277MOL0     H37395   6.312   3.001   6.394  0.7032 -1.0808 -0.2876
  278MOL0     O37396  11.200   6.635   2.743  0.3202 -0.0013  0.0630
  278MOL0     C37397  11.233   6.594   2.855 -0.1593 -0.0640  0.8079
  278MOL0     O37398  11.306   6.468   2.874  0.3187  0.8651 -0.1202
  278MOL0     C37399  11.346   6.407   2.758 -0.1826  0.5756 -0.1413
  278MOL0     C37400  11.472   6.433   2.710 -0.3765 -0.4182 -0.3159
  278MOL0     C37401  11.509   6.380   2.586  0.1238  0.4516 -0.2454
  278MOL0     C37402  11.427   6.288   2.522  0.3045 -0.6376  0.0906
  278MOL0     O37403  11.465   6.232   2.404 -0.1498  0.9732  0.5724
  278MOL0     C37404  11.385   6.213   2.292 -0.2233 -0.0487  0.1572
  278MOL0     C37405  11.484   6.176   2.181 -0.5711  0.5068 -0.3173
  278MOL0     C37406  11.623   6.260   2.188  0.0585  0.0732  0.0034
  278MOL0     C37407  11.604   6.412   2.153  0.1275 -0.3902 -0.0991
  278MOL0     C37408  11.599   6.439   2.001 -0.1635 -0.4228 -0.0777
  278MOL0     C37409  11.593   6.591   1.973 -0.3360  0.5421 -0.1632
  278MOL0     C37410  11.602   6.608   1.818 -0.7224  0.4747  0.5302
  278MOL0     C37411  11.497   6.545   1.730  0.3057 -0.5037  0.0496
  278MOL0     N37412  11.360   6.595   1.756 -0.3548  0.2555  0.2897
  278MOL0     C37413  11.323   6.725   1.784 -0.5595  1.0542  0.3455
  278MOL0     C37414  11.193   6.724   1.798 -0.5760  1.5447 -0.7688
  278MOL0     C37415  11.111   6.852   1.823 -0.3418 -1.1274  0.7436
  278MOL0     C37416  11.081   6.908   1.966  0.8793 -0.0760 -0.0712
  278MOL0     C37417  11.207   6.969   2.033  0.6969  0.0929 -1.0665
  278MOL0     C37418  11.274   7.097   1.972 -0.1739 -0.1150 -0.7279
  278MOL0     O37419  11.375   7.139   2.073 -0.4211  0.4663 -0.1427
  278MOL0     C37420  11.496   7.121   2.026 -0.4963  0.0982  0.2538
  278MOL0     C37421  11.577   7.231   1.982 -0.1888  0.5385 -1.1422
  278MOL0     C37422  11.713   7.210   1.939  0.1250  0.7503  0.2763
  278MOL0     C37423  11.795   7.314   1.896 -0.3642 -0.6543  0.2978
  278MOL0     C37424  11.756   7.073   1.929  0.1228  0.1136  0.6350
  278MOL0     C37425  11.903   7.034   1.921  0.5544  0.5672  0.2798
  278MOL0     O37426  11.944   6.975   1.807 -0.2721 -0.0559 -0.3703
  278MOL0     C37427  12.061   6.914   1.795 -0.2141  0.8582  0.3713
  278MOL0     C37428  12.056   6.780   1.765 -0.4924 -0.4423 -0.1341
  278MOL0     C37429  12.182   6.711   1.739  0.7457  0.0936 -0.1186
  278MOL0     C37430  12.310   6.770   1.770  0.0374  0.7030  0.7873
  278MOL0     O37431  12.422   6.694   1.760  0.2028  0.3524 -0.6543
  278MOL0     C37432  12.553   6.748   1.728  0.5157 -0.0417 -0.6269
  278MOL0     C37433  12.560   6.794   1.583 -0.4854  0.2197  0.8203
  278MOL0     C37434  12.705   6.795   1.521 -1.1465  0.3390 -0.3185
  278MOL0     C37435  12.706   6.798   1.368  0.3504  0.2406 -0.2477
  278MOL0     C37436  12.822   6.848   1.285  0.1434 -0.0162  0.3045
  278MOL0     C37437  12.952   6.793   1.353  0.1359  0.0115 -0.1754
  278MOL0     C37438  13.087   6.829   1.300 -0.1860 -1.1490  0.5099
  278MOL0     C37439  13.094   6.964   1.226  0.3569 -0.1323 -0.9706
  278MOL0    Cl37440  13.254   7.003   1.139  0.7035  0.0304 -0.2244
  278MOL0     C37441  12.314   6.902   1.803  0.6425  0.1380  0.0101
  278MOL0     C37442  12.186   6.976   1.813 -1.4213 -0.2869  0.1669
  278MOL0     O37443  11.969   7.056   2.022 -0.3430 -0.1507 -0.0127
  278MOL0     C37444  11.677   6.970   1.966  0.7546  0.1618  0.4499
  278MOL0     C37445  11.550   6.990   2.029 -1.1215 -0.1249 -0.5705
  278MOL0     N37446  11.148   6.590   1.760  0.2753 -0.3662 -0.1577
  278MOL0     N37447  11.250   6.515   1.749 -0.2294 -0.0142 -0.3746
  278MOL0     C37448  11.303   6.250   2.578 -0.2625 -0.1747  0.1135
  278MOL0     C37449  11.266   6.302   2.696  0.3153 -0.6931  0.4231
  278MOL0     C37450  11.174   6.661   2.969  0.3095  0.8867  0.0401
  278MOL0     C37451  11.081   6.763   2.959  0.9897 -0.6390  0.1428
  278MOL0     C37452  11.025   6.815   3.076 -0.0354 -0.3095  1.1033
  278MOL0     C37453  11.077   6.780   3.202  0.4780  0.4646 -0.0252
  278MOL0     O37454  11.033   6.822   3.321  0.3627  0.1837  0.0217
  278MOL0     C37455  11.103   6.940   3.355 -1.0591  0.3347 -0.1087
  278MOL0     C37456  11.215   6.912   3.459  0.0572  0.1671  0.3433
  278MOL0     C37457  11.184   6.806   3.569  0.3104  0.8224  0.0389
  278MOL0     C37458  11.287   6.776   3.683  1.3786 -0.0564  2.4237
  278MOL0     C37459  11.424   6.761   3.630  0.3463 -0.4052  0.0059
  278MOL0     C37460  11.534   6.741   3.592  0.1788  0.0988  0.4171
  278MOL0     C37461  11.177   6.680   3.212  0.8334 -0.5949 -0.8110
  278MOL0     C37462  11.226   6.622   3.099  0.4362 -0.0703 -0.3483
  278MOL0     H37463  11.535   6.512   2.747 -1.1396  0.5348 -0.9972
  278MOL0     H37464  11.600   6.412   2.538 -0.3890  0.3888 -1.2811
  278MOL0     H37465  11.308   6.135   2.292  0.1733 -0.4440 -0.0326
  278MOL0     H37466  11.335   6.308   2.272 -1.0679 -0.4654  0.2191
  278MOL0     H37467  11.493   6.067   2.186  0.9064  0.6646  1.7707
  278MOL0     H37468  11.430   6.198   2.088 -1.5594 -0.9285 -0.1164
  278MOL0     H37469  11.654   6.248   2.292  0.0887 -0.2285 -0.0403
  278MOL0     H37470  11.695   6.213   2.120  2.4228  0.9491  1.7235
  278MOL0     H37471  11.514   6.458   2.194 -0.6054 -0.4534 -1.5524
  278MOL0     H37472  11.699   6.457   2.182  0.8556 -2.5305  0.9639
  278MOL0     H37473  11.687   6.395   1.953 -1.4625 -2.0379 -1.0665
  278MOL0     H37474  11.512   6.389   1.957 -1.8544 -0.9336  3.4943
  278MOL0     H37475  11.504   6.643   2.008 -1.2772 -0.5337 -0.8868
  278MOL0     H37476  11.679   6.639   2.021  0.3434  2.3607 -2.9065
  278MOL0     H37477  11.597   6.716   1.798  0.4186  0.4375 -0.0722
  278MOL0     H37478  11.702   6.578   1.785 -0.5894  2.0251 -0.5936
  278MOL0     H37479  11.487   6.437   1.741  2.4043 -0.5641  1.9729
  278MOL0     H37480  11.510   6.560   1.622  2.8839 -1.6163  0.1405
  278MOL0     H37481  11.389   6.811   1.787  0.1363  0.7523 -2.7724
  278MOL0     H37482  11.163   6.933   1.772 -0.3082 -2.5280 -1.6009
  278MOL0     H37483  11.017   6.833   1.770 -0.7256  0.4832  0.8151
  278MOL0     H37484  11.036   6.823   2.018  1.0786  0.0774  0.3561
  278MOL0     H37485  11.009   6.989   1.960 -3.3619 -3.4846 -0.0626
  278MOL0     H37486  11.282   6.890   2.027  0.0101 -0.5879 -0.8445
  278MOL0     H37487  11.193   6.988   2.139  0.5194  0.6170 -1.1829
  278MOL0     H37488  11.199   7.176   1.959 -1.0103 -0.8268 -0.3339
  278MOL0     H37489  11.315   7.088   1.871  2.3422  3.1835 -0.1620
  278MOL0     H37490  11.541   7.333   1.975  0.7299  0.9242 -0.5467
  278MOL0     H37491  11.901   7.288   1.906  0.1924  1.4305  0.3724
  278MOL0     H37492  11.783   7.343   1.791  0.3180 -0.1743  0.3474
  278MOL0     H37493  11.773   7.405   1.952 -1.9868 -0.7378 -0.1360
  278MOL0     H37494  11.969   6.715   1.768 -0.5302 -0.3392  2.0281
  278MOL0     H37495  12.173   6.610   1.700  1.5063 -0.8736  2.0691
  278MOL0     H37496  12.593   6.819   1.801  0.6969  0.3584 -1.1091
  278MOL0     H37497  12.618   6.660   1.734  1.0300  0.1767 -2.4705
  278MOL0     H37498  12.500   6.722   1.526 -0.7009 -0.1927  1.5613
  278MOL0     H37499  12.519   6.894   1.567  1.1707  0.5803 -1.7619
  278MOL0     H37500  12.760   6.706   1.553  0.4712  0.7928 -1.7062
  278MOL0     H37501  12.756   6.883   1.561  0.2049  0.0483 -1.3546
  278MOL0     H37502  12.685   6.696   1.332 -0.8710  0.3448  0.1250
  278MOL0     H37503  12.618   6.852   1.331  0.5941  0.6637 -0.2087
  278MOL0     H37504  12.826   6.957   1.278  1.0792 -0.1523 -3.5374
  278MOL0     H37505  12.804   6.825   1.180 -2.8267 -0.9262  0.9132
  278MOL0     H37506  12.938   6.825   1.457 -2.0804 -1.0901 -0.0741
  278MOL0     H37507  12.931   6.685   1.359 -1.3835  0.2579 -0.4859
  278MOL0     H37508  13.099   6.756   1.219 -2.1551 -0.6452 -0.2851
  278MOL0     H37509  13.173   6.813   1.367  0.8624 -0.6275 -0.6700
  278MOL0     H37510  13.067   7.043   1.297  0.1791  1.0875 -2.3490
  278MOL0     H37511  13.011   6.982   1.157 -3.6555 -0.4344  3.2350
  278MOL0     H37512  12.401   6.961   1.830  0.4105  0.3565  0.2982
  278MOL0     H37513  12.196   7.080   1.841  0.2531 -0.5580  0.6957
  278MOL0     H37514  11.710   6.867   1.953 -0.9177 -0.7869  2.8147
  278MOL0     H37515  11.497   6.905   2.071  2.2535 -1.2047  1.9774
  278MOL0     H37516  11.253   6.169   2.525 -1.2409 -0.9618  2.1243
  278MOL0     H37517  11.179   6.266   2.750 -0.1997  2.9110  2.2535
  278MOL0     H37518  11.047   6.796   2.862 -1.2219 -1.7810  0.4621
  278MOL0     H37519  10.943   6.883   3.060  1.3643  0.8930 -1.3991
  278MOL0     H37520  11.153   6.996   3.276  1.0524 -1.5409 -0.1714
  278MOL0     H37521  11.029   7.013   3.391 -0.7018  1.4956 -1.6355
  278MOL0     H37522  11.219   7.008   3.511 -0.4507  2.0322 -2.7893
  278MOL0     H37523  11.309   6.891   3.407 -0.4943  1.3238 -1.2185
  278MOL0     H37524  11.142   6.714   3.525  0.2972  0.5030  0.7004
  278MOL0     H37525  11.099   6.844   3.627 -3.0418 -1.5853 -2.7993
  278MOL0     H37526  11.254   6.680   3.724  1.0427 -1.3662 -0.6397
  278MOL0     H37527  11.281   6.855   3.758  0.5462  1.6717  0.6309
  278MOL0     H37528  11.631   6.721   3.551  0.9271  1.0159  1.6311
  278MOL0     H37529  11.218   6.648   3.307 -1.6822  0.8033  0.8643
  278MOL0     H37530  11.292   6.537   3.111  1.1942  0.7283  1.3779
  279MOL0     O37531   0.363   6.871   9.938 -0.6575 -0.3990  1.0194
  279MOL0     C37532   0.325   6.771   9.878 -0.2728  0.3932  0.0445
  279MOL0     O37533   0.397   6.713   9.777  0.0533  0.5138 -0.5364
  279MOL0     C37534   0.531   6.764   9.772  0.0808  0.0681 -0.9684
  279MOL0     C37535   0.625   6.719   9.868  0.8782  0.0709  0.0188
  279MOL0     C37536   0.753   6.780   9.853 -0.3469 -0.4223  0.8347
  279MOL0     C37537   0.790   6.880   9.762  0.8812  0.6527  0.5728
  279MOL0     O37538   0.925   6.910   9.768 -0.3480  0.1445  0.9148
  279MOL0     C37539   0.978   6.986   9.656 -0.2395 -1.0828  0.1064
  279MOL0     C37540   0.977   6.908   9.516 -0.5122  0.5310  0.0331
  279MOL0     C37541   0.991   6.995   9.388  0.2560 -0.4665  0.2227
  279MOL0     C37542   1.040   6.897   9.276 -0.9985 -0.7132  0.8001
  279MOL0     C37543   1.001   6.925   9.126  0.9871  0.2306  0.2191
  279MOL0     C37544   1.058   7.044   9.046 -0.2037 -0.3950  0.0361
  279MOL0     C37545   1.029   7.176   9.104  0.3399 -0.2803  0.0492
  279MOL0     C37546   1.057   7.283   9.003 -0.6463  0.3833 -0.2414
  279MOL0     N37547   0.944   7.314   8.914  0.5630  0.3785  0.5519
  279MOL0     C37548   0.955   7.319   8.776 -0.4827  0.6336  0.2218
  279MOL0     C37549   0.835   7.379   8.743  0.8859  0.5645  0.4477
  279MOL0     C37550   0.821   7.418   8.601  0.3774 -0.6279  0.1270
  279MOL0     C37551   0.917   7.535   8.557  0.2604 -0.4943 -0.2485
  279MOL0     C37552   0.878   7.597   8.415  0.0353 -0.0493  0.3229
  279MOL0     C37553   0.936   7.737   8.388  0.7457 -0.2835  0.5034
  279MOL0     O37554   0.870   7.811   8.284 -0.2414 -0.3475  0.2445
  279MOL0     C37555   0.943   7.915   8.243  0.3125 -0.3456 -0.1105
  279MOL0     C37556   1.081   7.938   8.247 -0.7973 -0.3365  0.4363
  279MOL0     C37557   1.132   8.062   8.203 -0.6326 -0.4667 -0.2739
  279MOL0     C37558   1.281   8.076   8.226  0.5584  0.1376  0.7258
  279MOL0     C37559   1.061   8.161   8.141  0.4451 -0.2458  0.1043
  279MOL0     C37560   1.122   8.282   8.078 -0.8331  0.2561 -0.5109
  279MOL0     O37561   1.071   8.339   7.964  0.9678 -0.1836 -0.3104
  279MOL0     C37562   1.128   8.462   7.916 -0.5079  0.7185 -0.0348
  279MOL0     C37563   1.199   8.459   7.801 -0.4547  0.2167  0.4215
  279MOL0     C37564   1.270   8.576   7.757 -0.5078  0.8163 -1.1022
  279MOL0     C37565   1.254   8.699   7.818  0.1795 -0.3728 -0.4118
  279MOL0     O37566   1.326   8.799   7.765  0.2512 -0.3981  0.3140
  279MOL0     C37567   1.285   8.935   7.765 -0.3784  0.0825 -0.2281
  279MOL0     C37568   1.393   9.029   7.729 -0.8922 -0.8661  0.0191
  279MOL0     C37569   1.380   9.169   7.785  0.0277  0.4129  0.3379
  279MOL0     C37570   1.490   9.266   7.724 -0.0655  0.7420  0.1379
  279MOL0     C37571   1.506   9.395   7.789 -0.0065 -1.4097  0.4953
  279MOL0     C37572   1.381   9.496   7.751 -0.7752 -0.4328 -0.6833
  279MOL0     C37573   1.390   9.539   7.600  0.7145  0.0804  0.9456
  279MOL0     C37574   1.314   9.666   7.555  0.3192 -0.5441 -0.3104
  279MOL0    Cl37575   1.382   9.803   7.663 -0.1379 -0.0443  0.0817
  279MOL0     C37576   1.171   8.710   7.934 -0.5708 -0.4587 -0.4188
  279MOL0     C37577   1.118   8.583   7.993  0.2751  0.1918  0.4060
  279MOL0     O37578   1.221   8.326   8.133 -0.5883 -1.0308  0.1415
  279MOL0     C37579   0.927   8.133   8.117  0.0984 -0.3296 -0.1516
  279MOL0     C37580   0.865   8.016   8.165 -0.5507  0.3524  0.2664
  279MOL0     N37581   0.759   7.413   8.858 -0.3278 -0.6299  0.1358
  279MOL0     N37582   0.826   7.383   8.958  0.4909 -0.3817  0.4630
  279MOL0     C37583   0.689   6.914   9.674  0.5592  0.5911  0.8958
  279MOL0     C37584   0.561   6.862   9.680 -0.7344 -0.5546  0.1163
  279MOL0     C37585   0.199   6.719   9.917  0.1619  1.2580 -0.3203
  279MOL0     C37586   0.133   6.766  10.036 -0.2625  0.5265  0.2870
  279MOL0     C37587   0.002   6.731  10.059  0.4877 -0.3592 -0.3871
  279MOL0     C37588  -0.066   6.636   9.986  0.0699 -0.3013 -0.4006
  279MOL0     O37589  -0.200   6.614  10.033  0.4404 -0.4021  0.5400
  279MOL0     C37590  -0.264   6.490   9.986 -0.4018  0.3258 -0.4430
  279MOL0     C37591  -0.397   6.481  10.063 -0.7383  0.4732  0.6490
  279MOL0     C37592  -0.367   6.476  10.223  0.6684  0.9501  0.0464
  279MOL0     C37593  -0.495   6.450  10.298  0.4721  0.0627 -0.2150
  279MOL0     C37594  -0.468   6.378  10.419 -0.4085  0.5446  0.5939
  279MOL0     C37595  -0.451   6.313  10.517  0.5087  0.0590  0.0995
  279MOL0     C37596  -0.002   6.584   9.876  0.3796 -0.2560  0.6270
  279MOL0     C37597   0.127   6.620   9.840 -0.2706 -0.4332 -0.7217
  279MOL0     H37598   0.588   6.649   9.942 -3.2514  1.2247 -0.6777
  279MOL0     H37599   0.839   6.739   9.904  0.0924 -1.1581 -0.4508
  279MOL0     H37600   0.908   7.069   9.645  1.1912 -0.0358 -2.0981
  279MOL0     H37601   1.080   7.020   9.676  0.5580 -3.4841  0.5265
  279MOL0     H37602   1.062   6.841   9.533  0.9052  2.3203  0.2765
  279MOL0     H37603   0.892   6.839   9.512 -1.1542  1.3399 -0.5521
  279MOL0     H37604   0.895   7.039   9.359  0.2561 -1.3940 -1.3490
  279MOL0     H37605   1.067   7.073   9.391 -1.5301  1.9236 -4.7583
  279MOL0     H37606   1.149   6.902   9.265 -0.9264  0.7377  1.8923
  279MOL0     H37607   1.000   6.797   9.295 -0.1443 -1.2265 -0.0487
  279MOL0     H37608   1.008   6.833   9.067  1.6347 -1.2404  2.4868
  279MOL0     H37609   0.894   6.947   9.116  1.1517  0.2190 -2.2855
  279MOL0     H37610   1.167   7.043   9.046  0.0581  0.3607 -4.9803
  279MOL0     H37611   1.016   7.040   8.945 -4.2016  3.6909  1.1788
  279MOL0     H37612   0.928   7.184   9.147 -0.2438 -1.4301 -1.0350
  279MOL0     H37613   1.103   7.188   9.184  1.4593 -1.4290 -0.7870
  279MOL0     H37614   1.148   7.254   8.948  0.4179 -2.3713  2.6419
  279MOL0     H37615   1.064   7.367   9.072  0.2576  1.9368 -2.1558
  279MOL0     H37616   1.031   7.289   8.704 -2.7551  0.2040 -2.1634
  279MOL0     H37617   0.840   7.342   8.524  2.0963  1.7891 -2.0215
  279MOL0     H37618   0.719   7.448   8.577  1.4818  2.6039 -1.0255
  279MOL0     H37619   1.018   7.495   8.569  0.3268 -1.0216 -2.2333
  279MOL0     H37620   0.900   7.616   8.628  1.0274 -1.3721  0.9834
  279MOL0     H37621   0.770   7.618   8.415 -0.3457 -1.2870 -3.3454
  279MOL0     H37622   0.896   7.513   8.347 -1.9892 -1.6932  1.6637
  279MOL0     H37623   1.035   7.711   8.349  1.0857 -0.1900  1.2966
  279MOL0     H37624   0.949   7.791   8.482 -1.5883 -1.4246  1.5833
  279MOL0     H37625   1.150   7.865   8.288 -2.0189 -2.9085 -1.7116
  279MOL0     H37626   1.319   8.087   8.124 -2.2229  1.8380 -0.2315
  279MOL0     H37627   1.289   8.159   8.296  1.7729  0.1712  0.5637
  279MOL0     H37628   1.325   7.987   8.272 -1.1813 -0.5282  1.1761
  279MOL0     H37629   1.211   8.369   7.741  0.4610  0.9508 -0.5588
  279MOL0     H37630   1.326   8.566   7.665  0.1557 -1.3806 -0.5298
  279MOL0     H37631   1.206   8.962   7.693  2.0116 -2.2074 -4.0470
  279MOL0     H37632   1.251   8.968   7.864  1.0039  0.2225  0.2133
  279MOL0     H37633   1.491   8.988   7.754 -0.0477 -0.2988 -2.1049
  279MOL0     H37634   1.409   9.039   7.621 -1.4888 -0.8815 -0.0761
  279MOL0     H37635   1.419   9.177   7.887  2.4100 -0.4181 -0.4440
  279MOL0     H37636   1.278   9.209   7.786  0.2806  1.0686  0.5151
  279MOL0     H37637   1.585   9.213   7.729 -0.1465  0.7030  1.8659
  279MOL0     H37638   1.463   9.271   7.618 -1.7143  0.6802  0.5198
  279MOL0     H37639   1.586   9.445   7.735 -2.7499  1.5593 -1.2248
  279MOL0     H37640   1.518   9.393   7.897 -1.6035 -1.0995  0.7154
  279MOL0     H37641   1.282   9.456   7.774 -0.2311 -0.5024  1.8676
  279MOL0     H37642   1.393   9.578   7.822  0.1499 -3.0731  2.4605
  279MOL0     H37643   1.371   9.444   7.548  2.0147 -0.6085  1.6881
  279MOL0     H37644   1.497   9.545   7.580  1.1384 -3.2701  1.4784
  279MOL0     H37645   1.206   9.650   7.562 -0.2809  3.1972  1.2720
  279MOL0     H37646   1.325   9.691   7.449  0.5700  2.1411  0.2821
  279MOL0     H37647   1.158   8.805   7.984 -2.2101 -0.4762 -0.7527
  279MOL0     H37648   1.077   8.579   8.093  0.0688 -2.5801  0.2797
  279MOL0     H37649   0.868   8.196   8.051  0.0974 -0.0866  0.0784
  279MOL0     H37650   0.761   8.017   8.134  0.0538  2.1406 -2.0213
  279MOL0     H37651   0.723   6.980   9.595 -0.2517 -0.1815 -0.1410
  279MOL0     H37652   0.484   6.893   9.611  0.1165  0.6073 -0.3590
  279MOL0     H37653   0.188   6.826  10.107  0.3576 -1.3398  1.4636
  279MOL0     H37654  -0.051   6.776  10.142 -0.2042  0.3218 -1.1774
  279MOL0     H37655  -0.279   6.485   9.878  0.4101  2.2124 -0.6753
  279MOL0     H37656  -0.204   6.399  10.000 -0.6270  0.3849  1.0952
  279MOL0     H37657  -0.461   6.397  10.034  1.2323 -0.7322 -0.4878
  279MOL0     H37658  -0.455   6.571  10.045 -1.0115  0.5935  2.0346
  279MOL0     H37659  -0.304   6.554  10.268 -0.8536  2.4456 -0.3319
  279MOL0     H37660  -0.301   6.389  10.226  0.4022  0.5943 -2.3533
  279MOL0     H37661  -0.551   6.379  10.236  2.7816 -1.1641 -1.0015
  279MOL0     H37662  -0.548   6.544  10.316  1.7333  1.2897 -2.5713
  279MOL0     H37663  -0.417   6.242  10.590  2.1693 -2.3885 -2.8016
  279MOL0     H37664  -0.051   6.508   9.815  1.4720 -1.4282  1.1819
  279MOL0     H37665   0.170   6.588   9.745 -0.9341  0.0683 -1.1992
  280MOL0     O37666   8.098   3.799   0.528 -0.3359 -0.5505  0.4810
  280MOL0     C37667   8.204   3.748   0.508  0.1725 -0.3985 -0.6219
  280MOL0     O37668   8.320   3.810   0.471 -0.3774  0.1609 -0.8644
  280MOL0     C37669   8.305   3.937   0.418 -0.3440 -0.4203  0.2954
  280MOL0     C37670   8.411   4.030   0.422  0.2159  1.0160  0.4942
  280MOL0     C37671   8.403   4.158   0.366 -0.7314 -0.1691 -0.2609
  280MOL0     C37672   8.282   4.197   0.300 -0.6250  0.6357  0.0949
  280MOL0     O37673   8.260   4.328   0.265  0.5113 -0.7873  0.4180
  280MOL0     C37674   8.116   4.377   0.240 -1.1998  0.4415 -0.3869
  280MOL0     C37675   8.108   4.531   0.240 -0.5640  0.0984  0.3062
  280MOL0     C37676   8.195   4.609   0.348  0.7347  0.0452 -0.1351
  280MOL0     C37677   8.176   4.754   0.347 -0.5600 -0.7543 -0.4042
  280MOL0     C37678   8.244   4.842   0.457 -0.1765  0.1007  0.4053
  280MOL0     C37679   8.387   4.841   0.475  0.1486 -0.0355  0.8512
  280MOL0     C37680   8.437   4.726   0.563 -1.2281  0.8654 -0.2997
  280MOL0     C37681   8.590   4.745   0.609  0.7155 -0.4446 -0.0724
  280MOL0     N37682   8.598   4.852   0.716  0.0206 -0.7855  0.0908
  280MOL0     C37683   8.647   4.978   0.689 -0.6246 -1.1990 -0.4475
  280MOL0     C37684   8.649   5.043   0.815  0.3013  0.5835  0.4495
  280MOL0     C37685   8.684   5.191   0.838  0.0286 -0.1686 -0.1323
  280MOL0     C37686   8.655   5.235   0.987 -0.6749  0.0882  0.5637
  280MOL0     C37687   8.679   5.383   1.002  0.3316 -0.3150 -0.6385
  280MOL0     C37688   8.640   5.432   1.132  0.6730  0.4104  0.4338
  280MOL0     O37689   8.499   5.424   1.154  0.8493 -0.2650  0.0121
  280MOL0     C37690   8.447   5.516   1.235 -0.2862  0.7408 -0.6790
  280MOL0     C37691   8.423   5.485   1.366 -0.7146 -0.7931  0.2348
  280MOL0     C37692   8.361   5.578   1.458  0.8594 -0.1861 -0.0344
  280MOL0     C37693   8.319   5.517   1.596  0.9932 -0.7571  0.8267
  280MOL0     C37694   8.347   5.711   1.410 -0.4057  0.1189 -0.2053
  280MOL0     C37695   8.303   5.823   1.498  0.3232  0.6531  0.3982
  280MOL0     O37696   8.292   5.788   1.630  0.9104  0.0632  0.1237
  280MOL0     C37697   8.252   5.887   1.720  0.3550  0.2852  0.4691
  280MOL0     C37698   8.349   5.979   1.751 -0.1979  0.2768  0.9644
  280MOL0     C37699   8.325   6.079   1.842 -0.6537  0.3989  0.5452
  280MOL0     C37700   8.205   6.088   1.906  0.5125 -0.8170  0.1321
  280MOL0     O37701   8.176   6.181   2.006 -0.9233 -0.3841 -0.4080
  280MOL0     C37702   8.288   6.245   2.076  0.1125 -1.7411 -0.5994
  280MOL0     C37703   8.266   6.398   2.072  0.4621  0.1102 -0.4017
  280MOL0     C37704   8.401   6.467   2.094 -0.1338 -0.5280 -0.4493
  280MOL0     C37705   8.390   6.621   2.064  0.0746  0.8123 -0.6439
  280MOL0     C37706   8.516   6.700   2.106  0.3018 -0.7525 -0.0049
  280MOL0     C37707   8.509   6.842   2.042 -0.3246  0.5319  0.8087
  280MOL0     C37708   8.623   6.931   2.096 -0.3631  0.0551  0.0840
  280MOL0     C37709   8.575   7.045   2.189 -0.0854 -1.0590 -0.7551
  280MOL0    Cl37710   8.699   7.182   2.223  0.0319  0.3544  0.2860
  280MOL0     C37711   8.105   5.997   1.870  0.0550  0.3640  0.8729
  280MOL0     C37712   8.123   5.900   1.768  0.5044  1.0403  0.0937
  280MOL0     O37713   8.272   5.932   1.451 -0.1553 -1.1773 -0.1150
  280MOL0     C37714   8.377   5.738   1.276 -0.3195  0.0290 -1.3884
  280MOL0     C37715   8.425   5.643   1.197 -0.9025 -1.2027  0.1130
  280MOL0     N37716   8.613   4.950   0.907 -0.1404 -0.3680  0.5117
  280MOL0     N37717   8.581   4.844   0.849 -0.3174 -0.0233  0.5393
  280MOL0     C37718   8.184   4.104   0.286  0.7103 -0.5359  0.1767
  280MOL0     C37719   8.196   3.974   0.332  0.2221  0.9061 -0.4954
  280MOL0     C37720   8.214   3.607   0.556 -0.3730  0.7660  0.2249
  280MOL0     C37721   8.104   3.527   0.599  0.0826  0.1479 -0.7391
  280MOL0     C37722   8.118   3.393   0.630 -1.1851 -0.2452 -0.0913
  280MOL0     C37723   8.238   3.325   0.621 -1.3872  0.8123  1.1531
  280MOL0     O37724   8.227   3.187   0.620 -0.0614 -0.1867  0.4556
  280MOL0     C37725   8.328   3.103   0.562  0.2136  0.4046 -0.5988
  280MOL0     C37726   8.315   3.097   0.404  0.6371  0.2344  0.0533
  280MOL0     C37727   8.412   2.976   0.365  0.9793  0.6309 -0.4416
  280MOL0     C37728   8.426   2.946   0.215 -1.1782  0.4403  0.7258
  280MOL0     C37729   8.287   2.944   0.164 -0.1422  0.5502 -0.7595
  280MOL0     C37730   8.173   2.955   0.115 -0.6355 -0.1992  0.0658
  280MOL0     C37731   8.357   3.393   0.591  0.6179  0.2308 -0.1231
  280MOL0     C37732   8.345   3.538   0.550  0.4251 -0.3159 -0.1843
  280MOL0     H37733   8.507   3.992   0.453  1.2068  2.0646 -1.1515
  280MOL0     H37734   8.483   4.227   0.392  0.4078 -1.1791 -0.9846
  280MOL0     H37735   8.080   4.346   0.142  0.8845 -0.8146 -0.8113
  280MOL0     H37736   8.046   4.337   0.314 -0.4851 -1.0584 -0.4891
  280MOL0     H37737   8.154   4.560   0.145  2.6284 -2.3542  0.9383
  280MOL0     H37738   8.004   4.563   0.251 -0.1864  1.3909  0.2496
  280MOL0     H37739   8.156   4.571   0.443  2.2217  1.5015  1.1251
  280MOL0     H37740   8.302   4.590   0.332  1.0492 -0.1384  1.8807
  280MOL0     H37741   8.218   4.788   0.252  2.0156 -2.3600  0.0598
  280MOL0     H37742   8.075   4.795   0.351 -0.1387  0.2311  2.6433
  280MOL0     H37743   8.201   4.943   0.451  1.5898  0.8309 -0.9104
  280MOL0     H37744   8.204   4.805   0.552  0.3338 -1.9289 -0.1367
  280MOL0     H37745   8.446   4.837   0.382 -0.4869 -4.6869  0.4309
  280MOL0     H37746   8.409   4.934   0.528 -1.7025  3.0746 -3.3205
  280MOL0     H37747   8.379   4.722   0.656 -1.6549  5.2851 -0.1367
  280MOL0     H37748   8.443   4.632   0.509 -1.0491 -0.0758  1.3099
  280MOL0     H37749   8.655   4.773   0.525 -1.5544  1.4513 -1.3234
  280MOL0     H37750   8.633   4.653   0.648  4.2896  1.9371  2.1846
  280MOL0     H37751   8.678   5.014   0.591  0.4725 -1.0775 -0.0693
  280MOL0     H37752   8.783   5.223   0.806 -0.5763  0.8562 -1.0843
  280MOL0     H37753   8.627   5.253   0.767  1.2810  1.6793  0.4117
  280MOL0     H37754   8.731   5.189   1.051  1.1056  0.4092 -1.2149
  280MOL0     H37755   8.551   5.201   0.998 -0.5784 -2.4361 -3.8487
  280MOL0     H37756   8.615   5.430   0.927  0.6308 -0.7803 -1.1918
  280MOL0     H37757   8.783   5.413   0.987  0.0785  0.7014 -0.4833
  280MOL0     H37758   8.670   5.536   1.148 -0.0614  0.6020  0.6033
  280MOL0     H37759   8.690   5.381   1.215 -0.4511 -1.3785  0.0652
  280MOL0     H37760   8.441   5.380   1.387 -0.2502 -0.6131  0.7531
  280MOL0     H37761   8.377   5.559   1.679 -0.4746 -0.3947  1.7051
  280MOL0     H37762   8.210   5.519   1.607  0.8936  1.9830 -0.0803
  280MOL0     H37763   8.334   5.409   1.596  0.8696 -0.7820 -0.2543
  280MOL0     H37764   8.449   5.975   1.709 -1.4216  0.5586 -2.3598
  280MOL0     H37765   8.408   6.144   1.868  1.0815 -1.6230  0.3259
  280MOL0     H37766   8.288   6.215   2.181  0.5228 -0.8491 -0.3352
  280MOL0     H37767   8.390   6.236   2.039 -0.1319  2.0726 -2.7001
  280MOL0     H37768   8.232   6.438   1.976 -0.7652  0.5346  0.1904
  280MOL0     H37769   8.189   6.419   2.147 -0.2369 -0.7389 -0.8620
  280MOL0     H37770   8.471   6.427   2.020  1.2222  3.1559 -1.3742
  280MOL0     H37771   8.436   6.464   2.198 -0.3595  5.2168  0.1121
  280MOL0     H37772   8.379   6.641   1.957  0.9809  4.7851 -0.1304
  280MOL0     H37773   8.305   6.666   2.115  0.4045  0.5185  0.1893
  280MOL0     H37774   8.615   6.656   2.090  1.2411  0.5851  1.7249
  280MOL0     H37775   8.510   6.706   2.215  2.3002  2.2401  0.0778
  280MOL0     H37776   8.513   6.819   1.935  3.0171 -2.9664  1.4530
  280MOL0     H37777   8.413   6.894   2.051  0.3664  3.1299 -3.7789
  280MOL0     H37778   8.680   6.966   2.009 -1.3460  2.5434  0.3661
  280MOL0     H37779   8.695   6.872   2.153 -0.4237  1.5835  1.8567
  280MOL0     H37780   8.542   7.006   2.286 -1.0516  0.9260 -0.2269
  280MOL0     H37781   8.493   7.102   2.146  2.3809  1.2767 -2.6910
  280MOL0     H37782   8.011   6.021   1.917  0.1574  0.9785  0.7620
  280MOL0     H37783   8.052   5.818   1.761  0.6451  0.9363 -0.1234
  280MOL0     H37784   8.362   5.843   1.254 -3.9269  0.9674  3.6059
  280MOL0     H37785   8.453   5.687   1.101  3.5099  2.3564  2.6070
  280MOL0     H37786   8.104   4.141   0.223  2.0746  0.9627 -0.7272
  280MOL0     H37787   8.121   3.898   0.312  2.2052 -1.4869  0.6757
  280MOL0     H37788   8.010   3.582   0.606 -1.5264 -2.4819 -0.2788
  280MOL0     H37789   8.028   3.335   0.649 -1.5427 -0.8003 -2.9730
  280MOL0     H37790   8.429   3.124   0.598  0.4009 -3.5631  1.8083
  280MOL0     H37791   8.316   3.003   0.606 -2.1656  1.4499  1.3373
  280MOL0     H37792   8.349   3.186   0.351 -0.9590 -0.6847 -2.7234
  280MOL0     H37793   8.212   3.078   0.373  0.5573  2.1648 -1.0474
  280MOL0     H37794   8.371   2.890   0.420  2.1752  0.2843 -0.0632
  280MOL0     H37795   8.506   2.992   0.417 -0.3826  2.9056  1.5431
  280MOL0     H37796   8.475   2.849   0.196 -1.8712  0.3080 -0.5193
  280MOL0     H37797   8.482   3.021   0.160 -1.6512  2.2017  2.5447
  280MOL0     H37798   8.078   2.957   0.066  0.5032 -0.5954 -2.2934
  280MOL0     H37799   8.450   3.338   0.593 -0.9456 -2.7128 -1.6409
  280MOL0     H37800   8.433   3.588   0.511  0.8120 -0.8805 -0.0458
  281MOL0     O37801   1.740   5.625   7.084  0.1359 -0.2062 -0.4931
  281MOL0     C37802   1.737   5.655   7.206 -1.1125  1.9434  1.2513
  281MOL0     O37803   1.630   5.665   7.285 -0.0915  0.0431  0.0467
  281MOL0     C37804   1.512   5.614   7.237  0.1762 -1.2486 -0.0617
  281MOL0     C37805   1.443   5.514   7.313  0.5713 -1.1946 -0.1443
  281MOL0     C37806   1.308   5.485   7.279  0.3183  0.0000 -0.8361
  281MOL0     C37807   1.256   5.524   7.160  0.5955 -0.8963  0.1014
  281MOL0     O37808   1.133   5.497   7.115 -0.0353 -0.0178  0.6009
  281MOL0     C37809   1.085   5.369   7.112  0.4654  0.8723 -0.3321
  281MOL0     C37810   0.961   5.357   7.200 -0.8516  0.1392  0.1703
  281MOL0     C37811   0.883   5.233   7.170 -0.0020  0.1940  0.3317
  281MOL0     C37812   0.745   5.231   7.242  0.3178 -0.1149 -0.0626
  281MOL0     C37813   0.667   5.099   7.216 -0.2851 -0.4507  0.1838
  281MOL0     C37814   0.527   5.081   7.283  0.4598  0.0937 -0.3096
  281MOL0     C37815   0.535   5.090   7.440  0.5097 -0.3967 -0.2347
  281MOL0     C37816   0.427   5.009   7.516 -0.5404 -0.0711  0.7336
  281MOL0     N37817   0.431   4.862   7.516 -0.1111  0.1121 -0.4704
  281MOL0     C37818   0.548   4.787   7.522 -1.3868  0.1541  0.5734
  281MOL0     C37819   0.510   4.661   7.496 -0.4859 -0.5130 -0.0518
  281MOL0     C37820   0.605   4.548   7.464 -0.9954 -0.5225  0.1218
  281MOL0     C37821   0.584   4.474   7.336 -0.2335  0.7092  0.0787
  281MOL0     C37822   0.691   4.375   7.298 -0.1540 -0.6294  0.1142
  281MOL0     C37823   0.740   4.297   7.410 -0.5984  0.4506  0.8087
  281MOL0     O37824   0.856   4.218   7.361 -0.4854 -0.1483 -0.1330
  281MOL0     C37825   0.853   4.084   7.389  0.1213  0.4745  0.2448
  281MOL0     C37826   0.752   4.018   7.465  0.6847  0.7399 -1.2658
  281MOL0     C37827   0.758   3.877   7.485  0.6875  0.4711 -0.3590
  281MOL0     C37828   0.667   3.823   7.596 -0.2440  0.4099 -0.3071
  281MOL0     C37829   0.842   3.794   7.411 -0.4773  0.2335  0.6852
  281MOL0     C37830   0.855   3.652   7.419  0.5424 -0.2628  0.5104
  281MOL0     O37831   0.969   3.595   7.388 -0.0554  0.8285 -0.4501
  281MOL0     C37832   0.997   3.472   7.463 -0.9013 -0.4193 -0.0484
  281MOL0     C37833   1.107   3.407   7.405 -0.1777 -0.2791  0.5639
  281MOL0     C37834   1.148   3.287   7.444  0.3743  1.0626 -0.7429
  281MOL0     C37835   1.101   3.231   7.563 -0.2753  0.0207  0.6116
  281MOL0     O37836   1.144   3.109   7.595  0.1985 -0.1509 -0.0743
  281MOL0     C37837   1.158   3.088   7.735 -0.0727 -0.1332  0.0624
  281MOL0     C37838   1.300   3.067   7.765  0.1568 -0.4647  0.8688
  281MOL0     C37839   1.406   3.158   7.698 -0.9039  0.1763  0.5886
  281MOL0     C37840   1.552   3.107   7.734  0.1656 -0.1728  0.4675
  281MOL0     C37841   1.671   3.171   7.655  0.7392  0.4053  0.0642
  281MOL0     C37842   1.647   3.322   7.642  0.1065  0.7111  0.3920
  281MOL0     C37843   1.767   3.385   7.578 -0.2425 -0.4496 -0.5563
  281MOL0     C37844   1.749   3.531   7.531  0.2253 -0.8761 -0.1815
  281MOL0    Cl37845   1.611   3.554   7.412 -0.2210  0.4661  0.3626
  281MOL0     C37846   0.990   3.300   7.630  0.1051 -0.7182  0.5548
  281MOL0     C37847   0.943   3.418   7.582 -0.0404 -0.9668 -0.0912
  281MOL0     O37848   0.751   3.588   7.438  0.6501  0.2134  0.1632
  281MOL0     C37849   0.947   3.863   7.342  0.4637  0.6007  0.7593
  281MOL0     C37850   0.954   4.007   7.329  0.0505  0.7763 -0.9837
  281MOL0     N37851   0.370   4.658   7.492  0.0388 -0.0410 -0.3161
  281MOL0     N37852   0.322   4.772   7.498 -0.1383  0.3496 -0.4243
  281MOL0     C37853   1.318   5.628   7.086 -0.2878 -0.0493 -0.2475
  281MOL0     C37854   1.452   5.664   7.117  0.2639  0.8971 -0.2777
  281MOL0     C37855   1.867   5.690   7.262 -1.0359  0.1207 -0.4767
  281MOL0     C37856   1.875   5.743   7.397  0.6876  0.6457  0.5776
  281MOL0     C37857   1.998   5.792   7.447 -0.9319  0.5165  0.6810
  281MOL0     C37858   2.112   5.791   7.370  0.0773  0.3195 -0.4571
  281MOL0     O37859   2.233   5.843   7.402 -0.0971  0.1187 -0.7217
  281MOL0     C37860   2.254   5.872   7.545 -0.6843 -0.1924 -0.6619
  281MOL0     C37861   2.390   5.931   7.592  0.4207  0.4194  0.8860
  281MOL0     C37862   2.409   6.056   7.523  0.2733 -0.8481  0.5574
  281MOL0     C37863   2.547   6.121   7.569  0.8092 -0.2958  0.3529
  281MOL0     C37864   2.545   6.151   7.710  0.7877  0.8821 -0.7268
  281MOL0     C37865   2.545   6.180   7.826 -0.0845  0.1575  0.3948
  281MOL0     C37866   2.107   5.740   7.244 -0.5440  0.2373  0.1623
  281MOL0     C37867   1.988   5.701   7.183 -1.0665 -0.2107 -0.1649
  281MOL0     H37868   1.492   5.471   7.400  4.6049 -0.6454 -1.9156
  281MOL0     H37869   1.256   5.414   7.342  0.9896  0.4904  0.3189
  281MOL0     H37870   1.053   5.333   7.014  1.9567 -0.9352 -0.2217
  281MOL0     H37871   1.170   5.304   7.136  1.2367  0.0968 -4.4305
  281MOL0     H37872   0.996   5.347   7.303 -1.8107 -1.0421  0.4022
  281MOL0     H37873   0.910   5.453   7.207 -3.2923 -1.1320  1.0771
  281MOL0     H37874   0.875   5.220   7.061 -0.0634 -0.1251  0.3729
  281MOL0     H37875   0.941   5.153   7.216  0.1815 -2.4244 -3.8876
  281MOL0     H37876   0.765   5.245   7.348 -0.2664 -0.8193  0.1505
  281MOL0     H37877   0.685   5.313   7.200 -1.2253  0.1614  2.4515
  281MOL0     H37878   0.651   5.081   7.109  2.3791  1.3896 -0.6170
  281MOL0     H37879   0.738   5.027   7.257  0.8523  1.1317  1.0869
  281MOL0     H37880   0.466   5.160   7.238  1.6420  1.8379  1.0116
  281MOL0     H37881   0.492   4.984   7.248  0.2829  0.5941 -1.5837
  281MOL0     H37882   0.630   5.043   7.467  0.9238  0.2160 -0.6238
  281MOL0     H37883   0.543   5.190   7.483  0.5921 -0.0075 -1.1543
  281MOL0     H37884   0.337   5.039   7.461  0.6483 -0.6598 -1.6537
  281MOL0     H37885   0.422   5.049   7.618 -0.1589  2.2596 -0.1005
  281MOL0     H37886   0.650   4.823   7.530 -1.8524  2.4970 -2.1526
  281MOL0     H37887   0.713   4.568   7.463 -0.1760 -4.2520  0.0124
  281MOL0     H37888   0.586   4.471   7.540 -2.0996 -0.1636  0.2206
  281MOL0     H37889   0.581   4.540   7.249 -0.7927 -3.8912 -3.8156
  281MOL0     H37890   0.487   4.424   7.332 -1.0530  1.9257  2.7983
  281MOL0     H37891   0.773   4.438   7.262 -0.8777 -0.0438 -0.5528
  281MOL0     H37892   0.666   4.304   7.220  0.8169 -0.6130 -0.2245
  281MOL0     H37893   0.656   4.257   7.466  0.7632  0.2983  2.8320
  281MOL0     H37894   0.784   4.363   7.485  1.1934  0.8621 -0.5282
  281MOL0     H37895   0.677   4.063   7.530  1.6967 -2.7885  2.7915
  281MOL0     H37896   0.717   3.775   7.680 -0.3907  1.1725  0.2334
  281MOL0     H37897   0.608   3.907   7.637  1.9300  2.4381 -1.1010
  281MOL0     H37898   0.590   3.756   7.556  0.2863  0.6757 -1.8676
  281MOL0     H37899   1.161   3.444   7.318 -0.7745 -0.0023  0.3022
  281MOL0     H37900   1.226   3.240   7.386  0.4138  2.8783 -2.2141
  281MOL0     H37901   1.115   3.169   7.795  0.9773  0.8716 -0.4988
  281MOL0     H37902   1.097   3.000   7.754 -0.6073 -0.6121 -3.2490
  281MOL0     H37903   1.314   3.083   7.873  2.5631 -2.2551  0.8861
  281MOL0     H37904   1.322   2.962   7.746 -0.1105 -0.5310  0.9229
  281MOL0     H37905   1.383   3.259   7.732 -0.9134 -0.1333  1.5490
  281MOL0     H37906   1.398   3.149   7.589  1.9826  1.9991  0.0931
  281MOL0     H37907   1.566   3.133   7.839  0.2029 -0.5377  0.5528
  281MOL0     H37908   1.551   2.998   7.725 -2.7522 -0.3790  2.1955
  281MOL0     H37909   1.677   3.124   7.557  0.8953 -0.0456  0.2858
  281MOL0     H37910   1.766   3.168   7.710  1.5895  1.9567 -1.2420
  281MOL0     H37911   1.562   3.323   7.573  2.8087  0.2921 -3.2471
  281MOL0     H37912   1.618   3.368   7.737 -2.6025 -0.7250  0.3576
  281MOL0     H37913   1.796   3.321   7.494  1.3886  0.0003 -0.3833
  281MOL0     H37914   1.855   3.392   7.643  3.3962 -2.0039 -4.7678
  281MOL0     H37915   1.835   3.584   7.489  0.2472 -1.5264 -0.9925
  281MOL0     H37916   1.734   3.584   7.625  3.5269 -1.0604  0.5755
  281MOL0     H37917   0.951   3.256   7.722  3.3860 -3.7379  0.7174
  281MOL0     H37918   0.865   3.479   7.626 -2.3297 -3.6751 -0.1029
  281MOL0     H37919   1.029   3.810   7.295 -1.7771 -0.7956 -1.8635
  281MOL0     H37920   1.028   4.056   7.266  1.2837  0.3945  0.1213
  281MOL0     H37921   1.273   5.667   6.995 -0.1799  0.9094  0.0995
  281MOL0     H37922   1.506   5.728   7.048  1.9558  0.5470  0.6670
  281MOL0     H37923   1.790   5.719   7.460 -2.7533  1.4159 -3.3426
  281MOL0     H37924   2.002   5.827   7.550 -1.5462 -2.1107  1.6772
  281MOL0     H37925   2.181   5.951   7.564  1.4849  2.5012 -2.6860
  281MOL0     H37926   2.234   5.787   7.612  1.6844 -0.8976 -0.7452
  281MOL0     H37927   2.468   5.863   7.557  0.4600  0.7748  0.2738
  281MOL0     H37928   2.393   5.930   7.701 -0.5331 -2.1048  0.9665
  281MOL0     H37929   2.328   6.124   7.551  0.2429 -1.1429  1.2087
  281MOL0     H37930   2.404   6.052   7.414  0.3997  0.7124  0.4837
  281MOL0     H37931   2.573   6.212   7.513  0.2702  0.9588  2.0555
  281MOL0     H37932   2.629   6.050   7.559  0.7433 -0.2888 -0.3262
  281MOL0     H37933   2.541   6.218   7.926 -2.2128  1.5366 -0.1559
  281MOL0     H37934   2.207   5.732   7.202  1.3921  1.6199  4.0688
  281MOL0     H37935   1.992   5.672   7.078  1.9175  2.6839 -1.0297
  282MOL0     O37936   5.497   8.416   2.622  0.1648 -0.0117  0.1389
  282MOL0     C37937   5.381   8.374   2.622 -0.1322  0.1991  0.0837
  282MOL0     O37938   5.301   8.342   2.727  0.1843 -0.3139  0.0727
  282MOL0     C37939   5.357   8.348   2.846 -0.5575  0.2735  0.0135
  282MOL0     C37940   5.419   8.238   2.904 -0.3198 -0.4269 -0.5874
  282MOL0     C37941   5.476   8.251   3.030  0.0211  0.0695  0.2799
  282MOL0     C37942   5.475   8.377   3.098  0.3573  1.3907 -0.4074
  282MOL0     O37943   5.534   8.376   3.219  0.0310 -0.5022  0.6366
  282MOL0     C37944   5.464   8.426   3.328 -0.3994 -0.9164 -0.1124
  282MOL0     C37945   5.553   8.430   3.450  0.5642 -0.5325 -0.6899
  282MOL0     C37946   5.602   8.576   3.498 -1.0348  0.3030  0.1308
  282MOL0     C37947   5.719   8.575   3.593 -0.0622  0.4943 -0.1532
  282MOL0     C37948   5.758   8.712   3.638  0.1340 -0.2139  0.6594
  282MOL0     C37949   5.899   8.721   3.664 -0.0937  0.7601  0.3946
  282MOL0     C37950   5.940   8.877   3.689 -1.1683 -0.1422  0.1595
  282MOL0     C37951   5.862   8.940   3.807 -0.1599  0.2858  0.0122
  282MOL0     N37952   5.906   9.080   3.844 -0.6734 -0.4939  0.3134
  282MOL0     C37953   6.035   9.108   3.890  0.0156  0.3676  1.1773
  282MOL0     C37954   6.024   9.235   3.944  0.8902  0.0614 -0.5570
  282MOL0     C37955   6.133   9.294   4.033  0.1048 -0.4368 -0.1731
  282MOL0     C37956   6.087   9.436   4.097  0.0808 -0.2821 -0.3332
  282MOL0     C37957   6.198   9.500   4.182  0.2651 -0.1606 -0.6759
  282MOL0     C37958   6.298   9.583   4.098 -0.2025 -0.6600  0.0786
  282MOL0     O37959   6.402   9.625   4.188  0.3743 -0.0707 -0.4113
  282MOL0     C37960   6.453   9.751   4.177 -0.2213  0.3581 -0.1110
  282MOL0     C37961   6.385   9.856   4.141 -1.0719 -0.1614 -0.8093
  282MOL0     C37962   6.428   9.993   4.156  0.7094 -0.2995  0.2865
  282MOL0     C37963   6.321  10.107   4.128  0.0958  0.4628  0.1499
  282MOL0     C37964   6.542  10.020   4.227 -0.1181 -1.1962  0.7680
  282MOL0     C37965   6.597  10.159   4.268 -0.1506 -0.2717  0.6829
  282MOL0     O37966   6.713  10.155   4.347  0.4915 -0.8387  0.3466
  282MOL0     C37967   6.799  10.257   4.379  0.1107  0.5596 -1.4334
  282MOL0     C37968   6.905  10.209   4.465  1.0043 -0.4811 -0.1858
  282MOL0     C37969   7.000  10.312   4.499  0.2674  0.0445  0.4399
  282MOL0     C37970   6.987  10.446   4.460 -0.5159 -0.3264  0.2260
  282MOL0     O37971   7.088  10.530   4.509  0.1769  0.0092 -0.5150
  282MOL0     C37972   7.073  10.666   4.500  0.2266 -0.7526  1.3703
  282MOL0     C37973   7.128  10.755   4.619 -0.3535  0.3927  0.5962
  282MOL0     C37974   7.124  10.906   4.580  0.0402  0.2035 -0.3314
  282MOL0     C37975   7.247  10.948   4.498 -0.3193  0.0905 -0.6319
  282MOL0     C37976   7.277  11.094   4.514  0.0326  0.1588  0.4673
  282MOL0     C37977   7.302  11.141   4.651 -0.1264 -0.2607  0.2146
  282MOL0     C37978   7.405  11.254   4.644 -0.9659  0.1469  0.8667
  282MOL0     C37979   7.530  11.213   4.734  0.3593 -0.1472 -0.3848
  282MOL0    Cl37980   7.484  11.178   4.914  0.3336 -0.2707 -0.3779
  282MOL0     C37981   6.883  10.480   4.377  0.0026  0.3553 -0.2679
  282MOL0     C37982   6.791  10.388   4.330 -0.7518  0.0822  0.2459
  282MOL0     O37983   6.547  10.255   4.215  0.4111 -0.9009  0.8017
  282MOL0     C37984   6.623   9.912   4.265  0.2883  0.2989  0.9190
  282MOL0     C37985   6.581   9.780   4.235 -0.2828  0.3674 -0.5409
  282MOL0     N37986   5.891   9.270   3.936  0.1861  0.1198 -0.3297
  282MOL0     N37987   5.821   9.180   3.868  0.6582  0.4106 -0.2148
  282MOL0     C37988   5.425   8.487   3.032  0.3995 -0.6812 -0.2569
  282MOL0     C37989   5.363   8.468   2.909  1.0870 -0.2019  0.7161
  282MOL0     C37990   5.335   8.335   2.490 -0.3583 -0.0323 -0.2118
  282MOL0     C37991   5.222   8.263   2.465 -0.4227 -0.4599 -0.4093
  282MOL0     C37992   5.188   8.244   2.330  0.5744 -0.2677  0.2399
  282MOL0     C37993   5.262   8.292   2.225  0.9353  0.2597  0.0809
  282MOL0     O37994   5.223   8.303   2.090 -0.5801  0.5182 -0.1782
  282MOL0     C37995   5.074   8.295   2.059  0.0311  0.5812  1.4177
  282MOL0     C37996   5.061   8.289   1.904  0.3322 -0.3691 -0.4058
  282MOL0     C37997   5.060   8.144   1.834  1.3107 -1.2008 -0.2425
  282MOL0     C37998   5.094   8.149   1.682  0.5443  0.1933 -0.0971
  282MOL0     C37999   4.978   8.204   1.612  0.0915 -1.0569  0.6209
  282MOL0     C38000   4.875   8.246   1.557 -0.4093 -0.8629  0.9636
  282MOL0     C38001   5.383   8.350   2.254 -0.7754  0.3748  0.7999
  282MOL0     C38002   5.416   8.381   2.385  0.4359  0.0885  0.4148
  282MOL0     H38003   5.420   8.138   2.862  2.7103 -0.0471 -1.6868
  282MOL0     H38004   5.522   8.158   3.062 -0.1567  0.1064  0.6553
  282MOL0     H38005   5.421   8.526   3.318 -1.5002 -1.5901 -4.5466
  282MOL0     H38006   5.380   8.357   3.343  1.4192 -2.7639  2.3685
  282MOL0     H38007   5.509   8.394   3.543  0.9934  5.3028  2.2279
  282MOL0     H38008   5.647   8.378   3.428  1.6033  1.5599 -1.5175
  282MOL0     H38009   5.621   8.636   3.409 -0.5529 -0.5492 -0.3621
  282MOL0     H38010   5.520   8.623   3.553  2.7077  4.2008  3.0200
  282MOL0     H38011   5.690   8.510   3.676 -1.4740  0.9441 -0.2697
  282MOL0     H38012   5.810   8.527   3.556  0.8740  2.9434 -1.2112
  282MOL0     H38013   5.734   8.778   3.554 -0.6612 -1.2490  0.0354
  282MOL0     H38014   5.702   8.729   3.730 -2.0692  1.2008 -0.8279
  282MOL0     H38015   5.920   8.670   3.758 -0.9624 -0.7297 -0.1900
  282MOL0     H38016   5.956   8.679   3.581 -1.7076  3.1614 -2.1387
  282MOL0     H38017   6.047   8.869   3.708 -0.7185 -0.3677 -2.1717
  282MOL0     H38018   5.926   8.929   3.594  0.4814 -0.5928 -0.3552
  282MOL0     H38019   5.883   8.874   3.892 -3.5768 -3.9098 -1.9762
  282MOL0     H38020   5.753   8.944   3.793  0.0225  3.1992 -1.3231
  282MOL0     H38021   6.117   9.037   3.895 -1.6063 -1.6655  0.4256
  282MOL0     H38022   6.157   9.221   4.111  2.9426 -2.0083 -2.3226
  282MOL0     H38023   6.225   9.305   3.976 -0.5246 -0.2303 -1.1757
  282MOL0     H38024   5.994   9.419   4.153 -0.4635 -4.0026 -2.0799
  282MOL0     H38025   6.052   9.511   4.026 -3.0717 -1.3811 -0.1293
  282MOL0     H38026   6.259   9.427   4.236 -0.8825  0.1959  1.2033
  282MOL0     H38027   6.143   9.569   4.247 -0.9798 -3.8937  2.5920
  282MOL0     H38028   6.242   9.667   4.054  2.6160  1.8639  0.9574
  282MOL0     H38029   6.332   9.513   4.022 -0.3220  3.3717 -4.1727
  282MOL0     H38030   6.282   9.845   4.107 -2.1050 -1.2417  2.2934
  282MOL0     H38031   6.221  10.067   4.109 -0.6557  2.3177 -0.0284
  282MOL0     H38032   6.310  10.175   4.213 -0.7327 -0.8470  1.1165
  282MOL0     H38033   6.348  10.158   4.034 -2.2056 -0.4763 -1.1233
  282MOL0     H38034   6.931  10.106   4.486  1.7648 -0.5871 -1.5246
  282MOL0     H38035   7.090  10.290   4.556  0.6376 -1.4093 -0.6400
  282MOL0     H38036   7.137  10.684   4.413  1.8161 -0.9452  2.4574
  282MOL0     H38037   6.967  10.691   4.487 -0.1030 -1.7414  2.1058
  282MOL0     H38038   7.065  10.725   4.703  2.6602  0.1711  2.9487
  282MOL0     H38039   7.228  10.724   4.649 -0.2048 -0.7388 -0.8937
  282MOL0     H38040   7.091  10.967   4.665 -3.9692 -2.5091  0.3103
  282MOL0     H38041   7.036  10.929   4.519 -0.6422 -0.2192  0.4822
  282MOL0     H38042   7.340  10.892   4.512  0.0162 -0.6785 -4.6993
  282MOL0     H38043   7.222  10.929   4.394 -1.4155  2.0836 -0.7719
  282MOL0     H38044   7.192  11.147   4.471  0.5723  0.6760  0.0236
  282MOL0     H38045   7.363  11.106   4.448 -1.8103  0.4186 -2.0332
  282MOL0     H38046   7.217  11.185   4.704  1.2189  1.6456  0.8865
  282MOL0     H38047   7.335  11.054   4.709 -0.7805  1.0806  2.7803
  282MOL0     H38048   7.350  11.344   4.675  0.1173  1.0859  0.1064
  282MOL0     H38049   7.445  11.271   4.544 -2.5781 -0.1096  0.1342
  282MOL0     H38050   7.613  11.285   4.735  0.9179 -0.7413 -1.6026
  282MOL0     H38051   7.582  11.130   4.687 -2.2508 -1.5957 -0.8776
  282MOL0     H38052   6.861  10.581   4.341 -1.9707  0.1158  0.1759
  282MOL0     H38053   6.714  10.418   4.260  0.0055 -0.2556 -0.7713
  282MOL0     H38054   6.726   9.932   4.295  0.5000  1.8392 -0.6553
  282MOL0     H38055   6.636   9.692   4.267  2.6421  1.2782 -2.6240
  282MOL0     H38056   5.432   8.587   3.074 -0.0122 -0.9782  0.5401
  282MOL0     H38057   5.312   8.544   2.851 -4.0006 -2.4962  1.6693
  282MOL0     H38058   5.163   8.231   2.550 -0.3065  0.3911  0.0012
  282MOL0     H38059   5.086   8.215   2.306  1.1601  0.1828 -3.3099
  282MOL0     H38060   5.017   8.207   2.092 -0.5299  1.1825  2.0932
  282MOL0     H38061   5.030   8.380   2.113  3.1013  2.4553  1.1902
  282MOL0     H38062   5.144   8.348   1.863 -1.5074  1.6150 -1.5004
  282MOL0     H38063   4.973   8.339   1.862  0.8104 -1.9181 -3.5204
  282MOL0     H38064   4.957   8.110   1.848  0.9409  0.8963  3.5201
  282MOL0     H38065   5.137   8.082   1.881  1.0585 -1.3114  0.0317
  282MOL0     H38066   5.120   8.052   1.637  2.5276 -0.3092  1.9332
  282MOL0     H38067   5.170   8.227   1.670  0.5393  0.5288  1.7662
  282MOL0     H38068   4.793   8.259   1.490 -0.1606 -1.1252  0.6027
  282MOL0     H38069   5.455   8.361   2.173 -1.5704 -0.1276  0.0024
  282MOL0     H38070   5.512   8.431   2.393  0.4733  1.0977 -3.8861
  283MOL0     O38071   9.241  10.557   0.944 -0.2743  0.0743  0.0094
  283MOL0     C38072   9.343  10.561   0.875  0.4609  0.2179  0.1911
  283MOL0     O38073   9.362  10.470   0.762  0.3851 -0.1892  0.6279
  283MOL0     C38074   9.267  10.376   0.720  0.5871 -0.1317  0.8328
  283MOL0     C38075   9.179  10.318   0.805 -0.3117  0.0377  0.5502
  283MOL0     C38076   9.082  10.237   0.752 -0.4896  0.1394 -0.6036
  283MOL0     C38077   9.074  10.210   0.617  0.4869 -0.0074 -0.1158
  283MOL0     O38078   8.962  10.145   0.562 -0.2051 -0.1291 -0.3102
  283MOL0     C38079   8.867  10.068   0.633  0.0512 -0.0858 -0.0679
  283MOL0     C38080   8.917   9.958   0.728 -0.4529 -0.0377 -0.8335
  283MOL0     C38081   9.008   9.864   0.657 -0.4617  0.1803 -0.2512
  283MOL0     C38082   9.082   9.762   0.737  0.2359 -0.3698  0.5834
  283MOL0     C38083   9.021   9.641   0.825  0.8446 -0.3355 -0.2809
  283MOL0     C38084   8.897   9.586   0.770 -0.1858 -0.6114 -0.9292
  283MOL0     C38085   8.862   9.440   0.810  0.0456  0.3594 -0.7052
  283MOL0     C38086   8.873   9.395   0.958 -0.2130  0.7802 -0.5625
  283MOL0     N38087   8.828   9.256   0.991  0.1184  0.0623  0.5613
  283MOL0     C38088   8.702   9.227   1.036  0.4356  0.2847 -0.3098
  283MOL0     C38089   8.697   9.089   1.044 -0.7482  0.6523  0.9636
  283MOL0     C38090   8.571   9.002   1.059 -0.4218  0.5057 -0.1026
  283MOL0     C38091   8.496   8.977   0.930 -0.6638  0.2749  0.6482
  283MOL0     C38092   8.360   8.918   0.958 -0.0403  0.5299 -0.2461
  283MOL0     C38093   8.297   8.852   0.831 -0.3907 -1.4092  0.3185
  283MOL0     O38094   8.273   8.955   0.736 -0.0777 -0.3195 -0.4205
  283MOL0     C38095   8.226   8.934   0.611 -0.4434 -0.0780  0.3664
  283MOL0     C38096   8.218   8.791   0.570  0.4345  0.1851 -0.0074
  283MOL0     C38097   8.183   8.759   0.436  0.3805  0.9680 -0.2916
  283MOL0     C38098   8.192   8.614   0.406  0.0122  0.6043 -0.2178
  283MOL0     C38099   8.159   8.866   0.347 -0.7787 -1.2664  0.3547
  283MOL0     C38100   8.128   8.849   0.207  0.5219  0.5203 -0.0130
  283MOL0     O38101   8.108   8.961   0.124  0.4096  0.0311 -0.5857
  283MOL0     C38102   8.099   8.947  -0.014 -0.2846 -0.0251  0.4072
  283MOL0     C38103   8.012   8.852  -0.079 -1.3670  0.1382 -0.6402
  283MOL0     C38104   8.008   8.854  -0.220 -0.4116  0.0613 -0.0853
  283MOL0     C38105   8.083   8.940  -0.294 -0.6744 -0.6166 -0.6025
  283MOL0     O38106   8.072   8.934  -0.427 -0.6999 -0.8272 -0.0066
  283MOL0     C38107   8.091   9.047  -0.513 -0.0996 -0.3578  0.2552
  283MOL0     C38108   7.997   9.162  -0.497  0.2696 -0.8168 -0.2796
  283MOL0     C38109   7.850   9.136  -0.546 -0.0866  0.9655 -0.8201
  283MOL0     C38110   7.851   9.175  -0.692 -0.2529 -0.1742  0.0101
  283MOL0     C38111   7.709   9.151  -0.742 -0.2830 -0.2291 -0.0410
  283MOL0     C38112   7.676   9.229  -0.866 -0.8248  0.1435  1.3060
  283MOL0     C38113   7.778   9.221  -0.980 -0.0523  0.2371  0.0673
  283MOL0     C38114   7.737   9.278  -1.109 -0.1158 -0.9544  0.8714
  283MOL0    Cl38115   7.860   9.244  -1.232 -0.3514 -0.0356  0.1408
  283MOL0     C38116   8.168   9.037  -0.234 -0.2106 -0.1279 -0.3989
  283MOL0     C38117   8.174   9.041  -0.097 -0.6704 -0.2635 -0.4765
  283MOL0     O38118   8.114   8.733   0.161  0.2718  0.5954 -1.3310
  283MOL0     C38119   8.163   9.005   0.392  0.0246  0.2077 -0.0047
  283MOL0     C38120   8.198   9.036   0.517  0.2222 -0.1189 -0.7068
  283MOL0     N38121   8.818   9.036   1.026 -0.6390 -1.2298 -0.3225
  283MOL0     N38122   8.893   9.134   0.989 -0.5949  0.4747 -0.5268
  283MOL0     C38123   9.163  10.268   0.526 -1.5884  1.2720  0.1259
  283MOL0     C38124   9.268  10.346   0.582  0.4954  0.8887  0.9713
  283MOL0     C38125   9.439  10.661   0.901 -0.3744 -0.2382 -0.4934
  283MOL0     C38126   9.416  10.772   0.988  0.1050 -0.5170 -0.0732
  283MOL0     C38127   9.516  10.861   1.012  1.1860  0.1000  0.4620
  283MOL0     C38128   9.648  10.851   0.956  0.2107  0.1239  0.3965
  283MOL0     O38129   9.754  10.931   1.009  0.3546 -0.0071 -0.0719
  283MOL0     C38130   9.893  10.895   0.978  0.7306 -0.0995  0.6672
  283MOL0     C38131   9.959  10.921   0.836  0.4253  0.4827 -0.4500
  283MOL0     C38132  10.100  10.848   0.834  0.0102 -0.2454  0.0157
  283MOL0     C38133  10.157  10.862   0.693 -0.5977 -0.3512  0.1354
  283MOL0     C38134  10.195  10.996   0.678 -0.6675 -0.1270  0.1298
  283MOL0     C38135  10.258  11.095   0.641  0.3415 -0.3392 -0.1999
  283MOL0     C38136   9.670  10.737   0.873 -1.0653 -0.0458 -0.7523
  283MOL0     C38137   9.564  10.644   0.847  0.4243 -1.0387  0.5396
  283MOL0     H38138   9.185  10.333   0.912  1.7449  0.7597  0.3910
  283MOL0     H38139   9.010  10.204   0.827 -0.8197 -0.8349 -1.3316
  283MOL0     H38140   8.790  10.132   0.677 -1.0030 -0.1574 -1.7511
  283MOL0     H38141   8.814  10.013   0.555 -0.0891 -1.6388  1.0881
  283MOL0     H38142   8.965   9.997   0.819 -0.6403  0.7966 -1.0807
  283MOL0     H38143   8.835   9.899   0.768 -1.7009  2.6954  0.9909
  283MOL0     H38144   8.945   9.818   0.579 -1.4072  2.7975 -1.1366
  283MOL0     H38145   9.084   9.924   0.607 -1.6531  0.0255 -2.4081
  283MOL0     H38146   9.150   9.704   0.674  0.3990 -1.2214  1.5240
  283MOL0     H38147   9.131   9.822   0.815 -1.6937 -1.4730  2.7695
  283MOL0     H38148   9.091   9.557   0.820 -0.1035 -1.1202 -1.0640
  283MOL0     H38149   9.009   9.678   0.927  1.0154 -1.6841  0.2592
  283MOL0     H38150   8.812   9.652   0.789  0.6335  0.6300 -1.4444
  283MOL0     H38151   8.905   9.574   0.662  0.5315 -0.7886 -0.8639
  283MOL0     H38152   8.754   9.432   0.795 -0.3975 -0.5652  2.2678
  283MOL0     H38153   8.909   9.371   0.739  1.1450  2.5811 -2.2896
  283MOL0     H38154   8.808   9.449   1.027  0.2384 -2.6867  2.9553
  283MOL0     H38155   8.974   9.404   0.999 -0.2252 -0.7571 -0.1290
  283MOL0     H38156   8.617   9.294   1.043  0.4349  0.4404 -1.4905
  283MOL0     H38157   8.601   8.906   1.100  2.5230  2.1070  1.8674
  283MOL0     H38158   8.503   9.051   1.128  1.4842  4.5212 -0.7727
  283MOL0     H38159   8.563   8.910   0.875 -1.8300 -1.8402  1.6525
  283MOL0     H38160   8.485   9.067   0.870  2.6597 -1.0655 -2.3510
  283MOL0     H38161   8.309   9.006   0.997 -2.5014 -0.5994 -0.7412
  283MOL0     H38162   8.367   8.841   1.035  1.9296  0.6231 -0.2788
  283MOL0     H38163   8.206   8.803   0.869 -0.5562 -0.6191  0.9821
  283MOL0     H38164   8.373   8.781   0.800  2.0721  0.3253  2.0138
  283MOL0     H38165   8.254   8.720   0.644 -0.7348 -0.4835 -0.0503
  283MOL0     H38166   8.293   8.598   0.366 -0.5172  0.3633 -1.5035
  283MOL0     H38167   8.191   8.562   0.502  1.0524  3.3238  1.3837
  283MOL0     H38168   8.125   8.568   0.333 -0.2415 -1.7638  1.3831
  283MOL0     H38169   7.952   8.788  -0.015 -1.6647 -1.2171 -2.2211
  283MOL0     H38170   7.947   8.785  -0.278  1.0068 -0.1911 -1.3537
  283MOL0     H38171   8.193   9.083  -0.502  0.3948 -2.0484  1.7465
  283MOL0     H38172   8.066   9.022  -0.616 -4.3012  0.6774  0.8342
  283MOL0     H38173   7.988   9.191  -0.393  0.3443 -0.8002 -0.2780
  283MOL0     H38174   8.051   9.242  -0.548 -1.8264  1.9540  1.5580
  283MOL0     H38175   7.794   9.202  -0.478  0.1883  1.6743 -1.2729
  283MOL0     H38176   7.825   9.030  -0.535 -1.0640  1.2273 -0.3739
  283MOL0     H38177   7.889   9.277  -0.707  0.4170 -0.0977  1.9640
  283MOL0     H38178   7.916   9.107  -0.747 -1.7499 -0.2817 -1.7368
  283MOL0     H38179   7.626   9.172  -0.674 -0.9932 -2.0652 -0.2932
  283MOL0     H38180   7.698   9.046  -0.770  2.7324 -0.8504  0.7939
  283MOL0     H38181   7.581   9.190  -0.903  0.1246 -1.4524  0.4718
  283MOL0     H38182   7.683   9.335  -0.839  1.4753 -0.1023  1.8884
  283MOL0     H38183   7.812   9.117  -0.990  0.8746  0.4573  0.7326
  283MOL0     H38184   7.864   9.286  -0.960  0.2139 -0.0255 -0.1950
  283MOL0     H38185   7.724   9.386  -1.109 -0.1190 -0.8602 -2.3579
  283MOL0     H38186   7.643   9.230  -1.137  0.5131 -1.2522 -0.8721
  283MOL0     H38187   8.224   9.113  -0.287 -2.1029  2.9751  1.6977
  283MOL0     H38188   8.248   9.103  -0.047 -0.9804  0.1436 -0.5182
  283MOL0     H38189   8.138   9.085   0.323 -0.3653 -0.9014 -1.1752
  283MOL0     H38190   8.229   9.138   0.536  1.0404 -0.8889  2.8182
  283MOL0     H38191   9.157  10.254   0.419  0.2538 -0.9582  0.2195
  283MOL0     H38192   9.346  10.376   0.512  1.2399 -3.5183 -0.3625
  283MOL0     H38193   9.316  10.781   1.027  0.7602  2.2111  1.2048
  283MOL0     H38194   9.485  10.948   1.070  1.7727 -0.0702  1.0459
  283MOL0     H38195   9.966  10.953   1.036  0.3815  0.2300  0.7770
  283MOL0     H38196   9.912  10.793   1.012 -0.4067 -0.9059 -0.9918
  283MOL0     H38197   9.966  11.030   0.842 -2.3283  0.7231  0.0393
  283MOL0     H38198   9.901  10.885   0.750 -3.7792 -0.4896  2.4837
  283MOL0     H38199  10.083  10.740   0.844 -3.2937  0.1766 -0.0181
  283MOL0     H38200  10.165  10.894   0.909  1.1249  0.4330 -1.3095
  283MOL0     H38201  10.083  10.837   0.617 -1.4007  0.6890  0.5497
  283MOL0     H38202  10.238  10.789   0.681 -1.2465 -0.7405 -2.4873
  283MOL0     H38203  10.330  11.172   0.620 -0.3347  0.2037 -0.5548
  283MOL0     H38204   9.768  10.706   0.839  0.0948  4.2149 -1.8719
  283MOL0     H38205   9.583  10.569   0.771 -3.6337 -2.0750  0.2746
  284MOL0     O38206   1.486   9.508   2.011 -0.0781 -0.6463  0.3830
  284MOL0     C38207   1.586   9.471   2.059 -0.7479  0.4606  0.0450
  284MOL0     O38208   1.686   9.408   1.986  0.0967 -0.5953 -0.5878
  284MOL0     C38209   1.678   9.410   1.853 -0.2006 -0.6590 -0.0774
  284MOL0     C38210   1.739   9.514   1.781 -0.1241  0.2762 -0.4535
  284MOL0     C38211   1.740   9.512   1.644 -0.4263  0.5672  0.3034
  284MOL0     C38212   1.689   9.406   1.577  0.8193  0.4483 -0.4523
  284MOL0     O38213   1.706   9.413   1.437  0.2550  0.3628 -0.3828
  284MOL0     C38214   1.662   9.297   1.367  0.3386 -0.0388 -1.3770
  284MOL0     C38215   1.716   9.284   1.226 -0.2668  0.4964 -0.4906
  284MOL0     C38216   1.654   9.151   1.166  0.3323 -0.6385 -0.0295
  284MOL0     C38217   1.748   9.107   1.052 -0.2470 -0.5563 -0.1850
  284MOL0     C38218   1.681   8.987   0.971 -0.0509 -0.2410 -0.0489
  284MOL0     C38219   1.662   8.860   1.059  0.0834 -0.0710 -0.0599
  284MOL0     C38220   1.566   8.751   0.993 -0.9100 -1.3314 -0.4881
  284MOL0     C38221   1.657   8.665   0.908  0.8063 -0.3732 -0.8003
  284MOL0     N38222   1.601   8.565   0.816  0.1711  0.4129 -0.5707
  284MOL0     C38223   1.518   8.462   0.856 -0.1391  0.5259 -0.6434
  284MOL0     C38224   1.445   8.441   0.751  1.1211 -0.2530 -0.1859
  284MOL0     C38225   1.315   8.363   0.739 -0.3808 -0.2407 -0.0463
  284MOL0     C38226   1.349   8.252   0.641 -0.0479 -0.1430 -0.0426
  284MOL0     C38227   1.470   8.156   0.680  0.0184 -0.7636 -0.8847
  284MOL0     C38228   1.472   8.024   0.606 -0.3228 -0.7214 -0.9150
  284MOL0     O38229   1.542   7.927   0.678  0.4035  0.5763 -0.2401
  284MOL0     C38230   1.570   7.814   0.610  0.3524 -0.0961 -0.3396
  284MOL0     C38231   1.510   7.775   0.489 -0.2480  0.4573 -0.0951
  284MOL0     C38232   1.553   7.664   0.416  0.2915  0.6238 -0.3349
  284MOL0     C38233   1.466   7.617   0.298 -0.2626 -0.7375  0.9162
  284MOL0     C38234   1.664   7.587   0.476 -0.6751 -0.1591  0.4875
  284MOL0     C38235   1.723   7.460   0.406  0.3421  0.4230  0.1941
  284MOL0     O38236   1.795   7.374   0.483 -0.5928  0.4230 -0.0712
  284MOL0     C38237   1.843   7.253   0.435 -0.2443  1.0102  0.6889
  284MOL0     C38238   1.973   7.216   0.451 -0.5064  0.1946  1.2701
  284MOL0     C38239   2.018   7.089   0.425 -0.0271 -0.3626  0.0093
  284MOL0     C38240   1.932   6.992   0.363 -0.1063 -0.1080  0.4095
  284MOL0     O38241   1.987   6.880   0.321 -0.0789 -0.0279 -0.3217
  284MOL0     C38242   2.046   6.894   0.190  0.3461  0.0901 -0.2045
  284MOL0     C38243   2.189   6.837   0.184  0.9222 -1.0738 -0.6644
  284MOL0     C38244   2.206   6.687   0.181 -1.4673 -0.2917  0.1588
  284MOL0     C38245   2.353   6.647   0.187 -0.2792 -0.5500 -0.1902
  284MOL0     C38246   2.363   6.486   0.211  0.0705  1.0688  0.4883
  284MOL0     C38247   2.506   6.427   0.202 -0.4232 -0.2311 -0.1891
  284MOL0     C38248   2.598   6.506   0.288 -0.7379  0.1195 -0.0982
  284MOL0     C38249   2.746   6.458   0.266  0.9972  0.6405 -0.0140
  284MOL0    Cl38250   2.845   6.583   0.350  0.0264 -0.7334 -0.3451
  284MOL0     C38251   1.792   7.022   0.348 -0.0924 -0.1177  0.5120
  284MOL0     C38252   1.755   7.152   0.376  1.0555  0.7703 -0.1470
  284MOL0     O38253   1.715   7.453   0.285  1.4626  0.3358  0.8449
  284MOL0     C38254   1.722   7.626   0.594 -0.0625 -0.1458 -0.5405
  284MOL0     C38255   1.664   7.734   0.666  0.2964  0.4954  0.3814
  284MOL0     N38256   1.501   8.508   0.643  0.2732  0.2225 -0.0253
  284MOL0     N38257   1.587   8.585   0.690  0.6389 -0.2257  0.0613
  284MOL0     C38258   1.631   9.291   1.646  1.0390 -0.9175 -0.8886
  284MOL0     C38259   1.628   9.296   1.784  0.2191 -0.3599 -0.4802
  284MOL0     C38260   1.610   9.500   2.199 -0.4163  0.2270  0.3656
  284MOL0     C38261   1.523   9.576   2.270  0.6823 -1.3208  0.3099
  284MOL0     C38262   1.538   9.587   2.406 -0.3420  0.2626 -0.8718
  284MOL0     C38263   1.655   9.543   2.482  0.6704  0.7614 -0.0989
  284MOL0     O38264   1.678   9.575   2.611  1.0104 -0.6570  0.2229
  284MOL0     C38265   1.724   9.705   2.617 -0.5097 -0.4543  0.4213
  284MOL0     C38266   1.728   9.786   2.746  0.5345 -0.7329 -0.1309
  284MOL0     C38267   1.787   9.706   2.861  0.0237 -0.3564  0.3927
  284MOL0     C38268   1.920   9.620   2.838  0.0462  0.0782  0.7527
  284MOL0     C38269   2.026   9.715   2.814 -0.7729  0.1844  0.4813
  284MOL0     C38270   2.122   9.780   2.783  0.4334  0.3067 -0.3176
  284MOL0     C38271   1.741   9.461   2.403  0.1089 -0.8480  0.3019
  284MOL0     C38272   1.726   9.439   2.262 -0.1095 -0.1576 -0.5417
  284MOL0     H38273   1.784   9.593   1.840  3.3048 -2.8169  1.5533
  284MOL0     H38274   1.793   9.590   1.591 -3.6652  2.1184 -0.9253
  284MOL0     H38275   1.702   9.212   1.422 -0.6879  0.0269 -0.4917
  284MOL0     H38276   1.552   9.295   1.369  0.2421 -0.2209  3.3850
  284MOL0     H38277   1.687   9.366   1.159  0.6905  1.4467  0.2222
  284MOL0     H38278   1.825   9.277   1.230 -0.3190 -0.3650 -0.4053
  284MOL0     H38279   1.658   9.070   1.239  2.3991 -2.9840 -2.5095
  284MOL0     H38280   1.554   9.180   1.133  0.9062  1.6495  0.0200
  284MOL0     H38281   1.767   9.181   0.974 -0.3459 -1.9600 -1.5899
  284MOL0     H38282   1.843   9.076   1.096  0.9394  1.2611 -1.3352
  284MOL0     H38283   1.585   9.010   0.923 -0.1716 -2.0814 -0.7799
  284MOL0     H38284   1.744   8.964   0.885 -1.7358  0.2255 -1.4854
  284MOL0     H38285   1.761   8.819   1.079  0.4202  1.2158  1.0334
  284MOL0     H38286   1.616   8.892   1.153  0.1366  0.9240 -0.3535
  284MOL0     H38287   1.516   8.699   1.075  0.4000 -3.2070 -0.8253
  284MOL0     H38288   1.486   8.790   0.929 -1.7515 -1.1058  0.6801
  284MOL0     H38289   1.721   8.614   0.981  0.0594  1.3195  1.1319
  284MOL0     H38290   1.723   8.722   0.841  3.9124 -2.1388  0.5558
  284MOL0     H38291   1.489   8.425   0.954 -0.2143 -1.5996 -1.4182
  284MOL0     H38292   1.293   8.318   0.836 -0.7600 -0.5385 -0.2659
  284MOL0     H38293   1.235   8.429   0.707  0.5143  0.0978 -1.7235
  284MOL0     H38294   1.384   8.301   0.550  1.5836  1.6641  1.4556
  284MOL0     H38295   1.255   8.196   0.634 -0.2121  0.0681  0.4588
  284MOL0     H38296   1.442   8.138   0.784 -0.3163  2.4901 -0.3140
  284MOL0     H38297   1.566   8.210   0.675  0.1282 -0.9339 -0.6368
  284MOL0     H38298   1.519   8.056   0.512 -3.3689 -2.3756 -3.1598
  284MOL0     H38299   1.373   7.993   0.574 -0.1008 -1.3079 -1.0475
  284MOL0     H38300   1.427   7.834   0.452 -0.1159  1.1988  0.7633
  284MOL0     H38301   1.524   7.614   0.206  1.3227 -0.1969  1.8635
  284MOL0     H38302   1.414   7.522   0.314  0.0157 -1.6844 -2.7971
  284MOL0     H38303   1.388   7.690   0.272  3.6376  2.9881 -1.5644
  284MOL0     H38304   2.043   7.284   0.498 -1.1059  1.3100  0.6027
  284MOL0     H38305   2.122   7.062   0.439 -0.4183 -2.4308 -0.6389
  284MOL0     H38306   1.994   6.832   0.116 -1.7895  2.4332 -0.7925
  284MOL0     H38307   2.053   7.000   0.163 -0.8893 -0.0920 -1.3548
  284MOL0     H38308   2.231   6.857   0.085 -0.4147 -0.7023 -1.1753
  284MOL0     H38309   2.239   6.892   0.263  0.8119  0.9884 -1.9581
  284MOL0     H38310   2.163   6.637   0.094 -1.7943  0.0577  0.1198
  284MOL0     H38311   2.177   6.647   0.279 -0.2342 -1.3951  0.1023
  284MOL0     H38312   2.416   6.669   0.100 -1.0039 -0.4378 -0.6911
  284MOL0     H38313   2.390   6.694   0.279 -3.5729  1.1231  0.4075
  284MOL0     H38314   2.309   6.424   0.139  0.8092 -0.8929  1.5671
  284MOL0     H38315   2.321   6.455   0.307  0.3824  0.3005  0.3866
  284MOL0     H38316   2.502   6.322   0.232  1.4498 -0.0273  0.9102
  284MOL0     H38317   2.550   6.443   0.103  1.4087 -0.7125  0.5032
  284MOL0     H38318   2.586   6.479   0.393  1.6770  0.1950  0.2748
  284MOL0     H38319   2.592   6.614   0.279 -1.5913  0.4186  3.0352
  284MOL0     H38320   2.769   6.445   0.160 -2.4922  0.7373 -0.8999
  284MOL0     H38321   2.768   6.356   0.297  1.8622  0.7437 -0.2600
  284MOL0     H38322   1.729   6.943   0.308  1.2179 -1.5495  1.1613
  284MOL0     H38323   1.651   7.173   0.354  1.1110 -0.6202 -1.9386
  284MOL0     H38324   1.800   7.567   0.640  2.0873  1.3545 -2.0564
  284MOL0     H38325   1.696   7.754   0.768  0.3799 -0.6211  0.5890
  284MOL0     H38326   1.583   9.206   1.598 -0.0199 -1.3430  0.8313
  284MOL0     H38327   1.576   9.225   1.847  1.4462  0.6234  1.7260
  284MOL0     H38328   1.438   9.620   2.220  0.1914 -3.7773 -1.1822
  284MOL0     H38329   1.464   9.651   2.453 -1.5010 -2.5210  1.4647
  284MOL0     H38330   1.828   9.697   2.584 -0.7604 -0.1104 -0.4885
  284MOL0     H38331   1.667   9.771   2.551 -1.8204 -0.0231  1.9266
  284MOL0     H38332   1.631   9.831   2.770  0.5153  0.6026 -2.4473
  284MOL0     H38333   1.793   9.872   2.729 -1.4385  0.2386 -3.8759
  284MOL0     H38334   1.711   9.629   2.875 -0.4017 -0.4393 -2.0026
  284MOL0     H38335   1.790   9.768   2.951 -3.2665  0.4914  0.0574
  284MOL0     H38336   1.909   9.558   2.749 -0.4805 -1.2121  1.6773
  284MOL0     H38337   1.949   9.561   2.925 -1.2345  0.8883  1.7768
  284MOL0     H38338   2.211   9.836   2.765 -0.1839  1.0879 -1.0132
  284MOL0     H38339   1.832   9.428   2.451  3.7780  4.4448 -2.0420
  284MOL0     H38340   1.802   9.386   2.205  2.4290  1.9435  0.6829
  285MOL0     O38341  11.126   2.964   3.634 -0.2698 -0.2230 -0.5409
  285MOL0     C38342  11.230   3.015   3.641 -1.0550 -0.4834  0.5099
  285MOL0     O38343  11.250   3.152   3.630  0.8415  0.1654 -0.3280
  285MOL0     C38344  11.138   3.235   3.611 -0.8569 -0.6805 -0.0903
  285MOL0     C38345  11.131   3.323   3.497 -0.0279 -0.1510  0.3448
  285MOL0     C38346  11.033   3.420   3.480 -0.9026  0.2033  0.1191
  285MOL0     C38347  10.919   3.423   3.564  0.2157  0.3543  0.3313
  285MOL0     O38348  10.817   3.526   3.566 -1.2820 -0.4173  0.6891
  285MOL0     C38349  10.853   3.649   3.504  0.0240 -0.4403 -0.0273
  285MOL0     C38350  10.819   3.744   3.619  0.5630  0.0027  0.5703
  285MOL0     C38351  10.924   3.737   3.728 -0.7108  0.3493 -0.3116
  285MOL0     C38352  10.901   3.832   3.844  0.0981  0.1982  0.3965
  285MOL0     C38353  11.026   3.880   3.920 -0.4496 -0.2034 -0.0654
  285MOL0     C38354  10.998   3.949   4.052 -0.2407  0.6598 -0.5168
  285MOL0     C38355  11.130   3.973   4.121 -0.6668  0.4829  0.6106
  285MOL0     C38356  11.115   4.061   4.231  0.0929 -0.4452  0.2947
  285MOL0     N38357  11.249   4.086   4.301 -0.3545 -0.5508 -0.5271
  285MOL0     C38358  11.301   4.024   4.418  0.4574 -0.1310  0.2601
  285MOL0     C38359  11.394   4.108   4.463  0.1785 -0.3084  0.0930
  285MOL0     C38360  11.464   4.072   4.594 -0.2725  1.0716  0.0638
  285MOL0     C38361  11.376   4.108   4.727 -0.2476  1.6012  1.2043
  285MOL0     C38362  11.474   4.164   4.839 -0.8055 -0.0120 -0.0097
  285MOL0     C38363  11.406   4.155   4.988 -0.2883  0.1707  0.2259
  285MOL0     O38364  11.257   4.174   4.965  0.6887  0.1751  0.3723
  285MOL0     C38365  11.196   4.295   4.947  0.5890 -0.4360  0.2365
  285MOL0     C38366  11.257   4.421   4.955 -0.3124  0.8091  0.1425
  285MOL0     C38367  11.179   4.534   4.962  0.3071 -1.0570 -0.1441
  285MOL0     C38368  11.266   4.663   4.989 -0.2399  0.2409  0.0544
  285MOL0     C38369  11.041   4.522   4.950 -0.1901 -0.5219 -0.3613
  285MOL0     C38370  10.962   4.647   4.959 -0.7818  0.0961  0.1523
  285MOL0     O38371  10.870   4.647   5.056 -0.0121  0.1139  0.0064
  285MOL0     C38372  10.776   4.744   5.088  0.5089 -0.0487 -0.6384
  285MOL0     C38373  10.741   4.845   5.003 -0.8485 -0.0789 -0.8547
  285MOL0     C38374  10.646   4.943   5.038 -0.8739 -0.4630  0.8411
  285MOL0     C38375  10.577   4.935   5.155 -0.5795  0.2278 -1.0669
  285MOL0     O38376  10.484   5.036   5.174 -0.1102 -0.0627 -0.1359
  285MOL0     C38377  10.424   5.042   5.311 -0.8179 -0.0052 -0.1215
  285MOL0     C38378  10.330   5.164   5.306  0.8234  0.1916  0.4094
  285MOL0     C38379  10.212   5.153   5.201  0.0779  0.6019 -0.5720
  285MOL0     C38380  10.257   5.174   5.052 -0.6734  0.5052 -0.1878
  285MOL0     C38381  10.141   5.185   4.952  0.0242 -0.3668 -0.4288
  285MOL0     C38382  10.126   5.327   4.912  0.0007  0.6153  0.0004
  285MOL0     C38383  10.009   5.352   4.809  0.6550  0.7178 -0.8328
  285MOL0     C38384  10.003   5.504   4.804 -0.3348 -0.4907  1.2053
  285MOL0    Cl38385   9.914   5.549   4.655  0.5206 -0.1961 -0.6817
  285MOL0     C38386  10.606   4.826   5.238  0.2904  0.1528 -0.5309
  285MOL0     C38387  10.702   4.732   5.207 -0.2318 -0.0171  0.6404
  285MOL0     O38388  10.968   4.717   4.865 -0.2752 -0.5119 -0.7790
  285MOL0     C38389  10.985   4.392   4.952 -0.5259 -1.4378  0.2879
  285MOL0     C38390  11.060   4.280   4.941  0.4577  0.6406  0.3878
  285MOL0     N38391  11.405   4.216   4.371 -0.3164  0.4368 -0.5107
  285MOL0     N38392  11.329   4.192   4.269  0.8266 -0.0207  0.4660
  285MOL0     C38393  10.912   3.334   3.670 -0.6685  0.4622  0.2568
  285MOL0     C38394  11.029   3.250   3.699 -0.3376  0.0895 -0.5847
  285MOL0     C38395  11.351   2.936   3.675 -0.9977 -0.1396  0.5745
  285MOL0     C38396  11.354   2.799   3.709 -1.7126  0.7197  0.7328
  285MOL0     C38397  11.482   2.738   3.726 -0.6569 -1.0515 -0.4116
  285MOL0     C38398  11.604   2.808   3.712  0.5663 -0.3895  0.1958
  285MOL0     O38399  11.719   2.729   3.720 -0.1198  0.0836 -0.3765
  285MOL0     C38400  11.855   2.768   3.697  0.0159 -0.1756  0.1003
  285MOL0     C38401  11.944   2.722   3.807 -1.4126  1.1168  0.8364
  285MOL0     C38402  12.086   2.726   3.771  0.3463  0.4237 -0.7439
  285MOL0     C38403  12.195   2.732   3.875  0.0417 -0.1622 -0.1679
  285MOL0     C38404  12.165   2.645   3.982  0.3375  0.1071  0.6720
  285MOL0     C38405  12.140   2.571   4.075 -0.6623  0.6845  0.2623
  285MOL0     C38406  11.602   2.935   3.673  0.2754  0.6246  0.2172
  285MOL0     C38407  11.477   3.000   3.665  0.3119 -0.5530 -1.1949
  285MOL0     H38408  11.219   3.318   3.433 -0.1197 -4.0141  0.3246
  285MOL0     H38409  11.044   3.493   3.401 -1.0603 -0.8600 -0.9143
  285MOL0     H38410  10.958   3.663   3.478  0.2548  1.2475  1.5685
  285MOL0     H38411  10.798   3.672   3.412 -0.8031  2.1274  1.0176
  285MOL0     H38412  10.816   3.844   3.577  2.6648  0.8090  2.1352
  285MOL0     H38413  10.716   3.723   3.648  1.0927 -2.4032  0.9400
  285MOL0     H38414  10.938   3.639   3.774 -2.0269 -1.2558 -3.0370
  285MOL0     H38415  11.021   3.764   3.685 -1.3498  1.7426 -0.9294
  285MOL0     H38416  10.855   3.918   3.795 -1.3186 -0.4544  0.5213
  285MOL0     H38417  10.829   3.784   3.911  2.1034 -0.4340  2.2143
  285MOL0     H38418  11.092   3.795   3.940 -0.0820  0.1420  0.1896
  285MOL0     H38419  11.094   3.945   3.864  1.7307 -1.4377  1.0207
  285MOL0     H38420  10.949   4.046   4.042  0.5821  1.4720  2.4337
  285MOL0     H38421  10.931   3.883   4.109 -1.3495  1.6445 -0.6397
  285MOL0     H38422  11.176   3.882   4.161 -1.0455 -0.9878 -2.1078
  285MOL0     H38423  11.199   4.013   4.046 -0.1341 -1.7214 -0.1445
  285MOL0     H38424  11.044   4.012   4.298  1.4637 -4.2154 -0.7468
  285MOL0     H38425  11.089   4.161   4.196  1.8357 -0.4893 -1.2950
  285MOL0     H38426  11.275   3.928   4.459 -1.8124 -0.3583 -1.5506
  285MOL0     H38427  11.509   3.973   4.586  1.2573  1.7109  0.4209
  285MOL0     H38428  11.545   4.145   4.585 -0.4496  1.1829 -0.7171
  285MOL0     H38429  11.323   4.015   4.752  0.2904  0.9011 -0.1172
  285MOL0     H38430  11.307   4.191   4.710 -0.6226  1.2394  0.9197
  285MOL0     H38431  11.495   4.270   4.821 -0.9168  0.0240  0.0660
  285MOL0     H38432  11.562   4.101   4.850 -0.8320 -0.4389 -2.0155
  285MOL0     H38433  11.460   4.228   5.050  0.0217 -0.5469  0.8135
  285MOL0     H38434  11.417   4.053   5.025 -0.3084 -0.4289 -1.3344
  285MOL0     H38435  11.363   4.410   4.976 -0.7916 -2.8774  1.4941
  285MOL0     H38436  11.282   4.664   5.098 -1.6311  1.0047  0.2670
  285MOL0     H38437  11.361   4.664   4.935  0.0999  1.5093  0.6564
  285MOL0     H38438  11.205   4.752   4.976  0.0844  0.6078  0.9239
  285MOL0     H38439  10.787   4.860   4.906  1.0624 -0.6086 -0.0635
  285MOL0     H38440  10.626   5.025   4.970  1.7702 -1.4897 -1.3819
  285MOL0     H38441  10.377   4.944   5.326 -2.1436  0.8004  1.3183
  285MOL0     H38442  10.488   5.059   5.398 -1.8882  0.2444  0.6380
  285MOL0     H38443  10.280   5.183   5.401  1.3351 -1.8870  1.1480
  285MOL0     H38444  10.396   5.251   5.296 -0.1844  1.0930  1.2871
  285MOL0     H38445  10.143   5.232   5.234  0.2306  2.0903 -3.4675
  285MOL0     H38446  10.150   5.064   5.202  0.9039  0.0167 -0.6603
  285MOL0     H38447  10.323   5.260   5.036 -0.2721 -0.2591 -3.3334
  285MOL0     H38448  10.305   5.080   5.023 -2.3456 -0.5823  0.4648
  285MOL0     H38449  10.053   5.152   5.007  1.2799 -1.3885  1.0817
  285MOL0     H38450  10.164   5.120   4.868  2.8705  2.3187 -1.9472
  285MOL0     H38451  10.115   5.389   5.001  1.4605  2.1109 -0.8214
  285MOL0     H38452  10.214   5.359   4.857  0.8272  0.0727  0.9753
  285MOL0     H38453   9.918   5.314   4.857  2.1876 -0.9513  0.9101
  285MOL0     H38454  10.028   5.304   4.713  0.3072 -4.5301  1.3722
  285MOL0     H38455  10.099   5.558   4.804 -0.6541  0.0944  0.0147
  285MOL0     H38456   9.956   5.545   4.894  0.1558  1.0217  0.8104
  285MOL0     H38457  10.567   4.821   5.339 -0.8356  1.3712 -0.8841
  285MOL0     H38458  10.734   4.651   5.271  1.2499  0.0008 -0.0326
  285MOL0     H38459  10.876   4.385   4.947 -0.5004 -1.5044 -0.3783
  285MOL0     H38460  10.997   4.192   4.934 -2.5401  2.6718  0.4530
  285MOL0     H38461  10.827   3.330   3.738 -0.2476  2.2801  0.9226
  285MOL0     H38462  11.026   3.181   3.783  1.1688  0.1368 -0.4718
  285MOL0     H38463  11.267   2.734   3.716 -1.2762  0.1387  0.8492
  285MOL0     H38464  11.478   2.633   3.754 -1.0060 -0.4100  2.2092
  285MOL0     H38465  11.887   2.715   3.607 -1.1521 -0.2783 -0.2692
  285MOL0     H38466  11.863   2.878   3.698 -3.0457  0.1502  1.4509
  285MOL0     H38467  11.914   2.619   3.826 -1.5901  1.4647  2.6728
  285MOL0     H38468  11.930   2.781   3.898 -2.1697  2.0702  0.1165
  285MOL0     H38469  12.106   2.818   3.716 -0.1457  1.4050  0.6506
  285MOL0     H38470  12.093   2.639   3.706 -2.8662  0.0809 -0.8001
  285MOL0     H38471  12.219   2.833   3.911 -1.5403  0.6481 -1.2635
  285MOL0     H38472  12.292   2.702   3.834  1.0664  0.9974  1.2510
  285MOL0     H38473  12.109   2.496   4.145  2.7078  0.1336  1.3669
  285MOL0     H38474  11.695   2.990   3.683  0.1968  0.3739  3.1011
  285MOL0     H38475  11.482   3.108   3.659 -0.6960  0.1840  4.6913
  286MOL0     O38476   8.629   4.555   6.666 -0.5586 -0.3081 -0.0107
  286MOL0     C38477   8.646   4.467   6.749  0.7367  0.3112 -0.1848
  286MOL0     O38478   8.556   4.368   6.772  0.1450 -0.3806  0.7361
  286MOL0     C38479   8.467   4.357   6.669  0.5706 -1.1847 -0.1213
  286MOL0     C38480   8.349   4.441   6.672 -0.4881  0.1233 -0.0099
  286MOL0     C38481   8.253   4.429   6.569 -0.7386  0.1824  0.1836
  286MOL0     C38482   8.276   4.329   6.470 -0.3010 -0.5123 -0.4157
  286MOL0     O38483   8.192   4.297   6.365  0.1577  0.6018 -0.1636
  286MOL0     C38484   8.079   4.387   6.345 -0.0481  0.7490 -0.1458
  286MOL0     C38485   7.984   4.347   6.233 -0.0010 -0.0879 -0.7984
  286MOL0     C38486   7.881   4.463   6.213  0.4844 -1.2540 -0.1503
  286MOL0     C38487   7.783   4.450   6.093 -1.0132  0.6297  0.4488
  286MOL0     C38488   7.846   4.469   5.957 -0.7906  0.1957  0.7760
  286MOL0     C38489   7.760   4.489   5.825  0.0241  0.3934 -0.8396
  286MOL0     C38490   7.659   4.595   5.830 -0.2826 -0.0363  0.4487
  286MOL0     C38491   7.703   4.738   5.875 -0.2828  0.0511 -0.5264
  286MOL0     N38492   7.603   4.842   5.875  0.4189  0.4273  0.9236
  286MOL0     C38493   7.585   4.930   5.766  0.8366 -0.7016 -0.2916
  286MOL0     C38494   7.496   5.026   5.811  0.0806  0.6535 -1.3781
  286MOL0     C38495   7.433   5.133   5.743 -0.5596  0.6327  0.0762
  286MOL0     C38496   7.289   5.102   5.707  1.4925 -1.0636 -0.6928
  286MOL0     C38497   7.212   5.220   5.640  0.3345  0.6494  0.1125
  286MOL0     C38498   7.208   5.335   5.726  0.0398 -0.2875  0.0814
  286MOL0     O38499   7.126   5.431   5.671 -0.7597 -0.7087 -0.2287
  286MOL0     C38500   7.130   5.556   5.725 -0.0547 -0.5067  0.2637
  286MOL0     C38501   7.158   5.576   5.866 -0.8492  0.2832  0.4880
  286MOL0     C38502   7.174   5.701   5.925  0.7039 -0.3183 -0.1701
  286MOL0     C38503   7.181   5.714   6.076  0.6430  0.1677 -0.3546
  286MOL0     C38504   7.153   5.813   5.839  0.6299 -1.2188 -0.0897
  286MOL0     C38505   7.160   5.951   5.890 -0.0978 -1.1358 -0.1155
  286MOL0     O38506   7.085   6.046   5.825  0.3745  0.1428 -0.9394
  286MOL0     C38507   7.077   6.178   5.864  0.4675 -0.6971  0.2518
  286MOL0     C38508   7.122   6.242   5.985  0.3607 -0.8897  0.0670
  286MOL0     C38509   7.098   6.383   5.994 -0.4829  0.1963 -0.0349
  286MOL0     C38510   7.042   6.469   5.894  0.0093 -0.2305  0.5409
  286MOL0     O38511   7.015   6.602   5.907  0.4558  0.8469  0.5598
  286MOL0     C38512   7.112   6.687   5.840 -0.2253  0.0335 -0.6602
  286MOL0     C38513   7.119   6.829   5.893  0.2410 -0.8241  0.6244
  286MOL0     C38514   7.205   6.913   5.801 -0.5691  0.6894 -0.3244
  286MOL0     C38515   7.200   7.058   5.831  0.8406 -0.2234  0.4335
  286MOL0     C38516   7.301   7.150   5.758  0.7751  0.0102  0.2073
  286MOL0     C38517   7.322   7.288   5.831 -0.3542 -0.2514  1.2918
  286MOL0     C38518   7.398   7.395   5.750  0.8783 -0.2958  0.4572
  286MOL0     C38519   7.538   7.365   5.705 -0.6838 -0.0512 -0.3663
  286MOL0    Cl38520   7.557   7.495   5.600 -0.6159  0.4671 -0.4631
  286MOL0     C38521   6.998   6.399   5.782  1.4377 -0.6140  0.1391
  286MOL0     C38522   7.012   6.257   5.764  0.7236  0.0890 -0.5440
  286MOL0     O38523   7.252   5.974   5.969 -0.3766  0.0058  0.4937
  286MOL0     C38524   7.125   5.799   5.708  0.1913 -1.5303 -0.5206
  286MOL0     C38525   7.109   5.668   5.651  0.0773 -1.3099 -0.3506
  286MOL0     N38526   7.461   4.996   5.941 -0.1081 -0.4102 -0.2766
  286MOL0     N38527   7.524   4.888   5.973  0.0688  1.0641 -1.1199
  286MOL0     C38528   8.396   4.256   6.472  0.0945 -0.0625 -0.1466
  286MOL0     C38529   8.496   4.275   6.570  0.0387  0.4670  0.2922
  286MOL0     C38530   8.768   4.454   6.832  0.0762  1.0493  0.1159
  286MOL0     C38531   8.782   4.356   6.941  0.0516 -0.6170  0.2543
  286MOL0     C38532   8.900   4.357   7.018 -1.1397  1.3334  0.3784
  286MOL0     C38533   9.000   4.446   6.999  0.4182  0.5878 -0.1564
  286MOL0     O38534   9.118   4.432   7.076  0.5043 -0.3303 -0.2649
  286MOL0     C38535   9.179   4.550   7.137  0.1337 -0.1131 -0.6395
  286MOL0     C38536   9.077   4.621   7.230 -0.3119  1.4533 -0.5450
  286MOL0     C38537   9.128   4.765   7.265  1.0933  0.9554  1.4134
  286MOL0     C38538   9.108   4.866   7.152 -0.1986 -0.4117  0.1809
  286MOL0     C38539   9.169   4.988   7.215  0.5990  0.7416  1.4235
  286MOL0     C38540   9.214   5.087   7.250  0.4104 -0.0895  0.5230
  286MOL0     C38541   8.985   4.552   6.900  0.4496 -0.4771  0.4737
  286MOL0     C38542   8.863   4.558   6.820 -0.0838 -0.1159  0.4571
  286MOL0     H38543   8.323   4.508   6.753 -0.8500  0.1163 -0.1204
  286MOL0     H38544   8.166   4.494   6.574  1.0147  2.6442  0.5660
  286MOL0     H38545   8.012   4.386   6.432  0.1104 -3.2045  0.1196
  286MOL0     H38546   8.113   4.490   6.335 -0.0213  0.5672 -2.3491
  286MOL0     H38547   8.042   4.339   6.141 -0.8973  1.3234 -1.5313
  286MOL0     H38548   7.932   4.254   6.260  0.1935 -0.2171 -0.8727
  286MOL0     H38549   7.825   4.482   6.305 -0.0900 -1.6215 -0.4196
  286MOL0     H38550   7.943   4.548   6.184  2.7847 -2.3887  1.1664
  286MOL0     H38551   7.725   4.358   6.105 -0.1772  0.0837  0.4145
  286MOL0     H38552   7.716   4.535   6.107 -1.4802  0.3888 -0.2622
  286MOL0     H38553   7.911   4.556   5.971  0.0291 -0.4638  1.1789
  286MOL0     H38554   7.900   4.375   5.941 -5.2535 -2.2144 -2.1363
  286MOL0     H38555   7.826   4.515   5.741 -1.3711  0.4452 -1.9491
  286MOL0     H38556   7.711   4.397   5.794 -1.8861  0.3386  1.9920
  286MOL0     H38557   7.603   4.586   5.736  2.7155 -0.8600 -1.3973
  286MOL0     H38558   7.587   4.570   5.909 -1.0755  1.1172  0.1231
  286MOL0     H38559   7.781   4.771   5.805  1.6712  0.0599  1.5368
  286MOL0     H38560   7.739   4.737   5.978  0.7286  0.1669 -0.8611
  286MOL0     H38561   7.628   4.924   5.667 -1.3617  4.1608 -1.8857
  286MOL0     H38562   7.439   5.230   5.794 -0.9103  0.3386  0.6910
  286MOL0     H38563   7.485   5.150   5.649 -0.0668  1.8470  0.5451
  286MOL0     H38564   7.222   5.087   5.792  0.1009 -0.1035 -1.5827
  286MOL0     H38565   7.289   5.009   5.649  1.6751  0.2300 -2.8864
  286MOL0     H38566   7.109   5.197   5.615  0.6104  0.2052 -0.6247
  286MOL0     H38567   7.281   5.235   5.557  1.7914 -3.2874  0.4139
  286MOL0     H38568   7.312   5.368   5.727  2.5054 -6.4730 -3.0473
  286MOL0     H38569   7.193   5.303   5.829 -0.1886  1.1280  0.5113
  286MOL0     H38570   7.172   5.496   5.938  2.0807 -1.3257 -1.6663
  286MOL0     H38571   7.134   5.805   6.113  2.3033  0.8421  0.2217
  286MOL0     H38572   7.154   5.625   6.134  0.3144 -0.7784 -1.9251
  286MOL0     H38573   7.287   5.734   6.095  0.6831  1.0697 -1.4738
  286MOL0     H38574   7.162   6.191   6.072  1.2554  1.7258  1.2803
  286MOL0     H38575   7.146   6.437   6.074  3.2739 -0.2438 -1.7339
  286MOL0     H38576   7.214   6.648   5.854  1.2879  3.7522 -0.0533
  286MOL0     H38577   7.094   6.677   5.733  1.4574  0.8637 -1.0634
  286MOL0     H38578   7.014   6.860   5.891 -0.5945 -3.4566 -0.6740
  286MOL0     H38579   7.158   6.832   5.996  2.8956  1.6728 -0.3303
  286MOL0     H38580   7.173   6.900   5.697 -1.0063 -2.3403  0.1039
  286MOL0     H38581   7.305   6.870   5.799 -1.0287 -0.6951  2.0016
  286MOL0     H38582   7.096   7.087   5.819  0.4217 -1.0857  1.7569
  286MOL0     H38583   7.232   7.073   5.935  0.3595 -2.3260  0.9382
  286MOL0     H38584   7.252   7.167   5.662 -0.6014 -0.2716  0.8340
  286MOL0     H38585   7.398   7.103   5.736  0.8983  1.7352 -3.5846
  286MOL0     H38586   7.220   7.318   5.856 -0.8160  0.2930 -1.0584
  286MOL0     H38587   7.378   7.267   5.923  1.8592  1.7526  0.4908
  286MOL0     H38588   7.397   7.488   5.807 -0.6165  0.6877 -1.0908
  286MOL0     H38589   7.340   7.411   5.659  3.5677  2.0968 -1.0003
  286MOL0     H38590   7.545   7.264   5.664  2.7591 -0.7067  1.4426
  286MOL0     H38591   7.616   7.375   5.780 -2.9298  3.9779  1.7854
  286MOL0     H38592   6.939   6.447   5.705  2.4491 -2.2500 -1.7420
  286MOL0     H38593   6.951   6.211   5.687  0.3691 -0.8262  0.2578
  286MOL0     H38594   7.092   5.882   5.646  0.1621  0.4191  1.9572
  286MOL0     H38595   7.081   5.681   5.547 -0.8650 -0.1691  0.0235
  286MOL0     H38596   8.417   4.186   6.392  0.1932  0.8046 -0.9021
  286MOL0     H38597   8.599   4.244   6.557 -0.0352  1.2657 -3.1861
  286MOL0     H38598   8.692   4.296   6.950 -1.8538  1.5766 -2.2635
  286MOL0     H38599   8.917   4.297   7.106 -2.0516  1.8280  0.9027
  286MOL0     H38600   9.265   4.519   7.196 -1.5512 -2.5899  0.7304
  286MOL0     H38601   9.224   4.612   7.059  1.0765 -0.0280 -0.0408
  286MOL0     H38602   9.070   4.564   7.323 -1.0660 -0.0915 -1.5068
  286MOL0     H38603   8.976   4.622   7.186 -0.1213 -1.6983 -1.3381
  286MOL0     H38604   9.236   4.763   7.282  1.1698  4.6318  2.2228
  286MOL0     H38605   9.097   4.802   7.363  0.5068 -0.5173  1.8036
  286MOL0     H38606   9.007   4.883   7.112 -1.1502  2.1781  3.2818
  286MOL0     H38607   9.167   4.842   7.062  0.1052 -0.0797  0.2899
  286MOL0     H38608   9.249   5.182   7.286  1.2390 -0.1850 -0.0111
  286MOL0     H38609   9.067   4.622   6.885  0.3319 -0.7646 -1.9117
  286MOL0     H38610   8.839   4.632   6.744  1.2236 -0.4464 -0.3006
  287MOL0     O38611   7.723   1.740   9.929 -0.3813  0.5354  0.2543
  287MOL0     C38612   7.620   1.709   9.859  0.1682 -0.6241 -0.2282
  287MOL0     O38613   7.597   1.759   9.730  0.1728  0.0073 -0.9939
  287MOL0     C38614   7.686   1.862   9.699 -0.7873  0.1973  0.7589
  287MOL0     C38615   7.773   1.834   9.593  0.9954 -0.2204 -0.5399
  287MOL0     C38616   7.861   1.942   9.545  0.4692 -0.9320 -0.3968
  287MOL0     C38617   7.867   2.058   9.623  0.2457  0.5385  0.8228
  287MOL0     O38618   7.942   2.150   9.557  0.1529 -0.3394  0.1121
  287MOL0     C38619   7.952   2.288   9.618  0.0709 -0.3687 -0.5186
  287MOL0     C38620   8.085   2.316   9.692 -0.0112 -1.1264  0.6375
  287MOL0     C38621   8.107   2.468   9.726  1.3110 -0.0345  0.6720
  287MOL0     C38622   8.216   2.492   9.846 -0.3492 -0.5763 -0.6308
  287MOL0     C38623   8.301   2.619   9.820  0.5123 -0.5517 -0.3302
  287MOL0     C38624   8.397   2.605   9.711  0.4132  0.5709  0.8332
  287MOL0     C38625   8.469   2.742   9.661  0.8198 -1.1907  0.5027
  287MOL0     C38626   8.410   2.821   9.538 -0.8804  0.0470 -0.3352
  287MOL0     N38627   8.470   2.767   9.413 -0.1309 -0.5215 -0.1294
  287MOL0     C38628   8.457   2.639   9.354 -0.8621  0.0991 -0.3775
  287MOL0     C38629   8.520   2.652   9.237  0.2198  0.5976  0.4869
  287MOL0     C38630   8.540   2.546   9.126 -0.1890  0.9840  0.4166
  287MOL0     C38631   8.469   2.596   8.995  0.5618 -0.1769 -0.4038
  287MOL0     C38632   8.472   2.484   8.892  0.0981 -0.1438 -0.0313
  287MOL0     C38633   8.354   2.471   8.799 -0.3022  0.0364  0.0785
  287MOL0     O38634   8.353   2.574   8.697  0.1039 -0.0400 -0.0305
  287MOL0     C38635   8.383   2.529   8.577  0.5736  0.6094  0.7298
  287MOL0     C38636   8.311   2.570   8.462  0.0702 -0.5657 -0.2852
  287MOL0     C38637   8.343   2.530   8.338 -0.1515 -0.0638  0.8295
  287MOL0     C38638   8.252   2.588   8.233  0.0784 -0.4373 -0.5618
  287MOL0     C38639   8.449   2.437   8.316  0.0011  1.0962 -0.3303
  287MOL0     C38640   8.489   2.399   8.178  0.3443  0.5656  0.8044
  287MOL0     O38641   8.453   2.483   8.077  0.1694  0.1485 -0.2983
  287MOL0     C38642   8.529   2.476   7.961  0.0133 -0.2812 -0.2279
  287MOL0     C38643   8.641   2.557   7.958  0.2419 -0.8594  0.8442
  287MOL0     C38644   8.708   2.566   7.841 -0.0910  0.2938 -0.4957
  287MOL0     C38645   8.679   2.479   7.739 -0.2208 -0.2730  0.2818
  287MOL0     O38646   8.741   2.482   7.622 -0.1207 -0.0857  0.2429
  287MOL0     C38647   8.853   2.577   7.602  0.2282  0.0341  0.1816
  287MOL0     C38648   8.871   2.580   7.454  0.0317  0.2094 -0.2972
  287MOL0     C38649   8.978   2.685   7.414 -0.4367 -1.2944  1.0278
  287MOL0     C38650   9.022   2.659   7.269 -0.2017 -0.6006  1.5892
  287MOL0     C38651   9.105   2.777   7.212 -0.5120 -0.6948  0.8441
  287MOL0     C38652   9.254   2.737   7.227 -0.2970  0.2678 -0.1415
  287MOL0     C38653   9.354   2.843   7.184  1.0971 -0.3728  0.0405
  287MOL0     C38654   9.500   2.783   7.198  0.5086 -0.1418  0.0159
  287MOL0    Cl38655   9.607   2.867   7.087  0.2481 -0.2887  0.3016
  287MOL0     C38656   8.568   2.398   7.742  0.0128 -0.7813 -0.6422
  287MOL0     C38657   8.483   2.414   7.847  0.0893  0.5164  0.1339
  287MOL0     O38658   8.558   2.300   8.156 -0.7380 -0.4808 -0.6639
  287MOL0     C38659   8.510   2.380   8.428 -0.8614  0.4088 -0.2687
  287MOL0     C38660   8.475   2.426   8.557 -0.5346 -0.2523  0.1423
  287MOL0     N38661   8.575   2.780   9.229  0.3909 -0.1887 -0.9581
  287MOL0     N38662   8.537   2.858   9.331 -0.1932 -0.2615 -0.3543
  287MOL0     C38663   7.789   2.077   9.748  0.5296 -0.1522  0.8598
  287MOL0     C38664   7.687   1.980   9.761  0.8141  0.5319  0.1312
  287MOL0     C38665   7.513   1.628   9.922 -0.5733 -0.5440  0.1611
  287MOL0     C38666   7.519   1.571  10.047 -0.2782 -0.1435 -1.8065
  287MOL0     C38667   7.402   1.489  10.089 -0.0166 -0.3406 -0.0880
  287MOL0     C38668   7.298   1.456   9.999 -0.0905 -0.1269 -0.4812
  287MOL0     O38669   7.201   1.374  10.046 -0.0723  0.6898 -0.3037
  287MOL0     C38670   7.072   1.344   9.974 -1.2677  1.2887 -0.5540
  287MOL0     C38671   6.988   1.468   9.959 -0.5164  0.0552 -0.6500
  287MOL0     C38672   6.850   1.429   9.914  0.9781  0.3821  0.3967
  287MOL0     C38673   6.782   1.566   9.876  0.2005 -0.1511 -0.9844
  287MOL0     C38674   6.641   1.569   9.884  0.2168  0.1722 -0.3006
  287MOL0     C38675   6.520   1.575   9.872 -0.0670 -0.9306  0.0833
  287MOL0     C38676   7.306   1.505   9.868 -0.0697  0.2303  0.1205
  287MOL0     C38677   7.408   1.591   9.830 -0.5628 -1.0039  0.0616
  287MOL0     H38678   7.762   1.739   9.543 -2.2106 -1.1239  1.5513
  287MOL0     H38679   7.923   1.927   9.457  1.1995  2.3189 -0.5374
  287MOL0     H38680   7.938   2.357   9.534  1.9867 -0.9392 -1.3727
  287MOL0     H38681   7.889   2.304   9.706 -0.1074  1.1486 -0.8993
  287MOL0     H38682   8.084   2.262   9.787  0.3762  1.3957  2.1892
  287MOL0     H38683   8.165   2.272   9.631  0.9473 -1.6204  2.1884
  287MOL0     H38684   8.122   2.525   9.633 -4.3952 -0.4217 -0.8470
  287MOL0     H38685   8.024   2.531   9.759 -2.5775 -2.0866 -3.8393
  287MOL0     H38686   8.151   2.513   9.930 -0.7464  1.8660 -1.4877
  287MOL0     H38687   8.271   2.397   9.857 -2.6333 -2.0877 -1.4783
  287MOL0     H38688   8.246   2.713   9.814  2.7968  0.9241  0.6283
  287MOL0     H38689   8.363   2.627   9.909  1.8534  2.3527 -1.3919
  287MOL0     H38690   8.483   2.544   9.739 -0.0353 -0.0428  0.8950
  287MOL0     H38691   8.351   2.553   9.626  0.1138  0.2856  1.1719
  287MOL0     H38692   8.463   2.805   9.750 -0.0753  0.6143 -0.7656
  287MOL0     H38693   8.573   2.718   9.638  0.4177 -1.7779 -0.8073
  287MOL0     H38694   8.451   2.922   9.545  0.8233 -0.7456  3.2764
  287MOL0     H38695   8.301   2.825   9.534 -0.9970  3.9606  2.3074
  287MOL0     H38696   8.406   2.548   9.384 -4.8861  1.9193 -0.9908
  287MOL0     H38697   8.646   2.537   9.101  0.0518  4.5440 -0.3606
  287MOL0     H38698   8.500   2.447   9.149 -4.1477  1.4592 -3.2130
  287MOL0     H38699   8.516   2.686   8.955 -0.3015  0.8993  0.9644
  287MOL0     H38700   8.367   2.616   9.027  0.4781 -0.3865 -0.5367
  287MOL0     H38701   8.456   2.391   8.949 -0.0002 -0.7863 -1.0870
  287MOL0     H38702   8.563   2.487   8.831  0.4573 -0.5947  0.4733
  287MOL0     H38703   8.267   2.498   8.858  1.0885  3.2173  0.8568
  287MOL0     H38704   8.331   2.368   8.768 -1.5961 -0.3261  2.0591
  287MOL0     H38705   8.222   2.630   8.476  1.4340  1.3540  0.7782
  287MOL0     H38706   8.160   2.641   8.259 -0.5777 -0.0892 -3.2987
  287MOL0     H38707   8.297   2.676   8.186  1.6197  0.3866  2.2067
  287MOL0     H38708   8.229   2.509   8.161 -0.2548 -0.6636 -0.2099
  287MOL0     H38709   8.686   2.604   8.045  0.3397 -2.8202  1.8983
  287MOL0     H38710   8.792   2.634   7.830  1.0016 -1.1091 -1.3284
  287MOL0     H38711   8.830   2.680   7.630 -0.2863  1.0643 -3.5719
  287MOL0     H38712   8.945   2.540   7.650  0.1307 -3.9636 -2.2258
  287MOL0     H38713   8.898   2.478   7.428 -2.0025 -0.3612 -0.3459
  287MOL0     H38714   8.779   2.616   7.407  0.1208  1.5344  0.4711
  287MOL0     H38715   9.066   2.681   7.478  0.0862 -0.7465  0.3586
  287MOL0     H38716   8.941   2.788   7.416  0.3631 -0.9712 -0.0066
  287MOL0     H38717   9.086   2.571   7.262  1.2557  0.4714  0.7395
  287MOL0     H38718   8.933   2.638   7.208  0.1929  1.0687  0.3528
  287MOL0     H38719   9.094   2.875   7.259  0.8614 -1.0987  2.0954
  287MOL0     H38720   9.083   2.808   7.109  1.0442  1.8694  1.1953
  287MOL0     H38721   9.267   2.719   7.334  1.5391 -0.1178 -0.4012
  287MOL0     H38722   9.271   2.644   7.172  2.1993  1.7391 -2.0557
  287MOL0     H38723   9.335   2.931   7.246  0.3825 -0.6054  0.1698
  287MOL0     H38724   9.339   2.876   7.080  0.7006 -0.4228  0.0787
  287MOL0     H38725   9.483   2.679   7.169 -0.2545 -1.0439  3.2003
  287MOL0     H38726   9.536   2.792   7.301  2.0615  1.6750 -0.6276
  287MOL0     H38727   8.545   2.334   7.657 -3.6471 -2.5078  1.4268
  287MOL0     H38728   8.393   2.354   7.849  1.0519 -0.9764  0.4048
  287MOL0     H38729   8.600   2.321   8.410  1.3483  2.4022  3.0610
  287MOL0     H38730   8.533   2.381   8.637  0.2841  1.0994  0.3506
  287MOL0     H38731   7.780   2.169   9.805 -2.0644 -0.6039  1.3112
  287MOL0     H38732   7.604   1.996   9.830 -1.2109  1.6804 -2.3825
  287MOL0     H38733   7.599   1.589  10.118 -1.4707 -1.9044  0.0864
  287MOL0     H38734   7.388   1.459  10.192 -0.8969  3.5612  1.0786
  287MOL0     H38735   7.087   1.289   9.881  2.7111 -1.5737  1.4927
  287MOL0     H38736   7.026   1.280  10.049  1.4893  2.1505  2.0819
  287MOL0     H38737   7.033   1.512   9.870 -0.1865 -0.4598 -0.7437
  287MOL0     H38738   6.986   1.530  10.050  3.7764  0.5677 -0.6946
  287MOL0     H38739   6.786   1.393   9.995 -0.4407  1.3199 -0.2629
  287MOL0     H38740   6.847   1.349   9.840  2.7158 -3.5211  4.1098
  287MOL0     H38741   6.821   1.597   9.778  1.0180  0.4783 -0.4782
  287MOL0     H38742   6.828   1.636   9.947  0.1854 -2.3810  1.3959
  287MOL0     H38743   6.421   1.606   9.845  0.7474  1.4905 -0.3765
  287MOL0     H38744   7.241   1.479   9.785 -0.0013  3.9096 -1.3039
  287MOL0     H38745   7.394   1.650   9.740  0.1836  0.6308  0.9667
  288MOL0     O38746   3.981   9.694   6.170  0.1351  0.2588  0.0508
  288MOL0     C38747   4.103   9.707   6.188 -0.2949  1.0621 -0.0442
  288MOL0     O38748   4.194   9.601   6.173  0.0153  0.0661  0.2060
  288MOL0     C38749   4.149   9.474   6.147  0.6465 -0.1862 -0.2302
  288MOL0     C38750   4.173   9.423   6.026 -0.5350  0.0656 -0.3074
  288MOL0     C38751   4.139   9.292   6.005 -0.0657 -0.7220 -0.3581
  288MOL0     C38752   4.069   9.215   6.100  0.6417  0.5002 -0.0261
  288MOL0     O38753   4.051   9.091   6.054  0.0187  0.1419  0.1480
  288MOL0     C38754   3.969   9.000   6.139 -1.1862  0.1261  0.5234
  288MOL0     C38755   3.823   8.990   6.079 -0.1155 -0.2885  0.0715
  288MOL0     C38756   3.744   9.121   6.092  0.7180 -0.2036 -0.1254
  288MOL0     C38757   3.594   9.086   6.076 -0.1468 -1.1089 -0.0778
  288MOL0     C38758   3.563   9.042   5.933 -0.1556  0.0716  0.3342
  288MOL0     C38759   3.460   9.123   5.854  0.2290 -1.5688  0.0340
  288MOL0     C38760   3.319   9.105   5.921  0.7964 -0.2754  0.4918
  288MOL0     C38761   3.200   9.181   5.854 -0.2054 -0.1639  0.0469
  288MOL0     N38762   3.062   9.177   5.922 -0.1043  0.3675 -0.1468
  288MOL0     C38763   2.939   9.229   5.878 -0.1097  0.6114 -0.3459
  288MOL0     C38764   2.849   9.222   5.977  0.2322 -0.6754 -0.7424
  288MOL0     C38765   2.722   9.287   5.967 -0.7585 -0.3985 -0.8638
  288MOL0     C38766   2.630   9.193   5.896  0.3874 -0.4394 -0.5747
  288MOL0     C38767   2.483   9.252   5.905  0.6717  0.7100 -0.2986
  288MOL0     C38768   2.386   9.203   5.807  0.7748 -0.9622  0.1978
  288MOL0     O38769   2.328   9.081   5.832  0.2480 -0.0109 -0.2341
  288MOL0     C38770   2.269   9.037   5.719  0.1217 -0.4071  0.5957
  288MOL0     C38771   2.326   8.924   5.666 -0.3578  0.4922  0.0754
  288MOL0     C38772   2.271   8.859   5.552  0.2884 -1.0797  0.4184
  288MOL0     C38773   2.340   8.737   5.494 -0.5760  0.2035 -0.5291
  288MOL0     C38774   2.169   8.923   5.481  0.9137 -0.8050 -0.1032
  288MOL0     C38775   2.107   8.882   5.346  0.0378 -0.1442 -0.3156
  288MOL0     O38776   2.088   8.757   5.327 -0.0199  0.4824  0.3203
  288MOL0     C38777   2.001   8.707   5.234 -0.1199  0.7593 -0.2545
  288MOL0     C38778   1.971   8.573   5.259 -0.3738  0.3829  0.5530
  288MOL0     C38779   1.895   8.489   5.168 -0.2259  0.2909  0.1465
  288MOL0     C38780   1.844   8.550   5.053  0.2714  0.2722  0.8812
  288MOL0     O38781   1.779   8.482   4.951  0.7159  0.5803 -0.0891
  288MOL0     C38782   1.819   8.347   4.924 -0.2357  0.2761  0.6132
  288MOL0     C38783   1.757   8.277   4.801  0.1050  0.5903  0.2394
  288MOL0     C38784   1.863   8.254   4.678  0.3686 -0.3366 -0.5183
  288MOL0     C38785   1.801   8.207   4.539  0.2267  0.2386 -1.0844
  288MOL0     C38786   1.694   8.105   4.561  0.0944 -0.0783  0.4132
  288MOL0     C38787   1.677   8.018   4.433  0.0813  0.0629  0.2987
  288MOL0     C38788   1.607   7.874   4.453 -0.6334 -0.6003  0.0528
  288MOL0     C38789   1.564   7.807   4.313  0.1326  0.2318  0.2022
  288MOL0    Cl38790   1.497   7.640   4.341  0.2239 -0.0842 -0.1192
  288MOL0     C38791   1.856   8.681   5.039 -0.3241  0.5678 -0.4846
  288MOL0     C38792   1.932   8.761   5.124  0.1806 -0.1449 -0.7894
  288MOL0     O38793   2.053   8.978   5.289  0.3513  0.1955  0.2057
  288MOL0     C38794   2.115   9.048   5.534  0.4687  0.8910  0.5588
  288MOL0     C38795   2.154   9.090   5.655 -0.0932  0.6120  0.5637
  288MOL0     N38796   2.917   9.155   6.076 -0.0849  0.7703 -0.0804
  288MOL0     N38797   3.033   9.114   6.042  0.0613  0.1745  0.6765
  288MOL0     C38798   4.041   9.263   6.226 -0.5516 -0.1345  0.2767
  288MOL0     C38799   4.092   9.395   6.248  1.5092 -0.6403  0.5679
  288MOL0     C38800   4.151   9.838   6.240  0.0251  1.0243  0.1986
  288MOL0     C38801   4.227   9.847   6.353 -0.1962 -0.5639 -0.4673
  288MOL0     C38802   4.282   9.967   6.397  0.9022  0.0451 -0.0880
  288MOL0     C38803   4.255  10.089   6.322  0.4592  0.4235  0.1688
  288MOL0     O38804   4.300  10.221   6.338  0.8492  0.6793 -0.6795
  288MOL0     C38805   4.398  10.242   6.453  0.3449  1.1762 -0.3764
  288MOL0     C38806   4.471  10.377   6.444  0.4071  0.6251 -0.4226
  288MOL0     C38807   4.574  10.381   6.331  0.0840  0.2818 -0.0845
  288MOL0     C38808   4.684  10.480   6.352 -0.7505 -0.2143  0.2013
  288MOL0     C38809   4.800  10.438   6.269  0.0508 -0.2138 -0.8145
  288MOL0     C38810   4.902  10.420   6.197  0.1066 -0.4229  0.7244
  288MOL0     C38811   4.155  10.075   6.222 -0.2708 -0.6864 -0.2248
  288MOL0     C38812   4.114   9.955   6.171 -1.5082  1.1704  0.6013
  288MOL0     H38813   4.236   9.473   5.953  2.6744 -2.0502  0.7863
  288MOL0     H38814   4.163   9.243   5.912  1.7328 -1.7577  0.5883
  288MOL0     H38815   4.007   8.898   6.124 -0.3264  0.3043  1.3950
  288MOL0     H38816   3.982   9.014   6.247 -1.4096  3.1316  0.2518
  288MOL0     H38817   3.828   8.953   5.976 -0.5323 -3.2611  1.0238
  288MOL0     H38818   3.771   8.912   6.136 -0.4050 -0.6349 -0.6603
  288MOL0     H38819   3.742   9.158   6.195 -4.2583  2.6762 -0.9260
  288MOL0     H38820   3.777   9.199   6.023  3.1266  1.2780  2.4800
  288MOL0     H38821   3.547   9.025   6.153  0.1083  0.2825  1.2342
  288MOL0     H38822   3.546   9.185   6.072  1.7314 -0.1295  0.4638
  288MOL0     H38823   3.652   9.045   5.868 -1.7237 -0.8319 -1.9845
  288MOL0     H38824   3.536   8.936   5.938  2.1060 -0.8229 -2.7419
  288MOL0     H38825   3.493   9.225   5.871 -1.3940 -1.0082 -0.0084
  288MOL0     H38826   3.457   9.096   5.748 -0.0108 -2.0796  0.1648
  288MOL0     H38827   3.295   8.999   5.932  1.5095 -0.4588  0.3128
  288MOL0     H38828   3.317   9.143   6.024 -2.1841 -1.8575  1.1521
  288MOL0     H38829   3.191   9.148   5.750 -3.8396  0.9285 -0.1389
  288MOL0     H38830   3.233   9.286   5.856  0.8316 -0.3853 -1.9385
  288MOL0     H38831   2.924   9.295   5.794  0.7711  4.4099  2.1982
  288MOL0     H38832   2.691   9.292   6.072  1.5979 -1.2817 -0.0471
  288MOL0     H38833   2.730   9.385   5.919 -0.3600 -0.6022 -1.2209
  288MOL0     H38834   2.618   9.093   5.937 -1.2718 -0.6624 -1.5307
  288MOL0     H38835   2.661   9.181   5.791 -1.8331  0.0759 -1.3309
  288MOL0     H38836   2.487   9.361   5.891  0.6107  1.0496  1.9923
  288MOL0     H38837   2.441   9.230   6.004  2.0283  0.0063  0.1438
  288MOL0     H38838   2.437   9.197   5.710  3.3919  0.5805  1.3838
  288MOL0     H38839   2.307   9.278   5.794  1.8147  0.3698  1.3396
  288MOL0     H38840   2.418   8.882   5.705  1.7078  1.9944 -2.8398
  288MOL0     H38841   2.446   8.764   5.493 -0.5003 -0.1005 -1.1429
  288MOL0     H38842   2.325   8.640   5.542  0.6328 -0.9088 -2.2621
  288MOL0     H38843   2.302   8.694   5.400 -0.1089 -0.4927 -0.4079
  288MOL0     H38844   2.018   8.544   5.353 -1.1939 -0.7931  0.6190
  288MOL0     H38845   1.888   8.383   5.191  0.5432  0.7246  2.6654
  288MOL0     H38846   1.927   8.357   4.918 -0.2106 -0.3626 -0.2787
  288MOL0     H38847   1.805   8.284   5.012 -0.4433 -0.6145 -0.0415
  288MOL0     H38848   1.729   8.179   4.840  2.8783 -0.7170 -0.7631
  288MOL0     H38849   1.677   8.339   4.761 -1.1353 -2.6623 -2.8919
  288MOL0     H38850   1.937   8.185   4.720  0.1811  1.1718  2.5930
  288MOL0     H38851   1.905   8.354   4.666 -0.0169 -0.2762 -1.3708
  288MOL0     H38852   1.760   8.294   4.487  1.5982  0.5153 -1.7550
  288MOL0     H38853   1.882   8.169   4.476  0.4671  0.9856 -1.2317
  288MOL0     H38854   1.598   8.143   4.598 -1.4505 -2.0507 -1.2867
  288MOL0     H38855   1.732   8.026   4.626  2.6153 -3.1407 -4.1468
  288MOL0     H38856   1.615   8.074   4.362  0.3071 -0.6724 -0.4968
  288MOL0     H38857   1.779   8.007   4.395  0.3109  0.2488  0.8509
  288MOL0     H38858   1.517   7.885   4.513 -1.3693 -1.3299 -0.8841
  288MOL0     H38859   1.677   7.808   4.505  2.0928  3.9873  2.8577
  288MOL0     H38860   1.643   7.802   4.237 -2.5053  0.0973 -2.7153
  288MOL0     H38861   1.479   7.867   4.282 -1.5297 -2.5553 -0.9768
  288MOL0     H38862   1.805   8.735   4.959 -1.2725  1.0003  0.3939
  288MOL0     H38863   1.948   8.865   5.097  1.2602  0.3865  1.7098
  288MOL0     H38864   2.030   9.098   5.489 -0.8320 -0.5052  1.3723
  288MOL0     H38865   2.105   9.181   5.690 -0.3869  0.5605  0.2804
  288MOL0     H38866   4.005   9.205   6.309  0.7219  0.4315  1.2650
  288MOL0     H38867   4.068   9.442   6.342 -0.2982 -0.3309 -0.0091
  288MOL0     H38868   4.253   9.759   6.410  0.5348  0.2518  0.5138
  288MOL0     H38869   4.338   9.970   6.490 -3.3464 -0.2070  2.7710
  288MOL0     H38870   4.347  10.224   6.548  1.7422 -0.9558  0.0256
  288MOL0     H38871   4.471  10.163   6.437 -0.6129  0.7212 -2.9302
  288MOL0     H38872   4.523  10.374   6.540 -0.4020  0.3841  0.0173
  288MOL0     H38873   4.400  10.460   6.451 -0.5774 -0.2978  1.6603
  288MOL0     H38874   4.511  10.417   6.249 -2.4671 -0.1993  1.5483
  288MOL0     H38875   4.607  10.279   6.309  1.6472  0.3225  1.7474
  288MOL0     H38876   4.717  10.480   6.456 -0.7448  3.1636  0.3013
  288MOL0     H38877   4.656  10.583   6.326  1.0532  0.3404  0.3362
  288MOL0     H38878   4.986  10.403   6.134  2.1149  0.4961  2.9980
  288MOL0     H38879   4.101  10.164   6.191  2.9468  1.4441 -0.2004
  288MOL0     H38880   4.048   9.948   6.085  0.6051 -0.3636 -0.9982
  289MOL0     O38881   0.955  10.019   0.319 -0.0992 -0.1956  0.1042
  289MOL0     C38882   0.907   9.964   0.220 -0.8949  0.1344  0.3193
  289MOL0     O38883   0.970   9.874   0.146 -0.1254 -0.0518  1.1257
  289MOL0     C38884   1.089   9.813   0.166 -0.5891  0.3501  0.4560
  289MOL0     C38885   1.118   9.709   0.081  0.3231  0.6682  1.0924
  289MOL0     C38886   1.249   9.650   0.068  0.8663 -0.5347  0.2221
  289MOL0     C38887   1.356   9.700   0.146 -0.3380 -0.1538 -0.4188
  289MOL0     O38888   1.486   9.653   0.117 -0.3166  0.7584 -0.9318
  289MOL0     C38889   1.585   9.751   0.110  0.5553  0.8544  0.3489
  289MOL0     C38890   1.687   9.715   0.216 -0.2340  0.4073 -0.5236
  289MOL0     C38891   1.813   9.812   0.223  0.0126 -0.9708  0.1841
  289MOL0     C38892   1.893   9.831   0.091  0.5070 -0.5812 -0.2454
  289MOL0     C38893   2.016   9.736   0.091  0.6502 -0.3538  0.0543
  289MOL0     C38894   2.104   9.769  -0.037  0.1320 -0.3103 -0.2420
  289MOL0     C38895   2.226   9.668  -0.054  0.6690  0.0585  0.2687
  289MOL0     C38896   2.258   9.639  -0.197  0.4911 -0.0645  0.5129
  289MOL0     N38897   2.360   9.537  -0.221  0.3374  0.0165 -0.2659
  289MOL0     C38898   2.488   9.575  -0.231 -0.5321 -0.0795 -0.0632
  289MOL0     C38899   2.553   9.459  -0.244  0.5048  0.4746 -0.2537
  289MOL0     C38900   2.698   9.453  -0.254 -1.0538  0.3422 -0.5126
  289MOL0     C38901   2.746   9.494  -0.398  0.0744  0.1754  0.4934
  289MOL0     C38902   2.895   9.492  -0.425 -0.3674 -0.6322 -0.6413
  289MOL0     C38903   2.971   9.513  -0.290  0.9651 -0.3842 -0.7981
  289MOL0     O38904   2.964   9.394  -0.210  0.2633 -0.0093  0.1144
  289MOL0     C38905   3.053   9.295  -0.254  0.1682 -0.6803 -0.1027
  289MOL0     C38906   3.191   9.310  -0.268  0.0617 -0.0548  0.2317
  289MOL0     C38907   3.273   9.193  -0.292  1.0633 -0.5493 -0.0264
  289MOL0     C38908   3.422   9.225  -0.303  0.4766  0.2649 -0.5550
  289MOL0     C38909   3.215   9.064  -0.306  0.6497  0.0990 -0.7475
  289MOL0     C38910   3.282   8.933  -0.334 -0.3861  0.7203 -0.5619
  289MOL0     O38911   3.413   8.924  -0.358  0.0209 -0.6147 -0.3743
  289MOL0     C38912   3.480   8.801  -0.390  0.4945 -0.5610 -0.3810
  289MOL0     C38913   3.461   8.746  -0.515 -0.5007  0.0462  0.3116
  289MOL0     C38914   3.544   8.633  -0.551 -0.5922  0.1759  0.9649
  289MOL0     C38915   3.644   8.580  -0.462  0.1920 -0.6438 -0.4008
  289MOL0     O38916   3.731   8.487  -0.511 -0.6862  0.0599 -0.2699
  289MOL0     C38917   3.679   8.355  -0.549  0.3314 -0.8588  0.5688
  289MOL0     C38918   3.788   8.256  -0.522 -0.8824 -0.4277 -0.5839
  289MOL0     C38919   3.788   8.212  -0.376 -0.2905  0.2388  0.6531
  289MOL0     C38920   3.907   8.113  -0.345  1.1383  0.0200 -0.0200
  289MOL0     C38921   4.041   8.171  -0.373 -0.0173  0.1764 -0.2666
  289MOL0     C38922   4.082   8.292  -0.285  0.3856  0.3830  0.6106
  289MOL0     C38923   4.064   8.284  -0.132 -0.0487  0.8831 -0.0126
  289MOL0     C38924   4.159   8.184  -0.063  0.2126 -0.1215  0.5290
  289MOL0    Cl38925   4.313   8.273  -0.068  0.1096 -0.5029 -0.0495
  289MOL0     C38926   3.643   8.635  -0.329 -0.1970  0.0980  0.2489
  289MOL0     C38927   3.563   8.739  -0.296 -0.3010  0.0941  0.4014
  289MOL0     O38928   3.212   8.828  -0.323 -0.0028 -0.3786 -0.1420
  289MOL0     C38929   3.070   9.057  -0.297  0.5151  0.3078 -0.1899
  289MOL0     C38930   2.996   9.171  -0.271  0.4882  0.4964  0.7679
  289MOL0     N38931   2.466   9.353  -0.217 -0.2480  0.1472  0.2935
  289MOL0     N38932   2.352   9.406  -0.192  0.5577 -0.4436  0.1019
  289MOL0     C38933   1.324   9.802   0.242 -0.1528  0.0413 -1.0098
  289MOL0     C38934   1.195   9.866   0.241 -0.5197  0.1872  0.2451
  289MOL0     C38935   0.772  10.006   0.178 -0.7511  0.4920 -0.3905
  289MOL0     C38936   0.735   9.999   0.045  0.6210 -0.2065 -0.6778
  289MOL0     C38937   0.610  10.052   0.013 -0.6062  0.9355  0.5448
  289MOL0     C38938   0.520  10.106   0.105  0.0386  0.4225 -0.5836
  289MOL0     O38939   0.394  10.151   0.073 -0.6189 -0.8789  0.2063
  289MOL0     C38940   0.384  10.293   0.033  0.8356  0.3846  0.4021
  289MOL0     C38941   0.408  10.302  -0.118 -0.0061 -0.9036 -0.6461
  289MOL0     C38942   0.320  10.201  -0.199  0.2964 -0.3684 -0.7623
  289MOL0     C38943   0.335  10.235  -0.342  1.0890  0.4915  0.1285
  289MOL0     C38944   0.221  10.188  -0.422 -0.2791 -1.3492  0.0004
  289MOL0     C38945   0.130  10.165  -0.490  0.8640  0.0749 -0.0666
  289MOL0     C38946   0.564  10.121   0.234 -0.2163  0.2773 -1.1812
  289MOL0     C38947   0.684  10.066   0.277  0.4579  0.0988 -0.4233
  289MOL0     H38948   1.040   9.668   0.018  1.3814 -0.0583  0.2190
  289MOL0     H38949   1.254   9.579  -0.014 -0.0341  1.1644 -1.4062
  289MOL0     H38950   1.627   9.744   0.009 -2.3955 -0.3649 -0.9097
  289MOL0     H38951   1.553   9.855   0.116 -1.0157  0.5783 -1.9707
  289MOL0     H38952   1.636   9.713   0.313  0.7526 -2.4822  0.0543
  289MOL0     H38953   1.717   9.615   0.184  1.7472  1.7002 -3.0631
  289MOL0     H38954   1.781   9.914   0.247 -0.3709 -0.0239 -3.6116
  289MOL0     H38955   1.878   9.775   0.302  0.8439 -0.1865 -0.1078
  289MOL0     H38956   1.835   9.829  -0.001 -0.8816  4.9320  0.1610
  289MOL0     H38957   1.932   9.934   0.090  0.5390 -0.5694 -2.4696
  289MOL0     H38958   2.082   9.760   0.175 -0.6453  2.0086  0.5009
  289MOL0     H38959   1.988   9.630   0.095  1.0006 -0.4222  0.9083
  289MOL0     H38960   2.034   9.759  -0.121 -0.9177  0.7779  0.4837
  289MOL0     H38961   2.144   9.870  -0.027 -0.4956 -0.2576  2.2365
  289MOL0     H38962   2.317   9.704  -0.004  1.7354 -2.0738 -0.0253
  289MOL0     H38963   2.205   9.571  -0.008  1.1760 -1.5313 -2.6316
  289MOL0     H38964   2.283   9.733  -0.247  2.4062 -0.2189  1.0813
  289MOL0     H38965   2.169   9.618  -0.257 -1.6689 -0.1152  3.5404
  289MOL0     H38966   2.530   9.674  -0.243 -2.9474  0.7547 -2.9765
  289MOL0     H38967   2.733   9.525  -0.180 -0.8565  1.2399 -1.4638
  289MOL0     H38968   2.722   9.348  -0.232  0.1578 -0.3986 -4.6073
  289MOL0     H38969   2.711   9.596  -0.416  0.7755  0.9092  2.8845
  289MOL0     H38970   2.684   9.435  -0.466 -0.3755  0.6366  0.4966
  289MOL0     H38971   2.920   9.578  -0.487  1.7720 -0.9356 -0.2990
  289MOL0     H38972   2.929   9.397  -0.467 -0.6578 -1.2125  0.4039
  289MOL0     H38973   2.920   9.590  -0.231 -1.4744 -0.5267 -2.5626
  289MOL0     H38974   3.075   9.548  -0.299  0.3571  1.4746 -0.9648
  289MOL0     H38975   3.234   9.408  -0.251 -1.0673  0.7402 -1.2407
  289MOL0     H38976   3.475   9.209  -0.208 -1.0088  1.2340  0.4836
  289MOL0     H38977   3.468   9.161  -0.378  1.2759 -0.4995  0.5518
  289MOL0     H38978   3.442   9.329  -0.333  2.9767 -0.0991 -0.4106
  289MOL0     H38979   3.376   8.790  -0.567  0.8387  1.8222 -0.4811
  289MOL0     H38980   3.525   8.605  -0.654  0.3381  0.5253  0.6969
  289MOL0     H38981   3.593   8.328  -0.487  0.1193  0.8506  1.0925
  289MOL0     H38982   3.648   8.361  -0.653  1.4410 -1.1673  0.2124
  289MOL0     H38983   3.768   8.170  -0.588 -1.2493 -1.0912  0.3672
  289MOL0     H38984   3.883   8.303  -0.548 -1.4009  0.9151 -0.1373
  289MOL0     H38985   3.694   8.158  -0.366  0.1223 -0.7362 -0.5054
  289MOL0     H38986   3.789   8.299  -0.310 -1.0512  0.1373  0.8057
  289MOL0     H38987   3.898   8.071  -0.244  0.8250 -0.8506 -0.3997
  289MOL0     H38988   3.879   8.029  -0.409  0.4209  0.2434 -0.0121
  289MOL0     H38989   4.054   8.204  -0.476  0.4100  1.3224  0.1401
  289MOL0     H38990   4.103   8.084  -0.349 -4.2042 -2.4426  2.5047
  289MOL0     H38991   4.183   8.327  -0.308  1.5655 -1.8375  2.0865
  289MOL0     H38992   4.009   8.369  -0.311 -1.5986 -1.6959 -0.3565
  289MOL0     H38993   3.961   8.259  -0.107 -0.1513 -1.2471 -2.2147
  289MOL0     H38994   4.076   8.388  -0.099 -0.4057  0.9543 -0.1015
  289MOL0     H38995   4.147   8.085  -0.106  1.1796 -0.0974  0.1852
  289MOL0     H38996   4.146   8.178   0.046 -0.1532  3.5936  0.8173
  289MOL0     H38997   3.710   8.585  -0.260  0.3642 -0.4077 -0.6397
  289MOL0     H38998   3.552   8.757  -0.190  1.4259  3.1414  0.1767
  289MOL0     H38999   3.025   8.959  -0.307  1.7029 -0.2661 -0.0588
  289MOL0     H39000   2.889   9.176  -0.257  0.1052  2.5312 -2.0781
  289MOL0     H39001   1.395   9.842   0.313 -2.4352  0.2514  1.3203
  289MOL0     H39002   1.166   9.942   0.313 -0.5515  0.0492  0.3783
  289MOL0     H39003   0.804   9.960  -0.029  0.5801  0.2118 -0.9407
  289MOL0     H39004   0.592  10.053  -0.094 -0.0358 -0.6942  0.4014
  289MOL0     H39005   0.282  10.322   0.062  1.0326 -0.3511  1.9230
  289MOL0     H39006   0.449  10.357   0.093 -3.6877  4.0975  2.0047
  289MOL0     H39007   0.510  10.273  -0.146 -0.0766 -0.3054 -1.5727
  289MOL0     H39008   0.385  10.399  -0.164 -2.6656 -2.6022 -3.2447
  289MOL0     H39009   0.214  10.217  -0.176  0.7365 -0.1852  1.3758
  289MOL0     H39010   0.356  10.099  -0.178  0.0167  0.1468  2.8109
  289MOL0     H39011   0.421  10.193  -0.394 -0.3992 -1.0066 -1.2055
  289MOL0     H39012   0.345  10.344  -0.349 -0.5086  0.8005  1.8323
  289MOL0     H39013   0.047  10.123  -0.543  0.3291  0.0689  0.7546
  289MOL0     H39014   0.491  10.163   0.303  0.0633 -0.6236 -0.3124
  289MOL0     H39015   0.705  10.087   0.381 -0.4017 -0.0225 -0.2161
  290MOL0     O39016   4.285  11.143   0.932  0.6440 -0.2533 -0.0111
  290MOL0     C39017   4.327  11.183   0.824 -0.2170  1.1559 -0.2645
  290MOL0     O39018   4.343  11.104   0.714 -0.1694  0.5160 -0.5428
  290MOL0     C39019   4.320  10.966   0.731 -0.4363  0.2896  0.7692
  290MOL0     C39020   4.368  10.888   0.836 -0.4716 -0.2916 -0.1826
  290MOL0     C39021   4.343  10.753   0.847  0.3229 -0.2821 -0.2733
  290MOL0     C39022   4.308  10.683   0.738 -0.3860  0.0968  0.1260
  290MOL0     O39023   4.285  10.549   0.746  0.4785  0.6986 -0.3537
  290MOL0     C39024   4.211  10.492   0.632  0.4996 -0.2244 -0.5644
  290MOL0     C39025   4.304  10.464   0.514 -0.4919 -0.2036  0.9631
  290MOL0     C39026   4.415  10.361   0.548 -0.3841  0.5695  0.9900
  290MOL0     C39027   4.503  10.320   0.423 -0.8997 -0.3110  0.5809
  290MOL0     C39028   4.630  10.233   0.462  0.2144  0.1123  0.1909
  290MOL0     C39029   4.610  10.113   0.549 -0.4750  0.7322 -0.2128
  290MOL0     C39030   4.739  10.035   0.565  0.7127 -0.5484 -0.0031
  290MOL0     C39031   4.743   9.949   0.692 -0.2871 -0.5854 -0.4434
  290MOL0     N39032   4.863   9.867   0.693 -0.1993  0.5432  0.4811
  290MOL0     C39033   4.856   9.729   0.701  0.0852 -0.0130  0.0676
  290MOL0     C39034   4.982   9.695   0.712 -0.8004  0.9119 -0.8974
  290MOL0     C39035   5.017   9.546   0.721  0.3254  0.2165  0.5476
  290MOL0     C39036   5.050   9.522   0.873  0.6793  0.6359 -0.3414
  290MOL0     C39037   4.921   9.513   0.961 -0.2436  0.4318  0.7616
  290MOL0     C39038   4.973   9.508   1.108 -0.9850  0.0604  0.0201
  290MOL0     O39039   5.035   9.634   1.139  0.0890 -0.6217  0.1501
  290MOL0     C39040   5.169   9.636   1.178  0.5022 -0.2048  0.4245
  290MOL0     C39041   5.222   9.549   1.271  0.5780  0.6485  0.5890
  290MOL0     C39042   5.345   9.557   1.315  0.1134  0.3962 -0.9809
  290MOL0     C39043   5.385   9.468   1.438 -1.0016  0.4926  0.2619
  290MOL0     C39044   5.437   9.639   1.246 -0.8546 -0.3348  0.6292
  290MOL0     C39045   5.591   9.627   1.254  0.6434 -0.1099 -0.2659
  290MOL0     O39046   5.669   9.681   1.153  0.6697 -0.7691 -0.4344
  290MOL0     C39047   5.808   9.684   1.181 -0.3424  0.3544 -0.7922
  290MOL0     C39048   5.861   9.794   1.251  0.6291  0.0859 -0.4151
  290MOL0     C39049   5.990   9.794   1.277 -0.5152 -0.3013 -0.9124
  290MOL0     C39050   6.073   9.687   1.251  0.5188 -0.1405  0.1038
  290MOL0     O39051   6.207   9.691   1.290 -0.6469  0.0953  0.1370
  290MOL0     C39052   6.279   9.579   1.352 -0.6708  0.0160 -0.7940
  290MOL0     C39053   6.376   9.642   1.451  0.4680 -0.4207  0.2675
  290MOL0     C39054   6.421   9.521   1.544  0.2504 -0.4249  0.0097
  290MOL0     C39055   6.555   9.547   1.621  0.4701  1.4836  0.4444
  290MOL0     C39056   6.589   9.417   1.710 -0.6251 -0.8883 -0.7920
  290MOL0     C39057   6.618   9.295   1.630 -0.7133  0.5758 -0.2691
  290MOL0     C39058   6.646   9.170   1.703  0.1213 -0.5603 -0.5962
  290MOL0     C39059   6.764   9.094   1.641 -0.0659  1.1603  0.1751
  290MOL0    Cl39060   6.730   9.017   1.492 -0.2201  0.1242 -0.2500
  290MOL0     C39061   6.026   9.579   1.178  0.4556 -0.8756  0.5027
  290MOL0     C39062   5.890   9.577   1.138 -0.0926  1.4179 -0.6085
  290MOL0     O39063   5.639   9.578   1.357 -0.5892  0.1793 -0.2353
  290MOL0     C39064   5.387   9.729   1.150 -0.3278  0.2893 -0.6570
  290MOL0     C39065   5.253   9.721   1.118 -0.3408 -1.1300 -0.4159
  290MOL0     N39066   5.066   9.806   0.727 -0.2302 -0.4871  0.0304
  290MOL0     N39067   4.993   9.903   0.696  0.4452 -0.9357  0.0459
  290MOL0     C39068   4.270  10.763   0.623 -0.4943  0.8972 -0.2076
  290MOL0     C39069   4.273  10.900   0.627 -0.6131  1.0172  0.7434
  290MOL0     C39070   4.351  11.332   0.818  0.3053  0.4766 -1.0947
  290MOL0     C39071   4.378  11.382   0.696  0.5242  0.5542  0.5489
  290MOL0     C39072   4.423  11.513   0.681 -0.5198  0.2771 -1.0480
  290MOL0     C39073   4.434  11.595   0.786 -0.2897  0.0048 -0.9276
  290MOL0     O39074   4.472  11.726   0.760 -0.6039  0.3387 -0.9390
  290MOL0     C39075   4.383  11.827   0.816 -0.2180  0.1174  0.1028
  290MOL0     C39076   4.237  11.805   0.779  0.3968 -0.0135  0.2333
  290MOL0     C39077   4.219  11.827   0.632 -0.1380  0.0157  0.0155
  290MOL0     C39078   4.067  11.811   0.603 -0.5211 -0.1795  0.5290
  290MOL0     C39079   3.991  11.930   0.630  0.1685 -1.5810 -0.5922
  290MOL0     C39080   3.918  12.033   0.655 -0.0657  0.6962  0.4815
  290MOL0     C39081   4.405  11.547   0.918 -0.2295 -0.4368 -0.2521
  290MOL0     C39082   4.358  11.416   0.935  1.0811  0.0309  0.3140
  290MOL0     H39083   4.407  10.939   0.923 -0.0440 -0.1677 -0.4433
  290MOL0     H39084   4.397  10.697   0.923  1.4378 -1.0091 -1.5653
  290MOL0     H39085   4.176  10.395   0.669 -1.3946 -0.3503 -2.5346
  290MOL0     H39086   4.123  10.552   0.610  0.2385 -1.2978 -2.6172
  290MOL0     H39087   4.242  10.422   0.433  0.6737 -0.0618 -0.0344
  290MOL0     H39088   4.348  10.549   0.461  2.0862 -0.5321  2.4274
  290MOL0     H39089   4.478  10.395   0.630 -0.7887 -0.3642  1.7142
  290MOL0     H39090   4.377  10.266   0.586  1.5185 -1.6739 -2.1961
  290MOL0     H39091   4.448  10.265   0.347 -4.3115  1.9474  1.2021
  290MOL0     H39092   4.533  10.405   0.360 -1.6990 -1.0864 -0.8872
  290MOL0     H39093   4.665  10.200   0.363 -2.0777  3.0998 -1.8093
  290MOL0     H39094   4.701  10.302   0.509  0.2372  0.8533 -0.9023
  290MOL0     H39095   4.570  10.146   0.646 -3.2277 -1.2005 -0.5926
  290MOL0     H39096   4.533  10.055   0.499  0.6162 -0.6945 -0.2899
  290MOL0     H39097   4.755   9.971   0.477 -0.1810 -1.1166  0.2352
  290MOL0     H39098   4.814  10.111   0.589 -1.0413  0.0463  4.5021
  290MOL0     H39099   4.652   9.889   0.693 -0.8061  0.1596 -1.0563
  290MOL0     H39100   4.726  10.020   0.773 -2.3322  0.0765 -1.3672
  290MOL0     H39101   4.764   9.674   0.687  1.5706 -3.1117  1.5293
  290MOL0     H39102   4.939   9.478   0.687  1.9335 -1.7899  0.6845
  290MOL0     H39103   5.102   9.524   0.655  0.3350  1.5614  0.0890
  290MOL0     H39104   5.119   9.600   0.907  1.9809  0.1851 -1.7905
  290MOL0     H39105   5.119   9.437   0.874 -0.5406 -0.3955 -1.1128
  290MOL0     H39106   4.864   9.425   0.930  0.6447 -0.5283  1.7613
  290MOL0     H39107   4.854   9.599   0.957 -0.2852  0.4377  1.4445
  290MOL0     H39108   5.040   9.423   1.117  0.8390  1.6243  2.1483
  290MOL0     H39109   4.891   9.494   1.179 -1.8355  2.2757 -0.4402
  290MOL0     H39110   5.160   9.474   1.319  0.8766 -1.2022 -1.7071
  290MOL0     H39111   5.316   9.392   1.475  1.5503 -1.6383  0.9262
  290MOL0     H39112   5.478   9.422   1.404 -0.2550  3.6253 -2.3729
  290MOL0     H39113   5.397   9.544   1.516  1.0282  1.7102 -1.1285
  290MOL0     H39114   5.794   9.871   1.288  0.2896  0.5327 -1.9190
  290MOL0     H39115   6.038   9.874   1.332  0.2025 -0.1103 -1.7980
  290MOL0     H39116   6.201   9.527   1.409 -0.0492 -1.9200 -1.6519
  290MOL0     H39117   6.334   9.509   1.289  0.2381 -0.3465  0.3743
  290MOL0     H39118   6.467   9.673   1.400  1.1036 -2.2984  0.1740
  290MOL0     H39119   6.326   9.719   1.509 -3.7332 -2.6641  0.0561
  290MOL0     H39120   6.450   9.431   1.488  0.5731  0.3190 -1.0425
  290MOL0     H39121   6.338   9.496   1.611  0.3963 -2.5901 -0.5248
  290MOL0     H39122   6.636   9.585   1.557  0.9150 -1.1855 -0.7086
  290MOL0     H39123   6.537   9.627   1.694  2.6102  3.2267 -0.8043
  290MOL0     H39124   6.501   9.407   1.775  0.8500 -0.3659  1.3993
  290MOL0     H39125   6.669   9.435   1.783 -0.8270 -0.7359 -0.6051
  290MOL0     H39126   6.541   9.273   1.556 -0.6496 -1.3024  0.1495
  290MOL0     H39127   6.709   9.316   1.572  0.4068 -3.5961 -0.3789
  290MOL0     H39128   6.554   9.112   1.700  0.7111 -1.5429 -0.3271
  290MOL0     H39129   6.682   9.184   1.806 -1.8280 -0.8558  0.1580
  290MOL0     H39130   6.797   9.016   1.710 -0.3303 -0.4307 -1.4183
  290MOL0     H39131   6.854   9.154   1.627  0.7365 -0.2336 -0.9130
  290MOL0     H39132   6.102   9.503   1.162  0.3031 -0.9364  0.0606
  290MOL0     H39133   5.853   9.492   1.082  2.8624  0.3877 -1.1442
  290MOL0     H39134   5.454   9.793   1.093 -0.9768  2.1241  0.5418
  290MOL0     H39135   5.211   9.791   1.047 -1.5453  1.6925  2.8501
  290MOL0     H39136   4.235  10.722   0.529  1.0206 -2.3411  0.4981
  290MOL0     H39137   4.230  10.942   0.537  0.0350  1.2370  0.5351
  290MOL0     H39138   4.354  11.330   0.604  1.9033 -1.0283  1.0331
  290MOL0     H39139   4.438  11.569   0.590  2.2319  3.0030  0.8890
  290MOL0     H39140   4.381  11.831   0.925  0.6090 -2.5156  0.2688
  290MOL0     H39141   4.414  11.923   0.773 -0.6411 -0.3764 -1.3600
  290MOL0     H39142   4.182  11.869   0.848 -0.8055 -1.1221  0.3504
  290MOL0     H39143   4.204  11.705   0.810  0.8678  0.0311  0.9075
  290MOL0     H39144   4.272  11.744   0.587 -0.3768 -1.4620  2.2950
  290MOL0     H39145   4.270  11.919   0.601  2.1704 -1.8945 -2.2215
  290MOL0     H39146   4.031  11.718   0.648 -2.2488 -0.8616 -2.0466
  290MOL0     H39147   4.058  11.805   0.494 -2.0495 -0.1624  0.6250
  290MOL0     H39148   3.857  12.111   0.696  0.3144  0.2446  1.9643
  290MOL0     H39149   4.430  11.603   1.007  0.4522  0.5847 -1.0587
  290MOL0     H39150   4.340  11.371   1.032 -0.2937 -2.1248 -0.8542
  291MOL0     O39151   4.271  10.007   2.745 -0.2378 -0.5655 -1.1265
  291MOL0     C39152   4.211  10.031   2.850  0.5051 -0.7767 -0.9783
  291MOL0     O39153   4.096  10.113   2.858  0.0737  0.4072  0.4244
  291MOL0     C39154   4.063  10.173   2.742 -0.0730  0.2058 -0.0484
  291MOL0     C39155   4.003  10.100   2.644  0.9786  0.6309  0.6763
  291MOL0     C39156   3.971  10.166   2.522 -0.4415 -0.1543  1.1230
  291MOL0     C39157   4.001  10.300   2.501  0.3896 -0.6633 -0.7984
  291MOL0     O39158   3.954  10.356   2.387 -1.1420  0.1431  0.2350
  291MOL0     C39159   4.033  10.446   2.320  0.2633  0.3467 -0.2898
  291MOL0     C39160   3.942  10.562   2.267  0.3828  0.7801  0.6950
  291MOL0     C39161   4.032  10.688   2.240 -0.1870 -0.0404 -0.2473
  291MOL0     C39162   3.939  10.786   2.175 -0.9694 -0.8787 -0.1199
  291MOL0     C39163   3.993  10.928   2.209  0.1199 -0.4100 -0.1408
  291MOL0     C39164   3.924  11.039   2.139  0.6340  0.4235 -0.3210
  291MOL0     C39165   3.773  11.032   2.117 -0.1129 -0.3691  1.3445
  291MOL0     C39166   3.697  11.069   2.248 -0.0900 -0.1577  0.1926
  291MOL0     N39167   3.706  11.218   2.258 -0.8217 -0.2036  0.2061
  291MOL0     C39168   3.642  11.311   2.176  0.1315 -0.3414 -0.8594
  291MOL0     C39169   3.685  11.430   2.233  1.0442 -0.0473  0.2405
  291MOL0     C39170   3.637  11.565   2.183  0.2486 -0.5268  0.2346
  291MOL0     C39171   3.751  11.657   2.153 -0.9468 -0.5032 -0.1881
  291MOL0     C39172   3.843  11.611   2.039 -0.2477  0.2401  0.3778
  291MOL0     C39173   3.946  11.717   1.993 -0.4855 -0.3708  0.6585
  291MOL0     O39174   4.018  11.772   2.107 -0.5059  0.2018  0.5383
  291MOL0     C39175   4.125  11.850   2.086  0.5488 -0.8517 -0.1444
  291MOL0     C39176   4.139  11.914   1.956  0.9410  0.3210  0.0224
  291MOL0     C39177   4.262  11.968   1.915 -0.0079  0.1509 -0.2320
  291MOL0     C39178   4.284  12.011   1.777  0.1562 -0.8984  0.4196
  291MOL0     C39179   4.365  11.981   2.015 -0.3388  1.1670  1.2519
  291MOL0     C39180   4.502  12.030   1.979  0.9706 -0.3020  0.1116
  291MOL0     O39181   4.602  11.964   2.047  0.1253  0.6919 -0.3059
  291MOL0     C39182   4.728  12.007   2.025  0.2334  0.3949  0.6482
  291MOL0     C39183   4.777  12.127   2.069 -0.3336 -0.2493 -0.3158
  291MOL0     C39184   4.898  12.180   2.019  0.5726  0.4785 -0.6660
  291MOL0     C39185   4.992  12.092   1.953  0.0372  0.2002  1.2195
  291MOL0     O39186   5.117  12.137   1.931  0.0673  0.1351  0.6219
  291MOL0     C39187   5.151  12.253   1.852  0.7983 -0.1926 -0.0824
  291MOL0     C39188   5.295  12.276   1.850 -0.0032  0.5199 -1.2311
  291MOL0     C39189   5.348  12.265   1.993  0.2075 -0.0415  0.2660
  291MOL0     C39190   5.496  12.283   1.988 -0.5642  0.3977  0.6387
  291MOL0     C39191   5.568  12.329   2.112  0.4288 -0.2376 -0.3912
  291MOL0     C39192   5.577  12.216   2.222 -0.2093 -0.6159  0.0511
  291MOL0     C39193   5.644  12.081   2.184 -0.0853  0.5705  0.2102
  291MOL0     C39194   5.788  12.080   2.127 -0.5234 -0.4973 -0.1328
  291MOL0    Cl39195   5.800  11.930   2.040  0.0182  0.3380  0.1699
  291MOL0     C39196   4.947  11.959   1.928  0.0801 -0.7977 -0.4002
  291MOL0     C39197   4.818  11.918   1.953 -0.1441 -0.4720  0.2953
  291MOL0     O39198   4.513  12.121   1.904 -0.2251 -0.0967  0.6494
  291MOL0     C39199   4.345  11.928   2.146  0.5684  0.3859  0.1633
  291MOL0     C39200   4.220  11.865   2.179  0.3109 -0.8934  0.0855
  291MOL0     N39201   3.773  11.409   2.339 -0.5615 -0.4601  0.4406
  291MOL0     N39202   3.786  11.286   2.347 -0.1156  0.6457  0.4948
  291MOL0     C39203   4.054  10.372   2.603 -0.1958 -0.1088  0.1725
  291MOL0     C39204   4.080  10.315   2.722 -0.6265  0.0964 -1.2856
  291MOL0     C39205   4.238   9.960   2.974 -0.4261  1.1457  0.1875
  291MOL0     C39206   4.358   9.880   2.988  0.9438 -0.0762  0.2170
  291MOL0     C39207   4.382   9.810   3.105 -1.1317 -0.0011  0.7330
  291MOL0     C39208   4.298   9.816   3.218  1.3720 -0.4267 -0.3015
  291MOL0     O39209   4.314   9.749   3.331 -0.2522 -0.9410  0.1058
  291MOL0     C39210   4.441   9.696   3.357 -0.9322 -0.6632 -0.9369
  291MOL0     C39211   4.453   9.686   3.504 -0.4585  0.9625 -0.3790
  291MOL0     C39212   4.600   9.689   3.557  0.0226  0.5454  0.0099
  291MOL0     C39213   4.666   9.823   3.576  0.6123 -0.2826 -0.5072
  291MOL0     C39214   4.705   9.887   3.450  0.2800 -0.7693  0.4578
  291MOL0     C39215   4.728   9.948   3.346 -0.2080 -0.6598 -0.5936
  291MOL0     C39216   4.181   9.893   3.194 -0.7449 -0.7118 -0.1473
  291MOL0     C39217   4.156   9.966   3.079 -0.2125 -0.1687 -0.3515
  291MOL0     H39218   3.962  10.000   2.636 -3.4780  2.2668 -0.0109
  291MOL0     H39219   3.939  10.120   2.429  1.8413 -0.2281  0.3367
  291MOL0     H39220   4.094  10.513   2.381 -1.2463  4.0818 -2.5417
  291MOL0     H39221   4.094  10.401   2.241  0.5663 -0.0102  0.1436
  291MOL0     H39222   3.919  10.523   2.167  1.6022 -0.0781  0.7251
  291MOL0     H39223   3.860  10.601   2.328 -1.3093  2.0631 -2.1344
  291MOL0     H39224   4.081  10.735   2.325 -0.2782 -3.2244  1.6999
  291MOL0     H39225   4.108  10.660   2.167  0.9556  2.2820 -0.0541
  291MOL0     H39226   3.930  10.757   2.070  1.9267 -3.5132  0.2196
  291MOL0     H39227   3.842  10.784   2.226 -0.3517 -0.9260  1.0851
  291MOL0     H39228   3.985  10.933   2.318 -1.7075  0.6660 -0.2985
  291MOL0     H39229   4.097  10.936   2.174 -0.4802 -0.0505 -1.9350
  291MOL0     H39230   3.951  11.132   2.189  2.5274 -0.7817  1.0745
  291MOL0     H39231   3.970  11.031   2.040 -0.8103  0.3506 -1.0081
  291MOL0     H39232   3.749  11.104   2.038 -2.5492  0.1862  2.4980
  291MOL0     H39233   3.763  10.929   2.082  3.8268 -1.1223  1.9487
  291MOL0     H39234   3.755  11.023   2.328 -1.1598 -0.3999  0.8534
  291MOL0     H39235   3.592  11.040   2.246 -1.2184  3.3533 -2.5289
  291MOL0     H39236   3.593  11.282   2.084  1.1244 -4.5346 -0.2790
  291MOL0     H39237   3.572  11.548   2.097 -0.1200 -2.5637  0.8712
  291MOL0     H39238   3.582  11.614   2.263 -0.7202  3.9920 -2.8218
  291MOL0     H39239   3.823  11.666   2.234  4.1932 -1.0894 -4.1660
  291MOL0     H39240   3.716  11.758   2.129 -1.9426 -0.3183  1.8704
  291MOL0     H39241   3.782  11.588   1.950 -0.2729  2.1659 -0.1551
  291MOL0     H39242   3.907  11.528   2.070  2.6491  2.4952  0.9121
  291MOL0     H39243   3.899  11.804   1.947  0.3738  1.8390  3.6472
  291MOL0     H39244   4.017  11.663   1.930 -2.1643 -1.2740 -0.5337
  291MOL0     H39245   4.070  11.906   1.872  0.3964  0.5573  0.4396
  291MOL0     H39246   4.361  11.947   1.731  0.4054 -0.3777  0.0998
  291MOL0     H39247   4.201  11.997   1.706  2.0720  1.5753 -2.5969
  291MOL0     H39248   4.323  12.113   1.771  3.4483 -1.9435  1.9234
  291MOL0     H39249   4.717  12.182   2.140 -1.7996 -3.0916  0.8167
  291MOL0     H39250   4.931  12.282   2.036  2.1647 -0.0536 -0.4179
  291MOL0     H39251   5.128  12.222   1.749 -4.0389  2.6425 -0.1476
  291MOL0     H39252   5.096  12.344   1.876 -0.1121 -0.9565  0.8525
  291MOL0     H39253   5.355  12.205   1.791 -1.0040 -1.6617  0.2795
  291MOL0     H39254   5.315  12.376   1.808 -0.8619  0.8633 -0.8474
  291MOL0     H39255   5.323  12.175   2.050  1.5208  0.2343  1.3144
  291MOL0     H39256   5.308  12.347   2.053 -1.9447  1.3938 -2.8104
  291MOL0     H39257   5.538  12.201   1.931  0.3805  0.8474  0.6720
  291MOL0     H39258   5.510  12.374   1.929 -0.1408  0.9866  1.6200
  291MOL0     H39259   5.528  12.420   2.156 -2.0101 -2.1018  1.5681
  291MOL0     H39260   5.670  12.345   2.076  1.9878 -2.8125  2.2964
  291MOL0     H39261   5.624  12.263   2.309  0.0822 -0.7963 -0.0092
  291MOL0     H39262   5.472  12.191   2.241 -0.8496  3.1129  2.6841
  291MOL0     H39263   5.577  12.039   2.109  0.0442 -1.4860  1.1651
  291MOL0     H39264   5.644  12.017   2.274  0.6623 -0.6023 -0.5893
  291MOL0     H39265   5.854  12.077   2.215 -0.1391  0.8871 -0.3623
  291MOL0     H39266   5.812  12.171   2.071  1.0585 -1.7571 -1.6081
  291MOL0     H39267   5.005  11.887   1.870 -0.0264 -0.2390 -1.2218
  291MOL0     H39268   4.784  11.828   1.903 -1.5304  0.4546 -0.4784
  291MOL0     H39269   4.424  11.935   2.220  0.3961 -2.5100  0.7411
  291MOL0     H39270   4.215  11.793   2.260  0.2432  1.2661  2.1208
  291MOL0     H39271   4.048  10.480   2.593 -2.2145 -0.1358  0.5590
  291MOL0     H39272   4.113  10.375   2.806 -0.7591 -1.9860  0.3235
  291MOL0     H39273   4.419   9.860   2.901 -0.8525 -1.7086 -0.7130
  291MOL0     H39274   4.476   9.756   3.107 -1.0984 -0.4663 -3.7459
  291MOL0     H39275   4.455   9.604   3.301  2.0891  1.0013 -3.2214
  291MOL0     H39276   4.517   9.768   3.325  0.4698 -1.8297 -0.3438
  291MOL0     H39277   4.418   9.589   3.539  0.6140  0.6798 -0.0343
  291MOL0     H39278   4.397   9.766   3.554 -0.5106 -0.7852  2.5648
  291MOL0     H39279   4.662   9.629   3.490 -0.8839 -0.1519 -0.2178
  291MOL0     H39280   4.598   9.642   3.656  0.0097  2.0354  0.7525
  291MOL0     H39281   4.754   9.811   3.639  2.2834 -0.2524 -2.7333
  291MOL0     H39282   4.599   9.894   3.627 -1.1789 -0.5628 -2.3027
  291MOL0     H39283   4.748  10.013   3.263 -0.4519  0.6322  0.3508
  291MOL0     H39284   4.104   9.882   3.270 -1.1079  4.1204  0.5121
  291MOL0     H39285   4.068  10.029   3.078  0.7219  1.1608 -1.5312
  292MOL0     O39286   0.852   0.495   9.619 -0.3274  1.2700 -0.3395
  292MOL0     C39287   0.776   0.589   9.610 -0.4640  0.0443 -1.0398
  292MOL0     O39288   0.696   0.620   9.500  0.7166 -0.1153  0.1545
  292MOL0     C39289   0.735   0.554   9.381  0.4168 -0.0516 -0.5730
  292MOL0     C39290   0.831   0.612   9.295 -0.8908  1.0422 -0.1444
  292MOL0     C39291   0.844   0.568   9.159 -0.4958 -0.0866 -0.8113
  292MOL0     C39292   0.760   0.471   9.120  0.0799 -0.9334 -0.3250
  292MOL0     O39293   0.765   0.455   8.985 -0.9274  0.0231  0.5099
  292MOL0     C39294   0.638   0.441   8.917  1.6674 -0.3849  0.0045
  292MOL0     C39295   0.663   0.411   8.775  0.4298  0.4251 -0.4832
  292MOL0     C39296   0.541   0.375   8.696 -0.2410  0.3112 -1.0551
  292MOL0     C39297   0.563   0.385   8.548 -1.3403 -0.8755  0.5214
  292MOL0     C39298   0.433   0.374   8.469  0.7257  0.8242 -0.6766
  292MOL0     C39299   0.416   0.224   8.448 -0.5717  0.1778  0.2159
  292MOL0     C39300   0.273   0.203   8.380 -0.3873  0.4005 -0.5386
  292MOL0     C39301   0.276   0.221   8.225  0.2688 -0.2494  0.9168
  292MOL0     N39302   0.166   0.145   8.152  0.8695 -0.0657 -0.2306
  292MOL0     C39303   0.049   0.207   8.110  0.0208 -0.2796  0.1723
  292MOL0     C39304   0.004   0.140   8.006  0.9520  0.9430 -1.1277
  292MOL0     C39305  -0.106   0.188   7.919 -0.3560 -0.0107 -0.0128
  292MOL0     C39306  -0.211   0.075   7.908  0.7201 -0.5456 -0.1771
  292MOL0     C39307  -0.336   0.128   7.835  0.4191 -0.4992 -0.1672
  292MOL0     C39308  -0.459   0.033   7.826  0.3987  0.1433  0.6966
  292MOL0     O39309  -0.507  -0.012   7.955  0.1118 -0.0058  0.2831
  292MOL0     C39310  -0.645  -0.042   7.971 -0.5900 -0.5767  0.3361
  292MOL0     C39311  -0.721  -0.105   7.871  0.7508 -0.9346 -0.0284
  292MOL0     C39312  -0.853  -0.128   7.884  0.7220 -0.7108 -0.5003
  292MOL0     C39313  -0.925  -0.178   7.768  0.1948 -0.4476  0.7613
  292MOL0     C39314  -0.911  -0.108   8.010  0.2936  0.1085 -0.0774
  292MOL0     C39315  -1.056  -0.127   8.021  0.3301 -0.5017  0.0296
  292MOL0     O39316  -1.154  -0.025   8.035 -0.7840 -0.0025  0.3180
  292MOL0     C39317  -1.111   0.107   8.039 -0.2949  0.8821  0.3682
  292MOL0     C39318  -1.092   0.184   7.924  0.7199  0.4307  0.1815
  292MOL0     C39319  -1.049   0.315   7.926 -0.0120 -0.3096 -0.4302
  292MOL0     C39320  -1.044   0.375   8.043 -0.6793  0.6828 -1.1592
  292MOL0     O39321  -1.003   0.506   8.034  0.2707 -0.1046 -1.3830
  292MOL0     C39322  -1.041   0.612   8.128 -0.8327  0.9864  0.2634
  292MOL0     C39323  -1.119   0.721   8.066  0.3550  0.0344 -0.5933
  292MOL0     C39324  -1.032   0.839   8.022  0.4095  0.6594  0.6505
  292MOL0     C39325  -1.118   0.958   7.977  0.1293 -0.8313 -0.1646
  292MOL0     C39326  -1.049   1.065   7.881  0.2698 -0.4266  0.9922
  292MOL0     C39327  -0.920   1.124   7.954  1.2788  0.1310 -0.0466
  292MOL0     C39328  -0.858   1.240   7.876  0.0366 -0.1448  1.0776
  292MOL0     C39329  -0.808   1.190   7.736  0.3463  0.5198 -0.2171
  292MOL0    Cl39330  -0.794   1.322   7.614  0.0638 -0.7183  0.1412
  292MOL0     C39331  -1.058   0.302   8.170 -0.4675 -0.3347 -0.1263
  292MOL0     C39332  -1.082   0.167   8.159  0.7061  0.1687  0.8978
  292MOL0     O39333  -1.085  -0.249   8.018 -0.2877 -0.8105 -0.0769
  292MOL0     C39334  -0.840  -0.058   8.121  0.2847 -0.0825 -0.8644
  292MOL0     C39335  -0.706  -0.022   8.102  0.3817 -0.4481 -0.2696
  292MOL0     N39336   0.092   0.030   7.983  0.3331 -0.3584 -0.9805
  292MOL0     N39337   0.182   0.035   8.084  0.8780  0.2215 -0.3606
  292MOL0     C39338   0.668   0.407   9.206 -0.4574 -0.0856 -0.0722
  292MOL0     C39339   0.654   0.448   9.334 -0.9517  0.2670  0.1422
  292MOL0     C39340   0.769   0.705   9.708 -0.3400  0.1713 -0.9048
  292MOL0     C39341   0.701   0.825   9.684  0.0592  0.0576  0.5548
  292MOL0     C39342   0.704   0.927   9.783 -0.0107  0.5399 -0.6829
  292MOL0     C39343   0.781   0.916   9.901  0.0257 -0.4455  0.1101
  292MOL0     O39344   0.785   1.018  10.003 -0.1551 -0.0889  0.4340
  292MOL0     C39345   0.753   1.162   9.963 -0.1268  0.7357 -0.1313
  292MOL0     C39346   0.838   1.232   9.858 -0.1568 -0.1631  0.0642
  292MOL0     C39347   0.986   1.207   9.898  1.0382  0.5014 -1.0051
  292MOL0     C39348   1.080   1.323   9.861  0.1980 -0.4956  0.1519
  292MOL0     C39349   1.213   1.295   9.914  1.0490  0.7860 -0.0904
  292MOL0     C39350   1.318   1.272   9.964 -0.0060 -0.2753  0.3929
  292MOL0     C39351   0.848   0.793   9.926  0.0751  0.2274  0.1807
  292MOL0     C39352   0.846   0.694   9.829 -0.3684 -1.4431 -0.5411
  292MOL0     H39353   0.880   0.700   9.336  0.7174  0.9167 -1.6647
  292MOL0     H39354   0.916   0.619   9.097  0.0127  0.6758  0.3562
  292MOL0     H39355   0.574   0.365   8.963  0.7218  1.8307  2.6182
  292MOL0     H39356   0.583   0.535   8.923  2.1944  0.0849 -1.9237
  292MOL0     H39357   0.696   0.508   8.735 -4.3922  2.4769 -0.1510
  292MOL0     H39358   0.735   0.329   8.763  0.4435  0.7696 -3.7116
  292MOL0     H39359   0.496   0.276   8.707 -3.9201  1.7737 -1.4846
  292MOL0     H39360   0.461   0.438   8.735 -0.2848 -0.3948  0.0223
  292MOL0     H39361   0.602   0.485   8.528 -0.9010 -0.6799  2.2082
  292MOL0     H39362   0.632   0.308   8.513 -1.4009 -0.8896  0.4304
  292MOL0     H39363   0.343   0.423   8.506  0.3459 -1.2394  1.3352
  292MOL0     H39364   0.455   0.425   8.375  2.0445  0.7537 -0.4329
  292MOL0     H39365   0.491   0.177   8.384  1.1892 -1.1988  3.1054
  292MOL0     H39366   0.429   0.180   8.547  1.9774 -0.0343 -0.1409
  292MOL0     H39367   0.258   0.099   8.411 -1.0357  1.3807  2.7924
  292MOL0     H39368   0.193   0.271   8.411  0.8540  1.4451  0.4649
  292MOL0     H39369   0.372   0.180   8.190 -0.4438  0.5740 -2.4110
  292MOL0     H39370   0.281   0.327   8.198  2.0988 -0.7854 -1.2007
  292MOL0     H39371   0.019   0.310   8.131 -1.1946 -0.1211 -2.0588
  292MOL0     H39372  -0.141   0.282   7.963  0.0600  0.4811 -0.7193
  292MOL0     H39373  -0.055   0.204   7.824  2.0366 -0.9392  1.0214
  292MOL0     H39374  -0.251   0.036   8.002 -1.6233 -0.3778 -1.0228
  292MOL0     H39375  -0.194  -0.013   7.846 -3.2271 -1.4105 -0.3217
  292MOL0     H39376  -0.325   0.167   7.733 -0.2621  1.9823  0.6286
  292MOL0     H39377  -0.346   0.222   7.890  4.9346 -1.9491  3.8208
  292MOL0     H39378  -0.449  -0.062   7.772 -1.4357  1.1693 -1.6582
  292MOL0     H39379  -0.533   0.087   7.766 -2.3108 -2.5873  1.3402
  292MOL0     H39380  -0.663  -0.127   7.782  4.0815 -1.6880  2.1603
  292MOL0     H39381  -1.023  -0.129   7.761 -0.3970 -1.1943  3.0583
  292MOL0     H39382  -0.867  -0.167   7.675 -0.8247  2.1380  0.3213
  292MOL0     H39383  -0.959  -0.281   7.771  0.0932 -0.4346  0.1867
  292MOL0     H39384  -1.095   0.132   7.829  2.4593  0.7367 -0.0735
  292MOL0     H39385  -1.021   0.365   7.833  1.6527 -0.6539 -0.1510
  292MOL0     H39386  -1.095   0.586   8.219  0.3866  0.3066  0.8209
  292MOL0     H39387  -0.952   0.651   8.179  0.1357 -1.8433  0.9185
  292MOL0     H39388  -1.188   0.684   7.989 -0.7841  1.6588 -0.4080
  292MOL0     H39389  -1.179   0.759   8.149  2.8729  1.9287  0.4724
  292MOL0     H39390  -0.960   0.805   7.947  0.9914  1.9333  0.5947
  292MOL0     H39391  -0.971   0.886   8.100 -1.3544  4.7908 -0.1960
  292MOL0     H39392  -1.207   0.927   7.922  0.1196  1.1338 -1.3531
  292MOL0     H39393  -1.153   1.006   8.070  1.7322 -0.2522  0.1720
  292MOL0     H39394  -1.125   1.136   7.848 -0.4995 -1.7873 -0.2566
  292MOL0     H39395  -1.022   1.006   7.794 -5.3651 -2.0134 -0.1050
  292MOL0     H39396  -0.957   1.170   8.046 -3.8369 -2.2110 -0.6016
  292MOL0     H39397  -0.850   1.043   7.980 -1.3506 -1.6898  1.8515
  292MOL0     H39398  -0.777   1.285   7.932 -1.0186 -1.1088  3.5249
  292MOL0     H39399  -0.929   1.321   7.856  3.5132  2.5733 -1.4837
  292MOL0     H39400  -0.868   1.115   7.683  0.3616 -0.4138  1.0450
  292MOL0     H39401  -0.712   1.141   7.754 -1.0155 -3.9572 -3.2889
  292MOL0     H39402  -1.055   0.357   8.264 -0.6481 -1.5581  0.6109
  292MOL0     H39403  -1.079   0.107   8.249  4.3255  2.3218  2.4391
  292MOL0     H39404  -0.873  -0.041   8.223 -0.2545  1.2081 -1.2360
  292MOL0     H39405  -0.640   0.001   8.185  2.7179 -3.6569 -1.0527
  292MOL0     H39406   0.598   0.341   9.156  0.5578  0.7174 -2.6835
  292MOL0     H39407   0.577   0.408   9.398 -1.7502  0.4698 -0.6617
  292MOL0     H39408   0.641   0.841   9.594  0.9559  0.1787 -0.0273
  292MOL0     H39409   0.649   1.017   9.757 -0.0938  0.8077  0.3728
  292MOL0     H39410   0.649   1.171   9.930  0.0614  3.9926 -0.1714
  292MOL0     H39411   0.766   1.235  10.043 -1.4523  0.7366  0.1032
  292MOL0     H39412   0.804   1.335   9.851 -2.5217 -0.9102 -0.1781
  292MOL0     H39413   0.819   1.172   9.768 -0.8424  1.0803 -0.6379
  292MOL0     H39414   1.018   1.117   9.844  0.9247  0.0847 -0.3802
  292MOL0     H39415   0.981   1.184  10.004 -0.3091  1.8694 -0.7446
  292MOL0     H39416   1.032   1.411   9.903 -1.3179  0.0345 -2.4712
  292MOL0     H39417   1.087   1.339   9.753  0.5619 -1.0820  0.0825
  292MOL0     H39418   1.414   1.267  10.011  0.1064  1.4211  0.4020
  292MOL0     H39419   0.908   0.764  10.012  0.9621  1.2389 -0.0823
  292MOL0     H39420   0.914   0.611   9.847  2.3263  1.1210  2.0511
  293MOL0     O39421   8.994   5.049   9.637  0.6306  0.1000  0.4433
  293MOL0     C39422   9.031   5.131   9.727  0.0939  0.0274  0.2194
  293MOL0     O39423   9.045   5.100   9.866 -0.0756 -1.1089  0.4246
  293MOL0     C39424   9.045   4.967   9.897  0.0582 -0.1903  0.1070
  293MOL0     C39425   8.923   4.905   9.940 -0.0409 -0.0475  0.7743
  293MOL0     C39426   8.931   4.781   9.995 -0.0115  0.3172 -1.2700
  293MOL0     C39427   9.053   4.722  10.029 -0.2215 -0.2070  0.3175
  293MOL0     O39428   9.069   4.604  10.095 -0.0450  0.4756  0.0829
  293MOL0     C39429   8.963   4.539  10.168 -0.0685 -0.2252 -0.1483
  293MOL0     C39430   8.934   4.599  10.309  0.3924 -0.1411  0.3247
  293MOL0     C39431   8.859   4.726  10.308  0.1496 -0.2081 -0.5071
  293MOL0     C39432   8.839   4.770  10.457  0.3180 -0.5533  0.0342
  293MOL0     C39433   8.744   4.889  10.472  0.5776  0.2590  0.4492
  293MOL0     C39434   8.704   4.918  10.622 -1.1601 -0.0049 -0.1871
  293MOL0     C39435   8.561   4.880  10.671 -0.2824  0.1174 -0.7825
  293MOL0     C39436   8.536   4.904  10.820 -0.3209 -0.0088 -1.1516
  293MOL0     N39437   8.411   4.842  10.854  0.4006  0.3950  0.5964
  293MOL0     C39438   8.285   4.877  10.823  0.8322 -0.1512 -0.0051
  293MOL0     C39439   8.198   4.780  10.861  0.2027  0.8504 -0.5059
  293MOL0     C39440   8.047   4.781  10.847 -0.2108  0.2040 -0.9519
  293MOL0     C39441   8.008   4.748  10.708 -0.1098 -1.3226  0.0779
  293MOL0     C39442   7.856   4.761  10.696  0.1688 -0.5135 -0.0973
  293MOL0     C39443   7.825   4.793  10.549 -0.7407  0.2020  0.2729
  293MOL0     O39444   7.713   4.723  10.511  0.7259 -0.5744 -0.6491
  293MOL0     C39445   7.655   4.764  10.398  0.0717  0.0048  0.1444
  293MOL0     C39446   7.522   4.755  10.381 -1.2012  0.7674 -0.2667
  293MOL0     C39447   7.454   4.802  10.277  0.2573 -0.7085  0.1159
  293MOL0     C39448   7.298   4.770  10.272 -0.6986 -0.1324 -0.0489
  293MOL0     C39449   7.517   4.877  10.180 -0.4862  0.4893  0.3059
  293MOL0     C39450   7.453   4.926  10.053  0.3351  0.0033  0.1476
  293MOL0     O39451   7.534   5.012   9.979  0.2929  0.6260  0.4200
  293MOL0     C39452   7.466   5.066   9.874 -0.4621  0.4201 -0.8293
  293MOL0     C39453   7.491   5.015   9.747 -0.2760 -0.7958  0.3442
  293MOL0     C39454   7.405   5.062   9.648 -0.0436  0.3659  0.4670
  293MOL0     C39455   7.321   5.179   9.661 -0.1252 -0.4186 -0.7628
  293MOL0     O39456   7.289   5.234   9.542 -0.7338  0.6023 -0.6789
  293MOL0     C39457   7.166   5.296   9.519 -1.1483  0.1623  0.1342
  293MOL0     C39458   7.165   5.372   9.386  0.0545  0.0769 -0.5131
  293MOL0     C39459   7.241   5.495   9.391 -1.1235  0.0124  0.1815
  293MOL0     C39460   7.189   5.623   9.465  0.5182 -0.0806 -0.1175
  293MOL0     C39461   7.293   5.737   9.436  0.0971  0.1002 -0.2834
  293MOL0     C39462   7.241   5.868   9.513 -0.1592 -0.1298 -0.5594
  293MOL0     C39463   7.099   5.915   9.470 -0.8314 -0.8338  0.0378
  293MOL0     C39464   7.048   6.043   9.538 -0.0855 -0.0450 -0.6052
  293MOL0    Cl39465   7.052   6.047   9.718  0.2276 -0.0935  0.0558
  293MOL0     C39466   7.298   5.235   9.783  0.6574 -0.2185 -0.6021
  293MOL0     C39467   7.365   5.179   9.899 -0.4005  0.5632  0.2453
  293MOL0     O39468   7.342   4.888  10.013  0.0526 -0.9427 -0.4603
  293MOL0     C39469   7.659   4.903  10.190 -0.3888 -0.1774  1.2059
  293MOL0     C39470   7.722   4.848  10.305 -0.4151 -0.2609  0.1820
  293MOL0     N39471   8.280   4.681  10.924 -0.5078  0.5484 -0.8301
  293MOL0     N39472   8.398   4.725  10.918 -0.8132 -0.8255  0.2961
  293MOL0     C39473   9.167   4.771   9.975  0.1330  0.4816 -0.2744
  293MOL0     C39474   9.166   4.892   9.909  0.5271 -0.4844 -0.5587
  293MOL0     C39475   9.034   5.272   9.680  0.1908  0.1424 -0.7427
  293MOL0     C39476   9.046   5.379   9.776  0.3767  0.4139 -0.5452
  293MOL0     C39477   9.024   5.513   9.738  0.5488 -0.4260  0.1444
  293MOL0     C39478   9.001   5.548   9.606 -0.8084 -0.7984  0.6100
  293MOL0     O39479   8.976   5.676   9.567  0.0539  0.0569  0.0601
  293MOL0     C39480   9.089   5.760   9.552 -0.4813 -0.4215 -0.1234
  293MOL0     C39481   9.082   5.861   9.439  0.0666 -0.3929  0.5888
  293MOL0     C39482   9.084   5.786   9.305  1.2539 -0.2253 -0.4191
  293MOL0     C39483   9.086   5.899   9.188 -0.2460 -0.3050 -0.1108
  293MOL0     C39484   8.972   5.992   9.190  0.6051  1.0603  0.2498
  293MOL0     C39485   8.866   6.053   9.182  0.3501 -1.2127  0.5697
  293MOL0     C39486   9.005   5.445   9.517  0.5799 -0.1167  0.6032
  293MOL0     C39487   9.016   5.310   9.547 -0.5310  0.4883 -0.0185
  293MOL0     H39488   8.826   4.952   9.931  0.8349  2.4076  2.9850
  293MOL0     H39489   8.835   4.739  10.022 -0.0324  0.2544 -1.4354
  293MOL0     H39490   8.876   4.535  10.102  0.8452  0.6465 -1.4618
  293MOL0     H39491   8.991   4.433  10.173  0.3578 -0.1500 -0.7548
  293MOL0     H39492   8.870   4.523  10.354  0.3896 -0.4183 -0.1392
  293MOL0     H39493   9.029   4.608  10.363  0.5503  2.7713 -0.2416
  293MOL0     H39494   8.908   4.803  10.249 -1.8445  1.6233  0.0833
  293MOL0     H39495   8.753   4.708  10.288 -0.7245  2.1739  1.4284
  293MOL0     H39496   8.805   4.689  10.522  1.7693 -2.8499 -1.8971
  293MOL0     H39497   8.941   4.791  10.488  0.2300 -2.4746  1.8447
  293MOL0     H39498   8.781   4.984  10.432 -3.0421  1.0115 -1.5250
  293MOL0     H39499   8.651   4.874  10.418 -2.1275 -3.6237  5.3335
  293MOL0     H39500   8.772   4.867  10.691 -1.2327  1.5360  1.0822
  293MOL0     H39501   8.725   5.025  10.640 -2.7605  0.2181  0.4928
  293MOL0     H39502   8.504   4.941  10.600  0.8100  2.2143  0.0469
  293MOL0     H39503   8.545   4.774  10.652 -0.2104  0.2537 -1.6656
  293MOL0     H39504   8.533   5.011  10.842 -0.5609 -0.2097 -0.1752
  293MOL0     H39505   8.607   4.849  10.882 -2.5434 -0.6456  1.0168
  293MOL0     H39506   8.253   4.970  10.776 -1.2732 -0.0195  1.5371
  293MOL0     H39507   8.011   4.708  10.920 -0.6127 -0.2162 -1.5593
  293MOL0     H39508   8.020   4.884  10.872 -3.5487 -0.3604 -1.7084
  293MOL0     H39509   8.035   4.645  10.680 -0.1919 -0.9203 -1.6029
  293MOL0     H39510   8.070   4.812  10.645  0.7441 -1.8972  0.3202
  293MOL0     H39511   7.827   4.845  10.759  2.1073 -0.5254  0.8713
  293MOL0     H39512   7.798   4.677  10.737  0.5217 -0.0361  1.4538
  293MOL0     H39513   7.909   4.762  10.486  1.3659  4.7574  0.4530
  293MOL0     H39514   7.810   4.901  10.549 -1.6523  0.1074  2.1038
  293MOL0     H39515   7.471   4.698  10.458 -2.0526  1.6498 -0.1549
  293MOL0     H39516   7.237   4.859  10.253  0.3964  0.1079 -2.9402
  293MOL0     H39517   7.271   4.700  10.192  0.5598 -1.3747  0.5743
  293MOL0     H39518   7.258   4.735  10.368 -2.7738  2.0143 -0.0306
  293MOL0     H39519   7.563   4.937   9.724  2.2090  1.3653  0.3154
  293MOL0     H39520   7.416   5.019   9.549  3.2387 -0.0949  0.9231
  293MOL0     H39521   7.082   5.225   9.512  0.4225 -1.6184 -2.4612
  293MOL0     H39522   7.140   5.369   9.596  1.8984  1.7403 -0.1885
  293MOL0     H39523   7.197   5.305   9.306  2.4218 -3.2571  2.9060
  293MOL0     H39524   7.062   5.400   9.362  0.5008  0.2326 -2.4073
  293MOL0     H39525   7.274   5.521   9.290  0.4125 -3.6236 -0.3853
  293MOL0     H39526   7.344   5.473   9.419 -0.8215  0.2727 -0.6663
  293MOL0     H39527   7.088   5.634   9.424 -0.4296 -2.1544  1.5009
  293MOL0     H39528   7.178   5.598   9.571 -0.2605 -0.1720 -0.2156
  293MOL0     H39529   7.295   5.766   9.330 -0.3953  0.3868 -0.2188
  293MOL0     H39530   7.394   5.705   9.464 -0.5845 -4.0072 -1.7485
  293MOL0     H39531   7.241   5.846   9.621 -2.9116 -0.7305 -0.6110
  293MOL0     H39532   7.322   5.936   9.485  1.5992 -1.9553 -0.1893
  293MOL0     H39533   7.025   5.836   9.479 -0.4425 -1.2071 -0.0107
  293MOL0     H39534   7.097   5.947   9.366 -2.4458  0.3528  0.3990
  293MOL0     H39535   6.948   6.061   9.499  0.5621 -0.4364 -2.5361
  293MOL0     H39536   7.116   6.120   9.501 -2.6236  1.9950 -1.3058
  293MOL0     H39537   7.249   5.331   9.801  2.4547  0.3946  1.4480
  293MOL0     H39538   7.357   5.226   9.996  1.0388 -0.0969  0.7075
  293MOL0     H39539   7.716   4.962  10.118 -3.1217 -1.0180 -1.8735
  293MOL0     H39540   7.827   4.877  10.308 -0.6356  0.6084 -0.1159
  293MOL0     H39541   9.257   4.713   9.992  2.6291  3.7229 -1.3364
  293MOL0     H39542   9.249   4.953   9.873 -1.3142  2.6919  0.1298
  293MOL0     H39543   9.067   5.351   9.879  3.1760 -2.2000 -1.6666
  293MOL0     H39544   9.028   5.601   9.802  2.0646  1.0735 -1.8739
  293MOL0     H39545   9.098   5.823   9.641  0.6999 -2.2322  1.1093
  293MOL0     H39546   9.183   5.707   9.536  0.0577  1.1905 -3.0411
  293MOL0     H39547   9.167   5.927   9.459  1.4359 -2.6040  2.5336
  293MOL0     H39548   8.989   5.918   9.450  1.1262  1.3137  1.1373
  293MOL0     H39549   8.997   5.722   9.292 -0.8667  2.0651  1.4752
  293MOL0     H39550   9.171   5.720   9.306  4.1181  3.1642 -1.6471
  293MOL0     H39551   9.083   5.846   9.093 -2.6713 -1.3256  0.4585
  293MOL0     H39552   9.179   5.955   9.203  0.3979 -1.3629  0.0215
  293MOL0     H39553   8.785   6.123   9.179  0.6662 -0.8442  0.4375
  293MOL0     H39554   8.976   5.467   9.415 -0.4072  3.2749  1.5059
  293MOL0     H39555   9.028   5.237   9.468  2.0220  0.6001  0.1748
  294MOL0     O39556   7.857   3.414   2.641 -0.3337 -0.0794  0.3709
  294MOL0     C39557   7.738   3.408   2.638  0.4962  0.3064  0.3159
  294MOL0     O39558   7.655   3.495   2.559  0.0921  0.9035  0.7830
  294MOL0     C39559   7.717   3.583   2.470 -0.1059  0.6963 -0.7416
  294MOL0     C39560   7.767   3.705   2.523  0.2506  0.5419  0.0672
  294MOL0     C39561   7.831   3.780   2.430 -1.6469 -0.4142 -0.8449
  294MOL0     C39562   7.850   3.748   2.296  0.2434  0.5994 -0.4068
  294MOL0     O39563   7.924   3.836   2.213  0.8048  0.2998  0.1146
  294MOL0     C39564   7.899   3.832   2.073  0.1331 -1.1314  0.5303
  294MOL0     C39565   7.930   3.969   2.016  0.7365  0.4309  1.1116
  294MOL0     C39566   8.068   4.022   2.052 -0.1638  0.7993 -0.4407
  294MOL0     C39567   8.193   3.948   1.995 -0.7279 -1.1925  0.1330
  294MOL0     C39568   8.308   4.045   1.982  1.1975  0.1496 -0.8451
  294MOL0     C39569   8.335   4.114   2.116  0.3354 -0.7021 -0.6757
  294MOL0     C39570   8.471   4.180   2.115 -0.9556 -0.3156 -0.0668
  294MOL0     C39571   8.530   4.245   2.242  0.3105  0.2648 -1.3350
  294MOL0     N39572   8.449   4.355   2.293  0.4281 -0.2214 -0.1044
  294MOL0     C39573   8.349   4.348   2.386  0.3110 -0.2258 -0.3868
  294MOL0     C39574   8.327   4.470   2.436  0.5142 -0.0132 -0.1559
  294MOL0     C39575   8.246   4.519   2.551 -0.2217 -0.0275 -0.1243
  294MOL0     C39576   8.297   4.476   2.683 -0.4789 -0.9949 -0.5593
  294MOL0     C39577   8.422   4.556   2.742  0.2306  0.1685 -0.5144
  294MOL0     C39578   8.564   4.536   2.671 -0.2399 -0.9012  0.2607
  294MOL0     O39579   8.649   4.581   2.782 -0.3789  0.1728 -0.4053
  294MOL0     C39580   8.773   4.519   2.803 -1.4512 -0.1987 -0.7966
  294MOL0     C39581   8.844   4.436   2.725 -0.1141  0.1745  1.1293
  294MOL0     C39582   8.964   4.391   2.744  0.0943  0.0605 -0.0702
  294MOL0     C39583   9.032   4.313   2.632 -0.0192 -0.1922 -0.4664
  294MOL0     C39584   9.028   4.417   2.876 -0.3162 -0.4349  0.1662
  294MOL0     C39585   9.157   4.362   2.920 -0.5821 -0.5923 -0.4906
  294MOL0     O39586   9.211   4.413   3.036  0.0114 -0.4616 -0.9785
  294MOL0     C39587   9.344   4.414   3.073  1.0268  0.5397  0.0101
  294MOL0     C39588   9.375   4.509   3.171 -0.6675 -0.1928 -0.2289
  294MOL0     C39589   9.506   4.523   3.209 -0.6089  0.3873 -0.7426
  294MOL0     C39590   9.608   4.430   3.169 -0.0841  0.7096 -0.1383
  294MOL0     O39591   9.741   4.427   3.202  0.8759 -0.4115  0.2207
  294MOL0     C39592   9.795   4.492   3.320  0.8559 -0.0982  0.3806
  294MOL0     C39593   9.739   4.437   3.451 -0.1902 -0.6078  0.8429
  294MOL0     C39594   9.800   4.506   3.571  0.6689 -0.3137  0.0104
  294MOL0     C39595   9.747   4.645   3.585 -0.2767 -0.3425 -0.5542
  294MOL0     C39596   9.809   4.733   3.695  0.5706  0.3060  0.9764
  294MOL0     C39597   9.751   4.883   3.696 -1.0988  0.3078 -0.2186
  294MOL0     C39598   9.849   4.983   3.758 -0.3356 -0.8262  0.1506
  294MOL0     C39599   9.993   4.985   3.695  0.7845  0.0380  0.3135
  294MOL0    Cl39600   9.954   5.053   3.535  0.1378  0.3061 -0.0514
  294MOL0     C39601   9.573   4.338   3.068  0.3284 -0.3304 -0.5049
  294MOL0     C39602   9.446   4.334   3.019  0.0608 -0.3447 -0.7006
  294MOL0     O39603   9.217   4.288   2.840  0.2024  0.4018  0.4080
  294MOL0     C39604   8.951   4.501   2.970 -0.7473 -0.5495  0.1773
  294MOL0     C39605   8.826   4.540   2.922 -0.6011  0.4374 -0.2385
  294MOL0     N39606   8.401   4.554   2.348 -0.0332 -0.1328  0.7843
  294MOL0     N39607   8.468   4.488   2.258  0.3618 -0.5025  1.4453
  294MOL0     C39608   7.789   3.636   2.250  1.0039 -0.1275  0.6315
  294MOL0     C39609   7.717   3.559   2.338 -0.5120 -0.6656 -0.5857
  294MOL0     C39610   7.662   3.309   2.721 -1.0887  0.8636  0.3420
  294MOL0     C39611   7.725   3.245   2.832  0.0116  0.0488  0.0256
  294MOL0     C39612   7.650   3.160   2.921 -0.1514  0.4194  0.2147
  294MOL0     C39613   7.520   3.109   2.892 -0.1276 -0.7298  0.1905
  294MOL0     O39614   7.454   3.012   2.954 -0.9095 -0.4001  0.5135
  294MOL0     C39615   7.532   2.901   3.008  0.0590  0.6296  0.0859
  294MOL0     C39616   7.437   2.804   3.076 -0.1236  0.4721 -0.2978
  294MOL0     C39617   7.510   2.679   3.125 -0.1667  1.5883 -0.1804
  294MOL0     C39618   7.641   2.699   3.200 -0.2468 -0.7257  0.2356
  294MOL0     C39619   7.633   2.795   3.310  1.0850  0.1113  0.9228
  294MOL0     C39620   7.609   2.855   3.407 -0.7682 -0.2566  0.0669
  294MOL0     C39621   7.456   3.182   2.789  0.4701  0.2446 -0.5896
  294MOL0     C39622   7.529   3.272   2.708 -0.2044 -0.0921 -0.3079
  294MOL0     H39623   7.763   3.731   2.628  0.3734  5.4187 -0.9125
  294MOL0     H39624   7.891   3.864   2.464  0.1416  0.1851 -4.9386
  294MOL0     H39625   7.949   3.751   2.019 -2.0193 -3.8603  2.3353
  294MOL0     H39626   7.792   3.827   2.052  0.5843 -1.5874 -1.9609
  294MOL0     H39627   7.901   3.975   1.911  0.9877 -3.0248  0.7504
  294MOL0     H39628   7.863   4.033   2.074  1.0012 -1.6368  3.8971
  294MOL0     H39629   8.075   4.127   2.023  2.1151  0.7059 -0.4226
  294MOL0     H39630   8.073   4.013   2.161 -0.6557 -1.1701 -0.5392
  294MOL0     H39631   8.226   3.865   2.059 -1.0059  0.3535  2.3723
  294MOL0     H39632   8.157   3.899   1.904 -1.1551 -2.4256  0.9319
  294MOL0     H39633   8.402   3.998   1.950  0.9987 -0.6973 -0.2351
  294MOL0     H39634   8.290   4.117   1.902  1.2943 -2.3365 -3.2465
  294MOL0     H39635   8.256   4.189   2.125  1.7441  1.1575 -2.7984
  294MOL0     H39636   8.334   4.037   2.193 -3.6445 -0.4105 -0.2553
  294MOL0     H39637   8.539   4.098   2.090 -0.1387 -0.1269  1.4262
  294MOL0     H39638   8.486   4.251   2.033  0.8328 -0.8031 -0.2160
  294MOL0     H39639   8.631   4.283   2.221  2.2259 -0.5581  4.6070
  294MOL0     H39640   8.545   4.177   2.326 -1.7181  0.5444 -0.6810
  294MOL0     H39641   8.295   4.256   2.407 -4.5076  2.6955  1.5805
  294MOL0     H39642   8.244   4.628   2.547  1.3512 -0.0209 -1.7002
  294MOL0     H39643   8.141   4.489   2.544 -0.7619  0.5842  3.4839
  294MOL0     H39644   8.321   4.369   2.688 -0.0576 -0.8629  0.5506
  294MOL0     H39645   8.224   4.483   2.764  1.5531 -0.2482  1.3040
  294MOL0     H39646   8.425   4.524   2.847 -3.3428 -0.4699 -0.4864
  294MOL0     H39647   8.405   4.664   2.740 -2.6735 -0.2012  0.4890
  294MOL0     H39648   8.560   4.606   2.587 -0.0065 -0.2986  0.7458
  294MOL0     H39649   8.591   4.432   2.649 -2.4664 -1.7175  1.0312
  294MOL0     H39650   8.810   4.419   2.623 -0.1591  1.9146  0.8280
  294MOL0     H39651   9.048   4.210   2.665 -2.6125 -0.0605  1.5097
  294MOL0     H39652   8.975   4.310   2.539 -1.7768  2.2981  0.4255
  294MOL0     H39653   9.124   4.365   2.604 -0.0772  0.8278  1.1020
  294MOL0     H39654   9.301   4.577   3.213  0.0669 -1.2491  3.0291
  294MOL0     H39655   9.534   4.599   3.281  0.9073  1.0999 -2.0121
  294MOL0     H39656   9.899   4.462   3.337  0.4046 -2.5142 -0.6194
  294MOL0     H39657   9.773   4.597   3.299  0.6247  0.0049  1.1232
  294MOL0     H39658   9.630   4.450   3.453 -0.2470  0.1801 -2.3213
  294MOL0     H39659   9.768   4.332   3.452  0.9641 -0.3803 -1.7208
  294MOL0     H39660   9.909   4.516   3.570  0.4888  2.6600  0.4643
  294MOL0     H39661   9.767   4.451   3.659 -0.1459 -0.6895 -0.5148
  294MOL0     H39662   9.766   4.697   3.491 -1.6557  0.3565 -0.4711
  294MOL0     H39663   9.638   4.633   3.592 -0.3424  0.6529  0.5563
  294MOL0     H39664   9.915   4.723   3.668  1.5969  2.4803  3.7077
  294MOL0     H39665   9.791   4.674   3.786 -1.4240 -1.4759 -0.4916
  294MOL0     H39666   9.721   4.917   3.596 -1.3691  0.7281  0.0026
  294MOL0     H39667   9.662   4.878   3.759  0.2370 -2.1630  1.6239
  294MOL0     H39668   9.850   4.966   3.866  0.5835  3.3295  0.9963
  294MOL0     H39669   9.812   5.086   3.754  0.5487 -0.1581  4.1975
  294MOL0     H39670  10.042   4.888   3.697 -1.0074 -0.9194  1.9262
  294MOL0     H39671  10.047   5.056   3.759 -3.2900  1.2300  2.8304
  294MOL0     H39672   9.646   4.260   3.046  1.3838  0.8567 -1.3315
  294MOL0     H39673   9.432   4.273   2.931  0.4599  3.1662 -3.4380
  294MOL0     H39674   8.977   4.523   3.073  3.0799  1.0066 -0.9491
  294MOL0     H39675   8.771   4.603   2.991  1.3717  0.6621  1.1857
  294MOL0     H39676   7.799   3.607   2.146  2.1645  2.2361  0.0149
  294MOL0     H39677   7.680   3.473   2.282 -0.3027 -0.9258 -0.3315
  294MOL0     H39678   7.830   3.266   2.850 -0.0877  1.8200 -1.2512
  294MOL0     H39679   7.703   3.122   3.008  0.0186 -0.4856 -0.2731
  294MOL0     H39680   7.594   2.855   2.931 -1.0167  0.2117 -0.5644
  294MOL0     H39681   7.598   2.939   3.086  0.5738 -0.8486  0.4033
  294MOL0     H39682   7.358   2.773   3.007 -0.6469  0.6881  0.1952
  294MOL0     H39683   7.385   2.854   3.159  3.9838  2.1589  1.5428
  294MOL0     H39684   7.532   2.609   3.044 -1.1765 -2.1337  2.4551
  294MOL0     H39685   7.445   2.622   3.192  0.9459  0.7905  0.2497
  294MOL0     H39686   7.720   2.735   3.135 -1.9824  4.4347  0.5196
  294MOL0     H39687   7.679   2.602   3.235  0.0855 -0.5887  0.2558
  294MOL0     H39688   7.600   2.917   3.494  0.8077  0.6557 -0.3708
  294MOL0     H39689   7.355   3.151   2.762  0.5887 -1.2967  0.5543
  294MOL0     H39690   7.480   3.311   2.620  0.0074  2.7960  0.7511
  295MOL0     O39691   0.784   1.232   2.625  0.0977 -0.9071  0.0868
  295MOL0     C39692   0.753   1.130   2.567 -0.0128  1.2276 -0.2087
  295MOL0     O39693   0.634   1.095   2.518 -0.4452 -1.0707  0.0823
  295MOL0     C39694   0.537   1.189   2.539 -0.8311  1.0981  0.6850
  295MOL0     C39695   0.483   1.193   2.674  0.2744  0.0155  0.1818
  295MOL0     C39696   0.393   1.283   2.715 -0.8237 -0.3244  0.9902
  295MOL0     C39697   0.341   1.363   2.622 -0.0554  0.3199  0.6716
  295MOL0     O39698   0.224   1.446   2.654  0.3770 -0.0526  0.1662
  295MOL0     C39699   0.110   1.374   2.706 -0.2317 -0.1433  0.0100
  295MOL0     C39700  -0.009   1.462   2.676  0.1791 -0.5583 -0.6799
  295MOL0     C39701  -0.037   1.462   2.528 -0.1666 -0.7080 -0.4292
  295MOL0     C39702   0.024   1.575   2.451  0.0669 -1.2003  0.5677
  295MOL0     C39703  -0.033   1.598   2.309  0.1386  0.3696  0.0999
  295MOL0     C39704  -0.036   1.735   2.263  0.1300  0.0413 -0.4724
  295MOL0     C39705  -0.125   1.735   2.145 -0.0705  0.5140 -0.0365
  295MOL0     C39706  -0.096   1.856   2.056 -0.6979  0.0116 -0.0991
  295MOL0     N39707  -0.175   1.974   2.086  0.6082 -0.4216  0.2046
  295MOL0     C39708  -0.278   2.034   2.006  0.1104  0.1167  0.4459
  295MOL0     C39709  -0.296   2.153   2.065 -0.5601  0.0393 -0.2456
  295MOL0     C39710  -0.377   2.275   2.015  0.9823 -0.2229 -0.0418
  295MOL0     C39711  -0.536   2.269   2.039  0.8035 -0.0381  0.5043
  295MOL0     C39712  -0.573   2.311   2.177  0.3039 -0.7282  0.0488
  295MOL0     C39713  -0.718   2.301   2.219  0.7416  0.0090  0.2584
  295MOL0     O39714  -0.794   2.410   2.159 -0.0633  0.8875  0.2093
  295MOL0     C39715  -0.924   2.434   2.185  0.2734  0.0797  0.8060
  295MOL0     C39716  -0.974   2.567   2.181  0.3554 -0.1663 -0.2095
  295MOL0     C39717  -1.109   2.589   2.198 -0.0130 -0.8278  0.0800
  295MOL0     C39718  -1.156   2.739   2.189  0.2345  0.7050 -0.2191
  295MOL0     C39719  -1.202   2.488   2.221 -0.5024  0.3762  0.2293
  295MOL0     C39720  -1.345   2.491   2.227 -0.1183 -0.0752 -0.8910
  295MOL0     O39721  -1.419   2.386   2.283 -0.0528  0.3256  0.4490
  295MOL0     C39722  -1.554   2.398   2.308 -0.1639  0.4200  0.5730
  295MOL0     C39723  -1.647   2.434   2.207 -0.3419  0.8463 -0.2531
  295MOL0     C39724  -1.785   2.450   2.244 -0.8992  0.1437 -0.4372
  295MOL0     C39725  -1.837   2.446   2.372 -0.3846 -0.4406  0.1419
  295MOL0     O39726  -1.974   2.458   2.395  0.2459 -0.0339 -0.2562
  295MOL0     C39727  -2.017   2.451   2.532  0.3336  0.0309  0.5231
  295MOL0     C39728  -2.165   2.478   2.521 -0.0576 -1.2195  0.5741
  295MOL0     C39729  -2.209   2.501   2.664  0.4275 -0.2977  0.1316
  295MOL0     C39730  -2.369   2.516   2.665 -0.3056  0.5641  0.2967
  295MOL0     C39731  -2.402   2.489   2.805  0.0434  0.3915 -0.4600
  295MOL0     C39732  -2.562   2.512   2.806 -0.4504 -0.5906  0.0284
  295MOL0     C39733  -2.618   2.461   2.939 -0.1617 -0.0961 -0.5743
  295MOL0     C39734  -2.753   2.518   2.973 -0.3187  0.6156  0.0446
  295MOL0    Cl39735  -2.883   2.449   2.876 -0.2871 -0.2892 -0.1406
  295MOL0     C39736  -1.741   2.414   2.468  0.7713 -0.5310 -0.3916
  295MOL0     C39737  -1.604   2.381   2.442  0.5631  0.2843  0.5715
  295MOL0     O39738  -1.394   2.600   2.189  0.7666  0.1965  0.4101
  295MOL0     C39739  -1.141   2.361   2.250  1.2169  1.3187  0.3737
  295MOL0     C39740  -1.012   2.327   2.231 -1.1495 -0.5136 -0.6611
  295MOL0     N39741  -0.205   2.156   2.167  0.4705 -0.2994  0.4113
  295MOL0     N39742  -0.132   2.056   2.187 -0.1686  0.2697 -0.8958
  295MOL0     C39743   0.381   1.359   2.490  0.7171  0.1738  0.5044
  295MOL0     C39744   0.483   1.280   2.449 -1.3322  0.1443  0.4825
  295MOL0     C39745   0.857   1.024   2.555 -0.3214  0.2498 -0.0237
  295MOL0     C39746   0.828   0.902   2.488  0.0760 -0.5800  0.0383
  295MOL0     C39747   0.915   0.792   2.478  0.5733  0.7372  0.3618
  295MOL0     C39748   1.031   0.802   2.547  0.0998 -0.1156 -0.7629
  295MOL0     O39749   1.108   0.684   2.541  0.5714  0.0060 -0.7241
  295MOL0     C39750   1.253   0.697   2.556 -0.0894  0.4406 -0.2907
  295MOL0     C39751   1.313   0.771   2.445 -0.7298 -0.0272  0.9314
  295MOL0     C39752   1.465   0.791   2.461  0.4348  0.1165  0.1895
  295MOL0     C39753   1.548   0.663   2.413 -0.5154 -0.5450 -0.2318
  295MOL0     C39754   1.671   0.676   2.476 -0.9309 -1.8354 -0.3314
  295MOL0     C39755   1.760   0.701   2.553  0.4916  0.1660 -0.8293
  295MOL0     C39756   1.056   0.918   2.620  0.2325 -1.3186 -0.6653
  295MOL0     C39757   0.984   1.039   2.605  0.0542  0.5871 -0.0349
  295MOL0     H39758   0.519   1.122   2.747 -0.8347 -1.6602 -0.8289
  295MOL0     H39759   0.343   1.277   2.811  0.0525 -3.3679  1.3573
  295MOL0     H39760   0.113   1.274   2.663  1.9807 -0.0443 -0.1666
  295MOL0     H39761   0.119   1.354   2.813  0.7062  1.4652  0.2638
  295MOL0     H39762  -0.100   1.421   2.721 -0.0277  1.3891  0.8479
  295MOL0     H39763  -0.008   1.564   2.717  0.7338  0.8988 -3.9901
  295MOL0     H39764  -0.011   1.371   2.474  0.1743 -0.6785 -0.3219
  295MOL0     H39765  -0.146   1.471   2.521 -0.8910 -3.6607  3.6253
  295MOL0     H39766  -0.004   1.669   2.501 -2.5385 -2.6220  2.0279
  295MOL0     H39767   0.131   1.577   2.431 -0.4349  2.3894 -3.1018
  295MOL0     H39768   0.026   1.536   2.241 -1.1420 -0.6155 -0.1604
  295MOL0     H39769  -0.134   1.555   2.314  0.2690  0.0071 -0.3404
  295MOL0     H39770  -0.077   1.803   2.338 -0.5205  0.6071 -1.3174
  295MOL0     H39771   0.064   1.769   2.235  0.9946 -1.5574  0.5282
  295MOL0     H39772  -0.093   1.654   2.079  0.2252  3.4569 -3.7981
  295MOL0     H39773  -0.233   1.722   2.154  0.0991 -0.3835  1.0290
  295MOL0     H39774  -0.101   1.824   1.951  2.9234  0.0054 -0.3963
  295MOL0     H39775   0.010   1.881   2.064 -0.6117 -0.0892 -0.8282
  295MOL0     H39776  -0.345   1.997   1.929 -1.3642  2.8398  0.2761
  295MOL0     H39777  -0.338   2.358   2.074 -1.5648  1.3898 -0.4802
  295MOL0     H39778  -0.363   2.294   1.909  1.9324 -2.4676 -0.3744
  295MOL0     H39779  -0.574   2.169   2.018 -2.5687  1.0711  0.7398
  295MOL0     H39780  -0.570   2.338   1.962  0.8764  0.6348  1.0581
  295MOL0     H39781  -0.535   2.408   2.211 -0.4077 -0.7921  1.0494
  295MOL0     H39782  -0.524   2.243   2.247  2.9565  1.0225  0.0416
  295MOL0     H39783  -0.729   2.319   2.327 -0.3311 -1.3649  0.4033
  295MOL0     H39784  -0.765   2.205   2.195 -1.6160  0.2539  3.3089
  295MOL0     H39785  -0.908   2.649   2.153  3.1056 -2.5408 -1.1565
  295MOL0     H39786  -1.225   2.750   2.104  0.1060  0.4601 -0.1492
  295MOL0     H39787  -1.204   2.770   2.282 -0.6375 -0.0673 -0.3965
  295MOL0     H39788  -1.073   2.807   2.169 -0.1753  1.2459 -0.1174
  295MOL0     H39789  -1.606   2.441   2.107  1.0470 -1.2386  0.1140
  295MOL0     H39790  -1.859   2.462   2.165 -0.3576 -0.5157 -1.0697
  295MOL0     H39791  -2.003   2.354   2.581  0.4467  0.9825  2.4761
  295MOL0     H39792  -1.958   2.520   2.594  0.2504  0.2896  0.3151
  295MOL0     H39793  -2.175   2.573   2.469 -0.1725 -0.5269  1.8301
  295MOL0     H39794  -2.207   2.388   2.474  1.2410 -0.8236 -1.5053
  295MOL0     H39795  -2.166   2.596   2.694 -0.3705 -0.3142  1.3773
  295MOL0     H39796  -2.184   2.412   2.723 -3.3072 -1.9811 -0.4997
  295MOL0     H39797  -2.390   2.617   2.627  4.1934  0.6685 -2.8070
  295MOL0     H39798  -2.424   2.459   2.589  3.8877  1.3478 -3.8471
  295MOL0     H39799  -2.354   2.556   2.877  1.3273 -3.8276  3.0787
  295MOL0     H39800  -2.372   2.389   2.837  2.3477  0.4999 -2.0898
  295MOL0     H39801  -2.589   2.614   2.778 -1.5434 -0.6873  0.6670
  295MOL0     H39802  -2.611   2.452   2.729  0.7605 -1.8223  0.1763
  295MOL0     H39803  -2.546   2.466   3.021 -1.0231  0.2241  0.1883
  295MOL0     H39804  -2.631   2.354   2.920 -1.7242  0.2942 -2.0087
  295MOL0     H39805  -2.751   2.626   2.987  2.1206  0.3471  2.9599
  295MOL0     H39806  -2.767   2.481   3.075 -2.1579 -0.1002 -0.4343
  295MOL0     H39807  -1.773   2.400   2.570 -1.2935 -0.1173 -0.9384
  295MOL0     H39808  -1.545   2.355   2.529  0.1017  0.5227  0.9577
  295MOL0     H39809  -1.198   2.274   2.281 -0.3469 -0.1344 -5.3794
  295MOL0     H39810  -0.976   2.229   2.258 -2.2591 -0.9140 -0.5822
  295MOL0     H39811   0.340   1.428   2.417 -2.7695 -1.1234  1.0181
  295MOL0     H39812   0.538   1.292   2.356  1.6267  2.1307  2.3304
  295MOL0     H39813   0.734   0.883   2.439 -2.8421  1.2664  4.2621
  295MOL0     H39814   0.888   0.706   2.418  2.0586 -1.3363  2.4531
  295MOL0     H39815   1.275   0.757   2.644 -0.0948 -1.0469  0.7554
  295MOL0     H39816   1.297   0.598   2.571 -0.0093  0.5935  0.5365
  295MOL0     H39817   1.263   0.868   2.446 -1.4027 -0.3642  2.7533
  295MOL0     H39818   1.294   0.730   2.345 -2.3941 -1.7755  1.9108
  295MOL0     H39819   1.476   0.809   2.569 -3.2888  0.3906  0.6526
  295MOL0     H39820   1.499   0.884   2.415 -1.3360  0.0686 -1.3151
  295MOL0     H39821   1.561   0.662   2.304 -2.5378 -0.0290 -0.5201
  295MOL0     H39822   1.507   0.569   2.449  0.9637 -0.7053  1.1323
  295MOL0     H39823   1.843   0.711   2.619  0.4711 -1.8688 -0.4257
  295MOL0     H39824   1.129   0.912   2.700  1.4080 -1.6538 -1.7274
  295MOL0     H39825   1.014   1.135   2.646 -1.1415  3.0786 -4.3504
  296MOL0     O39826   2.942   9.530   3.787 -0.9797 -0.3402  0.6937
  296MOL0     C39827   2.871   9.429   3.784  0.0837 -0.2442  0.0296
  296MOL0     O39828   2.858   9.328   3.872 -0.1723  0.0974  0.9098
  296MOL0     C39829   2.944   9.314   3.971  0.0873 -0.4087 -0.2295
  296MOL0     C39830   3.000   9.423   4.045  0.1393  0.4592  0.1248
  296MOL0     C39831   3.095   9.413   4.148  0.7552  0.3223  0.1222
  296MOL0     C39832   3.146   9.280   4.168 -0.4652  0.9969 -0.3514
  296MOL0     O39833   3.225   9.249   4.270 -0.6523  0.8599  0.2353
  296MOL0     C39834   3.360   9.278   4.238 -0.0200  0.2366  0.4357
  296MOL0     C39835   3.444   9.162   4.291  0.0546  0.0227 -0.3732
  296MOL0     C39836   3.410   9.030   4.221 -0.8969 -0.4711  0.2128
  296MOL0     C39837   3.513   8.921   4.231  0.8984  0.4025  0.3511
  296MOL0     C39838   3.459   8.781   4.183  1.3548 -0.4664  0.0313
  296MOL0     C39839   3.365   8.721   4.286 -0.3576  0.3236  0.2777
  296MOL0     C39840   3.323   8.573   4.269 -0.1262  0.3657  1.0722
  296MOL0     C39841   3.215   8.530   4.168 -0.5355  0.2384  0.0881
  296MOL0     N39842   3.086   8.571   4.221 -0.2602  0.3259  0.4242
  296MOL0     C39843   3.027   8.692   4.190  1.0757  0.6733  0.1956
  296MOL0     C39844   2.936   8.708   4.291 -0.2156 -0.6023 -0.4595
  296MOL0     C39845   2.873   8.845   4.300  0.7882  0.4934 -0.4321
  296MOL0     C39846   2.961   8.966   4.332 -0.3009  0.2001  0.3262
  296MOL0     C39847   2.968   9.007   4.475 -0.4503 -0.1431  0.2766
  296MOL0     C39848   3.067   9.115   4.509 -0.5200  0.6410 -0.0769
  296MOL0     O39849   3.022   9.164   4.641  1.0067 -0.8290 -0.1607
  296MOL0     C39850   3.064   9.285   4.693  0.4639 -0.0573 -0.3316
  296MOL0     C39851   3.159   9.373   4.624 -0.5615  0.6459 -1.5290
  296MOL0     C39852   3.219   9.476   4.695  0.6395 -0.2389  0.1905
  296MOL0     C39853   3.322   9.550   4.615  0.1964 -0.5508  0.4985
  296MOL0     C39854   3.181   9.498   4.831 -0.7782 -0.1355  0.0060
  296MOL0     C39855   3.251   9.582   4.933  0.3058 -0.0361  0.8147
  296MOL0     O39856   3.176   9.623   5.041 -0.2566 -0.4015 -0.2726
  296MOL0     C39857   3.245   9.707   5.131  0.4077  0.0679  0.3811
  296MOL0     C39858   3.359   9.656   5.197  0.5165  0.3908 -0.3578
  296MOL0     C39859   3.419   9.728   5.295 -1.0654  0.3327  0.7460
  296MOL0     C39860   3.372   9.856   5.342 -0.0401  0.3238  0.8347
  296MOL0     O39861   3.429   9.935   5.433 -0.1521 -0.7966 -0.3959
  296MOL0     C39862   3.558   9.904   5.497 -0.7966  0.9613 -0.1468
  296MOL0     C39863   3.618  10.013   5.587 -0.1552  0.1398 -0.1677
  296MOL0     C39864   3.727   9.952   5.685 -0.1751 -1.0163 -0.2816
  296MOL0     C39865   3.761  10.048   5.799 -0.5474 -0.3087 -0.1352
  296MOL0     C39866   3.775   9.966   5.932  0.2413 -1.3071  0.1122
  296MOL0     C39867   3.776  10.063   6.049 -0.3981  0.2892 -0.1753
  296MOL0     C39868   3.643  10.143   6.085 -0.4841  0.2451  0.7509
  296MOL0     C39869   3.666  10.215   6.219 -0.3721 -0.1361 -1.1087
  296MOL0    Cl39870   3.812  10.325   6.222  0.2891 -0.0770 -0.7462
  296MOL0     C39871   3.267   9.915   5.267 -0.5994  0.1697 -0.7074
  296MOL0     C39872   3.202   9.843   5.159  0.3111  0.3825 -0.2834
  296MOL0     O39873   3.361   9.619   4.902 -0.0372  0.3907 -0.5050
  296MOL0     C39874   3.068   9.430   4.887 -0.4714  0.0157 -1.3108
  296MOL0     C39875   3.014   9.322   4.820 -0.7675 -0.2525  0.7848
  296MOL0     N39876   2.927   8.588   4.372 -0.1137  0.4996 -1.0197
  296MOL0     N39877   3.020   8.519   4.329 -0.4341  0.1926  0.1972
  296MOL0     C39878   3.092   9.172   4.096 -0.0215  0.2601 -0.7718
  296MOL0     C39879   2.996   9.190   3.992  0.2888  0.2562 -0.5471
  296MOL0     C39880   2.768   9.422   3.674 -0.3020 -0.3033 -0.8185
  296MOL0     C39881   2.755   9.526   3.580 -0.2987  0.9786 -0.0114
  296MOL0     C39882   2.671   9.504   3.463 -0.2088 -0.3047 -1.3449
  296MOL0     C39883   2.597   9.391   3.457  0.5043  0.5116  0.0068
  296MOL0     O39884   2.520   9.389   3.342 -0.4003 -0.9257 -0.1831
  296MOL0     C39885   2.452   9.275   3.312 -0.2296 -0.0259  0.1786
  296MOL0     C39886   2.434   9.294   3.161  0.6807 -0.9449  0.2587
  296MOL0     C39887   2.348   9.179   3.104 -0.0009  0.4894  0.5309
  296MOL0     C39888   2.365   9.141   2.957  0.9730 -0.5836  0.1197
  296MOL0     C39889   2.310   9.243   2.870  0.1999 -0.0808  0.9735
  296MOL0     C39890   2.290   9.346   2.807 -0.5612 -0.9256 -0.1300
  296MOL0     C39891   2.604   9.293   3.559  0.0268 -0.1810 -0.6957
  296MOL0     C39892   2.697   9.310   3.662  0.3911  0.2994 -0.9129
  296MOL0     H39893   2.962   9.523   4.026 -1.8945 -0.7551 -3.0065
  296MOL0     H39894   3.120   9.504   4.202 -3.4219  2.4357 -1.0735
  296MOL0     H39895   3.367   9.287   4.129  2.3061 -0.6816  0.4538
  296MOL0     H39896   3.383   9.372   4.288 -1.4126  1.4840 -1.1258
  296MOL0     H39897   3.548   9.177   4.263 -0.2243  1.2054 -0.8576
  296MOL0     H39898   3.452   9.161   4.400  1.0039  2.9809 -0.3354
  296MOL0     H39899   3.322   8.986   4.268 -1.1075 -0.9000 -0.5581
  296MOL0     H39900   3.384   9.059   4.119  0.1968 -0.3838 -0.0581
  296MOL0     H39901   3.596   8.952   4.167  1.9990 -0.8093  1.1389
  296MOL0     H39902   3.557   8.916   4.331  1.3205 -1.3978  0.1096
  296MOL0     H39903   3.406   8.779   4.087 -1.1955 -2.1239  1.3779
  296MOL0     H39904   3.542   8.711   4.168  0.4037 -1.7184  0.4453
  296MOL0     H39905   3.412   8.723   4.385  1.5762 -1.8969 -0.5262
  296MOL0     H39906   3.268   8.773   4.288 -1.5843 -1.8551  2.2032
  296MOL0     H39907   3.415   8.525   4.237  0.2819  1.4443  0.5888
  296MOL0     H39908   3.295   8.547   4.372 -3.0350 -3.1995 -0.4057
  296MOL0     H39909   3.220   8.421   4.165 -2.3864  0.1507 -0.8512
  296MOL0     H39910   3.222   8.573   4.068 -0.2063  0.3388  0.1532
  296MOL0     H39911   3.058   8.764   4.115 -0.6661 -1.5669 -2.9356
  296MOL0     H39912   2.822   8.861   4.205  0.4288  1.5497 -0.0785
  296MOL0     H39913   2.798   8.842   4.379  0.5212 -1.4666 -0.7129
  296MOL0     H39914   2.925   9.048   4.269  2.5628  0.6820 -0.8002
  296MOL0     H39915   3.064   8.945   4.301 -0.3601  1.2310 -0.6213
  296MOL0     H39916   2.994   8.923   4.541  2.7058 -0.2545 -0.9585
  296MOL0     H39917   2.863   9.034   4.490 -1.0076 -1.5277 -0.9082
  296MOL0     H39918   3.066   9.193   4.432  1.6770  1.3710  0.5430
  296MOL0     H39919   3.172   9.084   4.501 -1.2851 -1.6351 -3.8855
  296MOL0     H39920   3.192   9.351   4.523  1.6482 -1.7512 -0.3671
  296MOL0     H39921   3.282   9.551   4.513 -2.7831  3.5282  1.4405
  296MOL0     H39922   3.337   9.651   4.657  1.7251 -0.7904  0.5757
  296MOL0     H39923   3.421   9.506   4.599  0.4671  0.9548 -2.7571
  296MOL0     H39924   3.397   9.555   5.189  2.0972  0.9228  0.1355
  296MOL0     H39925   3.512   9.686   5.334 -0.2811  1.9953  0.7823
  296MOL0     H39926   3.538   9.820   5.564  2.4555  2.0809  2.5188
  296MOL0     H39927   3.624   9.877   5.414 -2.1292  0.7068 -1.1508
  296MOL0     H39928   3.682  10.091   5.545  2.2491 -0.1566  2.5606
  296MOL0     H39929   3.536  10.059   5.642 -1.1150 -1.8288  0.1428
  296MOL0     H39930   3.818   9.927   5.631 -0.3530  3.6689 -3.3729
  296MOL0     H39931   3.682   9.868   5.739 -0.6482 -0.8733 -0.4399
  296MOL0     H39932   3.850  10.105   5.773 -0.1493 -1.6732 -1.9674
  296MOL0     H39933   3.689  10.130   5.802  0.3827  0.5612 -0.8491
  296MOL0     H39934   3.874   9.920   5.930  0.7064 -0.5105  2.0084
  296MOL0     H39935   3.699   9.892   5.954 -0.9705  0.2089  1.3222
  296MOL0     H39936   3.809  10.006   6.137  0.7351 -1.8708 -1.8918
  296MOL0     H39937   3.850  10.141   6.030  1.5957 -0.9606  1.8731
  296MOL0     H39938   3.568  10.065   6.099  2.6645 -3.0393  0.7095
  296MOL0     H39939   3.618  10.219   6.011  0.8240 -0.7064 -0.7314
  296MOL0     H39940   3.673  10.138   6.297  2.0036  0.0004 -1.1059
  296MOL0     H39941   3.575  10.266   6.251  0.7939 -0.4925  3.4416
  296MOL0     H39942   3.240  10.014   5.303  2.4294  0.2966  1.6013
  296MOL0     H39943   3.113   9.880   5.108 -0.7083  1.5787  2.1877
  296MOL0     H39944   3.035   9.435   4.990  1.4134  0.0005 -0.6719
  296MOL0     H39945   2.942   9.257   4.869  0.6974 -2.8613 -0.3279
  296MOL0     H39946   3.130   9.073   4.119 -1.3867 -0.0919  0.0551
  296MOL0     H39947   2.966   9.117   3.918 -3.0297  1.5739 -0.6614
  296MOL0     H39948   2.819   9.613   3.591  0.1937  0.9043 -1.9869
  296MOL0     H39949   2.682   9.586   3.393  3.8556 -0.1398 -0.7376
  296MOL0     H39950   2.522   9.192   3.325  2.2451  1.6272 -1.6473
  296MOL0     H39951   2.357   9.267   3.367  1.2585  2.0775  3.3287
  296MOL0     H39952   2.533   9.284   3.116 -0.8016 -0.6914 -3.3946
  296MOL0     H39953   2.384   9.386   3.129 -1.0003 -0.9025  2.6593
  296MOL0     H39954   2.241   9.200   3.119 -0.3861 -1.7753  1.3920
  296MOL0     H39955   2.393   9.101   3.166  2.7399  2.4554  1.2395
  296MOL0     H39956   2.304   9.050   2.955  0.2412 -0.1102  0.5103
  296MOL0     H39957   2.464   9.105   2.928  1.1354  0.6994 -1.0296
  296MOL0     H39958   2.279   9.445   2.767  2.8374  0.5613  2.1846
  296MOL0     H39959   2.548   9.200   3.564 -0.1396 -0.0420  0.8128
  296MOL0     H39960   2.722   9.229   3.730  1.1845  1.8167  0.6585
  297MOL0     O39961   6.010   6.664   1.917 -0.0976 -0.8458  0.1213
  297MOL0     C39962   5.939   6.739   1.992 -0.3799  0.5418  0.8424
  297MOL0     O39963   5.871   6.695   2.104 -0.4477  0.1931  0.3094
  297MOL0     C39964   5.888   6.568   2.154 -0.0001 -1.4572 -0.4371
  297MOL0     C39965   5.984   6.533   2.254 -0.4529 -0.3522  0.2970
  297MOL0     C39966   6.000   6.399   2.297  0.1952  0.2007  0.5989
  297MOL0     C39967   5.931   6.301   2.240 -1.1919 -0.5068  0.1810
  297MOL0     O39968   5.970   6.175   2.284 -0.0400 -0.7858  0.7055
  297MOL0     C39969   5.903   6.056   2.239  1.3910 -0.5954  0.3311
  297MOL0     C39970   5.974   5.925   2.279 -0.6174 -0.1956  0.5760
  297MOL0     C39971   5.986   5.914   2.433  1.8328  0.0218 -0.9313
  297MOL0     C39972   6.081   5.997   2.517  1.2354 -0.1867  0.6933
  297MOL0     C39973   6.035   6.032   2.655 -0.2455  0.2727  0.4770
  297MOL0     C39974   5.942   6.150   2.651  0.6546 -1.2145 -0.5194
  297MOL0     C39975   5.939   6.220   2.782 -0.1306  1.0127 -0.2457
  297MOL0     C39976   5.855   6.346   2.771 -0.0764 -1.4006  0.4839
  297MOL0     N39977   5.862   6.418   2.897  0.0094 -0.8822  0.0364
  297MOL0     C39978   5.947   6.519   2.917 -1.0266  0.0108  0.0186
  297MOL0     C39979   5.921   6.579   3.036 -0.4444  0.7682  0.0059
  297MOL0     C39980   6.008   6.687   3.096  0.0908  0.1190  0.7037
  297MOL0     C39981   6.000   6.827   3.038 -0.0959  1.2473  0.7562
  297MOL0     C39982   5.866   6.902   3.032  0.6303  0.9181  1.4174
  297MOL0     C39983   5.884   7.044   2.993  0.2905  0.1350  0.3784
  297MOL0     O39984   5.944   7.045   2.862  0.7793 -0.1020 -0.4809
  297MOL0     C39985   5.966   7.170   2.815  1.2455 -0.0464 -0.1753
  297MOL0     C39986   6.097   7.213   2.788  0.0973  0.6317  0.4465
  297MOL0     C39987   6.128   7.333   2.732 -0.5163  0.4954 -0.4777
  297MOL0     C39988   6.267   7.374   2.719  0.7564  0.0379  0.0217
  297MOL0     C39989   6.032   7.426   2.701 -0.0740 -0.7981  0.0014
  297MOL0     C39990   6.051   7.570   2.655 -0.6797  0.0986 -0.0381
  297MOL0     O39991   6.161   7.640   2.699  0.6276  0.0506  0.5394
  297MOL0     C39992   6.168   7.772   2.651  0.8116  1.4155 -0.1987
  297MOL0     C39993   6.185   7.799   2.511 -0.5942 -0.1960  0.6291
  297MOL0     C39994   6.224   7.916   2.466  0.0001 -0.4141 -0.0750
  297MOL0     C39995   6.244   8.023   2.558  0.5215  0.2776 -0.2284
  297MOL0     O39996   6.284   8.144   2.498  0.7408  0.2005  0.3260
  297MOL0     C39997   6.390   8.218   2.564 -0.5590  0.1646  0.6762
  297MOL0     C39998   6.475   8.288   2.450  0.3121  0.2499  0.6690
  297MOL0     C39999   6.546   8.415   2.489  0.7476 -0.9102  0.0700
  297MOL0     C40000   6.640   8.474   2.376 -0.1879  0.9028 -0.7153
  297MOL0     C40001   6.570   8.584   2.300  0.7426 -0.3335 -0.1309
  297MOL0     C40002   6.657   8.633   2.182 -0.7885 -0.9870 -0.6158
  297MOL0     C40003   6.598   8.772   2.131 -0.5814 -0.3064  0.0404
  297MOL0     C40004   6.447   8.788   2.114 -0.8115  0.8954  0.3267
  297MOL0    Cl40005   6.400   8.681   1.984  0.2038  0.1297  0.1527
  297MOL0     C40006   6.226   8.000   2.696 -0.3844 -0.2953 -0.0937
  297MOL0     C40007   6.197   7.874   2.743  0.6734 -0.6226  0.0626
  297MOL0     O40008   5.970   7.611   2.568 -0.1038  0.3622  0.2363
  297MOL0     C40009   5.897   7.381   2.725  0.8022 -0.3087  0.0390
  297MOL0     C40010   5.863   7.252   2.767  0.0885  0.5340 -0.9721
  297MOL0     N40011   5.810   6.516   3.080  0.0421 -0.4921 -0.1613
  297MOL0     N40012   5.781   6.417   3.006  0.0024 -0.8153 -0.4587
  297MOL0     C40013   5.845   6.335   2.133 -0.2840  0.3040 -0.1731
  297MOL0     C40014   5.823   6.470   2.099 -0.0594 -0.1789  0.1199
  297MOL0     C40015   5.949   6.882   1.955  1.2332 -0.1646 -1.0873
  297MOL0     C40016   5.919   6.989   2.045  0.6699 -0.4743 -0.1984
  297MOL0     C40017   5.928   7.118   2.004 -0.2368  0.4080 -0.2927
  297MOL0     C40018   5.965   7.151   1.877 -0.3143  0.1822  0.9985
  297MOL0     O40019   5.977   7.280   1.824 -0.6742  0.1399  0.7823
  297MOL0     C40020   5.928   7.403   1.886 -0.0543 -0.0444  0.7761
  297MOL0     C40021   5.795   7.427   1.815 -0.3948 -0.8212 -0.5320
  297MOL0     C40022   5.813   7.466   1.664  0.3205 -0.5417 -0.6228
  297MOL0     C40023   5.827   7.614   1.644 -0.1998 -0.3352  0.0873
  297MOL0     C40024   5.955   7.669   1.687  1.1974  0.5965  0.3638
  297MOL0     C40025   6.068   7.693   1.704  0.0475 -0.4947 -0.1726
  297MOL0     C40026   5.992   7.043   1.790 -0.0701  0.9430 -0.4967
  297MOL0     C40027   5.988   6.904   1.824 -0.7860  0.3526  0.4655
  297MOL0     H40028   6.048   6.607   2.302 -0.7693 -0.0823  0.3032
  297MOL0     H40029   6.068   6.364   2.374  0.2442  0.9724  0.9169
  297MOL0     H40030   5.806   6.070   2.288  1.9515  3.0868  0.7200
  297MOL0     H40031   5.897   6.058   2.130  4.2723  1.0184  0.1135
  297MOL0     H40032   5.934   5.827   2.251 -1.0992  0.1489  0.0383
  297MOL0     H40033   6.075   5.935   2.238  0.6179 -1.0791  3.2342
  297MOL0     H40034   5.885   5.933   2.469  2.5860 -1.2574  2.1321
  297MOL0     H40035   5.993   5.806   2.450 -1.2211  0.1327  1.9847
  297MOL0     H40036   6.174   5.945   2.540  1.5149 -0.7939 -1.5230
  297MOL0     H40037   6.114   6.084   2.458 -1.3869 -0.5804 -1.5268
  297MOL0     H40038   5.992   5.946   2.706  0.2800  0.1306  0.6827
  297MOL0     H40039   6.125   6.052   2.715  1.4128  1.8798 -2.3188
  297MOL0     H40040   5.980   6.218   2.575  2.9602 -1.0133  0.7268
  297MOL0     H40041   5.842   6.115   2.625 -0.1729 -2.1806  3.3381
  297MOL0     H40042   5.906   6.151   2.861  2.4890 -1.5527 -1.2096
  297MOL0     H40043   6.044   6.242   2.808  0.3481  0.1958 -1.4226
  297MOL0     H40044   5.753   6.324   2.740 -0.6527  1.2088  0.3002
  297MOL0     H40045   5.906   6.409   2.698  2.0888 -0.3438  2.7384
  297MOL0     H40046   6.035   6.543   2.858  1.5185  3.5244  4.6378
  297MOL0     H40047   5.960   6.693   3.195 -0.4379 -0.7482  0.5025
  297MOL0     H40048   6.108   6.644   3.101 -0.0165 -0.0723  1.4731
  297MOL0     H40049   6.049   6.816   2.941 -1.5914  1.2764 -0.0466
  297MOL0     H40050   6.065   6.892   3.098 -1.4954  2.7188  0.7464
  297MOL0     H40051   5.823   6.894   3.132  1.1819 -1.6649  1.5008
  297MOL0     H40052   5.803   6.855   2.955  0.5667  4.1301 -0.6811
  297MOL0     H40053   5.943   7.106   3.061 -1.6639  1.1876  1.2009
  297MOL0     H40054   5.783   7.087   2.987 -0.4383 -1.6847 -1.7441
  297MOL0     H40055   6.177   7.143   2.808  0.9751  1.4117 -0.2395
  297MOL0     H40056   6.344   7.297   2.727  2.5701  1.6742 -0.7714
  297MOL0     H40057   6.288   7.434   2.630 -1.1919 -0.5945 -0.9334
  297MOL0     H40058   6.281   7.437   2.808 -2.5028 -0.9031  1.3726
  297MOL0     H40059   6.174   7.713   2.446 -0.7336  2.2310 -2.8098
  297MOL0     H40060   6.235   7.931   2.359  0.3123  0.5623  0.0828
  297MOL0     H40061   6.369   8.309   2.621 -2.8987 -0.4557  0.9054
  297MOL0     H40062   6.460   8.155   2.620  0.1652  1.4808  1.3082
  297MOL0     H40063   6.535   8.205   2.411 -2.5872 -0.3212 -3.2644
  297MOL0     H40064   6.411   8.315   2.365  2.0485 -0.2437 -0.8706
  297MOL0     H40065   6.601   8.390   2.580  0.3362 -0.9565  0.3062
  297MOL0     H40066   6.466   8.487   2.508 -0.4754 -2.4617  1.0091
  297MOL0     H40067   6.723   8.520   2.431  1.8463 -2.5687 -0.6091
  297MOL0     H40068   6.691   8.399   2.316  2.1226  0.7913  1.2131
  297MOL0     H40069   6.561   8.673   2.363  1.6019 -0.2747 -0.0733
  297MOL0     H40070   6.476   8.547   2.258  0.9179  0.8488 -1.6347
  297MOL0     H40071   6.762   8.658   2.201 -0.9766 -0.8519  0.2650
  297MOL0     H40072   6.650   8.554   2.107 -1.9731 -1.6370  0.1546
  297MOL0     H40073   6.648   8.802   2.039 -1.4976 -0.3701 -0.4893
  297MOL0     H40074   6.623   8.853   2.201 -0.1651 -1.3058  1.0812
  297MOL0     H40075   6.425   8.893   2.095  0.1802  1.3475  1.5314
  297MOL0     H40076   6.405   8.754   2.209 -1.2204 -0.2693 -0.2423
  297MOL0     H40077   6.218   8.093   2.752 -5.5221 -0.6828  0.2903
  297MOL0     H40078   6.204   7.857   2.850 -2.9124 -1.1215  0.3290
  297MOL0     H40079   5.817   7.445   2.691  1.2190 -0.0671 -0.5221
  297MOL0     H40080   5.759   7.223   2.769  0.5449 -1.3527  2.0316
  297MOL0     H40081   5.793   6.249   2.092  1.5252 -0.8936 -0.0921
  297MOL0     H40082   5.755   6.490   2.016 -0.6682 -0.1872  0.6115
  297MOL0     H40083   5.871   6.980   2.142 -2.0035  0.7001 -1.2928
  297MOL0     H40084   5.913   7.193   2.081  3.1182 -1.7215  2.7387
  297MOL0     H40085   5.920   7.396   1.995 -0.1647  0.1706  0.7825
  297MOL0     H40086   5.994   7.489   1.874  1.2415 -0.6280  3.0462
  297MOL0     H40087   5.742   7.507   1.866 -0.2567 -0.4794 -0.9223
  297MOL0     H40088   5.745   7.329   1.815 -0.5982 -0.7938 -3.1594
  297MOL0     H40089   5.728   7.427   1.606 -0.3391 -0.2226  0.1081
  297MOL0     H40090   5.896   7.417   1.612 -1.4211 -1.0232 -3.1898
  297MOL0     H40091   5.756   7.676   1.700 -0.1513 -2.1388  2.2628
  297MOL0     H40092   5.818   7.643   1.539  0.4778 -1.4559 -0.2928
  297MOL0     H40093   6.174   7.704   1.701 -0.0607  0.9348  0.5924
  297MOL0     H40094   5.996   7.075   1.686 -0.0464  0.8788 -0.5153
  297MOL0     H40095   6.002   6.834   1.743 -3.0572 -0.6623  0.8609
  298MOL0     O40096   6.543   8.816   8.262  0.0039 -0.5303  0.2205
  298MOL0     C40097   6.443   8.806   8.335 -0.0676 -1.1117  0.3669
  298MOL0     O40098   6.373   8.697   8.361  0.2440 -0.9167 -0.1171
  298MOL0     C40099   6.339   8.613   8.262  0.7425  0.3775 -0.2493
  298MOL0     C40100   6.202   8.574   8.248 -0.4436 -0.7146 -0.3347
  298MOL0     C40101   6.153   8.498   8.138  0.1820 -0.6128  0.9678
  298MOL0     C40102   6.251   8.437   8.054 -0.8972 -0.3714 -0.1296
  298MOL0     O40103   6.225   8.365   7.940  0.4892  0.2607 -0.4366
  298MOL0     C40104   6.160   8.449   7.841 -0.1795  0.4506  0.6056
  298MOL0     C40105   6.013   8.394   7.816  0.0338  0.2343 -0.2231
  298MOL0     C40106   5.975   8.433   7.674  0.3961  0.2288  0.0324
  298MOL0     C40107   5.960   8.584   7.657  0.3372  0.7281  0.0510
  298MOL0     C40108   5.909   8.589   7.513  0.2811  0.4108  0.4256
  298MOL0     C40109   5.900   8.736   7.468  0.5968 -0.0335  0.6376
  298MOL0     C40110   5.776   8.812   7.509 -0.3024 -0.3293  0.7700
  298MOL0     C40111   5.818   8.953   7.521  0.0427 -0.5041  0.4343
  298MOL0     N40112   5.711   9.051   7.534  0.5109  0.5874  0.6284
  298MOL0     C40113   5.689   9.118   7.656 -0.9460  0.0259  0.5257
  298MOL0     C40114   5.617   9.228   7.629  0.9969  0.0433 -0.3538
  298MOL0     C40115   5.564   9.327   7.732 -0.3468  0.0308 -0.1110
  298MOL0     C40116   5.420   9.302   7.764 -0.2909  0.1644  0.6426
  298MOL0     C40117   5.354   9.384   7.870  0.2908 -0.1888 -0.7769
  298MOL0     C40118   5.368   9.318   8.009 -0.0971  0.1775 -0.4073
  298MOL0     O40119   5.293   9.190   8.028  0.3888 -0.1983  0.1323
  298MOL0     C40120   5.148   9.186   8.035  0.5339  0.1955 -0.0655
  298MOL0     C40121   5.063   9.296   8.063  0.8281 -0.7280  0.7451
  298MOL0     C40122   4.924   9.283   8.076  0.2078  0.9631  0.1160
  298MOL0     C40123   4.846   9.406   8.121 -0.0856 -0.1163 -0.9708
  298MOL0     C40124   4.861   9.157   8.070  0.2099  0.1658  0.0400
  298MOL0     C40125   4.711   9.150   8.094  0.1458  0.2250 -0.0182
  298MOL0     O40126   4.671   9.054   8.170 -0.0108 -0.5305 -0.1051
  298MOL0     C40127   4.537   9.019   8.173  0.4548 -0.3308 -0.4984
  298MOL0     C40128   4.484   8.897   8.123  1.2584  0.6381  0.0932
  298MOL0     C40129   4.353   8.848   8.160 -0.0050  0.0942  0.5339
  298MOL0     C40130   4.270   8.917   8.245  0.4072 -0.4634  0.9559
  298MOL0     O40131   4.142   8.885   8.283 -0.0734 -0.7624  0.4975
  298MOL0     C40132   4.086   8.765   8.228  0.9224  0.0583 -0.2643
  298MOL0     C40133   4.093   8.643   8.326  0.1899 -0.9079  0.8636
  298MOL0     C40134   4.015   8.518   8.273  0.4024  0.2527 -0.5671
  298MOL0     C40135   3.864   8.517   8.305  0.2760 -0.5993  0.7845
  298MOL0     C40136   3.811   8.375   8.272  0.3008  0.2776  0.5741
  298MOL0     C40137   3.658   8.352   8.313  0.3693  0.5682 -0.1489
  298MOL0     C40138   3.604   8.200   8.280 -0.0668 -0.6003 -0.7415
  298MOL0     C40139   3.565   8.187   8.134 -0.1249  0.3030  0.4815
  298MOL0    Cl40140   3.406   8.257   8.129 -0.6968 -0.4816  0.2249
  298MOL0     C40141   4.324   9.041   8.286  0.1245 -0.5580 -0.3229
  298MOL0     C40142   4.451   9.091   8.255 -0.0788  0.0319 -0.8018
  298MOL0     O40143   4.641   9.224   8.033  0.1779  0.6625 -0.0335
  298MOL0     C40144   4.941   9.045   8.043 -1.1506  0.4026  0.3672
  298MOL0     C40145   5.086   9.063   8.030  0.6991 -0.2843 -0.2956
  298MOL0     N40146   5.590   9.223   7.492  0.1673 -0.2269  0.1163
  298MOL0     N40147   5.645   9.115   7.435  0.4422 -0.5332 -0.0447
  298MOL0     C40148   6.384   8.456   8.083  0.8551 -0.2282 -0.5422
  298MOL0     C40149   6.422   8.554   8.175  0.6457  0.2344  0.3803
  298MOL0     C40150   6.442   8.924   8.428  0.1967  0.6169  0.1811
  298MOL0     C40151   6.328   8.927   8.515  0.1444  0.2351  0.9991
  298MOL0     C40152   6.311   9.025   8.614 -0.2378  0.2768  0.0392
  298MOL0     C40153   6.401   9.131   8.618 -0.1300 -0.0603 -0.1699
  298MOL0     O40154   6.374   9.228   8.715 -0.0811  0.1778 -0.0315
  298MOL0     C40155   6.438   9.361   8.707  0.0838  0.7018 -0.0961
  298MOL0     C40156   6.346   9.462   8.761 -0.8923  1.8023  0.2085
  298MOL0     C40157   6.414   9.587   8.779  0.2069 -0.7140  0.3238
  298MOL0     C40158   6.333   9.691   8.873 -0.4996  0.4622  0.4294
  298MOL0     C40159   6.328   9.662   9.010  0.2280 -1.3308 -0.3934
  298MOL0     C40160   6.335   9.653   9.138 -0.3892  0.9941 -0.4195
  298MOL0     C40161   6.512   9.137   8.528 -1.9013  1.5478 -0.8348
  298MOL0     C40162   6.538   9.032   8.438 -0.1840 -0.0312  0.9113
  298MOL0     H40163   6.125   8.623   8.306 -1.4894 -2.2108 -0.3876
  298MOL0     H40164   6.046   8.489   8.123  0.4432 -3.5915  0.1529
  298MOL0     H40165   6.155   8.556   7.866 -2.9534  0.2670  1.2633
  298MOL0     H40166   6.227   8.452   7.755  1.1350  1.7706  1.6249
  298MOL0     H40167   6.015   8.286   7.831 -0.0027  0.0152 -1.6519
  298MOL0     H40168   5.952   8.444   7.891 -0.2667  1.4391 -1.2418
  298MOL0     H40169   6.044   8.386   7.604 -1.0013 -1.3583 -0.3560
  298MOL0     H40170   5.875   8.389   7.666 -0.6985  2.4609  0.6546
  298MOL0     H40171   5.891   8.631   7.728  2.5783  2.2008  1.3466
  298MOL0     H40172   6.053   8.640   7.666  1.9233 -1.9040  1.2514
  298MOL0     H40173   5.978   8.529   7.453  1.6880  0.3784  1.9980
  298MOL0     H40174   5.811   8.542   7.514  0.1486  0.6872  0.6839
  298MOL0     H40175   5.989   8.784   7.511  0.6552  0.3995  0.0456
  298MOL0     H40176   5.902   8.734   7.359 -2.1147 -0.9837  0.5452
  298MOL0     H40177   5.696   8.788   7.439 -0.1669 -0.1146  0.5359
  298MOL0     H40178   5.747   8.789   7.612 -3.9453  3.3081  0.7770
  298MOL0     H40179   5.872   8.984   7.432  1.5924 -0.8569  1.2209
  298MOL0     H40180   5.885   8.976   7.604 -2.0267 -0.2024  2.1208
  298MOL0     H40181   5.735   9.081   7.747 -1.8222 -1.2982  0.4432
  298MOL0     H40182   5.631   9.325   7.819 -2.9654 -1.4429  2.0166
  298MOL0     H40183   5.580   9.423   7.683 -1.7989  0.5625  0.4118
  298MOL0     H40184   5.404   9.195   7.785  1.3821 -0.2069  0.1492
  298MOL0     H40185   5.366   9.321   7.671 -1.4145 -3.7854  0.2691
  298MOL0     H40186   5.246   9.388   7.852 -0.7958 -2.2743  3.7964
  298MOL0     H40187   5.394   9.486   7.873  0.7873 -0.2729 -2.8787
  298MOL0     H40188   5.341   9.397   8.081  3.9325  2.0364 -0.6523
  298MOL0     H40189   5.472   9.299   8.037 -0.2965  1.5195  1.4761
  298MOL0     H40190   5.114   9.392   8.063  3.0543 -1.7279 -3.1565
  298MOL0     H40191   4.903   9.478   8.181  2.9305 -2.6488 -0.5173
  298MOL0     H40192   4.806   9.448   8.029 -0.4520 -1.6263 -1.5245
  298MOL0     H40193   4.763   9.380   8.188  0.6457  0.7053  0.3020
  298MOL0     H40194   4.531   8.846   8.039  0.3649 -0.5782  0.3103
  298MOL0     H40195   4.326   8.752   8.118  0.3469  0.7652 -1.3164
  298MOL0     H40196   3.979   8.782   8.212  0.3499 -3.4313 -0.9861
  298MOL0     H40197   4.123   8.747   8.127 -0.2904  0.7237 -0.8589
  298MOL0     H40198   4.198   8.612   8.322  0.3643 -0.2209 -1.4498
  298MOL0     H40199   4.056   8.672   8.425 -1.7465 -1.2344  0.2955
  298MOL0     H40200   4.065   8.432   8.318 -2.5502 -1.5334 -0.4371
  298MOL0     H40201   4.022   8.515   8.164 -0.9600  0.7219 -0.6855
  298MOL0     H40202   3.843   8.534   8.411 -0.1029 -1.1426  0.8013
  298MOL0     H40203   3.817   8.590   8.239  2.3712  0.9321  0.8670
  298MOL0     H40204   3.872   8.293   8.310  0.3680 -0.8095 -1.6790
  298MOL0     H40205   3.825   8.357   8.165 -0.4027  1.3133  0.2908
  298MOL0     H40206   3.641   8.361   8.420  2.1064 -1.7159  0.4057
  298MOL0     H40207   3.602   8.424   8.253  0.3495  0.9224  0.2978
  298MOL0     H40208   3.525   8.177   8.352 -0.5608  1.7433 -0.4503
  298MOL0     H40209   3.687   8.131   8.302  1.8626  1.8915  0.3878
  298MOL0     H40210   3.558   8.082   8.104 -0.9890  1.3464 -3.6465
  298MOL0     H40211   3.638   8.238   8.071 -1.1067  1.6709  0.4012
  298MOL0     H40212   4.255   9.097   8.349  2.1704  0.2099  1.3492
  298MOL0     H40213   4.486   9.186   8.296 -1.2718 -0.2991  1.1379
  298MOL0     H40214   4.890   8.949   8.043  0.8649 -0.7742 -1.7961
  298MOL0     H40215   5.136   8.968   8.009  1.1239 -0.2569  0.5164
  298MOL0     H40216   6.460   8.435   8.009 -1.8763  1.2141 -4.0693
  298MOL0     H40217   6.524   8.580   8.201 -0.1142 -0.1944  4.6315
  298MOL0     H40218   6.243   8.859   8.510 -0.9230  1.2093  3.8019
  298MOL0     H40219   6.226   9.038   8.681  1.4798 -1.0060  2.6504
  298MOL0     H40220   6.532   9.363   8.764  1.4705  3.2906 -2.2267
  298MOL0     H40221   6.461   9.375   8.600 -0.4423 -3.5138 -0.9644
  298MOL0     H40222   6.319   9.426   8.861  0.1006 -0.8875 -0.4087
  298MOL0     H40223   6.250   9.480   8.712 -1.3552 -1.8278 -0.4927
  298MOL0     H40224   6.423   9.640   8.684 -0.3835  0.5909  0.9598
  298MOL0     H40225   6.519   9.575   8.808 -0.2452  0.5570  2.8006
  298MOL0     H40226   6.228   9.689   8.843 -0.2125 -2.7190 -0.7925
  298MOL0     H40227   6.384   9.787   8.861  1.3966 -0.4350  0.9614
  298MOL0     H40228   6.334   9.653   9.245  0.2399  0.4907 -0.4120
  298MOL0     H40229   6.600   9.198   8.547  1.3280 -2.9782  0.7520
  298MOL0     H40230   6.624   9.036   8.371 -0.3052 -2.6194  0.4738
  299MOL0     O40231   0.817   3.611   1.954 -0.3804 -0.1519  0.2524
  299MOL0     C40232   0.866   3.512   2.009 -1.5241 -0.8711 -0.6653
  299MOL0     O40233   0.946   3.519   2.112  0.1341 -0.6235  0.4624
  299MOL0     C40234   0.970   3.646   2.164  0.0553 -0.0792 -1.0856
  299MOL0     C40235   1.073   3.721   2.117  0.1529 -0.1788  0.2931
  299MOL0     C40236   1.086   3.850   2.166  0.2326 -0.5281  0.6077
  299MOL0     C40237   0.997   3.901   2.262 -0.4822 -0.5112  0.5805
  299MOL0     O40238   1.008   4.023   2.306 -0.1016 -0.7054 -0.4343
  299MOL0     C40239   0.905   4.114   2.257 -0.1560 -0.0057 -0.0537
  299MOL0     C40240   0.965   4.250   2.228  0.2696 -1.1127 -0.6962
  299MOL0     C40241   1.095   4.262   2.138  0.3118 -0.4100  0.1457
  299MOL0     C40242   1.116   4.408   2.086 -0.7074 -0.4143  0.7984
  299MOL0     C40243   1.153   4.510   2.198  0.6756  0.9968 -0.0742
  299MOL0     C40244   1.138   4.653   2.145 -0.8686 -0.1777 -0.2737
  299MOL0     C40245   1.225   4.673   2.019 -0.5780  0.4859 -0.2022
  299MOL0     C40246   1.243   4.805   1.957 -0.1620  0.2840 -0.5046
  299MOL0     N40247   1.247   4.916   2.051  0.5927 -0.0693 -0.8787
  299MOL0     C40248   1.358   4.950   2.115 -0.0314 -0.3083  0.5280
  299MOL0     C40249   1.339   5.075   2.150 -0.3672 -0.1490  0.3434
  299MOL0     C40250   1.442   5.183   2.195  0.0816  0.9211  1.5538
  299MOL0     C40251   1.492   5.187   2.339  0.0279 -0.7032 -0.6197
  299MOL0     C40252   1.632   5.261   2.351 -0.3275 -0.3734 -0.7337
  299MOL0     C40253   1.591   5.407   2.340 -0.8190  0.5346 -0.5268
  299MOL0     O40254   1.541   5.461   2.468 -0.7938  0.0643  0.2824
  299MOL0     C40255   1.640   5.513   2.553  0.5070  0.2361 -0.5056
  299MOL0     C40256   1.592   5.615   2.640 -0.4194  0.3901  0.3832
  299MOL0     C40257   1.673   5.662   2.737 -0.0864  0.0322  0.3693
  299MOL0     C40258   1.610   5.773   2.820  0.2977  0.4523  0.0406
  299MOL0     C40259   1.807   5.621   2.758  0.1950  0.0473 -0.1841
  299MOL0     C40260   1.897   5.658   2.873 -0.5441  0.1258 -0.4183
  299MOL0     O40261   1.828   5.677   2.993 -0.0788 -0.0906 -0.1948
  299MOL0     C40262   1.895   5.667   3.112 -1.2037 -0.4952  0.1531
  299MOL0     C40263   1.826   5.605   3.210  0.8372 -1.0301  0.5577
  299MOL0     C40264   1.879   5.600   3.337 -0.0703 -0.0513  0.2990
  299MOL0     C40265   2.006   5.646   3.366  0.1132 -0.1156  0.0094
  299MOL0     O40266   2.059   5.633   3.501 -0.5961  0.1249  0.2157
  299MOL0     C40267   2.016   5.738   3.588 -0.6994  0.1740  0.2217
  299MOL0     C40268   2.008   5.685   3.723 -0.3210 -0.2771 -1.2196
  299MOL0     C40269   1.893   5.589   3.725 -1.3893  0.7901 -0.3400
  299MOL0     C40270   1.858   5.565   3.871 -0.1065  0.5339 -1.0172
  299MOL0     C40271   1.719   5.491   3.886 -0.3961 -0.7793 -0.8690
  299MOL0     C40272   1.741   5.337   3.896  0.0975 -1.5253 -0.0897
  299MOL0     C40273   1.603   5.264   3.884  0.3380 -1.0497  0.3164
  299MOL0     C40274   1.592   5.128   3.965 -0.2859  0.5389  0.4075
  299MOL0    Cl40275   1.533   5.127   4.120  0.2555 -0.3568 -0.5035
  299MOL0     C40276   2.079   5.719   3.272  0.1588  1.0666 -2.0599
  299MOL0     C40277   2.023   5.720   3.145  0.5822  0.6464  0.4561
  299MOL0     O40278   2.023   5.657   2.858 -0.7564  0.2703  0.4658
  299MOL0     C40279   1.850   5.523   2.663  0.4138 -0.0464 -0.7701
  299MOL0     C40280   1.771   5.470   2.565  0.5057  1.0571  0.2330
  299MOL0     N40281   1.218   5.117   2.106  0.1954 -0.5626 -0.2946
  299MOL0     N40282   1.156   5.013   2.057  0.0107  0.1632  0.4607
  299MOL0     C40283   0.899   3.817   2.321 -0.0092 -0.6607 -0.5376
  299MOL0     C40284   0.890   3.687   2.277 -1.5070 -0.5315  0.5472
  299MOL0     C40285   0.843   3.382   1.964  0.1004  0.1769 -0.6164
  299MOL0     C40286   0.892   3.270   2.038 -0.4274  0.8895  0.6556
  299MOL0     C40287   0.901   3.143   1.978  0.1311 -0.0586  1.1152
  299MOL0     C40288   0.843   3.126   1.845 -0.1013  0.3977 -0.7908
  299MOL0     O40289   0.819   3.007   1.783  0.6124 -0.4802  0.5027
  299MOL0     C40290   0.855   2.893   1.857  0.3707  0.2793  0.4773
  299MOL0     C40291   0.802   2.790   1.759 -0.7115 -0.1014  0.6409
  299MOL0     C40292   0.828   2.652   1.809 -0.5600 -0.1939 -0.3125
  299MOL0     C40293   0.978   2.621   1.824 -1.4279 -0.2897 -0.7215
  299MOL0     C40294   1.006   2.486   1.870  0.7706 -0.5315 -0.8819
  299MOL0     C40295   1.030   2.375   1.921  1.1188 -1.0324 -1.2173
  299MOL0     C40296   0.800   3.235   1.780  0.4484  0.2448 -0.0362
  299MOL0     C40297   0.799   3.358   1.837  0.8318 -0.3859  1.0227
  299MOL0     H40298   1.141   3.682   2.042  0.8634  2.6756 -0.6420
  299MOL0     H40299   1.168   3.910   2.126 -0.8923  1.6226  1.3358
  299MOL0     H40300   0.877   4.064   2.164  2.0920 -0.0160 -0.7872
  299MOL0     H40301   0.820   4.121   2.326 -0.5781 -1.0459 -0.4452
  299MOL0     H40302   0.892   4.325   2.194  2.7975  0.1084 -4.0333
  299MOL0     H40303   0.997   4.289   2.325  0.3561  1.2092 -1.5938
  299MOL0     H40304   1.175   4.211   2.193  1.3842  0.7714 -0.2681
  299MOL0     H40305   1.070   4.198   2.052 -3.5307  0.7743  0.1972
  299MOL0     H40306   1.194   4.388   2.012  0.2342 -2.2392  2.1905
  299MOL0     H40307   1.029   4.438   2.027  1.0881  1.2924 -1.1504
  299MOL0     H40308   1.093   4.497   2.288 -1.2705  3.2137 -0.9444
  299MOL0     H40309   1.254   4.485   2.232  0.4355 -1.0541 -0.7127
  299MOL0     H40310   1.032   4.675   2.125 -0.7328 -0.0585 -0.8846
  299MOL0     H40311   1.178   4.719   2.222 -1.9631  2.1047 -1.5424
  299MOL0     H40312   1.327   4.637   2.033 -1.3121 -1.3359  0.7890
  299MOL0     H40313   1.185   4.605   1.943  0.8418 -0.0140 -0.5275
  299MOL0     H40314   1.159   4.812   1.888 -1.1611  0.1658  0.6665
  299MOL0     H40315   1.336   4.817   1.901  1.5967  3.0364  2.6163
  299MOL0     H40316   1.447   4.891   2.134  1.2002  0.6788 -1.7505
  299MOL0     H40317   1.534   5.161   2.139 -0.0656  2.6353  0.5781
  299MOL0     H40318   1.390   5.273   2.163 -0.3747  0.4734  1.0243
  299MOL0     H40319   1.502   5.089   2.387 -6.0896  0.9998  5.8421
  299MOL0     H40320   1.425   5.237   2.410  2.3845  2.7309 -0.6029
  299MOL0     H40321   1.706   5.237   2.275  1.1725  0.7708  0.2927
  299MOL0     H40322   1.668   5.245   2.453 -0.5862  2.5916 -0.0781
  299MOL0     H40323   1.509   5.420   2.269 -1.6237 -2.9208 -0.3838
  299MOL0     H40324   1.670   5.480   2.315  1.7418 -2.0780 -0.5973
  299MOL0     H40325   1.485   5.634   2.638 -0.3822  0.5640 -1.1405
  299MOL0     H40326   1.525   5.818   2.767 -2.3420 -1.1294  2.5816
  299MOL0     H40327   1.561   5.739   2.913 -2.4763  4.0182  0.1282
  299MOL0     H40328   1.685   5.849   2.844  1.3726 -0.3592 -0.6824
  299MOL0     H40329   1.724   5.570   3.197  0.4923 -0.9980  2.7368
  299MOL0     H40330   1.824   5.547   3.413  0.5159 -0.5676  0.3653
  299MOL0     H40331   2.088   5.819   3.577 -0.7544  0.3003  0.7702
  299MOL0     H40332   1.920   5.777   3.552 -2.6271 -3.2946  1.1542
  299MOL0     H40333   2.101   5.633   3.746 -0.9533  0.4555  4.3444
  299MOL0     H40334   1.991   5.754   3.806  3.5529 -1.0590  0.4302
  299MOL0     H40335   1.936   5.492   3.697  2.0709  0.8203  3.7962
  299MOL0     H40336   1.803   5.609   3.666 -3.0725 -1.5520  1.2115
  299MOL0     H40337   1.934   5.512   3.929 -2.1316 -1.1404  0.2071
  299MOL0     H40338   1.832   5.665   3.908 -3.2097  1.5739 -5.2166
  299MOL0     H40339   1.663   5.525   3.798 -0.0058 -2.3069 -1.7470
  299MOL0     H40340   1.685   5.529   3.982  1.7312  3.2232 -1.4574
  299MOL0     H40341   1.815   5.306   3.822  1.3281  1.6397 -0.3189
  299MOL0     H40342   1.784   5.310   3.992  0.6964  0.4324  0.2312
  299MOL0     H40343   1.596   5.244   3.776  0.8226  0.3542  0.0037
  299MOL0     H40344   1.524   5.333   3.914 -2.4953 -3.5692 -0.8504
  299MOL0     H40345   1.691   5.081   3.956 -0.1857  0.7803  0.2229
  299MOL0     H40346   1.531   5.048   3.921  3.8550 -1.5161 -2.2684
  299MOL0     H40347   2.178   5.760   3.290 -0.7486  2.8185 -0.7574
  299MOL0     H40348   2.074   5.782   3.072  1.7497 -2.2885 -1.4003
  299MOL0     H40349   1.952   5.486   2.663 -0.1972 -1.9460  1.2520
  299MOL0     H40350   1.819   5.397   2.501 -1.8908  1.7341 -2.5700
  299MOL0     H40351   0.841   3.864   2.400  0.0052 -1.2340 -0.1833
  299MOL0     H40352   0.819   3.616   2.318 -0.5783 -0.7097  1.9127
  299MOL0     H40353   0.929   3.290   2.138  0.6297  3.5946 -0.1853
  299MOL0     H40354   0.929   3.056   2.036  0.4706  0.1879  1.3237
  299MOL0     H40355   0.964   2.882   1.855  0.3655 -0.5665  2.3985
  299MOL0     H40356   0.819   2.883   1.960  1.0223 -2.6554  0.5238
  299MOL0     H40357   0.842   2.806   1.658 -1.1907  1.7699  0.7116
  299MOL0     H40358   0.694   2.808   1.755 -0.6484  0.6821  2.0101
  299MOL0     H40359   0.788   2.576   1.741 -0.9406 -1.0997  0.8964
  299MOL0     H40360   0.782   2.645   1.908 -2.8043 -1.7105 -1.3966
  299MOL0     H40361   1.027   2.686   1.898  2.3999 -1.2162 -2.2435
  299MOL0     H40362   1.033   2.625   1.730 -4.1779 -0.8195 -2.4569
  299MOL0     H40363   1.048   2.280   1.966 -0.3266 -0.0054  1.7536
  299MOL0     H40364   0.753   3.221   1.683 -3.5385  0.7256  1.5940
  299MOL0     H40365   0.768   3.443   1.778 -1.5358 -0.4144  2.1419
  300MOL0     O40366   3.102   3.457   4.547 -0.5086 -0.6163 -0.0997
  300MOL0     C40367   3.040   3.371   4.614  0.0586 -0.7751 -0.1462
  300MOL0     O40368   3.072   3.239   4.624  0.5118 -0.0704 -0.7643
  300MOL0     C40369   3.171   3.191   4.542  0.2396  0.4007  0.1792
  300MOL0     C40370   3.141   3.080   4.467  0.0678 -0.9169  0.5722
  300MOL0     C40371   3.231   3.008   4.391  0.0495  0.1833  0.2920
  300MOL0     C40372   3.359   3.048   4.386 -1.1827 -0.6031 -0.7413
  300MOL0     O40373   3.453   2.990   4.308  0.2445  1.0435  0.5764
  300MOL0     C40374   3.426   2.879   4.220  0.5551 -0.2875 -0.7465
  300MOL0     C40375   3.551   2.887   4.128  0.4310  0.4483 -1.2332
  300MOL0     C40376   3.668   2.812   4.189  0.3087 -0.5942  0.0394
  300MOL0     C40377   3.651   2.660   4.200  0.0772 -0.3863  0.6456
  300MOL0     C40378   3.786   2.587   4.205  0.6055  0.9537  0.4258
  300MOL0     C40379   3.772   2.434   4.180 -0.6152 -0.0361 -0.1319
  300MOL0     C40380   3.775   2.414   4.022 -0.4199  0.4386  0.0605
  300MOL0     C40381   3.771   2.266   3.980 -0.1497 -0.3306  0.6742
  300MOL0     N40382   3.729   2.246   3.841  0.4991 -0.4281 -0.1033
  300MOL0     C40383   3.754   2.336   3.741 -0.0820 -0.6127 -0.6580
  300MOL0     C40384   3.695   2.288   3.625 -0.3774  0.6928  0.8116
  300MOL0     C40385   3.695   2.336   3.480 -1.0011 -0.3680 -0.3432
  300MOL0     C40386   3.792   2.451   3.463  0.7479  0.1450  0.8071
  300MOL0     C40387   3.828   2.474   3.311 -0.4249  0.2907  1.0875
  300MOL0     C40388   3.791   2.619   3.274  0.6752 -0.1845 -0.5530
  300MOL0     O40389   3.880   2.711   3.333 -0.3314 -0.3878 -0.0083
  300MOL0     C40390   3.808   2.811   3.395 -0.9000 -0.2810 -0.0632
  300MOL0     C40391   3.784   2.813   3.533  0.2414  1.0163  0.5700
  300MOL0     C40392   3.693   2.889   3.603 -1.0441 -0.7677 -0.3082
  300MOL0     C40393   3.661   2.857   3.755 -0.3839  0.1390  0.4663
  300MOL0     C40394   3.630   2.988   3.522 -0.1346 -0.2471  1.4593
  300MOL0     C40395   3.517   3.086   3.574 -0.7320 -0.4688 -1.0969
  300MOL0     O40396   3.445   3.166   3.492 -0.7744  0.0993  0.0504
  300MOL0     C40397   3.326   3.212   3.539 -0.8802  0.1965  0.8070
  300MOL0     C40398   3.210   3.160   3.491  0.0975  0.0940 -0.4852
  300MOL0     C40399   3.088   3.225   3.531  0.9750 -0.6001  1.0415
  300MOL0     C40400   3.090   3.343   3.608  0.4607  0.6079 -0.0437
  300MOL0     O40401   2.981   3.411   3.650 -0.1459  0.3200 -0.8273
  300MOL0     C40402   2.990   3.552   3.629  0.4634  0.1260  0.2551
  300MOL0     C40403   2.849   3.617   3.659 -0.7964  0.3972  0.3931
  300MOL0     C40404   2.745   3.583   3.552  0.1066  0.1725  0.2280
  300MOL0     C40405   2.613   3.667   3.563  0.5017 -0.4972 -0.1405
  300MOL0     C40406   2.511   3.620   3.463  0.0287  0.8168  0.8370
  300MOL0     C40407   2.376   3.698   3.475 -0.1120 -0.8307  0.0181
  300MOL0     C40408   2.385   3.840   3.402 -0.5214  0.3071 -0.0559
  300MOL0     C40409   2.256   3.911   3.427 -0.7091 -0.2261 -0.5622
  300MOL0    Cl40410   2.243   3.937   3.598 -0.0867  0.2051 -0.0482
  300MOL0     C40411   3.211   3.383   3.657 -0.1931 -0.2877  0.1416
  300MOL0     C40412   3.338   3.328   3.614  0.1496 -0.0912 -0.2476
  300MOL0     O40413   3.508   3.091   3.699  0.2470  0.3041 -0.2303
  300MOL0     C40414   3.665   3.003   3.381 -0.6923 -0.2829 -0.3539
  300MOL0     C40415   3.754   2.909   3.320 -0.2310 -0.8154  0.0856
  300MOL0     N40416   3.642   2.164   3.665  0.1224  0.4601 -0.3846
  300MOL0     N40417   3.662   2.135   3.797  0.1648 -0.4967  0.6182
  300MOL0     C40418   3.402   3.169   4.447 -0.4459 -0.1912  0.1093
  300MOL0     C40419   3.304   3.236   4.531  1.3041  0.1105  0.7254
  300MOL0     C40420   2.932   3.433   4.694  0.2432 -0.5252 -0.5792
  300MOL0     C40421   2.815   3.357   4.729  0.7795  0.9450  0.1225
  300MOL0     C40422   2.721   3.416   4.817 -0.3717  0.5627 -0.0415
  300MOL0     C40423   2.745   3.548   4.877 -0.8188 -0.1770  0.3258
  300MOL0     O40424   2.659   3.600   4.968  0.4151  1.1963 -0.5961
  300MOL0     C40425   2.715   3.621   5.099 -0.3811 -0.4257 -0.3671
  300MOL0     C40426   2.621   3.567   5.218 -0.6258  0.2292 -0.4378
  300MOL0     C40427   2.711   3.618   5.334 -0.3392 -0.0302 -0.6267
  300MOL0     C40428   2.652   3.583   5.480 -0.4411  0.1692  1.2716
  300MOL0     C40429   2.762   3.610   5.569 -0.7387  0.6487 -0.7131
  300MOL0     C40430   2.835   3.652   5.657  0.2444  0.6494 -0.4513
  300MOL0     C40431   2.853   3.627   4.826 -1.3731  0.1152 -0.7493
  300MOL0     C40432   2.952   3.571   4.744  0.1913 -0.1893 -0.3754
  300MOL0     H40433   3.039   3.043   4.467  0.5096 -2.4448 -2.4829
  300MOL0     H40434   3.192   2.925   4.332  1.7234 -0.4140 -0.0157
  300MOL0     H40435   3.420   2.793   4.288 -0.7525  0.2057 -0.2200
  300MOL0     H40436   3.332   2.884   4.165  1.0197  3.3019 -1.4475
  300MOL0     H40437   3.527   2.833   4.037 -2.5546  1.4398 -1.1317
  300MOL0     H40438   3.582   2.987   4.096  1.4448  0.2994 -0.7688
  300MOL0     H40439   3.753   2.816   4.120  3.2035 -2.0879  3.1991
  300MOL0     H40440   3.694   2.853   4.286  0.7704  0.2173 -0.4201
  300MOL0     H40441   3.606   2.652   4.299 -0.0060  2.4509  0.9220
  300MOL0     H40442   3.587   2.647   4.112 -1.9231  2.8970  1.4114
  300MOL0     H40443   3.859   2.624   4.133 -0.0015  0.9758 -0.1842
  300MOL0     H40444   3.823   2.609   4.305 -1.7077  0.7736  1.3872
  300MOL0     H40445   3.858   2.384   4.226  1.4589  0.9994 -2.6436
  300MOL0     H40446   3.687   2.383   4.226  0.0863 -1.1351 -0.0170
  300MOL0     H40447   3.690   2.466   3.977 -0.2596  0.4281 -0.2572
  300MOL0     H40448   3.863   2.461   3.977 -1.5340  3.2568  0.6504
  300MOL0     H40449   3.700   2.209   4.041 -0.2127 -3.1814 -1.8413
  300MOL0     H40450   3.873   2.230   3.996  1.3284  1.8470 -2.8192
  300MOL0     H40451   3.811   2.428   3.748 -0.4398 -0.4143 -0.2815
  300MOL0     H40452   3.711   2.245   3.421  1.2831 -1.0261  1.1383
  300MOL0     H40453   3.595   2.376   3.464 -0.4059  1.0663 -0.6753
  300MOL0     H40454   3.880   2.407   3.510  0.1718  0.1782  1.9661
  300MOL0     H40455   3.757   2.539   3.519 -2.2588 -2.3494  3.2361
  300MOL0     H40456   3.779   2.405   3.242  2.3001  0.4846 -1.2543
  300MOL0     H40457   3.932   2.442   3.294 -0.6131  0.3806 -0.4084
  300MOL0     H40458   3.688   2.634   3.308  0.9191  0.1432  0.0539
  300MOL0     H40459   3.780   2.625   3.165 -1.7876 -1.7289 -0.4693
  300MOL0     H40460   3.829   2.737   3.596 -1.5258 -0.4083  0.2137
  300MOL0     H40461   3.558   2.821   3.769 -0.3906  0.3898  1.1026
  300MOL0     H40462   3.731   2.783   3.794  0.4371  1.1672  0.9766
  300MOL0     H40463   3.684   2.940   3.822 -2.7097 -0.5148  2.2322
  300MOL0     H40464   3.216   3.072   3.428  1.5481 -0.6248  0.5878
  300MOL0     H40465   2.994   3.197   3.484  0.1719  2.6740  0.4094
  300MOL0     H40466   3.055   3.600   3.703  0.7701 -3.5687  2.6659
  300MOL0     H40467   3.025   3.581   3.530 -0.1444 -1.6832 -0.5330
  300MOL0     H40468   2.807   3.594   3.757 -0.7588  0.3702  0.4028
  300MOL0     H40469   2.865   3.725   3.653  0.6570  0.5223  4.2056
  300MOL0     H40470   2.733   3.474   3.552 -0.2033  0.1134  3.7994
  300MOL0     H40471   2.782   3.600   3.450 -5.4859 -1.4120 -2.4852
  300MOL0     H40472   2.588   3.656   3.668  1.3472 -0.7373  0.0466
  300MOL0     H40473   2.637   3.772   3.539 -0.0630 -0.4477 -0.5146
  300MOL0     H40474   2.494   3.514   3.480  4.7748 -0.5411 -1.3648
  300MOL0     H40475   2.552   3.634   3.363  2.1650 -0.4676  1.4677
  300MOL0     H40476   2.300   3.647   3.415 -1.8026  0.8108  0.6647
  300MOL0     H40477   2.342   3.686   3.578  2.1557 -0.3316  0.8928
  300MOL0     H40478   2.404   3.830   3.295  3.1056  0.4579  0.4623
  300MOL0     H40479   2.451   3.900   3.466 -1.4375 -0.6486  1.8787
  300MOL0     H40480   2.175   3.851   3.385  0.4465 -1.9900 -0.3891
  300MOL0     H40481   2.242   4.007   3.376  2.5620  3.0039  3.8464
  300MOL0     H40482   3.221   3.467   3.726 -1.7809  1.7984 -2.0083
  300MOL0     H40483   3.431   3.358   3.662  0.0828 -2.3265  1.4676
  300MOL0     H40484   3.630   3.094   3.334  0.1699  0.5936  0.6428
  300MOL0     H40485   3.766   2.915   3.212 -0.6647  0.0634  0.0732
  300MOL0     H40486   3.505   3.194   4.469  0.3983 -2.1963 -1.2792
  300MOL0     H40487   3.343   3.305   4.605 -1.4423 -1.5376  3.9832
  300MOL0     H40488   2.795   3.254   4.701 -1.5565  1.2668  0.3507
  300MOL0     H40489   2.630   3.359   4.832  0.4066 -0.9845 -0.9532
  300MOL0     H40490   2.814   3.575   5.100 -0.0461 -0.3141 -5.0193
  300MOL0     H40491   2.736   3.729   5.105  2.1306 -0.6362 -2.9815
  300MOL0     H40492   2.615   3.458   5.215  2.1908 -0.0038  0.2984
  300MOL0     H40493   2.522   3.613   5.217 -0.5120  0.4755 -0.1556
  300MOL0     H40494   2.701   3.727   5.324 -0.0729  0.1619  0.9623
  300MOL0     H40495   2.811   3.576   5.325 -1.4981 -3.1969  0.0099
  300MOL0     H40496   2.630   3.476   5.485 -1.9293  0.3412 -0.5419
  300MOL0     H40497   2.562   3.642   5.501 -1.2888 -0.3224 -0.7563
  300MOL0     H40498   2.909   3.684   5.727  1.4897  0.6510 -1.7245
  300MOL0     H40499   2.872   3.717   4.885 -0.0884 -0.4967 -0.1864
  300MOL0     H40500   3.044   3.623   4.719  0.6954 -0.5960  0.6133
  301MOL0     O40501   4.590   3.851   6.232  0.0273  0.4772 -0.3281
  301MOL0     C40502   4.589   3.912   6.344 -0.8248  0.8908  0.8428
  301MOL0     O40503   4.480   3.922   6.419  0.0331 -0.0905 -0.8296
  301MOL0     C40504   4.361   3.872   6.390  0.5118  0.3512 -0.2820
  301MOL0     C40505   4.265   3.832   6.488  0.8416  0.1705 -0.2942
  301MOL0     C40506   4.130   3.791   6.446  0.1444  0.3225 -0.9819
  301MOL0     C40507   4.093   3.801   6.312  1.3435  0.8561 -0.0968
  301MOL0     O40508   3.967   3.767   6.266  0.9038 -0.5808 -0.9027
  301MOL0     C40509   3.860   3.748   6.365 -0.4133  0.5148 -0.0923
  301MOL0     C40510   3.709   3.750   6.299 -0.3888  1.3974  0.2666
  301MOL0     C40511   3.673   3.897   6.263 -0.2933  0.3753  0.9204
  301MOL0     C40512   3.540   3.875   6.174 -0.0451 -0.2060 -1.0311
  301MOL0     C40513   3.477   4.007   6.134 -0.3566  0.2684 -0.3482
  301MOL0     C40514   3.362   3.984   6.040  0.8853  0.2000  0.7435
  301MOL0     C40515   3.285   4.111   5.995 -1.0751  0.3931 -0.6335
  301MOL0     C40516   3.179   4.076   5.884  1.5062  0.9522 -0.0600
  301MOL0     N40517   3.049   4.025   5.936  0.4372  0.3997 -0.0941
  301MOL0     C40518   2.957   4.100   6.002 -0.7455  0.5150 -1.6301
  301MOL0     C40519   2.846   4.017   6.014  0.1434 -1.0503 -0.0215
  301MOL0     C40520   2.714   4.061   6.067  0.2281 -0.0671 -0.4232
  301MOL0     C40521   2.701   4.067   6.214 -0.0660 -0.4868 -0.1668
  301MOL0     C40522   2.638   3.945   6.291  0.0105 -0.0799 -0.0515
  301MOL0     C40523   2.477   3.946   6.266  0.0048  0.1915 -0.1688
  301MOL0     O40524   2.433   3.802   6.283  0.1077 -0.1672  1.2396
  301MOL0     C40525   2.376   3.720   6.185 -0.7901 -1.4704  0.4953
  301MOL0     C40526   2.349   3.751   6.046  1.1029  0.2531 -0.3978
  301MOL0     C40527   2.317   3.653   5.957 -0.6440  0.3375  0.4659
  301MOL0     C40528   2.287   3.700   5.811 -0.7120  0.1977 -0.4141
  301MOL0     C40529   2.292   3.518   5.996 -0.2852  0.4701  0.7128
  301MOL0     C40530   2.230   3.411   5.908  0.4901  0.1788  0.2177
  301MOL0     O40531   2.150   3.315   5.973 -0.8932 -0.8270 -0.6837
  301MOL0     C40532   2.145   3.197   5.910 -0.1386  0.1647  0.3877
  301MOL0     C40533   2.077   3.194   5.789  0.0755  0.2057 -0.1033
  301MOL0     C40534   2.069   3.073   5.719  0.5195 -0.8355  0.4368
  301MOL0     C40535   2.109   2.944   5.772  1.0150 -0.1046  0.2585
  301MOL0     O40536   2.097   2.825   5.707 -0.0407  0.9680  0.4193
  301MOL0     C40537   2.093   2.837   5.557  1.0376  0.2352 -0.4758
  301MOL0     C40538   2.072   2.699   5.497 -0.3728  0.0420  0.2212
  301MOL0     C40539   1.965   2.616   5.577  0.7799  0.6581 -0.0952
  301MOL0     C40540   1.925   2.470   5.516  0.6255 -0.7222 -0.1429
  301MOL0     C40541   1.825   2.385   5.590  0.0937 -0.2694 -0.2030
  301MOL0     C40542   1.827   2.235   5.543  0.3313 -0.8352 -0.6008
  301MOL0     C40543   1.734   2.155   5.647  0.1077 -0.4731  0.8314
  301MOL0     C40544   1.705   2.005   5.614  0.3379 -1.0323 -0.0754
  301MOL0    Cl40545   1.613   2.013   5.469  0.6063 -0.0060 -0.1869
  301MOL0     C40546   2.170   2.947   5.895 -0.3290  0.3285  0.1194
  301MOL0     C40547   2.196   3.070   5.960  0.3390 -1.6933  0.2859
  301MOL0     O40548   2.259   3.415   5.790 -0.6302  0.3015 -0.5087
  301MOL0     C40549   2.307   3.490   6.132 -0.9199 -0.0809 -0.0042
  301MOL0     C40550   2.348   3.588   6.224 -0.6425 -0.6350 -0.7630
  301MOL0     N40551   2.883   3.889   5.974  0.5132 -0.5715  0.9816
  301MOL0     N40552   3.011   3.891   5.938  0.4041 -0.2031  0.1417
  301MOL0     C40553   4.181   3.847   6.221 -0.3402 -0.2338 -0.9101
  301MOL0     C40554   4.314   3.884   6.256  0.0292  0.2781 -0.3608
  301MOL0     C40555   4.706   3.990   6.385 -0.0691  0.4317  0.0386
  301MOL0     C40556   4.712   4.054   6.501 -0.0845 -1.0568 -0.0169
  301MOL0     C40557   4.822   4.117   6.549 -1.0962  0.1201  0.6178
  301MOL0     C40558   4.946   4.107   6.487  0.3779 -0.5713 -0.4990
  301MOL0     O40559   5.057   4.179   6.533  0.4880  0.9933  0.2093
  301MOL0     C40560   5.186   4.120   6.500  0.0001 -0.0628  1.0887
  301MOL0     C40561   5.260   4.209   6.400  0.3931 -0.1410 -0.2193
  301MOL0     C40562   5.307   4.348   6.462 -0.3473 -0.3774 -0.1346
  301MOL0     C40563   5.463   4.352   6.436  0.6371  0.1967 -0.6660
  301MOL0     C40564   5.514   4.451   6.529 -0.3447  0.2337 -0.3821
  301MOL0     C40565   5.568   4.541   6.604  0.2779  0.2549 -0.5507
  301MOL0     C40566   4.944   4.042   6.365  0.4620  0.9679  0.5614
  301MOL0     C40567   4.829   3.979   6.312  0.5802 -0.0212  0.7498
  301MOL0     H40568   4.288   3.828   6.594  1.5139 -1.6151 -0.4820
  301MOL0     H40569   4.070   3.745   6.524  0.1897 -0.5266 -1.4369
  301MOL0     H40570   3.874   3.651   6.415 -3.0111 -0.1070 -0.4253
  301MOL0     H40571   3.861   3.832   6.435  0.1000  3.2200 -3.1082
  301MOL0     H40572   3.703   3.692   6.207  0.7250  2.2380 -0.3632
  301MOL0     H40573   3.635   3.705   6.366 -0.2153 -1.0787 -1.0901
  301MOL0     H40574   3.647   3.953   6.353 -0.7245 -0.3285  1.2480
  301MOL0     H40575   3.744   3.951   6.200  3.3252 -3.3156  1.3404
  301MOL0     H40576   3.550   3.806   6.090  0.0516  0.0065 -1.1944
  301MOL0     H40577   3.474   3.826   6.247 -0.6214  2.5073  0.3941
  301MOL0     H40578   3.443   4.054   6.227 -0.5728 -1.7056  0.6349
  301MOL0     H40579   3.556   4.067   6.088  2.5484 -3.7965 -1.1888
  301MOL0     H40580   3.402   3.944   5.947  0.4638  0.6158  0.3779
  301MOL0     H40581   3.283   3.917   6.074 -1.1714 -0.1568 -3.9730
  301MOL0     H40582   3.229   4.154   6.078  2.3534 -1.1042  2.7693
  301MOL0     H40583   3.359   4.185   5.962  0.1877  0.9597  3.0954
  301MOL0     H40584   3.216   3.995   5.820 -2.5145  0.6170 -2.3412
  301MOL0     H40585   3.156   4.163   5.822 -2.5463  0.1096 -0.0498
  301MOL0     H40586   2.967   4.203   6.035 -1.6367  0.1218 -0.0148
  301MOL0     H40587   2.677   4.152   6.019  0.3191 -0.2166 -0.7793
  301MOL0     H40588   2.642   3.989   6.026  0.0456 -0.7256  1.0037
  301MOL0     H40589   2.649   4.160   6.237 -0.6775 -1.1802  1.3779
  301MOL0     H40590   2.798   4.088   6.261 -0.2451 -0.3514  0.1507
  301MOL0     H40591   2.653   3.934   6.399 -1.1180 -0.2785  0.0997
  301MOL0     H40592   2.675   3.853   6.245 -1.2899 -1.1755  0.9906
  301MOL0     H40593   2.472   3.979   6.162  4.3908 -2.8694 -1.6201
  301MOL0     H40594   2.422   4.000   6.344  1.6544  3.7314 -1.2731
  301MOL0     H40595   2.370   3.853   6.016  2.0701  0.4874  0.9561
  301MOL0     H40596   2.207   3.645   5.761 -1.8703  1.9137 -0.5216
  301MOL0     H40597   2.247   3.802   5.810 -0.3143  0.4842  2.9895
  301MOL0     H40598   2.378   3.678   5.754 -1.7643  1.1599 -2.5887
  301MOL0     H40599   2.046   3.279   5.729 -2.0388  0.6783  1.5442
  301MOL0     H40600   2.040   3.094   5.617  1.3708  0.7065  0.4938
  301MOL0     H40601   2.016   2.904   5.519  1.1159 -0.1886 -1.3949
  301MOL0     H40602   2.192   2.877   5.531  0.8843  1.1500  0.2710
  301MOL0     H40603   2.029   2.719   5.398 -1.0972  0.1547  0.5561
  301MOL0     H40604   2.169   2.650   5.507  0.5202  1.7232  0.1008
  301MOL0     H40605   1.872   2.672   5.582  0.5531  0.4166 -1.2169
  301MOL0     H40606   2.000   2.607   5.680  4.7539 -1.7971 -1.4249
  301MOL0     H40607   1.888   2.489   5.415  0.9827 -3.6138 -0.9152
  301MOL0     H40608   2.016   2.412   5.503  0.6433 -0.6325 -0.4268
  301MOL0     H40609   1.725   2.427   5.571  0.7684  1.7365  0.4639
  301MOL0     H40610   1.843   2.398   5.697 -2.9603 -0.6213  0.4656
  301MOL0     H40611   1.796   2.222   5.439  1.4441 -0.9964 -0.9198
  301MOL0     H40612   1.933   2.211   5.555  1.6419  3.9203 -0.4690
  301MOL0     H40613   1.643   2.215   5.658  0.8111  0.5308  1.2808
  301MOL0     H40614   1.785   2.167   5.743 -2.2332  2.4325  1.8863
  301MOL0     H40615   1.656   1.953   5.697 -2.8378  2.5498  0.5588
  301MOL0     H40616   1.797   1.951   5.589  0.9799 -0.6521  1.3323
  301MOL0     H40617   2.203   2.859   5.949  0.7049  0.8638  0.3873
  301MOL0     H40618   2.242   3.072   6.058 -4.8487  0.4537  3.1053
  301MOL0     H40619   2.296   3.394   6.182 -2.0295  1.1788  2.3569
  301MOL0     H40620   2.393   3.565   6.320  2.1523  1.3405 -1.4721
  301MOL0     H40621   4.164   3.864   6.115  3.4316 -3.7563 -2.3628
  301MOL0     H40622   4.378   3.931   6.182  1.0441  0.8266  0.8435
  301MOL0     H40623   4.624   4.067   6.564 -2.3513 -0.5703 -3.0488
  301MOL0     H40624   4.825   4.166   6.645  1.3400 -0.7233  1.0584
  301MOL0     H40625   5.253   4.106   6.585  1.1235 -4.5272 -0.2834
  301MOL0     H40626   5.176   4.024   6.447 -0.4379  0.2505  0.5934
  301MOL0     H40627   5.184   4.242   6.328 -1.8656  1.8211  2.8046
  301MOL0     H40628   5.348   4.157   6.360  1.5436  1.4923  0.0531
  301MOL0     H40629   5.290   4.361   6.569 -1.4174 -2.3569 -0.0129
  301MOL0     H40630   5.261   4.431   6.409 -1.3193 -0.1759  0.9939
  301MOL0     H40631   5.481   4.377   6.331 -2.7069  3.8702 -0.5999
  301MOL0     H40632   5.501   4.253   6.460 -2.6417 -0.6841  1.6334
  301MOL0     H40633   5.616   4.618   6.659  0.1908  0.6843 -1.0666
  301MOL0     H40634   5.032   4.042   6.301  0.1946  0.6342  0.1904
  301MOL0     H40635   4.842   3.927   6.218 -0.9633  0.2169  0.3930
  302MOL0     O40636   3.737  10.369   7.941  0.1622  0.0676 -0.3686
  302MOL0     C40637   3.796  10.267   7.909 -0.0722  0.5358  0.3934
  302MOL0     O40638   3.929  10.261   7.868  0.3039  0.0732 -0.3956
  302MOL0     C40639   4.001  10.371   7.862  0.5764  0.0250 -0.1143
  302MOL0     C40640   4.043  10.440   7.984 -0.6094  0.0686  0.9944
  302MOL0     C40641   4.117  10.565   7.972 -0.5516 -0.1015  0.2339
  302MOL0     C40642   4.124  10.634   7.852 -0.8632 -0.5867  1.5319
  302MOL0     O40643   4.166  10.763   7.835 -0.0373 -0.2776 -0.2214
  302MOL0     C40644   4.067  10.847   7.784  0.5745  0.1155 -0.3359
  302MOL0     C40645   4.079  10.889   7.635  0.3533 -0.5347 -0.2029
  302MOL0     C40646   3.978  11.010   7.598 -0.2109 -0.0829  0.1293
  302MOL0     C40647   4.030  11.103   7.481  0.0552  0.0080 -0.7468
  302MOL0     C40648   3.955  11.233   7.480 -0.2244 -0.1401  0.3907
  302MOL0     C40649   4.021  11.324   7.373  0.8290  0.6834  0.1816
  302MOL0     C40650   3.940  11.448   7.374 -1.2548 -0.6242 -0.2039
  302MOL0     C40651   4.020  11.558   7.311 -0.5997 -0.2937 -0.4633
  302MOL0     N40652   3.935  11.665   7.262 -0.5827 -0.4191  0.0557
  302MOL0     C40653   3.834  11.729   7.329  0.0269 -0.7376 -0.0966
  302MOL0     C40654   3.769  11.789   7.226 -0.3862  0.7752 -0.4279
  302MOL0     C40655   3.643  11.882   7.244 -0.0242  0.7760 -0.8939
  302MOL0     C40656   3.569  11.850   7.371 -0.0055  0.0881 -1.1316
  302MOL0     C40657   3.444  11.928   7.405  0.5312  1.1350  0.1341
  302MOL0     C40658   3.461  12.073   7.419  0.1904 -0.0887  0.1058
  302MOL0     O40659   3.532  12.093   7.548 -0.3445 -0.5265  0.2604
  302MOL0     C40660   3.555  12.223   7.583  0.4920  0.1108  0.0506
  302MOL0     C40661   3.538  12.340   7.510  0.1937 -0.1351 -0.4048
  302MOL0     C40662   3.550  12.464   7.575 -0.3141 -0.1261 -0.3038
  302MOL0     C40663   3.502  12.589   7.508  0.0011 -0.1466  0.9876
  302MOL0     C40664   3.605  12.468   7.710  0.4439  0.4020 -0.2150
  302MOL0     C40665   3.631  12.591   7.779 -0.2163 -0.6952  0.2980
  302MOL0     O40666   3.589  12.601   7.905  0.0741 -0.6479 -0.2545
  302MOL0     C40667   3.609  12.714   7.979 -0.0217 -0.1500  0.2832
  302MOL0     C40668   3.509  12.816   7.989 -0.0755 -0.0807 -0.2319
  302MOL0     C40669   3.519  12.921   8.081  0.6516 -0.2625 -0.1130
  302MOL0     C40670   3.642  12.943   8.141  0.0348  0.2659  1.5740
  302MOL0     O40671   3.669  13.057   8.208  0.0333 -0.4816  0.2020
  302MOL0     C40672   3.694  13.166   8.124 -0.1205 -0.3755  0.5248
  302MOL0     C40673   3.834  13.213   8.151 -0.3076  0.4366 -0.1839
  302MOL0     C40674   3.886  13.315   8.049 -0.4000 -0.0879 -0.0324
  302MOL0     C40675   4.041  13.332   8.076 -0.1177  0.5829  0.1788
  302MOL0     C40676   4.092  13.473   8.067  0.7772 -0.1679 -0.1814
  302MOL0     C40677   4.007  13.590   8.128 -0.6506  0.0517 -0.6066
  302MOL0     C40678   3.974  13.549   8.281  1.0975 -0.8777  0.8556
  302MOL0     C40679   3.938  13.667   8.371 -1.1389  0.3588 -0.2220
  302MOL0    Cl40680   3.841  13.585   8.493  0.4589 -0.5797 -0.0614
  302MOL0     C40681   3.748  12.850   8.123 -0.6299  0.3178  0.6800
  302MOL0     C40682   3.731  12.732   8.048  1.0072  0.1853  0.1427
  302MOL0     O40683   3.694  12.681   7.719  0.7469 -0.0210 -0.3208
  302MOL0     C40684   3.610  12.346   7.785 -0.0993 -0.7230 -0.1293
  302MOL0     C40685   3.584  12.228   7.719 -0.3385 -0.4880 -0.0707
  302MOL0     N40686   3.840  11.769   7.101 -0.1747  0.0146 -1.1296
  302MOL0     N40687   3.948  11.705   7.130 -0.4064 -0.4998  0.1585
  302MOL0     C40688   4.084  10.557   7.740  0.1212 -0.1853  0.6884
  302MOL0     C40689   4.026  10.428   7.738 -0.2735  0.4118 -0.9808
  302MOL0     C40690   3.726  10.142   7.908  2.0734  1.2491  0.0660
  302MOL0     C40691   3.793  10.019   7.911 -0.7635  0.0603  0.7183
  302MOL0     C40692   3.724   9.899   7.918  0.3911 -0.4409  0.2782
  302MOL0     C40693   3.587   9.902   7.931  0.2981  1.2503  0.3595
  302MOL0     O40694   3.541   9.767   7.934  0.2894 -0.5705  0.1508
  302MOL0     C40695   3.397   9.754   7.940 -0.2089 -0.4547 -0.0191
  302MOL0     C40696   3.348   9.610   7.922  0.1669 -0.2173 -0.0869
  302MOL0     C40697   3.192   9.579   7.963 -0.6647 -0.0680 -0.4161
  302MOL0     C40698   3.096   9.581   7.842  0.6171  0.0807 -0.5522
  302MOL0     C40699   3.119   9.691   7.745  0.0791  0.2655 -0.7627
  302MOL0     C40700   3.151   9.794   7.687 -0.0898  0.1579  0.6454
  302MOL0     C40701   3.514  10.016   7.928 -0.0900 -1.7606 -0.5965
  302MOL0     C40702   3.585  10.133   7.905 -0.7238 -0.4088 -0.1695
  302MOL0     H40703   4.029  10.392   8.080 -1.8235 -2.8280 -0.5078
  302MOL0     H40704   4.162  10.595   8.066 -1.2662  0.8530  0.2802
  302MOL0     H40705   3.968  10.802   7.785  0.6030 -0.0052  2.5253
  302MOL0     H40706   4.065  10.939   7.843  1.1311  1.6050 -2.4744
  302MOL0     H40707   4.184  10.921   7.632  0.0292  0.6477  0.4284
  302MOL0     H40708   4.074  10.812   7.557  1.3356  1.2396 -2.1025
  302MOL0     H40709   3.877  10.979   7.569 -0.3810 -0.0776  0.6965
  302MOL0     H40710   3.959  11.078   7.682 -0.4744 -0.4172  0.3468
  302MOL0     H40711   4.129  11.126   7.521  0.4109 -1.8181 -0.4756
  302MOL0     H40712   4.020  11.068   7.378  1.8529  5.0114 -2.9574
  302MOL0     H40713   3.855  11.208   7.442 -0.2825 -0.7122  0.9104
  302MOL0     H40714   3.940  11.287   7.574  0.3580  2.1714 -0.7608
  302MOL0     H40715   4.109  11.366   7.424  0.5488 -0.9679  2.1097
  302MOL0     H40716   4.057  11.279   7.280  3.1248 -0.2139  1.4141
  302MOL0     H40717   3.852  11.429   7.311 -1.6680  1.7967 -0.4753
  302MOL0     H40718   3.911  11.481   7.474 -1.6649 -0.5402 -0.3477
  302MOL0     H40719   4.077  11.515   7.228 -3.3682 -0.9991 -2.1096
  302MOL0     H40720   4.090  11.598   7.386  0.0348 -0.9006 -0.7225
  302MOL0     H40721   3.798  11.716   7.430 -0.6796 -0.2426 -0.2760
  302MOL0     H40722   3.676  11.984   7.267 -0.1795  0.1346  2.7420
  302MOL0     H40723   3.578  11.879   7.156  2.5005  0.0544 -2.8584
  302MOL0     H40724   3.634  11.849   7.459 -1.8273 -2.1325  0.3086
  302MOL0     H40725   3.527  11.750   7.360  0.5139 -0.1721 -0.8157
  302MOL0     H40726   3.422  11.895   7.506  1.7453  1.1208  0.4077
  302MOL0     H40727   3.364  11.900   7.335  0.1715 -0.0235  0.9785
  302MOL0     H40728   3.363  12.120   7.426 -0.7399 -1.7338 -1.1267
  302MOL0     H40729   3.502  12.118   7.328  0.1035 -3.1580 -1.5900
  302MOL0     H40730   3.493  12.341   7.411 -1.2526 -0.7869  0.2216
  302MOL0     H40731   3.451  12.572   7.413 -1.3502  2.6370  1.1122
  302MOL0     H40732   3.444  12.643   7.584 -1.2189  1.3904 -0.9455
  302MOL0     H40733   3.588  12.651   7.485  1.8541 -3.1246 -0.6768
  302MOL0     H40734   3.421  12.798   7.928  1.2735  0.0910 -2.3337
  302MOL0     H40735   3.444  12.998   8.091  2.0375  0.8095  3.5886
  302MOL0     H40736   3.679  13.135   8.020  1.8129 -1.1530  0.4527
  302MOL0     H40737   3.634  13.256   8.144 -1.5131 -1.3260  0.7615
  302MOL0     H40738   3.835  13.259   8.251  2.3950  0.3347 -0.0917
  302MOL0     H40739   3.911  13.135   8.146 -0.2752  0.4246  0.4620
  302MOL0     H40740   3.829  13.408   8.058 -1.8655 -0.8563 -0.9429
  302MOL0     H40741   3.894  13.267   7.951  3.5268 -1.4775  0.7818
  302MOL0     H40742   4.062  13.295   8.177 -1.3719  3.2037  1.4979
  302MOL0     H40743   4.101  13.267   8.011 -0.1410  0.2213  0.5177
  302MOL0     H40744   4.102  13.505   7.963 -3.0817  3.9505  0.3899
  302MOL0     H40745   4.196  13.468   8.100  1.4288 -0.4186 -2.1294
  302MOL0     H40746   4.061  13.686   8.127 -0.3217 -0.0352  2.1526
  302MOL0     H40747   3.905  13.608   8.094 -0.4082  3.2290 -0.0077
  302MOL0     H40748   4.060  13.503   8.329  1.1271  0.2964  1.9751
  302MOL0     H40749   3.886  13.485   8.267  0.4478  0.5004 -2.3644
  302MOL0     H40750   3.879  13.745   8.323 -2.6554 -1.0813 -0.8112
  302MOL0     H40751   4.026  13.713   8.416 -1.9286  0.9122  0.8089
  302MOL0     H40752   3.834  12.883   8.181  1.9496 -1.3961 -1.8676
  302MOL0     H40753   3.801  12.650   8.037  0.8519 -0.1336  1.4086
  302MOL0     H40754   3.653  12.341   7.884 -0.7522  0.7027  0.2402
  302MOL0     H40755   3.600  12.131   7.764 -0.8087  0.2509  1.7959
  302MOL0     H40756   4.107  10.591   7.639  2.0266 -1.0430  0.7821
  302MOL0     H40757   3.992  10.393   7.642 -0.1247  1.0547 -1.2737
  302MOL0     H40758   3.900  10.005   7.913 -0.9193 -1.3926  3.4648
  302MOL0     H40759   3.774   9.803   7.908  0.8338 -0.7226  3.7734
  302MOL0     H40760   3.366   9.784   8.040  0.6731 -3.4796  1.2830
  302MOL0     H40761   3.354   9.826   7.870  3.7254  2.3184  0.0960
  302MOL0     H40762   3.404   9.536   7.980 -0.5064  0.3700  1.3408
  302MOL0     H40763   3.368   9.580   7.818  1.9726 -0.6414  0.3524
  302MOL0     H40764   3.158   9.653   8.036 -1.3367  1.4483 -2.1956
  302MOL0     H40765   3.190   9.479   8.008  0.2862 -0.6040 -1.5282
  302MOL0     H40766   2.993   9.589   7.879  0.6113  0.0789 -0.5684
  302MOL0     H40767   3.104   9.485   7.791 -1.0959 -2.4534  3.4806
  302MOL0     H40768   3.182   9.874   7.622  3.1022 -0.4285  1.2615
  302MOL0     H40769   3.407  10.036   7.921  0.7500  3.2421 -3.3689
  302MOL0     H40770   3.536  10.230   7.899 -1.7205 -0.9957 -2.3812
  303MOL0     O40771   4.823  10.206  10.234 -0.3589  1.1028  0.3211
  303MOL0     C40772   4.936  10.205  10.188  0.6549  1.0195 -0.4627
  303MOL0     O40773   5.016  10.310  10.173 -0.2762 -0.2890  0.8708
  303MOL0     C40774   4.977  10.446  10.203 -0.5593  0.2697  1.1363
  303MOL0     C40775   4.881  10.493  10.284  0.5207 -0.9080 -0.3092
  303MOL0     C40776   4.871  10.619  10.331  0.2895 -0.4542  0.4401
  303MOL0     C40777   4.962  10.715  10.287 -0.0614  0.2600 -0.1246
  303MOL0     O40778   4.965  10.845  10.326  0.1825 -0.3202 -1.0980
  303MOL0     C40779   4.851  10.900  10.396  0.0487 -0.5996 -0.3077
  303MOL0     C40780   4.901  11.045  10.432  0.1262  0.4347  0.4003
  303MOL0     C40781   5.006  11.062  10.542  0.0522  0.4087  0.0789
  303MOL0     C40782   5.071  11.200  10.547  0.0107 -0.0988 -0.2413
  303MOL0     C40783   4.973  11.317  10.560 -0.2679  1.0070 -0.5809
  303MOL0     C40784   4.905  11.308  10.700 -0.1800 -0.1705 -0.4958
  303MOL0     C40785   4.810  11.418  10.716  0.6527 -0.0568 -0.1341
  303MOL0     C40786   4.881  11.560  10.725 -0.5420  0.7522 -0.2809
  303MOL0     N40787   4.777  11.665  10.753 -0.3716  0.4963  0.3988
  303MOL0     C40788   4.792  11.776  10.829  0.3869  0.6291  0.5846
  303MOL0     C40789   4.684  11.853  10.806  0.0486 -0.4651 -0.1054
  303MOL0     C40790   4.655  11.989  10.863 -0.2268  0.0653 -0.1745
  303MOL0     C40791   4.540  12.057  10.801  0.1233  0.0437  0.5561
  303MOL0     C40792   4.547  12.063  10.646 -0.1587  0.6386 -0.1732
  303MOL0     C40793   4.675  12.128  10.592 -0.5387  0.3417 -0.3339
  303MOL0     O40794   4.699  12.256  10.655  0.4736 -0.3310  0.6299
  303MOL0     C40795   4.763  12.364  10.609 -0.2925 -0.2349  0.4570
  303MOL0     C40796   4.738  12.500  10.662 -0.0217 -0.7708  0.1703
  303MOL0     C40797   4.807  12.610  10.608 -0.1901 -1.0038 -0.1929
  303MOL0     C40798   4.782  12.743  10.673  0.6216 -0.1568  0.0255
  303MOL0     C40799   4.909  12.589  10.508 -0.4563  0.2271 -0.1538
  303MOL0     C40800   4.999  12.696  10.452  0.3373  1.0082  0.0619
  303MOL0     O40801   5.107  12.653  10.377  0.2270  0.4153 -0.2054
  303MOL0     C40802   5.159  12.740  10.292 -0.0437 -0.0832 -0.2828
  303MOL0     C40803   5.283  12.791  10.315  0.5027  0.0431 -0.1650
  303MOL0     C40804   5.337  12.883  10.222 -0.1952 -0.1570 -0.4101
  303MOL0     C40805   5.263  12.929  10.112  0.0651 -0.6555 -0.2534
  303MOL0     O40806   5.318  13.016  10.022  0.1764  0.6103  0.6291
  303MOL0     C40807   5.453  13.040  10.031  0.2680  0.4497  0.2942
  303MOL0     C40808   5.502  13.104   9.903 -0.4462 -0.0593 -0.7087
  303MOL0     C40809   5.431  13.238   9.858  1.5653 -0.8718 -0.2386
  303MOL0     C40810   5.467  13.287   9.713  0.1211  0.1295  0.5037
  303MOL0     C40811   5.417  13.436   9.690 -0.0501  0.9283 -0.1729
  303MOL0     C40812   5.270  13.448   9.717  0.8827 -0.2354  1.0298
  303MOL0     C40813   5.219  13.583   9.664  0.1706 -1.0130 -0.0331
  303MOL0     C40814   5.071  13.615   9.698 -0.9079 -0.5985 -0.2423
  303MOL0    Cl40815   5.061  13.669   9.877  0.0032  0.4832 -0.0265
  303MOL0     C40816   5.137  12.871  10.087  0.6695 -0.5329 -0.3245
  303MOL0     C40817   5.089  12.768  10.172  0.1130 -0.9093 -0.0180
  303MOL0     O40818   4.973  12.812  10.487  0.0940 -0.4948  0.0559
  303MOL0     C40819   4.925  12.455  10.464  0.7425  0.3008  0.7900
  303MOL0     C40820   4.852  12.350  10.507  0.2485  1.1749  0.0031
  303MOL0     N40821   4.603  11.773  10.717  0.2521  0.6402 -0.2028
  303MOL0     N40822   4.668  11.668  10.681  0.1953 -0.6675  1.2607
  303MOL0     C40823   5.068  10.677  10.208 -0.5927  0.6363 -0.0871
  303MOL0     C40824   5.072  10.540  10.156  1.0179 -0.0533 -0.5782
  303MOL0     C40825   4.996  10.074  10.148  0.1616  0.2806  0.0716
  303MOL0     C40826   4.980   9.947  10.212 -0.3421 -0.2542  0.0510
  303MOL0     C40827   5.030   9.835  10.152 -0.1670  0.1392 -0.0826
  303MOL0     C40828   5.085   9.833  10.024  1.4601  0.8251  0.0391
  303MOL0     O40829   5.129   9.716   9.974  0.8077  0.7306  0.0539
  303MOL0     C40830   5.141   9.693   9.834 -0.6188 -0.8281  0.0735
  303MOL0     C40831   5.009   9.691   9.747  0.5083 -0.3026 -0.6057
  303MOL0     C40832   5.041   9.658   9.601  0.2370 -0.5918  0.9116
  303MOL0     C40833   4.919   9.635   9.510  0.1373  0.3716  0.0711
  303MOL0     C40834   4.945   9.602   9.367  0.6601 -0.4419 -1.1031
  303MOL0     C40835   4.958   9.580   9.248 -0.1109 -0.0087 -0.3734
  303MOL0     C40836   5.085   9.956   9.953 -0.5295 -0.6001  0.0572
  303MOL0     C40837   5.051  10.080  10.021  0.5050  0.0484  0.1901
  303MOL0     H40838   4.815  10.419  10.329  0.8608 -2.0738 -1.6505
  303MOL0     H40839   4.801  10.634  10.413  1.9768 -1.5132  2.1556
  303MOL0     H40840   4.766  10.886  10.329  0.1747 -2.1835 -0.1748
  303MOL0     H40841   4.834  10.848  10.491 -2.8211  0.1526 -0.3311
  303MOL0     H40842   4.937  11.088  10.338  0.4353  1.5915  1.0262
  303MOL0     H40843   4.813  11.100  10.465  0.4687  0.3876  1.4131
  303MOL0     H40844   4.967  11.025  10.638  0.6263  0.7832  0.4636
  303MOL0     H40845   5.085  10.991  10.518 -1.6014 -1.5042  0.0041
  303MOL0     H40846   5.129  11.198  10.640 -2.8664  1.6580  1.7703
  303MOL0     H40847   5.117  11.217  10.449 -1.5930  0.4743 -0.9335
  303MOL0     H40848   5.008  11.420  10.551 -0.5535  1.3061  1.3669
  303MOL0     H40849   4.901  11.305  10.479 -0.0596 -0.8042 -0.5553
  303MOL0     H40850   4.866  11.210  10.728  0.1345 -0.0609  0.3565
  303MOL0     H40851   4.988  11.323  10.769  1.0547  4.8405 -2.6021
  303MOL0     H40852   4.735  11.414  10.637 -1.6166  3.8984  1.5526
  303MOL0     H40853   4.760  11.404  10.812 -1.9329  0.8056 -1.2913
  303MOL0     H40854   4.931  11.591  10.633 -2.5598  1.9174 -1.0466
  303MOL0     H40855   4.954  11.563  10.806 -1.6287  3.4123  0.7242
  303MOL0     H40856   4.878  11.801  10.891  1.4637 -3.0255  0.8120
  303MOL0     H40857   4.642  11.979  10.971 -2.4089 -1.5560 -0.5247
  303MOL0     H40858   4.746  12.044  10.837  0.1007 -0.8454 -1.0207
  303MOL0     H40859   4.552  12.162  10.830  2.2491  0.2701 -0.9260
  303MOL0     H40860   4.449  12.018  10.847 -2.2328 -0.1910 -3.8139
  303MOL0     H40861   4.464  12.131  10.620 -3.4094 -3.3839 -1.4218
  303MOL0     H40862   4.527  11.968  10.596  0.6084  0.4255 -0.0700
  303MOL0     H40863   4.668  12.135  10.483 -1.2490 -2.0797 -0.4930
  303MOL0     H40864   4.765  12.072  10.621 -0.3324  1.3557  1.1495
  303MOL0     H40865   4.671  12.517  10.746 -0.7927 -3.2877  0.1471
  303MOL0     H40866   4.718  12.812  10.616 -3.4025 -2.8493  0.8141
  303MOL0     H40867   4.716  12.721  10.758  0.4797  2.4366  0.6721
  303MOL0     H40868   4.871  12.791  10.715  1.6402  0.0449 -2.2389
  303MOL0     H40869   5.346  12.761  10.398  2.7039 -0.6812 -1.9648
  303MOL0     H40870   5.433  12.926  10.248 -0.1771  0.2308 -1.0999
  303MOL0     H40871   5.484  13.099  10.118 -0.0967  1.0069  0.0561
  303MOL0     H40872   5.509  12.948  10.048 -1.2705 -0.3765  1.0903
  303MOL0     H40873   5.605  13.135   9.924 -0.8963  0.8827  0.1884
  303MOL0     H40874   5.512  13.028   9.825  0.0241  1.6728 -2.4214
  303MOL0     H40875   5.457  13.317   9.929  1.7218 -1.2706  0.1599
  303MOL0     H40876   5.324  13.222   9.874  1.0067  2.5530  0.0868
  303MOL0     H40877   5.575  13.285   9.698  0.1428  1.2923  0.3630
  303MOL0     H40878   5.431  13.227   9.629  2.3282  0.1376 -0.5248
  303MOL0     H40879   5.440  13.455   9.585  0.4087 -0.2260 -0.3008
  303MOL0     H40880   5.479  13.495   9.758  2.3275 -2.5486  0.9752
  303MOL0     H40881   5.210  13.369   9.671  0.3290  2.0706 -2.5414
  303MOL0     H40882   5.261  13.442   9.826 -2.2030  0.5173  0.9030
  303MOL0     H40883   5.225  13.578   9.555  1.0782  0.8523 -0.0976
  303MOL0     H40884   5.272  13.663   9.717 -3.3187  0.1932  1.9499
  303MOL0     H40885   5.020  13.524   9.664  2.2705 -1.7325 -2.4041
  303MOL0     H40886   5.034  13.696   9.635  0.8361 -1.8975 -3.1155
  303MOL0     H40887   5.088  12.901   9.995  0.3315 -1.4315 -0.4461
  303MOL0     H40888   5.001  12.708  10.149  0.7489 -0.9105 -2.7330
  303MOL0     H40889   4.991  12.429  10.382 -0.0683 -2.3222  0.8911
  303MOL0     H40890   4.852  12.256  10.453  0.5339  1.9256 -1.3669
  303MOL0     H40891   5.149  10.737  10.167 -0.7262 -0.8157 -2.7411
  303MOL0     H40892   5.155  10.502  10.099  1.5299 -0.9071  0.6842
  303MOL0     H40893   4.920   9.947  10.303  0.7140  0.5426  0.7652
  303MOL0     H40894   5.010   9.745  10.209  0.0741  0.0345 -0.1610
  303MOL0     H40895   5.212   9.762   9.787 -0.8364 -0.6114  0.0659
  303MOL0     H40896   5.191   9.597   9.817 -1.7451 -1.1172 -1.9433
  303MOL0     H40897   4.957   9.787   9.747  1.4137  0.3181  2.7913
  303MOL0     H40898   4.934   9.623   9.787 -1.5895 -0.0674 -3.8122
  303MOL0     H40899   5.099   9.567   9.615  1.2856 -0.1326 -0.3014
  303MOL0     H40900   5.113   9.730   9.561 -1.8588  0.7142 -0.7353
  303MOL0     H40901   4.863   9.728   9.502 -0.2655  0.1738  0.5037
  303MOL0     H40902   4.862   9.551   9.551 -0.6668  0.2059 -1.3320
  303MOL0     H40903   4.948   9.543   9.148 -0.7902  2.9469 -1.5166
  303MOL0     H40904   5.110   9.954   9.848 -0.4067  1.5767  0.0028
  303MOL0     H40905   5.054  10.159   9.947 -3.0975 -0.0723 -0.2610
  304MOL0     O40906   6.346   5.900   0.921 -0.1216  0.7822  0.2606
  304MOL0     C40907   6.381   5.896   1.036  0.0092  0.0471 -0.0147
  304MOL0     O40908   6.393   5.785   1.108 -0.9702  0.4628  0.1883
  304MOL0     C40909   6.375   5.662   1.052 -0.5357 -0.6085 -0.6158
  304MOL0     C40910   6.249   5.607   1.007 -0.3326  0.2784  0.0338
  304MOL0     C40911   6.246   5.485   0.941  0.2275  0.0584 -0.0360
  304MOL0     C40912   6.368   5.409   0.939  0.1679 -0.2923  0.3969
  304MOL0     O40913   6.374   5.281   0.878 -0.0869  0.1816 -0.0089
  304MOL0     C40914   6.309   5.264   0.743  0.6421  0.6152 -0.7818
  304MOL0     C40915   6.368   5.125   0.698 -0.3866 -0.7895  0.6038
  304MOL0     C40916   6.367   5.112   0.549 -1.2203 -0.0761 -0.1216
  304MOL0     C40917   6.448   4.987   0.508  1.2750  0.4239  0.2632
  304MOL0     C40918   6.381   4.859   0.571  0.2752  0.4831 -0.1855
  304MOL0     C40919   6.444   4.724   0.545  0.4482 -0.4902  0.2924
  304MOL0     C40920   6.382   4.604   0.616 -0.3556 -0.7802  1.0097
  304MOL0     C40921   6.450   4.480   0.564  0.3635 -0.1087  0.0217
  304MOL0     N40922   6.597   4.450   0.611  0.3583 -0.2129  0.0018
  304MOL0     C40923   6.634   4.426   0.735 -0.9596 -1.1856  0.0507
  304MOL0     C40924   6.768   4.418   0.742  1.0841 -0.8991  0.6715
  304MOL0     C40925   6.840   4.413   0.867 -0.2779 -0.0493 -0.7005
  304MOL0     C40926   6.928   4.296   0.869 -0.0785 -0.2957  0.1869
  304MOL0     C40927   6.846   4.159   0.839 -0.8842 -0.6985  0.3274
  304MOL0     C40928   6.914   4.025   0.858  0.6987  0.0054 -0.5059
  304MOL0     O40929   6.840   3.924   0.768 -0.4582  0.1317  0.2512
  304MOL0     C40930   6.873   3.790   0.788  0.4508  0.7606  0.3659
  304MOL0     C40931   7.002   3.741   0.784 -0.1131  0.3439 -0.1260
  304MOL0     C40932   7.036   3.616   0.828 -0.3516 -0.2660 -0.0926
  304MOL0     C40933   7.181   3.583   0.836  0.6208 -0.6923  1.1581
  304MOL0     C40934   6.934   3.531   0.876  0.9776 -0.0551  0.0805
  304MOL0     C40935   6.953   3.389   0.916 -0.4412 -0.5718  0.2132
  304MOL0     O40936   6.844   3.301   0.914 -0.4631  0.9176  0.2666
  304MOL0     C40937   6.868   3.163   0.910  0.6606  0.1907 -0.1840
  304MOL0     C40938   6.923   3.083   0.807  0.0413 -0.3174 -0.2933
  304MOL0     C40939   6.949   2.955   0.825 -0.1243 -0.5349  0.5805
  304MOL0     C40940   6.909   2.893   0.943  0.4447 -0.3526 -0.1948
  304MOL0     O40941   6.935   2.756   0.966  0.9347  0.3126 -0.1940
  304MOL0     C40942   6.857   2.670   0.876 -0.7124  0.2789  0.0357
  304MOL0     C40943   6.922   2.535   0.849 -0.9598  0.2386 -0.0339
  304MOL0     C40944   7.062   2.539   0.764  0.9211 -0.2544 -0.5112
  304MOL0     C40945   7.025   2.579   0.615  0.2444  0.0028 -0.2939
  304MOL0     C40946   7.117   2.520   0.521 -0.5770  1.3744 -0.5269
  304MOL0     C40947   7.077   2.538   0.372  0.8128 -0.5322 -0.5076
  304MOL0     C40948   7.160   2.469   0.274  0.7724 -0.4084  0.6313
  304MOL0     C40949   7.244   2.571   0.198 -0.6206 -0.3755  0.3980
  304MOL0    Cl40950   7.367   2.646   0.308 -0.4525 -0.3077  0.0197
  304MOL0     C40951   6.858   2.967   1.042  0.5924 -0.4381 -0.7501
  304MOL0     C40952   6.836   3.109   1.024  0.3318  1.1731 -0.1562
  304MOL0     O40953   7.065   3.355   0.966 -0.0407 -1.1940 -0.1979
  304MOL0     C40954   6.796   3.584   0.875 -0.9520  0.5123 -0.6673
  304MOL0     C40955   6.768   3.706   0.826  0.6897 -0.7182 -0.6797
  304MOL0     N40956   6.808   4.431   0.612  0.2920  0.1697  0.4697
  304MOL0     N40957   6.703   4.451   0.535 -0.2767 -0.4559 -0.0837
  304MOL0     C40958   6.481   5.460   1.007 -0.7006  0.3063  0.5985
  304MOL0     C40959   6.486   5.582   1.068 -0.4625 -0.0746  0.1310
  304MOL0     C40960   6.413   6.030   1.082 -0.1573 -0.2088 -0.3667
  304MOL0     C40961   6.404   6.146   0.996 -0.0336 -0.0116 -0.8773
  304MOL0     C40962   6.430   6.266   1.049  0.4555 -1.0236 -0.3488
  304MOL0     C40963   6.476   6.295   1.177  0.4611 -0.5061 -0.6608
  304MOL0     O40964   6.485   6.423   1.226 -0.1785  0.3567 -0.1891
  304MOL0     C40965   6.448   6.449   1.366  0.2292  0.1663  0.5529
  304MOL0     C40966   6.409   6.588   1.404 -0.1242  0.4084  0.2701
  304MOL0     C40967   6.406   6.606   1.553 -0.2735  1.1047 -0.6214
  304MOL0     C40968   6.374   6.756   1.595 -0.3115  0.3270  1.0329
  304MOL0     C40969   6.484   6.855   1.568  0.6149 -0.1259  0.7381
  304MOL0     C40970   6.579   6.925   1.521  0.1871  0.7692  0.0796
  304MOL0     C40971   6.487   6.186   1.268 -0.3138  0.1081  0.8647
  304MOL0     C40972   6.468   6.058   1.206 -0.3544 -0.8910 -0.0089
  304MOL0     H40973   6.151   5.653   0.999  0.0682  1.0574 -0.6106
  304MOL0     H40974   6.154   5.461   0.888  0.1784  1.0564 -0.4244
  304MOL0     H40975   6.200   5.261   0.756  0.6707  2.1608  0.2007
  304MOL0     H40976   6.333   5.349   0.678  1.4058  1.0640  0.0628
  304MOL0     H40977   6.474   5.111   0.724  0.7210 -0.9005 -3.2807
  304MOL0     H40978   6.299   5.051   0.739 -3.1470 -0.0812 -2.3563
  304MOL0     H40979   6.263   5.106   0.516 -0.7798  0.9634 -1.8370
  304MOL0     H40980   6.412   5.200   0.502  0.0952  0.6377  2.2842
  304MOL0     H40981   6.453   4.973   0.399 -0.7699  2.5889 -0.2109
  304MOL0     H40982   6.551   4.999   0.543  1.7342 -1.7916 -0.1775
  304MOL0     H40983   6.396   4.871   0.679  0.4715 -0.4686 -0.1032
  304MOL0     H40984   6.276   4.842   0.546  0.8021  1.2054 -3.2393
  304MOL0     H40985   6.447   4.700   0.439  2.2905 -2.0701  0.6372
  304MOL0     H40986   6.549   4.732   0.574  0.4698 -1.8801  0.6960
  304MOL0     H40987   6.378   4.614   0.725 -2.0038  0.1854  0.8889
  304MOL0     H40988   6.279   4.588   0.584 -0.0884 -1.8192  0.6160
  304MOL0     H40989   6.459   4.495   0.456 -0.9137 -1.9331 -0.3833
  304MOL0     H40990   6.382   4.396   0.580 -1.2093  1.1805  0.3338
  304MOL0     H40991   6.565   4.419   0.819 -2.4518  0.2691 -0.9825
  304MOL0     H40992   6.890   4.509   0.883 -1.0247  0.1346  0.6838
  304MOL0     H40993   6.767   4.414   0.949  1.4942  3.6222  1.0687
  304MOL0     H40994   6.981   4.290   0.964 -0.6434  0.8740  0.6062
  304MOL0     H40995   7.007   4.313   0.795 -1.0062 -1.1064 -1.0302
  304MOL0     H40996   6.808   4.171   0.737 -0.1757  0.0413  0.1325
  304MOL0     H40997   6.758   4.174   0.902 -0.9043  1.5515 -0.1253
  304MOL0     H40998   6.894   3.994   0.961 -0.0182 -0.4122 -0.7598
  304MOL0     H40999   7.019   4.020   0.828  1.3111  1.8775  1.1042
  304MOL0     H41000   7.079   3.807   0.745  1.2633 -2.8939 -3.4074
  304MOL0     H41001   7.208   3.477   0.829 -0.8103 -0.9745 -0.9038
  304MOL0     H41002   7.237   3.635   0.758 -4.2126  1.0786 -1.5528
  304MOL0     H41003   7.219   3.608   0.936  3.7444  2.0725 -0.5260
  304MOL0     H41004   6.953   3.123   0.711 -1.7395  2.1777  0.0919
  304MOL0     H41005   7.011   2.908   0.749  2.4043  5.8532 -2.0407
  304MOL0     H41006   6.753   2.649   0.903 -0.7329  0.6719  0.2760
  304MOL0     H41007   6.847   2.711   0.775 -1.0285 -0.7745 -0.3705
  304MOL0     H41008   6.940   2.489   0.947 -0.5424 -0.5369 -0.4599
  304MOL0     H41009   6.856   2.465   0.797  0.9795  0.0298 -2.4130
  304MOL0     H41010   7.102   2.437   0.770 -3.0752 -1.9040  3.4668
  304MOL0     H41011   7.125   2.620   0.802  0.2564  1.5736 -3.0425
  304MOL0     H41012   6.926   2.538   0.593  0.2969 -1.9625  2.5504
  304MOL0     H41013   7.036   2.687   0.600  1.0554 -0.0262  0.0216
  304MOL0     H41014   7.126   2.411   0.530  1.5603  1.4390 -1.1733
  304MOL0     H41015   7.219   2.559   0.537  0.6225 -0.5667 -2.7950
  304MOL0     H41016   6.974   2.504   0.363  0.3702  1.2918 -3.8694
  304MOL0     H41017   7.079   2.645   0.352 -0.1281 -0.2425  0.8673
  304MOL0     H41018   7.089   2.410   0.215 -1.0258  0.2772  2.0304
  304MOL0     H41019   7.236   2.402   0.316  2.9003  0.5677 -1.3554
  304MOL0     H41020   7.183   2.653   0.159  1.5301  2.0026  1.7871
  304MOL0     H41021   7.288   2.514   0.115 -0.0033 -1.7431  1.6221
  304MOL0     H41022   6.829   2.914   1.132  3.0100 -0.2705  0.2008
  304MOL0     H41023   6.792   3.173   1.100 -0.0085 -0.4645  1.0880
  304MOL0     H41024   6.716   3.524   0.917  0.4087 -2.1828 -1.7140
  304MOL0     H41025   6.664   3.736   0.814  0.8266 -1.0147 -3.0423
  304MOL0     H41026   6.572   5.401   1.001 -0.6394  0.4816 -0.4479
  304MOL0     H41027   6.568   5.625   1.125  0.6221 -1.6481 -0.1614
  304MOL0     H41028   6.378   6.144   0.890  0.8558  2.4327 -1.1911
  304MOL0     H41029   6.409   6.351   0.985  1.0820 -0.1518  0.5579
  304MOL0     H41030   6.355   6.395   1.384  0.0934  0.5864  1.0993
  304MOL0     H41031   6.530   6.408   1.426  2.4851  0.1391 -2.3214
  304MOL0     H41032   6.311   6.606   1.359 -0.4192 -1.0960  0.2439
  304MOL0     H41033   6.491   6.651   1.368 -0.4335  0.8859  0.3950
  304MOL0     H41034   6.489   6.578   1.618  0.1368  1.8018 -0.8449
  304MOL0     H41035   6.329   6.542   1.597  3.5861 -3.8359 -0.1469
  304MOL0     H41036   6.372   6.758   1.705 -2.7607 -0.5537  1.0620
  304MOL0     H41037   6.275   6.785   1.558  0.0999 -0.4003 -0.7133
  304MOL0     H41038   6.662   6.982   1.487 -0.1092 -0.3805 -2.8300
  304MOL0     H41039   6.526   6.200   1.368  1.5978 -2.1003  0.5148
  304MOL0     H41040   6.472   5.978   1.279 -1.0096 -2.5821 -1.7204
  305MOL0     O41041   9.905   6.954   7.010 -0.5953  0.0805  0.0104
  305MOL0     C41042  10.008   6.886   6.987  0.1173  0.5880  0.0921
  305MOL0     O41043  10.135   6.922   7.022 -0.0967  0.2959 -0.2067
  305MOL0     C41044  10.152   7.025   7.104  0.3074 -0.3572  0.4586
  305MOL0     C41045  10.235   7.136   7.070  0.1245 -1.3092  0.4412
  305MOL0     C41046  10.263   7.236   7.172  0.0463  0.0581  0.1706
  305MOL0     C41047  10.217   7.224   7.302  0.4619 -0.1446 -0.1785
  305MOL0     O41048  10.252   7.315   7.402 -0.1894  0.6116  0.9509
  305MOL0     C41049  10.152   7.412   7.428  0.2411  0.4957  0.1430
  305MOL0     C41050  10.207   7.514   7.529 -0.6388 -1.3193  0.5246
  305MOL0     C41051  10.140   7.486   7.664 -0.2203 -0.2588 -0.0244
  305MOL0     C41052  10.005   7.566   7.690  0.4331  0.6220 -0.3047
  305MOL0     C41053  10.032   7.719   7.733  1.0218  0.3566 -0.1312
  305MOL0     C41054   9.907   7.811   7.749 -1.2501 -1.3196  0.8447
  305MOL0     C41055   9.960   7.958   7.777  0.5117  1.2339 -0.0418
  305MOL0     C41056  10.027   8.026   7.653  0.3998 -0.0289 -0.4092
  305MOL0     N41057   9.926   8.106   7.591  0.6425 -0.1746 -0.5554
  305MOL0     C41058   9.952   8.230   7.548  0.3860  0.5761 -0.1511
  305MOL0     C41059   9.842   8.262   7.479  0.3544 -0.2314 -1.0027
  305MOL0     C41060   9.822   8.396   7.419  0.6505  0.4074  0.5669
  305MOL0     C41061   9.723   8.486   7.481 -0.2635  0.2183 -0.4091
  305MOL0     C41062   9.699   8.608   7.394 -0.1391 -0.2261  0.2371
  305MOL0     C41063   9.820   8.709   7.387  0.6872  0.5278  0.0069
  305MOL0     O41064   9.871   8.738   7.522 -0.9462  0.0178 -0.1172
  305MOL0     C41065   9.803   8.818   7.611  0.4274 -0.6414 -0.7449
  305MOL0     C41066   9.847   8.808   7.739 -0.0912 -0.2958 -0.1795
  305MOL0     C41067   9.790   8.869   7.841  0.1390 -0.0804 -0.3815
  305MOL0     C41068   9.836   8.833   7.977 -0.1568  0.5327 -0.7209
  305MOL0     C41069   9.681   8.958   7.815  0.1259 -0.4220  0.2129
  305MOL0     C41070   9.610   9.014   7.932  1.1176  0.9942  0.0467
  305MOL0     O41071   9.680   9.090   8.028 -1.0384 -0.3599  0.9671
  305MOL0     C41072   9.626   9.140   8.139 -0.7775 -0.1621  0.2332
  305MOL0     C41073   9.501   9.091   8.194 -1.4781 -0.5640 -0.5888
  305MOL0     C41074   9.458   9.146   8.314 -0.1419  0.9160 -0.3311
  305MOL0     C41075   9.522   9.238   8.384  0.3992 -0.0560 -0.1574
  305MOL0     O41076   9.463   9.279   8.500 -0.0815  0.4447 -0.0518
  305MOL0     C41077   9.385   9.399   8.486 -0.1843  0.2364 -0.1810
  305MOL0     C41078   9.386   9.496   8.611  0.7346 -0.3921  0.2342
  305MOL0     C41079   9.283   9.611   8.616 -0.0737  0.4197 -0.2522
  305MOL0     C41080   9.306   9.688   8.746 -0.8866 -0.0923 -1.0420
  305MOL0     C41081   9.220   9.814   8.757  0.4847  0.4762 -0.0452
  305MOL0     C41082   9.284   9.926   8.851 -0.5373 -0.2592 -0.3049
  305MOL0     C41083   9.204  10.047   8.845  0.1971  0.4423  0.1167
  305MOL0     C41084   9.262  10.157   8.944  0.3670 -0.4247 -0.1365
  305MOL0    Cl41085   9.278  10.091   9.106 -0.3940  0.3474  0.2922
  305MOL0     C41086   9.640   9.298   8.326  0.2685  0.4481  1.0612
  305MOL0     C41087   9.686   9.246   8.200  0.7662 -0.0019 -0.9855
  305MOL0     O41088   9.487   8.998   7.930  0.1548 -0.6795  0.3965
  305MOL0     C41089   9.633   8.968   7.680 -0.1636  0.8371 -0.6813
  305MOL0     C41090   9.688   8.896   7.587 -0.0132 -0.0370 -0.2350
  305MOL0     N41091   9.755   8.148   7.474 -1.1611  0.3334  0.5712
  305MOL0     N41092   9.805   8.056   7.543  0.3995 -0.0385 -0.3316
  305MOL0     C41093  10.128   7.123   7.339  0.8529  0.0660 -0.4217
  305MOL0     C41094  10.104   7.018   7.240  0.1707  0.2937  0.2385
  305MOL0     C41095   9.994   6.757   6.924  0.4144  0.2588  0.2959
  305MOL0     C41096  10.070   6.644   6.954  0.2859 -0.7129  0.3972
  305MOL0     C41097  10.057   6.524   6.881  0.1622 -0.5311  0.6115
  305MOL0     C41098   9.965   6.516   6.782 -0.2666  0.6629  0.3744
  305MOL0     O41099   9.954   6.398   6.713 -0.5807  0.6885  0.4921
  305MOL0     C41100   9.862   6.379   6.606 -0.1730 -0.9507 -0.0531
  305MOL0     C41101   9.842   6.226   6.591 -0.7148 -0.0302  0.1754
  305MOL0     C41102   9.799   6.141   6.711  0.1077 -0.6743  0.4482
  305MOL0     C41103   9.665   6.189   6.769  0.7143  0.5115  0.0366
  305MOL0     C41104   9.693   6.294   6.871  0.1676 -0.3198  0.1202
  305MOL0     C41105   9.707   6.383   6.949  0.0523  0.0013 -0.1722
  305MOL0     C41106   9.880   6.626   6.752  0.4394 -0.4482  0.1264
  305MOL0     C41107   9.900   6.746   6.815 -0.3977  0.1265  0.3319
  305MOL0     H41108  10.286   7.137   6.974 -1.7676 -2.9247 -0.6674
  305MOL0     H41109  10.324   7.322   7.146  0.4590 -0.0059  0.8955
  305MOL0     H41110  10.117   7.458   7.335  1.8108 -1.6971 -1.6289
  305MOL0     H41111  10.063   7.367   7.474  0.6605  0.6883  1.1562
  305MOL0     H41112  10.315   7.505   7.545 -0.7429 -4.5226  0.0589
  305MOL0     H41113  10.175   7.616   7.504  3.2164 -0.1513 -0.3635
  305MOL0     H41114  10.125   7.377   7.661  2.0994 -0.6292 -3.0966
  305MOL0     H41115  10.217   7.491   7.741 -2.4302 -0.9679  2.3916
  305MOL0     H41116   9.930   7.556   7.610  0.7320 -2.1698 -0.3205
  305MOL0     H41117   9.950   7.516   7.771  1.7411 -3.9278 -1.9206
  305MOL0     H41118  10.081   7.714   7.831  1.4325 -0.7624 -0.3731
  305MOL0     H41119  10.107   7.770   7.671  0.5704  2.3375  0.8857
  305MOL0     H41120   9.845   7.833   7.662  2.1236 -2.5866 -2.1265
  305MOL0     H41121   9.840   7.779   7.830 -1.8119  1.1630  1.4493
  305MOL0     H41122   9.877   8.022   7.806 -1.9368 -1.5006 -0.5759
  305MOL0     H41123  10.032   7.966   7.860  0.8640  0.7008 -0.2897
  305MOL0     H41124  10.084   7.959   7.588 -1.4151 -2.4097  0.2984
  305MOL0     H41125  10.101   8.098   7.689  0.3334 -0.1972  0.0688
  305MOL0     H41126  10.039   8.295   7.555  1.2732  0.1397 -4.5674
  305MOL0     H41127   9.910   8.453   7.449  2.3621 -2.8472  2.2904
  305MOL0     H41128   9.805   8.384   7.312  6.0467 -3.0613 -0.2751
  305MOL0     H41129   9.758   8.516   7.580 -0.7911 -0.2827 -0.0632
  305MOL0     H41130   9.625   8.443   7.503  0.4928 -0.4872  1.8188
  305MOL0     H41131   9.608   8.658   7.429 -0.9709 -1.1480 -0.5626
  305MOL0     H41132   9.682   8.577   7.290 -1.8486  0.6640  0.2030
  305MOL0     H41133   9.794   8.800   7.333  2.3178  0.8955 -0.2269
  305MOL0     H41134   9.889   8.646   7.330 -2.4231 -4.4241  1.1070
  305MOL0     H41135   9.936   8.747   7.753 -0.5868 -0.6524  1.6810
  305MOL0     H41136   9.945   8.825   7.982  0.0954  0.1595 -4.4393
  305MOL0     H41137   9.801   8.889   8.064 -2.3687 -1.5260 -0.1789
  305MOL0     H41138   9.794   8.734   7.995 -0.4293  0.4888 -1.5489
  305MOL0     H41139   9.438   9.015   8.148 -1.5798 -1.5803  1.1280
  305MOL0     H41140   9.372   9.088   8.348  2.6963 -2.6136  1.5342
  305MOL0     H41141   9.419   9.460   8.401 -1.8223 -1.5986 -2.2757
  305MOL0     H41142   9.281   9.368   8.473 -0.7071  0.9357  1.8605
  305MOL0     H41143   9.371   9.437   8.702  0.1612  2.0726  1.8115
  305MOL0     H41144   9.481   9.548   8.622  0.3474  0.1565  1.0357
  305MOL0     H41145   9.182   9.571   8.608 -0.3377  0.8863  0.6222
  305MOL0     H41146   9.305   9.674   8.529 -2.2444  0.4958 -0.8131
  305MOL0     H41147   9.284   9.620   8.829 -0.3979  3.1346  1.9717
  305MOL0     H41148   9.409   9.722   8.758 -1.1712  0.2341  0.8841
  305MOL0     H41149   9.124   9.782   8.798  0.7758  2.8041  2.8106
  305MOL0     H41150   9.192   9.846   8.656  1.7519  1.0239 -0.2443
  305MOL0     H41151   9.291   9.894   8.956  1.3829  1.9191  0.3246
  305MOL0     H41152   9.383   9.960   8.820 -0.9457  1.3513  0.0675
  305MOL0     H41153   9.104  10.029   8.886  0.0380  3.5348  1.3757
  305MOL0     H41154   9.206  10.082   8.742 -2.4460 -0.8118 -0.4287
  305MOL0     H41155   9.200  10.247   8.938  2.7493  1.2281 -1.9127
  305MOL0     H41156   9.359  10.193   8.910  1.5022 -2.3455  0.9307
  305MOL0     H41157   9.699   9.377   8.371  0.4648 -1.0549  3.7046
  305MOL0     H41158   9.786   9.272   8.168  1.2795 -1.8491 -0.9991
  305MOL0     H41159   9.542   9.026   7.663 -0.6680 -0.4226 -2.5301
  305MOL0     H41160   9.650   8.895   7.486  1.6878  0.4248 -0.9034
  305MOL0     H41161  10.094   7.125   7.443  2.7870  1.2027  0.2345
  305MOL0     H41162  10.061   6.924   7.271  0.9751 -0.4751 -0.8694
  305MOL0     H41163  10.142   6.643   7.034  1.4875 -3.2604 -0.5903
  305MOL0     H41164  10.123   6.442   6.908 -0.9264 -0.5448  3.5862
  305MOL0     H41165   9.765   6.412   6.646 -0.2760 -2.8860  1.4225
  305MOL0     H41166   9.892   6.424   6.511 -0.7312 -3.9245 -1.7402
  305MOL0     H41167   9.929   6.186   6.537 -1.1447  2.3542 -2.5069
  305MOL0     H41168   9.774   6.203   6.509  1.8237 -4.8025 -0.9805
  305MOL0     H41169   9.876   6.150   6.788 -1.9584 -0.9242  2.6825
  305MOL0     H41170   9.792   6.036   6.683 -5.4323  0.0742 -2.2741
  305MOL0     H41171   9.603   6.107   6.805  0.4739  0.0755 -1.3136
  305MOL0     H41172   9.604   6.227   6.686 -0.3406  0.5090  0.7985
  305MOL0     H41173   9.725   6.451   7.031  0.5285  2.0613 -1.8887
  305MOL0     H41174   9.802   6.619   6.677 -0.8785 -0.5865  1.4638
  305MOL0     H41175   9.839   6.834   6.798  5.3871  4.7787  0.5806
  306MOL0     O41176   0.396   1.493  10.069 -0.1043 -0.3600  0.1416
  306MOL0     C41177   0.459   1.466   9.966 -0.7214  0.7419 -0.4136
  306MOL0     O41178   0.574   1.517   9.919 -0.2509 -1.5352  0.4427
  306MOL0     C41179   0.642   1.612   9.988 -0.8313  0.2106  0.2293
  306MOL0     C41180   0.584   1.734  10.034  0.2320 -0.3847  0.1464
  306MOL0     C41181   0.653   1.838  10.091 -0.8018 -1.3108  1.0865
  306MOL0     C41182   0.792   1.812  10.117 -0.0900 -0.2235 -0.4696
  306MOL0     O41183   0.873   1.917  10.162 -0.3780  0.3839 -0.7386
  306MOL0     C41184   0.910   2.007  10.051 -0.2468  0.0230 -0.4565
  306MOL0     C41185   0.982   2.138  10.095 -0.9016  0.5377  0.7710
  306MOL0     C41186   1.061   2.215   9.986 -0.2643 -0.4744  0.1735
  306MOL0     C41187   0.968   2.291   9.890 -0.0501 -1.0109  0.2972
  306MOL0     C41188   1.034   2.368   9.781  0.5288 -0.7610 -0.6326
  306MOL0     C41189   1.140   2.470   9.825  0.5646  0.2000 -0.4102
  306MOL0     C41190   1.078   2.587   9.901  0.5655 -0.6995  0.2653
  306MOL0     C41191   0.954   2.663   9.828  0.4257 -0.8430 -0.0284
  306MOL0     N41192   0.992   2.725   9.699 -0.0114 -1.0854 -0.4690
  306MOL0     C41193   1.052   2.851   9.696 -0.0373  0.2957 -0.0355
  306MOL0     C41194   1.055   2.876   9.567 -1.1849 -0.7721 -0.0884
  306MOL0     C41195   1.122   2.991   9.493  0.8297 -0.0088 -0.2560
  306MOL0     C41196   1.253   3.028   9.563 -0.3094  0.2598  0.1563
  306MOL0     C41197   1.331   3.128   9.477  0.2616 -0.2429  0.1712
  306MOL0     C41198   1.428   3.215   9.557  0.2741 -0.0791 -0.0143
  306MOL0     O41199   1.489   3.131   9.656  0.3175 -0.1627  0.2482
  306MOL0     C41200   1.589   3.192   9.723 -1.1443  0.1194  0.6734
  306MOL0     C41201   1.596   3.182   9.861  0.4353 -0.7412  0.9492
  306MOL0     C41202   1.701   3.222   9.939 -0.7831 -0.8829 -0.3617
  306MOL0     C41203   1.702   3.194  10.091  0.9544 -0.1045  0.4680
  306MOL0     C41204   1.808   3.281   9.873 -0.5659  0.5077 -1.2310
  306MOL0     C41205   1.938   3.320   9.942 -0.7828 -0.0305 -0.3932
  306MOL0     O41206   1.948   3.333  10.078  0.6352 -0.3050  0.0242
  306MOL0     C41207   2.076   3.354  10.130  0.0804  0.5315 -0.7322
  306MOL0     C41208   2.136   3.239  10.189 -0.0583  0.2124 -1.1026
  306MOL0     C41209   2.256   3.260  10.270  1.3160  0.0107 -0.5017
  306MOL0     C41210   2.325   3.382  10.279 -0.2410 -0.2077 -0.6884
  306MOL0     O41211   2.449   3.380  10.351  0.2773 -0.2834  0.3511
  306MOL0     C41212   2.532   3.492  10.360 -0.2434  0.7533  0.5134
  306MOL0     C41213   2.676   3.472  10.422  0.8520 -0.7518 -1.0210
  306MOL0     C41214   2.761   3.373  10.342  0.1705 -0.3253  0.6892
  306MOL0     C41215   2.730   3.235  10.407 -0.1318  0.6763  0.8276
  306MOL0     C41216   2.786   3.106  10.352  0.2033 -0.0174  0.0150
  306MOL0     C41217   2.939   3.067  10.358  1.3286  0.6000  0.1531
  306MOL0     C41218   3.014   3.145  10.257 -0.5890 -0.2026  0.4105
  306MOL0     C41219   2.976   3.102  10.116 -0.9907  0.4338 -0.1616
  306MOL0    Cl41220   3.138   3.066  10.034 -0.3884 -0.2916 -0.1420
  306MOL0     C41221   2.261   3.495  10.221 -0.2858 -0.1013 -0.8154
  306MOL0     C41222   2.138   3.480  10.146  0.4888 -0.1595 -0.0172
  306MOL0     O41223   2.029   3.330   9.865 -0.4509  0.1232 -0.0201
  306MOL0     C41224   1.806   3.301   9.734  0.5892 -0.7455  0.0701
  306MOL0     C41225   1.698   3.251   9.660 -0.0009 -0.6400 -0.5403
  306MOL0     N41226   1.001   2.773   9.492  0.0691 -0.1261  0.5351
  306MOL0     N41227   0.966   2.678   9.571  0.2332  0.6819  0.1332
  306MOL0     C41228   0.851   1.686  10.095  0.3572  0.0315 -0.1807
  306MOL0     C41229   0.772   1.589  10.037 -0.0068  0.6901 -0.5824
  306MOL0     C41230   0.398   1.373   9.868  1.0877  0.1624  0.0391
  306MOL0     C41231   0.430   1.371   9.728 -0.1719 -0.0325 -0.1699
  306MOL0     C41232   0.352   1.295   9.639 -0.4635  0.3462 -0.1051
  306MOL0     C41233   0.252   1.215   9.692  0.7449 -0.8564 -0.3793
  306MOL0     O41234   0.167   1.146   9.615 -0.2047 -0.2655 -0.3409
  306MOL0     C41235   0.223   1.027   9.557 -0.7400  1.1684  1.0853
  306MOL0     C41236   0.270   0.932   9.675 -0.0891 -0.0905  0.3600
  306MOL0     C41237   0.327   0.790   9.642 -0.1399 -0.0764  0.6943
  306MOL0     C41238   0.210   0.698   9.593 -0.7750 -0.8905 -0.4155
  306MOL0     C41239   0.251   0.556   9.610 -0.6468  0.0786  0.4405
  306MOL0     C41240   0.284   0.436   9.617  0.3342 -0.2384  0.7738
  306MOL0     C41241   0.218   1.219   9.831 -0.5676  0.5465  0.3102
  306MOL0     C41242   0.292   1.295   9.919 -0.0084 -0.1171  0.1829
  306MOL0     H41243   0.476   1.729  10.024  0.4648 -2.5891 -2.0260
  306MOL0     H41244   0.604   1.933  10.109 -1.0697 -0.8369 -1.7501
  306MOL0     H41245   0.987   1.949  10.000 -1.9251 -2.1568 -0.6541
  306MOL0     H41246   0.821   2.031   9.992 -0.5639 -1.3298 -0.5454
  306MOL0     H41247   0.920   2.214  10.143  0.3590  0.5245  2.4930
  306MOL0     H41248   1.050   2.110  10.176 -0.0490  1.6850  0.4779
  306MOL0     H41249   1.120   2.290  10.039  1.8306 -0.9983 -1.2764
  306MOL0     H41250   1.130   2.151   9.929 -2.1569  0.5633 -3.6527
  306MOL0     H41251   0.895   2.222   9.847 -2.8764  0.6407  2.1135
  306MOL0     H41252   0.906   2.363   9.944  1.1002  0.7268 -0.6116
  306MOL0     H41253   1.091   2.306   9.711  1.0648 -0.1665 -0.7368
  306MOL0     H41254   0.951   2.413   9.725 -1.1171 -3.8245 -0.8664
  306MOL0     H41255   1.206   2.437   9.905  0.4981 -0.1886 -0.5182
  306MOL0     H41256   1.202   2.502   9.741 -1.0457 -2.9723 -3.0339
  306MOL0     H41257   1.041   2.556  10.000  0.7360 -0.2529  0.4735
  306MOL0     H41258   1.159   2.658   9.923  0.7381 -0.6545 -0.5088
  306MOL0     H41259   0.905   2.738   9.891  1.0921 -0.8753  0.5343
  306MOL0     H41260   0.881   2.586   9.801  1.6549 -1.3415 -2.2434
  306MOL0     H41261   1.102   2.899   9.779 -0.0140 -2.6242  1.7645
  306MOL0     H41262   1.127   2.973   9.385 -0.0622 -1.5151 -0.0713
  306MOL0     H41263   1.060   3.081   9.498  1.2784  0.2637  0.4623
  306MOL0     H41264   1.306   2.935   9.586 -0.0943  0.0343 -1.1617
  306MOL0     H41265   1.237   3.078   9.658  0.4639  1.2026 -0.1920
  306MOL0     H41266   1.261   3.197   9.428 -0.8882 -0.3344  1.6177
  306MOL0     H41267   1.389   3.070   9.404 -0.3411 -2.0215  1.0341
  306MOL0     H41268   1.379   3.296   9.612  0.9103 -2.3255  4.3405
  306MOL0     H41269   1.506   3.249   9.488  0.2524 -1.0349 -0.5373
  306MOL0     H41270   1.518   3.125   9.911 -5.6174  2.8857 -3.0330
  306MOL0     H41271   1.774   3.122  10.131 -1.2607 -0.9548  3.2885
  306MOL0     H41272   1.709   3.288  10.147 -1.8435  0.3493  0.1974
  306MOL0     H41273   1.601   3.158  10.110  0.2067  2.3581  1.6945
  306MOL0     H41274   2.089   3.144  10.214 -0.6619  1.1647  1.7258
  306MOL0     H41275   2.302   3.188  10.337 -1.1367 -0.7585  0.4526
  306MOL0     H41276   2.550   3.517  10.255 -1.4218  0.0605  0.1356
  306MOL0     H41277   2.469   3.573  10.400  0.1725  1.3801 -0.0796
  306MOL0     H41278   2.722   3.571  10.424 -0.7511  0.0975  3.0251
  306MOL0     H41279   2.670   3.447  10.528  0.1815  1.2758 -0.5313
  306MOL0     H41280   2.864   3.398  10.367 -0.2734  0.0713  2.2670
  306MOL0     H41281   2.738   3.373  10.235 -0.6439 -1.5342  0.8458
  306MOL0     H41282   2.761   3.244  10.511 -1.2701  0.3005  1.2107
  306MOL0     H41283   2.623   3.222  10.424 -0.9949  1.7187 -2.8505
  306MOL0     H41284   2.746   3.103  10.251 -0.6078  0.3777  0.3174
  306MOL0     H41285   2.744   3.031  10.420  0.5098  2.4854  3.2253
  306MOL0     H41286   2.966   3.094  10.461 -0.0198 -0.2244  0.7381
  306MOL0     H41287   2.960   2.960  10.344  0.3769  0.6638 -2.1165
  306MOL0     H41288   3.117   3.118  10.283 -0.4049 -0.1023 -0.2162
  306MOL0     H41289   3.003   3.253  10.271 -2.1312  0.0336 -2.1580
  306MOL0     H41290   2.927   3.190  10.074 -0.6603  0.2124 -1.0545
  306MOL0     H41291   2.909   3.017  10.104  1.5275 -1.6282 -0.4712
  306MOL0     H41292   2.309   3.591  10.205  2.4739 -1.7092 -2.9219
  306MOL0     H41293   2.094   3.571  10.106  1.1290  0.2322  0.1576
  306MOL0     H41294   1.887   3.346   9.678 -1.8168 -0.2611 -3.3396
  306MOL0     H41295   1.711   3.253   9.552 -1.4285  0.7732 -0.7293
  306MOL0     H41296   0.945   1.650  10.136 -0.3292 -3.7219 -1.5326
  306MOL0     H41297   0.822   1.495  10.019  2.6338  1.2627  2.7869
  306MOL0     H41298   0.499   1.442   9.684  0.2223 -0.0274  0.4517
  306MOL0     H41299   0.377   1.295   9.534  1.5566  1.4815  0.3162
  306MOL0     H41300   0.149   0.982   9.490 -0.4625  3.7087 -1.0843
  306MOL0     H41301   0.313   1.041   9.496  1.3564 -1.9780  3.1070
  306MOL0     H41302   0.186   0.918   9.744 -0.4642  2.2270  0.4653
  306MOL0     H41303   0.345   0.987   9.732 -0.5871  0.5042  0.4470
  306MOL0     H41304   0.378   0.739   9.725  0.6032 -4.1454 -1.9905
  306MOL0     H41305   0.403   0.792   9.564 -0.0797 -2.0759  0.6425
  306MOL0     H41306   0.195   0.715   9.486  3.1712  0.8530 -0.8559
  306MOL0     H41307   0.115   0.716   9.644  0.1653 -2.7838  2.2530
  306MOL0     H41308   0.309   0.333   9.608  1.1341 -0.0618  0.8994
  306MOL0     H41309   0.133   1.162   9.867 -2.1708  2.0943 -0.8604
  306MOL0     H41310   0.254   1.300  10.021 -0.8813 -1.6621 -0.0397
  307MOL0     O41311   4.164  11.487   1.870  0.7058 -0.5533 -0.6564
  307MOL0     C41312   4.208  11.369   1.877 -0.0388 -0.3642 -0.3811
  307MOL0     O41313   4.220  11.276   1.776 -0.5808  0.4744 -1.2133
  307MOL0     C41314   4.246  11.328   1.658 -0.5246 -0.0713  0.8555
  307MOL0     C41315   4.144  11.347   1.559 -0.1878  0.1691 -0.8565
  307MOL0     C41316   4.176  11.405   1.425 -0.4306  0.1032 -0.1099
  307MOL0     C41317   4.312  11.427   1.394 -0.6397  0.5229 -0.4006
  307MOL0     O41318   4.341  11.471   1.268  0.5213  0.2557  0.4023
  307MOL0     C41319   4.369  11.607   1.264  0.0206  0.0723  0.0465
  307MOL0     C41320   4.522  11.628   1.243  0.2973 -1.0296  0.9284
  307MOL0     C41321   4.564  11.782   1.236  0.5171 -0.2003 -0.2149
  307MOL0     C41322   4.714  11.812   1.233  0.6507  0.2384 -0.4743
  307MOL0     C41323   4.778  11.796   1.373 -0.0122  0.1564  0.4916
  307MOL0     C41324   4.905  11.882   1.387  0.2683  0.1425  0.3807
  307MOL0     C41325   4.869  12.034   1.382  0.6517  0.3649 -1.1142
  307MOL0     C41326   4.981  12.110   1.454 -0.5908  0.7858 -0.3323
  307MOL0     N41327   4.940  12.241   1.495  0.0529  0.2094  0.0322
  307MOL0     C41328   4.872  12.278   1.614  0.3403 -0.7013  1.0338
  307MOL0     C41329   4.866  12.415   1.607  0.6245  0.6972  0.1981
  307MOL0     C41330   4.794  12.504   1.716  0.1176  0.4544  0.8203
  307MOL0     C41331   4.644  12.508   1.690  0.4159 -0.5734 -0.5391
  307MOL0     C41332   4.574  12.564   1.814  1.1842  0.4117  1.0680
  307MOL0     C41333   4.430  12.606   1.792  0.7350 -0.4052 -1.2255
  307MOL0     O41334   4.373  12.658   1.918  1.1195 -0.4660 -0.4108
  307MOL0     C41335   4.325  12.568   2.014  0.2901  0.5100 -0.0130
  307MOL0     C41336   4.330  12.614   2.140 -0.2577  0.2439 -1.1148
  307MOL0     C41337   4.313  12.530   2.253  0.6783 -0.9904  0.1899
  307MOL0     C41338   4.345  12.576   2.393  0.3777 -0.7409  0.7798
  307MOL0     C41339   4.280  12.397   2.228  0.3235  0.3472 -0.4269
  307MOL0     C41340   4.242  12.300   2.330  0.5341 -0.3201 -0.3418
  307MOL0     O41341   4.283  12.163   2.313  0.3511  0.7818  0.2250
  307MOL0     C41342   4.225  12.062   2.400  0.2776 -0.8756 -0.5306
  307MOL0     C41343   4.082  12.045   2.393  0.6982 -1.0000 -0.0773
  307MOL0     C41344   4.027  11.938   2.462 -0.2576 -0.1744  0.1287
  307MOL0     C41345   4.107  11.853   2.541 -0.0283 -0.2120  0.2946
  307MOL0     O41346   4.052  11.756   2.619  0.0413 -0.2015 -0.4129
  307MOL0     C41347   3.936  11.682   2.572 -0.6702  0.4577  0.2391
  307MOL0     C41348   3.811  11.700   2.652 -0.6660 -0.8077  0.6234
  307MOL0     C41349   3.770  11.569   2.737 -0.3998 -0.6649  0.9622
  307MOL0     C41350   3.621  11.570   2.763 -0.2396 -0.2987 -0.3799
  307MOL0     C41351   3.581  11.478   2.876 -0.0291  0.1125  0.2874
  307MOL0     C41352   3.575  11.339   2.834  0.4547 -1.0181 -0.3501
  307MOL0     C41353   3.498  11.245   2.936  1.5297 -0.1217  0.1510
  307MOL0     C41354   3.455  11.124   2.860  0.4117  0.1940 -0.2058
  307MOL0    Cl41355   3.398  10.992   2.964  0.1027  0.0494 -0.4156
  307MOL0     C41356   4.254  11.882   2.552  0.2181  0.5900  0.4155
  307MOL0     C41357   4.303  11.990   2.484  0.3828  0.2152  0.3397
  307MOL0     O41358   4.172  12.342   2.421 -0.4461  0.1111 -0.2531
  307MOL0     C41359   4.269  12.345   2.100  0.3110  0.0868 -0.6429
  307MOL0     C41360   4.289  12.435   1.990  0.2776  0.9265 -0.6734
  307MOL0     N41361   4.905  12.460   1.483 -0.1031  0.6291 -0.2415
  307MOL0     N41362   4.965  12.360   1.424  0.4553  0.3287  0.0760
  307MOL0     C41363   4.415  11.409   1.490 -0.9187 -0.0270  0.6991
  307MOL0     C41364   4.386  11.356   1.614 -1.1817 -0.6436  0.2681
  307MOL0     C41365   4.238  11.333   2.018 -0.1747  1.0775  1.2622
  307MOL0     C41366   4.242  11.426   2.117 -0.7908  0.2825 -0.5647
  307MOL0     C41367   4.284  11.400   2.248 -1.7526 -0.4659  0.1302
  307MOL0     C41368   4.309  11.272   2.289 -0.8934  0.1644 -0.0418
  307MOL0     O41369   4.338  11.252   2.420  0.7573 -0.0805 -0.4754
  307MOL0     C41370   4.249  11.161   2.486  0.7705 -0.5364  0.7094
  307MOL0     C41371   4.104  11.192   2.504  0.2429  0.3229  0.1801
  307MOL0     C41372   4.049  11.124   2.624 -0.0765 -1.0119 -0.5176
  307MOL0     C41373   3.897  11.141   2.665  0.0147 -0.0873 -0.1363
  307MOL0     C41374   3.888  11.088   2.800  0.1943  0.6052  1.0301
  307MOL0     C41375   3.869  11.013   2.891  0.6190  0.0524 -0.1299
  307MOL0     C41376   4.286  11.176   2.188 -0.7100 -0.2021 -0.1018
  307MOL0     C41377   4.263  11.202   2.052 -0.2768  0.6871 -0.3425
  307MOL0     H41378   4.046  11.314   1.592  1.2144 -1.7505  1.8243
  307MOL0     H41379   4.106  11.434   1.348 -0.3546 -0.3586 -0.3604
  307MOL0     H41380   4.311  11.650   1.183  0.9121  1.2900  0.0347
  307MOL0     H41381   4.340  11.650   1.360  1.4774  0.1966  0.4671
  307MOL0     H41382   4.570  11.592   1.334  0.0896 -0.7773  1.1367
  307MOL0     H41383   4.555  11.574   1.154 -2.1656 -0.8335 -0.1872
  307MOL0     H41384   4.520  11.822   1.145  3.7624 -1.3415 -2.4894
  307MOL0     H41385   4.531  11.828   1.329  1.8687  2.3749 -0.9171
  307MOL0     H41386   4.769  11.762   1.152  1.6543  0.5883 -0.0183
  307MOL0     H41387   4.716  11.918   1.206 -0.2744  0.1274 -1.0654
  307MOL0     H41388   4.708  11.832   1.449  0.8423  0.5266  1.1227
  307MOL0     H41389   4.803  11.696   1.411  0.3096 -0.5095 -1.3914
  307MOL0     H41390   4.957  11.847   1.477 -1.1259 -2.3760  0.3004
  307MOL0     H41391   4.965  11.847   1.303  1.5227 -2.8615  2.3583
  307MOL0     H41392   4.847  12.075   1.283 -0.5242  0.8477 -0.6768
  307MOL0     H41393   4.778  12.042   1.443  0.2388  2.4289 -1.9208
  307MOL0     H41394   5.064  12.115   1.384  3.1591  0.9262  3.6665
  307MOL0     H41395   5.019  12.054   1.540  0.4802  1.4251 -0.3747
  307MOL0     H41396   4.821  12.219   1.689  2.3466 -0.1012  2.9645
  307MOL0     H41397   4.814  12.462   1.815 -1.2000 -0.1414  0.8543
  307MOL0     H41398   4.845  12.600   1.710  1.7496  0.0075  4.6058
  307MOL0     H41399   4.610  12.407   1.669 -0.7716 -0.6817  1.6619
  307MOL0     H41400   4.609  12.569   1.606 -2.6127  0.8423  1.5649
  307MOL0     H41401   4.618  12.657   1.850  1.8880  1.5453 -2.3391
  307MOL0     H41402   4.576  12.491   1.895  0.2708 -0.3878  0.4070
  307MOL0     H41403   4.368  12.530   1.743 -0.2966  1.1285 -2.4006
  307MOL0     H41404   4.445  12.694   1.730  4.2784  4.3791  5.1582
  307MOL0     H41405   4.364  12.717   2.150 -0.8794  0.5912 -2.3996
  307MOL0     H41406   4.366  12.486   2.452 -1.3877 -0.5198  1.7903
  307MOL0     H41407   4.418  12.656   2.408  0.2516  0.0516 -2.2130
  307MOL0     H41408   4.253  12.627   2.420  0.3662  0.5863 -1.4950
  307MOL0     H41409   4.043  12.101   2.308  0.1522  1.1717  1.5000
  307MOL0     H41410   3.920  11.918   2.458 -1.0198  3.4805 -2.2130
  307MOL0     H41411   3.920  11.696   2.464  0.6018 -0.3009 -0.0729
  307MOL0     H41412   3.976  11.581   2.582  0.7783  0.6456 -2.6536
  307MOL0     H41413   3.817  11.790   2.714 -1.5734  1.0976 -1.8738
  307MOL0     H41414   3.735  11.720   2.576  0.7709  1.4678 -0.3234
  307MOL0     H41415   3.826  11.567   2.831  2.1643  1.6511 -0.3886
  307MOL0     H41416   3.782  11.475   2.683 -3.4341 -1.1671  0.9999
  307MOL0     H41417   3.588  11.673   2.778 -1.8882 -0.4775 -2.4336
  307MOL0     H41418   3.566  11.542   2.673  1.2933  2.6821 -2.4155
  307MOL0     H41419   3.483  11.514   2.908 -0.6129 -1.5759  0.5257
  307MOL0     H41420   3.648  11.495   2.961  0.8590 -0.3919 -0.2985
  307MOL0     H41421   3.517  11.341   2.741  1.4015  1.0143 -0.9519
  307MOL0     H41422   3.674  11.298   2.812  1.6059  0.6946  1.2741
  307MOL0     H41423   3.418  11.305   2.981 -1.1016 -0.8003 -3.2709
  307MOL0     H41424   3.569  11.217   3.015  0.6681 -1.8546  0.3490
  307MOL0     H41425   3.544  11.082   2.811 -0.3152 -2.5899  0.6715
  307MOL0     H41426   3.382  11.151   2.782  0.3335 -1.0062 -0.5803
  307MOL0     H41427   4.328  11.832   2.613  1.4270  4.0361  1.9911
  307MOL0     H41428   4.411  12.000   2.474  0.6300 -0.9058  1.5625
  307MOL0     H41429   4.236  12.244   2.080 -1.6650  0.5101  0.2272
  307MOL0     H41430   4.276  12.391   1.891 -1.7581 -0.9729  0.3218
  307MOL0     H41431   4.518  11.430   1.463 -1.8652  1.6283 -1.9953
  307MOL0     H41432   4.464  11.334   1.687  0.3886  2.9742 -0.1134
  307MOL0     H41433   4.208  11.525   2.087 -1.8857 -0.2315 -1.0635
  307MOL0     H41434   4.275  11.485   2.316  1.3701  1.5182 -1.7252
  307MOL0     H41435   4.258  11.061   2.443 -1.0558 -0.5596  0.2983
  307MOL0     H41436   4.287  11.173   2.588 -1.0117  1.5747  1.2074
  307MOL0     H41437   4.044  11.168   2.415 -0.8912  0.2862  0.9372
  307MOL0     H41438   4.090  11.299   2.520 -1.7355 -0.2462  2.9900
  307MOL0     H41439   4.114  11.163   2.703  2.3506 -0.9514 -2.4147
  307MOL0     H41440   4.055  11.015   2.618 -1.8983 -1.5780  4.1653
  307MOL0     H41441   3.824  11.084   2.606 -1.0627 -0.5753  1.5957
  307MOL0     H41442   3.878  11.249   2.660  0.0985 -0.0272  0.7926
  307MOL0     H41443   3.831  10.961   2.977  0.9052  1.6592  1.0032
  307MOL0     H41444   4.279  11.069   2.209 -2.4985 -0.6745 -2.6617
  307MOL0     H41445   4.263  11.126   1.974  2.3920  0.3516 -0.1101
  308MOL0     O41446   5.035   8.202   9.615  0.1734 -0.8968  0.1889
  308MOL0     C41447   5.131   8.160   9.547  0.9115 -0.7720 -1.5821
  308MOL0     O41448   5.145   8.178   9.412  0.3509 -0.4402  0.0779
  308MOL0     C41449   5.064   8.261   9.340  0.3230 -0.2496  0.8496
  308MOL0     C41450   5.129   8.356   9.271 -0.4311  0.3528 -0.7222
  308MOL0     C41451   5.049   8.444   9.205  0.7159 -0.1763  0.7771
  308MOL0     C41452   4.906   8.439   9.199 -0.5788  0.2068  0.4489
  308MOL0     O41453   4.817   8.531   9.136 -0.4735 -0.0078  0.1369
  308MOL0     C41454   4.872   8.671   9.151  0.4974  0.5030  1.0110
  308MOL0     C41455   4.780   8.754   9.079 -0.2521 -0.3371 -0.0111
  308MOL0     C41456   4.811   8.770   8.932  0.1595 -0.3654 -0.4183
  308MOL0     C41457   4.688   8.830   8.863  0.2922 -0.1836  0.2581
  308MOL0     C41458   4.710   8.818   8.710  0.2377 -1.0057  0.5681
  308MOL0     C41459   4.588   8.845   8.625  0.6165 -0.9960  0.0845
  308MOL0     C41460   4.580   8.741   8.513  0.2840  0.7485  0.8120
  308MOL0     C41461   4.440   8.712   8.471 -0.1360  0.5413 -0.6969
  308MOL0     N41462   4.371   8.639   8.575  0.0963  0.1385 -1.2898
  308MOL0     C41463   4.246   8.671   8.632  0.5369  0.0883  0.4699
  308MOL0     C41464   4.196   8.560   8.692 -0.7604  0.8290  0.0810
  308MOL0     C41465   4.069   8.533   8.776  1.3260  0.4805 -0.4784
  308MOL0     C41466   4.086   8.614   8.903  1.5348 -0.1820  0.4301
  308MOL0     C41467   3.967   8.654   8.991 -0.0922  0.0113 -0.1837
  308MOL0     C41468   3.890   8.545   9.065  0.1279  0.4273  0.4014
  308MOL0     O41469   3.982   8.487   9.147 -0.7986 -0.4507 -0.2808
  308MOL0     C41470   3.930   8.393   9.231  0.2139 -0.1136  0.6751
  308MOL0     C41471   3.816   8.317   9.202 -0.6304  0.4857  0.0802
  308MOL0     C41472   3.794   8.199   9.272  0.0359 -0.0063 -0.4933
  308MOL0     C41473   3.682   8.111   9.221  0.0450  0.4262  0.4431
  308MOL0     C41474   3.875   8.161   9.373 -0.9975  0.2477  0.5083
  308MOL0     C41475   3.852   8.050   9.462  0.2724 -0.2653  0.3349
  308MOL0     O41476   3.727   8.038   9.524 -0.1613  0.0677 -0.3786
  308MOL0     C41477   3.715   8.037   9.661  0.3162 -0.1643 -0.3743
  308MOL0     C41478   3.824   8.046   9.748 -0.0589  0.2501  0.4254
  308MOL0     C41479   3.803   8.019   9.889  0.0068  0.5027 -0.3100
  308MOL0     C41480   3.673   7.990   9.935  0.7442 -0.4262  0.4301
  308MOL0     O41481   3.648   7.959  10.065 -0.4713  0.8593 -0.3738
  308MOL0     C41482   3.522   7.936  10.126  0.3016 -0.2496  0.3630
  308MOL0     C41483   3.535   7.938  10.273  0.0464  0.1071  0.2407
  308MOL0     C41484   3.613   8.060  10.327  0.3628  0.5545  0.1198
  308MOL0     C41485   3.613   8.064  10.486 -0.2399  0.1789  0.5066
  308MOL0     C41486   3.519   8.168  10.523  0.1330 -0.2108 -0.8772
  308MOL0     C41487   3.499   8.185  10.683  0.4384 -0.3804  0.7004
  308MOL0     C41488   3.392   8.290  10.709  0.3544 -0.2755 -0.4435
  308MOL0     C41489   3.288   8.242  10.806  0.3387  1.4122 -0.6383
  308MOL0    Cl41490   3.148   8.339  10.845  0.2775 -0.1502  0.5410
  308MOL0     C41491   3.565   7.980   9.838 -0.4168 -1.3593  0.8671
  308MOL0     C41492   3.586   8.004   9.699 -0.0359  0.3786 -0.9924
  308MOL0     O41493   3.934   7.961   9.477 -0.3753  1.2271  0.2394
  308MOL0     C41494   3.997   8.236   9.400  0.4376  0.2991 -0.6366
  308MOL0     C41495   4.020   8.349   9.331  0.6016 -1.0644  0.9186
  308MOL0     N41496   4.288   8.456   8.651 -1.3381 -0.2847 -0.1056
  308MOL0     N41497   4.395   8.508   8.593  1.2742 -0.7112  0.1768
  308MOL0     C41498   4.846   8.330   9.264 -0.4425 -0.1393  0.5179
  308MOL0     C41499   4.926   8.244   9.334  0.0825  0.2538  0.4539
  308MOL0     C41500   5.210   8.064   9.628  0.3664 -0.3933 -0.0750
  308MOL0     C41501   5.169   8.005   9.744 -0.2663 -0.0040  0.1912
  308MOL0     C41502   5.269   7.937   9.819  0.5076 -0.4028 -0.3931
  308MOL0     C41503   5.402   7.916   9.785  0.5617  0.7718 -0.0583
  308MOL0     O41504   5.479   7.816   9.842 -0.2890 -0.6445  0.2488
  308MOL0     C41505   5.485   7.682   9.793 -0.0501 -0.6786  0.4245
  308MOL0     C41506   5.348   7.613   9.814  0.0579 -0.0524  0.7017
  308MOL0     C41507   5.378   7.457   9.790  0.5221 -0.2861  0.6260
  308MOL0     C41508   5.252   7.379   9.777 -0.2225  0.5864  1.0256
  308MOL0     C41509   5.173   7.398   9.899 -0.7140 -0.1772 -0.0983
  308MOL0     C41510   5.114   7.425   9.998  1.3173 -0.3338  0.7920
  308MOL0     C41511   5.435   7.970   9.664 -0.1273 -0.4029 -0.0341
  308MOL0     C41512   5.344   8.052   9.588 -0.3862  0.9516  0.1207
  308MOL0     H41513   5.237   8.352   9.263 -0.4656 -5.2892 -2.7692
  308MOL0     H41514   5.105   8.505   9.134 -1.4989 -0.7237 -1.5925
  308MOL0     H41515   4.873   8.708   9.254 -0.0543  2.6960  0.2820
  308MOL0     H41516   4.973   8.679   9.110  1.4713  0.3672  3.2438
  308MOL0     H41517   4.681   8.708   9.083 -0.3697 -0.0477  0.4802
  308MOL0     H41518   4.763   8.849   9.130 -0.2173 -1.1269  1.5079
  308MOL0     H41519   4.893   8.842   8.926  1.2603 -1.0372  3.8277
  308MOL0     H41520   4.833   8.675   8.883 -3.7806 -0.2603 -2.7934
  308MOL0     H41521   4.599   8.781   8.903 -0.7580  1.7148  0.3796
  308MOL0     H41522   4.678   8.933   8.899 -0.8171 -1.2916  3.4642
  308MOL0     H41523   4.800   8.877   8.691 -2.1730  2.7900 -0.0893
  308MOL0     H41524   4.749   8.717   8.693 -1.5803 -2.0432  2.1623
  308MOL0     H41525   4.504   8.847   8.695  0.9446  2.2542  0.5148
  308MOL0     H41526   4.593   8.946   8.584  3.5827 -1.1342 -0.1248
  308MOL0     H41527   4.639   8.765   8.424 -1.9338  1.2195 -0.6107
  308MOL0     H41528   4.618   8.644   8.547 -0.3118 -0.1703 -1.0333
  308MOL0     H41529   4.449   8.652   8.380  0.1819  0.8103 -0.8441
  308MOL0     H41530   4.388   8.802   8.436 -2.1589 -0.8973 -1.5897
  308MOL0     H41531   4.199   8.768   8.620  3.2490  1.2974 -1.6054
  308MOL0     H41532   3.973   8.556   8.729  0.9149 -0.0739  0.0703
  308MOL0     H41533   4.079   8.424   8.790  0.6873  0.2747 -1.5259
  308MOL0     H41534   4.126   8.711   8.873  2.5888  0.1168  2.5943
  308MOL0     H41535   4.161   8.573   8.972  1.5242  0.4291  0.8123
  308MOL0     H41536   3.898   8.714   8.931  2.3879  1.8461 -1.3516
  308MOL0     H41537   3.992   8.724   9.071 -0.7273 -0.5592  0.5345
  308MOL0     H41538   3.867   8.474   8.985  5.2355 -1.9529  0.6834
  308MOL0     H41539   3.799   8.589   9.108 -0.8461 -0.6763 -0.4721
  308MOL0     H41540   3.747   8.345   9.123  0.7343  0.9772 -0.9882
  308MOL0     H41541   3.686   8.003   9.209 -0.0811  0.4041  0.5875
  308MOL0     H41542   3.597   8.106   9.290 -1.9423 -0.4927 -1.8863
  308MOL0     H41543   3.641   8.143   9.124  0.6543  1.5997  0.5594
  308MOL0     H41544   3.925   8.061   9.712  0.0685 -1.2336  0.1161
  308MOL0     H41545   3.893   8.020   9.950  0.0906 -1.3523 -0.3583
  308MOL0     H41546   3.457   8.022  10.108  1.8489  0.7198 -0.7817
  308MOL0     H41547   3.477   7.841  10.095 -1.0720  0.1950  0.9475
  308MOL0     H41548   3.439   7.970  10.314  0.2272  0.9224  0.0302
  308MOL0     H41549   3.562   7.843  10.320  0.0692 -0.0113 -0.0081
  308MOL0     H41550   3.575   8.146  10.272 -1.2167  0.5606  1.1574
  308MOL0     H41551   3.711   8.046  10.280  0.6387 -0.5017  0.9767
  308MOL0     H41552   3.578   7.968  10.523  1.0359 -0.3974  0.2590
  308MOL0     H41553   3.711   8.088  10.529 -1.1026  2.3480  1.4529
  308MOL0     H41554   3.425   8.144  10.473  0.5409  1.2344 -2.4149
  308MOL0     H41555   3.566   8.263  10.496  1.9568 -0.2061  1.8145
  308MOL0     H41556   3.455   8.093  10.723  2.0344 -1.8563 -0.7220
  308MOL0     H41557   3.597   8.192  10.731  2.3788 -0.9307 -2.7972
  308MOL0     H41558   3.357   8.334  10.615  1.1202 -1.5572 -1.3496
  308MOL0     H41559   3.424   8.383  10.758  1.3208  0.2062 -1.8859
  308MOL0     H41560   3.337   8.204  10.896 -2.9549  1.1937  1.2069
  308MOL0     H41561   3.248   8.152  10.756 -2.8455 -0.1968  4.1426
  308MOL0     H41562   3.462   7.960   9.865  0.1976 -3.5319  1.8293
  308MOL0     H41563   3.506   7.983   9.628  0.9945  1.0721 -2.4024
  308MOL0     H41564   4.066   8.208   9.478  1.1444  0.7724 -1.0839
  308MOL0     H41565   4.109   8.408   9.350 -1.6735  1.7587  4.0476
  308MOL0     H41566   4.738   8.321   9.263 -0.6510  1.2502 -2.8878
  308MOL0     H41567   4.875   8.174   9.399  3.0322 -3.3239 -0.7898
  308MOL0     H41568   5.064   8.015   9.767 -0.0601  2.1895  0.3835
  308MOL0     H41569   5.233   7.879   9.904  3.3995  0.1349  1.3658
  308MOL0     H41570   5.519   7.674   9.690  2.0057 -2.2699  1.1446
  308MOL0     H41571   5.554   7.618   9.850 -1.8530 -1.6068  1.7019
  308MOL0     H41572   5.268   7.644   9.746 -1.9215  0.3185  3.0814
  308MOL0     H41573   5.309   7.633   9.914  0.5628 -0.4331  0.9816
  308MOL0     H41574   5.434   7.428   9.878 -1.4859  1.4749  2.6145
  308MOL0     H41575   5.439   7.436   9.702 -1.6355 -2.7952 -0.3918
  308MOL0     H41576   5.272   7.272   9.766 -1.5415 -0.3697  5.6652
  308MOL0     H41577   5.193   7.421   9.695  1.8026  0.6831 -0.4422
  308MOL0     H41578   5.079   7.479  10.084 -0.0856 -0.4919  0.3526
  308MOL0     H41579   5.540   7.966   9.637  0.4679  2.0344  1.5650
  308MOL0     H41580   5.366   8.084   9.487  0.6564 -0.9199 -0.2906
  309MOL0     O41581   0.311   8.892   0.665 -0.4049  0.5702  0.4344
  309MOL0     C41582   0.219   8.898   0.740  0.9158 -0.2019 -0.3923
  309MOL0     O41583   0.206   8.979   0.847  0.3664 -0.1200  0.4150
  309MOL0     C41584   0.291   9.084   0.864 -0.4866 -0.3633 -1.2219
  309MOL0     C41585   0.365   9.156   0.772  0.1398 -0.6863  0.7281
  309MOL0     C41586   0.421   9.285   0.796  1.4953 -0.1554 -1.5965
  309MOL0     C41587   0.403   9.342   0.925 -1.1565  0.6798 -0.0867
  309MOL0     O41588   0.460   9.462   0.972 -0.2140  0.2349 -0.1288
  309MOL0     C41589   0.543   9.535   0.887  0.0997  0.1199 -0.2651
  309MOL0     C41590   0.564   9.672   0.943  0.4688  0.3665 -0.0597
  309MOL0     C41591   0.453   9.777   0.920 -0.5493 -0.6131 -0.0666
  309MOL0     C41592   0.336   9.766   1.023  0.7721 -0.6363  0.0149
  309MOL0     C41593   0.240   9.892   1.013 -0.0950  1.1443  0.3724
  309MOL0     C41594   0.112   9.877   1.090 -0.1891 -0.3281  0.5035
  309MOL0     C41595   0.116   9.818   1.234 -0.3729 -0.9778  0.1052
  309MOL0     C41596  -0.015   9.825   1.300  0.0944  0.3681  0.4291
  309MOL0     N41597  -0.102   9.722   1.242 -0.4849 -0.3407 -0.8732
  309MOL0     C41598  -0.208   9.724   1.163 -0.1361  0.2914 -0.2220
  309MOL0     C41599  -0.232   9.590   1.140  0.1243  0.1316  0.2736
  309MOL0     C41600  -0.342   9.545   1.051  0.5063 -0.3509  0.1852
  309MOL0     C41601  -0.483   9.578   1.103  0.0935 -0.3037  1.3702
  309MOL0     C41602  -0.586   9.636   1.002  0.4588  0.7213  0.1250
  309MOL0     C41603  -0.721   9.661   1.066  0.5704  0.4834  0.0457
  309MOL0     O41604  -0.796   9.540   1.066 -0.1536 -0.2205 -0.3400
  309MOL0     C41605  -0.898   9.521   1.157 -0.0487 -0.1993  0.3796
  309MOL0     C41606  -0.944   9.602   1.261 -0.1028 -0.1106 -0.0612
  309MOL0     C41607  -1.055   9.573   1.333  0.4909  0.9644 -0.8672
  309MOL0     C41608  -1.099   9.672   1.443 -0.0503  0.1435 -1.2481
  309MOL0     C41609  -1.121   9.446   1.320 -0.5072 -0.3016  0.2902
  309MOL0     C41610  -1.235   9.404   1.403  0.8854  1.1826 -0.3173
  309MOL0     O41611  -1.246   9.264   1.423  0.3874  0.3006  0.3197
  309MOL0     C41612  -1.325   9.220   1.529 -0.4274  0.3771  0.1986
  309MOL0     C41613  -1.437   9.134   1.495 -1.0017  0.0168  0.1245
  309MOL0     C41614  -1.528   9.109   1.599  0.3446  0.3738  0.2629
  309MOL0     C41615  -1.511   9.165   1.724 -0.4883 -0.3479  1.2596
  309MOL0     O41616  -1.593   9.141   1.830 -0.7456 -0.2701  1.0659
  309MOL0     C41617  -1.677   9.021   1.833  0.0992 -0.2927 -0.6245
  309MOL0     C41618  -1.766   9.026   1.958 -0.1410  0.1165 -0.0855
  309MOL0     C41619  -1.837   9.161   1.971 -0.1985 -0.8707 -0.3077
  309MOL0     C41620  -1.919   9.227   1.855  0.4310  0.6702  0.6574
  309MOL0     C41621  -1.958   9.371   1.900  0.7962 -0.3515 -0.1228
  309MOL0     C41622  -2.028   9.439   1.790 -0.3354 -0.1792 -0.2105
  309MOL0     C41623  -1.944   9.491   1.677 -0.9852 -1.1084 -0.2721
  309MOL0     C41624  -1.960   9.395   1.560  0.0635  0.8946 -0.1361
  309MOL0    Cl41625  -2.129   9.406   1.494  0.2078 -0.2862  0.0233
  309MOL0     C41626  -1.402   9.252   1.751 -0.8426  0.7758  0.0189
  309MOL0     C41627  -1.312   9.274   1.650 -0.0643 -0.2167 -0.2772
  309MOL0     O41628  -1.310   9.489   1.446  0.3545  0.5668 -0.9271
  309MOL0     C41629  -1.079   9.370   1.214  0.1549  0.3913  0.7666
  309MOL0     C41630  -0.959   9.395   1.142 -0.1550 -0.2670  0.5785
  309MOL0     N41631  -0.145   9.513   1.192 -1.6698 -0.7510 -0.3448
  309MOL0     N41632  -0.068   9.590   1.260  0.6561 -0.4876 -0.4671
  309MOL0     C41633   0.323   9.274   1.023 -0.3931  0.0974  0.1136
  309MOL0     C41634   0.274   9.145   0.995 -0.8929  0.5939  0.2609
  309MOL0     C41635   0.111   8.802   0.713 -0.3306 -0.3186  1.4013
  309MOL0     C41636  -0.016   8.815   0.765 -0.2328 -0.5361 -0.7389
  309MOL0     C41637  -0.116   8.722   0.738 -0.1581  0.7123 -0.0931
  309MOL0     C41638  -0.104   8.613   0.653  0.3199  1.0018  0.0494
  309MOL0     O41639  -0.214   8.531   0.641 -0.6071 -0.2722 -0.0279
  309MOL0     C41640  -0.202   8.422   0.543  0.0098 -0.3359  0.4522
  309MOL0     C41641  -0.335   8.347   0.507  0.3082 -0.1715  1.0702
  309MOL0     C41642  -0.322   8.220   0.428 -0.1243  0.4010 -0.1366
  309MOL0     C41643  -0.276   8.102   0.512 -0.0375  1.1121  0.4399
  309MOL0     C41644  -0.314   7.983   0.425 -0.3747  0.0820 -0.9062
  309MOL0     C41645  -0.337   7.880   0.369 -0.0286  0.1681 -0.3931
  309MOL0     C41646   0.021   8.601   0.590  0.5264 -0.3324  0.4257
  309MOL0     C41647   0.125   8.697   0.616  0.0724 -0.1656  0.3897
  309MOL0     H41648   0.382   9.117   0.673  0.9278 -0.3674  0.7292
  309MOL0     H41649   0.474   9.347   0.723  0.0678  2.3759 -0.6135
  309MOL0     H41650   0.638   9.482   0.872  0.7620 -1.1839  5.7388
  309MOL0     H41651   0.486   9.542   0.794  0.1501  2.9878 -0.1442
  309MOL0     H41652   0.599   9.654   1.045  4.2181 -2.2242 -1.5413
  309MOL0     H41653   0.647   9.703   0.879 -0.5708  3.3225 -0.1233
  309MOL0     H41654   0.494   9.878   0.933  3.4615 -1.8160 -1.7916
  309MOL0     H41655   0.423   9.766   0.816 -0.6433  1.2710 -0.2778
  309MOL0     H41656   0.286   9.670   1.006  0.1002 -0.8030  2.5603
  309MOL0     H41657   0.385   9.763   1.120  1.7397  0.4667 -0.4166
  309MOL0     H41658   0.288   9.985   1.045 -0.1671  3.0509 -4.2936
  309MOL0     H41659   0.220   9.902   0.906  0.4960  2.6145  0.3879
  309MOL0     H41660   0.076   9.980   1.095  0.3477 -0.2152  3.2887
  309MOL0     H41661   0.041   9.817   1.031 -2.1870  1.1596  1.3029
  309MOL0     H41662   0.162   9.719   1.233  2.0482  0.0266  1.9468
  309MOL0     H41663   0.174   9.892   1.290 -1.5079 -0.8357  1.1510
  309MOL0     H41664  -0.066   9.922   1.304 -0.7946 -0.1298  2.4421
  309MOL0     H41665  -0.002   9.812   1.408  0.3453  1.6733  0.5792
  309MOL0     H41666  -0.273   9.804   1.132 -1.3347 -0.1980  0.9334
  309MOL0     H41667  -0.338   9.597   0.955  0.5502  2.2870  1.5283
  309MOL0     H41668  -0.326   9.438   1.035  1.9668 -0.0874 -0.3126
  309MOL0     H41669  -0.469   9.644   1.189 -1.3952  0.9349  0.7014
  309MOL0     H41670  -0.535   9.490   1.140 -1.8126  0.8734  1.5989
  309MOL0     H41671  -0.600   9.570   0.916 -3.4414 -0.0019  1.1288
  309MOL0     H41672  -0.547   9.730   0.961  1.8714 -0.3276 -1.0642
  309MOL0     H41673  -0.774   9.736   1.007 -1.2194  0.3145  1.3621
  309MOL0     H41674  -0.711   9.710   1.164 -2.2797 -0.5662  0.9484
  309MOL0     H41675  -0.904   9.701   1.281  0.6843 -0.4573  0.1218
  309MOL0     H41676  -1.016   9.741   1.461 -0.8178  0.1060  4.0755
  309MOL0     H41677  -1.194   9.720   1.418 -0.1257 -0.4130 -2.0628
  309MOL0     H41678  -1.107   9.618   1.538 -0.0412  2.9210  0.4454
  309MOL0     H41679  -1.452   9.081   1.401 -0.0361 -1.0142  0.5413
  309MOL0     H41680  -1.610   9.038   1.587  1.6072 -1.1997  0.6229
  309MOL0     H41681  -1.739   9.005   1.744 -1.3202 -1.0543  0.4678
  309MOL0     H41682  -1.612   8.934   1.845  1.5940  1.0653  2.3677
  309MOL0     H41683  -1.844   8.950   1.947 -0.9602  1.0016 -0.4455
  309MOL0     H41684  -1.709   9.017   2.050 -0.8458  2.4784  0.6493
  309MOL0     H41685  -1.767   9.237   2.008  0.2553 -2.7689  3.2592
  309MOL0     H41686  -1.895   9.160   2.064  3.0852 -1.8779  1.9313
  309MOL0     H41687  -1.867   9.216   1.760 -0.7639 -4.5846  0.3230
  309MOL0     H41688  -2.000   9.156   1.838  0.6623  0.9917 -2.3336
  309MOL0     H41689  -1.879   9.442   1.927 -0.5960  1.4295 -0.5584
  309MOL0     H41690  -2.029   9.361   1.982 -0.6035 -1.0563 -1.3776
  309MOL0     H41691  -2.102   9.369   1.748 -3.2775  2.2357  0.5849
  309MOL0     H41692  -2.097   9.518   1.822 -0.4607 -0.7163  0.8898
  309MOL0     H41693  -1.837   9.492   1.702 -1.4449 -1.2367  1.8649
  309MOL0     H41694  -1.967   9.587   1.630 -0.4332  0.3066  2.1730
  309MOL0     H41695  -1.923   9.292   1.568  2.4187  1.6725 -0.3332
  309MOL0     H41696  -1.904   9.436   1.476  0.8259  0.8176  0.3320
  309MOL0     H41697  -1.394   9.309   1.843  2.0953 -1.4481  1.3229
  309MOL0     H41698  -1.234   9.339   1.688  3.1544 -5.5145  3.3629
  309MOL0     H41699  -1.126   9.275   1.190 -2.6246  1.2853  2.2965
  309MOL0     H41700  -0.946   9.316   1.069 -0.7883 -1.5535  1.8020
  309MOL0     H41701   0.306   9.332   1.113  0.7051  0.0165  0.3918
  309MOL0     H41702   0.212   9.113   1.078 -2.5901  2.2848 -0.2903
  309MOL0     H41703  -0.027   8.883   0.848  0.9474  0.1426 -1.1134
  309MOL0     H41704  -0.207   8.717   0.798 -0.6035  0.0442 -0.8090
  309MOL0     H41705  -0.167   8.469   0.452 -0.3106 -0.2556  0.3689
  309MOL0     H41706  -0.127   8.358   0.591 -0.2717  0.5981  2.2196
  309MOL0     H41707  -0.397   8.411   0.443  1.0848  0.2140  0.6764
  309MOL0     H41708  -0.394   8.326   0.596  0.2499 -1.7329  0.7004
  309MOL0     H41709  -0.246   8.228   0.350 -0.7053 -1.7138 -0.9645
  309MOL0     H41710  -0.416   8.198   0.378  0.0733  1.2103 -0.8995
  309MOL0     H41711  -0.327   8.089   0.608 -1.8334 -1.8315 -0.7586
  309MOL0     H41712  -0.168   8.099   0.527  0.0791  2.7996  0.0749
  309MOL0     H41713  -0.350   7.791   0.312  5.2572  0.5161 -2.7126
  309MOL0     H41714   0.047   8.519   0.524  0.2341  3.0598 -4.4316
  309MOL0     H41715   0.221   8.688   0.567  0.7199  0.4667  1.4767
  310MOL0     O41716   8.468   0.297   3.029  0.6390 -0.4093 -0.5348
  310MOL0     C41717   8.361   0.358   3.011 -0.2151  0.4007  0.4923
  310MOL0     O41718   8.341   0.460   2.936 -0.5585  0.5274 -0.6329
  310MOL0     C41719   8.416   0.495   2.836  0.1899  0.5613  0.2008
  310MOL0     C41720   8.441   0.628   2.824  0.6211  0.8397  0.9069
  310MOL0     C41721   8.527   0.668   2.724  0.0275  0.2199  0.0637
  310MOL0     C41722   8.580   0.577   2.627  0.4148 -1.2192 -0.0746
  310MOL0     O41723   8.668   0.626   2.539 -0.2867 -0.4468  0.2573
  310MOL0     C41724   8.633   0.604   2.400  0.1460 -0.8664  0.2949
  310MOL0     C41725   8.504   0.665   2.344  0.3210  0.4098  0.0681
  310MOL0     C41726   8.472   0.638   2.195 -0.2011 -0.0271 -1.5992
  310MOL0     C41727   8.340   0.696   2.150  0.8411 -0.1606 -0.2966
  310MOL0     C41728   8.295   0.644   2.011 -0.9598 -0.1516  1.3121
  310MOL0     C41729   8.396   0.680   1.887  0.5231 -0.1431 -0.1701
  310MOL0     C41730   8.319   0.666   1.747 -0.0096  0.2151  0.5202
  310MOL0     C41731   8.389   0.716   1.620 -0.2104  0.2400  1.0307
  310MOL0     N41732   8.439   0.857   1.625 -0.7297 -0.3001 -1.0955
  310MOL0     C41733   8.360   0.958   1.678  0.8399 -0.1055  0.4379
  310MOL0     C41734   8.428   1.071   1.649  0.2506 -0.4841  0.5169
  310MOL0     C41735   8.359   1.205   1.647 -0.2431  0.1822 -0.1858
  310MOL0     C41736   8.286   1.209   1.518  0.8719 -0.0269 -0.0328
  310MOL0     C41737   8.371   1.219   1.393 -0.1358 -0.7000  0.3329
  310MOL0     C41738   8.489   1.324   1.396  0.0840  0.8423 -0.3028
  310MOL0     O41739   8.437   1.461   1.390  0.3791  0.1803  0.4500
  310MOL0     C41740   8.452   1.528   1.269  0.0437 -1.0808 -0.2826
  310MOL0     C41741   8.568   1.599   1.227  0.1521  0.6516  0.9230
  310MOL0     C41742   8.577   1.646   1.097 -0.2146 -0.1697 -0.5037
  310MOL0     C41743   8.706   1.722   1.070  0.4465  0.2178  0.5223
  310MOL0     C41744   8.465   1.639   1.016  0.4522 -0.1140  0.2451
  310MOL0     C41745   8.462   1.702   0.882  0.0071 -0.6531 -0.0851
  310MOL0     O41746   8.588   1.694   0.823 -0.7071  0.6209  0.3411
  310MOL0     C41747   8.621   1.719   0.692  0.3727 -0.5300  0.1985
  310MOL0     C41748   8.735   1.788   0.658 -0.4335  0.0664 -0.6464
  310MOL0     C41749   8.767   1.793   0.525 -0.0568  0.6925  0.5549
  310MOL0     C41750   8.692   1.727   0.422 -0.3195  0.3168  0.0251
  310MOL0     O41751   8.730   1.723   0.295  0.0423  0.2574 -0.0237
  310MOL0     C41752   8.764   1.850   0.233 -0.6532 -0.1972 -0.3950
  310MOL0     C41753   8.651   1.954   0.221 -0.0028  1.3021  0.2743
  310MOL0     C41754   8.631   2.056   0.332  0.2726  0.4050 -0.8376
  310MOL0     C41755   8.511   2.017   0.421 -0.8661  0.0873 -1.1949
  310MOL0     C41756   8.546   2.066   0.566  0.0692 -0.5942  0.4045
  310MOL0     C41757   8.428   2.061   0.658  0.2500  0.6035 -0.3892
  310MOL0     C41758   8.471   2.112   0.802 -0.2732  0.0628  0.1708
  310MOL0     C41759   8.365   2.089   0.918  0.5625  0.2801 -0.3104
  310MOL0    Cl41760   8.224   2.191   0.909 -0.1832  0.4075 -0.0628
  310MOL0     C41761   8.582   1.652   0.456  0.2608  0.1368  0.4424
  310MOL0     C41762   8.550   1.648   0.588 -0.7244 -0.0224 -0.0201
  310MOL0     O41763   8.361   1.736   0.825  0.6892 -0.1143  0.4805
  310MOL0     C41764   8.351   1.564   1.047  0.3614 -0.8073 -0.3580
  310MOL0     C41765   8.344   1.507   1.173 -0.2978  0.2602 -0.4866
  310MOL0     N41766   8.547   1.034   1.598 -0.3312 -0.2931  0.3494
  310MOL0     N41767   8.552   0.909   1.581  0.0233 -0.4697 -0.0757
  310MOL0     C41768   8.547   0.448   2.633 -0.1666  0.0824 -0.1362
  310MOL0     C41769   8.474   0.402   2.745 -0.3282  0.4998  1.2819
  310MOL0     C41770   8.247   0.286   3.067 -0.3649  0.0804 -0.7508
  310MOL0     C41771   8.125   0.347   3.075  0.3069  0.3867 -0.3779
  310MOL0     C41772   8.009   0.285   3.135 -0.1562  0.2079  0.6714
  310MOL0     C41773   8.029   0.155   3.189  1.1879 -0.0895  0.1722
  310MOL0     O41774   7.935   0.082   3.255 -0.4892  0.7509 -0.0791
  310MOL0     C41775   7.798   0.113   3.244  0.0441 -0.9521 -0.2220
  310MOL0     C41776   7.723   0.056   3.122 -0.8468  0.2958  0.0930
  310MOL0     C41777   7.658   0.174   3.040  0.3258  0.2657  0.3401
  310MOL0     C41778   7.556   0.114   2.943 -1.0386 -0.4232  0.3361
  310MOL0     C41779   7.613   0.023   2.842  0.0526  0.2471  0.5889
  310MOL0     C41780   7.668  -0.058   2.772  0.7914  0.3113  0.3189
  310MOL0     C41781   8.154   0.091   3.180 -0.0507  0.6554 -0.8314
  310MOL0     C41782   8.263   0.160   3.122  0.2739  0.0822  0.1049
  310MOL0     H41783   8.404   0.698   2.898  0.6412 -0.6408  2.3545
  310MOL0     H41784   8.550   0.774   2.719  2.1382 -0.2599 -1.7630
  310MOL0     H41785   8.724   0.639   2.350  0.1578 -0.9374  0.2676
  310MOL0     H41786   8.627   0.496   2.387 -0.6841 -0.8685  0.6155
  310MOL0     H41787   8.428   0.621   2.410  1.0215 -2.9193 -1.1022
  310MOL0     H41788   8.502   0.773   2.355  0.7508  0.2663  1.6996
  310MOL0     H41789   8.555   0.679   2.137  1.6686  0.5064  1.1919
  310MOL0     H41790   8.468   0.529   2.189 -3.7370 -0.5100  3.2057
  310MOL0     H41791   8.263   0.666   2.222  0.2166 -0.8545 -1.2418
  310MOL0     H41792   8.350   0.804   2.144  0.0371 -0.1059 -0.7833
  310MOL0     H41793   8.300   0.535   2.019  1.6712  0.0029  3.2234
  310MOL0     H41794   8.191   0.669   1.989 -0.5713  1.2229  0.8841
  310MOL0     H41795   8.407   0.788   1.898 -2.6012  0.3068 -0.4866
  310MOL0     H41796   8.487   0.620   1.899 -0.0630 -1.2179 -0.9408
  310MOL0     H41797   8.287   0.561   1.742 -2.2203  0.8235  0.6765
  310MOL0     H41798   8.225   0.722   1.752 -0.8513 -1.1004 -0.0656
  310MOL0     H41799   8.326   0.702   1.532  0.2016  2.4641  0.3210
  310MOL0     H41800   8.476   0.655   1.594 -0.5348 -0.2904  1.1709
  310MOL0     H41801   8.264   0.936   1.724  1.3949 -1.5516  0.9912
  310MOL0     H41802   8.292   1.214   1.732 -0.3931 -3.0805  0.1280
  310MOL0     H41803   8.432   1.286   1.659  2.7547 -2.1166 -1.6426
  310MOL0     H41804   8.235   1.306   1.522  0.2070 -0.2380 -2.0570
  310MOL0     H41805   8.222   1.123   1.500  1.9206 -0.4180 -2.2728
  310MOL0     H41806   8.302   1.250   1.314  0.7330  4.7460  1.2965
  310MOL0     H41807   8.422   1.127   1.365 -0.5882  0.1742 -3.9859
  310MOL0     H41808   8.545   1.298   1.306 -3.8037 -1.8680 -2.2226
  310MOL0     H41809   8.555   1.313   1.482 -1.8020  0.5824  1.1903
  310MOL0     H41810   8.646   1.625   1.298 -0.8201  0.6949  1.9972
  310MOL0     H41811   8.695   1.828   1.044  2.1979  0.1665 -0.5772
  310MOL0     H41812   8.773   1.730   1.156  3.6301 -1.3241 -1.6291
  310MOL0     H41813   8.755   1.661   0.993  0.3296  2.1447 -1.1677
  310MOL0     H41814   8.791   1.837   0.737  1.2728 -1.3611 -0.9160
  310MOL0     H41815   8.858   1.842   0.492 -1.9699  2.3158 -2.9032
  310MOL0     H41816   8.851   1.900   0.277  0.0753  1.2129 -3.2366
  310MOL0     H41817   8.806   1.836   0.134  1.7006  1.0935  0.3413
  310MOL0     H41818   8.683   2.009   0.132  0.8558 -2.4191 -1.9324
  310MOL0     H41819   8.559   1.902   0.192  0.5828  0.1941  0.3855
  310MOL0     H41820   8.612   2.156   0.293 -2.2579  1.1538  1.9490
  310MOL0     H41821   8.718   2.050   0.398 -1.5156 -1.1219  1.5423
  310MOL0     H41822   8.414   2.066   0.404 -0.1299  2.7585  1.3893
  310MOL0     H41823   8.496   1.909   0.420 -3.0576  0.3399 -0.5599
  310MOL0     H41824   8.570   2.173   0.570  1.4508 -0.6794 -2.6876
  310MOL0     H41825   8.629   2.011   0.610  0.7245 -0.7853 -1.0255
  310MOL0     H41826   8.347   2.129   0.628 -0.9972  0.4098  2.2534
  310MOL0     H41827   8.384   1.961   0.659  1.3194  0.1094 -1.1877
  310MOL0     H41828   8.499   2.216   0.783 -1.7757  0.7087  1.2786
  310MOL0     H41829   8.565   2.064   0.832 -0.4160  0.2140  0.8875
  310MOL0     H41830   8.421   2.106   1.011  3.1902 -4.8056 -0.6374
  310MOL0     H41831   8.326   1.987   0.912 -1.5862  0.9942  0.4564
  310MOL0     H41832   8.514   1.599   0.390 -1.5571  0.6329  1.8296
  310MOL0     H41833   8.467   1.585   0.617 -2.0176  1.9611  0.8069
  310MOL0     H41834   8.271   1.546   0.976 -0.4460  2.3874 -0.4033
  310MOL0     H41835   8.257   1.452   1.207  2.1503 -3.3606  0.4668
  310MOL0     H41836   8.580   0.375   2.560  1.5626  2.1586 -1.5523
  310MOL0     H41837   8.463   0.294   2.752  4.2875 -0.4526 -1.6686
  310MOL0     H41838   8.125   0.453   3.051 -1.5041  1.0183  2.0241
  310MOL0     H41839   7.911   0.329   3.123  0.4705  1.3615 -0.5573
  310MOL0     H41840   7.746   0.072   3.331  1.3464 -5.4900 -1.3442
  310MOL0     H41841   7.786   0.221   3.229 -1.6779 -1.1385 -0.3137
  310MOL0     H41842   7.648  -0.018   3.151 -0.8807 -0.0171 -0.7691
  310MOL0     H41843   7.792   0.004   3.055  0.3512  2.3521 -0.3518
  310MOL0     H41844   7.738   0.227   2.988  2.4661  0.7890  3.8557
  310MOL0     H41845   7.604   0.249   3.098 -1.4735 -2.9114  3.1225
  310MOL0     H41846   7.505   0.192   2.886  2.7155  1.3070 -0.9947
  310MOL0     H41847   7.483   0.061   3.005 -0.9632 -0.6674  0.2164
  310MOL0     H41848   7.719  -0.131   2.711  0.0085 -0.6578  0.8098
  310MOL0     H41849   8.157  -0.005   3.231 -2.5604 -0.8903 -3.3226
  310MOL0     H41850   8.358   0.110   3.109 -0.3525 -0.8859 -0.8984
  311MOL0     O41851   7.269   0.088   0.523  0.3212 -0.0309 -0.0768
  311MOL0     C41852   7.285  -0.031   0.552  0.0381  0.2786  0.1139
  311MOL0     O41853   7.230  -0.098   0.655 -0.2005 -0.2165  1.3437
  311MOL0     C41854   7.144  -0.036   0.749 -0.7948  0.1584 -0.1303
  311MOL0     C41855   7.064  -0.115   0.825  0.4990  0.0281  0.2499
  311MOL0     C41856   6.993  -0.060   0.933 -0.5784  0.0475  0.5077
  311MOL0     C41857   7.010   0.074   0.969 -0.6966  0.0784 -0.7630
  311MOL0     O41858   6.936   0.106   1.080 -1.2696 -0.7479  0.0185
  311MOL0     C41859   6.914   0.237   1.114 -0.2951  0.3870  0.2772
  311MOL0     C41860   6.796   0.243   1.220 -0.4987 -0.2041  0.0783
  311MOL0     C41861   6.673   0.168   1.165 -0.4607 -0.5212  0.1392
  311MOL0     C41862   6.553   0.170   1.263  0.1786  0.0766 -0.2252
  311MOL0     C41863   6.417   0.136   1.200 -0.0751  0.5467 -0.3884
  311MOL0     C41864   6.391  -0.006   1.178  0.4561 -0.5733 -0.5307
  311MOL0     C41865   6.247  -0.023   1.145  1.4743  0.6354  0.1832
  311MOL0     C41866   6.205  -0.175   1.129 -0.7998  0.6792  0.5747
  311MOL0     N41867   6.065  -0.190   1.094  0.3194 -0.3183  0.4836
  311MOL0     C41868   5.957  -0.128   1.156  1.0303 -0.3276  0.4680
  311MOL0     C41869   5.852  -0.159   1.069  0.1294  0.6044  0.1960
  311MOL0     C41870   5.728  -0.078   1.063 -0.1054  0.6527 -0.4904
  311MOL0     C41871   5.698  -0.008   0.935 -0.4771  0.0679  0.7023
  311MOL0     C41872   5.799   0.106   0.909 -0.8809 -0.6179 -0.8178
  311MOL0     C41873   5.756   0.199   0.803  0.4616  0.1800  0.5456
  311MOL0     O41874   5.853   0.311   0.805 -0.3650  0.3275  0.7926
  311MOL0     C41875   5.816   0.433   0.749  0.7916  0.2090 -0.3176
  311MOL0     C41876   5.871   0.553   0.795  0.2028 -0.2984 -0.0283
  311MOL0     C41877   5.839   0.684   0.743 -0.2448  0.5558  0.8005
  311MOL0     C41878   5.889   0.806   0.810 -0.8354  0.1467  1.2155
  311MOL0     C41879   5.739   0.691   0.640 -0.8245  0.0001 -0.1733
  311MOL0     C41880   5.695   0.820   0.582  0.1458 -0.5838  0.1754
  311MOL0     O41881   5.787   0.908   0.538  0.3628  0.2843  0.0599
  311MOL0     C41882   5.782   1.046   0.551  0.1773 -0.0179 -0.2731
  311MOL0     C41883   5.906   1.107   0.513  0.3429 -0.8541  0.6579
  311MOL0     C41884   5.915   1.243   0.533 -1.4277 -2.0436  0.5879
  311MOL0     C41885   5.814   1.325   0.578  0.4197  0.6509 -0.1564
  311MOL0     O41886   5.829   1.460   0.591  1.0544  0.3989  0.0000
  311MOL0     C41887   5.946   1.519   0.553  0.0781  0.1199 -0.4679
  311MOL0     C41888   5.932   1.673   0.557  0.0535 -0.0214  0.1259
  311MOL0     C41889   5.797   1.731   0.499 -0.4778  0.4517  0.9954
  311MOL0     C41890   5.797   1.883   0.478  0.0663 -0.4873 -0.5306
  311MOL0     C41891   5.858   1.920   0.342  0.5380  0.6887 -0.1064
  311MOL0     C41892   5.836   2.072   0.311  0.5054  0.1724  0.5566
  311MOL0     C41893   5.871   2.103   0.168  0.5520 -0.5795  0.1647
  311MOL0     C41894   5.897   2.254   0.142 -0.1995  1.9363 -0.1634
  311MOL0    Cl41895   5.782   2.367   0.226  0.0515 -0.0082 -0.4119
  311MOL0     C41896   5.694   1.267   0.616  0.4675 -0.0599  0.0348
  311MOL0     C41897   5.680   1.128   0.604 -0.3841  0.2479  0.6978
  311MOL0     O41898   5.574   0.843   0.593  0.0809 -0.3497 -0.7922
  311MOL0     C41899   5.693   0.573   0.584 -0.2820  0.6804 -0.8457
  311MOL0     C41900   5.723   0.448   0.636 -0.6577  0.5768  0.3379
  311MOL0     N41901   5.898  -0.237   0.962  0.5149  0.4620  0.0314
  311MOL0     N41902   6.025  -0.254   0.980  0.1649  0.0683  0.0779
  311MOL0     C41903   7.103   0.150   0.903  0.1226  0.0586 -0.4205
  311MOL0     C41904   7.156   0.099   0.785 -0.4328 -0.5715 -0.8833
  311MOL0     C41905   7.331  -0.115   0.441  0.1746  0.1245  0.4362
  311MOL0     C41906   7.384  -0.060   0.321  0.5580 -0.4004 -1.2877
  311MOL0     C41907   7.442  -0.131   0.214 -0.8052 -0.0644 -1.2047
  311MOL0     C41908   7.436  -0.271   0.223  0.8269  0.5375 -0.4319
  311MOL0     O41909   7.488  -0.345   0.123 -0.8130 -0.5229  0.1478
  311MOL0     C41910   7.621  -0.393   0.139  0.5148 -0.1063 -0.7400
  311MOL0     C41911   7.658  -0.532   0.076  0.5878  0.1753  0.3009
  311MOL0     C41912   7.812  -0.561   0.085 -0.2659 -0.3318 -0.0249
  311MOL0     C41913   7.878  -0.607  -0.051  0.8671 -0.4907  0.6142
  311MOL0     C41914   7.866  -0.503  -0.146 -0.5861  1.0363 -0.2396
  311MOL0     C41915   7.866  -0.408  -0.218 -0.0351 -0.9786  0.1871
  311MOL0     C41916   7.372  -0.337   0.333 -0.2095 -0.3469 -0.7657
  311MOL0     C41917   7.326  -0.259   0.442  0.5666 -0.5319  0.8571
  311MOL0     H41918   7.046  -0.217   0.793 -0.8599  0.2337  0.2766
  311MOL0     H41919   6.920  -0.120   0.985 -1.2644 -0.4559 -0.9931
  311MOL0     H41920   7.001   0.284   1.160 -0.3268  1.3769 -0.6325
  311MOL0     H41921   6.875   0.282   1.022 -0.5871  2.4505  1.3527
  311MOL0     H41922   6.832   0.186   1.306 -0.2921 -1.8180 -1.0263
  311MOL0     H41923   6.789   0.346   1.256  0.4889 -0.1502  0.1407
  311MOL0     H41924   6.645   0.209   1.067 -0.1739 -0.2724  0.1581
  311MOL0     H41925   6.702   0.066   1.140  0.7250 -0.0006 -0.7247
  311MOL0     H41926   6.569   0.105   1.349 -0.9953 -0.9396 -0.7420
  311MOL0     H41927   6.549   0.273   1.299  1.0920  0.3076 -0.7440
  311MOL0     H41928   6.336   0.170   1.265 -1.9490  0.3238 -2.4921
  311MOL0     H41929   6.407   0.202   1.113 -1.3669  1.9024  0.7432
  311MOL0     H41930   6.449  -0.054   1.099 -1.2040 -0.3928 -1.9082
  311MOL0     H41931   6.407  -0.046   1.279  2.4503  1.0659 -0.1211
  311MOL0     H41932   6.186   0.016   1.227 -1.5069 -1.7343 -0.7395
  311MOL0     H41933   6.212   0.032   1.057  1.3262 -1.5231 -1.1790
  311MOL0     H41934   6.215  -0.240   1.216 -0.1688  0.8290  0.6207
  311MOL0     H41935   6.268  -0.214   1.050 -2.0399 -3.1232  1.2705
  311MOL0     H41936   5.963  -0.055   1.237 -3.6050  2.5996 -1.4063
  311MOL0     H41937   5.646  -0.149   1.079  0.3572 -0.6605 -3.2719
  311MOL0     H41938   5.727  -0.002   1.142  0.7815  0.8965 -0.6996
  311MOL0     H41939   5.603   0.044   0.950  0.0617  2.1200 -2.0825
  311MOL0     H41940   5.708  -0.078   0.851  1.7967  4.0189 -2.7346
  311MOL0     H41941   5.891   0.061   0.870 -0.1065  1.2065 -1.1580
  311MOL0     H41942   5.801   0.163   1.002 -0.4222 -1.9937  0.0648
  311MOL0     H41943   5.656   0.237   0.824  0.7933  0.0009  2.6611
  311MOL0     H41944   5.749   0.143   0.710  2.4188 -1.2789  1.1970
  311MOL0     H41945   5.947   0.566   0.871 -0.6585  0.4266  0.7333
  311MOL0     H41946   5.804   0.872   0.829  1.2858  2.8949  1.7680
  311MOL0     H41947   5.959   0.779   0.890  2.3048  0.5304 -1.1827
  311MOL0     H41948   5.954   0.846   0.732  0.4287  0.5914  2.4602
  311MOL0     H41949   5.983   1.047   0.465  0.2941  0.6106 -1.3555
  311MOL0     H41950   6.008   1.290   0.504 -2.7282  0.7171  0.5350
  311MOL0     H41951   6.026   1.499   0.626 -0.2611  0.9052  0.1312
  311MOL0     H41952   5.970   1.505   0.448  0.2587  2.1716 -0.7540
  311MOL0     H41953   5.932   1.694   0.665 -2.1246  1.3906 -0.1105
  311MOL0     H41954   6.029   1.710   0.522  1.1833 -0.3756  2.6093
  311MOL0     H41955   5.721   1.716   0.576 -3.2132  2.4364 -1.0752
  311MOL0     H41956   5.764   1.688   0.404 -1.0954  0.5851  1.1456
  311MOL0     H41957   5.692   1.913   0.471  0.1987  0.0867 -0.1470
  311MOL0     H41958   5.837   1.932   0.568 -0.9062  0.6820 -0.7111
  311MOL0     H41959   5.811   1.865   0.260  1.4471  2.1078 -1.6449
  311MOL0     H41960   5.963   1.890   0.350  0.3888  0.0261 -0.5283
  311MOL0     H41961   5.730   2.095   0.325  0.1955 -0.3041 -0.8135
  311MOL0     H41962   5.902   2.126   0.379  2.3917  1.3028 -2.0106
  311MOL0     H41963   5.781   2.081   0.110  0.2765 -0.1788  0.4371
  311MOL0     H41964   5.948   2.032   0.136  4.1794  3.1037 -0.0546
  311MOL0     H41965   5.888   2.273   0.035  4.4690  1.4815 -0.8743
  311MOL0     H41966   5.999   2.284   0.170 -0.1247  0.9889  0.6471
  311MOL0     H41967   5.614   1.331   0.651 -0.5422 -0.0268 -2.1767
  311MOL0     H41968   5.590   1.076   0.636  0.0898  0.2421  2.1081
  311MOL0     H41969   5.616   0.569   0.507  0.1819 -1.3584 -1.2721
  311MOL0     H41970   5.672   0.364   0.590 -0.0504  1.5802 -2.3877
  311MOL0     H41971   7.123   0.247   0.947  0.3023 -0.7018  1.2570
  311MOL0     H41972   7.216   0.174   0.735  1.3501  0.0638  1.9798
  311MOL0     H41973   7.398   0.046   0.302  3.7700 -0.2672  1.0450
  311MOL0     H41974   7.486  -0.096   0.121 -0.9651  2.3953 -0.4216
  311MOL0     H41975   7.685  -0.313   0.099  0.2333  0.5373  0.0642
  311MOL0     H41976   7.654  -0.384   0.243  0.8674  4.5901 -1.0282
  311MOL0     H41977   7.627  -0.541  -0.028 -0.0399 -0.1601  0.5117
  311MOL0     H41978   7.602  -0.614   0.122  0.4357 -1.0879 -1.9823
  311MOL0     H41979   7.825  -0.643   0.155 -2.9298  1.6361  3.0861
  311MOL0     H41980   7.870  -0.475   0.120 -3.5676  3.2032 -2.3006
  311MOL0     H41981   7.820  -0.691  -0.090  1.0735  0.6098 -2.3028
  311MOL0     H41982   7.982  -0.641  -0.050  0.4964 -2.1816 -2.7754
  311MOL0     H41983   7.873  -0.324  -0.285  2.5058 -0.8481  0.5294
  311MOL0     H41984   7.366  -0.445   0.343  2.2376 -0.5675 -1.1089
  311MOL0     H41985   7.289  -0.309   0.530 -2.3370 -1.7683 -0.9125
  312MOL0     O41986   8.535   1.145   7.087  0.1514  0.9038  0.1978
  312MOL0     C41987   8.456   1.234   7.101  0.3303 -0.0910  1.1907
  312MOL0     O41988   8.324   1.232   7.066 -0.2941 -0.6321  0.1409
  312MOL0     C41989   8.249   1.123   7.032 -0.7657  0.7262  0.5776
  312MOL0     C41990   8.119   1.146   6.966  0.2073 -0.8573  0.0258
  312MOL0     C41991   8.052   1.033   6.925  1.2585 -0.1932  0.6338
  312MOL0     C41992   8.080   0.902   6.961 -0.5394 -1.0306 -0.1779
  312MOL0     O41993   7.984   0.805   6.936  0.1919  0.6938 -0.4140
  312MOL0     C41994   8.026   0.703   6.845  0.1862 -1.0212  0.2658
  312MOL0     C41995   7.914   0.608   6.853 -0.3061  0.8263  0.2061
  312MOL0     C41996   7.953   0.491   6.760 -1.9455  0.5896  0.4655
  312MOL0     C41997   7.856   0.379   6.740 -0.4139  0.6949  0.3434
  312MOL0     C41998   7.925   0.245   6.747 -0.1304 -0.4023  0.4447
  312MOL0     C41999   7.849   0.120   6.689  0.7578 -0.4519  0.0235
  312MOL0     C42000   7.828   0.123   6.533  0.4311 -0.2971  0.0999
  312MOL0     C42001   7.675   0.144   6.514 -0.8320  0.3925 -0.3911
  312MOL0     N42002   7.634   0.152   6.373  0.3559  0.5072  0.5567
  312MOL0     C42003   7.668   0.065   6.271 -0.9071 -0.0469  0.0038
  312MOL0     C42004   7.614   0.125   6.158 -0.1487 -0.7951 -0.0070
  312MOL0     C42005   7.624   0.060   6.026 -0.3778 -1.0935  0.4249
  312MOL0     C42006   7.525   0.110   5.934 -0.7281  0.0844  0.3081
  312MOL0     C42007   7.380   0.040   5.954  1.4287 -0.7967  0.7485
  312MOL0     C42008   7.282   0.100   5.858  1.2566 -0.3041  0.0623
  312MOL0     O42009   7.185   0.002   5.816 -0.5064 -0.7591  0.0683
  312MOL0     C42010   7.058   0.055   5.776 -1.0505  0.9467  0.3112
  312MOL0     C42011   6.957  -0.033   5.764  0.2315 -0.6498  0.1497
  312MOL0     C42012   6.836   0.012   5.701 -0.2768 -0.1126  0.3921
  312MOL0     C42013   6.730  -0.090   5.666 -0.1744 -0.5588 -0.2264
  312MOL0     C42014   6.810   0.149   5.660 -0.2563  0.0592 -0.4149
  312MOL0     C42015   6.692   0.201   5.590 -0.7302  0.1348  0.6252
  312MOL0     O42016   6.694   0.337   5.595 -0.1869  0.4009  0.9937
  312MOL0     C42017   6.604   0.406   5.511  0.2305  0.5490  0.6630
  312MOL0     C42018   6.475   0.444   5.558  0.3320 -0.0210 -0.9663
  312MOL0     C42019   6.399   0.521   5.473 -0.1701 -1.2837  0.9160
  312MOL0     C42020   6.452   0.560   5.343  0.7090  0.0317 -1.1402
  312MOL0     O42021   6.383   0.634   5.257 -0.5932 -0.7411  0.1843
  312MOL0     C42022   6.280   0.730   5.291 -1.0064 -0.2699  0.2622
  312MOL0     C42023   6.287   0.834   5.183  0.8995 -1.3673 -0.3169
  312MOL0     C42024   6.423   0.919   5.172 -0.2516  0.5732 -0.1203
  312MOL0     C42025   6.439   1.010   5.045 -0.8930  0.1087 -0.0295
  312MOL0     C42026   6.390   1.142   5.086  0.5422  0.7061  0.3407
  312MOL0     C42027   6.397   1.259   4.979  0.0594  0.8508  0.2090
  312MOL0     C42028   6.533   1.285   4.910  0.3001  0.0442  0.0229
  312MOL0     C42029   6.527   1.384   4.792 -1.3074 -0.1897  0.1122
  312MOL0    Cl42030   6.689   1.468   4.766 -0.1103 -0.7169  0.4569
  312MOL0     C42031   6.577   0.520   5.309  0.3157  0.4480 -0.4795
  312MOL0     C42032   6.658   0.448   5.395  0.0373  0.4386  0.0744
  312MOL0     O42033   6.603   0.127   5.541 -0.3775 -0.9367  0.1271
  312MOL0     C42034   6.920   0.231   5.675  0.3333  1.2987 -0.1785
  312MOL0     C42035   7.043   0.187   5.732  0.4745  0.1049 -0.5660
  312MOL0     N42036   7.570   0.252   6.182  0.3486 -0.8775 -0.6077
  312MOL0     N42037   7.576   0.265   6.318 -0.1533 -0.7233  0.3728
  312MOL0     C42038   8.200   0.885   7.032  0.1356 -0.5323  1.0417
  312MOL0     C42039   8.282   0.994   7.070  1.2970  0.4508 -0.0044
  312MOL0     C42040   8.513   1.362   7.157  0.1332  0.1638  0.4922
  312MOL0     C42041   8.650   1.392   7.144  0.2743  0.3838  2.0217
  312MOL0     C42042   8.709   1.502   7.207  0.6948 -0.3304 -0.4780
  312MOL0     C42043   8.617   1.586   7.267  0.1168  0.1985  0.9791
  312MOL0     O42044   8.666   1.701   7.330  0.0215  0.4212 -0.7019
  312MOL0     C42045   8.623   1.721   7.463 -0.7400  0.0292  0.3271
  312MOL0     C42046   8.722   1.683   7.570  0.2084 -0.1523  0.0747
  312MOL0     C42047   8.786   1.548   7.552  0.6571  0.0155 -0.1729
  312MOL0     C42048   8.690   1.424   7.579  0.1637  0.4643 -1.0332
  312MOL0     C42049   8.654   1.422   7.717  0.2144  0.3678  0.0121
  312MOL0     C42050   8.637   1.412   7.842 -1.1139 -0.3614 -0.0292
  312MOL0     C42051   8.477   1.569   7.257 -0.6916  0.8113 -0.3330
  312MOL0     C42052   8.421   1.455   7.207 -0.2877  0.7168  0.0089
  312MOL0     H42053   8.081   1.247   6.954  0.7075 -0.7414 -0.6862
  312MOL0     H42054   7.962   1.045   6.867  2.0494  0.9643 -0.4077
  312MOL0     H42055   8.030   0.756   6.749  0.0120 -0.6873  0.4392
  312MOL0     H42056   8.122   0.655   6.862  0.7154 -0.3415 -0.6945
  312MOL0     H42057   7.885   0.577   6.954 -1.4715 -1.6354 -0.7960
  312MOL0     H42058   7.815   0.647   6.829 -0.0115  0.7039 -1.2905
  312MOL0     H42059   7.972   0.532   6.661 -0.1704  0.0302  0.5367
  312MOL0     H42060   8.044   0.443   6.796 -2.0352 -0.1046 -0.2156
  312MOL0     H42061   7.787   0.393   6.824 -0.9319 -1.3948  0.3183
  312MOL0     H42062   7.806   0.395   6.644  1.5992  2.1375 -0.5365
  312MOL0     H42063   8.027   0.257   6.708 -0.9938  3.0326 -1.1870
  312MOL0     H42064   7.947   0.233   6.853  1.9260 -1.0426 -0.0140
  312MOL0     H42065   7.905   0.031   6.718 -0.6026 -0.8844  1.4947
  312MOL0     H42066   7.750   0.124   6.736  0.5690  2.3824 -0.4420
  312MOL0     H42067   7.886   0.203   6.487 -0.5688  0.3679 -0.0280
  312MOL0     H42068   7.856   0.032   6.479  1.0437  0.3458 -0.6940
  312MOL0     H42069   7.636   0.228   6.572 -3.7026  1.0759 -3.0764
  312MOL0     H42070   7.619   0.059   6.556 -0.7932  0.4457 -0.2312
  312MOL0     H42071   7.720  -0.030   6.278 -0.9382 -0.0663 -0.0245
  312MOL0     H42072   7.727   0.063   5.990 -0.7534 -3.6770 -1.1747
  312MOL0     H42073   7.604  -0.048   6.030 -0.0562 -1.1601  0.2329
  312MOL0     H42074   7.562   0.085   5.834 -1.3846  0.9710 -0.1665
  312MOL0     H42075   7.515   0.218   5.947 -2.1028 -0.3279  3.9323
  312MOL0     H42076   7.347   0.056   6.057  0.3500  3.8374 -0.1222
  312MOL0     H42077   7.379  -0.070   5.945  1.9382 -0.8095  0.8071
  312MOL0     H42078   7.343   0.128   5.772  0.1239  0.6662 -0.4555
  312MOL0     H42079   7.218   0.176   5.902  0.1265 -1.7631  1.0579
  312MOL0     H42080   6.974  -0.136   5.793  0.6138 -0.2478  1.3692
  312MOL0     H42081   6.650  -0.061   5.733 -1.7019  1.3217 -2.6755
  312MOL0     H42082   6.697  -0.086   5.562  2.0065  0.4213 -0.9575
  312MOL0     H42083   6.768  -0.192   5.677  1.8698  0.0505 -1.0050
  312MOL0     H42084   6.427   0.427   5.654  1.2635  0.5996 -0.3813
  312MOL0     H42085   6.298   0.554   5.496 -0.2166  0.0675 -0.9626
  312MOL0     H42086   6.187   0.671   5.290 -1.0554 -0.2445  1.7613
  312MOL0     H42087   6.294   0.773   5.390 -0.1770  0.7520 -0.2864
  312MOL0     H42088   6.271   0.785   5.087  0.7690 -1.0598 -0.4568
  312MOL0     H42089   6.202   0.901   5.204  0.9924 -1.3589  0.0417
  312MOL0     H42090   6.500   0.841   5.177 -0.1447  0.6860  0.0046
  312MOL0     H42091   6.437   0.981   5.261  0.6207  1.2877 -0.7422
  312MOL0     H42092   6.542   1.041   5.027 -0.7090 -1.4151 -1.9525
  312MOL0     H42093   6.391   0.966   4.957  0.3254  0.3846 -0.8545
  312MOL0     H42094   6.448   1.175   5.173  0.8244  0.2270  0.3414
  312MOL0     H42095   6.282   1.128   5.097  0.0705  2.8809 -1.0574
  312MOL0     H42096   6.331   1.229   4.897 -0.0416 -2.8568  1.4652
  312MOL0     H42097   6.368   1.354   5.025  3.2577  1.2939  1.5721
  312MOL0     H42098   6.593   1.196   4.887 -0.7712 -0.3558 -1.4238
  312MOL0     H42099   6.585   1.356   4.975 -1.4775  1.2832  0.1453
  312MOL0     H42100   6.445   1.456   4.796  0.9740  2.5960 -0.0603
  312MOL0     H42101   6.512   1.323   4.702  1.8782 -0.2035 -0.5205
  312MOL0     H42102   6.601   0.543   5.206 -0.0316 -0.9401 -0.8950
  312MOL0     H42103   6.756   0.415   5.364 -0.7955  0.3135 -2.7263
  312MOL0     H42104   6.909   0.337   5.655 -2.2256  1.1711  0.2637
  312MOL0     H42105   7.129   0.251   5.749 -0.3920  1.9959 -2.7727
  312MOL0     H42106   8.235   0.787   7.062  1.3475  0.0868  1.7059
  312MOL0     H42107   8.372   0.978   7.130  0.4080  2.6065  2.0826
  312MOL0     H42108   8.716   1.329   7.087  3.2080  5.7252 -1.3517
  312MOL0     H42109   8.812   1.532   7.192 -0.2711  2.8975 -1.3927
  312MOL0     H42110   8.606   1.828   7.479  1.2130  0.4383 -0.0724
  312MOL0     H42111   8.529   1.669   7.487 -1.0304  0.2626 -0.2778
  312MOL0     H42112   8.661   1.695   7.660 -3.9565  1.2962 -2.6358
  312MOL0     H42113   8.804   1.755   7.576 -1.5197  2.2067 -2.2711
  312MOL0     H42114   8.876   1.548   7.615  1.1643  1.8574 -0.8331
  312MOL0     H42115   8.822   1.542   7.448  0.5332 -2.0689 -0.1412
  312MOL0     H42116   8.747   1.334   7.559  0.7544 -0.0609  2.4055
  312MOL0     H42117   8.605   1.417   7.510 -2.8402 -0.8516  2.5123
  312MOL0     H42118   8.616   1.411   7.947 -0.3176 -1.1201  0.1318
  312MOL0     H42119   8.410   1.650   7.287 -0.6082  0.6415  0.3194
  312MOL0     H42120   8.317   1.437   7.183  0.2066 -2.1537 -0.3670
  313MOL0     O42121   8.995   5.578   1.216 -0.0275  0.5189  0.4687
  313MOL0     C42122   8.984   5.480   1.284 -0.6944  0.2102  0.3618
  313MOL0     O42123   8.953   5.485   1.417 -0.0475 -0.3462  0.0811
  313MOL0     C42124   8.909   5.609   1.470  0.9978 -0.5121  0.0382
  313MOL0     C42125   8.999   5.701   1.538  0.3555  0.7994 -0.7620
  313MOL0     C42126   8.956   5.816   1.598 -1.6187  0.3570 -0.3677
  313MOL0     C42127   8.821   5.851   1.594 -0.2164  0.0900 -0.9352
  313MOL0     O42128   8.770   5.965   1.666  0.2444  0.2858  0.3454
  313MOL0     C42129   8.815   6.010   1.789  0.0235  0.2083 -0.9913
  313MOL0     C42130   8.758   5.921   1.894  0.9360 -0.1661  0.6175
  313MOL0     C42131   8.734   6.012   2.024 -0.1547  0.5608  0.4065
  313MOL0     C42132   8.685   5.913   2.134 -0.6718  1.2366 -0.3887
  313MOL0     C42133   8.530   5.904   2.118 -0.3458  0.0166 -0.2344
  313MOL0     C42134   8.476   5.792   2.205  0.1829  0.2599 -0.6326
  313MOL0     C42135   8.337   5.778   2.161 -0.1571 -1.0708 -0.9169
  313MOL0     C42136   8.322   5.671   2.043  0.2342 -0.1412  0.2336
  313MOL0     N42137   8.182   5.621   2.030  0.1377 -0.0427 -0.4149
  313MOL0     C42138   8.114   5.540   2.117 -0.4572  0.0686 -0.0313
  313MOL0     C42139   8.001   5.504   2.054 -0.3613  0.1482 -0.1786
  313MOL0     C42140   7.886   5.423   2.108  0.8515  0.2597 -0.0764
  313MOL0     C42141   7.910   5.285   2.165 -0.3613  0.6166 -0.2423
  313MOL0     C42142   7.931   5.172   2.057 -0.0884  0.2030  0.8268
  313MOL0     C42143   7.947   5.035   2.104 -1.4897  0.1313 -0.4670
  313MOL0     O42144   7.817   4.973   2.116 -0.6293  0.5676  0.8263
  313MOL0     C42145   7.826   4.834   2.116  0.2971  0.3951 -0.1951
  313MOL0     C42146   7.944   4.765   2.140  0.1023  0.3826  0.3681
  313MOL0     C42147   7.943   4.622   2.147 -0.1624  1.4951  1.2776
  313MOL0     C42148   8.061   4.538   2.199  0.0533  0.2674  0.0915
  313MOL0     C42149   7.825   4.551   2.113  0.1766  0.4661 -1.3013
  313MOL0     C42150   7.814   4.403   2.107 -0.8550 -0.5851 -0.3953
  313MOL0     O42151   7.697   4.363   2.164 -0.0329 -0.1717 -0.4398
  313MOL0     C42152   7.666   4.230   2.148  0.1559 -0.4048 -0.4199
  313MOL0     C42153   7.671   4.154   2.259 -0.2190  0.4016 -0.7959
  313MOL0     C42154   7.635   4.019   2.267 -0.5000 -0.5004  0.2774
  313MOL0     C42155   7.581   3.962   2.152 -0.0244  0.1677 -0.1073
  313MOL0     O42156   7.546   3.827   2.166 -0.0576 -0.1156  1.3846
  313MOL0     C42157   7.459   3.776   2.064 -1.1874 -0.7782 -0.2080
  313MOL0     C42158   7.454   3.623   2.078  0.8487  0.5802  0.3548
  313MOL0     C42159   7.355   3.563   1.967 -0.0230  0.8617 -0.1200
  313MOL0     C42160   7.424   3.526   1.838 -0.0885  0.9069  0.2492
  313MOL0     C42161   7.333   3.460   1.735 -1.0920  1.0137 -0.4393
  313MOL0     C42162   7.399   3.346   1.657 -0.4566  0.1194 -0.4629
  313MOL0     C42163   7.334   3.338   1.519  0.2228 -0.3581  0.5986
  313MOL0     C42164   7.410   3.235   1.435 -0.9697  0.6156  0.3761
  313MOL0    Cl42165   7.359   3.078   1.504 -0.1196  0.3816  0.9969
  313MOL0     C42166   7.567   4.035   2.036 -0.7759 -0.9167  0.6165
  313MOL0     C42167   7.621   4.170   2.028  0.7273 -0.6696 -0.4407
  313MOL0     O42168   7.899   4.326   2.052 -0.0652 -0.5869 -0.3443
  313MOL0     C42169   7.707   4.628   2.091  0.4292 -1.1719  0.5492
  313MOL0     C42170   7.706   4.767   2.095  0.5673 -0.5378 -0.0815
  313MOL0     N42171   8.014   5.541   1.925 -0.9050  0.5767  0.0120
  313MOL0     N42172   8.120   5.613   1.904  0.9555  0.4207 -0.3848
  313MOL0     C42173   8.732   5.769   1.527 -1.0111  0.7139  0.6485
  313MOL0     C42174   8.779   5.651   1.454  1.0391 -0.9372 -0.1839
  313MOL0     C42175   9.008   5.358   1.211  0.3258 -0.1255 -0.2915
  313MOL0     C42176   9.097   5.364   1.104  0.5278 -0.0430  0.0159
  313MOL0     C42177   9.130   5.254   1.034  0.1482 -0.4950 -0.2562
  313MOL0     C42178   9.065   5.129   1.053  0.7575 -0.6498  0.2452
  313MOL0     O42179   9.089   5.014   0.978 -0.4702  0.1033 -0.0920
  313MOL0     C42180   9.080   5.025   0.839  0.0869  0.8347 -1.1718
  313MOL0     C42181   9.040   4.889   0.779 -0.0874 -0.0073  0.7476
  313MOL0     C42182   9.119   4.765   0.825  0.9277 -0.5420 -0.0372
  313MOL0     C42183   9.050   4.632   0.804 -0.3574  1.4530  0.4119
  313MOL0     C42184   9.148   4.528   0.826 -1.0214  0.5459 -0.8914
  313MOL0     C42185   9.231   4.446   0.873 -0.2099 -0.2616  0.0916
  313MOL0     C42186   8.986   5.118   1.166  0.9082 -0.0583  0.9813
  313MOL0     C42187   8.959   5.233   1.249 -0.9434 -0.5125  0.4537
  313MOL0     H42188   9.098   5.657   1.549 -0.2559 -0.4199  0.1387
  313MOL0     H42189   9.028   5.870   1.658 -0.2554  1.3007 -2.7238
  313MOL0     H42190   8.922   6.030   1.804  0.0937  0.0931 -1.3236
  313MOL0     H42191   8.763   6.105   1.804 -0.4783 -0.3040  0.7549
  313MOL0     H42192   8.669   5.875   1.850  0.0014  0.8898  1.3410
  313MOL0     H42193   8.830   5.840   1.914  0.9746  0.0154  1.2394
  313MOL0     H42194   8.828   6.055   2.060 -0.9549  1.3621  1.5995
  313MOL0     H42195   8.666   6.095   2.002  1.5008  2.0660  0.6765
  313MOL0     H42196   8.730   5.816   2.111 -0.2073  0.6254  2.6561
  313MOL0     H42197   8.708   5.944   2.236  0.0624 -3.8722  1.2884
  313MOL0     H42198   8.488   6.003   2.136 -0.3539 -0.5635  3.8358
  313MOL0     H42199   8.496   5.872   2.019  0.7803 -1.5594 -0.1688
  313MOL0     H42200   8.526   5.696   2.188  1.3905  0.6586  0.5276
  313MOL0     H42201   8.482   5.812   2.312 -0.7401  3.8486 -1.1466
  313MOL0     H42202   8.282   5.739   2.248  0.3212 -0.4525 -0.3227
  313MOL0     H42203   8.296   5.879   2.148  1.6432  0.0575  1.2875
  313MOL0     H42204   8.395   5.596   2.074 -0.3484 -0.7232  0.2252
  313MOL0     H42205   8.345   5.717   1.947 -1.2194 -0.1679 -0.1525
  313MOL0     H42206   8.130   5.495   2.215 -0.6103 -1.8715 -0.8497
  313MOL0     H42207   7.852   5.483   2.193 -1.4503 -0.1527 -0.6183
  313MOL0     H42208   7.807   5.409   2.033  1.6299 -1.1699 -0.6733
  313MOL0     H42209   7.833   5.257   2.238  2.3569  0.6206  2.8789
  313MOL0     H42210   7.999   5.296   2.229  0.4871 -4.2309 -0.2315
  313MOL0     H42211   8.029   5.186   2.011  0.2158 -2.6426  0.4400
  313MOL0     H42212   7.855   5.177   1.979  2.2956  1.7759 -1.5646
  313MOL0     H42213   8.015   5.031   2.190  0.5485 -1.6731 -2.0412
  313MOL0     H42214   7.999   4.987   2.021  0.8910  2.8930 -0.7312
  313MOL0     H42215   8.026   4.826   2.178  1.6877 -0.3348 -1.7200
  313MOL0     H42216   8.092   4.452   2.140 -4.0822 -0.6049 -1.1341
  313MOL0     H42217   8.141   4.612   2.203  4.5083 -4.1141  2.8027
  313MOL0     H42218   8.050   4.507   2.303 -1.7005  1.6998  0.4002
  313MOL0     H42219   7.712   4.203   2.346  1.4527  1.5279 -2.1599
  313MOL0     H42220   7.641   3.967   2.363  0.0374 -0.9978 -0.0141
  313MOL0     H42221   7.357   3.807   2.090 -1.0927 -1.3305  0.9147
  313MOL0     H42222   7.500   3.796   1.965  0.5413  1.8129  0.9283
  313MOL0     H42223   7.547   3.568   2.062  0.6570  0.4510 -0.3485
  313MOL0     H42224   7.421   3.593   2.178  1.6427 -0.5932  0.2759
  313MOL0     H42225   7.284   3.639   1.933 -1.9384 -0.5037  0.6554
  313MOL0     H42226   7.294   3.484   2.011  0.0095  1.6641  1.4426
  313MOL0     H42227   7.477   3.614   1.800  0.1519  0.7314  0.1717
  313MOL0     H42228   7.504   3.455   1.862  1.0834  1.6461 -1.2720
  313MOL0     H42229   7.309   3.546   1.671 -0.8918 -0.0347 -1.9810
  313MOL0     H42230   7.239   3.430   1.781 -1.0107  0.0024 -0.9109
  313MOL0     H42231   7.508   3.351   1.660 -0.3319 -1.7647  2.1929
  313MOL0     H42232   7.389   3.247   1.701  1.4189 -1.0176 -2.3886
  313MOL0     H42233   7.344   3.437   1.475  2.5465  0.9287  3.6920
  313MOL0     H42234   7.227   3.318   1.535  0.6576 -2.2401  1.5221
  313MOL0     H42235   7.518   3.249   1.445 -0.9427 -0.1620  1.3554
  313MOL0     H42236   7.384   3.233   1.328 -1.7084  1.6009  0.5298
  313MOL0     H42237   7.523   3.999   1.943 -1.5900  1.5627 -0.0309
  313MOL0     H42238   7.624   4.226   1.935  4.1113 -0.0797 -0.1002
  313MOL0     H42239   7.610   4.590   2.061  0.9534  0.1405 -3.2977
  313MOL0     H42240   7.619   4.829   2.075  1.1429  0.0070 -0.9434
  313MOL0     H42241   8.629   5.801   1.514 -1.2578  0.5996  2.1395
  313MOL0     H42242   8.723   5.592   1.382  1.3818 -0.8304 -0.5380
  313MOL0     H42243   9.151   5.455   1.077  0.3660  0.2400  0.6186
  313MOL0     H42244   9.210   5.264   0.961  1.4707 -2.4848  0.8175
  313MOL0     H42245   8.986   5.080   0.833 -0.8282 -0.4977  0.1381
  313MOL0     H42246   9.168   5.068   0.791  1.8265 -2.6171 -1.3974
  313MOL0     H42247   9.043   4.915   0.673  3.1145  1.1598  1.0065
  313MOL0     H42248   8.932   4.876   0.794 -0.7310  1.9473 -1.5747
  313MOL0     H42249   9.137   4.774   0.933 -3.9510  0.0938  0.9352
  313MOL0     H42250   9.214   4.776   0.771  0.4277  0.8926 -0.6867
  313MOL0     H42251   9.000   4.620   0.707  2.8145 -2.2472 -1.0107
  313MOL0     H42252   8.971   4.639   0.879 -0.1627  2.8484  0.5104
  313MOL0     H42253   9.298   4.373   0.915  0.9152 -0.3904 -1.8097
  313MOL0     H42254   8.941   5.024   1.195  0.2342  0.7526  2.7275
  313MOL0     H42255   8.904   5.236   1.343 -0.3303  0.2807  0.7943
  314MOL0     O42256   3.320   5.701   5.548 -0.2987  1.0935 -0.6041
  314MOL0     C42257   3.411   5.774   5.518 -0.1200 -1.0149  0.6272
  314MOL0     O42258   3.409   5.850   5.401 -1.2511  0.8698  0.6659
  314MOL0     C42259   3.300   5.903   5.333  0.1779 -0.1391 -0.5398
  314MOL0     C42260   3.331   5.968   5.213 -2.2016 -0.3150 -0.8874
  314MOL0     C42261   3.231   6.030   5.140  0.6752  0.3251  0.1667
  314MOL0     C42262   3.095   6.015   5.191  0.0468 -0.4745  0.3856
  314MOL0     O42263   2.999   6.069   5.112 -0.2430 -0.0114  0.2054
  314MOL0     C42264   2.919   5.966   5.055  0.4398 -0.1793  0.4681
  314MOL0     C42265   2.805   6.049   4.983 -0.4495 -0.7626  0.5102
  314MOL0     C42266   2.870   6.112   4.859  0.1966  0.2447  0.1276
  314MOL0     C42267   2.951   6.017   4.772 -1.1790  0.7861 -0.2764
  314MOL0     C42268   2.988   6.088   4.646 -0.9521  0.2680 -0.2471
  314MOL0     C42269   2.954   6.008   4.519 -1.0129  0.1927 -0.4822
  314MOL0     C42270   3.056   5.889   4.512 -0.2680 -0.1802 -0.5535
  314MOL0     C42271   3.063   5.832   4.373 -0.7299  0.9163  0.5500
  314MOL0     N42272   3.127   5.940   4.292  0.2228 -0.0361  0.4834
  314MOL0     C42273   3.258   5.995   4.308 -0.3138  0.0269 -0.5213
  314MOL0     C42274   3.263   6.103   4.224  0.4117  0.3101  0.1294
  314MOL0     C42275   3.373   6.210   4.231  0.7737  0.3731 -0.1753
  314MOL0     C42276   3.399   6.281   4.360 -0.4198 -0.1935  0.5005
  314MOL0     C42277   3.272   6.337   4.431  0.3285  0.2863  0.7832
  314MOL0     C42278   3.309   6.432   4.539 -0.2794  0.5955  0.5577
  314MOL0     O42279   3.182   6.460   4.598 -0.0986 -0.8032 -0.9234
  314MOL0     C42280   3.214   6.522   4.714 -0.5361 -0.7267 -0.5283
  314MOL0     C42281   3.178   6.461   4.834 -0.2367  0.4740 -0.4361
  314MOL0     C42282   3.204   6.511   4.964  0.0432  0.3488  0.5635
  314MOL0     C42283   3.167   6.437   5.087 -0.2498 -0.0011  0.5058
  314MOL0     C42284   3.265   6.636   4.964 -0.5672  0.2921  0.6140
  314MOL0     C42285   3.271   6.714   5.087  0.0800 -0.0777 -0.8738
  314MOL0     O42286   3.159   6.771   5.137  0.3364 -0.4117 -0.5574
  314MOL0     C42287   3.159   6.894   5.199 -0.2145  0.5616  0.0393
  314MOL0     C42288   3.210   6.930   5.327 -0.4679  0.5118 -0.0716
  314MOL0     C42289   3.185   7.052   5.380  1.0133 -0.8260  0.2990
  314MOL0     C42290   3.111   7.154   5.317  0.6941 -0.0854 -0.2670
  314MOL0     O42291   3.082   7.281   5.369 -0.7539 -0.0563  0.1117
  314MOL0     C42292   3.027   7.281   5.496  0.7697  1.3750 -0.4459
  314MOL0     C42293   2.981   7.419   5.530  0.2603  0.7255  0.6396
  314MOL0     C42294   2.858   7.473   5.445  0.2272  1.0793 -0.0941
  314MOL0     C42295   2.717   7.405   5.486 -1.1832  0.5910 -0.4104
  314MOL0     C42296   2.594   7.477   5.434  0.2742 -0.1681 -0.3758
  314MOL0     C42297   2.573   7.463   5.285 -0.2897 -1.0933  0.5491
  314MOL0     C42298   2.444   7.527   5.241 -0.4174  0.8004  0.2941
  314MOL0     C42299   2.465   7.585   5.105 -0.2073  0.7446 -0.0424
  314MOL0    Cl42300   2.306   7.591   5.012 -0.4581 -0.1397  0.4294
  314MOL0     C42301   3.053   7.116   5.188 -1.2920 -1.0272 -0.1214
  314MOL0     C42302   3.082   6.993   5.140 -0.7644 -0.2673  1.1166
  314MOL0     O42303   3.387   6.740   5.123  0.1434  0.6327  0.2072
  314MOL0     C42304   3.306   6.700   4.846 -0.0275 -0.5806 -0.3355
  314MOL0     C42305   3.284   6.644   4.725  0.3190  0.0606 -0.9221
  314MOL0     N42306   3.143   6.117   4.160  0.4549 -0.4004  0.3842
  314MOL0     N42307   3.068   6.013   4.185 -0.0967  0.3919  0.0184
  314MOL0     C42308   3.070   5.940   5.310 -0.9053 -1.5336  0.0500
  314MOL0     C42309   3.174   5.880   5.374  0.3261  0.4900 -0.1068
  314MOL0     C42310   3.534   5.784   5.593 -0.6635  0.3257 -0.7142
  314MOL0     C42311   3.647   5.854   5.541 -0.1840  0.5961  0.2131
  314MOL0     C42312   3.762   5.835   5.620  0.1276  0.5903 -0.3490
  314MOL0     C42313   3.767   5.782   5.748 -0.2192 -0.2425 -0.5540
  314MOL0     O42314   3.886   5.789   5.829 -0.2823  0.5117 -0.0076
  314MOL0     C42315   3.989   5.692   5.788 -0.1730  1.0429  0.7370
  314MOL0     C42316   4.123   5.730   5.719  0.7331 -0.3665  0.4488
  314MOL0     C42317   4.231   5.623   5.718  0.2474 -0.5646 -1.0902
  314MOL0     C42318   4.354   5.667   5.635  0.8252 -0.3158  1.0344
  314MOL0     C42319   4.467   5.572   5.649  0.4951 -0.4320  0.1053
  314MOL0     C42320   4.574   5.509   5.662  0.5003 -0.2865 -0.2061
  314MOL0     C42321   3.646   5.729   5.791  0.1642 -0.6407  0.0660
  314MOL0     C42322   3.534   5.725   5.722  0.2058 -0.2136 -0.6078
  314MOL0     H42323   3.435   5.985   5.184 -1.1713 -0.6901  2.1699
  314MOL0     H42324   3.269   6.094   5.061 -2.1814  1.4494 -0.4352
  314MOL0     H42325   2.972   5.898   4.987 -0.5703  2.1282 -2.8697
  314MOL0     H42326   2.878   5.909   5.139 -0.2557 -0.5897 -0.1399
  314MOL0     H42327   2.726   5.979   4.957  0.6980 -1.2533 -2.0187
  314MOL0     H42328   2.753   6.133   5.030 -0.5610 -1.0150  0.8353
  314MOL0     H42329   2.798   6.161   4.794  0.5710 -1.0742 -1.3479
  314MOL0     H42330   2.936   6.191   4.893 -0.0381 -0.9184  3.7034
  314MOL0     H42331   3.044   5.994   4.824 -1.0297  1.7842 -0.0853
  314MOL0     H42332   2.890   5.929   4.752 -3.3962  1.9003  1.1813
  314MOL0     H42333   2.940   6.186   4.636 -0.8111  0.0915 -3.4735
  314MOL0     H42334   3.097   6.094   4.651 -1.0412  2.0137  0.4934
  314MOL0     H42335   2.852   5.968   4.519 -1.8574  2.2242 -1.0898
  314MOL0     H42336   2.959   6.072   4.431 -0.5900  3.6497  1.8498
  314MOL0     H42337   3.154   5.916   4.554 -0.0550 -1.9653  0.1724
  314MOL0     H42338   3.017   5.810   4.578 -2.0129  0.6458 -0.5396
  314MOL0     H42339   2.965   5.801   4.335 -0.8513  0.2926  1.3482
  314MOL0     H42340   3.132   5.747   4.373 -2.3901 -0.5639 -1.6092
  314MOL0     H42341   3.336   5.980   4.381  1.2389  1.1068 -1.8756
  314MOL0     H42342   3.465   6.154   4.215  1.1685  1.2317 -1.0473
  314MOL0     H42343   3.357   6.286   4.154  1.5282 -2.0344 -2.9072
  314MOL0     H42344   3.467   6.363   4.336 -1.1377  0.1690 -0.3395
  314MOL0     H42345   3.455   6.216   4.428 -0.1264  0.0177  0.4635
  314MOL0     H42346   3.222   6.248   4.470 -0.5597  0.2008 -0.4806
  314MOL0     H42347   3.202   6.382   4.359 -1.2019 -1.4101  1.1262
  314MOL0     H42348   3.350   6.518   4.485  0.1178 -0.6267 -1.1555
  314MOL0     H42349   3.386   6.398   4.609 -0.6153 -0.2401  0.5330
  314MOL0     H42350   3.125   6.367   4.822  0.4173 -0.1538  1.2849
  314MOL0     H42351   3.241   6.452   5.166  0.9257  1.8920 -0.8364
  314MOL0     H42352   3.071   6.476   5.122  0.6165  0.4737  2.4944
  314MOL0     H42353   3.156   6.331   5.062  1.0843 -0.2308  0.8109
  314MOL0     H42354   3.271   6.861   5.385  0.5349 -1.1708 -2.8993
  314MOL0     H42355   3.221   7.075   5.480  2.9960  2.5347 -0.9926
  314MOL0     H42356   2.934   7.224   5.504  0.5107  2.0091  1.8820
  314MOL0     H42357   3.093   7.242   5.574  0.3003 -0.4317 -0.8992
  314MOL0     H42358   2.949   7.423   5.635 -2.7625 -0.2924 -0.1276
  314MOL0     H42359   3.058   7.495   5.513  0.7247  0.2836  0.7543
  314MOL0     H42360   2.882   7.461   5.339  0.0812  0.3242 -0.0477
  314MOL0     H42361   2.857   7.582   5.455  3.1828  1.3482 -1.5539
  314MOL0     H42362   2.702   7.304   5.447 -2.7833  0.6103  0.0668
  314MOL0     H42363   2.714   7.411   5.595  2.5645  7.0879 -0.1370
  314MOL0     H42364   2.598   7.576   5.479 -0.9816 -1.9303  4.2549
  314MOL0     H42365   2.501   7.440   5.478 -0.3520  2.1829  0.4339
  314MOL0     H42366   2.658   7.512   5.236 -0.1911 -1.1931  0.6213
  314MOL0     H42367   2.571   7.364   5.239  1.1552 -0.5240 -0.8524
  314MOL0     H42368   2.404   7.594   5.317  0.7381  0.9735  0.7711
  314MOL0     H42369   2.371   7.446   5.231  1.3511 -0.8243 -0.2146
  314MOL0     H42370   2.536   7.523   5.049  0.8183 -0.1216  2.1033
  314MOL0     H42371   2.505   7.687   5.107  0.4001  0.5024  1.9267
  314MOL0     H42372   2.999   7.187   5.127  0.2564  2.0263  1.8052
  314MOL0     H42373   3.055   6.977   5.036 -0.2502  3.7829  0.1836
  314MOL0     H42374   3.364   6.791   4.855 -1.2863  0.2175 -0.0463
  314MOL0     H42375   3.308   6.694   4.632  3.0055  0.3546 -0.1642
  314MOL0     H42376   2.974   5.923   5.358 -0.6021  2.6560  2.6649
  314MOL0     H42377   3.155   5.828   5.467 -0.2746 -0.5648 -0.8002
  314MOL0     H42378   3.645   5.923   5.458  0.5949  0.3461 -0.0209
  314MOL0     H42379   3.863   5.861   5.588  0.0532  2.5845  0.8423
  314MOL0     H42380   4.017   5.634   5.877 -0.9706  1.3293  1.1869
  314MOL0     H42381   3.926   5.631   5.723  0.0240  0.1303  1.3768
  314MOL0     H42382   4.166   5.821   5.762 -0.5562  1.0892 -1.2206
  314MOL0     H42383   4.106   5.764   5.617 -1.4666  2.2450  1.5588
  314MOL0     H42384   4.185   5.529   5.686 -0.6909 -0.9556  1.2237
  314MOL0     H42385   4.254   5.607   5.824 -1.8955  0.9639 -0.3322
  314MOL0     H42386   4.396   5.766   5.656  4.0616 -1.5649  1.0040
  314MOL0     H42387   4.314   5.672   5.533 -0.4163 -0.5968  1.4855
  314MOL0     H42388   4.668   5.458   5.660  2.2238  2.4981  2.0275
  314MOL0     H42389   3.629   5.672   5.882  1.6768  1.4254  1.7274
  314MOL0     H42390   3.450   5.674   5.768  1.7112 -0.0188  2.6447
  315MOL0     O42391  10.927   2.942   0.220  0.3587 -0.6705  0.5431
  315MOL0     C42392  10.903   2.857   0.134  0.6294 -0.7314  0.5127
  315MOL0     O42393  10.803   2.857   0.039  0.5900 -0.2938 -0.6804
  315MOL0     C42394  10.710   2.954   0.051  1.1238 -0.4224 -1.2839
  315MOL0     C42395  10.700   3.060  -0.030  1.2289  0.2914 -0.3094
  315MOL0     C42396  10.598   3.150   0.001  0.4667  0.0947  0.8743
  315MOL0     C42397  10.488   3.116   0.090  0.4077  0.7041  0.6524
  315MOL0     O42398  10.374   3.195   0.090  0.7859 -0.2335  0.8522
  315MOL0     C42399  10.250   3.134   0.129  0.0289  0.1003 -1.1233
  315MOL0     C42400  10.188   3.052   0.013 -0.0803 -0.0110 -0.1467
  315MOL0     C42401  10.111   2.924   0.055 -0.5718 -0.1672  0.5913
  315MOL0     C42402   9.962   2.939   0.102 -0.0255 -1.0729 -0.6605
  315MOL0     C42403   9.894   2.798   0.139  0.1680 -0.5979  0.0971
  315MOL0     C42404   9.967   2.732   0.256  0.5271 -0.5798  0.9901
  315MOL0     C42405   9.884   2.618   0.313  0.0997 -0.7338 -0.0847
  315MOL0     C42406   9.946   2.534   0.423  0.7755  0.5684  0.4870
  315MOL0     N42407   9.860   2.421   0.470 -0.1428  0.0194 -0.1824
  315MOL0     C42408   9.916   2.296   0.487  0.3118  0.1944 -0.3259
  315MOL0     C42409   9.814   2.232   0.553 -1.6451 -0.7016  1.0310
  315MOL0     C42410   9.813   2.097   0.628  0.2662  0.9460  0.8279
  315MOL0     C42411   9.842   2.110   0.771  0.1638 -0.7598  0.4277
  315MOL0     C42412   9.798   1.986   0.852 -0.8608 -1.0178  0.4903
  315MOL0     C42413   9.662   1.919   0.826  0.6537 -0.0853  0.0061
  315MOL0     O42414   9.555   2.018   0.846  0.0188  0.2508  0.1074
  315MOL0     C42415   9.441   1.975   0.905 -1.2231  0.3740 -0.0337
  315MOL0     C42416   9.331   1.937   0.834 -0.2040 -0.0635 -0.0039
  315MOL0     C42417   9.223   1.882   0.898  0.3009  0.3744  0.0522
  315MOL0     C42418   9.114   1.834   0.801  0.3517  0.1186 -0.5543
  315MOL0     C42419   9.237   1.839   1.032  0.0534  0.1127  0.1657
  315MOL0     C42420   9.130   1.765   1.098 -0.5477 -0.8216  0.6230
  315MOL0     O42421   9.173   1.690   1.197 -0.0526  0.6114 -0.0927
  315MOL0     C42422   9.082   1.609   1.263 -1.5106  0.7232 -0.7309
  315MOL0     C42423   9.107   1.575   1.401  0.0336 -0.4952 -0.2293
  315MOL0     C42424   9.036   1.470   1.462 -0.3995  0.2905  0.5703
  315MOL0     C42425   8.928   1.408   1.398 -0.1984  0.2688  0.4743
  315MOL0     O42426   8.858   1.314   1.455  0.3332  0.3257 -0.6971
  315MOL0     C42427   8.892   1.182   1.405 -0.7815 -0.6101 -0.3135
  315MOL0     C42428   8.909   1.084   1.521  0.2546  0.4440  0.0702
  315MOL0     C42429   8.982   1.130   1.653  0.3796 -0.5745  0.8401
  315MOL0     C42430   9.057   1.013   1.726  0.1502  0.0895 -0.8304
  315MOL0     C42431   9.153   1.069   1.833 -0.3534 -0.1698 -0.8083
  315MOL0     C42432   9.101   1.056   1.980 -0.0482 -0.0470  0.3971
  315MOL0     C42433   9.186   1.135   2.081  0.0476 -0.1515  0.2532
  315MOL0     C42434   9.294   1.046   2.136 -0.8335 -0.4104 -0.3870
  315MOL0    Cl42435   9.233   0.939   2.248 -0.2308 -0.0816  0.2550
  315MOL0     C42436   8.902   1.439   1.256 -0.0652  0.2916  0.7221
  315MOL0     C42437   8.982   1.537   1.190  0.3392 -0.9412 -0.2853
  315MOL0     O42438   9.014   1.795   1.076  0.6794 -0.3466 -0.9190
  315MOL0     C42439   9.341   1.889   1.105  0.2026  0.5365 -0.8393
  315MOL0     C42440   9.445   1.953   1.037 -0.6715  0.4165  0.3847
  315MOL0     N42441   9.705   2.318   0.568 -0.3596 -0.3521 -0.1767
  315MOL0     N42442   9.739   2.430   0.521 -0.1983  0.1665  0.9801
  315MOL0     C42443  10.503   2.997   0.171  0.9875 -0.1722 -0.6789
  315MOL0     C42444  10.613   2.922   0.151  0.3471 -0.2808  0.6507
  315MOL0     C42445  10.987   2.736   0.126  0.1684 -0.4139  0.1678
  315MOL0     C42446  10.979   2.658   0.011 -0.0940 -0.0686  0.2286
  315MOL0     C42447  11.054   2.535   0.013 -0.7256  0.5084  0.1895
  315MOL0     C42448  11.135   2.487   0.128  0.4593  0.1148  0.0956
  315MOL0     O42449  11.203   2.364   0.118  0.1147  0.0908  0.0319
  315MOL0     C42450  11.347   2.377   0.155  0.5171  1.0411 -0.3798
  315MOL0     C42451  11.417   2.471   0.062  0.2526  0.6358  0.0882
  315MOL0     C42452  11.431   2.404  -0.075  1.1440  0.1162  0.7446
  315MOL0     C42453  11.452   2.500  -0.189 -0.0681  1.2724  0.6123
  315MOL0     C42454  11.338   2.594  -0.205  0.5161 -0.7761  0.7446
  315MOL0     C42455  11.259   2.685  -0.226 -0.7545  0.0742 -0.0235
  315MOL0     C42456  11.137   2.576   0.242  1.5862 -0.7150  0.9199
  315MOL0     C42457  11.065   2.698   0.234 -0.0479 -1.1853  0.6607
  315MOL0     H42458  10.760   3.078  -0.119  0.8822  4.9280  0.1292
  315MOL0     H42459  10.585   3.227  -0.075 -0.4258 -1.7042 -0.8911
  315MOL0     H42460  10.268   3.083   0.223 -1.7407  1.6667  0.1342
  315MOL0     H42461  10.177   3.212   0.153 -1.9657 -1.0366 -3.0700
  315MOL0     H42462  10.139   3.119  -0.058  3.7521  2.3283 -0.9268
  315MOL0     H42463  10.267   3.014  -0.052 -0.5625 -1.2574 -0.0333
  315MOL0     H42464  10.110   2.859  -0.033  3.2212  1.5821 -0.9591
  315MOL0     H42465  10.182   2.877   0.124  0.9443  2.4466  0.9261
  315MOL0     H42466   9.955   2.999   0.193  3.3388 -1.2247 -0.1950
  315MOL0     H42467   9.898   2.982   0.024 -1.7431  0.2498  1.3612
  315MOL0     H42468   9.788   2.818   0.157 -0.0684  1.0462 -2.6039
  315MOL0     H42469   9.900   2.726   0.057  2.7701  0.7004 -0.9783
  315MOL0     H42470  10.061   2.690   0.219 -0.7994  0.3685 -4.2807
  315MOL0     H42471   9.983   2.806   0.334 -2.8084  0.7616  0.5673
  315MOL0     H42472   9.795   2.666   0.354 -0.5318 -0.1298 -2.0143
  315MOL0     H42473   9.842   2.564   0.227  0.3841  1.0629 -1.4129
  315MOL0     H42474   9.974   2.601   0.505  1.6076 -0.8108  1.3737
  315MOL0     H42475  10.044   2.498   0.390  1.8307  3.1803  0.4774
  315MOL0     H42476  10.009   2.240   0.476 -1.3215 -3.0352  0.8334
  315MOL0     H42477   9.718   2.048   0.606 -0.5739  3.0445 -0.4972
  315MOL0     H42478   9.894   2.033   0.592  2.0637  2.2641  2.3580
  315MOL0     H42479   9.789   2.191   0.821 -0.6251  0.6524 -2.4449
  315MOL0     H42480   9.950   2.116   0.784  0.4703 -0.7128 -1.7943
  315MOL0     H42481   9.795   2.019   0.956  1.4390 -1.8505  0.9001
  315MOL0     H42482   9.883   1.917   0.849 -0.8543 -0.9849 -0.3859
  315MOL0     H42483   9.651   1.828   0.885  3.1933 -2.3509 -2.7133
  315MOL0     H42484   9.656   1.889   0.721  0.8292  0.9570 -0.3177
  315MOL0     H42485   9.334   1.940   0.725  1.6564 -2.1608 -0.0844
  315MOL0     H42486   9.026   1.898   0.815 -0.8263 -1.8144  1.5045
  315MOL0     H42487   9.152   1.830   0.698 -0.6971  3.1752 -1.1589
  315MOL0     H42488   9.082   1.734   0.828 -2.2417  1.4073  1.5722
  315MOL0     H42489   9.190   1.622   1.452 -0.6567  0.8931 -0.3361
  315MOL0     H42490   9.051   1.445   1.566  2.4041  1.6172  0.5734
  315MOL0     H42491   8.809   1.150   1.341 -2.3338  0.6373  1.0113
  315MOL0     H42492   8.988   1.178   1.352 -0.3515 -0.7399  0.4564
  315MOL0     H42493   8.812   1.051   1.561  2.7565 -3.2330  4.0859
  315MOL0     H42494   8.964   0.994   1.492 -2.0581 -2.3111  3.3488
  315MOL0     H42495   8.905   1.171   1.718 -0.3598  0.2571 -0.5225
  315MOL0     H42496   9.049   1.211   1.624  1.5326 -2.2476 -1.5411
  315MOL0     H42497   8.982   0.942   1.762  1.0703 -0.3702  0.2403
  315MOL0     H42498   9.130   0.955   1.668 -0.9199  0.3014 -2.4298
  315MOL0     H42499   9.183   1.172   1.813  2.0019 -0.6971 -0.2600
  315MOL0     H42500   9.250   1.019   1.828 -0.1442  0.1589 -0.1312
  315MOL0     H42501   9.003   1.104   1.985 -0.7977 -0.3417 -5.1921
  315MOL0     H42502   9.104   0.951   2.010 -0.1333 -0.9934 -2.6348
  315MOL0     H42503   9.111   1.162   2.156 -1.1447 -2.8938  0.1757
  315MOL0     H42504   9.232   1.219   2.029 -1.0621 -0.0627 -0.6023
  315MOL0     H42505   9.376   1.098   2.185 -0.4051 -1.1053 -0.3545
  315MOL0     H42506   9.344   0.999   2.051  2.0179  0.3568  0.7677
  315MOL0     H42507   8.827   1.399   1.189  2.0586 -1.5536 -0.7035
  315MOL0     H42508   8.962   1.541   1.083  3.9399 -3.9520 -1.2658
  315MOL0     H42509   9.350   1.879   1.213  1.3037  0.3470 -0.9390
  315MOL0     H42510   9.531   1.976   1.099 -1.3319  0.1054  1.4588
  315MOL0     H42511  10.434   2.970   0.250  1.5240  1.0921  0.2450
  315MOL0     H42512  10.627   2.843   0.223 -0.7227 -1.7197 -0.6506
  315MOL0     H42513  10.926   2.670  -0.083 -0.8016 -3.2136  0.1291
  315MOL0     H42514  11.054   2.464  -0.070  2.1338  0.1439  0.4236
  315MOL0     H42515  11.349   2.413   0.259 -1.7632 -0.3010  0.1981
  315MOL0     H42516  11.395   2.282   0.133 -0.5907  1.1873 -4.1787
  315MOL0     H42517  11.515   2.492   0.106 -0.3775 -0.3982  2.1206
  315MOL0     H42518  11.369   2.569   0.052  1.2182  0.9919 -1.3835
  315MOL0     H42519  11.341   2.342  -0.084 -0.2551  1.6754  2.7616
  315MOL0     H42520  11.506   2.325  -0.070 -0.4457 -1.5157 -0.1190
  315MOL0     H42521  11.468   2.440  -0.279 -1.0572 -1.5995  2.2365
  315MOL0     H42522  11.546   2.555  -0.176 -0.2743  2.0134 -0.8274
  315MOL0     H42523  11.190   2.768  -0.231  0.9224  2.0676  4.4935
  315MOL0     H42524  11.190   2.537   0.329  2.7628 -1.2760 -0.0055
  315MOL0     H42525  11.072   2.758   0.324  2.3210 -0.9030  0.3594
  316MOL0     O42526  10.822   1.274  11.447  0.1120 -0.0238  0.9867
  316MOL0     C42527  10.863   1.238  11.335  0.2033  0.2678 -0.3159
  316MOL0     O42528  10.982   1.275  11.274  0.1277  0.3295 -0.6705
  316MOL0     C42529  11.048   1.386  11.324  0.8368  1.3936  0.9045
  316MOL0     C42530  11.021   1.506  11.263  0.0363 -0.9651  0.7230
  316MOL0     C42531  11.072   1.623  11.303 -0.9249  0.2646 -1.7929
  316MOL0     C42532  11.161   1.627  11.413  0.0998 -0.3616  0.2289
  316MOL0     O42533  11.221   1.752  11.429 -0.9874 -0.0813  0.6044
  316MOL0     C42534  11.359   1.754  11.475  0.2641 -0.4659 -0.0602
  316MOL0     C42535  11.395   1.906  11.476  0.3148  0.2083  0.6996
  316MOL0     C42536  11.544   1.943  11.497 -0.0661 -0.8710 -0.3938
  316MOL0     C42537  11.624   1.900  11.373  1.1670  0.2317 -0.4054
  316MOL0     C42538  11.777   1.939  11.375 -0.5312  0.9780  0.3250
  316MOL0     C42539  11.818   2.078  11.318 -0.1030  0.5262 -0.1906
  316MOL0     C42540  11.968   2.102  11.332 -0.0648  0.5220 -0.1946
  316MOL0     C42541  12.008   2.238  11.251  0.4494  0.6735 -1.1763
  316MOL0     N42542  11.954   2.247  11.115 -0.8609  0.5820 -0.4835
  316MOL0     C42543  11.981   2.158  11.013 -0.0366  0.7409 -0.0709
  316MOL0     C42544  11.942   2.234  10.905 -0.6663 -0.1911  0.4696
  316MOL0     C42545  11.950   2.177  10.774  0.2465 -0.4086  0.5599
  316MOL0     C42546  12.014   2.275  10.670  0.2946  0.2784  0.1128
  316MOL0     C42547  12.017   2.217  10.524 -0.1296  0.0893 -0.4167
  316MOL0     C42548  12.002   2.067  10.502 -0.0905  0.1482 -0.1721
  316MOL0     O42549  12.119   2.003  10.540 -0.1833 -1.3515  0.8447
  316MOL0     C42550  12.114   1.860  10.549 -0.8649  0.5365 -0.7530
  316MOL0     C42551  12.186   1.789  10.642  0.3966  0.5892 -0.2823
  316MOL0     C42552  12.220   1.659  10.631 -0.1285  0.3039 -0.0942
  316MOL0     C42553  12.312   1.593  10.726  0.8210 -0.1181 -0.7999
  316MOL0     C42554  12.180   1.586  10.513  1.1998  0.8634  1.0346
  316MOL0     C42555  12.212   1.447  10.482  0.0942 -0.3964 -0.1108
  316MOL0     O42556  12.187   1.413  10.354 -0.2092  0.1715 -1.5610
  316MOL0     C42557  12.163   1.280  10.327  0.7320 -0.1334  0.1722
  316MOL0     C42558  12.260   1.179  10.328  0.2258 -0.6431 -0.1939
  316MOL0     C42559  12.222   1.044  10.306  0.1317 -0.5504  0.0272
  316MOL0     C42560  12.092   1.016  10.253  0.1589  0.0751  0.2044
  316MOL0     O42561  12.052   0.888  10.220 -0.3930 -0.0187 -0.2295
  316MOL0     C42562  12.098   0.778  10.308 -0.5503 -0.5154  0.3358
  316MOL0     C42563  12.030   0.650  10.268 -0.1165 -0.0827 -0.5706
  316MOL0     C42564  12.033   0.621  10.116 -0.1053 -0.5022 -0.6328
  316MOL0     C42565  11.946   0.497  10.082 -1.3742 -0.6641  0.3995
  316MOL0     C42566  11.926   0.483   9.930  0.0026 -0.0377  0.1394
  316MOL0     C42567  12.051   0.513   9.845 -0.1646  0.8620 -0.6640
  316MOL0     C42568  12.166   0.415   9.884 -0.0488 -0.2415 -1.2211
  316MOL0     C42569  12.129   0.270   9.854 -0.1072 -0.4616 -0.8804
  316MOL0    Cl42570  12.110   0.248   9.680  0.2963  0.4156 -0.2865
  316MOL0     C42571  12.007   1.117  10.219  0.0598  0.0236  0.4549
  316MOL0     C42572  12.036   1.250  10.261  0.3283 -0.6020  0.1716
  316MOL0     O42573  12.243   1.366  10.570 -0.4504 -0.0763  0.1423
  316MOL0     C42574  12.106   1.652  10.412  0.4416 -0.3021 -0.5281
  316MOL0     C42575  12.067   1.789  10.434  0.2131  0.5843 -0.8044
  316MOL0     N42576  11.886   2.355  10.945 -0.5893  0.2989 -0.1634
  316MOL0     N42577  11.898   2.364  11.072  0.3167 -0.4708  0.2143
  316MOL0     C42578  11.192   1.510  11.478 -0.0786 -0.2130  1.2206
  316MOL0     C42579  11.136   1.388  11.430 -0.2919 -0.1657 -1.0541
  316MOL0     C42580  10.785   1.133  11.259 -0.6459  0.0820  0.1477
  316MOL0     C42581  10.650   1.119  11.279 -0.8119  0.0977 -0.8172
  316MOL0     C42582  10.577   1.010  11.230 -1.5921 -0.2894 -0.4847
  316MOL0     C42583  10.646   0.923  11.142  0.1345  0.4922 -0.1845
  316MOL0     O42584  10.586   0.824  11.064  0.2800 -0.1576  0.2356
  316MOL0     C42585  10.448   0.795  11.073  0.8339  1.1564 -0.2431
  316MOL0     C42586  10.418   0.694  11.202 -0.1931  0.4919  1.1042
  316MOL0     C42587  10.470   0.559  11.174 -0.1935 -0.0719 -0.9125
  316MOL0     C42588  10.383   0.476  11.081 -0.1829  0.2673 -0.0307
  316MOL0     C42589  10.441   0.358  11.017 -0.1459  0.8395  0.9611
  316MOL0     C42590  10.495   0.263  10.953 -0.8100 -0.3191  1.1895
  316MOL0     C42591  10.775   0.942  11.116 -0.0886  0.4044 -0.4970
  316MOL0     C42592  10.846   1.047  11.170 -0.3353  0.8824 -0.8679
  316MOL0     H42593  10.953   1.519  11.180  1.0516  2.4017  0.3036
  316MOL0     H42594  11.047   1.714  11.250 -1.7209 -0.1881 -2.2066
  316MOL0     H42595  11.378   1.725  11.579  0.2602 -0.5690 -0.0879
  316MOL0     H42596  11.412   1.689  11.404 -1.2185  1.6859 -3.4099
  316MOL0     H42597  11.363   1.963  11.388  0.1180  1.2797  1.4412
  316MOL0     H42598  11.335   1.944  11.560 -2.2116 -0.6186 -0.6434
  316MOL0     H42599  11.549   2.051  11.516  1.0619 -1.0155  0.1621
  316MOL0     H42600  11.591   1.898  11.584  2.6144  1.1679 -0.6502
  316MOL0     H42601  11.627   1.792  11.356  4.0986  0.2754 -0.6735
  316MOL0     H42602  11.580   1.947  11.285  1.3460  1.1126 -0.0376
  316MOL0     H42603  11.793   1.941  11.483 -0.6442 -1.7495  0.4537
  316MOL0     H42604  11.843   1.858  11.345 -0.2143  1.2921  0.1621
  316MOL0     H42605  11.789   2.067  11.213  3.4279 -1.2621 -1.1507
  316MOL0     H42606  11.752   2.144  11.375 -0.0611 -2.1447  3.3447
  316MOL0     H42607  11.992   2.109  11.439 -0.9387  2.8858 -0.0903
  316MOL0     H42608  12.008   2.007  11.298 -1.1225 -0.6705  1.7143
  316MOL0     H42609  12.116   2.222  11.256  0.0840 -2.0153  2.5472
  316MOL0     H42610  11.984   2.329  11.308  0.3862  0.1505 -0.3483
  316MOL0     H42611  12.019   2.057  11.022 -1.3755  0.3815  2.8659
  316MOL0     H42612  12.016   2.090  10.766  3.0711  1.7468 -1.6163
  316MOL0     H42613  11.850   2.145  10.743  0.0078 -1.0437  1.9117
  316MOL0     H42614  12.115   2.307  10.694  0.9582 -1.6768  0.0649
  316MOL0     H42615  11.957   2.368  10.669  1.2733  0.8823 -0.4008
  316MOL0     H42616  12.095   2.261  10.460  1.2926  1.7312  2.2576
  316MOL0     H42617  11.922   2.256  10.486  2.1151  3.2648 -3.3948
  316MOL0     H42618  11.997   2.067  10.393  1.7837  1.4002 -0.3038
  316MOL0     H42619  11.919   2.018  10.554  3.0118 -3.9084  1.5406
  316MOL0     H42620  12.219   1.856  10.721 -0.5915  2.0766 -1.0812
  316MOL0     H42621  12.262   1.509  10.776  0.3740  0.6461  0.0763
  316MOL0     H42622  12.413   1.571  10.690  0.1281 -0.8834 -2.3576
  316MOL0     H42623  12.328   1.664  10.808  0.9512 -2.5406  1.4323
  316MOL0     H42624  12.360   1.209  10.358  0.7214 -1.2397 -1.1848
  316MOL0     H42625  12.294   0.963  10.307 -1.5930 -2.3486 -3.3041
  316MOL0     H42626  12.206   0.764  10.300 -0.0847  2.6830 -0.2740
  316MOL0     H42627  12.062   0.807  10.407 -0.2177  3.3036 -0.5234
  316MOL0     H42628  12.066   0.563  10.323 -2.7936 -2.8464 -2.9003
  316MOL0     H42629  11.927   0.665  10.300 -0.1871  1.9992 -1.5558
  316MOL0     H42630  12.133   0.613  10.073  0.1162 -1.2029 -0.0004
  316MOL0     H42631  11.974   0.704  10.075  0.0653  1.0920  2.0892
  316MOL0     H42632  12.000   0.406  10.109  0.0274  0.3013  0.9246
  316MOL0     H42633  11.847   0.501  10.130 -1.6955  0.6811 -0.3492
  316MOL0     H42634  11.841   0.545   9.898  1.6889  2.1816 -0.2903
  316MOL0     H42635  11.903   0.381   9.897  3.3278 -0.4451 -1.3191
  316MOL0     H42636  12.039   0.503   9.737 -2.0811 -0.3988 -0.3960
  316MOL0     H42637  12.097   0.611   9.856  3.0898 -0.4247 -1.5794
  316MOL0     H42638  12.198   0.431   9.988 -0.7470 -0.0765 -1.0323
  316MOL0     H42639  12.259   0.442   9.833  2.3215 -2.2269  1.6189
  316MOL0     H42640  12.044   0.231   9.911  0.3435  2.3286  2.0594
  316MOL0     H42641  12.211   0.208   9.892  1.2040  1.0730 -1.1084
  316MOL0     H42642  11.922   1.105  10.152 -1.1030  4.0874  0.9260
  316MOL0     H42643  11.961   1.328  10.259 -0.5699 -1.3985  1.0141
  316MOL0     H42644  12.064   1.606  10.323 -0.5321 -2.9196  1.1566
  316MOL0     H42645  12.003   1.828  10.355 -0.3844 -2.3017 -1.8498
  316MOL0     H42646  11.278   1.511  11.545  0.3073 -3.5187  0.9475
  316MOL0     H42647  11.151   1.303  11.496 -0.5979  2.4819  2.7472
  316MOL0     H42648  10.598   1.196  11.335 -0.2810  0.5086 -0.8824
  316MOL0     H42649  10.474   1.000  11.261 -1.3528  1.1613  0.8943
  316MOL0     H42650  10.379   0.880  11.066 -0.8697 -0.2361 -1.2372
  316MOL0     H42651  10.413   0.740  10.985 -4.2901 -0.8947  2.6132
  316MOL0     H42652  10.310   0.697  11.223 -0.2517 -0.5911  1.0008
  316MOL0     H42653  10.474   0.733  11.287  0.2445  1.4643  0.3828
  316MOL0     H42654  10.482   0.498  11.264 -0.0249  3.1286  1.3902
  316MOL0     H42655  10.569   0.570  11.130  0.4100 -0.0557  0.3863
  316MOL0     H42656  10.344   0.532  10.996 -0.7399  0.1559  0.1478
  316MOL0     H42657  10.299   0.440  11.141 -0.6181  0.7568 -0.3460
  316MOL0     H42658  10.530   0.192  10.881 -1.8954  1.1416 -0.8917
  316MOL0     H42659  10.828   0.879  11.046 -0.8028  0.3291 -0.9680
  316MOL0     H42660  10.951   1.057  11.145 -0.3147 -2.7047 -2.7820
  317MOL0     O42661   1.859   8.683   2.485  0.0076  0.8396 -0.1179
  317MOL0     C42662   1.930   8.610   2.419 -0.5332  0.0873 -1.4215
  317MOL0     O42663   2.046   8.560   2.458 -0.6871 -0.8001  0.3365
  317MOL0     C42664   2.094   8.606   2.581 -0.8213 -1.0373 -0.0016
  317MOL0     C42665   2.097   8.519   2.695  0.1692  0.2472  0.2805
  317MOL0     C42666   2.133   8.570   2.821 -0.2280 -0.5700 -0.0498
  317MOL0     C42667   2.175   8.704   2.838 -0.8220 -0.6347 -0.1481
  317MOL0     O42668   2.229   8.756   2.956  0.3035  0.3662  0.2294
  317MOL0     C42669   2.235   8.665   3.067 -1.1344  0.9115 -0.7122
  317MOL0     C42670   2.303   8.743   3.181 -0.1558 -0.1284  0.1164
  317MOL0     C42671   2.351   8.662   3.305 -0.1057 -0.3603 -0.7519
  317MOL0     C42672   2.445   8.742   3.393  0.2694  0.0163 -0.2027
  317MOL0     C42673   2.485   8.667   3.523  0.7041  0.6034 -0.4768
  317MOL0     C42674   2.563   8.538   3.495  0.3979 -1.1789 -1.0008
  317MOL0     C42675   2.596   8.469   3.626 -0.3549  0.1603  0.5957
  317MOL0     C42676   2.709   8.367   3.618 -0.3139  0.1142 -0.7822
  317MOL0     N42677   2.675   8.267   3.714 -0.2039  0.0385  0.9205
  317MOL0     C42678   2.680   8.131   3.682  0.3004  0.6408 -0.2455
  317MOL0     C42679   2.672   8.073   3.802 -0.0945  0.3449  0.1477
  317MOL0     C42680   2.666   7.924   3.836 -0.6305  0.6557 -1.4459
  317MOL0     C42681   2.757   7.875   3.954  0.6512 -0.7222  0.9738
  317MOL0     C42682   2.891   7.922   3.939  0.1742  0.2954 -0.5271
  317MOL0     C42683   2.930   8.043   4.015  0.0339  0.0492  0.0896
  317MOL0     O42684   3.071   8.062   4.010  1.1052  0.8417 -0.0859
  317MOL0     C42685   3.127   8.103   4.123  0.2223  0.8184 -0.2833
  317MOL0     C42686   3.266   8.107   4.120 -0.8429 -0.1143 -0.7181
  317MOL0     C42687   3.347   8.155   4.231 -0.4262  0.3040 -0.4624
  317MOL0     C42688   3.498   8.125   4.227  0.0887 -0.1955 -0.5492
  317MOL0     C42689   3.284   8.219   4.339 -0.7590 -0.2457  0.5204
  317MOL0     C42690   3.347   8.259   4.471 -0.1127  0.6843  1.2370
  317MOL0     O42691   3.262   8.322   4.563  0.2961  0.7347  0.6196
  317MOL0     C42692   3.316   8.375   4.681  0.0023 -0.0138 -0.6831
  317MOL0     C42693   3.435   8.448   4.701  0.7239 -0.2128 -1.3221
  317MOL0     C42694   3.480   8.482   4.835  0.1525 -0.0163 -0.8121
  317MOL0     C42695   3.396   8.446   4.951 -0.9176 -0.2225  0.3639
  317MOL0     O42696   3.451   8.455   5.076  0.3733  0.5403 -0.3829
  317MOL0     C42697   3.486   8.590   5.105  0.1843  0.8053  0.1657
  317MOL0     C42698   3.535   8.600   5.248 -0.5124 -0.8772 -0.5489
  317MOL0     C42699   3.482   8.713   5.327 -0.6883  0.2563  0.2407
  317MOL0     C42700   3.448   8.679   5.471  0.5104  0.5060  0.8262
  317MOL0     C42701   3.395   8.797   5.545 -0.0373  0.7111 -0.6012
  317MOL0     C42702   3.382   8.777   5.702  0.1814  0.5654  0.7525
  317MOL0     C42703   3.280   8.675   5.749 -0.3810  0.2188  0.0604
  317MOL0     C42704   3.350   8.543   5.781  0.5659  0.7715  0.7452
  317MOL0    Cl42705   3.228   8.427   5.819  0.1366  0.1146 -0.0357
  317MOL0     C42706   3.289   8.368   4.925  0.0695  0.5185 -0.2317
  317MOL0     C42707   3.239   8.347   4.794  0.3091  0.2279 -0.6879
  317MOL0     O42708   3.469   8.224   4.494  0.0558  0.0237 -0.8523
  317MOL0     C42709   3.141   8.227   4.335  0.2734  0.5360 -0.2936
  317MOL0     C42710   3.063   8.176   4.228  0.1399 -0.0073 -0.3313
  317MOL0     N42711   2.658   8.169   3.901 -0.1599 -0.5231 -0.3197
  317MOL0     N42712   2.652   8.283   3.848  0.2654 -1.0445 -0.0437
  317MOL0     C42713   2.173   8.793   2.725 -0.1187  0.4636  0.2151
  317MOL0     C42714   2.119   8.745   2.597  1.0260  0.6888 -0.7199
  317MOL0     C42715   1.883   8.580   2.282  0.2967  0.6761 -0.8649
  317MOL0     C42716   1.751   8.558   2.253 -0.3891 -0.2421  0.5743
  317MOL0     C42717   1.709   8.526   2.122 -0.2035 -0.3111 -0.4861
  317MOL0     C42718   1.804   8.502   2.017  1.0096 -0.0674 -0.3792
  317MOL0     O42719   1.750   8.448   1.898  0.0191 -0.2292  0.0481
  317MOL0     C42720   1.738   8.307   1.908 -0.5779 -1.0691 -0.1276
  317MOL0     C42721   1.771   8.240   1.765  0.2866  1.0639 -1.2340
  317MOL0     C42722   1.921   8.251   1.729 -0.9470  0.6243 -0.6764
  317MOL0     C42723   1.955   8.178   1.598  0.0756  0.7452  0.0329
  317MOL0     C42724   1.878   8.048   1.575  0.0754 -0.4457 -0.7636
  317MOL0     C42725   1.811   7.947   1.549  1.4212  0.4759 -0.1624
  317MOL0     C42726   1.936   8.533   2.044  0.5643  0.3656 -0.3994
  317MOL0     C42727   1.979   8.576   2.173  0.2146  0.2762  1.1177
  317MOL0     H42728   2.065   8.416   2.683 -0.2336  0.2128  1.4726
  317MOL0     H42729   2.139   8.494   2.898 -0.1020 -0.6670 -0.1545
  317MOL0     H42730   2.141   8.632   3.112 -0.3070  0.7504  0.9669
  317MOL0     H42731   2.296   8.581   3.032 -0.1249  1.4224 -0.2412
  317MOL0     H42732   2.379   8.810   3.141 -0.2914  1.4168  2.2725
  317MOL0     H42733   2.234   8.817   3.222 -0.6047  0.8820 -2.3174
  317MOL0     H42734   2.276   8.620   3.372  0.8860 -4.5216 -1.9326
  317MOL0     H42735   2.402   8.570   3.273 -1.1239 -1.7837  1.4936
  317MOL0     H42736   2.527   8.783   3.334 -0.8794  2.3477 -0.3179
  317MOL0     H42737   2.382   8.830   3.412 -1.7862 -1.0309 -1.7760
  317MOL0     H42738   2.546   8.729   3.590  2.3007 -1.7759  0.3836
  317MOL0     H42739   2.395   8.651   3.583 -0.2036 -1.3759 -2.2547
  317MOL0     H42740   2.514   8.467   3.429  0.4027 -0.9279 -1.2761
  317MOL0     H42741   2.662   8.564   3.454  0.6242  1.5179  0.9696
  317MOL0     H42742   2.633   8.535   3.704 -2.3356 -3.0515  4.5972
  317MOL0     H42743   2.504   8.426   3.667  0.0520 -0.2017  1.1256
  317MOL0     H42744   2.806   8.407   3.647  0.9130 -2.1134 -1.5750
  317MOL0     H42745   2.720   8.324   3.518  0.4011  2.2383 -1.6840
  317MOL0     H42746   2.700   8.082   3.587  0.7925  1.1754 -0.4270
  317MOL0     H42747   2.560   7.920   3.864 -0.0145 -0.3652  1.0044
  317MOL0     H42748   2.669   7.854   3.752 -2.1594  0.6977 -1.5602
  317MOL0     H42749   2.764   7.767   3.942  1.4450 -0.5193 -0.7847
  317MOL0     H42750   2.714   7.910   4.048 -1.1126  0.1098 -0.0975
  317MOL0     H42751   2.906   7.947   3.833  2.6256 -0.2367 -0.3812
  317MOL0     H42752   2.969   7.848   3.960 -0.2429  0.5614  2.2900
  317MOL0     H42753   2.881   8.045   4.112 -4.3988  2.3301 -1.8985
  317MOL0     H42754   2.878   8.123   3.961 -0.7674 -1.2388 -1.1262
  317MOL0     H42755   3.310   8.083   4.024  0.0064  1.5301 -0.7719
  317MOL0     H42756   3.566   8.211   4.218  0.2080 -0.3542 -1.1949
  317MOL0     H42757   3.526   8.081   4.323 -2.1671 -2.1980 -0.7357
  317MOL0     H42758   3.530   8.050   4.155  0.0176 -1.2844  0.5348
  317MOL0     H42759   3.508   8.448   4.620 -0.8392  0.0902 -2.7973
  317MOL0     H42760   3.584   8.508   4.854  0.7339  0.7653 -4.3208
  317MOL0     H42761   3.562   8.631   5.037  2.0619 -1.6450  0.6557
  317MOL0     H42762   3.395   8.647   5.084 -1.0976 -1.2035 -0.0201
  317MOL0     H42763   3.497   8.509   5.296 -0.3072 -1.5300 -1.6081
  317MOL0     H42764   3.643   8.597   5.259 -0.4813  0.6330 -0.2373
  317MOL0     H42765   3.399   8.755   5.269 -1.4216 -1.9092 -0.3734
  317MOL0     H42766   3.555   8.794   5.313 -1.0938  0.1375 -3.6748
  317MOL0     H42767   3.366   8.607   5.464  0.6748  0.3185  0.8249
  317MOL0     H42768   3.529   8.617   5.509 -0.4949 -0.7470  0.9825
  317MOL0     H42769   3.294   8.812   5.506 -1.7486  0.0245  3.1239
  317MOL0     H42770   3.447   8.893   5.533  1.5592  0.4197  2.8179
  317MOL0     H42771   3.480   8.747   5.740  0.2574 -1.2394 -0.7034
  317MOL0     H42772   3.358   8.875   5.742  0.1710  1.9151 -2.2740
  317MOL0     H42773   3.202   8.646   5.678  0.2285 -3.7441  0.7762
  317MOL0     H42774   3.232   8.713   5.840 -0.2668  0.4927  0.0077
  317MOL0     H42775   3.431   8.538   5.855  2.4436  1.4186 -1.1644
  317MOL0     H42776   3.396   8.510   5.687 -0.1427  4.1580 -0.9372
  317MOL0     H42777   3.239   8.341   5.017  1.2114 -1.7837 -0.1932
  317MOL0     H42778   3.147   8.289   4.792  0.3915 -0.1306  2.1060
  317MOL0     H42779   3.078   8.278   4.408  2.3191  3.9598 -0.6734
  317MOL0     H42780   2.957   8.197   4.229 -0.2410 -1.5495 -2.2385
  317MOL0     H42781   2.202   8.896   2.740  0.8099  0.7045 -2.6019
  317MOL0     H42782   2.085   8.821   2.527  3.0804  2.4098  0.0402
  317MOL0     H42783   1.672   8.572   2.327 -0.4530  0.2468  0.4152
  317MOL0     H42784   1.604   8.525   2.094 -0.7684  2.3056  1.2053
  317MOL0     H42785   1.813   8.256   1.970 -1.2957 -0.4425  1.3107
  317MOL0     H42786   1.636   8.285   1.941  0.6834 -2.2214  3.5566
  317MOL0     H42787   1.705   8.275   1.685 -1.6273  1.6770  0.5352
  317MOL0     H42788   1.741   8.134   1.770 -2.0585  1.6986 -0.8147
  317MOL0     H42789   1.987   8.216   1.808 -1.7388 -0.8869 -0.6417
  317MOL0     H42790   1.948   8.356   1.721 -1.4965  0.6681 -2.4276
  317MOL0     H42791   2.062   8.160   1.586 -0.4823 -1.3214 -2.5680
  317MOL0     H42792   1.927   8.243   1.514  1.9241 -1.4696 -2.4448
  317MOL0     H42793   1.770   7.853   1.519  0.0723  0.7826  0.6144
  317MOL0     H42794   2.011   8.508   1.970  0.8506  4.2040 -1.6000
  317MOL0     H42795   2.087   8.576   2.188  0.5985  0.8578 -1.2490
  318MOL0     O42796   2.426   9.714   7.415  0.2134  0.5895 -0.0093
  318MOL0     C42797   2.372   9.761   7.521 -0.2174  0.4405 -0.1627
  318MOL0     O42798   2.237   9.772   7.545  0.4467 -0.5462 -0.2056
  318MOL0     C42799   2.160   9.787   7.431 -0.6519 -0.0750 -0.6022
  318MOL0     C42800   2.102   9.674   7.373  0.4028 -0.4820  0.5810
  318MOL0     C42801   1.988   9.692   7.276 -0.2758 -0.3635  1.6684
  318MOL0     C42802   1.949   9.819   7.235 -0.1836  0.4919  1.0520
  318MOL0     O42803   1.871   9.828   7.114 -0.0156 -0.1073 -0.3470
  318MOL0     C42804   1.752   9.897   7.140 -0.8903 -0.4239  0.0702
  318MOL0     C42805   1.672   9.894   7.018  0.4127  0.7549  0.7120
  318MOL0     C42806   1.549   9.985   7.020  0.1504  0.2450  0.8358
  318MOL0     C42807   1.453   9.966   6.902 -0.3936 -0.0744  0.8957
  318MOL0     C42808   1.508   9.984   6.765 -0.2085 -0.0877 -0.7592
  318MOL0     C42809   1.405  10.014   6.659  0.5277 -0.6012  0.1682
  318MOL0     C42810   1.367  10.156   6.668  0.1557  0.0011  0.0433
  318MOL0     C42811   1.285  10.193   6.543  0.1794  0.5193 -0.3775
  318MOL0     N42812   1.230  10.326   6.589  0.2437  0.2214  0.5401
  318MOL0     C42813   1.120  10.348   6.673  0.1791 -0.3634  0.5500
  318MOL0     C42814   1.099  10.486   6.671  0.0557  0.0712  0.6522
  318MOL0     C42815   0.984  10.581   6.723  0.0706  0.7459 -0.2686
  318MOL0     C42816   0.843  10.534   6.683  0.1851 -0.1132  0.4486
  318MOL0     C42817   0.802  10.569   6.539 -0.4279 -0.7696 -0.1313
  318MOL0     C42818   0.705  10.460   6.479  0.4480 -0.0717  0.2124
  318MOL0     O42819   0.630  10.509   6.366  0.4749  0.7575 -0.6626
  318MOL0     C42820   0.617  10.449   6.244 -0.5184  1.0564  0.2922
  318MOL0     C42821   0.699  10.349   6.193 -0.7139  0.0100 -1.2304
  318MOL0     C42822   0.678  10.291   6.069  0.0823 -0.1592 -0.0797
  318MOL0     C42823   0.777  10.189   6.020  0.9924  0.1893 -0.4269
  318MOL0     C42824   0.563  10.326   5.991  1.0757 -0.1792 -0.6654
  318MOL0     C42825   0.525  10.269   5.853 -0.0176 -0.0454  1.5554
  318MOL0     O42826   0.446  10.341   5.780  0.8543 -0.1533  0.4234
  318MOL0     C42827   0.389  10.296   5.660  0.2879  1.2390 -1.1823
  318MOL0     C42828   0.379  10.390   5.561 -0.1921  0.1617  0.1381
  318MOL0     C42829   0.308  10.364   5.447 -0.0575 -1.5179  0.4042
  318MOL0     C42830   0.245  10.243   5.427  0.7140 -0.3935 -0.4301
  318MOL0     O42831   0.164  10.222   5.316  0.0338 -0.5828  0.7722
  318MOL0     C42832   0.231  10.238   5.180  0.3073  0.8203 -0.0191
  318MOL0     C42833   0.139  10.255   5.060  0.0915  1.3132 -0.1266
  318MOL0     C42834   0.015  10.154   5.061 -0.3159  0.5416  0.4456
  318MOL0     C42835  -0.081  10.176   4.942 -0.0960 -0.0146  0.1637
  318MOL0     C42836  -0.221  10.103   4.955 -0.1723 -0.3936 -0.1311
  318MOL0     C42837  -0.307  10.145   5.071  1.2028  0.4752  0.3526
  318MOL0     C42838  -0.411  10.037   5.114  0.8065  0.3405 -0.3824
  318MOL0     C42839  -0.467  10.061   5.261 -0.0877  1.0480  0.1936
  318MOL0    Cl42840  -0.573  10.207   5.256  0.6329 -0.0716  0.3513
  318MOL0     C42841   0.246  10.147   5.529 -0.6703  0.4331 -0.0957
  318MOL0     C42842   0.333  10.168   5.638  0.7679  0.7261  0.5405
  318MOL0     O42843   0.561  10.155   5.829  0.3523  0.6455  0.2045
  318MOL0     C42844   0.473  10.420   6.039 -1.0897 -0.4433 -0.8625
  318MOL0     C42845   0.503  10.480   6.161 -0.1087  0.2439 -0.3569
  318MOL0     N42846   1.193  10.537   6.593 -0.0114 -0.2463 -0.0700
  318MOL0     N42847   1.266  10.439   6.536  0.1594  0.3800 -0.0217
  318MOL0     C42848   2.017   9.925   7.293 -0.5339  0.7494 -0.2715
  318MOL0     C42849   2.114   9.915   7.408  0.9569 -1.0207  1.2275
  318MOL0     C42850   2.459   9.826   7.622  0.3188  0.1951  0.8607
  318MOL0     C42851   2.407   9.871   7.748  0.0244 -0.2891  0.4314
  318MOL0     C42852   2.494   9.912   7.844  0.0102 -0.3721  1.0370
  318MOL0     C42853   2.628   9.917   7.824 -0.5521  0.2453  0.3584
  318MOL0     O42854   2.717   9.946   7.928 -0.0298 -0.4597 -0.2874
  318MOL0     C42855   2.859   9.937   7.925  0.0282 -0.2210 -0.3704
  318MOL0     C42856   2.933   9.876   8.042  0.5498  0.1525  0.5040
  318MOL0     C42857   2.856   9.751   8.095 -0.4271 -0.4769  0.3505
  318MOL0     C42858   2.926   9.684   8.214 -0.7285 -1.1155 -0.6785
  318MOL0     C42859   2.864   9.545   8.220  0.5275 -0.0259 -0.6874
  318MOL0     C42860   2.842   9.422   8.209 -0.0593  0.4959 -0.1893
  318MOL0     C42861   2.676   9.874   7.704 -0.2801 -0.7438 -0.1125
  318MOL0     C42862   2.602   9.829   7.601  0.0179 -1.0927  0.3698
  318MOL0     H42863   2.138   9.573   7.388  1.2167 -0.1063  1.1800
  318MOL0     H42864   1.943   9.608   7.225  0.8141 -0.8103  1.4224
  318MOL0     H42865   1.690   9.855   7.220  0.2730 -1.1598  0.6178
  318MOL0     H42866   1.775  10.002   7.158  4.3796 -0.1332 -4.9424
  318MOL0     H42867   1.742   9.920   6.938  1.7804 -0.7442  1.3789
  318MOL0     H42868   1.650   9.789   6.997  1.2868  0.4283  1.3784
  318MOL0     H42869   1.476   9.961   7.097 -2.4445 -2.7909 -2.2069
  318MOL0     H42870   1.584  10.088   7.030  1.4253  0.2747 -2.4953
  318MOL0     H42871   1.404   9.868   6.908 -1.3038  0.4018  1.3236
  318MOL0     H42872   1.368  10.033   6.914 -0.9761 -0.5824 -0.2598
  318MOL0     H42873   1.576  10.068   6.784  0.2822 -0.7886  0.7947
  318MOL0     H42874   1.577   9.903   6.738 -1.6981 -1.6780  0.0490
  318MOL0     H42875   1.456   9.994   6.565 -0.1821  3.6162 -1.3563
  318MOL0     H42876   1.312   9.955   6.656  1.1913 -1.6387 -1.6575
  318MOL0     H42877   1.314  10.174   6.762 -1.6218 -2.7466 -0.3080
  318MOL0     H42878   1.456  10.219   6.671  0.2664 -0.1750  2.4145
  318MOL0     H42879   1.195  10.134   6.521  0.0438 -0.1959  1.8783
  318MOL0     H42880   1.343  10.191   6.450  1.3075  0.5542  0.3051
  318MOL0     H42881   1.054  10.269   6.706  0.3155 -0.0056  1.7130
  318MOL0     H42882   0.980  10.561   6.830 -1.3172 -1.0640 -0.6038
  318MOL0     H42883   1.000  10.689   6.717 -3.8406  1.5363  1.0894
  318MOL0     H42884   0.770  10.572   6.754  0.4937  1.3489  0.0200
  318MOL0     H42885   0.839  10.425   6.675 -0.0754 -0.0250 -5.3999
  318MOL0     H42886   0.889  10.570   6.473 -0.0267  2.7276  0.2998
  318MOL0     H42887   0.758  10.669   6.542  0.5104 -0.2105 -2.5676
  318MOL0     H42888   0.632  10.426   6.553 -3.3506 -1.4626 -3.7618
  318MOL0     H42889   0.763  10.371   6.453 -1.1512 -1.0544 -0.1659
  318MOL0     H42890   0.779  10.323   6.262 -2.3464 -2.1201 -0.0270
  318MOL0     H42891   0.796  10.205   5.914 -0.5670  0.0737 -0.7417
  318MOL0     H42892   0.879  10.206   6.057  1.3966 -2.1596 -0.2653
  318MOL0     H42893   0.737  10.087   6.023  0.3880  0.3859 -1.5598
  318MOL0     H42894   0.429  10.485   5.574  2.1181 -0.9243 -0.4071
  318MOL0     H42895   0.287  10.452   5.388  1.2804 -1.1533  0.4348
  318MOL0     H42896   0.297  10.325   5.193  1.5009 -0.0734  0.1233
  318MOL0     H42897   0.285  10.144   5.166 -1.7233 -0.3429 -0.4295
  318MOL0     H42898   0.102  10.357   5.050 -1.2214  0.8190 -0.4175
  318MOL0     H42899   0.192  10.222   4.970 -3.2290 -3.3843 -0.7465
  318MOL0     H42900  -0.037  10.166   5.156 -2.5454 -0.8448 -0.5219
  318MOL0     H42901   0.055  10.052   5.059 -3.2818 -0.8051  2.5541
  318MOL0     H42902  -0.099  10.284   4.938 -0.4675 -0.0235  1.3515
  318MOL0     H42903  -0.029  10.144   4.851  3.3939  1.5093  1.4260
  318MOL0     H42904  -0.197   9.997   4.961 -0.2677 -0.5404 -1.7322
  318MOL0     H42905  -0.276  10.124   4.863  1.3695  1.4894 -0.6945
  318MOL0     H42906  -0.242  10.157   5.158  1.5054  0.2018  0.1701
  318MOL0     H42907  -0.359  10.241   5.057 -1.9108 -0.6430  3.1470
  318MOL0     H42908  -0.365   9.940   5.092 -0.5383 -0.0058 -1.8633
  318MOL0     H42909  -0.500  10.028   5.050 -1.3807 -1.3262  2.5783
  318MOL0     H42910  -0.389  10.090   5.331 -2.9377  3.3863  2.7139
  318MOL0     H42911  -0.521   9.973   5.298  1.0356 -0.1757 -0.9545
  318MOL0     H42912   0.195  10.051   5.530  2.6973 -1.5628 -1.8062
  318MOL0     H42913   0.347  10.094   5.716 -0.8490  1.4771  1.5848
  318MOL0     H42914   0.384  10.458   5.989 -1.9296 -2.6717 -1.1919
  318MOL0     H42915   0.443  10.567   6.184  1.8257  1.7426 -0.6715
  318MOL0     H42916   1.984  10.023   7.262 -0.5585  1.1402  0.9558
  318MOL0     H42917   2.158   9.999   7.460  1.2243 -0.8175  0.6839
  318MOL0     H42918   2.300   9.872   7.765 -0.0979  1.7762 -0.1244
  318MOL0     H42919   2.437   9.942   7.932 -2.0183  1.0299 -0.6710
  318MOL0     H42920   2.898   9.889   7.835  1.4377 -0.1191  0.1511
  318MOL0     H42921   2.895  10.040   7.932 -0.8294 -0.0121  3.1514
  318MOL0     H42922   2.936   9.953   8.120  0.7650  1.7587 -1.0239
  318MOL0     H42923   3.037   9.847   8.025  1.8161  3.9040  0.8972
  318MOL0     H42924   2.857   9.683   8.010 -2.6784 -0.2576  0.0849
  318MOL0     H42925   2.749   9.766   8.111 -0.2888  0.6438  0.3634
  318MOL0     H42926   2.909   9.732   8.311 -2.2103 -2.0573 -0.4268
  318MOL0     H42927   3.033   9.673   8.195 -0.4050  0.8980 -0.2499
  318MOL0     H42928   2.847   9.316   8.224  0.1914  0.9362  4.2502
  318MOL0     H42929   2.781   9.883   7.678 -0.2819  1.2767  0.3787
  318MOL0     H42930   2.648   9.792   7.510 -0.0474  3.8132 -1.9410
  319MOL0     O42931   4.829   5.368   9.934 -0.9454 -0.5935 -0.1176
  319MOL0     C42932   4.809   5.456   9.854  1.0480 -0.1335 -0.1597
  319MOL0     O42933   4.793   5.589   9.892 -0.0794 -0.7630  0.4921
  319MOL0     C42934   4.800   5.624  10.025 -0.3421 -0.5616 -0.0247
  319MOL0     C42935   4.718   5.595  10.134  0.8931 -0.8052 -0.2752
  319MOL0     C42936   4.751   5.638  10.261 -0.4794 -0.2636  0.3014
  319MOL0     C42937   4.834   5.746  10.274  0.4269  0.3246  0.2838
  319MOL0     O42938   4.838   5.805  10.393  0.1284  0.4580 -0.0650
  319MOL0     C42939   4.888   5.724  10.500  0.7856 -0.7320 -0.5834
  319MOL0     C42940   4.980   5.816  10.583 -0.2090 -0.4812  0.2342
  319MOL0     C42941   4.900   5.916  10.675 -0.4272 -0.7548  0.2334
  319MOL0     C42942   4.805   5.845  10.769 -0.2432  0.4263 -0.9965
  319MOL0     C42943   4.738   5.938  10.882  0.5553  0.1096  0.8499
  319MOL0     C42944   4.829   5.968  10.997  0.1815 -0.8752  0.7822
  319MOL0     C42945   4.758   6.021  11.126  1.4836 -0.0171  0.2496
  319MOL0     C42946   4.717   5.904  11.223 -0.7052  1.1213  0.5193
  319MOL0     N42947   4.838   5.818  11.259  0.2173 -0.6491 -0.8090
  319MOL0     C42948   4.939   5.857  11.340  0.3641 -0.0461 -0.0696
  319MOL0     C42949   5.007   5.744  11.371  0.4668  0.0430 -0.2697
  319MOL0     C42950   5.130   5.708  11.453  0.5556 -0.8114  0.0831
  319MOL0     C42951   5.220   5.822  11.480 -0.0082  0.1564  1.2866
  319MOL0     C42952   5.322   5.788  11.585 -0.2666 -0.1990 -1.5236
  319MOL0     C42953   5.262   5.795  11.727  1.0927  0.2493  0.4096
  319MOL0     O42954   5.355   5.762  11.828  0.1572  0.6303  0.8479
  319MOL0     C42955   5.413   5.858  11.901  0.4792  0.1242 -0.0471
  319MOL0     C42956   5.531   5.823  11.969 -0.2750  0.3253  0.3856
  319MOL0     C42957   5.605   5.918  12.042  0.3728  0.6204 -0.5998
  319MOL0     C42958   5.725   5.875  12.114 -0.5781 -0.7569 -0.1593
  319MOL0     C42959   5.554   6.047  12.054 -0.1836  0.3105  1.0606
  319MOL0     C42960   5.634   6.148  12.119 -0.7798  0.0728  0.0672
  319MOL0     O42961   5.579   6.206  12.236  0.1676 -0.2960 -0.0071
  319MOL0     C42962   5.647   6.315  12.290  0.1828  0.3651 -0.0464
  319MOL0     C42963   5.728   6.297  12.400  0.2534 -0.0493 -0.4849
  319MOL0     C42964   5.773   6.412  12.475  0.1331  0.4767 -0.1129
  319MOL0     C42965   5.759   6.538  12.421  0.0261  0.1864 -0.2328
  319MOL0     O42966   5.816   6.650  12.483  0.3955  0.5174 -0.1622
  319MOL0     C42967   5.866   6.768  12.404  0.6585  1.3672  0.3610
  319MOL0     C42968   5.744   6.867  12.399 -0.7933 -0.4413  0.2491
  319MOL0     C42969   5.804   6.997  12.442 -0.0020 -0.2663  0.2267
  319MOL0     C42970   5.690   7.105  12.471  0.7143  1.0621 -0.2827
  319MOL0     C42971   5.601   7.054  12.588  0.3898 -0.3659  0.1022
  319MOL0     C42972   5.519   7.161  12.666  0.4368  0.7044  0.2791
  319MOL0     C42973   5.605   7.280  12.716  0.2504 -0.2025  0.4118
  319MOL0     C42974   5.538   7.348  12.825 -1.3582  0.1317 -0.1776
  319MOL0    Cl42975   5.548   7.277  12.990 -0.5385 -0.0028  0.6583
  319MOL0     C42976   5.696   6.551  12.300  1.1921  0.4532 -0.0150
  319MOL0     C42977   5.633   6.446  12.240 -0.3372 -0.6234  0.3051
  319MOL0     O42978   5.737   6.188  12.059 -0.4932  0.5700 -0.9056
  319MOL0     C42979   5.433   6.084  11.994 -0.7600  0.6094  0.1198
  319MOL0     C42980   5.362   5.995  11.909 -0.6941  0.7136  0.5268
  319MOL0     N42981   4.941   5.632  11.331  0.9053  0.4050 -0.3542
  319MOL0     N42982   4.843   5.681  11.253 -0.1509  0.5558 -0.1804
  319MOL0     C42983   4.900   5.789  10.160  0.0349 -0.2696 -0.5766
  319MOL0     C42984   4.892   5.726  10.038  0.1736 -0.4938 -0.5161
  319MOL0     C42985   4.796   5.428   9.707 -0.3365 -0.7831 -0.4491
  319MOL0     C42986   4.823   5.528   9.616 -0.3997 -0.4121 -0.5071
  319MOL0     C42987   4.805   5.502   9.475  0.7831 -1.1507 -0.3258
  319MOL0     C42988   4.746   5.384   9.433 -0.1176 -0.1096  0.3552
  319MOL0     O42989   4.720   5.370   9.303  0.5496  0.0610 -0.1762
  319MOL0     C42990   4.716   5.251   9.225 -0.0757  0.4422  0.2095
  319MOL0     C42991   4.869   5.204   9.216  0.8545  1.0473  0.5329
  319MOL0     C42992   4.873   5.050   9.229 -0.0990 -0.1625  0.6215
  319MOL0     C42993   5.008   4.998   9.182  0.9402 -0.1628  0.2900
  319MOL0     C42994   5.030   4.870   9.248 -0.5183  0.6816 -1.1841
  319MOL0     C42995   5.055   4.767   9.308  0.5452  0.6221 -0.8856
  319MOL0     C42996   4.737   5.283   9.527  0.1151 -0.5211 -0.1183
  319MOL0     C42997   4.751   5.307   9.665 -1.1856 -0.5701 -0.5271
  319MOL0     H42998   4.636   5.526  10.119  1.4926 -1.0182 -3.2156
  319MOL0     H42999   4.715   5.587  10.350  1.9527  0.9527  2.0957
  319MOL0     H43000   4.809   5.681  10.563 -0.0289 -0.2623 -1.2663
  319MOL0     H43001   4.937   5.638  10.453  0.6237 -0.6645 -0.8781
  319MOL0     H43002   5.049   5.763  10.649  0.2355 -2.5169 -1.7155
  319MOL0     H43003   5.046   5.869  10.514 -1.6661  0.5001 -0.4606
  319MOL0     H43004   4.964   5.982  10.735  0.7848 -0.9197 -0.8313
  319MOL0     H43005   4.838   5.983  10.614  1.2002 -0.7728 -1.5481
  319MOL0     H43006   4.722   5.810  10.707  0.3760  2.7189 -3.2574
  319MOL0     H43007   4.860   5.759  10.810  1.5829  1.7727 -0.5092
  319MOL0     H43008   4.705   6.028  10.830  4.0468  0.7663 -0.4805
  319MOL0     H43009   4.645   5.889  10.913 -0.2235  1.2382  0.3588
  319MOL0     H43010   4.881   5.874  11.017 -1.0269 -2.1740 -1.6197
  319MOL0     H43011   4.897   6.045  10.959 -1.6976 -0.4341 -2.0485
  319MOL0     H43012   4.819   6.094  11.180  2.7196 -0.9654  0.1745
  319MOL0     H43013   4.659   6.057  11.095  0.4843 -0.3728  2.7204
  319MOL0     H43014   4.641   5.835  11.186 -3.0606  0.5447  5.5421
  319MOL0     H43015   4.660   5.938  11.310 -4.9322 -3.4524 -0.0258
  319MOL0     H43016   4.963   5.958  11.371  0.3871  0.2557 -1.0457
  319MOL0     H43017   5.096   5.669  11.549 -1.2553  0.6672  0.1153
  319MOL0     H43018   5.181   5.622  11.409  0.3083 -0.3169 -1.2192
  319MOL0     H43019   5.168   5.917  11.496  2.0228  2.1816 -2.5006
  319MOL0     H43020   5.269   5.839  11.383 -0.5840  1.6512  1.2267
  319MOL0     H43021   5.411   5.851  11.588 -0.2946 -0.1817  1.3448
  319MOL0     H43022   5.361   5.688  11.564  0.2290 -0.3470  0.0305
  319MOL0     H43023   5.176   5.727  11.729  1.7681 -0.6407 -0.3229
  319MOL0     H43024   5.220   5.896  11.735  1.5317  0.3301  2.0239
  319MOL0     H43025   5.570   5.722  11.970  1.0249  0.7835 -0.3610
  319MOL0     H43026   5.693   5.810  12.196  0.5145 -1.4259 -0.2490
  319MOL0     H43027   5.790   5.832  12.037 -0.1969 -0.2254 -0.1409
  319MOL0     H43028   5.780   5.957  12.161  0.9740 -0.6069 -2.1266
  319MOL0     H43029   5.762   6.201  12.435  0.5931  0.4175  0.4961
  319MOL0     H43030   5.839   6.403  12.560 -0.5980  0.6598  0.4893
  319MOL0     H43031   5.954   6.805  12.457  1.2467 -0.3094  0.6063
  319MOL0     H43032   5.903   6.740  12.305  0.3616  2.7426 -0.1586
  319MOL0     H43033   5.701   6.892  12.301 -0.5204  3.2291  0.9215
  319MOL0     H43034   5.667   6.829  12.466  1.8287 -3.0543  2.0092
  319MOL0     H43035   5.859   7.037  12.357 -0.0088  0.1359  0.4107
  319MOL0     H43036   5.874   6.990  12.526 -0.5859 -3.5937  0.5950
  319MOL0     H43037   5.745   7.195  12.499 -1.1485  2.1690 -0.0081
  319MOL0     H43038   5.644   7.121  12.373  1.1540  1.2380 -0.4629
  319MOL0     H43039   5.668   7.007  12.660  1.8379  1.0246 -0.2960
  319MOL0     H43040   5.532   6.975  12.558 -1.9403  1.7592 -0.5556
  319MOL0     H43041   5.429   7.193  12.613 -2.5891 -0.5048  4.1795
  319MOL0     H43042   5.475   7.106  12.750 -0.8877 -1.6527 -1.8401
  319MOL0     H43043   5.610   7.347  12.629  1.4958  0.8814  1.2755
  319MOL0     H43044   5.701   7.246  12.755  0.2456  0.5739  1.1144
  319MOL0     H43045   5.433   7.362  12.797 -1.2534 -0.7908 -1.0740
  319MOL0     H43046   5.580   7.449  12.832  1.5093 -1.0947  2.4689
  319MOL0     H43047   5.705   6.646  12.248  0.8679  0.8820  0.6967
  319MOL0     H43048   5.579   6.471  12.149  2.8221  1.0252 -1.2994
  319MOL0     H43049   5.400   6.187  11.991 -0.9328  0.5432 -1.3339
  319MOL0     H43050   5.284   6.041  11.850 -1.5256 -0.6239  0.5375
  319MOL0     H43051   4.963   5.877  10.169 -2.3357  1.6840 -1.8640
  319MOL0     H43052   4.953   5.759   9.955  4.2088 -3.3372  0.9919
  319MOL0     H43053   4.865   5.621   9.654  2.3578 -1.6092 -0.4298
  319MOL0     H43054   4.831   5.587   9.413 -1.0096  0.9757  1.6386
  319MOL0     H43055   4.654   5.180   9.281 -0.7197  0.5892 -0.3027
  319MOL0     H43056   4.666   5.257   9.128  1.2319  1.7941 -0.4290
  319MOL0     H43057   4.945   5.251   9.279  2.7915 -2.2497  0.9388
  319MOL0     H43058   4.909   5.227   9.117 -0.5714  4.4000  0.5985
  319MOL0     H43059   4.794   5.000   9.172 -0.6403  0.3246  0.9306
  319MOL0     H43060   4.852   5.017   9.331  0.5642  2.6214  1.7539
  319MOL0     H43061   5.090   5.066   9.206  3.5288 -1.7377 -3.1845
  319MOL0     H43062   5.015   4.979   9.075  0.3396 -1.9376  0.5349
  319MOL0     H43063   5.097   4.684   9.362 -3.4135 -2.4061 -1.9907
  319MOL0     H43064   4.693   5.185   9.512 -1.6974  0.5145 -2.0772
  319MOL0     H43065   4.722   5.231   9.737  2.8083 -0.8261  1.0573
  320MOL0     O43066   7.664   2.103  10.060 -0.6423  0.6447  0.0556
  320MOL0     C43067   7.600   2.166  10.145  0.4807 -0.0540  0.0314
  320MOL0     O43068   7.613   2.301  10.175  0.2990  0.3444 -0.0050
  320MOL0     C43069   7.733   2.365  10.174  0.0372 -0.0448 -0.2161
  320MOL0     C43070   7.730   2.505  10.161 -0.0194 -0.1667 -0.3909
  320MOL0     C43071   7.845   2.591  10.173  0.4050  0.1360 -0.3584
  320MOL0     C43072   7.973   2.530  10.182 -0.1249 -0.1030 -0.2938
  320MOL0     O43073   8.092   2.608  10.165  0.4719 -1.2840 -0.9626
  320MOL0     C43074   8.094   2.753  10.182  0.1871 -0.0425 -0.6528
  320MOL0     C43075   8.088   2.783  10.340 -0.9195  0.1676  0.1486
  320MOL0     C43076   8.087   2.930  10.370  0.0980 -0.0063  0.5605
  320MOL0     C43077   8.068   2.959  10.521  0.5116 -0.0708 -0.3638
  320MOL0     C43078   8.101   3.110  10.564 -0.1366 -0.0938 -0.7638
  320MOL0     C43079   8.119   3.115  10.722  0.3490  0.4444 -0.4937
  320MOL0     C43080   7.991   3.102  10.804  0.3549 -0.4735  0.4039
  320MOL0     C43081   7.874   3.185  10.733 -0.3290 -0.1691  0.0510
  320MOL0     N43082   7.747   3.178  10.803  0.0169 -0.2367 -0.9909
  320MOL0     C43083   7.637   3.106  10.765  0.1171  1.1475  0.2463
  320MOL0     C43084   7.532   3.132  10.857 -0.1834  0.7263  0.9143
  320MOL0     C43085   7.406   3.055  10.859  1.2530  0.5287 -0.0506
  320MOL0     C43086   7.406   2.945  10.967 -0.3761  0.0594 -0.6572
  320MOL0     C43087   7.296   2.841  10.944  0.0952 -1.0434  0.4018
  320MOL0     C43088   7.309   2.729  11.036  0.5461  0.3032  0.0131
  320MOL0     O43089   7.437   2.669  11.029  0.1901  0.0169  0.7445
  320MOL0     C43090   7.470   2.551  11.094  0.8786 -0.0394  0.0780
  320MOL0     C43091   7.601   2.494  11.071  0.8184 -0.6095 -0.6580
  320MOL0     C43092   7.641   2.370  11.140 -0.2163 -0.6096  0.2860
  320MOL0     C43093   7.781   2.320  11.108 -0.1900 -0.6611 -0.6527
  320MOL0     C43094   7.543   2.298  11.215 -0.3353 -1.3944 -0.1927
  320MOL0     C43095   7.581   2.167  11.279 -0.4142 -1.1864  0.3049
  320MOL0     O43096   7.486   2.069  11.286  0.0258 -0.0692  0.0716
  320MOL0     C43097   7.514   1.959  11.357  0.1479  0.6306 -0.1064
  320MOL0     C43098   7.569   1.956  11.482 -0.6012 -0.7027  0.2635
  320MOL0     C43099   7.613   1.832  11.528  0.7582  0.2539  0.2336
  320MOL0     C43100   7.580   1.710  11.451 -1.1349  1.9104  0.0482
  320MOL0     O43101   7.596   1.577  11.495  0.7395  0.1870  1.0521
  320MOL0     C43102   7.641   1.556  11.624 -0.3999  0.1939 -1.4425
  320MOL0     C43103   7.637   1.423  11.690 -0.5347  0.9297  0.9734
  320MOL0     C43104   7.509   1.345  11.669  0.9970 -0.1390  1.1377
  320MOL0     C43105   7.518   1.219  11.739  0.2815  0.3739 -0.3576
  320MOL0     C43106   7.382   1.147  11.735 -0.5915  0.1660 -0.6095
  320MOL0     C43107   7.371   1.029  11.841 -0.5918 -0.0012  0.7584
  320MOL0     C43108   7.228   0.974  11.849  0.3510 -0.9057  0.4287
  320MOL0     C43109   7.199   0.893  11.975 -0.0853 -0.7595 -0.2585
  320MOL0    Cl43110   7.056   0.796  11.956  0.1458  0.1826  0.2276
  320MOL0     C43111   7.515   1.718  11.332  0.5981  0.8338 -0.7779
  320MOL0     C43112   7.486   1.843  11.286 -0.6042  0.1653 -0.6507
  320MOL0     O43113   7.700   2.153  11.299  0.4762  0.3858 -0.1360
  320MOL0     C43114   7.418   2.352  11.233  0.1095 -0.8474  0.0306
  320MOL0     C43115   7.378   2.482  11.187 -0.4406 -0.1005 -0.7773
  320MOL0     N43116   7.588   3.231  10.938 -0.7389  0.8399 -0.0596
  320MOL0     N43117   7.709   3.258  10.904  0.8845  0.7015 -0.0934
  320MOL0     C43118   7.985   2.391  10.173  1.0409  0.0330 -0.7796
  320MOL0     C43119   7.865   2.307  10.167 -0.0080  0.0711 -0.5638
  320MOL0     C43120   7.499   2.084  10.227 -0.0948 -0.0221 -0.9967
  320MOL0     C43121   7.479   1.942  10.215 -0.4366 -1.0173 -0.3472
  320MOL0     C43122   7.391   1.881  10.307  1.2572  0.5226  0.1894
  320MOL0     C43123   7.318   1.960  10.399  0.0043 -0.5391  0.0217
  320MOL0     O43124   7.229   1.877  10.472  0.2557  0.0263 -0.1076
  320MOL0     C43125   7.146   1.949  10.559 -0.1476  0.0885 -0.6796
  320MOL0     C43126   7.063   1.841  10.629  0.0606  1.2667  0.1626
  320MOL0     C43127   6.944   1.784  10.545 -0.5998 -0.3847 -0.3368
  320MOL0     C43128   6.991   1.661  10.459 -0.1367 -0.1876 -0.2932
  320MOL0     C43129   6.910   1.641  10.343  0.6659  0.5147 -0.3426
  320MOL0     C43130   6.831   1.613  10.255 -0.7805 -0.1295 -0.1587
  320MOL0     C43131   7.329   2.099  10.411 -0.5335  0.3236  0.5157
  320MOL0     C43132   7.423   2.160  10.322  0.2410 -0.5484 -0.3757
  320MOL0     H43133   7.628   2.544  10.164 -1.0300 -2.6455 -0.1398
  320MOL0     H43134   7.831   2.698  10.167 -1.6643 -0.0341  0.6712
  320MOL0     H43135   8.190   2.787  10.141  0.0419  2.4495  0.8566
  320MOL0     H43136   8.018   2.807  10.125  0.8220 -2.1597 -3.7323
  320MOL0     H43137   8.008   2.725  10.388 -2.3614 -2.0280 -4.3034
  320MOL0     H43138   8.183   2.745  10.379 -1.6454 -1.8435  0.0599
  320MOL0     H43139   8.178   2.978  10.331  1.9862 -3.8636 -0.3147
  320MOL0     H43140   7.999   2.970  10.320 -2.1236 -1.1010  3.3431
  320MOL0     H43141   7.963   2.947  10.548 -0.0809 -2.8133 -3.2177
  320MOL0     H43142   8.131   2.898  10.585  2.4612  2.4738  0.3022
  320MOL0     H43143   8.190   3.139  10.506  0.0122 -1.0907 -1.0617
  320MOL0     H43144   8.032   3.176  10.510  2.5170  2.4995 -1.2168
  320MOL0     H43145   8.187   3.036  10.753 -0.8436  0.6319  3.1566
  320MOL0     H43146   8.167   3.211  10.743  0.5738  0.6966 -2.0278
  320MOL0     H43147   7.947   3.001  10.803 -0.2264 -0.2342 -1.3075
  320MOL0     H43148   8.006   3.143  10.904  0.0640  3.1089 -0.8931
  320MOL0     H43149   7.847   3.147  10.634 -4.5235  2.4266 -0.0699
  320MOL0     H43150   7.905   3.290  10.729 -1.2315  0.3871  3.6130
  320MOL0     H43151   7.646   3.025  10.693 -0.2618 -0.6103  2.0915
  320MOL0     H43152   7.327   3.130  10.871  2.3869  2.4204 -3.2223
  320MOL0     H43153   7.388   2.997  10.768 -1.8139  1.7525 -0.3477
  320MOL0     H43154   7.394   2.992  11.065 -0.5670  0.0430 -0.6736
  320MOL0     H43155   7.507   2.902  10.974 -2.3481 -5.1392  0.1664
  320MOL0     H43156   7.304   2.799  10.843 -0.6758  0.2792 -0.2356
  320MOL0     H43157   7.197   2.886  10.941  0.3719 -0.4307  0.2011
  320MOL0     H43158   7.238   2.651  11.007  1.3635 -0.7722  0.8143
  320MOL0     H43159   7.293   2.777  11.133  2.7271 -0.7544  0.9677
  320MOL0     H43160   7.672   2.546  11.008 -1.8891  1.3704 -2.2929
  320MOL0     H43161   7.771   2.227  11.051 -1.0510  0.5601 -2.5883
  320MOL0     H43162   7.818   2.385  11.028 -1.5787  0.5324 -0.3652
  320MOL0     H43163   7.840   2.311  11.200  2.8371 -5.3508 -2.6622
  320MOL0     H43164   7.597   2.045  11.538 -0.9091 -0.5160  0.1234
  320MOL0     H43165   7.680   1.827  11.612  0.1798 -0.8057  0.6581
  320MOL0     H43166   7.744   1.591  11.622  1.7056 -5.1136 -1.6525
  320MOL0     H43167   7.569   1.619  11.678 -3.1269 -2.3565 -1.8542
  320MOL0     H43168   7.716   1.361  11.646 -0.4770  1.3829  0.4179
  320MOL0     H43169   7.670   1.443  11.792  2.4236  2.4669 -0.1448
  320MOL0     H43170   7.497   1.317  11.564  2.6890  1.4711  0.4675
  320MOL0     H43171   7.432   1.408  11.714 -0.2479 -0.2345 -0.7460
  320MOL0     H43172   7.586   1.157  11.681 -2.1564 -4.0908  1.0728
  320MOL0     H43173   7.554   1.239  11.841  0.4497 -0.5276 -0.2316
  320MOL0     H43174   7.370   1.112  11.632 -2.5948 -2.2732  0.3540
  320MOL0     H43175   7.301   1.220  11.746  0.7473  1.4543  1.2476
  320MOL0     H43176   7.431   0.943  11.810 -1.7339 -1.3642  2.1741
  320MOL0     H43177   7.404   1.058  11.942 -1.1523 -2.6458  1.7986
  320MOL0     H43178   7.220   0.904  11.765  1.0311 -0.4533 -0.0226
  320MOL0     H43179   7.150   1.050  11.838 -1.3275 -2.2096  2.5528
  320MOL0     H43180   7.168   0.969  12.047  1.5921 -1.2446  1.0494
  320MOL0     H43181   7.290   0.840  12.005 -0.6693 -2.7789 -1.7995
  320MOL0     H43182   7.501   1.632  11.268 -2.2254  0.9398 -0.3965
  320MOL0     H43183   7.437   1.850  11.189 -0.4631  1.0586 -0.6694
  320MOL0     H43184   7.347   2.288  11.284  0.5197 -2.3741 -1.2326
  320MOL0     H43185   7.273   2.508  11.194 -1.2311 -2.3440 -2.9128
  320MOL0     H43186   8.085   2.356  10.152  1.6783  2.9383 -3.1609
  320MOL0     H43187   7.883   2.202  10.145 -1.0022 -0.8889  2.6681
  320MOL0     H43188   7.519   1.889  10.130 -0.3048  0.9841 -1.5905
  320MOL0     H43189   7.363   1.776  10.296 -2.2125  1.1686  1.7884
  320MOL0     H43190   7.195   2.000  10.642 -0.2562  0.5892 -0.9199
  320MOL0     H43191   7.077   2.019  10.510 -0.0571  0.1209 -0.7600
  320MOL0     H43192   7.009   1.880  10.716 -1.1674 -1.3518  0.7003
  320MOL0     H43193   7.125   1.765  10.678 -1.4522  1.4690  2.5716
  320MOL0     H43194   6.900   1.861  10.480  0.3675 -1.1878 -2.0045
  320MOL0     H43195   6.866   1.754  10.616  0.0197 -1.1427  0.0360
  320MOL0     H43196   6.995   1.566  10.512 -0.1332  0.0117  0.0681
  320MOL0     H43197   7.091   1.692  10.424  0.0370  0.7690  0.9765
  320MOL0     H43198   6.759   1.590  10.180 -2.6216  2.2143  0.7220
  320MOL0     H43199   7.276   2.162  10.482 -1.3769  2.5116 -1.8970
  320MOL0     H43200   7.440   2.267  10.337 -2.1189 -0.0963 -0.5994
  321MOL0     O43201   5.413   4.087  11.427 -0.3903 -0.3831 -0.6179
  321MOL0     C43202   5.298   4.093  11.391  0.4350 -0.4611  0.3141
  321MOL0     O43203   5.231   4.202  11.349  0.4639  0.0999 -0.6997
  321MOL0     C43204   5.288   4.312  11.286 -0.6564 -0.3484  0.7331
  321MOL0     C43205   5.439   4.328  11.274 -0.1620  0.6321 -0.5936
  321MOL0     C43206   5.486   4.432  11.203  0.0115  1.3350  0.7830
  321MOL0     C43207   5.409   4.530  11.144  0.3894 -0.1498  0.3898
  321MOL0     O43208   5.457   4.638  11.075  0.1785  0.1954  0.5121
  321MOL0     C43209   5.576   4.608  10.996  0.2463  0.2478 -0.3945
  321MOL0     C43210   5.601   4.722  10.903 -0.6130  0.2213 -0.0415
  321MOL0     C43211   5.482   4.735  10.802  0.2722 -0.2662  0.2658
  321MOL0     C43212   5.531   4.794  10.667 -0.5381 -0.1948 -0.1608
  321MOL0     C43213   5.426   4.772  10.566 -0.4687  0.4423  0.2724
  321MOL0     C43214   5.476   4.837  10.433  0.2165  0.3842 -1.0185
  321MOL0     C43215   5.368   4.899  10.340  0.3745 -0.0830 -0.0435
  321MOL0     C43216   5.263   4.798  10.290 -0.2021 -0.5633 -0.5530
  321MOL0     N43217   5.148   4.766  10.385 -0.7499  0.0237 -0.6834
  321MOL0     C43218   5.064   4.874  10.442  0.0962  0.3148  0.5656
  321MOL0     C43219   4.981   4.810  10.523 -0.4774 -0.3490  0.0117
  321MOL0     C43220   4.898   4.870  10.626  0.6583 -0.5915 -0.3433
  321MOL0     C43221   4.971   4.876  10.763  0.1517 -0.6336  0.4728
  321MOL0     C43222   5.054   4.756  10.801 -0.4189  0.0609  0.0720
  321MOL0     C43223   4.963   4.638  10.841 -0.3908  0.5971  0.1908
  321MOL0     O43224   5.038   4.533  10.894 -0.6082  1.1522  0.6939
  321MOL0     C43225   4.978   4.414  10.925  0.6881  0.3508  0.1803
  321MOL0     C43226   5.056   4.304  10.936 -0.3652 -0.2856  0.1372
  321MOL0     C43227   5.003   4.180  10.980  0.2790 -0.5636  0.1752
  321MOL0     C43228   5.095   4.060  10.971 -0.5868  0.2877 -0.2752
  321MOL0     C43229   4.864   4.170  11.032  0.0520 -0.6121  0.8534
  321MOL0     C43230   4.790   4.042  11.062  0.9055 -0.3933 -0.9047
  321MOL0     O43231   4.652   4.049  11.081  0.3730  0.4361  0.6284
  321MOL0     C43232   4.582   3.935  11.108 -0.4419 -0.1541 -0.3241
  321MOL0     C43233   4.531   3.904  11.234  0.0372  0.5395 -0.5917
  321MOL0     C43234   4.479   3.777  11.259  0.7895 -0.7826  0.6472
  321MOL0     C43235   4.471   3.672  11.155  0.1857  0.3843 -0.6091
  321MOL0     O43236   4.422   3.541  11.184  0.4536 -0.2336  0.3717
  321MOL0     C43237   4.333   3.517  11.283 -0.2775 -0.7264 -1.1988
  321MOL0     C43238   4.194   3.577  11.244 -0.8487 -0.9415 -1.4700
  321MOL0     C43239   4.154   3.533  11.107 -0.4752 -0.5918 -0.5787
  321MOL0     C43240   3.998   3.550  11.087  0.6532  0.0669  0.2690
  321MOL0     C43241   3.933   3.473  10.966 -0.1392  0.8000  0.8746
  321MOL0     C43242   3.939   3.318  10.988 -0.5712 -0.1736  0.6225
  321MOL0     C43243   3.851   3.249  10.882 -0.8069  0.9550 -0.2592
  321MOL0     C43244   3.814   3.103  10.913  0.0034 -0.6574 -1.4171
  321MOL0    Cl43245   3.726   3.024  10.782 -0.3801 -0.1938  0.3348
  321MOL0     C43246   4.532   3.706  11.037  0.3280  0.5747  0.5569
  321MOL0     C43247   4.580   3.834  11.014 -0.8702  0.8801  1.4817
  321MOL0     O43248   4.852   3.940  11.058  1.0143  0.1496  0.1124
  321MOL0     C43249   4.792   4.287  11.022  1.0372 -0.6356  0.4394
  321MOL0     C43250   4.847   4.408  10.972  0.7460  1.3044  0.3688
  321MOL0     N43251   4.996   4.670  10.492 -0.6225  0.5154 -0.5189
  321MOL0     N43252   5.089   4.651  10.409  0.2029  0.1563 -0.1640
  321MOL0     C43253   5.273   4.520  11.163  0.8158 -0.1127  0.3523
  321MOL0     C43254   5.211   4.400  11.214 -0.0755  0.0154 -0.9935
  321MOL0     C43255   5.217   3.960  11.377 -0.7763  0.4675 -1.0595
  321MOL0     C43256   5.279   3.838  11.389  0.0299 -0.6812  0.6829
  321MOL0     C43257   5.202   3.719  11.372  0.9194  0.2784 -0.4201
  321MOL0     C43258   5.063   3.725  11.344  0.4783  0.7146 -0.0514
  321MOL0     O43259   4.990   3.609  11.338  0.1999  0.2554 -0.4314
  321MOL0     C43260   4.864   3.613  11.258  0.7898 -0.0844  0.2573
  321MOL0     C43261   4.822   3.463  11.271  0.8370 -0.5586  0.0794
  321MOL0     C43262   4.740   3.438  11.401 -0.4144 -0.2988 -0.0529
  321MOL0     C43263   4.737   3.287  11.416 -0.6068  0.8672 -0.1993
  321MOL0     C43264   4.650   3.206  11.332  0.2956  0.3468  0.8953
  321MOL0     C43265   4.578   3.135  11.265 -0.3922  0.6888 -0.4794
  321MOL0     C43266   5.005   3.851  11.345 -0.0965  0.4469 -0.4261
  321MOL0     C43267   5.078   3.970  11.350 -0.2978 -0.0944 -0.7921
  321MOL0     H43268   5.514   4.260  11.314  0.1812  0.6753 -1.1666
  321MOL0     H43269   5.594   4.441  11.200  0.3528 -1.8201 -1.2178
  321MOL0     H43270   5.660   4.594  11.064 -0.5380 -5.0722 -0.1272
  321MOL0     H43271   5.579   4.519  10.932 -0.4106  1.1038 -1.6612
  321MOL0     H43272   5.625   4.818  10.949 -3.3000  1.3393 -0.7844
  321MOL0     H43273   5.690   4.699  10.843 -2.6293 -2.1303 -2.3698
  321MOL0     H43274   5.424   4.644  10.785 -1.6185  0.5785  1.7454
  321MOL0     H43275   5.406   4.798  10.850  2.2999 -0.7254  4.5501
  321MOL0     H43276   5.547   4.902  10.677 -1.6168 -0.2314  4.3747
  321MOL0     H43277   5.622   4.745  10.632 -1.7686 -2.1850 -0.7148
  321MOL0     H43278   5.415   4.665  10.547  0.2660  0.0637  1.8045
  321MOL0     H43279   5.330   4.816  10.596 -1.2137 -2.5495  2.7552
  321MOL0     H43280   5.549   4.917  10.447 -1.0248  1.6182 -1.3021
  321MOL0     H43281   5.537   4.761  10.383  0.0366 -1.7391  1.7302
  321MOL0     H43282   5.311   4.977  10.390  0.1676  0.4307 -1.0484
  321MOL0     H43283   5.413   4.951  10.254  1.2790  1.0985  1.0971
  321MOL0     H43284   5.305   4.703  10.254 -0.6682 -0.4316 -1.5004
  321MOL0     H43285   5.211   4.839  10.202 -1.7361  1.7900  1.3342
  321MOL0     H43286   5.079   4.977  10.412  0.6066 -0.1350 -0.8004
  321MOL0     H43287   4.861   4.969  10.598 -0.4190 -1.0130 -0.4503
  321MOL0     H43288   4.803   4.820  10.647  1.9686 -2.9824  0.2652
  321MOL0     H43289   4.895   4.897  10.839 -0.4208  4.1837 -1.0434
  321MOL0     H43290   5.030   4.968  10.760  0.0610 -0.5858 -2.2343
  321MOL0     H43291   5.126   4.788  10.877 -3.0364  3.2682  1.4884
  321MOL0     H43292   5.112   4.718  10.717 -1.9406 -0.9249 -0.5829
  321MOL0     H43293   4.910   4.600  10.753  0.5064 -1.4485  0.4589
  321MOL0     H43294   4.884   4.656  10.915 -0.8341 -0.2203 -0.0662
  321MOL0     H43295   5.159   4.310  10.902 -0.5914 -0.6393 -0.6391
  321MOL0     H43296   5.111   4.014  11.069 -0.9380 -0.4161 -0.5426
  321MOL0     H43297   5.042   3.993  10.903 -0.5419 -2.3749  2.0979
  321MOL0     H43298   5.192   4.086  10.928  0.1058  1.1113  1.6734
  321MOL0     H43299   4.540   3.972  11.318 -0.6082  3.5321 -2.7692
  321MOL0     H43300   4.443   3.775  11.361  1.2373  0.5985  0.8548
  321MOL0     H43301   4.314   3.410  11.298 -3.2936 -0.0073  1.3136
  321MOL0     H43302   4.354   3.564  11.380 -2.6270  0.9257 -1.4029
  321MOL0     H43303   4.108   3.563  11.309  0.6206  2.7705  1.6755
  321MOL0     H43304   4.212   3.684  11.254  4.6919 -1.7694  2.0556
  321MOL0     H43305   4.166   3.425  11.112  2.5432 -0.3215 -0.2706
  321MOL0     H43306   4.202   3.579  11.020 -1.3597 -1.3420 -1.4916
  321MOL0     H43307   3.958   3.498  11.175  2.5201 -1.2428  0.4116
  321MOL0     H43308   3.969   3.655  11.083 -0.0376 -0.1499 -1.4494
  321MOL0     H43309   3.981   3.489  10.869  3.2417 -1.8797  1.9132
  321MOL0     H43310   3.831   3.511  10.971 -0.0589  0.9254  1.6866
  321MOL0     H43311   4.043   3.285  10.975 -1.2738 -1.7030 -1.9070
  321MOL0     H43312   3.902   3.293  11.087  1.9172  0.6267  1.8369
  321MOL0     H43313   3.911   3.239  10.791 -1.2683  1.7793 -0.6721
  321MOL0     H43314   3.761   3.310  10.868 -0.2677  2.0426  0.7287
  321MOL0     H43315   3.745   3.108  10.998 -0.3391 -0.4227 -1.7085
  321MOL0     H43316   3.906   3.049  10.940  0.1969  1.4368  2.8825
  321MOL0     H43317   4.538   3.630  10.959 -2.7184  2.1883 -1.4469
  321MOL0     H43318   4.630   3.861  10.921  2.0460  0.3726  2.7720
  321MOL0     H43319   4.689   4.283  11.057  1.0816 -0.9639  0.5352
  321MOL0     H43320   4.780   4.493  10.960  0.6030  0.9696 -1.7398
  321MOL0     H43321   5.220   4.607  11.126 -0.0168 -0.2046  1.3092
  321MOL0     H43322   5.103   4.391  11.217 -0.0006 -1.5370  2.8687
  321MOL0     H43323   5.382   3.830  11.423  1.3990  0.6411 -2.6838
  321MOL0     H43324   5.250   3.627  11.405 -0.2545  0.4206  1.8364
  321MOL0     H43325   4.798   3.682  11.312  2.0384  2.2276 -0.9840
  321MOL0     H43326   4.876   3.643  11.154 -1.8515  0.9480  0.1662
  321MOL0     H43327   4.917   3.410  11.259  1.2039  0.2378 -0.6029
  321MOL0     H43328   4.754   3.436  11.191  0.0929 -2.8997  1.4033
  321MOL0     H43329   4.638   3.478  11.404 -0.4264 -0.3190 -0.1792
  321MOL0     H43330   4.798   3.489  11.479 -1.0958  0.7834 -0.2310
  321MOL0     H43331   4.711   3.260  11.519 -2.0124  0.0992 -0.7285
  321MOL0     H43332   4.838   3.247  11.399 -0.8024 -0.0124  0.5573
  321MOL0     H43333   4.549   3.062  11.193 -0.8769  0.3752  0.0241
  321MOL0     H43334   4.904   3.854  11.305  0.3663 -0.7928 -1.7705
  321MOL0     H43335   5.024   4.063  11.355 -1.5185 -0.8489  2.4934
  322MOL0     O43336   9.484   2.652   3.133 -0.9167 -0.1661  0.3806
  322MOL0     C43337   9.449   2.610   3.243 -0.2056  0.2719  0.0263
  322MOL0     O43338   9.435   2.677   3.357  0.2562 -0.3724 -0.3495
  322MOL0     C43339   9.497   2.796   3.384  0.5788 -0.5015  0.7760
  322MOL0     C43340   9.597   2.802   3.480  0.6555  0.1621 -1.3344
  322MOL0     C43341   9.655   2.932   3.516  0.1380  0.4363 -0.3414
  322MOL0     C43342   9.613   3.049   3.456  0.3699  0.1381 -1.7197
  322MOL0     O43343   9.674   3.159   3.508  0.4774  0.1193  0.4600
  322MOL0     C43344   9.646   3.290   3.442 -0.5068 -0.5937 -0.0310
  322MOL0     C43345   9.587   3.390   3.544  0.1155  0.1018  0.2825
  322MOL0     C43346   9.442   3.352   3.572 -0.0652  0.8255  0.7311
  322MOL0     C43347   9.389   3.450   3.680 -0.5608 -0.1361 -0.1841
  322MOL0     C43348   9.358   3.596   3.644 -0.5571 -0.6027 -0.1328
  322MOL0     C43349   9.254   3.600   3.530  0.4798 -0.7827  1.0600
  322MOL0     C43350   9.209   3.737   3.507 -0.4451 -0.1949  0.1613
  322MOL0     C43351   9.099   3.791   3.603 -0.2317 -0.4616  0.0592
  322MOL0     N43352   9.157   3.864   3.716 -0.5772  0.4632  0.4245
  322MOL0     C43353   9.234   3.976   3.709 -0.8615 -0.2041  0.6821
  322MOL0     C43354   9.266   3.997   3.837 -0.5009 -0.5349  0.1286
  322MOL0     C43355   9.356   4.097   3.887 -0.4510  0.4311  0.1841
  322MOL0     C43356   9.313   4.166   4.012  0.8890  0.6765 -0.4925
  322MOL0     C43357   9.395   4.284   4.062  0.0931 -1.2412 -0.0596
  322MOL0     C43358   9.387   4.299   4.221  0.2881 -1.0789  0.2831
  322MOL0     O43359   9.487   4.397   4.261  0.3519  1.0503 -0.5734
  322MOL0     C43360   9.498   4.425   4.396  0.9814 -0.1020 -1.0754
  322MOL0     C43361   9.403   4.498   4.468 -0.6504  0.0462 -0.6084
  322MOL0     C43362   9.413   4.524   4.612 -0.4473 -0.1915  0.6840
  322MOL0     C43363   9.295   4.596   4.676 -0.0410 -0.0702  0.2947
  322MOL0     C43364   9.520   4.466   4.686 -0.7048  0.8354 -0.5220
  322MOL0     C43365   9.534   4.483   4.835  0.1058  0.2278  0.8572
  322MOL0     O43366   9.638   4.398   4.879 -0.0901  0.7906  1.0460
  322MOL0     C43367   9.637   4.349   5.010 -0.5877  0.4931 -0.4330
  322MOL0     C43368   9.711   4.236   5.036  0.8699  0.1641  0.0598
  322MOL0     C43369   9.719   4.176   5.164  0.4787 -0.3264 -0.3382
  322MOL0     C43370   9.666   4.237   5.270 -0.0911 -1.1547 -0.6635
  322MOL0     O43371   9.677   4.178   5.388 -0.5287 -0.0133 -0.6734
  322MOL0     C43372   9.633   4.247   5.509  0.5871 -0.2869 -0.8751
  322MOL0     C43373   9.497   4.190   5.554 -0.0272  0.0655 -0.4639
  322MOL0     C43374   9.432   4.264   5.679 -1.6474 -0.2767  0.1375
  322MOL0     C43375   9.289   4.230   5.694 -0.3463  0.8980 -0.0405
  322MOL0     C43376   9.219   4.286   5.816 -0.1475  0.4033 -1.4917
  322MOL0     C43377   9.256   4.433   5.839 -0.2932  0.1242 -0.4192
  322MOL0     C43378   9.190   4.493   5.954 -0.3883 -0.8407 -0.9490
  322MOL0     C43379   9.036   4.495   5.940  0.1125  0.6133  1.1623
  322MOL0    Cl43380   8.971   4.581   5.792  0.3200  0.3902  0.8853
  322MOL0     C43381   9.582   4.342   5.242  0.6369  0.4241 -0.0811
  322MOL0     C43382   9.575   4.403   5.120  0.4005 -0.5820 -1.5617
  322MOL0     O43383   9.467   4.557   4.907  0.8115  0.6022  0.3774
  322MOL0     C43384   9.619   4.391   4.604 -0.1157 -0.0978 -0.7378
  322MOL0     C43385   9.609   4.374   4.461 -0.0557  0.3075 -0.6196
  322MOL0     N43386   9.204   3.906   3.922  0.0511  0.3191  0.4109
  322MOL0     N43387   9.139   3.828   3.846  0.1863  0.2083  0.6038
  322MOL0     C43388   9.509   3.040   3.361 -0.1404  0.6092  0.4392
  322MOL0     C43389   9.454   2.913   3.326  0.6310  0.7507  0.7816
  322MOL0     C43390   9.389   2.466   3.255  0.3556 -0.6101  0.9211
  322MOL0     C43391   9.333   2.409   3.371 -0.4989 -1.0881 -0.0651
  322MOL0     C43392   9.278   2.277   3.384 -0.9138 -0.0484 -0.9131
  322MOL0     C43393   9.279   2.198   3.270  0.2205  0.0370  0.0923
  322MOL0     O43394   9.227   2.068   3.270  0.5244  0.1398  0.0909
  322MOL0     C43395   9.326   1.966   3.308 -0.1010 -0.6794  0.5104
  322MOL0     C43396   9.247   1.856   3.353 -0.0873  1.3774  0.2643
  322MOL0     C43397   9.129   1.817   3.260  0.0560 -0.6896 -0.2154
  322MOL0     C43398   9.054   1.698   3.315 -0.9348 -0.2005  0.7342
  322MOL0     C43399   9.132   1.570   3.324  0.7004  0.5688  0.0905
  322MOL0     C43400   9.195   1.465   3.325 -0.3880  0.1720 -0.7395
  322MOL0     C43401   9.347   2.246   3.159 -0.6327  0.1943  0.1647
  322MOL0     C43402   9.402   2.375   3.156  1.8926  0.2071  0.0592
  322MOL0     H43403   9.636   2.709   3.518 -0.4963 -0.3950 -1.4528
  322MOL0     H43404   9.722   2.932   3.601 -0.5936  0.9022  0.2570
  322MOL0     H43405   9.737   3.339   3.407 -2.3705  3.6845  0.4708
  322MOL0     H43406   9.579   3.274   3.357 -2.7378  0.1373  1.5159
  322MOL0     H43407   9.645   3.400   3.637 -0.7374  1.2202  0.7271
  322MOL0     H43408   9.597   3.490   3.501  1.0748  0.6125  1.6309
  322MOL0     H43409   9.375   3.353   3.486 -0.1334 -4.5858  0.4245
  322MOL0     H43410   9.440   3.248   3.605  0.9337  0.5154 -0.1267
  322MOL0     H43411   9.293   3.420   3.724 -0.4803 -1.0098 -0.5922
  322MOL0     H43412   9.454   3.454   3.768  0.9524 -0.6503 -1.2249
  322MOL0     H43413   9.324   3.651   3.732  2.8861  1.7245 -0.0557
  322MOL0     H43414   9.445   3.659   3.624 -1.6912  2.2649  3.0316
  322MOL0     H43415   9.298   3.557   3.439 -0.0255 -0.5703  0.7121
  322MOL0     H43416   9.163   3.540   3.539  0.1911 -2.1272 -5.4918
  322MOL0     H43417   9.286   3.814   3.509 -3.2667  2.7949  0.9266
  322MOL0     H43418   9.164   3.735   3.408 -2.6571  3.8505  0.8847
  322MOL0     H43419   9.025   3.717   3.633  1.5057 -2.0939  0.5213
  322MOL0     H43420   9.049   3.872   3.550 -0.7220  0.1231  1.3641
  322MOL0     H43421   9.268   4.034   3.623  0.3216 -0.1684  1.1531
  322MOL0     H43422   9.455   4.052   3.895 -1.2568 -1.8744 -1.6446
  322MOL0     H43423   9.370   4.165   3.802 -0.1971 -0.5109 -0.5517
  322MOL0     H43424   9.298   4.091   4.091 -0.9446 -0.8393 -2.1856
  322MOL0     H43425   9.212   4.205   3.999  0.5628  1.4188  3.1202
  322MOL0     H43426   9.358   4.375   4.015  2.4045 -0.0076  0.3609
  322MOL0     H43427   9.497   4.279   4.024  0.2113  4.0797 -1.2411
  322MOL0     H43428   9.401   4.201   4.266 -4.0411 -1.6039  0.9941
  322MOL0     H43429   9.286   4.322   4.257 -0.4247 -2.6397 -0.6413
  322MOL0     H43430   9.317   4.522   4.407 -1.6719 -1.7332  0.0670
  322MOL0     H43431   9.253   4.546   4.764 -1.6731 -0.7237 -0.8136
  322MOL0     H43432   9.331   4.695   4.705 -0.5938  0.7149 -1.5696
  322MOL0     H43433   9.216   4.601   4.600 -1.1814 -4.0723  0.9855
  322MOL0     H43434   9.761   4.190   4.951 -0.0759 -1.9905  0.6074
  322MOL0     H43435   9.769   4.081   5.183 -2.9284 -2.1356  0.3118
  322MOL0     H43436   9.704   4.235   5.591 -0.8357  3.9624  1.3014
  322MOL0     H43437   9.615   4.352   5.485  1.0870 -0.0612 -0.2986
  322MOL0     H43438   9.430   4.209   5.469 -0.0521 -1.4815 -0.8118
  322MOL0     H43439   9.496   4.082   5.569  0.0384  0.3646  2.3085
  322MOL0     H43440   9.455   4.369   5.657  0.1272 -0.7503 -0.4656
  322MOL0     H43441   9.489   4.254   5.772 -4.0838  3.2278  2.2548
  322MOL0     H43442   9.236   4.270   5.607 -1.8489 -0.3786  0.2308
  322MOL0     H43443   9.278   4.121   5.694 -1.4397  0.9748  0.9313
  322MOL0     H43444   9.245   4.228   5.905  0.2025 -0.3117 -2.0471
  322MOL0     H43445   9.112   4.267   5.801  0.2485 -2.3484 -1.3871
  322MOL0     H43446   9.365   4.438   5.835 -0.3490  0.5650 -2.4935
  322MOL0     H43447   9.237   4.479   5.742  0.8786  2.1163  0.2526
  322MOL0     H43448   9.227   4.596   5.962  1.5312 -0.9178 -5.6395
  322MOL0     H43449   9.225   4.444   6.045 -1.3323 -0.8441 -0.5718
  322MOL0     H43450   8.976   4.541   6.020 -0.6206  1.4383  0.1712
  322MOL0     H43451   9.011   4.389   5.939 -0.8555  0.8041 -1.5397
  322MOL0     H43452   9.509   4.381   5.312  1.1224 -0.2967  0.8498
  322MOL0     H43453   9.501   4.482   5.112  0.1914 -0.6029 -0.1191
  322MOL0     H43454   9.693   4.337   4.663 -0.6359 -0.2460 -0.2178
  322MOL0     H43455   9.662   4.290   4.417 -0.3393 -0.6969  0.8549
  322MOL0     H43456   9.471   3.127   3.309  1.2457 -1.1637 -4.0668
  322MOL0     H43457   9.370   2.901   3.259  0.9449 -1.5056  0.7099
  322MOL0     H43458   9.317   2.475   3.456  1.5721  0.2517 -0.6207
  322MOL0     H43459   9.234   2.250   3.480  1.4460  1.2032  0.6152
  322MOL0     H43460   9.388   1.940   3.221  0.8978 -0.2002  1.0667
  322MOL0     H43461   9.392   2.009   3.384  0.2817  3.2975 -1.7847
  322MOL0     H43462   9.194   1.889   3.443 -1.7953  2.9920 -1.2436
  322MOL0     H43463   9.317   1.774   3.368  0.9027  1.5788 -2.6372
  322MOL0     H43464   9.164   1.803   3.158  1.1172  1.4153 -0.2068
  322MOL0     H43465   9.061   1.903   3.256  1.2747  0.2664 -0.8737
  322MOL0     H43466   8.957   1.683   3.266 -1.3930  1.1835  1.1573
  322MOL0     H43467   9.033   1.716   3.422 -0.6884 -1.2854  0.9725
  322MOL0     H43468   9.242   1.368   3.325  1.5313  1.0564 -0.5452
  322MOL0     H43469   9.370   2.173   3.082 -0.0991 -0.5577  1.0200
  322MOL0     H43470   9.434   2.403   3.056 -2.6563  2.3016 -1.0916
  323MOL0     O43471   6.702   1.112   5.238  0.2903 -0.3383  0.0929
  323MOL0     C43472   6.790   1.053   5.302  0.8541  0.1543  0.2633
  323MOL0     O43473   6.777   1.002   5.426  0.0942 -0.3315 -0.0816
  323MOL0     C43474   6.661   1.032   5.490 -0.8873 -0.7146 -0.4354
  323MOL0     C43475   6.647   1.146   5.557 -0.7363  0.0622  0.7732
  323MOL0     C43476   6.537   1.172   5.628 -0.1448 -0.0506  0.0302
  323MOL0     C43477   6.432   1.085   5.638  0.9745  0.2095 -0.0683
  323MOL0     O43478   6.321   1.131   5.706  0.2991 -0.5307  0.1060
  323MOL0     C43479   6.254   1.041   5.789  0.2744  0.5443  0.1909
  323MOL0     C43480   6.177   1.104   5.907 -0.9357 -0.8037  0.0349
  323MOL0     C43481   6.088   1.230   5.875  0.8034  0.2460 -0.5750
  323MOL0     C43482   6.057   1.296   6.018  0.1094 -0.5107  0.2358
  323MOL0     C43483   5.955   1.412   6.006  1.4424  0.0135  0.2333
  323MOL0     C43484   6.021   1.528   5.939 -0.3021 -0.0127  0.2403
  323MOL0     C43485   5.929   1.654   5.918 -0.3031 -0.7215 -0.9509
  323MOL0     C43486   5.919   1.731   6.049  0.4348 -0.8161 -0.9053
  323MOL0     N43487   5.811   1.836   6.044  0.1205  0.0213 -0.4561
  323MOL0     C43488   5.793   1.937   5.948  1.2118  0.4897  1.1371
  323MOL0     C43489   5.702   2.016   5.997  0.0590 -0.2252 -0.7773
  323MOL0     C43490   5.644   2.142   5.933 -0.3259 -0.3013 -0.4290
  323MOL0     C43491   5.524   2.119   5.854  0.8028  0.2407 -0.3012
  323MOL0     C43492   5.393   2.103   5.933 -0.4535  0.0483 -0.1786
  323MOL0     C43493   5.274   2.081   5.841 -0.2656  0.2765  0.2419
  323MOL0     O43494   5.232   2.200   5.776 -0.7478  0.1577  0.4757
  323MOL0     C43495   5.103   2.236   5.774 -0.1013  0.3912  0.0123
  323MOL0     C43496   5.074   2.357   5.702  0.4147 -0.1741 -0.1076
  323MOL0     C43497   4.945   2.419   5.710 -0.3348  0.5570 -0.3467
  323MOL0     C43498   4.947   2.560   5.662 -0.0580  0.1628 -0.1326
  323MOL0     C43499   4.845   2.353   5.789 -0.2025  0.0573 -0.2911
  323MOL0     C43500   4.707   2.404   5.796 -0.1516 -0.4674  0.5813
  323MOL0     O43501   4.606   2.321   5.841  0.1610 -0.1525 -1.0089
  323MOL0     C43502   4.475   2.351   5.804  0.1845 -0.8740 -0.1932
  323MOL0     C43503   4.378   2.377   5.910  0.5436 -0.5662  0.2354
  323MOL0     C43504   4.248   2.406   5.881  1.0701 -0.1794 -0.7957
  323MOL0     C43505   4.205   2.426   5.747  0.6984 -0.3031  0.1572
  323MOL0     O43506   4.081   2.461   5.707 -0.2682 -0.4879  0.2986
  323MOL0     C43507   3.982   2.501   5.801  0.2868  0.8376 -0.2370
  323MOL0     C43508   3.854   2.547   5.730  0.2545 -0.9132  0.5778
  323MOL0     C43509   3.798   2.433   5.638 -0.0936  0.4802  0.2330
  323MOL0     C43510   3.671   2.483   5.555  0.1604  0.2852 -0.1417
  323MOL0     C43511   3.630   2.390   5.441 -0.6194 -0.2887 -0.2131
  323MOL0     C43512   3.721   2.391   5.311  0.2987 -0.0333 -1.6217
  323MOL0     C43513   3.685   2.291   5.204  0.3345  0.2727  1.8205
  323MOL0     C43514   3.539   2.300   5.152  0.6480 -0.4709 -0.5572
  323MOL0    Cl43515   3.521   2.181   5.029  0.6080  0.2195  0.4848
  323MOL0     C43516   4.299   2.404   5.646  0.0052 -0.0311 -0.4937
  323MOL0     C43517   4.432   2.366   5.671  0.2729  0.4062  0.2691
  323MOL0     O43518   4.683   2.508   5.740  0.1629 -0.2926 -0.2257
  323MOL0     C43519   4.864   2.224   5.838 -0.6687  0.1190 -0.8851
  323MOL0     C43520   4.991   2.167   5.830  0.2532  0.0745  0.8068
  323MOL0     N43521   5.674   1.969   6.127  0.5963  0.1533 -0.2145
  323MOL0     N43522   5.732   1.857   6.154 -0.5386 -0.2286  0.0702
  323MOL0     C43523   6.445   0.955   5.577  1.4807 -0.5686 -1.5812
  323MOL0     C43524   6.560   0.938   5.497 -0.5935  0.2412  0.3839
  323MOL0     C43525   6.914   1.039   5.232 -0.5838 -0.7101  0.0874
  323MOL0     C43526   7.004   0.939   5.266  0.0248 -0.2246  0.6093
  323MOL0     C43527   7.127   0.912   5.206  0.5416 -0.3610  0.5260
  323MOL0     C43528   7.163   0.985   5.088  0.4126 -0.4396  0.0340
  323MOL0     O43529   7.288   0.957   5.038 -0.1506  0.1623  0.2105
  323MOL0     C43530   7.327   1.019   4.925  0.3210 -0.5945 -0.6505
  323MOL0     C43531   7.260   0.956   4.802  0.4434  0.3786 -0.2689
  323MOL0     C43532   7.267   0.799   4.785 -0.7846 -0.7622 -0.1984
  323MOL0     C43533   7.177   0.758   4.675 -0.5527  0.7315  0.1261
  323MOL0     C43534   7.134   0.618   4.693  0.4390  0.2637 -0.5649
  323MOL0     C43535   7.102   0.504   4.712 -1.4216  0.2719  0.4247
  323MOL0     C43536   7.070   1.080   5.038 -0.0630  0.7254 -0.2914
  323MOL0     C43537   6.952   1.104   5.105  0.7017  1.0025 -0.0492
  323MOL0     H43538   6.726   1.220   5.546  0.1184 -0.8114  0.9231
  323MOL0     H43539   6.528   1.276   5.659  2.2180  0.7844 -1.7543
  323MOL0     H43540   6.182   0.990   5.725  0.3959 -0.0501  0.5229
  323MOL0     H43541   6.323   0.971   5.838 -2.3557  0.7433  4.7669
  323MOL0     H43542   6.119   1.024   5.954 -4.2857  0.9561 -0.7393
  323MOL0     H43543   6.248   1.142   5.980 -1.6944  0.4703  0.1345
  323MOL0     H43544   6.149   1.293   5.810  0.2309  1.1145 -0.2764
  323MOL0     H43545   5.998   1.187   5.831  0.8710 -0.3799 -0.1156
  323MOL0     H43546   6.022   1.221   6.090 -0.0951  1.5339  2.3969
  323MOL0     H43547   6.150   1.346   6.048  0.1996  1.7773 -3.2277
  323MOL0     H43548   5.862   1.381   5.957 -0.4916  3.2808  1.5833
  323MOL0     H43549   5.917   1.436   6.105 -0.9460 -3.2443  0.2742
  323MOL0     H43550   6.111   1.550   5.998 -1.3409  2.4705  1.0447
  323MOL0     H43551   6.049   1.497   5.838  0.1103  4.2743 -1.1861
  323MOL0     H43552   5.969   1.718   5.839 -3.8370  2.8987 -0.1128
  323MOL0     H43553   5.834   1.629   5.871 -0.4900 -0.9528 -0.4614
  323MOL0     H43554   6.017   1.777   6.062 -0.7383  1.3940  0.6763
  323MOL0     H43555   5.896   1.667   6.134 -0.3326  1.2716  0.5255
  323MOL0     H43556   5.827   1.946   5.845 -1.6332  0.7392  0.1200
  323MOL0     H43557   5.635   2.226   6.003 -1.1881  1.1168 -2.1660
  323MOL0     H43558   5.715   2.177   5.857  0.0195  0.3072  0.1625
  323MOL0     H43559   5.536   2.023   5.802  0.1717  0.4802 -0.9080
  323MOL0     H43560   5.510   2.198   5.780  1.9154 -1.0183 -1.9382
  323MOL0     H43561   5.364   2.198   5.980  1.8221  0.6970  0.0082
  323MOL0     H43562   5.397   2.028   6.013  0.0262  2.1482  1.8748
  323MOL0     H43563   5.196   2.032   5.899  1.1906 -2.3526  0.1099
  323MOL0     H43564   5.305   2.015   5.759  0.7017  0.2245  0.6380
  323MOL0     H43565   5.151   2.401   5.640  0.0350  2.6562  1.2952
  323MOL0     H43566   4.927   2.627   5.746  0.6902 -0.0352  0.2138
  323MOL0     H43567   5.043   2.582   5.616 -0.1331 -0.6964 -0.7146
  323MOL0     H43568   4.875   2.588   5.584 -0.7033  1.9192  1.0326
  323MOL0     H43569   4.411   2.387   6.013  0.4181  2.4971  0.0544
  323MOL0     H43570   4.181   2.422   5.965 -0.6391 -1.4627 -1.8619
  323MOL0     H43571   3.950   2.410   5.851  1.1049 -0.9050 -2.6789
  323MOL0     H43572   4.007   2.585   5.866 -0.1750  4.8761 -4.6810
  323MOL0     H43573   3.785   2.579   5.809 -0.4476  0.8398 -0.6732
  323MOL0     H43574   3.864   2.637   5.669 -2.7611 -0.3039  0.8281
  323MOL0     H43575   3.779   2.348   5.704 -0.1463  0.9999  0.8967
  323MOL0     H43576   3.879   2.408   5.569  1.5072  0.5608  1.9992
  323MOL0     H43577   3.583   2.471   5.619  0.6918 -0.2420  0.5042
  323MOL0     H43578   3.685   2.589   5.532  1.4216 -0.5193 -3.6624
  323MOL0     H43579   3.528   2.397   5.401  0.1379 -0.0766 -2.2555
  323MOL0     H43580   3.641   2.286   5.473  1.6486 -0.2105 -0.6218
  323MOL0     H43581   3.694   2.480   5.254 -5.1385 -0.1354  0.2503
  323MOL0     H43582   3.825   2.383   5.343 -0.4858 -1.9585  0.8039
  323MOL0     H43583   3.701   2.185   5.221 -1.8446 -0.3134  0.6681
  323MOL0     H43584   3.751   2.332   5.127  1.9770 -3.4779  1.0558
  323MOL0     H43585   3.504   2.401   5.128 -5.6075 -2.3084 -1.0223
  323MOL0     H43586   3.472   2.262   5.230  0.7272 -0.1919 -0.3500
  323MOL0     H43587   4.266   2.415   5.544  0.1214  0.4071 -0.4865
  323MOL0     H43588   4.506   2.357   5.592  0.6807  0.7532  0.6072
  323MOL0     H43589   4.780   2.175   5.885 -0.6333  1.7605  1.0174
  323MOL0     H43590   4.983   2.071   5.881 -2.2090 -1.3789 -2.0502
  323MOL0     H43591   6.368   0.879   5.587  2.0911 -0.9297  1.1904
  323MOL0     H43592   6.593   0.843   5.456  1.1575 -0.5528  3.3035
  323MOL0     H43593   6.984   0.871   5.349 -1.8161 -0.9730 -0.3724
  323MOL0     H43594   7.193   0.843   5.256  2.9710  1.3073 -0.1903
  323MOL0     H43595   7.289   1.122   4.933 -1.0335 -0.9994 -1.4708
  323MOL0     H43596   7.434   1.036   4.909  0.5139  1.6657  2.2555
  323MOL0     H43597   7.303   1.006   4.715 -2.3644 -0.4308 -2.2911
  323MOL0     H43598   7.152   0.975   4.801  0.3371 -0.1528 -1.7234
  323MOL0     H43599   7.219   0.753   4.872 -2.5632 -3.9551 -2.6811
  323MOL0     H43600   7.368   0.761   4.767 -0.9995 -1.0712 -0.7792
  323MOL0     H43601   7.236   0.771   4.584  3.8342 -0.6207  2.4610
  323MOL0     H43602   7.084   0.816   4.669 -0.1010  1.4674  0.0657
  323MOL0     H43603   7.078   0.400   4.718  0.9750 -0.2707  1.8721
  323MOL0     H43604   7.088   1.135   4.946  0.5071 -2.8827 -2.5225
  323MOL0     H43605   6.886   1.173   5.052 -1.6156 -2.0599 -1.4374
  324MOL0     O43606   9.434   6.297   6.336  0.4332 -0.2393  0.2713
  324MOL0     C43607   9.326   6.364   6.355 -0.7424  0.5305 -0.1619
  324MOL0     O43608   9.253   6.433   6.262  0.2475  0.1805  0.0374
  324MOL0     C43609   9.307   6.413   6.138  0.1409  0.0607  0.2011
  324MOL0     C43610   9.417   6.478   6.088  0.5742 -0.4302  0.0752
  324MOL0     C43611   9.463   6.458   5.957 -0.0098 -0.0860  0.9033
  324MOL0     C43612   9.391   6.364   5.875 -0.7743  0.1268 -0.2743
  324MOL0     O43613   9.426   6.330   5.744  0.0971 -0.3910  0.6529
  324MOL0     C43614   9.539   6.388   5.669 -0.1142 -0.0922  0.1471
  324MOL0     C43615   9.651   6.302   5.722 -0.7443 -0.2923  0.1298
  324MOL0     C43616   9.650   6.154   5.665  0.8097 -0.3386  0.2372
  324MOL0     C43617   9.667   6.139   5.523 -0.4394 -0.4435 -0.3553
  324MOL0     C43618   9.679   5.986   5.488 -0.5579  0.0339 -0.2315
  324MOL0     C43619   9.535   5.916   5.514 -0.3004  0.5611  0.1644
  324MOL0     C43620   9.548   5.763   5.506  0.1248 -0.4591  0.1831
  324MOL0     C43621   9.419   5.689   5.481 -0.1786  0.2311  1.0390
  324MOL0     N43622   9.437   5.544   5.485  0.6017 -0.7960 -0.3213
  324MOL0     C43623   9.361   5.451   5.557 -0.1712  1.1504 -0.1177
  324MOL0     C43624   9.396   5.328   5.494 -1.2651 -0.2435 -0.4119
  324MOL0     C43625   9.349   5.200   5.545  0.5987  0.6325 -0.4267
  324MOL0     C43626   9.256   5.129   5.451 -0.1821  0.1811 -0.2240
  324MOL0     C43627   9.111   5.195   5.464 -0.4264  0.0077  0.6882
  324MOL0     C43628   9.006   5.120   5.381 -0.2398  0.0958 -0.2039
  324MOL0     O43629   8.970   4.991   5.436  0.1486  0.0405 -0.6836
  324MOL0     C43630   9.017   4.874   5.391 -0.9462 -0.1009  0.1973
  324MOL0     C43631   9.070   4.850   5.261  0.0229 -0.1605  0.0969
  324MOL0     C43632   9.123   4.736   5.221  0.3339 -0.2032  0.7549
  324MOL0     C43633   9.176   4.734   5.078 -0.5573 -0.5797 -1.4558
  324MOL0     C43634   9.141   4.630   5.314  0.8068 -0.6526 -0.8690
  324MOL0     C43635   9.203   4.499   5.281 -0.1238  0.9785 -0.3024
  324MOL0     O43636   9.159   4.436   5.174 -0.1005  0.2063  0.0119
  324MOL0     C43637   9.217   4.317   5.143 -0.6438 -0.4869  0.4172
  324MOL0     C43638   9.248   4.296   5.005  0.1016  0.5776 -0.3459
  324MOL0     C43639   9.299   4.185   4.953 -0.7935  0.6134  0.5546
  324MOL0     C43640   9.337   4.076   5.039  0.3431  0.7207 -0.0596
  324MOL0     O43641   9.389   3.957   4.998  0.4785  0.4068 -0.0863
  324MOL0     C43642   9.517   3.970   4.949  0.4455  0.0930  0.2824
  324MOL0     C43643   9.540   3.874   4.835 -0.4551  0.0749  0.5047
  324MOL0     C43644   9.445   3.893   4.713 -0.3691 -0.0116  0.1189
  324MOL0     C43645   9.505   3.803   4.604  0.2587 -0.9789 -0.0674
  324MOL0     C43646   9.427   3.830   4.471  0.6269 -0.2073  0.0227
  324MOL0     C43647   9.513   3.764   4.368 -0.0250  0.9503 -0.9317
  324MOL0     C43648   9.458   3.764   4.224 -0.1838  0.2832  0.3664
  324MOL0     C43649   9.518   3.660   4.127  0.1282  0.9535  0.8824
  324MOL0    Cl43650   9.437   3.652   3.971  0.3277 -0.0269  0.4822
  324MOL0     C43651   9.321   4.099   5.175 -0.0322 -0.0125 -0.4230
  324MOL0     C43652   9.267   4.217   5.227  0.4282  0.6984 -0.5407
  324MOL0     O43653   9.278   4.456   5.369 -0.0198  0.0548 -0.3991
  324MOL0     C43654   9.095   4.652   5.452  0.8601  0.1998  0.5053
  324MOL0     C43655   9.031   4.768   5.485  0.3842 -0.7038  0.7765
  324MOL0     N43656   9.475   5.350   5.383 -0.3128 -0.1958 -0.4596
  324MOL0     N43657   9.491   5.477   5.380  0.2764 -0.4449 -0.4552
  324MOL0     C43658   9.290   6.292   5.925 -0.5025  0.0293  0.5027
  324MOL0     C43659   9.235   6.322   6.050 -0.9178 -0.2235 -0.7420
  324MOL0     C43660   9.286   6.384   6.490 -0.3836 -0.2448 -0.2031
  324MOL0     C43661   9.338   6.310   6.601  0.7292  1.0535 -0.7235
  324MOL0     C43662   9.295   6.320   6.737  0.1895 -0.5505  0.9709
  324MOL0     C43663   9.203   6.414   6.764  0.1144  0.5123 -0.5268
  324MOL0     O43664   9.171   6.421   6.895 -0.9610 -0.3719  0.4242
  324MOL0     C43665   9.135   6.544   6.958  0.2334  1.0123  0.2563
  324MOL0     C43666   9.265   6.630   6.971  0.5813  0.0813  0.0576
  324MOL0     C43667   9.374   6.543   7.037  0.6746  0.3619  0.0480
  324MOL0     C43668   9.466   6.624   7.127 -1.1354  0.1937  0.4823
  324MOL0     C43669   9.534   6.746   7.070  0.7014  1.7046 -0.3583
  324MOL0     C43670   9.581   6.851   7.030 -0.9557  1.0499  0.8361
  324MOL0     C43671   9.151   6.490   6.662  0.5820 -0.0366  0.3309
  324MOL0     C43672   9.187   6.483   6.525  0.8635 -0.3398 -0.2900
  324MOL0     H43673   9.464   6.550   6.155 -0.5735 -0.4832  0.9701
  324MOL0     H43674   9.542   6.523   5.919 -0.1543  2.1880  4.0697
  324MOL0     H43675   9.511   6.364   5.566 -2.1135 -0.4736  0.7303
  324MOL0     H43676   9.559   6.495   5.670  2.1008 -0.4718 -0.1527
  324MOL0     H43677   9.746   6.329   5.675  0.5676 -2.0722  1.6361
  324MOL0     H43678   9.661   6.293   5.831 -1.6829 -3.3416  0.0679
  324MOL0     H43679   9.723   6.099   5.726 -1.2729 -1.5757  1.7774
  324MOL0     H43680   9.555   6.118   5.705 -0.5825  0.7642 -1.9100
  324MOL0     H43681   9.591   6.187   5.460  0.5890 -0.0423 -1.3279
  324MOL0     H43682   9.763   6.179   5.491  0.7441 -2.7774  0.0339
  324MOL0     H43683   9.724   5.979   5.389  3.1602  0.8396  1.2299
  324MOL0     H43684   9.759   5.933   5.542  0.4323 -1.6713 -3.1809
  324MOL0     H43685   9.485   5.951   5.605  0.9185  1.2371  0.5969
  324MOL0     H43686   9.466   5.945   5.434 -0.3998  2.5693  0.9087
  324MOL0     H43687   9.616   5.749   5.422 -1.8952 -0.7741 -1.4770
  324MOL0     H43688   9.592   5.736   5.602  0.8159 -2.5302 -0.6563
  324MOL0     H43689   9.390   5.717   5.379  1.0113  0.3066  0.6999
  324MOL0     H43690   9.342   5.726   5.549  0.5265 -0.4114  2.2248
  324MOL0     H43691   9.295   5.469   5.641 -0.9924  0.8431 -0.6893
  324MOL0     H43692   9.442   5.142   5.549  0.3765  0.1972 -1.3231
  324MOL0     H43693   9.299   5.205   5.641  2.9852  0.6715  0.8962
  324MOL0     H43694   9.240   5.031   5.496  0.7454  0.6914  1.2880
  324MOL0     H43695   9.286   5.113   5.347 -0.8901  3.6782 -1.1033
  324MOL0     H43696   9.107   5.296   5.422 -0.0322 -0.9690 -1.8311
  324MOL0     H43697   9.073   5.193   5.567 -2.2689 -2.2907  0.0446
  324MOL0     H43698   9.032   5.109   5.276  2.2092 -1.3706  0.4768
  324MOL0     H43699   8.917   5.182   5.399  1.1823  1.8554  1.1540
  324MOL0     H43700   9.058   4.926   5.185  0.6968 -0.1575 -0.0070
  324MOL0     H43701   9.172   4.635   5.033 -1.1371 -1.1650 -0.1799
  324MOL0     H43702   9.118   4.812   5.028  2.8010  2.9639 -0.2818
  324MOL0     H43703   9.276   4.777   5.083 -1.4306  1.6649 -1.9005
  324MOL0     H43704   9.213   4.383   4.951 -2.2518  0.6220  1.0788
  324MOL0     H43705   9.311   4.167   4.846  1.5563 -0.1902  0.8804
  324MOL0     H43706   9.544   4.065   4.902 -1.2892  0.0847 -0.8596
  324MOL0     H43707   9.583   3.967   5.036 -0.0846  2.7236  0.8594
  324MOL0     H43708   9.646   3.892   4.812 -1.0321  1.9793 -0.9296
  324MOL0     H43709   9.532   3.771   4.872 -1.7951 -1.8135 -4.3236
  324MOL0     H43710   9.449   3.997   4.676 -0.4211  0.3285  1.0529
  324MOL0     H43711   9.340   3.878   4.740 -0.8771  4.7082  1.7659
  324MOL0     H43712   9.611   3.824   4.587 -0.1118 -0.2905 -1.7510
  324MOL0     H43713   9.492   3.697   4.627  2.9109 -1.5582 -0.8689
  324MOL0     H43714   9.426   3.937   4.449  1.3923 -0.0782  0.5608
  324MOL0     H43715   9.327   3.784   4.471  0.7629 -0.5332 -1.2696
  324MOL0     H43716   9.613   3.809   4.366  1.7351 -2.5856  0.2730
  324MOL0     H43717   9.519   3.658   4.394 -0.8444  0.3679 -2.9201
  324MOL0     H43718   9.465   3.858   4.169 -2.3121 -0.6268 -1.6111
  324MOL0     H43719   9.351   3.745   4.216  0.1613 -1.3517 -0.8723
  324MOL0     H43720   9.517   3.561   4.174  0.7881  0.5903  0.1476
  324MOL0     H43721   9.619   3.679   4.091  0.0850  1.3262  0.9615
  324MOL0     H43722   9.355   4.024   5.246  1.7532  0.2576 -0.9604
  324MOL0     H43723   9.245   4.221   5.333 -0.5761  2.5887 -0.7867
  324MOL0     H43724   9.126   4.582   5.529  1.1374 -1.9265 -1.4016
  324MOL0     H43725   9.013   4.789   5.590 -1.9198  1.9363 -0.0177
  324MOL0     H43726   9.240   6.209   5.877  0.8067 -1.7207  1.9988
  324MOL0     H43727   9.152   6.265   6.089 -1.6879 -0.4612 -2.6301
  324MOL0     H43728   9.413   6.232   6.590 -2.4199 -2.1427 -1.4229
  324MOL0     H43729   9.329   6.255   6.816  0.8992 -0.6593  0.5836
  324MOL0     H43730   9.058   6.603   6.907 -0.5569  0.3351  0.6225
  324MOL0     H43731   9.093   6.522   7.057 -0.1456  1.8629  0.2945
  324MOL0     H43732   9.247   6.723   7.026 -1.7979 -0.2441 -0.0494
  324MOL0     H43733   9.289   6.655   6.867  2.0367 -1.8563 -0.1276
  324MOL0     H43734   9.429   6.488   6.960 -0.4976 -1.0211  0.1692
  324MOL0     H43735   9.332   6.472   7.109 -0.9872  2.0460  0.8226
  324MOL0     H43736   9.539   6.571   7.188  3.9237  6.2832  0.7494
  324MOL0     H43737   9.395   6.670   7.195 -2.0184  1.3185 -1.1258
  324MOL0     H43738   9.618   6.929   6.966  0.0243  0.3491  0.5136
  324MOL0     H43739   9.084   6.574   6.678 -0.7535 -1.1465  0.8116
  324MOL0     H43740   9.122   6.538   6.457  0.4989  1.2846  1.2974
  325MOL0     O43741   8.290  11.059   2.837 -0.2419  0.1474 -1.1040
  325MOL0     C43742   8.183  11.012   2.809  0.5937  0.0365  0.9402
  325MOL0     O43743   8.067  11.075   2.785  0.3583 -0.8354 -0.5896
  325MOL0     C43744   8.066  11.211   2.764 -0.4630 -0.1431 -0.4180
  325MOL0     C43745   8.027  11.270   2.641 -0.0962 -0.1908  0.0774
  325MOL0     C43746   8.006  11.415   2.636 -0.6414  0.0108  0.2574
  325MOL0     C43747   8.027  11.489   2.748 -0.0577  0.5071  0.5294
  325MOL0     O43748   8.022  11.628   2.729 -0.6529 -0.6902 -0.3129
  325MOL0     C43749   8.147  11.703   2.713  0.4734 -0.6697 -0.1197
  325MOL0     C43750   8.108  11.850   2.684 -0.2470  0.6304  0.0003
  325MOL0     C43751   8.092  11.875   2.536 -0.6579 -0.1948  0.8139
  325MOL0     C43752   8.220  11.880   2.451 -0.6220 -1.1991 -0.9482
  325MOL0     C43753   8.178  11.925   2.310 -0.2524  0.3231 -0.6444
  325MOL0     C43754   8.138  11.793   2.227  0.4574  0.1189 -0.0898
  325MOL0     C43755   8.129  11.832   2.079  0.1643  0.6528 -0.1245
  325MOL0     C43756   8.268  11.805   2.008 -0.1779  0.0484 -0.2774
  325MOL0     N43757   8.269  11.845   1.867 -0.2774 -0.3790  0.1035
  325MOL0     C43758   8.181  11.801   1.773 -0.1040 -0.4827  0.7121
  325MOL0     C43759   8.245  11.818   1.659 -0.5979  0.4400  0.7293
  325MOL0     C43760   8.168  11.766   1.538 -0.7170 -0.5005 -0.1038
  325MOL0     C43761   8.173  11.856   1.416  1.4899  0.1739  1.0258
  325MOL0     C43762   8.081  11.798   1.306 -0.2005  0.5553  1.0035
  325MOL0     C43763   8.080  11.894   1.173 -0.5100  0.4565 -0.0444
  325MOL0     O43764   7.986  12.009   1.195 -0.1401  0.2936  0.4889
  325MOL0     C43765   8.033  12.127   1.147  0.6034 -0.1104  0.7107
  325MOL0     C43766   8.129  12.190   1.219 -0.1961 -0.2114  0.4149
  325MOL0     C43767   8.147  12.326   1.205  0.1738 -0.0432  0.1183
  325MOL0     C43768   8.237  12.397   1.297  0.6729 -0.5700  0.1959
  325MOL0     C43769   8.076  12.388   1.096 -0.5465 -1.2189  0.2701
  325MOL0     C43770   8.096  12.543   1.075  0.8696 -0.2920 -0.7344
  325MOL0     O43771   7.977  12.606   1.063  0.0953  0.6420 -0.2903
  325MOL0     C43772   7.962  12.741   1.042  0.4524  0.8390  0.1346
  325MOL0     C43773   8.016  12.798   0.923 -0.0800  0.6220  0.2686
  325MOL0     C43774   7.989  12.929   0.889 -0.0861 -0.5470  0.4834
  325MOL0     C43775   7.917  13.014   0.979 -0.2862  0.0762  0.8211
  325MOL0     O43776   7.892  13.150   0.943  0.5615  0.1186  0.4043
  325MOL0     C43777   7.954  13.202   0.823 -0.4670 -0.3736 -0.1331
  325MOL0     C43778   7.934  13.350   0.823  0.7453 -0.0037  0.9711
  325MOL0     C43779   7.791  13.397   0.821  0.1042  0.4167 -0.7797
  325MOL0     C43780   7.754  13.495   0.931  0.1796  1.3195 -0.4012
  325MOL0     C43781   7.752  13.654   0.911  0.4435  0.8176  0.3710
  325MOL0     C43782   7.882  13.713   0.894  0.2423  0.3570  0.5544
  325MOL0     C43783   7.861  13.854   0.826  0.6943  0.0971 -0.8216
  325MOL0     C43784   7.994  13.921   0.787  0.5661  0.5516 -0.4829
  325MOL0    Cl43785   7.952  14.081   0.707  0.4972 -0.0898  0.1989
  325MOL0     C43786   7.873  12.962   1.095  0.6357  0.4620 -0.0814
  325MOL0     C43787   7.885  12.823   1.122 -0.3289 -1.2763 -0.2171
  325MOL0     O43788   8.208  12.597   1.060  0.9513 -0.4261 -0.0541
  325MOL0     C43789   7.977  12.312   1.025 -0.0089 -0.5554  0.0939
  325MOL0     C43790   7.965  12.181   1.039 -0.3169  0.0886 -0.9711
  325MOL0     N43791   8.373  11.857   1.676  0.3210 -0.2235  0.2936
  325MOL0     N43792   8.391  11.863   1.804  0.1902 -0.5574 -0.2325
  325MOL0     C43793   8.082  11.437   2.859  1.1697 -0.1344 -0.1197
  325MOL0     C43794   8.096  11.296   2.881  0.7646 -0.0021  1.1103
  325MOL0     C43795   8.184  10.866   2.774  0.0044  0.6353 -0.2504
  325MOL0     C43796   8.065  10.794   2.786  0.0664 -0.5815 -1.2736
  325MOL0     C43797   8.057  10.663   2.791  0.0536  0.9211  0.6057
  325MOL0     C43798   8.179  10.588   2.783  0.5961  0.1774  0.1727
  325MOL0     O43799   8.171  10.445   2.789 -0.9631 -0.3511  0.0360
  325MOL0     C43800   8.282  10.368   2.754 -0.1756 -0.4178 -0.3951
  325MOL0     C43801   8.237  10.247   2.680  0.1498  0.5712 -0.1272
  325MOL0     C43802   8.195  10.122   2.755 -1.2472 -0.2722 -1.1986
  325MOL0     C43803   8.134  10.018   2.665  0.0821  0.1049  0.1564
  325MOL0     C43804   8.109   9.898   2.741  0.5851 -0.3956 -0.8402
  325MOL0     C43805   8.113   9.789   2.795  0.0095  0.1593 -0.3807
  325MOL0     C43806   8.302  10.659   2.770  0.3145  0.1598 -0.4241
  325MOL0     C43807   8.303  10.798   2.757  0.2851  0.1001  0.1435
  325MOL0     H43808   8.012  11.214   2.549  1.9432 -0.2095 -0.2786
  325MOL0     H43809   7.981  11.460   2.540 -1.1776  1.9293  1.2560
  325MOL0     H43810   8.205  11.687   2.804  3.2123 -2.8399 -2.0876
  325MOL0     H43811   8.200  11.669   2.624  0.2038  2.6408 -1.6794
  325MOL0     H43812   8.010  11.865   2.730 -0.2393 -0.9555  0.5961
  325MOL0     H43813   8.169  11.928   2.731  1.5763 -1.5696  1.5125
  325MOL0     H43814   8.026  11.793   2.507  1.0443 -1.4660  0.2938
  325MOL0     H43815   8.040  11.970   2.534 -2.3240 -1.0433  1.6273
  325MOL0     H43816   8.298  11.943   2.496  0.9891 -1.6740 -2.9340
  325MOL0     H43817   8.277  11.787   2.443  2.2015  0.4663 -1.7539
  325MOL0     H43818   8.090  11.990   2.317 -2.7398 -2.7822 -0.7725
  325MOL0     H43819   8.265  11.960   2.253  1.3223 -0.2366  1.3091
  325MOL0     H43820   8.216  11.717   2.242 -0.0888 -0.0661  2.0809
  325MOL0     H43821   8.045  11.747   2.260 -1.1203 -0.0052 -4.0941
  325MOL0     H43822   8.047  11.776   2.035 -0.5076 -0.3520  2.2209
  325MOL0     H43823   8.098  11.936   2.067  0.6062  0.8723  0.5614
  325MOL0     H43824   8.286  11.697   1.998 -0.5115  0.0985 -1.6053
  325MOL0     H43825   8.343  11.844   2.077 -0.1247 -1.2418  0.4311
  325MOL0     H43826   8.084  11.755   1.786 -2.0837  2.6776 -1.4778
  325MOL0     H43827   8.213  11.672   1.508  3.4478  1.2664 -0.0657
  325MOL0     H43828   8.063  11.746   1.561 -1.0223  0.6731 -0.3944
  325MOL0     H43829   8.273  11.872   1.375  0.8554  0.1005 -0.6042
  325MOL0     H43830   8.134  11.954   1.444  1.1095  0.3984 -0.2420
  325MOL0     H43831   7.980  11.793   1.347 -0.7252  2.6674  0.0679
  325MOL0     H43832   8.115  11.697   1.280  1.7839  1.5496 -0.5861
  325MOL0     H43833   8.044  11.830   1.092 -1.1404 -1.2258  1.4946
  325MOL0     H43834   8.182  11.930   1.156 -0.4649  0.7621  0.8117
  325MOL0     H43835   8.171  12.142   1.307 -0.5741 -1.1430  0.0984
  325MOL0     H43836   8.292  12.475   1.244  0.8799 -0.1379  1.0455
  325MOL0     H43837   8.181  12.433   1.384 -0.5574 -2.2314  0.1466
  325MOL0     H43838   8.312  12.325   1.330  0.6849 -0.3790  0.5897
  325MOL0     H43839   8.062  12.725   0.856  1.7685  0.8262  1.2537
  325MOL0     H43840   8.016  12.948   0.785 -0.8699 -1.2121  0.1485
  325MOL0     H43841   8.059  13.182   0.848 -0.1195  2.5051  1.0827
  325MOL0     H43842   7.915  13.159   0.730  0.2851 -1.9463  0.2343
  325MOL0     H43843   7.983  13.389   0.913  0.9240  1.9178  0.0993
  325MOL0     H43844   8.001  13.392   0.747  1.5802 -1.5701  0.8007
  325MOL0     H43845   7.727  13.309   0.834  1.5753 -0.9544 -2.4113
  325MOL0     H43846   7.772  13.444   0.724 -3.6988  0.1072 -0.3584
  325MOL0     H43847   7.649  13.465   0.943  0.6148  0.8382  3.4917
  325MOL0     H43848   7.801  13.464   1.025  0.0071  0.0312 -0.7262
  325MOL0     H43849   7.700  13.695   0.998 -4.0404  0.9476 -2.0739
  325MOL0     H43850   7.688  13.677   0.824  0.1171  1.8953  0.8815
  325MOL0     H43851   7.940  13.718   0.987  2.0664 -1.3302 -0.4310
  325MOL0     H43852   7.946  13.655   0.827 -0.2669  1.0378 -0.5490
  325MOL0     H43853   7.804  13.918   0.895  0.5959  0.8491 -1.5920
  325MOL0     H43854   7.810  13.837   0.731  0.0349  1.7271 -0.7953
  325MOL0     H43855   8.054  13.858   0.721  0.6507 -0.1354  0.2417
  325MOL0     H43856   8.053  13.940   0.877 -1.8151 -1.8739  1.7689
  325MOL0     H43857   7.828  13.026   1.170  0.5365  1.0831 -0.6587
  325MOL0     H43858   7.843  12.797   1.219  1.2859 -0.2028  0.8276
  325MOL0     H43859   7.913  12.361   0.952  2.1760 -0.8685 -2.1597
  325MOL0     H43860   7.902  12.129   0.967  1.1023 -0.5111 -1.8068
  325MOL0     H43861   8.100  11.514   2.934 -3.8954  1.0806  0.2377
  325MOL0     H43862   8.137  11.254   2.972  3.3591 -1.4400 -0.5948
  325MOL0     H43863   7.975  10.854   2.796  0.5090  0.0953 -1.2111
  325MOL0     H43864   7.960  10.614   2.798 -0.8434  2.2194 -1.6691
  325MOL0     H43865   8.355  10.419   2.690 -0.2864  2.9186  1.8767
  325MOL0     H43866   8.341  10.327   2.836  1.5450 -2.5717 -2.5566
  325MOL0     H43867   8.321  10.213   2.619 -1.2726 -1.3771 -1.0784
  325MOL0     H43868   8.160  10.274   2.606 -1.1027  1.5384  1.4620
  325MOL0     H43869   8.132  10.152   2.839  0.4131  2.8126 -0.8923
  325MOL0     H43870   8.286  10.079   2.799 -1.3182  1.7756  1.1672
  325MOL0     H43871   8.208   9.985   2.592  2.7103 -1.5061  3.3361
  325MOL0     H43872   8.046  10.060   2.614 -0.3828 -0.9264  0.0857
  325MOL0     H43873   8.127   9.689   2.833  1.8861  1.1808  1.8816
  325MOL0     H43874   8.393  10.602   2.755 -0.7041 -0.8893 -3.3936
  325MOL0     H43875   8.397  10.852   2.754  2.0379 -2.5666  2.6551
  326MOL0     O43876   1.352  10.085   8.634 -0.7395 -0.0732 -1.2736
  326MOL0     C43877   1.367   9.975   8.700  0.3981 -1.0126  0.1911
  326MOL0     O43878   1.284   9.926   8.792 -0.4949 -0.4729  0.6781
  326MOL0     C43879   1.164   9.993   8.792  0.5429 -0.1357 -0.3541
  326MOL0     C43880   1.151  10.103   8.880  0.0593 -0.7961 -0.7975
  326MOL0     C43881   1.024  10.157   8.909  0.4328 -0.3378  0.8664
  326MOL0     C43882   0.908  10.115   8.847 -0.0526  0.5282 -0.3838
  326MOL0     O43883   0.796  10.183   8.879 -1.5561 -1.1351  0.8325
  326MOL0     C43884   0.699  10.208   8.771 -0.8176  1.0582 -0.7985
  326MOL0     C43885   0.580  10.108   8.783  0.0061 -0.0805 -0.6284
  326MOL0     C43886   0.484  10.163   8.897 -0.1942 -0.1252 -1.0102
  326MOL0     C43887   0.380  10.266   8.843 -0.2633  0.3912  0.2960
  326MOL0     C43888   0.285  10.316   8.954 -0.2069  0.5725 -0.4586
  326MOL0     C43889   0.157  10.388   8.905 -0.0827 -0.6800 -0.4138
  326MOL0     C43890   0.206  10.506   8.817 -0.6986 -0.9356 -0.7484
  326MOL0     C43891   0.104  10.618   8.772  0.3102  0.2728  0.1779
  326MOL0     N43892  -0.011  10.546   8.716 -0.8967  0.5299  0.7575
  326MOL0     C43893  -0.028  10.490   8.588 -0.0996 -0.4759 -0.3752
  326MOL0     C43894  -0.158  10.445   8.592  0.1940 -1.4050  0.7748
  326MOL0     C43895  -0.222  10.385   8.459  0.3640 -0.7461  0.3839
  326MOL0     C43896  -0.184  10.243   8.439  0.0995 -0.1082 -0.3110
  326MOL0     C43897  -0.252  10.141   8.533  1.2727 -0.6068  0.6467
  326MOL0     C43898  -0.212   9.994   8.497 -0.2795  0.1205  0.3729
  326MOL0     O43899  -0.299   9.940   8.392 -0.3970 -0.1091 -0.5998
  326MOL0     C43900  -0.277   9.805   8.362 -0.3574  0.3718  0.2040
  326MOL0     C43901  -0.357   9.744   8.274  1.6113 -0.3757  0.8147
  326MOL0     C43902  -0.371   9.607   8.248  0.7005  0.1113 -0.0898
  326MOL0     C43903  -0.482   9.563   8.149 -0.0306 -0.6959 -1.0497
  326MOL0     C43904  -0.281   9.514   8.310  0.5636 -0.6032  0.1000
  326MOL0     C43905  -0.267   9.371   8.273 -0.5071  0.5076 -0.1149
  326MOL0     O43906  -0.367   9.289   8.256  0.2856 -0.2690  0.3875
  326MOL0     C43907  -0.346   9.150   8.247  0.4438  0.2551 -0.3831
  326MOL0     C43908  -0.355   9.071   8.366 -0.0747  0.3642 -0.2968
  326MOL0     C43909  -0.341   8.931   8.354  0.1096  0.4571 -0.0222
  326MOL0     C43910  -0.320   8.863   8.234  0.1312  0.4322  0.7209
  326MOL0     O43911  -0.306   8.722   8.234 -0.2357 -0.0122 -0.6335
  326MOL0     C43912  -0.296   8.649   8.109 -0.0577 -0.3706  0.0879
  326MOL0     C43913  -0.304   8.510   8.176  0.3935 -0.3821 -0.0567
  326MOL0     C43914  -0.285   8.405   8.071 -0.3808  0.3338  0.1834
  326MOL0     C43915  -0.310   8.267   8.121  0.5902  1.0225  0.5540
  326MOL0     C43916  -0.271   8.155   8.015 -0.6407  0.4324 -0.7192
  326MOL0     C43917  -0.359   8.031   8.031  0.2512  0.9431  1.1658
  326MOL0     C43918  -0.327   7.922   7.928  0.2245 -0.3045 -0.6757
  326MOL0     C43919  -0.430   7.808   7.941  0.7660  0.2356  0.1839
  326MOL0    Cl43920  -0.383   7.676   7.832 -0.4163  0.0405 -0.5225
  326MOL0     C43921  -0.317   8.947   8.115  0.4785 -0.1577 -0.2220
  326MOL0     C43922  -0.326   9.085   8.124 -0.2053  0.4735  1.1406
  326MOL0     O43923  -0.149   9.328   8.277 -0.1981 -0.6975  0.2073
  326MOL0     C43924  -0.193   9.575   8.401 -0.2000  0.0077 -0.8819
  326MOL0     C43925  -0.187   9.711   8.416 -0.2724 -1.1372 -0.2209
  326MOL0     N43926  -0.223  10.485   8.706 -0.2572 -0.1350 -0.6201
  326MOL0     N43927  -0.132  10.539   8.777  0.1707 -0.6384  0.7877
  326MOL0     C43928   0.922   9.998   8.768  0.0382 -0.8254 -1.1059
  326MOL0     C43929   1.044   9.937   8.736  0.2933  0.0570 -0.5417
  326MOL0     C43930   1.492   9.904   8.669  0.6669 -0.1044 -0.1971
  326MOL0     C43931   1.519   9.777   8.725 -0.3078  0.3273 -0.5994
  326MOL0     C43932   1.647   9.706   8.713  0.2500 -0.1731 -0.1785
  326MOL0     C43933   1.754   9.785   8.657  0.1625  0.4988 -0.5840
  326MOL0     O43934   1.884   9.746   8.645  1.0115  0.0550 -0.0233
  326MOL0     C43935   1.909   9.606   8.669 -0.1294 -0.2747 -0.2382
  326MOL0     C43936   2.054   9.557   8.637 -0.5418  0.1804 -0.1100
  326MOL0     C43937   2.175   9.605   8.725 -0.2819  0.3228  0.9381
  326MOL0     C43938   2.191   9.750   8.710  0.0675  0.1825 -0.8698
  326MOL0     C43939   2.329   9.774   8.749 -0.4040  0.0080  0.4500
  326MOL0     C43940   2.445   9.773   8.786 -0.5865 -0.1651  0.9468
  326MOL0     C43941   1.730   9.914   8.628 -0.0271 -0.7543  0.2853
  326MOL0     C43942   1.600   9.973   8.621  0.0191  0.8785 -0.9596
  326MOL0     H43943   1.240  10.138   8.930 -2.0208  1.5547  1.5506
  326MOL0     H43944   1.013  10.229   8.990  0.0903 -2.2542  2.6106
  326MOL0     H43945   0.660  10.310   8.777  0.6697  1.7669 -2.3840
  326MOL0     H43946   0.748  10.202   8.673  0.4230  0.3765 -0.1559
  326MOL0     H43947   0.536  10.106   8.683  1.0011  1.0695 -1.1141
  326MOL0     H43948   0.621  10.009   8.805  0.3785  0.4573  1.2113
  326MOL0     H43949   0.437  10.079   8.948 -1.0958  0.4527 -0.8684
  326MOL0     H43950   0.544  10.208   8.977  1.1470 -1.4803 -1.2117
  326MOL0     H43951   0.436  10.345   8.792  1.3188 -2.4684 -2.7900
  326MOL0     H43952   0.327  10.225   8.756  0.4107 -0.0832  0.0998
  326MOL0     H43953   0.264  10.237   9.026 -1.0406  1.2065  0.0226
  326MOL0     H43954   0.342  10.396   9.003 -0.7884  0.6030  0.1765
  326MOL0     H43955   0.106  10.318   8.838 -0.1711  0.3081 -1.3867
  326MOL0     H43956   0.095  10.436   8.982 -1.9404 -0.9785 -1.6451
  326MOL0     H43957   0.286  10.557   8.872  0.5267 -2.3444 -1.1583
  326MOL0     H43958   0.252  10.464   8.727  0.8328 -0.7770 -0.0779
  326MOL0     H43959   0.147  10.675   8.689 -0.7282 -0.5205 -0.9497
  326MOL0     H43960   0.080  10.691   8.849  2.4475  1.0404  0.1973
  326MOL0     H43961   0.042  10.493   8.505  0.6659  0.4237  0.2859
  326MOL0     H43962  -0.328  10.410   8.462 -0.1133 -1.6184 -3.7312
  326MOL0     H43963  -0.179  10.447   8.379 -2.0637  0.5596  0.0140
  326MOL0     H43964  -0.075  10.246   8.442  0.1325  0.7125 -1.4503
  326MOL0     H43965  -0.211  10.212   8.338 -2.4711 -2.3425  0.9248
  326MOL0     H43966  -0.361  10.150   8.529  1.1805 -1.7712 -1.7937
  326MOL0     H43967  -0.215  10.165   8.633 -1.8867 -0.0655  1.8034
  326MOL0     H43968  -0.211   9.937   8.590 -1.0934  0.2831  0.4889
  326MOL0     H43969  -0.108   9.979   8.467  0.1180 -0.5608  2.0251
  326MOL0     H43970  -0.427   9.805   8.218  1.3198  0.6053  2.1846
  326MOL0     H43971  -0.557   9.637   8.120  0.5402  0.1153 -0.4705
  326MOL0     H43972  -0.444   9.514   8.059  1.4251 -2.5853  0.5087
  326MOL0     H43973  -0.528   9.472   8.190  1.1261 -1.5398 -1.5579
  326MOL0     H43974  -0.388   9.108   8.463 -3.1728  0.8658 -1.4429
  326MOL0     H43975  -0.349   8.871   8.444 -1.0415  2.6214  1.4091
  326MOL0     H43976  -0.386   8.672   8.052 -0.4872 -3.3014 -0.5790
  326MOL0     H43977  -0.206   8.676   8.052 -0.6195  0.2435 -0.5230
  326MOL0     H43978  -0.220   8.495   8.244 -0.0059  0.7873  0.7384
  326MOL0     H43979  -0.394   8.500   8.238  1.2779  0.0986  1.3463
  326MOL0     H43980  -0.182   8.396   8.035 -0.7991 -1.1064 -0.7709
  326MOL0     H43981  -0.357   8.422   7.991 -1.0114 -3.3318 -0.2045
  326MOL0     H43982  -0.267   8.257   8.221 -1.0566  2.1768  1.4264
  326MOL0     H43983  -0.417   8.253   8.135  0.5876  1.0151  0.5265
  326MOL0     H43984  -0.164   8.133   8.016 -1.0498 -1.9455 -2.0275
  326MOL0     H43985  -0.292   8.200   7.918  2.5718 -0.1169 -1.7788
  326MOL0     H43986  -0.341   7.999   8.134 -0.2902  3.1775  2.0273
  326MOL0     H43987  -0.465   8.059   8.030 -0.1464 -0.4510  1.4272
  326MOL0     H43988  -0.222   7.893   7.937  0.7128  1.3361 -0.9154
  326MOL0     H43989  -0.353   7.959   7.828 -0.3357 -0.9893 -0.7963
  326MOL0     H43990  -0.524   7.849   7.904  1.5474  0.3723 -1.7793
  326MOL0     H43991  -0.438   7.763   8.040  0.8096  2.9774  1.5293
  326MOL0     H43992  -0.312   8.887   8.024  1.6932 -2.5823  1.3287
  326MOL0     H43993  -0.319   9.134   8.028 -2.8124 -0.2288  0.5026
  326MOL0     H43994  -0.128   9.516   8.465 -0.2033 -1.3822 -2.1169
  326MOL0     H43995  -0.123   9.739   8.499 -1.7040 -1.8564  1.1829
  326MOL0     H43996   0.840   9.943   8.724  1.0795 -3.7650  0.3534
  326MOL0     H43997   1.034   9.843   8.683  0.3055 -0.9890  1.2373
  326MOL0     H43998   1.446   9.724   8.785 -1.6380  2.9393  0.1922
  326MOL0     H43999   1.653   9.601   8.743  3.9439 -0.5506 -1.7556
  326MOL0     H44000   1.878   9.587   8.772 -1.5664  4.9852  0.5754
  326MOL0     H44001   1.843   9.542   8.608  0.6959  0.6756 -2.2338
  326MOL0     H44002   2.078   9.576   8.532 -1.7607 -0.0091 -0.4434
  326MOL0     H44003   2.049   9.450   8.658 -1.0935  0.5359  1.7302
  326MOL0     H44004   2.263   9.548   8.694  0.3215  2.8830 -2.8808
  326MOL0     H44005   2.157   9.588   8.831 -2.8589 -2.7403  0.1335
  326MOL0     H44006   2.130   9.799   8.786  2.8656  0.8929  1.1058
  326MOL0     H44007   2.174   9.783   8.607 -3.9321 -0.7572 -0.6828
  326MOL0     H44008   2.545   9.761   8.822 -1.0353 -1.9981  1.7068
  326MOL0     H44009   1.818   9.970   8.600 -0.2292 -0.9821 -0.8753
  326MOL0     H44010   1.600  10.076   8.587  0.3947  0.8062 -1.1844
  327MOL0     O44011  11.247   0.615   5.468  0.2538  0.2961  0.0144
  327MOL0     C44012  11.233   0.649   5.586 -0.1247  0.0410 -1.0234
  327MOL0     O44013  11.219   0.784   5.639  0.4417  0.1747  0.8860
  327MOL0     C44014  11.170   0.886   5.554 -0.3975 -0.1119  1.2011
  327MOL0     C44015  11.190   0.914   5.416  0.0137 -0.5541 -0.7306
  327MOL0     C44016  11.133   1.030   5.360 -0.5677  0.6140 -0.0125
  327MOL0     C44017  11.045   1.115   5.434 -0.5300 -0.0948  0.3330
  327MOL0     O44018  11.002   1.218   5.366 -0.4957 -0.8420 -0.2477
  327MOL0     C44019  10.867   1.277   5.392  0.4013  0.4480  1.6308
  327MOL0     C44020  10.860   1.417   5.341 -0.9997 -0.7489 -0.2584
  327MOL0     C44021  10.727   1.463   5.314  0.9146 -0.1612  0.7298
  327MOL0     C44022  10.733   1.621   5.305  0.1306 -0.0627 -0.1846
  327MOL0     C44023  10.602   1.688   5.292 -0.8841 -0.2524 -0.3677
  327MOL0     C44024  10.519   1.659   5.159  0.0496  1.4677  0.1943
  327MOL0     C44025  10.604   1.622   5.029 -0.2393 -0.5272  0.6959
  327MOL0     C44026  10.530   1.554   4.920  0.3651  0.0861 -0.5392
  327MOL0     N44027  10.475   1.414   4.945 -0.4105 -0.7788  0.0950
  327MOL0     C44028  10.373   1.389   5.024  1.0291 -0.2850 -0.0326
  327MOL0     C44029  10.346   1.260   5.020  0.5424  0.1708  0.9817
  327MOL0     C44030  10.229   1.207   5.090  0.9260  0.1349 -0.8480
  327MOL0     C44031  10.245   1.225   5.244  1.1246 -0.4900 -0.7227
  327MOL0     C44032  10.122   1.150   5.320 -0.8261  0.1500 -0.2683
  327MOL0     C44033  10.139   1.164   5.476 -0.3309  0.6904 -0.8774
  327MOL0     O44034  10.021   1.118   5.541  0.1592  0.0821 -0.2364
  327MOL0     C44035  10.033   1.074   5.666  0.0182 -0.9025 -0.2167
  327MOL0     C44036   9.971   0.951   5.704  0.3593 -0.0201  0.3332
  327MOL0     C44037   9.990   0.901   5.836 -0.0903 -0.0819  0.6661
  327MOL0     C44038   9.920   0.777   5.869  0.7274  0.6205  0.8868
  327MOL0     C44039  10.065   0.970   5.933 -1.0281 -0.9671  0.2945
  327MOL0     C44040  10.066   0.932   6.075 -0.3618 -1.1730 -0.6989
  327MOL0     O44041  10.051   0.811   6.109 -0.6027  0.0450  0.1246
  327MOL0     C44042  10.005   0.791   6.240  0.5964 -0.9424 -0.2153
  327MOL0     C44043  10.096   0.804   6.352  0.6214  0.6749  0.2107
  327MOL0     C44044  10.053   0.811   6.486  0.7768 -0.2823 -0.1131
  327MOL0     C44045   9.920   0.777   6.511  0.6762 -0.1764 -0.7667
  327MOL0     O44046   9.865   0.770   6.638  0.2256 -0.3620  0.1067
  327MOL0     C44047   9.952   0.783   6.750  0.3915 -0.5378 -0.1999
  327MOL0     C44048   9.870   0.734   6.884 -0.4597 -0.4299 -0.9852
  327MOL0     C44049   9.769   0.851   6.910  0.5973 -0.4444 -0.3904
  327MOL0     C44050   9.692   0.836   7.040 -0.6589 -0.5367  0.1991
  327MOL0     C44051   9.599   0.952   7.065 -0.3885 -0.7390 -0.2449
  327MOL0     C44052   9.523   0.941   7.191  0.6682 -0.1253  0.5907
  327MOL0     C44053   9.452   0.804   7.221  0.3311  0.3103 -0.3005
  327MOL0     C44054   9.353   0.750   7.123 -0.8290 -0.3863 -0.0707
  327MOL0    Cl44055   9.272   0.603   7.195 -0.3724  0.3741 -0.0554
  327MOL0     C44056   9.830   0.759   6.404 -0.6862 -0.4953 -0.1045
  327MOL0     C44057   9.862   0.778   6.277  0.3138  0.6072 -0.0703
  327MOL0     O44058  10.072   1.027   6.153  0.5404  0.5261  0.0239
  327MOL0     C44059  10.136   1.083   5.888 -0.4115 -0.8504 -0.7765
  327MOL0     C44060  10.122   1.143   5.762 -0.4356 -0.3016  0.1314
  327MOL0     N44061  10.405   1.214   4.903  0.1520  0.4455 -0.7422
  327MOL0     N44062  10.477   1.309   4.849  1.0922  0.3971 -0.2580
  327MOL0     C44063  11.030   1.095   5.571 -0.2205 -0.3292 -1.0292
  327MOL0     C44064  11.092   0.981   5.632  0.6167 -0.3915  0.5034
  327MOL0     C44065  11.217   0.550   5.696 -0.8314 -0.0687 -0.1944
  327MOL0     C44066  11.198   0.581   5.834 -0.0392 -0.3182 -0.4932
  327MOL0     C44067  11.180   0.488   5.923  0.6143 -0.6780 -0.7575
  327MOL0     C44068  11.199   0.347   5.892  0.9024  0.4005  0.1233
  327MOL0     O44069  11.149   0.256   5.986 -0.6263  0.4936  0.6949
  327MOL0     C44070  11.137   0.124   5.939 -0.1102 -0.3635  0.3930
  327MOL0     C44071  11.120   0.020   6.051 -0.0833  0.7863 -0.0201
  327MOL0     C44072  11.225   0.057   6.164 -0.7211  0.9691 -0.0744
  327MOL0     C44073  11.215  -0.055   6.272 -0.3926 -0.6644  0.3674
  327MOL0     C44074  11.307  -0.160   6.243  0.9038 -0.2049  0.0479
  327MOL0     C44075  11.396  -0.250   6.233  0.6661 -0.5060  0.2036
  327MOL0     C44076  11.215   0.311   5.759 -0.4833 -0.4202  0.5422
  327MOL0     C44077  11.222   0.412   5.659 -0.5680 -0.0910  0.4234
  327MOL0     H44078  11.274   0.875   5.360  1.1649  1.5544 -0.5521
  327MOL0     H44079  11.144   1.034   5.252 -0.0461  1.8078  0.0714
  327MOL0     H44080  10.792   1.218   5.339 -0.4193 -1.0775  4.2763
  327MOL0     H44081  10.839   1.273   5.498 -1.5366 -0.2774  1.1338
  327MOL0     H44082  10.902   1.482   5.418 -1.4840 -0.6581 -0.0632
  327MOL0     H44083  10.920   1.422   5.250  3.1951  0.8107  2.3069
  327MOL0     H44084  10.689   1.406   5.228 -1.4796  1.7014  0.4542
  327MOL0     H44085  10.654   1.435   5.391  1.1848  0.1359  1.0994
  327MOL0     H44086  10.771   1.647   5.404 -3.3817 -3.0531  2.2120
  327MOL0     H44087  10.798   1.662   5.227 -1.9253  1.0780 -1.3835
  327MOL0     H44088  10.544   1.663   5.381  0.9562 -2.9834  0.2048
  327MOL0     H44089  10.618   1.795   5.310 -3.5862 -0.0725  1.6985
  327MOL0     H44090  10.457   1.575   5.189  3.6705 -0.5390  2.8790
  327MOL0     H44091  10.456   1.748   5.147 -3.0157 -0.8173 -1.8084
  327MOL0     H44092  10.648   1.709   4.979  1.5130 -0.1745  2.7192
  327MOL0     H44093  10.685   1.555   5.059  0.5426 -0.3493 -0.9364
  327MOL0     H44094  10.606   1.552   4.841  0.5265 -1.9720 -0.3758
  327MOL0     H44095  10.446   1.617   4.887  2.0664  2.3563 -0.8424
  327MOL0     H44096  10.319   1.458   5.089 -0.0120 -2.5370  1.6212
  327MOL0     H44097  10.134   1.247   5.054  0.1992 -0.6618  0.1573
  327MOL0     H44098  10.233   1.098   5.089 -1.7264 -0.0503  0.3473
  327MOL0     H44099  10.239   1.332   5.266 -0.7583 -0.5611 -0.7381
  327MOL0     H44100  10.341   1.194   5.287 -0.1374 -2.3650  0.8925
  327MOL0     H44101  10.144   1.045   5.298 -1.6108 -0.9162  3.2903
  327MOL0     H44102  10.027   1.189   5.282 -0.6258 -0.4742 -1.4424
  327MOL0     H44103  10.148   1.267   5.509 -2.8937  0.4963  0.6263
  327MOL0     H44104  10.220   1.099   5.511 -1.9078  0.1901  2.1621
  327MOL0     H44105   9.900   0.921   5.628  3.4550  0.7739 -3.1877
  327MOL0     H44106   9.842   0.785   5.946 -1.4310  3.7234 -1.4051
  327MOL0     H44107   9.870   0.729   5.784  0.7297 -0.4974  1.4959
  327MOL0     H44108   9.994   0.702   5.898 -1.5481 -1.9541  0.4910
  327MOL0     H44109  10.204   0.815   6.343  0.6909  3.3496  2.8696
  327MOL0     H44110  10.114   0.838   6.572 -0.9100  2.2650  0.4073
  327MOL0     H44111  10.051   0.739   6.756 -0.6802 -3.0045  0.6694
  327MOL0     H44112   9.975   0.890   6.762  1.0048 -0.6583 -0.2964
  327MOL0     H44113   9.817   0.639   6.871  0.7940 -1.1164 -1.2386
  327MOL0     H44114   9.938   0.721   6.968  0.9918  2.7308 -1.5169
  327MOL0     H44115   9.704   0.874   6.825  1.8146  2.9953 -0.5314
  327MOL0     H44116   9.824   0.942   6.933 -0.3171  0.5040 -1.8027
  327MOL0     H44117   9.626   0.750   7.024 -1.8778  0.3363  0.3671
  327MOL0     H44118   9.765   0.827   7.121  0.0103  3.1569  0.1868
  327MOL0     H44119   9.546   0.970   6.971  1.0698  2.4842 -0.5813
  327MOL0     H44120   9.659   1.042   7.078 -1.2138 -0.4292  1.9542
  327MOL0     H44121   9.594   0.955   7.273 -0.8939  3.6847  1.4938
  327MOL0     H44122   9.461   1.031   7.195  2.4941  1.2712 -0.8849
  327MOL0     H44123   9.382   0.826   7.302 -0.9705  1.3334 -1.6383
  327MOL0     H44124   9.522   0.725   7.252 -3.1018 -3.3545 -1.0229
  327MOL0     H44125   9.410   0.729   7.032  0.3483  0.7365  0.3841
  327MOL0     H44126   9.281   0.831   7.112  1.4424  2.0540  1.8017
  327MOL0     H44127   9.733   0.713   6.419  0.3324 -2.7125  0.1592
  327MOL0     H44128   9.783   0.758   6.204 -0.1443 -0.3628  0.6729
  327MOL0     H44129  10.196   1.140   5.959 -0.4214 -2.8946  0.9706
  327MOL0     H44130  10.187   1.220   5.723  0.7812 -0.6108  1.4486
  327MOL0     H44131  10.966   1.156   5.634 -1.4790 -2.2797 -0.3282
  327MOL0     H44132  11.082   0.982   5.741 -2.8195  1.3944  0.3072
  327MOL0     H44133  11.207   0.680   5.877 -0.2038  0.4865 -2.2644
  327MOL0     H44134  11.159   0.512   6.027  0.9535  4.1312 -1.5805
  327MOL0     H44135  11.060   0.105   5.863 -0.3988  0.5489  0.4412
  327MOL0     H44136  11.233   0.094   5.894 -0.1814 -1.9510  1.2165
  327MOL0     H44137  11.146  -0.080   6.015  1.9750  0.3373  2.3693
  327MOL0     H44138  11.014   0.017   6.078 -0.0302  0.9219  0.2043
  327MOL0     H44139  11.203   0.158   6.199 -1.0943 -0.5782  5.1350
  327MOL0     H44140  11.330   0.059   6.133 -0.6729 -0.4005 -0.0619
  327MOL0     H44141  11.112  -0.091   6.281 -0.4492 -0.5319  0.2502
  327MOL0     H44142  11.243  -0.026   6.373 -0.0981 -2.4423  0.8440
  327MOL0     H44143  11.479  -0.316   6.221  0.0793 -0.8388 -3.0087
  327MOL0     H44144  11.217   0.207   5.727  0.8878 -0.6730  1.3977
  327MOL0     H44145  11.251   0.378   5.560  0.4781  1.9690 -0.0541
  328MOL0     O44146   4.831  10.634   3.587  0.0840  0.5220 -0.2022
  328MOL0     C44147   4.843  10.634   3.460 -1.0328 -1.1997 -0.2292
  328MOL0     O44148   4.773  10.551   3.376  0.5457  0.0435 -0.6519
  328MOL0     C44149   4.659  10.498   3.421  0.5231  0.3983  0.0513
  328MOL0     C44150   4.551  10.558   3.484 -0.1725 -0.6045  0.1796
  328MOL0     C44151   4.444  10.481   3.536  0.7203  0.4163  0.4088
  328MOL0     C44152   4.432  10.342   3.502 -0.4949 -0.4238 -0.1091
  328MOL0     O44153   4.324  10.283   3.562 -0.4858  0.0056  0.3047
  328MOL0     C44154   4.318  10.141   3.559 -0.1617 -0.1094  1.0828
  328MOL0     C44155   4.398  10.084   3.682 -0.2347 -0.2259 -0.4898
  328MOL0     C44156   4.324  10.129   3.813 -0.3407  0.2327 -0.3726
  328MOL0     C44157   4.416  10.132   3.939 -0.8757  0.2724 -0.0478
  328MOL0     C44158   4.490  10.005   3.980  0.0007 -0.6827  0.2795
  328MOL0     C44159   4.557  10.012   4.120  0.4569  0.3734  0.7860
  328MOL0     C44160   4.680  10.087   4.153  0.0868  1.1469 -0.5623
  328MOL0     C44161   4.705  10.107   4.299 -0.7882  0.0202  0.4084
  328MOL0     N44162   4.793  10.001   4.359 -0.7842  0.3566 -0.3338
  328MOL0     C44163   4.921  10.021   4.418  0.2305  0.2813 -0.6492
  328MOL0     C44164   4.980   9.901   4.433 -0.9421 -0.3983 -0.6095
  328MOL0     C44165   5.100   9.876   4.523  0.7996 -0.8214  0.2812
  328MOL0     C44166   5.230   9.919   4.462  0.0141 -1.0187 -0.1520
  328MOL0     C44167   5.350   9.861   4.547 -0.2363 -0.7704 -0.4815
  328MOL0     C44168   5.477   9.952   4.523  0.7545 -0.3096  0.7661
  328MOL0     O44169   5.522   9.936   4.389  0.4798  1.1177 -0.2417
  328MOL0     C44170   5.630   9.997   4.335  0.3032 -0.5540 -0.1759
  328MOL0     C44171   5.732  10.056   4.400  0.2092  0.2688 -1.1979
  328MOL0     C44172   5.842  10.099   4.328 -0.4963  0.5840  0.8834
  328MOL0     C44173   5.953  10.154   4.412 -0.3245  0.2683  0.0468
  328MOL0     C44174   5.851  10.088   4.184  0.0461  0.8371  0.0997
  328MOL0     C44175   5.967  10.146   4.089  0.7465  0.4347  0.0157
  328MOL0     O44176   5.955  10.097   3.964  0.3844 -0.0348 -0.3337
  328MOL0     C44177   6.050  10.130   3.878  0.3477 -0.4658 -0.0211
  328MOL0     C44178   6.098  10.270   3.864 -1.0683  0.7024 -0.6450
  328MOL0     C44179   6.204  10.291   3.776 -0.1475 -0.0186 -0.8965
  328MOL0     C44180   6.257  10.183   3.699 -0.8302 -0.8365 -0.6024
  328MOL0     O44181   6.370  10.192   3.611 -0.8486  0.2503  0.1601
  328MOL0     C44182   6.459  10.293   3.629 -0.7535 -0.4909  1.1351
  328MOL0     C44183   6.555  10.265   3.520 -0.7234 -0.7867  0.8017
  328MOL0     C44184   6.674  10.370   3.506  0.2976  0.6008 -0.8404
  328MOL0     C44185   6.805  10.306   3.477 -0.2928 -0.5433  0.8690
  328MOL0     C44186   6.797  10.237   3.337 -0.7089 -0.0724 -0.1983
  328MOL0     C44187   6.818  10.076   3.360 -0.5414  0.2798 -0.4386
  328MOL0     C44188   6.800   9.997   3.233  0.2698 -1.4541  0.1212
  328MOL0     C44189   6.887  10.038   3.123  0.4092 -0.2050  0.7714
  328MOL0    Cl44190   6.854  10.184   3.038 -0.2275 -0.0049 -0.2015
  328MOL0     C44191   6.212  10.053   3.717 -0.4274  1.0126  0.7197
  328MOL0     C44192   6.105  10.033   3.802  0.1914  0.2723  0.5890
  328MOL0     O44193   6.044  10.224   4.133  0.6237  0.0210  0.5171
  328MOL0     C44194   5.739  10.024   4.123 -1.0562  1.2909 -0.4624
  328MOL0     C44195   5.641   9.975   4.201 -0.4905  0.5709 -0.3749
  328MOL0     N44196   4.893   9.800   4.396  0.1640  0.0628 -0.1490
  328MOL0     N44197   4.785   9.859   4.357 -0.4597 -0.3390  0.1444
  328MOL0     C44198   4.532  10.274   3.429 -0.0039  0.7364  0.7222
  328MOL0     C44199   4.643  10.358   3.385  0.8485  0.6612 -0.4609
  328MOL0     C44200   4.904  10.753   3.400 -0.0981  0.2026  0.6863
  328MOL0     C44201   4.877  10.788   3.265  0.5587 -0.3203  0.7378
  328MOL0     C44202   4.939  10.891   3.198 -0.0043 -0.1677  0.2013
  328MOL0     C44203   5.030  10.974   3.272 -0.2456 -0.2721  0.7526
  328MOL0     O44204   5.102  11.079   3.226 -0.1038 -0.0355  0.0999
  328MOL0     C44205   5.051  11.170   3.116  0.2233  0.6968  0.1485
  328MOL0     C44206   5.141  11.146   2.994 -1.3290 -0.6195 -0.7075
  328MOL0     C44207   5.270  11.212   3.028  0.6198  0.5191 -0.0910
  328MOL0     C44208   5.353  11.243   2.901 -0.0603 -0.0223 -0.1868
  328MOL0     C44209   5.486  11.270   2.943 -0.1413  0.5276  0.5008
  328MOL0     C44210   5.602  11.299   2.978  0.4593  0.2580 -0.1493
  328MOL0     C44211   5.060  10.936   3.408 -0.0012  0.1652  1.7674
  328MOL0     C44212   4.987  10.840   3.470  0.6489 -0.3883 -0.8338
  328MOL0     H44213   4.560  10.664   3.506 -0.0572 -0.2307 -1.4862
  328MOL0     H44214   4.373  10.526   3.604  0.0363  1.6558 -1.0462
  328MOL0     H44215   4.216  10.102   3.569 -0.4170 -1.1902 -3.6023
  328MOL0     H44216   4.362  10.088   3.475  1.9263  1.5566  1.0459
  328MOL0     H44217   4.401   9.977   3.665 -0.6758 -0.0966 -1.4370
  328MOL0     H44218   4.502  10.115   3.673 -0.8083  2.9241  1.8285
  328MOL0     H44219   4.289  10.232   3.802 -1.2114 -0.0966 -0.8232
  328MOL0     H44220   4.250  10.053   3.841  1.5650 -2.2166 -1.5721
  328MOL0     H44221   4.495  10.203   3.911 -0.3510  1.0564  3.0884
  328MOL0     H44222   4.361  10.175   4.023  0.0446  0.6136  0.3902
  328MOL0     H44223   4.417   9.924   3.970 -0.8481  0.3140 -2.5677
  328MOL0     H44224   4.553   9.998   3.891 -2.2204  4.2714 -2.1089
  328MOL0     H44225   4.471  10.033   4.184 -1.9317 -1.3211 -1.6501
  328MOL0     H44226   4.583   9.907   4.134 -3.3551 -1.2343 -2.4131
  328MOL0     H44227   4.762  10.032   4.108  1.2826  1.3774  1.2503
  328MOL0     H44228   4.665  10.182   4.100 -3.0013  0.1819 -1.6810
  328MOL0     H44229   4.617  10.115   4.364 -0.3320  2.8263  0.8098
  328MOL0     H44230   4.757  10.203   4.309  1.6177 -0.9791 -1.5967
  328MOL0     H44231   4.955  10.112   4.466  0.7270  0.2959 -1.0109
  328MOL0     H44232   5.087   9.922   4.621 -1.3181 -1.4975  0.3706
  328MOL0     H44233   5.109   9.768   4.539  0.1549 -0.9912 -0.4013
  328MOL0     H44234   5.224  10.028   4.467  1.4284 -0.9346  0.1785
  328MOL0     H44235   5.257   9.887   4.361 -0.2712  1.4555 -1.0706
  328MOL0     H44236   5.369   9.758   4.515 -0.5599 -0.5348 -1.4407
  328MOL0     H44237   5.329   9.849   4.654 -0.3952 -0.7202 -0.5069
  328MOL0     H44238   5.555   9.915   4.590  1.2936 -1.4785 -0.4640
  328MOL0     H44239   5.459  10.058   4.543  2.1746  0.3407 -1.1089
  328MOL0     H44240   5.733  10.075   4.506  1.6468  1.6127 -1.4130
  328MOL0     H44241   6.051  10.177   4.369 -0.3488  0.3278  0.0208
  328MOL0     H44242   5.934  10.245   4.469  2.1268 -0.1323  1.6877
  328MOL0     H44243   5.959  10.083   4.495 -5.3862  0.2371  0.6802
  328MOL0     H44244   6.060  10.352   3.924  0.9122  1.7515 -0.7306
  328MOL0     H44245   6.235  10.393   3.756  0.2954  0.0320  0.0078
  328MOL0     H44246   6.417  10.394   3.621 -1.2174 -0.7998 -1.0870
  328MOL0     H44247   6.513  10.286   3.724  2.1742 -0.8792 -0.4465
  328MOL0     H44248   6.582  10.159   3.529 -1.5338 -1.0890 -0.2325
  328MOL0     H44249   6.503  10.258   3.425  1.2233 -0.4185 -0.3451
  328MOL0     H44250   6.684  10.418   3.604  0.5256 -4.2107  1.8234
  328MOL0     H44251   6.649  10.454   3.441  0.5523 -0.1641 -1.9681
  328MOL0     H44252   6.884  10.381   3.484  1.2841 -1.9608 -0.8866
  328MOL0     H44253   6.826  10.243   3.563 -0.4230 -0.6465  0.8258
  328MOL0     H44254   6.866  10.288   3.268 -1.1275 -1.4006 -1.6344
  328MOL0     H44255   6.694  10.254   3.305 -1.0032 -0.7262  0.3911
  328MOL0     H44256   6.918  10.057   3.400 -0.4391  1.6990  0.0235
  328MOL0     H44257   6.747  10.032   3.430 -2.0161 -2.4951 -3.3804
  328MOL0     H44258   6.693  10.000   3.207 -0.4631  0.5379  2.9305
  328MOL0     H44259   6.817   9.890   3.248 -1.4261 -1.6769  0.7410
  328MOL0     H44260   6.894   9.956   3.051 -1.0336  1.7803 -1.7926
  328MOL0     H44261   6.985  10.060   3.167  0.5612 -0.6461  0.6600
  328MOL0     H44262   6.252   9.975   3.654 -5.0864  0.3610 -1.9278
  328MOL0     H44263   6.072   9.930   3.813  0.4471  0.0156 -0.9128
  328MOL0     H44264   5.726  10.015   4.016  0.0082  3.7137 -0.8554
  328MOL0     H44265   5.560   9.922   4.153 -0.1638 -4.2125  3.5591
  328MOL0     H44266   4.538  10.169   3.402 -1.7457  0.6388  0.6598
  328MOL0     H44267   4.715  10.315   3.317 -1.8122  0.1604 -3.1810
  328MOL0     H44268   4.815  10.723   3.203  0.5166 -2.7465  3.1205
  328MOL0     H44269   4.911  10.908   3.095  2.9723 -1.9001 -1.0259
  328MOL0     H44270   4.952  11.138   3.082 -0.0020  1.5590 -0.0232
  328MOL0     H44271   5.048  11.276   3.141 -0.3466  0.9930 -1.1326
  328MOL0     H44272   5.107  11.193   2.902 -2.5111 -1.3168 -0.6450
  328MOL0     H44273   5.161  11.041   2.975  2.0707 -0.0619 -0.8098
  328MOL0     H44274   5.325  11.145   3.094  0.0570 -2.5279 -2.5187
  328MOL0     H44275   5.260  11.306   3.083 -1.0999  1.8486 -2.4588
  328MOL0     H44276   5.314  11.331   2.850  1.4949  1.4412  1.0230
  328MOL0     H44277   5.351  11.160   2.830 -2.5080 -0.3201  0.1340
  328MOL0     H44278   5.704  11.308   3.009 -0.0011  1.8725  1.0292
  328MOL0     H44279   5.127  10.999   3.465  0.2755  1.2592  0.3053
  328MOL0     H44280   5.016  10.815   3.571  0.1173  0.0415 -0.5667
  329MOL0     O44281   8.451   0.005   2.463 -0.0656 -0.2138 -0.5650
  329MOL0     C44282   8.547   0.046   2.531 -0.6647 -0.4304  0.2984
  329MOL0     O44283   8.657   0.115   2.481 -0.3797  0.0903 -0.0179
  329MOL0     C44284   8.665   0.167   2.353 -0.7749 -0.8254 -0.4823
  329MOL0     C44285   8.592   0.130   2.232  0.4136  1.0368 -0.3087
  329MOL0     C44286   8.603   0.199   2.109  0.4529  0.2692  0.9715
  329MOL0     C44287   8.691   0.300   2.106  1.1423  0.4867  0.8848
  329MOL0     O44288   8.697   0.363   1.982  0.9200  0.3558  0.6927
  329MOL0     C44289   8.802   0.459   1.958  0.3986 -1.0200 -0.0902
  329MOL0     C44290   8.796   0.520   1.818  0.9094  0.2873  0.0227
  329MOL0     C44291   8.814   0.407   1.719  0.2487  0.0445  0.1648
  329MOL0     C44292   8.939   0.330   1.739 -1.4552 -0.2839  0.2839
  329MOL0     C44293   8.986   0.253   1.614  0.0559 -0.4822  0.4570
  329MOL0     C44294   9.139   0.243   1.612  0.7344  0.3918 -1.5062
  329MOL0     C44295   9.201   0.156   1.517 -0.6218 -0.6428  0.5988
  329MOL0     C44296   9.349   0.156   1.520  0.0024  0.7689 -0.0582
  329MOL0     N44297   9.409   0.212   1.399  0.3569  0.2492 -1.1712
  329MOL0     C44298   9.480   0.324   1.400 -0.2586  0.8746 -0.5162
  329MOL0     C44299   9.547   0.323   1.279  0.8078  0.2280 -0.4280
  329MOL0     C44300   9.661   0.418   1.244 -0.2924  0.4610  0.2907
  329MOL0     C44301   9.665   0.454   1.092  0.7465  0.0418 -0.2012
  329MOL0     C44302   9.564   0.555   1.044 -0.4035 -0.5309 -0.5391
  329MOL0     C44303   9.469   0.487   0.942  0.4038 -0.5769  0.0355
  329MOL0     O44304   9.352   0.569   0.901  0.7360  0.1949  0.0048
  329MOL0     C44305   9.379   0.678   0.815 -0.6733  0.0428  0.4848
  329MOL0     C44306   9.496   0.706   0.745  0.3791 -0.0277  0.0086
  329MOL0     C44307   9.507   0.814   0.657 -0.4229 -1.3777 -1.1751
  329MOL0     C44308   9.633   0.836   0.582  1.2572  0.6946 -0.4448
  329MOL0     C44309   9.398   0.906   0.645  1.2493  0.0989 -0.5212
  329MOL0     C44310   9.398   1.026   0.556 -0.9752  0.7881  0.4939
  329MOL0     O44311   9.469   1.125   0.607  0.4510  0.2807  0.6834
  329MOL0     C44312   9.466   1.244   0.541  0.6949  0.0213 -0.2278
  329MOL0     C44313   9.353   1.320   0.571  1.4647  1.1205  0.3056
  329MOL0     C44314   9.348   1.455   0.543 -0.3989  0.5179 -0.5274
  329MOL0     C44315   9.453   1.512   0.476  0.3326 -0.1554 -0.4155
  329MOL0     O44316   9.445   1.643   0.435 -0.6579  0.0662 -0.0654
  329MOL0     C44317   9.491   1.735   0.525  0.2366 -1.1001 -0.2615
  329MOL0     C44318   9.547   1.864   0.459  0.6559  0.2047 -0.0061
  329MOL0     C44319   9.450   1.907   0.344  0.1887  0.1578 -0.3342
  329MOL0     C44320   9.524   1.913   0.210 -0.1855 -0.6788 -0.5371
  329MOL0     C44321   9.435   1.929   0.087  0.4137  0.4061 -0.1277
  329MOL0     C44322   9.340   2.041   0.086  0.1672 -0.0400 -0.3176
  329MOL0     C44323   9.265   2.035  -0.047  0.1068 -0.2338  0.2413
  329MOL0     C44324   9.129   2.087  -0.032  0.0077 -0.6105 -0.5432
  329MOL0    Cl44325   9.036   1.953   0.055  0.1904  0.0473 -0.0375
  329MOL0     C44326   9.566   1.437   0.433 -0.4049 -0.6481 -0.1391
  329MOL0     C44327   9.572   1.301   0.473 -0.4112  0.8019 -1.3581
  329MOL0     O44328   9.359   1.010   0.441  0.6462  0.3372  0.0697
  329MOL0     C44329   9.276   0.870   0.708 -0.3651 -0.6447 -0.5337
  329MOL0     C44330   9.262   0.755   0.790  0.0658 -0.6250  0.3278
  329MOL0     N44331   9.524   0.207   1.214  0.1160 -0.0503 -0.3050
  329MOL0     N44332   9.448   0.132   1.287  0.3216 -1.0994 -0.1630
  329MOL0     C44333   8.772   0.338   2.207 -0.2169  0.0277 -1.1472
  329MOL0     C44334   8.760   0.271   2.328 -1.1810  1.1003  0.0560
  329MOL0     C44335   8.542   0.015   2.676 -0.0037 -0.2616 -0.1749
  329MOL0     C44336   8.446  -0.065   2.737  0.4902 -0.6135 -0.5179
  329MOL0     C44337   8.458  -0.089   2.883 -0.3432 -1.1701  1.1489
  329MOL0     C44338   8.554  -0.032   2.964  0.2258  0.4608  0.5586
  329MOL0     O44339   8.557  -0.072   3.100 -0.7592  0.0127  0.8889
  329MOL0     C44340   8.687  -0.084   3.157 -0.1035  1.2540 -0.5285
  329MOL0     C44341   8.660  -0.066   3.302 -0.5756 -0.0360  0.2202
  329MOL0     C44342   8.634  -0.197   3.368  0.1560 -0.2125 -1.2352
  329MOL0     C44343   8.607  -0.164   3.513  0.5387 -0.0211  0.0767
  329MOL0     C44344   8.727  -0.127   3.581 -0.4381 -0.2184  0.1691
  329MOL0     C44345   8.831  -0.097   3.639 -0.0094 -0.6080  0.0110
  329MOL0     C44346   8.648   0.061   2.900 -0.6198  0.0216  0.0536
  329MOL0     C44347   8.637   0.090   2.761  0.7327  0.7735  0.3975
  329MOL0     H44348   8.515   0.056   2.247 -1.5776  3.2991  1.5156
  329MOL0     H44349   8.549   0.177   2.017  0.4114  0.5899  0.9168
  329MOL0     H44350   8.783   0.545   2.022 -0.4041 -0.3911 -1.1550
  329MOL0     H44351   8.904   0.423   1.976  1.0384  1.2591  1.2945
  329MOL0     H44352   8.697   0.567   1.811  0.3457 -0.5335  1.8192
  329MOL0     H44353   8.871   0.598   1.802 -1.1901  3.2505  3.1528
  329MOL0     H44354   8.737   0.331   1.726 -0.9485  0.9522 -2.2508
  329MOL0     H44355   8.809   0.455   1.621  0.1271 -0.9604 -0.3224
  329MOL0     H44356   9.016   0.404   1.763 -3.3654  1.8104  0.2872
  329MOL0     H44357   8.942   0.259   1.823 -3.1352  0.6313  1.1665
  329MOL0     H44358   8.938   0.155   1.611 -0.6901 -0.2326  2.2456
  329MOL0     H44359   8.958   0.315   1.528 -0.2245 -1.0669  0.1241
  329MOL0     H44360   9.174   0.346   1.615  0.7492  0.3762 -0.3466
  329MOL0     H44361   9.146   0.194   1.710  1.0320 -1.2675 -2.3129
  329MOL0     H44362   9.170   0.052   1.526 -1.1538 -1.1525 -4.3620
  329MOL0     H44363   9.175   0.192   1.417  0.6510 -1.2812  0.0120
  329MOL0     H44364   9.393   0.056   1.518 -0.5422  0.5055 -3.0122
  329MOL0     H44365   9.381   0.206   1.612 -2.7281  1.2467  0.7413
  329MOL0     H44366   9.486   0.395   1.482  2.1201  1.2750 -0.9568
  329MOL0     H44367   9.657   0.504   1.312 -0.0271  0.3074  0.5018
  329MOL0     H44368   9.757   0.370   1.265 -0.6021 -0.3716 -0.1706
  329MOL0     H44369   9.673   0.362   1.033  4.7058 -0.6440  1.0805
  329MOL0     H44370   9.766   0.495   1.094  2.5866 -3.6087  4.8191
  329MOL0     H44371   9.618   0.632   0.989  0.9274 -2.1334 -1.5931
  329MOL0     H44372   9.512   0.603   1.127  2.0311  2.3089 -0.4746
  329MOL0     H44373   9.433   0.390   0.978  1.2370 -0.4623  1.2285
  329MOL0     H44374   9.529   0.473   0.852  1.4701  1.1707  0.4353
  329MOL0     H44375   9.587   0.648   0.746 -1.6201 -3.5251 -1.8990
  329MOL0     H44376   9.699   0.752   0.605 -0.8340 -0.6260  1.2026
  329MOL0     H44377   9.613   0.837   0.475 -0.2380  1.5789 -0.1881
  329MOL0     H44378   9.687   0.926   0.613  1.2892  0.8583 -0.9689
  329MOL0     H44379   9.275   1.264   0.622 -0.7311  4.0380  0.3949
  329MOL0     H44380   9.264   1.515   0.573 -2.4587 -3.3233  2.2665
  329MOL0     H44381   9.408   1.779   0.581 -0.5057  0.2469 -2.2824
  329MOL0     H44382   9.561   1.698   0.600  3.2894  4.3306  0.0784
  329MOL0     H44383   9.562   1.938   0.538 -0.8813  0.1835  0.3221
  329MOL0     H44384   9.650   1.849   0.424  0.7275 -1.5459  0.8965
  329MOL0     H44385   9.408   2.002   0.380 -1.2413 -0.3883 -0.4913
  329MOL0     H44386   9.360   1.846   0.335  0.3705 -0.4155  1.3473
  329MOL0     H44387   9.583   2.005   0.208 -0.3075 -0.4317  2.5757
  329MOL0     H44388   9.598   1.834   0.190 -0.6327 -1.0351 -0.8127
  329MOL0     H44389   9.384   1.836   0.059 -0.2826  1.1315 -1.3572
  329MOL0     H44390   9.514   1.937   0.012  0.3355  0.2546 -0.2282
  329MOL0     H44391   9.266   2.027   0.165  1.2439  0.5481  0.8263
  329MOL0     H44392   9.390   2.138   0.093  0.7402 -0.2073 -1.7399
  329MOL0     H44393   9.257   1.932  -0.084 -0.6278 -0.0716 -0.0846
  329MOL0     H44394   9.320   2.093  -0.122 -0.1160  0.8315  0.8809
  329MOL0     H44395   9.087   2.108  -0.131 -1.6185 -1.2646 -0.0253
  329MOL0     H44396   9.136   2.176   0.031 -1.6694 -0.5799 -0.3608
  329MOL0     H44397   9.649   1.482   0.381  0.3440 -1.9424 -0.0999
  329MOL0     H44398   9.662   1.249   0.443  0.2867  1.4171 -0.4051
  329MOL0     H44399   9.178   0.917   0.706  0.1185  0.6223  1.7949
  329MOL0     H44400   9.165   0.738   0.836 -0.3599  0.6790 -0.0224
  329MOL0     H44401   8.852   0.412   2.207  1.9307 -2.1980 -0.8118
  329MOL0     H44402   8.822   0.301   2.412 -1.3856  1.4137  0.0964
  329MOL0     H44403   8.363  -0.106   2.681  0.1246 -3.1817  1.6719
  329MOL0     H44404   8.379  -0.154   2.919  0.7469 -2.9000  0.5655
  329MOL0     H44405   8.728  -0.184   3.141  0.3699  1.1156  1.3303
  329MOL0     H44406   8.749   0.001   3.127 -1.9899  2.6378 -0.7388
  329MOL0     H44407   8.574   0.000   3.313 -1.4321 -1.2223  0.8376
  329MOL0     H44408   8.751  -0.019   3.343  0.8602 -1.6248 -1.0111
  329MOL0     H44409   8.723  -0.260   3.372 -0.2067 -0.6802  0.9549
  329MOL0     H44410   8.550  -0.247   3.319 -0.7853 -0.4842  0.5586
  329MOL0     H44411   8.569  -0.260   3.550 -0.9690  1.0628  1.4704
  329MOL0     H44412   8.525  -0.095   3.536  1.7452  1.2384  0.6795
  329MOL0     H44413   8.930  -0.077   3.672  2.2743  0.0116 -5.9039
  329MOL0     H44414   8.717   0.117   2.962  0.0752 -1.4457  0.6635
  329MOL0     H44415   8.709   0.163   2.726 -0.2544  1.7324  0.2969
  330MOL0     O44416  11.336  10.627   6.118 -0.0941 -0.0533 -0.0785
  330MOL0     C44417  11.317  10.747   6.136 -0.2279 -0.7769  0.5366
  330MOL0     O44418  11.272  10.814   6.247 -0.5771  0.0185 -0.3998
  330MOL0     C44419  11.234  10.760   6.367 -0.2550 -0.1033 -0.3382
  330MOL0     C44420  11.180  10.637   6.382  0.4586  0.2775  0.5365
  330MOL0     C44421  11.138  10.594   6.508 -0.0744 -0.4474  0.1700
  330MOL0     C44422  11.141  10.674   6.621 -1.0545  0.1827 -0.4454
  330MOL0     O44423  11.099  10.650   6.750 -0.7230  0.1504  0.7432
  330MOL0     C44424  11.110  10.513   6.798 -0.6807 -0.5447 -0.8614
  330MOL0     C44425  11.047  10.508   6.947 -0.1711  0.0633  0.1891
  330MOL0     C44426  10.896  10.491   6.936  0.5011 -0.2662  0.6426
  330MOL0     C44427  10.836  10.487   7.080  0.6290  0.1370  1.1004
  330MOL0     C44428  10.698  10.402   7.086  0.1077 -0.1682  0.6555
  330MOL0     C44429  10.580  10.506   7.060 -0.8123 -0.0078 -0.2014
  330MOL0     C44430  10.446  10.429   7.037 -0.5133 -0.1907 -0.0933
  330MOL0     C44431  10.320  10.524   6.987 -0.6694 -0.2212 -0.0781
  330MOL0     N44432  10.303  10.643   7.070  1.0436  0.4977  0.2964
  330MOL0     C44433  10.396  10.748   7.083 -0.6183  0.1380 -0.0524
  330MOL0     C44434  10.360  10.803   7.196  0.0653  0.2169 -0.5875
  330MOL0     C44435  10.426  10.919   7.278 -0.1808  0.1899 -0.9992
  330MOL0     C44436  10.495  10.874   7.411 -0.2843 -0.9304 -0.1009
  330MOL0     C44437  10.618  10.792   7.371 -0.3350 -0.0564  0.2041
  330MOL0     C44438  10.739  10.875   7.337 -0.0485  0.0682 -0.0643
  330MOL0     O44439  10.851  10.796   7.299  0.0675 -0.2324 -0.6327
  330MOL0     C44440  10.934  10.733   7.391  0.9150  0.5251 -0.2345
  330MOL0     C44441  11.028  10.638   7.343 -0.1736  0.4466  0.0414
  330MOL0     C44442  11.108  10.551   7.424  0.1244  0.3437 -0.2982
  330MOL0     C44443  11.213  10.467   7.356 -0.3618 -0.2656 -0.2483
  330MOL0     C44444  11.097  10.565   7.566 -0.2467  0.1873 -0.0865
  330MOL0     C44445  11.174  10.490   7.670  0.3725 -0.0195 -1.3385
  330MOL0     O44446  11.139  10.507   7.802  0.3057 -0.1479 -0.0890
  330MOL0     C44447  11.209  10.432   7.893 -0.6075  1.1764  0.4004
  330MOL0     C44448  11.321  10.483   7.968  0.2139 -0.5212 -0.1305
  330MOL0     C44449  11.395  10.404   8.058 -0.1962  0.5742 -1.0282
  330MOL0     C44450  11.384  10.262   8.057  0.3261  1.4792 -0.5046
  330MOL0     O44451  11.467  10.194   8.133  0.1500 -0.3405  0.0117
  330MOL0     C44452  11.469  10.050   8.121  0.3720 -0.2435 -0.6602
  330MOL0     C44453  11.598   9.999   8.202 -1.0226  0.2560 -0.3251
  330MOL0     C44454  11.631   9.854   8.147  0.8672  0.0144 -0.4097
  330MOL0     C44455  11.781   9.843   8.137 -0.1758  0.0733 -0.5231
  330MOL0     C44456  11.849   9.711   8.094  0.3689 -0.0164 -1.0666
  330MOL0     C44457  11.822   9.602   8.196  0.4745  1.1174 -0.2873
  330MOL0     C44458  11.896   9.621   8.330 -0.1495 -0.5558  0.3319
  330MOL0     C44459  11.961   9.497   8.369 -0.4863  1.0113 -0.1352
  330MOL0    Cl44460  12.073   9.527   8.498  0.4477  0.5929  0.1908
  330MOL0     C44461  11.268  10.204   7.985  0.4283 -0.2066 -0.6896
  330MOL0     C44462  11.180  10.290   7.909  0.1718 -0.4690  0.1927
  330MOL0     O44463  11.266  10.410   7.632 -0.1835  0.4974 -0.1115
  330MOL0     C44464  10.998  10.667   7.612 -0.1115  0.6596 -0.1865
  330MOL0     C44465  10.918  10.746   7.528  0.6521 -0.3366  0.2182
  330MOL0     N44466  10.244  10.741   7.248 -0.3455  0.1298  0.8955
  330MOL0     N44467  10.226  10.639   7.178  0.7943 -0.3331  0.0574
  330MOL0     C44468  11.203  10.800   6.613  0.5810 -0.1786 -0.7505
  330MOL0     C44469  11.248  10.838   6.490  0.3700 -0.1946 -0.4672
  330MOL0     C44470  11.345  10.843   6.020 -0.4870  0.2619 -0.4403
  330MOL0     C44471  11.350  10.978   6.042  0.5072 -0.0768 -0.5307
  330MOL0     C44472  11.372  11.078   5.941  0.2631 -0.1478  0.7789
  330MOL0     C44473  11.409  11.029   5.815 -0.4751  0.0089  0.5571
  330MOL0     O44474  11.440  11.120   5.725  0.5800 -0.6724  0.3878
  330MOL0     C44475  11.579  11.114   5.678 -1.5915 -0.2220  0.0118
  330MOL0     C44476  11.609  11.212   5.565 -0.0486 -0.9048 -0.4394
  330MOL0     C44477  11.498  11.323   5.543 -0.9198  0.2867 -0.4372
  330MOL0     C44478  11.542  11.436   5.449  0.3437  0.2420  0.2781
  330MOL0     C44479  11.422  11.519   5.420  0.2949 -0.9672  0.3537
  330MOL0     C44480  11.333  11.583   5.371 -0.7776 -0.0142  0.6659
  330MOL0     C44481  11.425  10.891   5.790 -0.3880 -0.1716 -0.1525
  330MOL0     C44482  11.381  10.795   5.887 -0.0927  0.6407 -0.7151
  330MOL0     H44483  11.176  10.569   6.298  1.5688  0.1969  0.5460
  330MOL0     H44484  11.087  10.499   6.516 -1.9817  0.6015  1.1063
  330MOL0     H44485  11.052  10.449   6.730 -2.1100  0.8434 -1.0053
  330MOL0     H44486  11.212  10.473   6.801 -1.0119 -1.3705 -0.0614
  330MOL0     H44487  11.081  10.422   7.006  0.6295  0.0023 -0.3462
  330MOL0     H44488  11.071  10.587   7.018  4.3943 -3.0018  2.5985
  330MOL0     H44489  10.842  10.558   6.868 -0.3212 -1.4893  0.0529
  330MOL0     H44490  10.876  10.392   6.892 -0.7779  0.8786 -1.5107
  330MOL0     H44491  10.900  10.432   7.149  1.0538  0.8373  1.2709
  330MOL0     H44492  10.822  10.588   7.122 -1.4358  1.5894 -2.5942
  330MOL0     H44493  10.690  10.325   7.009  0.4698  1.4022 -1.0565
  330MOL0     H44494  10.683  10.355   7.183  1.2649  0.7325  1.3038
  330MOL0     H44495  10.570  10.564   7.153  1.5380 -1.0051  0.7578
  330MOL0     H44496  10.601  10.570   6.974 -0.5873  2.1498  1.3432
  330MOL0     H44497  10.448  10.337   6.977 -0.5283 -0.8229  0.8525
  330MOL0     H44498  10.420  10.401   7.140  0.8902 -2.3209 -0.2674
  330MOL0     H44499  10.218  10.487   6.997 -1.0845  0.6705 -0.7708
  330MOL0     H44500  10.357  10.558   6.889  0.3760  3.2823  1.3744
  330MOL0     H44501  10.475  10.769   7.012 -1.0633 -2.8796 -1.5935
  330MOL0     H44502  10.506  10.953   7.211  0.3423 -2.1177 -1.6406
  330MOL0     H44503  10.363  11.004   7.303 -0.5252 -0.5995  1.0202
  330MOL0     H44504  10.423  10.807   7.459  1.3043 -3.4803 -1.0571
  330MOL0     H44505  10.525  10.955   7.479  2.6163 -0.3710 -1.8533
  330MOL0     H44506  10.602  10.728   7.284  0.8023  1.4437 -1.1760
  330MOL0     H44507  10.626  10.713   7.446 -4.0384 -1.0672 -0.2573
  330MOL0     H44508  10.766  10.921   7.433 -1.5241 -1.7045  1.2713
  330MOL0     H44509  10.722  10.948   7.257 -1.2282 -0.4100 -0.2771
  330MOL0     H44510  11.043  10.632   7.236 -2.7672  1.4189 -0.4441
  330MOL0     H44511  11.305  10.467   7.415  0.2904  1.7652 -1.1598
  330MOL0     H44512  11.174  10.365   7.348 -1.6494  0.2838 -1.6600
  330MOL0     H44513  11.246  10.500   7.257  1.5133  0.0652  0.4409
  330MOL0     H44514  11.335  10.591   7.966 -1.7858 -0.2350 -0.4186
  330MOL0     H44515  11.476  10.455   8.109 -1.9291  0.2738  2.3616
  330MOL0     H44516  11.380  10.010   8.171  0.0204  1.5498  0.2436
  330MOL0     H44517  11.462  10.014   8.018  1.0859  0.6904 -1.0549
  330MOL0     H44518  11.693  10.053   8.188 -0.5186 -0.4172  0.4148
  330MOL0     H44519  11.597   9.992   8.311  3.1620  1.0563 -0.0310
  330MOL0     H44520  11.588   9.834   8.049 -1.8680  0.4476  0.6122
  330MOL0     H44521  11.595   9.782   8.220 -3.5705 -0.4452 -2.7461
  330MOL0     H44522  11.811   9.908   8.054  1.2622  0.6384  0.4026
  330MOL0     H44523  11.822   9.867   8.235  0.2338 -1.5875 -0.2414
  330MOL0     H44524  11.956   9.735   8.094  0.3572  0.0717 -1.8186
  330MOL0     H44525  11.820   9.682   7.992  1.5552 -0.2167 -1.3658
  330MOL0     H44526  11.716   9.574   8.198  0.8025 -0.1346  0.8132
  330MOL0     H44527  11.854   9.512   8.142 -3.0728 -1.4685  1.4834
  330MOL0     H44528  11.822   9.648   8.405 -0.6137 -2.0088  0.4287
  330MOL0     H44529  11.969   9.703   8.328 -0.7019  0.1559  3.8067
  330MOL0     H44530  12.030   9.467   8.289 -0.1173 -2.0085  1.2014
  330MOL0     H44531  11.888   9.418   8.384  1.3851 -1.4709 -2.9167
  330MOL0     H44532  11.238  10.100   7.995  0.8906 -0.4313 -1.5108
  330MOL0     H44533  11.109  10.233   7.851 -2.1840  1.2929  1.1916
  330MOL0     H44534  10.975  10.674   7.718 -0.8032 -2.1248 -0.0727
  330MOL0     H44535  10.853  10.820   7.573  0.7165  0.2686 -0.6676
  330MOL0     H44536  11.215  10.876   6.690 -1.5142  1.2083 -1.6914
  330MOL0     H44537  11.273  10.940   6.463 -1.2299 -0.0469 -1.5330
  330MOL0     H44538  11.343  11.008   6.147 -0.6558  2.3080 -1.2212
  330MOL0     H44539  11.398  11.181   5.965  3.7002  0.4654 -4.0427
  330MOL0     H44540  11.632  11.145   5.769 -0.5177 -0.0541 -0.6575
  330MOL0     H44541  11.616  11.013   5.657 -1.2673 -0.4450  1.5399
  330MOL0     H44542  11.609  11.160   5.468  1.3321 -1.8080  0.0130
  330MOL0     H44543  11.706  11.262   5.569 -0.4395  0.3683 -3.6927
  330MOL0     H44544  11.464  11.382   5.628 -0.8168  5.2291 -3.4197
  330MOL0     H44545  11.413  11.279   5.490 -0.6962  1.1832 -1.5746
  330MOL0     H44546  11.575  11.390   5.356 -1.1900 -1.1207  0.3729
  330MOL0     H44547  11.633  11.482   5.491  1.8587 -1.4763 -0.9561
  330MOL0     H44548  11.263  11.648   5.323  0.8022  0.3318 -1.2686
  330MOL0     H44549  11.483  10.856   5.706  1.6025  0.8356  0.7408
  330MOL0     H44550  11.379  10.690   5.860  1.1775  0.4648 -0.1971
  331MOL0     O44551   1.677   3.654   8.205  0.4152 -0.5401 -0.2386
  331MOL0     C44552   1.641   3.568   8.286  0.3328 -0.8558  0.2100
  331MOL0     O44553   1.573   3.587   8.406  0.9694 -0.3122 -0.4442
  331MOL0     C44554   1.543   3.721   8.432 -1.2186  0.6940 -0.9447
  331MOL0     C44555   1.642   3.818   8.437  0.1131 -0.4045  0.1426
  331MOL0     C44556   1.607   3.948   8.472  0.0282  0.5694  0.0992
  331MOL0     C44557   1.481   3.987   8.512 -0.4525  0.9859  1.4048
  331MOL0     O44558   1.452   4.113   8.559 -0.0876 -0.2259  0.8919
  331MOL0     C44559   1.561   4.215   8.574  0.0690 -0.4521 -0.1278
  331MOL0     C44560   1.506   4.349   8.650 -1.0207  0.4200 -0.3691
  331MOL0     C44561   1.473   4.448   8.539 -0.8906 -1.3985  0.7978
  331MOL0     C44562   1.609   4.529   8.505  0.1707  0.2585 -0.0086
  331MOL0     C44563   1.593   4.648   8.398  0.4092  0.0532 -0.7607
  331MOL0     C44564   1.511   4.765   8.473  0.5758 -0.0623  0.8738
  331MOL0     C44565   1.503   4.900   8.397 -0.1344 -0.5699  0.0194
  331MOL0     C44566   1.443   5.017   8.477 -0.5003 -0.6476  0.2699
  331MOL0     N44567   1.511   5.043   8.603  1.2812  0.0214 -0.4269
  331MOL0     C44568   1.646   5.077   8.607 -0.2456  0.9566  0.7901
  331MOL0     C44569   1.669   5.079   8.740 -0.5416 -0.7141  0.0523
  331MOL0     C44570   1.793   5.109   8.815 -0.2107 -0.4547 -0.6241
  331MOL0     C44571   1.775   5.149   8.969  1.6310 -0.2857  0.3765
  331MOL0     C44572   1.890   5.207   9.036 -0.3070 -0.1728  0.8088
  331MOL0     C44573   2.006   5.107   9.049  0.0174 -0.1772  0.8359
  331MOL0     O44574   2.112   5.154   9.133  0.4963 -0.5405 -0.2290
  331MOL0     C44575   2.088   5.134   9.270 -0.9273  0.6600 -0.2676
  331MOL0     C44576   2.120   5.009   9.328 -0.1738  1.0962 -0.1026
  331MOL0     C44577   2.122   4.987   9.463 -0.5942  0.5627  0.6236
  331MOL0     C44578   2.157   4.853   9.499 -0.4830  1.2200  0.0210
  331MOL0     C44579   2.066   5.080   9.554 -0.8277  0.0680  0.4118
  331MOL0     C44580   2.046   5.041   9.695 -0.4567  1.0562 -0.3291
  331MOL0     O44581   2.007   4.920   9.727  0.7787 -0.5285  0.1434
  331MOL0     C44582   1.963   4.892   9.855  0.3465  0.0432 -0.1810
  331MOL0     C44583   1.876   4.782   9.854  0.0435  0.5977 -0.3662
  331MOL0     C44584   1.795   4.748   9.966 -0.7712  0.4742 -0.3536
  331MOL0     C44585   1.818   4.803  10.096  0.0729  0.2851 -0.6720
  331MOL0     O44586   1.738   4.757  10.207 -0.7170 -0.0652 -0.0641
  331MOL0     C44587   1.737   4.617  10.232  0.1302 -0.6060  1.0067
  331MOL0     C44588   1.640   4.598  10.347 -0.7606 -0.2762  0.7721
  331MOL0     C44589   1.697   4.646  10.485  1.7862 -0.2730 -0.1415
  331MOL0     C44590   1.765   4.780  10.490 -0.4307 -0.7487 -0.2360
  331MOL0     C44591   1.784   4.813  10.634  0.4743  0.6273 -0.5031
  331MOL0     C44592   1.882   4.940  10.645  0.2351  0.3621 -0.0218
  331MOL0     C44593   2.031   4.920  10.672 -0.6366 -0.1862  0.2225
  331MOL0     C44594   2.087   5.010  10.781 -1.2714  0.5138 -0.1700
  331MOL0    Cl44595   2.115   5.180  10.708 -0.2789 -0.3975 -0.1138
  331MOL0     C44596   1.898   4.914  10.097 -0.4624 -0.8191 -0.3036
  331MOL0     C44597   1.966   4.958   9.979  0.8432  1.0134  0.8300
  331MOL0     O44598   2.063   5.128   9.783 -0.7817  0.7935  0.4051
  331MOL0     C44599   2.039   5.207   9.502  0.0697 -0.5949 -0.3562
  331MOL0     C44600   2.054   5.235   9.363  0.6705 -0.5623 -0.3772
  331MOL0     N44601   1.549   5.067   8.806  0.0156  0.4804 -0.3667
  331MOL0     N44602   1.455   5.040   8.727 -0.1774  0.0146  0.2595
  331MOL0     C44603   1.378   3.885   8.508 -0.6764  0.0644  0.0486
  331MOL0     C44604   1.415   3.755   8.462 -0.2327 -0.2990 -0.2875
  331MOL0     C44605   1.661   3.423   8.232  0.2267  0.1399 -0.8341
  331MOL0     C44606   1.707   3.399   8.104  0.0775  0.4730  0.1149
  331MOL0     C44607   1.708   3.264   8.059 -0.1179 -0.4201 -0.0106
  331MOL0     C44608   1.675   3.153   8.136 -0.9303  0.4792  0.2669
  331MOL0     O44609   1.677   3.021   8.093  0.2791 -0.0015 -1.2106
  331MOL0     C44610   1.775   2.967   7.998 -0.2169  0.1393  0.7557
  331MOL0     C44611   1.766   2.814   7.980 -0.2062 -0.4324  0.4979
  331MOL0     C44612   1.727   2.743   8.113 -0.5476 -0.2778  0.1418
  331MOL0     C44613   1.745   2.594   8.099  0.2133  0.5369 -0.8226
  331MOL0     C44614   1.649   2.538   8.001  0.0721  0.4895 -0.1469
  331MOL0     C44615   1.576   2.499   7.911 -0.5235 -0.1681  0.1513
  331MOL0     C44616   1.626   3.174   8.262  0.5815  0.0127  0.0745
  331MOL0     C44617   1.618   3.312   8.310 -0.1515 -0.6109 -0.6772
  331MOL0     H44618   1.743   3.779   8.421  0.8402  0.1777  2.8482
  331MOL0     H44619   1.697   4.008   8.478  0.4720  0.3086 -2.6330
  331MOL0     H44620   1.630   4.159   8.639 -2.8677 -3.0161  1.0447
  331MOL0     H44621   1.614   4.242   8.482  3.7291 -1.1375  1.5729
  331MOL0     H44622   1.414   4.340   8.708  0.0240 -0.6032  1.2252
  331MOL0     H44623   1.578   4.388   8.723 -1.7689 -0.5449  0.9342
  331MOL0     H44624   1.427   4.402   8.452 -1.1612  0.5739 -0.1552
  331MOL0     H44625   1.401   4.521   8.577 -0.9639  0.0968 -1.9338
  331MOL0     H44626   1.632   4.586   8.596  2.5519  0.7579 -0.8691
  331MOL0     H44627   1.697   4.468   8.485  2.1170  2.9005  0.0271
  331MOL0     H44628   1.694   4.690   8.385  1.7989 -0.9612  4.3511
  331MOL0     H44629   1.549   4.606   8.307  1.3058 -4.4368  0.6529
  331MOL0     H44630   1.411   4.729   8.500  1.1128 -1.8480  0.5395
  331MOL0     H44631   1.559   4.789   8.569  0.5663  0.7254  0.6889
  331MOL0     H44632   1.601   4.934   8.364 -0.6128  1.9050  0.9458
  331MOL0     H44633   1.445   4.891   8.304  0.9148  1.4064 -0.9010
  331MOL0     H44634   1.338   4.994   8.494 -0.8002 -0.2989 -1.0140
  331MOL0     H44635   1.454   5.110   8.420 -0.6505  0.7852  2.4969
  331MOL0     H44636   1.723   5.076   8.530 -0.5312 -5.9705 -0.0644
  331MOL0     H44637   1.853   5.018   8.820  0.3236 -0.0495  1.5711
  331MOL0     H44638   1.850   5.189   8.767  1.1444  0.5280  2.3716
  331MOL0     H44639   1.728   5.068   9.027  2.2834 -1.6405 -0.9340
  331MOL0     H44640   1.704   5.232   8.960 -0.8431 -2.3125 -0.1913
  331MOL0     H44641   1.869   5.235   9.140  1.8289 -1.1965  1.5903
  331MOL0     H44642   1.917   5.291   8.972 -3.0507 -2.8620 -4.5432
  331MOL0     H44643   2.043   5.079   8.951 -2.9926  0.1366 -0.4910
  331MOL0     H44644   1.969   5.016   9.097  1.1057 -2.0519 -1.6791
  331MOL0     H44645   2.158   4.930   9.264 -0.2382 -1.2277  2.5593
  331MOL0     H44646   2.212   4.817   9.412 -0.0190  2.2069 -0.1150
  331MOL0     H44647   2.234   4.836   9.575 -0.2508 -1.4742 -0.7211
  331MOL0     H44648   2.084   4.773   9.511  0.5159  0.4366  1.0954
  331MOL0     H44649   1.853   4.729   9.762  2.1178 -2.5241  0.7688
  331MOL0     H44650   1.730   4.662   9.956 -1.5842  0.9753  0.4663
  331MOL0     H44651   1.725   4.551  10.145  0.5634 -0.4328  0.8100
  331MOL0     H44652   1.836   4.584  10.265  1.4839 -0.4392 -2.4742
  331MOL0     H44653   1.543   4.638  10.314 -0.1150  0.9135  0.2728
  331MOL0     H44654   1.634   4.490  10.363  1.1462 -0.7701 -1.3920
  331MOL0     H44655   1.776   4.574  10.510  0.8746 -1.0802  0.5164
  331MOL0     H44656   1.619   4.636  10.561  1.5760 -1.7103 -0.5084
  331MOL0     H44657   1.862   4.779  10.438 -0.8495 -0.3289 -1.0561
  331MOL0     H44658   1.711   4.857  10.434 -0.1052 -1.4013 -1.5020
  331MOL0     H44659   1.826   4.727  10.687  0.4850  0.7423 -0.3244
  331MOL0     H44660   1.686   4.850  10.666 -0.1889  1.0272 -2.7904
  331MOL0     H44661   1.876   4.987  10.546  1.5911  0.6907  0.0445
  331MOL0     H44662   1.840   5.016  10.711 -2.7271 -0.5480 -0.6628
  331MOL0     H44663   2.086   4.932  10.578 -1.7255  3.1048 -0.1165
  331MOL0     H44664   2.048   4.817  10.706 -0.1871 -0.1670  0.0620
  331MOL0     H44665   2.181   4.971  10.821 -3.2404 -0.1298  4.5745
  331MOL0     H44666   2.034   5.002  10.877 -2.4649 -3.6974 -0.9713
  331MOL0     H44667   1.919   4.961  10.193  1.5997 -2.4303  0.1204
  331MOL0     H44668   2.014   5.052  10.003 -1.3473  2.9155 -1.5371
  331MOL0     H44669   2.031   5.284   9.578 -0.6919 -0.6110 -0.4100
  331MOL0     H44670   2.053   5.336   9.322 -1.6557 -1.6444 -3.3736
  331MOL0     H44671   1.281   3.912   8.547 -0.4643  2.2249 -0.7834
  331MOL0     H44672   1.331   3.687   8.466  0.7419 -1.7158 -2.2899
  331MOL0     H44673   1.745   3.485   8.052 -2.4296  2.2042  0.9674
  331MOL0     H44674   1.762   3.246   7.967  0.2227  0.9082 -0.0879
  331MOL0     H44675   1.752   3.016   7.902  1.4334 -1.3578 -0.4630
  331MOL0     H44676   1.875   2.990   8.033  0.1238  1.8752 -1.1379
  331MOL0     H44677   1.859   2.785   7.932 -2.2909 -4.9171 -1.4405
  331MOL0     H44678   1.697   2.793   7.897 -0.1952  0.5854  0.2172
  331MOL0     H44679   1.628   2.782   8.135  1.0023  2.5476  2.8961
  331MOL0     H44680   1.783   2.773   8.202 -6.7910 -1.3254  5.1205
  331MOL0     H44681   1.712   2.560   8.198 -1.1117  0.3008 -1.3263
  331MOL0     H44682   1.851   2.574   8.083 -0.1675 -0.5595 -2.0830
  331MOL0     H44683   1.504   2.474   7.837 -1.3877 -1.6687  1.4298
  331MOL0     H44684   1.598   3.094   8.330  2.5480 -2.0807 -1.4473
  331MOL0     H44685   1.585   3.332   8.412  1.5335 -0.7768 -0.0712
  332MOL0     O44686   6.783   7.213   1.272 -0.3975  0.9153  0.0466
  332MOL0     C44687   6.855   7.318   1.270 -0.5927  0.5199  0.6567
  332MOL0     O44688   6.817   7.440   1.209 -0.2510 -0.4088  0.0189
  332MOL0     C44689   6.679   7.460   1.191 -0.2185  0.7620  0.6777
  332MOL0     C44690   6.607   7.518   1.295 -1.2910  0.2106 -0.6117
  332MOL0     C44691   6.471   7.541   1.280 -0.3394  0.5212  0.7905
  332MOL0     C44692   6.407   7.507   1.163 -0.0182  0.0953 -0.2025
  332MOL0     O44693   6.270   7.543   1.157  0.1289 -0.3041 -0.9185
  332MOL0     C44694   6.198   7.470   1.256 -0.1001 -0.6897  0.1786
  332MOL0     C44695   6.054   7.525   1.272  0.7058 -0.8909 -0.3332
  332MOL0     C44696   5.983   7.537   1.134  0.7925 -0.9118 -1.0763
  332MOL0     C44697   5.862   7.637   1.152 -0.0471  0.1055 -0.5993
  332MOL0     C44698   5.817   7.672   1.013 -0.0408 -0.0418  0.2576
  332MOL0     C44699   5.682   7.739   0.992  1.2431  0.4395 -0.4417
  332MOL0     C44700   5.683   7.884   1.048 -1.1293  0.1711  0.8196
  332MOL0     C44701   5.561   7.963   1.010  0.1125  0.0962  0.2157
  332MOL0     N44702   5.542   7.975   0.859  0.1773  0.0388 -0.4675
  332MOL0     C44703   5.553   8.097   0.797  0.1227 -0.7025  0.0768
  332MOL0     C44704   5.510   8.079   0.671  0.2738  0.6389  0.0846
  332MOL0     C44705   5.493   8.180   0.565 -0.2766 -0.4654  1.0639
  332MOL0     C44706   5.540   8.127   0.428 -0.6583 -0.1715 -0.1858
  332MOL0     C44707   5.509   8.232   0.333 -0.2668 -0.2193  0.4391
  332MOL0     C44708   5.501   8.169   0.194 -0.1795  0.0054 -0.2967
  332MOL0     O44709   5.421   8.253   0.111  0.2263 -0.1693  0.4970
  332MOL0     C44710   5.475   8.343   0.032  0.0386 -0.3086  0.6927
  332MOL0     C44711   5.606   8.391   0.023  0.2344 -0.2749  0.2630
  332MOL0     C44712   5.650   8.466  -0.085  0.4942  0.9529 -0.0981
  332MOL0     C44713   5.800   8.487  -0.100  0.1959  0.3258 -0.5911
  332MOL0     C44714   5.552   8.502  -0.181  0.1960  0.2345 -0.0258
  332MOL0     C44715   5.579   8.592  -0.300 -0.5347 -0.0082  0.2259
  332MOL0     O44716   5.488   8.594  -0.406  0.3727 -0.1273 -0.1349
  332MOL0     C44717   5.516   8.624  -0.531 -0.4634 -0.8884 -0.2397
  332MOL0     C44718   5.604   8.543  -0.596 -0.4860  0.6791 -0.7555
  332MOL0     C44719   5.632   8.570  -0.733 -0.3411  0.6779 -0.1551
  332MOL0     C44720   5.577   8.683  -0.798 -0.2023  0.6271 -0.7477
  332MOL0     O44721   5.596   8.732  -0.925  0.3105  0.0764 -0.7651
  332MOL0     C44722   5.684   8.666  -1.011 -0.5420 -1.2032  0.2707
  332MOL0     C44723   5.742   8.768  -1.105 -0.0516  0.8510 -0.2925
  332MOL0     C44724   5.856   8.714  -1.191 -1.0677  0.7088 -0.4919
  332MOL0     C44725   5.989   8.719  -1.110  0.4373  0.1529 -0.1809
  332MOL0     C44726   6.118   8.677  -1.193 -0.1036  0.3847 -0.9238
  332MOL0     C44727   6.236   8.663  -1.104  0.7704 -0.0843 -0.1572
  332MOL0     C44728   6.285   8.787  -1.018 -0.1310  0.1839 -0.1440
  332MOL0     C44729   6.321   8.919  -1.099  0.8715 -0.4819 -0.2733
  332MOL0    Cl44730   6.461   8.883  -1.206  0.5782 -0.1688 -0.1010
  332MOL0     C44731   5.486   8.757  -0.726  0.5971 -0.5992 -0.6835
  332MOL0     C44732   5.445   8.729  -0.597 -0.6134 -0.2380 -0.6747
  332MOL0     O44733   5.680   8.665  -0.294 -0.1440  0.0224 -0.1236
  332MOL0     C44734   5.419   8.459  -0.170 -0.0435  0.4975 -0.0225
  332MOL0     C44735   5.386   8.384  -0.064  0.2611 -0.2637 -1.1401
  332MOL0     N44736   5.467   7.950   0.655 -0.3665  0.6272 -1.0223
  332MOL0     N44737   5.487   7.882   0.772  0.1830 -0.6706 -0.3924
  332MOL0     C44738   6.488   7.441   1.067  1.0426 -0.4121  0.7789
  332MOL0     C44739   6.615   7.414   1.076 -0.4590 -0.3756  0.5413
  332MOL0     C44740   6.981   7.305   1.342  0.8008  0.5477  0.6829
  332MOL0     C44741   7.032   7.418   1.409  0.5779  0.5184 -0.2412
  332MOL0     C44742   7.163   7.415   1.455  0.1299 -0.2425  0.4086
  332MOL0     C44743   7.239   7.298   1.454 -0.1009 -0.2567  0.0259
  332MOL0     O44744   7.378   7.298   1.499  0.0896  0.0775 -0.7032
  332MOL0     C44745   7.440   7.430   1.488  0.0798  0.0474 -0.5178
  332MOL0     C44746   7.592   7.432   1.510  0.9273 -0.4393  0.5273
  332MOL0     C44747   7.619   7.423   1.658  0.0362 -0.9047  0.4813
  332MOL0     C44748   7.757   7.383   1.681  0.2905 -0.1722  1.0698
  332MOL0     C44749   7.788   7.343   1.816  0.1052  0.2820 -0.5145
  332MOL0     C44750   7.819   7.317   1.928  0.1798 -0.0624  0.6100
  332MOL0     C44751   7.175   7.180   1.407  0.0848 -0.3036  0.9179
  332MOL0     C44752   7.047   7.177   1.348  0.0687 -0.0679  0.3753
  332MOL0     H44753   6.660   7.549   1.385  0.3474  0.0146 -1.4699
  332MOL0     H44754   6.424   7.595   1.361 -1.0740 -1.7312  1.9697
  332MOL0     H44755   6.194   7.368   1.216  0.0072 -0.0934 -1.4172
  332MOL0     H44756   6.254   7.473   1.350  1.7044  1.5121 -0.8532
  332MOL0     H44757   6.012   7.449   1.338 -0.0663 -0.0305  0.1783
  332MOL0     H44758   6.061   7.622   1.320  3.0118  0.1184 -2.4609
  332MOL0     H44759   6.055   7.580   1.063  0.8444  0.4830 -0.2167
  332MOL0     H44760   5.947   7.440   1.098  0.5703 -0.9804 -0.6726
  332MOL0     H44761   5.782   7.602   1.217  0.0304 -1.2178 -1.1820
  332MOL0     H44762   5.894   7.728   1.204  3.2374 -2.5098  2.4325
  332MOL0     H44763   5.899   7.729   0.967 -0.8320  1.1375  0.2652
  332MOL0     H44764   5.809   7.577   0.960  0.6716  0.1034 -0.1209
  332MOL0     H44765   5.662   7.729   0.885  2.2227 -1.8603 -0.4722
  332MOL0     H44766   5.605   7.687   1.049  1.1668  0.5243 -0.4658
  332MOL0     H44767   5.690   7.883   1.157 -1.4070 -0.6220  0.8362
  332MOL0     H44768   5.762   7.930   0.987 -1.4530  1.8189  1.5863
  332MOL0     H44769   5.579   8.065   1.044 -1.1859  0.2829  0.3953
  332MOL0     H44770   5.476   7.914   1.060  0.7016 -0.6347  0.5165
  332MOL0     H44771   5.578   8.192   0.844 -1.3551  0.7942 -2.0415
  332MOL0     H44772   5.388   8.210   0.559  0.9122  4.3795 -0.2693
  332MOL0     H44773   5.561   8.263   0.586 -1.0988  0.3058  0.7420
  332MOL0     H44774   5.472   8.045   0.403 -0.2611 -1.0403  1.4206
  332MOL0     H44775   5.643   8.091   0.420 -0.6892 -0.2742 -0.1265
  332MOL0     H44776   5.592   8.304   0.336 -0.9621  0.5926  0.4810
  332MOL0     H44777   5.408   8.266   0.358 -0.8916 -1.7963  0.1388
  332MOL0     H44778   5.455   8.070   0.199 -1.0998  0.3452 -1.3456
  332MOL0     H44779   5.602   8.146   0.160 -0.1171 -3.3412  1.6628
  332MOL0     H44780   5.686   8.362   0.091 -0.1992 -2.2136  0.0228
  332MOL0     H44781   5.851   8.429  -0.023 -2.9435 -1.4427  0.3501
  332MOL0     H44782   5.835   8.442  -0.193  0.2873  1.3253 -1.0607
  332MOL0     H44783   5.834   8.591  -0.093  0.8787  0.0931 -0.4388
  332MOL0     H44784   5.643   8.453  -0.549 -0.5204  0.7441 -0.6015
  332MOL0     H44785   5.698   8.505  -0.791  0.9359  1.4122  0.4167
  332MOL0     H44786   5.764   8.631  -0.944 -0.2114  2.0212  1.7514
  332MOL0     H44787   5.638   8.584  -1.066 -0.0166 -0.7697 -0.8369
  332MOL0     H44788   5.661   8.795  -1.174 -0.4783 -0.4068 -0.3036
  332MOL0     H44789   5.772   8.857  -1.049  0.8625 -1.8605  3.9245
  332MOL0     H44790   5.871   8.772  -1.283 -1.8125  2.2004  0.2792
  332MOL0     H44791   5.846   8.610  -1.221  1.4927  0.6499 -1.3818
  332MOL0     H44792   6.015   8.818  -1.071  1.8566 -0.2929  0.0894
  332MOL0     H44793   5.979   8.655  -1.021 -1.4896  0.4307 -0.1624
  332MOL0     H44794   6.149   8.739  -1.277 -1.4284  1.2110 -0.8324
  332MOL0     H44795   6.097   8.580  -1.238  0.3690  0.0071 -0.3461
  332MOL0     H44796   6.219   8.584  -1.030 -0.5549  0.7292  0.4529
  332MOL0     H44797   6.327   8.617  -1.142  1.9871  2.6185 -0.7419
  332MOL0     H44798   6.364   8.752  -0.951  3.2713  1.2812 -3.2095
  332MOL0     H44799   6.202   8.813  -0.952 -0.0030  0.7498 -0.1989
  332MOL0     H44800   6.353   8.984  -1.017  1.3408 -0.5226 -0.4203
  332MOL0     H44801   6.253   8.968  -1.170  1.9919 -0.6751 -1.5207
  332MOL0     H44802   5.447   8.848  -0.771  0.2366 -0.5634 -0.3068
  332MOL0     H44803   5.371   8.788  -0.544  1.0255 -0.2890  1.8412
  332MOL0     H44804   5.337   8.498  -0.231  0.0063 -1.2802 -1.3030
  332MOL0     H44805   5.282   8.356  -0.050  0.6849 -2.0677 -1.2635
  332MOL0     H44806   6.436   7.407   0.978 -0.0343  1.9692  0.4003
  332MOL0     H44807   6.675   7.374   0.995 -1.9206  0.3618 -0.9679
  332MOL0     H44808   6.980   7.512   1.401 -0.6482 -0.1608 -0.5486
  332MOL0     H44809   7.206   7.509   1.486 -0.6546  0.0252  0.6998
  332MOL0     H44810   7.426   7.458   1.384 -0.5364  3.9197  0.4249
  332MOL0     H44811   7.395   7.505   1.554  2.6317  1.1933  0.0270
  332MOL0     H44812   7.630   7.527   1.472 -1.4160  0.7619  0.9956
  332MOL0     H44813   7.629   7.349   1.449 -2.0934 -0.2757 -1.7609
  332MOL0     H44814   7.544   7.364   1.710 -0.3024 -0.5405  0.4055
  332MOL0     H44815   7.609   7.520   1.709 -0.1043 -1.7601  2.1558
  332MOL0     H44816   7.828   7.466   1.672  1.3748 -1.2855 -2.9980
  332MOL0     H44817   7.796   7.308   1.611  3.4155  0.2004  2.2537
  332MOL0     H44818   7.849   7.297   2.029  1.5495  0.3583  0.2981
  332MOL0     H44819   7.235   7.089   1.407  2.2103  1.0297  1.9549
  332MOL0     H44820   7.004   7.089   1.301 -0.8504  1.2377 -1.3699
  333MOL0     O44821  11.016   1.284   6.067  0.2112 -0.5952  0.0049
  333MOL0     C44822  10.922   1.214   6.015  0.1205  0.7012  0.0698
  333MOL0     O44823  10.922   1.077   6.003 -0.2861  0.0337 -0.3396
  333MOL0     C44824  11.023   0.991   6.052  0.9193  0.6110  1.1287
  333MOL0     C44825  11.159   1.020   6.029 -0.3783  0.2265 -0.2036
  333MOL0     C44826  11.259   0.929   6.049  0.3848  0.6215 -0.0583
  333MOL0     C44827  11.233   0.804   6.113  0.5797  0.0517  0.6496
  333MOL0     O44828  11.321   0.710   6.144  0.1791  0.1101 -0.0276
  333MOL0     C44829  11.448   0.709   6.085 -0.0501 -1.0261  0.0638
  333MOL0     C44830  11.549   0.673   6.191 -0.1380 -0.8700  0.7705
  333MOL0     C44831  11.514   0.560   6.282 -0.5113  0.9120  0.5686
  333MOL0     C44832  11.496   0.425   6.203 -1.0510 -1.2425 -0.0680
  333MOL0     C44833  11.466   0.307   6.282  0.1310  0.2472  0.0972
  333MOL0     C44834  11.593   0.255   6.346  0.7740  0.0030  0.0574
  333MOL0     C44835  11.574   0.116   6.416  0.2633  0.3838  0.0945
  333MOL0     C44836  11.695   0.077   6.499  0.8343 -0.2308  0.7601
  333MOL0     N44837  11.704   0.145   6.629  0.0367  0.3539  0.1335
  333MOL0     C44838  11.628   0.136   6.734  0.0071 -0.1309  0.1114
  333MOL0     C44839  11.677   0.231   6.820  0.6016  0.1671 -0.7930
  333MOL0     C44840  11.639   0.274   6.963  0.2999  0.1094  0.1193
  333MOL0     C44841  11.708   0.205   7.088 -1.2163 -0.7810 -0.3684
  333MOL0     C44842  11.656   0.068   7.111 -0.4926  0.6154  0.0524
  333MOL0     C44843  11.703   0.002   7.245 -0.5843  0.1131  0.2908
  333MOL0     O44844  11.653   0.057   7.369  0.0596  0.1551 -0.4574
  333MOL0     C44845  11.741   0.100   7.470 -0.0625  0.5559  0.0926
  333MOL0     C44846  11.824   0.202   7.442  0.6500 -0.3876  0.2677
  333MOL0     C44847  11.911   0.258   7.538  0.2202  0.1342  1.3869
  333MOL0     C44848  12.018   0.354   7.472  0.4066  0.1318  0.2239
  333MOL0     C44849  11.902   0.208   7.676 -0.5278 -0.2030 -0.0769
  333MOL0     C44850  12.009   0.221   7.776  0.5224 -0.1037 -0.3555
  333MOL0     O44851  11.968   0.249   7.908 -0.4547 -0.0481 -0.1192
  333MOL0     C44852  12.071   0.250   7.996 -0.3885  0.0180  0.3647
  333MOL0     C44853  12.106   0.360   8.074 -0.4017  0.4700 -0.4159
  333MOL0     C44854  12.211   0.354   8.167  0.8664  0.1640  0.0321
  333MOL0     C44855  12.274   0.225   8.180  0.2257  0.0167  0.2954
  333MOL0     O44856  12.375   0.210   8.267 -0.1635 -0.3018 -0.6307
  333MOL0     C44857  12.371   0.091   8.353 -0.4656 -0.3976  0.4342
  333MOL0     C44858  12.477   0.088   8.469 -0.2479 -1.4103  0.1518
  333MOL0     C44859  12.463  -0.040   8.555 -0.0077  0.3968 -0.3783
  333MOL0     C44860  12.449  -0.013   8.711  0.0573 -0.3447 -0.1983
  333MOL0     C44861  12.298   0.019   8.746 -1.4413  0.4291 -0.4494
  333MOL0     C44862  12.281   0.063   8.890 -0.2101  0.3133  0.3226
  333MOL0     C44863  12.328  -0.044   8.987  0.2285  0.4339  0.8279
  333MOL0     C44864  12.316   0.011   9.131 -0.2842 -0.4090  0.4843
  333MOL0    Cl44865  12.142   0.013   9.193  0.4792  0.1082  0.0136
  333MOL0     C44866  12.234   0.113   8.100  0.7685  0.3601  0.5972
  333MOL0     C44867  12.129   0.127   8.016 -0.0978  0.2466  0.8943
  333MOL0     O44868  12.125   0.223   7.731 -0.6427  0.1168 -0.3964
  333MOL0     C44869  11.810   0.112   7.704 -0.0854  0.1964  0.4700
  333MOL0     C44870  11.747   0.050   7.596 -0.3706 -0.8538  0.2278
  333MOL0     N44871  11.792   0.286   6.771 -0.1092  0.1343  1.5668
  333MOL0     N44872  11.801   0.238   6.652  0.6013  0.8446 -0.3593
  333MOL0     C44873  11.099   0.781   6.154 -0.2060 -0.8312  0.0020
  333MOL0     C44874  11.002   0.868   6.113  0.4880 -1.3250 -1.1184
  333MOL0     C44875  10.796   1.286   5.960  0.9849  0.0445  0.4711
  333MOL0     C44876  10.689   1.217   5.897 -0.7839  0.3330 -0.2771
  333MOL0     C44877  10.568   1.290   5.865  0.8606  1.0445 -0.5097
  333MOL0     C44878  10.537   1.423   5.914 -0.5971  0.3096 -0.1572
  333MOL0     O44879  10.420   1.493   5.898  0.3039  0.2530 -0.7176
  333MOL0     C44880  10.325   1.479   6.003 -0.2874  0.3174  0.1642
  333MOL0     C44881  10.308   1.614   6.069 -0.7134 -0.2758 -0.2408
  333MOL0     C44882  10.193   1.621   6.172  0.2456 -0.2474  0.6746
  333MOL0     C44883  10.053   1.610   6.107  0.0630 -0.4156  0.7591
  333MOL0     C44884  10.008   1.468   6.113  0.0707  0.8233 -0.2965
  333MOL0     C44885   9.977   1.352   6.105  0.6507  0.3927 -0.5633
  333MOL0     C44886  10.652   1.477   5.969 -0.0073 -0.9362 -0.7018
  333MOL0     C44887  10.776   1.418   5.990  0.0581  0.6123  0.0917
  333MOL0     H44888  11.202   1.101   5.970  1.1028 -0.6828 -0.4388
  333MOL0     H44889  11.359   0.959   6.022 -0.4065  3.1791 -0.3376
  333MOL0     H44890  11.446   0.639   6.000 -0.2394 -0.4871 -0.3880
  333MOL0     H44891  11.489   0.804   6.050  1.1951 -2.1776 -1.7736
  333MOL0     H44892  11.638   0.668   6.127  1.5253 -2.1228  3.0347
  333MOL0     H44893  11.575   0.761   6.251 -0.8301  0.2158 -0.4661
  333MOL0     H44894  11.603   0.556   6.346  0.8718  1.5274 -1.2555
  333MOL0     H44895  11.425   0.587   6.340 -1.2437  0.3609 -0.2654
  333MOL0     H44896  11.411   0.448   6.138 -2.0242  0.1033  1.5831
  333MOL0     H44897  11.577   0.408   6.132  0.2791  3.6753 -0.1256
  333MOL0     H44898  11.388   0.325   6.356 -0.6834  1.7318 -1.0643
  333MOL0     H44899  11.406   0.238   6.221 -2.5627  1.1644  1.5523
  333MOL0     H44900  11.661   0.239   6.262 -0.5412 -3.5349 -0.5022
  333MOL0     H44901  11.625   0.331   6.418  0.0390 -0.0256  0.4200
  333MOL0     H44902  11.488   0.113   6.483  0.3967 -1.7205  0.2330
  333MOL0     H44903  11.554   0.042   6.338  2.8919 -0.6876  0.3688
  333MOL0     H44904  11.780   0.098   6.433 -1.3729  1.4063 -1.8038
  333MOL0     H44905  11.693  -0.031   6.516 -2.6702 -0.4782 -0.3654
  333MOL0     H44906  11.542   0.071   6.744 -0.1178 -0.3691 -2.1160
  333MOL0     H44907  11.668   0.378   6.975 -1.0496  0.4301  0.7725
  333MOL0     H44908  11.530   0.263   6.967  0.5596 -3.2366  1.8343
  333MOL0     H44909  11.698   0.272   7.173 -3.7455 -1.9195  0.3327
  333MOL0     H44910  11.809   0.183   7.053 -1.8525  1.1949 -3.8787
  333MOL0     H44911  11.691   0.011   7.025  0.8657  1.8457 -0.2477
  333MOL0     H44912  11.547   0.059   7.114 -0.5778  1.5159  3.2331
  333MOL0     H44913  11.812   0.014   7.242 -0.6621  0.8100 -0.3934
  333MOL0     H44914  11.676  -0.104   7.245 -0.6951  0.1265 -0.9328
  333MOL0     H44915  11.834   0.234   7.339 -0.7865 -2.2529 -0.5066
  333MOL0     H44916  12.017   0.361   7.363 -2.1562  0.3341  0.1915
  333MOL0     H44917  12.008   0.457   7.508  1.9910 -0.8697  3.9235
  333MOL0     H44918  12.112   0.319   7.515 -2.1313 -3.4480  3.5946
  333MOL0     H44919  12.067   0.454   8.036 -1.1713  1.4236  2.4400
  333MOL0     H44920  12.265   0.424   8.230  2.8244  0.0076 -1.3573
  333MOL0     H44921  12.277   0.071   8.405 -0.1712 -1.9610  0.4209
  333MOL0     H44922  12.386  -0.004   8.300 -2.3514 -1.6396  2.0061
  333MOL0     H44923  12.581   0.111   8.443 -0.8123  3.4252  1.2008
  333MOL0     H44924  12.443   0.177   8.522 -0.7997 -1.9468  0.7201
  333MOL0     H44925  12.556  -0.098   8.552 -1.4438 -2.0907 -0.1544
  333MOL0     H44926  12.377  -0.104   8.533 -1.7057  2.3931  0.1163
  333MOL0     H44927  12.479  -0.105   8.762  1.8182  0.0861 -0.3910
  333MOL0     H44928  12.519   0.064   8.745  0.8433 -1.4593  0.7677
  333MOL0     H44929  12.231  -0.066   8.733 -4.1761  1.7867  3.1581
  333MOL0     H44930  12.270   0.103   8.681  2.5399  1.0631 -1.6118
  333MOL0     H44931  12.348   0.147   8.910 -0.3881  0.8059 -1.0887
  333MOL0     H44932  12.179   0.088   8.919 -1.1714 -0.8817 -1.8383
  333MOL0     H44933  12.435  -0.058   8.967 -0.1686 -1.0050 -0.5233
  333MOL0     H44934  12.282  -0.142   8.970  1.1471  0.5749 -3.8958
  333MOL0     H44935  12.350   0.114   9.123 -0.4007 -0.5336 -2.8814
  333MOL0     H44936  12.376  -0.059   9.190 -1.4165 -2.5361 -0.7645
  333MOL0     H44937  12.277   0.014   8.115  2.3529  1.0961  1.0671
  333MOL0     H44938  12.090   0.037   7.969 -1.2471 -0.0321  2.3143
  333MOL0     H44939  11.799   0.071   7.804 -1.1569 -4.1072 -1.1855
  333MOL0     H44940  11.674  -0.028   7.616  0.7304 -2.0686 -0.3206
  333MOL0     H44941  11.074   0.690   6.209 -3.0296 -1.2849 -1.8256
  333MOL0     H44942  10.903   0.844   6.150  0.7859 -0.7338  0.1263
  333MOL0     H44943  10.677   1.109   5.893 -2.0865  0.1235  3.9377
  333MOL0     H44944  10.488   1.239   5.813  0.6473  2.9539 -2.1786
  333MOL0     H44945  10.231   1.447   5.957 -0.4566  0.1392  0.6230
  333MOL0     H44946  10.332   1.398   6.077 -2.6266 -0.6011 -0.5137
  333MOL0     H44947  10.292   1.691   5.993  2.9906 -1.0236 -2.0265
  333MOL0     H44948  10.402   1.641   6.119  0.0250 -0.3149 -1.5590
  333MOL0     H44949  10.191   1.723   6.209 -2.1442 -0.0721  0.2040
  333MOL0     H44950  10.210   1.551   6.255 -1.4455 -1.7345 -0.1448
  333MOL0     H44951  10.070   1.634   6.001 -2.6220 -3.0505 -0.4316
  333MOL0     H44952   9.983   1.682   6.150  0.8348  0.9704 -0.2215
  333MOL0     H44953   9.941   1.251   6.106  1.7950 -0.2443  4.5054
  333MOL0     H44954  10.654   1.581   5.999 -2.5626 -0.6177 -1.4247
  333MOL0     H44955  10.844   1.481   6.047 -0.2312  1.3121 -0.3196
  334MOL0     O44956   4.291   9.298   4.319  0.0131 -0.0817  0.0572
  334MOL0     C44957   4.321   9.418   4.319 -1.0716  0.4103 -0.2444
  334MOL0     O44958   4.447   9.470   4.338  0.5593 -0.5624 -0.3029
  334MOL0     C44959   4.558   9.393   4.377 -0.0979 -0.6822  0.8750
  334MOL0     C44960   4.560   9.263   4.429  0.9461 -0.0036  0.5531
  334MOL0     C44961   4.674   9.197   4.456 -0.1525  0.2511 -0.8299
  334MOL0     C44962   4.796   9.244   4.416 -0.3713 -0.7714 -0.0615
  334MOL0     O44963   4.913   9.191   4.456 -0.7218 -0.0186  0.0303
  334MOL0     C44964   4.909   9.056   4.501  0.2547 -0.1050  0.2730
  334MOL0     C44965   5.040   8.974   4.515  0.3502 -1.0137 -0.8027
  334MOL0     C44966   5.153   9.066   4.579  0.0157 -0.5944  0.7027
  334MOL0     C44967   5.226   9.143   4.462 -0.4505 -0.3981  0.2149
  334MOL0     C44968   5.289   9.278   4.523 -0.7119 -0.3666 -0.4853
  334MOL0     C44969   5.390   9.254   4.639  0.1618  0.0721  0.2945
  334MOL0     C44970   5.429   9.382   4.713  0.1709 -0.1807 -0.2421
  334MOL0     C44971   5.537   9.337   4.821  0.1384 -0.9777  0.8024
  334MOL0     N44972   5.600   9.459   4.874  0.7296  0.1433  0.8346
  334MOL0     C44973   5.560   9.537   4.980 -1.2709 -0.5447  0.9440
  334MOL0     C44974   5.673   9.609   5.010  0.2096 -0.1826 -0.1728
  334MOL0     C44975   5.669   9.716   5.114 -0.3501 -0.7573 -0.2901
  334MOL0     C44976   5.630   9.863   5.058 -0.0780  0.0622  0.6255
  334MOL0     C44977   5.680   9.894   4.918 -0.2131  0.2988 -0.1652
  334MOL0     C44978   5.631  10.031   4.866 -0.3520 -0.4413  0.8075
  334MOL0     O44979   5.493  10.033   4.869  0.1621 -0.5471  0.2601
  334MOL0     C44980   5.410  10.139   4.816  0.1954 -0.0912  0.1114
  334MOL0     C44981   5.463  10.260   4.764 -0.8223 -0.7888 -0.0916
  334MOL0     C44982   5.376  10.357   4.709 -0.2862  0.0715 -1.4166
  334MOL0     C44983   5.444  10.484   4.648 -0.4818 -0.3937  0.8499
  334MOL0     C44984   5.236  10.328   4.702  0.1867  0.3202 -0.8005
  334MOL0     C44985   5.136  10.413   4.628 -0.0919  0.0076  0.6422
  334MOL0     O44986   5.182  10.535   4.583  1.2148  0.0533  0.5101
  334MOL0     C44987   5.117  10.618   4.501  0.2065  0.6282 -0.2923
  334MOL0     C44988   4.991  10.600   4.438  0.0998  0.0582 -0.4285
  334MOL0     C44989   4.933  10.697   4.361 -0.3164  0.8253  0.6302
  334MOL0     C44990   4.979  10.827   4.345  0.5343  0.3882 -0.3555
  334MOL0     O44991   4.916  10.922   4.277 -0.1298 -1.2067  0.8694
  334MOL0     C44992   4.828  10.870   4.173  0.8662  0.1385 -0.9883
  334MOL0     C44993   4.815  10.966   4.050 -0.5442 -0.1837 -0.0073
  334MOL0     C44994   4.770  11.099   4.100 -0.1891 -0.7774  0.5500
  334MOL0     C44995   4.720  11.186   3.977 -0.9154 -0.0027 -0.3135
  334MOL0     C44996   4.697  11.330   4.023  0.8529  0.3146  0.2879
  334MOL0     C44997   4.563  11.353   4.080  0.9152  0.6778  0.5530
  334MOL0     C44998   4.465  11.393   3.966  0.3171 -0.8941 -0.5323
  334MOL0     C44999   4.335  11.452   4.025  0.2012  0.1326 -0.2865
  334MOL0    Cl45000   4.265  11.346   4.148  0.5633  0.4375  0.0252
  334MOL0     C45001   5.104  10.845   4.407  0.1714 -0.0465 -0.5142
  334MOL0     C45002   5.172  10.746   4.476 -0.4701 -0.2504  0.4095
  334MOL0     O45003   5.027  10.366   4.600  0.3923 -0.1974  0.1678
  334MOL0     C45004   5.185  10.208   4.754 -0.4356  0.4851  0.6468
  334MOL0     C45005   5.270  10.112   4.812  0.1243 -0.1004  0.7161
  334MOL0     N45006   5.774   9.578   4.926  0.7129  0.2226 -0.0188
  334MOL0     N45007   5.730   9.493   4.842  0.4104 -0.1710  0.8377
  334MOL0     C45008   4.804   9.374   4.359 -0.1740  0.3915  0.3675
  334MOL0     C45009   4.683   9.442   4.344  0.4212 -0.1300 -0.4355
  334MOL0     C45010   4.239   9.514   4.247 -0.7828 -0.3832 -0.0773
  334MOL0     C45011   4.129   9.486   4.165 -0.3592  0.1745  0.0332
  334MOL0     C45012   4.040   9.580   4.130  0.1048  0.8391  0.2581
  334MOL0     C45013   4.058   9.716   4.156 -0.0165 -0.2940 -0.0429
  334MOL0     O45014   3.973   9.820   4.134 -0.2699  0.2484  0.5868
  334MOL0     C45015   3.890   9.796   4.019 -0.2869  0.0207 -0.1081
  334MOL0     C45016   3.851   9.935   3.961  0.0131  0.1129  0.6734
  334MOL0     C45017   3.969   9.994   3.882  0.3244 -0.7082 -0.2137
  334MOL0     C45018   3.982   9.951   3.737  0.2745 -0.4947  0.1602
  334MOL0     C45019   4.060   9.820   3.716  0.6931 -0.1864 -0.5790
  334MOL0     C45020   4.127   9.718   3.705  0.6952  0.4788 -0.2026
  334MOL0     C45021   4.170   9.752   4.239  1.4751  1.8486 -0.0623
  334MOL0     C45022   4.258   9.651   4.281  0.2896 -0.2041 -0.1165
  334MOL0     H45023   4.467   9.220   4.464  0.1752  0.7801 -0.4698
  334MOL0     H45024   4.644   9.103   4.503 -2.6214 -0.3728 -3.3616
  334MOL0     H45025   4.861   9.067   4.598  0.2023  1.9331  0.0677
  334MOL0     H45026   4.844   8.999   4.434  2.6044 -1.7395 -0.7651
  334MOL0     H45027   5.023   8.883   4.573  2.7255  0.2784  2.2412
  334MOL0     H45028   5.081   8.941   4.420  3.4727 -2.7399  0.9522
  334MOL0     H45029   5.109   9.122   4.663 -2.2345 -0.9420 -0.1650
  334MOL0     H45030   5.228   8.996   4.616  0.9943  1.3406  2.5775
  334MOL0     H45031   5.304   9.079   4.420  2.7458  2.4088  1.3767
  334MOL0     H45032   5.164   9.182   4.380 -1.9511  2.3582  2.4862
  334MOL0     H45033   5.344   9.336   4.448  0.5035 -0.2977  0.4273
  334MOL0     H45034   5.211   9.341   4.566  0.4567 -0.2822  1.6168
  334MOL0     H45035   5.353   9.177   4.708 -1.6898 -0.3735 -1.1121
  334MOL0     H45036   5.478   9.203   4.601 -0.4896 -1.8082  1.2094
  334MOL0     H45037   5.491   9.448   4.652  1.4054 -0.1506  0.9903
  334MOL0     H45038   5.346   9.441   4.752 -0.5241  0.8113 -3.0463
  334MOL0     H45039   5.612   9.273   4.774  2.5976  2.7621 -0.8490
  334MOL0     H45040   5.475   9.292   4.899 -1.6052  4.2217  2.8637
  334MOL0     H45041   5.465   9.527   5.032 -4.2104 -1.5287 -4.0050
  334MOL0     H45042   5.601   9.690   5.196 -0.4965  1.9244  0.5200
  334MOL0     H45043   5.766   9.726   5.163 -0.5228  0.6224 -0.2025
  334MOL0     H45044   5.674   9.936   5.127 -1.0245 -0.7327  2.1030
  334MOL0     H45045   5.522   9.876   5.058 -0.1441 -0.2944  2.1905
  334MOL0     H45046   5.627   9.812   4.867 -0.6236  1.6700 -2.0534
  334MOL0     H45047   5.788   9.881   4.914 -0.0076  1.8530 -0.2456
  334MOL0     H45048   5.659  10.041   4.761 -1.4077 -0.3364  0.5205
  334MOL0     H45049   5.689  10.110   4.914  0.8852 -1.6603  1.3869
  334MOL0     H45050   5.570  10.278   4.755 -1.1488  0.6765 -1.3085
  334MOL0     H45051   5.406  10.582   4.679  1.2358  1.5951 -2.7520
  334MOL0     H45052   5.551  10.473   4.668  0.5435  2.9421 -1.8681
  334MOL0     H45053   5.431  10.466   4.541  2.0333 -2.8015  0.8391
  334MOL0     H45054   4.941  10.505   4.453  1.5855 -0.3956  2.4002
  334MOL0     H45055   4.850  10.649   4.311  2.1907  0.2821 -3.5379
  334MOL0     H45056   4.858  10.780   4.117 -0.6441  1.3323 -3.9705
  334MOL0     H45057   4.731  10.848   4.218 -0.2521  2.4443 -2.0915
  334MOL0     H45058   4.917  10.975   4.012 -0.3335 -0.9928  0.3337
  334MOL0     H45059   4.746  10.923   3.976 -0.0036 -0.6629 -0.2425
  334MOL0     H45060   4.856  11.146   4.149  1.6375 -0.7832 -2.4745
  334MOL0     H45061   4.696  11.086   4.180  0.5293 -3.0604  0.9293
  334MOL0     H45062   4.791  11.185   3.894 -1.1523  4.0316 -0.7656
  334MOL0     H45063   4.622  11.146   3.946 -0.4479 -0.8801 -0.6964
  334MOL0     H45064   4.723  11.401   3.944 -1.1643 -0.0486 -0.7798
  334MOL0     H45065   4.776  11.349   4.096  2.0416 -3.6043  0.2392
  334MOL0     H45066   4.520  11.261   4.120 -1.2136  0.3661 -2.1175
  334MOL0     H45067   4.572  11.437   4.150  1.2370  3.1591 -2.2554
  334MOL0     H45068   4.432  11.302   3.914  0.9281 -2.5397  1.7964
  334MOL0     H45069   4.514  11.464   3.900 -2.1259 -0.0188 -1.5421
  334MOL0     H45070   4.257  11.481   3.954  0.6310  2.5486  0.1571
  334MOL0     H45071   4.365  11.542   4.079 -1.1072 -0.6153  1.8115
  334MOL0     H45072   5.155  10.941   4.412 -0.5614  0.2859  3.4535
  334MOL0     H45073   5.277  10.771   4.490  0.2292 -0.2623 -3.6586
  334MOL0     H45074   5.082  10.181   4.730 -0.1076  0.1162 -0.3955
  334MOL0     H45075   5.238  10.019   4.858 -1.1878  0.5392  1.1402
  334MOL0     H45076   4.895   9.429   4.337  0.1969 -1.1158 -2.1902
  334MOL0     H45077   4.685   9.545   4.308 -1.6395  0.6480  1.5028
  334MOL0     H45078   4.130   9.389   4.117 -1.6322  0.2347 -0.1538
  334MOL0     H45079   3.951   9.556   4.072  0.2707 -0.5167  0.5308
  334MOL0     H45080   3.939   9.732   3.945 -2.0147 -2.7580  0.9726
  334MOL0     H45081   3.803   9.747   4.064  0.5206 -1.4964 -0.0943
  334MOL0     H45082   3.833  10.009   4.040 -1.3490  1.4554 -0.8159
  334MOL0     H45083   3.756   9.920   3.909 -0.4126 -0.8948  1.6943
  334MOL0     H45084   4.057   9.991   3.947 -0.9997 -0.9829  1.6705
  334MOL0     H45085   3.952  10.102   3.876  1.2347 -0.2110  3.6769
  334MOL0     H45086   4.039  10.033   3.694  1.2024 -0.2777  1.7241
  334MOL0     H45087   3.884   9.934   3.691 -1.0984  4.3733  0.7438
  334MOL0     H45088   4.187   9.629   3.704 -1.0972 -0.7818 -1.6836
  334MOL0     H45089   4.188   9.855   4.265 -2.0163  2.0914  1.9599
  334MOL0     H45090   4.333   9.690   4.349  0.4497 -0.1828 -0.3044
  335MOL0     O45091   0.989   4.512   2.494  0.3257 -0.7542  0.4530
  335MOL0     C45092   1.024   4.539   2.614 -0.4497 -0.4222 -0.3769
  335MOL0     O45093   0.999   4.446   2.712 -0.4072  0.5182  1.0543
  335MOL0     C45094   0.921   4.331   2.678  1.1363 -0.2882 -0.0811
  335MOL0     C45095   0.800   4.312   2.607 -0.8648 -0.4011 -0.4879
  335MOL0     C45096   0.743   4.182   2.597  0.4090  0.0003 -0.3825
  335MOL0     C45097   0.802   4.071   2.648 -1.3598  0.0930  0.2632
  335MOL0     O45098   0.735   3.949   2.649  0.3177  0.2764  0.3041
  335MOL0     C45099   0.730   3.861   2.766 -0.1415 -0.0868 -0.4407
  335MOL0     C45100   0.661   3.728   2.723 -0.3560 -0.1419  0.6791
  335MOL0     C45101   0.765   3.626   2.662  0.6765 -0.0368 -0.8787
  335MOL0     C45102   0.691   3.498   2.637 -0.4735  1.0399 -0.2389
  335MOL0     C45103   0.782   3.380   2.621 -0.3765 -0.2259 -0.8109
  335MOL0     C45104   0.721   3.249   2.579 -0.2959  0.3992 -0.0904
  335MOL0     C45105   0.581   3.212   2.625 -0.7814  0.4057  0.4398
  335MOL0     C45106   0.578   3.180   2.777 -0.5056  1.0205  0.2667
  335MOL0     N45107   0.448   3.172   2.851 -0.2472 -0.1172 -0.5543
  335MOL0     C45108   0.350   3.269   2.832 -0.4074 -0.7404  0.4455
  335MOL0     C45109   0.246   3.213   2.901 -0.5844 -0.6039 -0.6035
  335MOL0     C45110   0.110   3.272   2.897 -0.3707  0.0253 -0.5387
  335MOL0     C45111   0.013   3.195   2.991 -0.4868  0.4489  0.6743
  335MOL0     C45112  -0.128   3.256   2.963  1.0531  0.2345  0.0673
  335MOL0     C45113  -0.158   3.393   3.020  0.9308  0.6624 -0.5144
  335MOL0     O45114  -0.078   3.503   2.969 -0.1606  0.6132  0.1315
  335MOL0     C45115  -0.144   3.589   2.888  0.3136 -0.3902  0.4641
  335MOL0     C45116  -0.115   3.726   2.920  1.4956 -0.0878  0.4710
  335MOL0     C45117  -0.164   3.826   2.839 -0.0185  0.5187 -0.0444
  335MOL0     C45118  -0.108   3.961   2.876 -0.6680 -0.0971 -0.9225
  335MOL0     C45119  -0.256   3.801   2.735  0.3703 -0.2124 -0.5040
  335MOL0     C45120  -0.310   3.915   2.655 -1.1865 -0.4606 -0.6578
  335MOL0     O45121  -0.361   4.028   2.730 -0.2650 -0.3129 -0.3661
  335MOL0     C45122  -0.412   4.136   2.664  0.8245  0.3304  0.5325
  335MOL0     C45123  -0.338   4.240   2.617 -0.1605 -0.5611 -0.0275
  335MOL0     C45124  -0.406   4.347   2.556 -0.9996 -0.2650  1.2902
  335MOL0     C45125  -0.546   4.359   2.556  0.4231 -0.0015 -0.2483
  335MOL0     O45126  -0.616   4.462   2.491  0.7073 -0.4758 -0.4764
  335MOL0     C45127  -0.561   4.547   2.398 -0.0931 -0.1730  0.5123
  335MOL0     C45128  -0.476   4.661   2.439  0.0146 -1.1302 -0.4615
  335MOL0     C45129  -0.543   4.749   2.539  0.9268 -0.8884 -0.6751
  335MOL0     C45130  -0.451   4.858   2.599 -0.0596 -0.1105 -0.3633
  335MOL0     C45131  -0.526   4.950   2.695 -0.6132 -0.4303  0.1298
  335MOL0     C45132  -0.527   4.889   2.840  0.4243 -0.4242  0.0495
  335MOL0     C45133  -0.616   4.991   2.928  0.2757  0.1993 -0.0890
  335MOL0     C45134  -0.703   4.935   3.041 -0.6504  0.6231 -0.4261
  335MOL0    Cl45135  -0.768   5.051   3.155 -0.3639  0.7157 -0.1778
  335MOL0     C45136  -0.615   4.254   2.610  0.5221  0.1071  0.1369
  335MOL0     C45137  -0.551   4.137   2.654 -0.5018 -0.3954 -0.4189
  335MOL0     O45138  -0.300   3.907   2.536  0.5203  1.1264  0.8592
  335MOL0     C45139  -0.285   3.667   2.704 -0.8049 -0.1256 -0.5060
  335MOL0     C45140  -0.231   3.563   2.783 -0.2346  1.1230 -0.0528
  335MOL0     N45141   0.281   3.094   2.962 -0.5841 -0.4886  0.5496
  335MOL0     N45142   0.409   3.074   2.932 -0.6932 -0.6052 -0.2917
  335MOL0     C45143   0.928   4.089   2.714  0.4843 -0.1817 -0.6122
  335MOL0     C45144   0.989   4.217   2.725  0.6418  0.5556 -0.0310
  335MOL0     C45145   1.126   4.648   2.628  1.0356 -0.6480  0.0839
  335MOL0     C45146   1.139   4.757   2.538 -0.0304 -0.7257 -0.1476
  335MOL0     C45147   1.243   4.845   2.560  0.2943 -0.1036  0.2562
  335MOL0     C45148   1.334   4.820   2.665  0.1606 -0.2748 -0.4904
  335MOL0     O45149   1.427   4.917   2.704  0.1934 -0.1191  0.0259
  335MOL0     C45150   1.405   5.054   2.675  0.0300 -0.2425  1.0066
  335MOL0     C45151   1.478   5.146   2.773 -0.8866 -0.3039  0.0948
  335MOL0     C45152   1.601   5.210   2.701  0.1864  1.1420 -0.3795
  335MOL0     C45153   1.693   5.248   2.814 -0.1826 -0.7986  0.1823
  335MOL0     C45154   1.638   5.347   2.911  0.3497 -0.0318 -0.6538
  335MOL0     C45155   1.586   5.434   2.983 -0.9550  0.0620  0.3365
  335MOL0     C45156   1.337   4.706   2.751  0.7162 -0.0676 -0.0765
  335MOL0     C45157   1.226   4.624   2.725 -0.3768  1.0270 -0.2585
  335MOL0     H45158   0.747   4.399   2.570 -0.6355  0.0297  0.1940
  335MOL0     H45159   0.649   4.169   2.543 -1.6035 -0.4374  2.9342
  335MOL0     H45160   0.828   3.823   2.798  0.6320 -0.0091 -2.5387
  335MOL0     H45161   0.665   3.907   2.841 -0.1003 -0.2141 -0.3278
  335MOL0     H45162   0.620   3.673   2.808 -1.6062 -0.5554 -0.1562
  335MOL0     H45163   0.581   3.754   2.652  2.2498 -0.4750 -2.6238
  335MOL0     H45164   0.805   3.671   2.571 -1.4343  4.2338  0.0911
  335MOL0     H45165   0.839   3.613   2.742 -0.3201 -0.8114 -0.0556
  335MOL0     H45166   0.618   3.470   2.714  0.5390 -0.2022  0.2869
  335MOL0     H45167   0.620   3.510   2.554 -3.6311 -1.4282  1.8304
  335MOL0     H45168   0.864   3.407   2.554  2.5182 -0.6962  2.2880
  335MOL0     H45169   0.826   3.364   2.719  0.6285  0.5282 -1.1318
  335MOL0     H45170   0.714   3.255   2.470 -1.6660 -2.0404 -0.2081
  335MOL0     H45171   0.790   3.166   2.597 -0.5140 -0.0528 -1.2525
  335MOL0     H45172   0.519   3.301   2.605  1.2270  1.5936 -0.8337
  335MOL0     H45173   0.543   3.127   2.567 -2.0728  0.9475  0.4567
  335MOL0     H45174   0.641   3.252   2.829 -0.9257  1.0133  0.7941
  335MOL0     H45175   0.631   3.087   2.799  0.2142  0.9280 -1.7191
  335MOL0     H45176   0.345   3.361   2.775 -2.5790 -1.6119 -0.9151
  335MOL0     H45177   0.124   3.376   2.928  5.4182 -0.8489  0.8284
  335MOL0     H45178   0.063   3.284   2.799 -2.6598  1.2582  0.6256
  335MOL0     H45179   0.036   3.195   3.098 -1.2102  0.6976  0.8350
  335MOL0     H45180   0.012   3.093   2.952 -0.3174  1.1899 -1.3944
  335MOL0     H45181  -0.204   3.191   3.007  2.0893 -2.1265 -1.3931
  335MOL0     H45182  -0.155   3.253   2.857  2.9659  3.8186 -0.6641
  335MOL0     H45183  -0.133   3.385   3.126  4.0030 -0.2356 -1.1790
  335MOL0     H45184  -0.264   3.418   3.011  0.9652  0.4760 -1.5654
  335MOL0     H45185  -0.045   3.756   2.997  1.5454  0.4161  0.2365
  335MOL0     H45186  -0.027   3.952   2.948 -3.5576  0.9467  2.7605
  335MOL0     H45187  -0.084   4.013   2.783  0.0789 -4.1358 -3.2371
  335MOL0     H45188  -0.180   4.022   2.931  1.2583  0.0353  1.6301
  335MOL0     H45189  -0.230   4.252   2.626 -0.0105 -1.1693 -0.9318
  335MOL0     H45190  -0.338   4.427   2.529  1.7587 -2.8498 -0.0203
  335MOL0     H45191  -0.507   4.493   2.319  0.1014  1.8109 -0.8056
  335MOL0     H45192  -0.646   4.588   2.341 -2.2483 -1.7831  2.3752
  335MOL0     H45193  -0.382   4.623   2.480 -0.3286  1.2043  2.8333
  335MOL0     H45194  -0.459   4.712   2.343 -0.4554  0.0567  0.0662
  335MOL0     H45195  -0.568   4.689   2.627  3.1126 -0.3881  0.3398
  335MOL0     H45196  -0.632   4.793   2.494  0.3984 -0.6697  0.5373
  335MOL0     H45197  -0.371   4.813   2.658 -0.0255 -2.4658 -2.0669
  335MOL0     H45198  -0.415   4.926   2.522  1.8415  0.1414  0.6787
  335MOL0     H45199  -0.631   4.960   2.666 -0.6415  1.6051  0.7438
  335MOL0     H45200  -0.483   5.050   2.702  1.1317 -1.0972 -0.4267
  335MOL0     H45201  -0.571   4.789   2.852  2.3789 -1.2873  0.4484
  335MOL0     H45202  -0.428   4.870   2.880  1.4036 -0.3656 -2.1808
  335MOL0     H45203  -0.674   5.034   2.846  1.9725 -2.6031 -3.0437
  335MOL0     H45204  -0.559   5.071   2.976 -3.3482  1.9680  1.6549
  335MOL0     H45205  -0.642   4.860   3.093  0.4813 -1.5438 -4.4462
  335MOL0     H45206  -0.785   4.888   2.986  0.9306  0.6154 -2.9116
  335MOL0     H45207  -0.722   4.269   2.617  0.3752  1.9724 -3.5881
  335MOL0     H45208  -0.623   4.073   2.704 -0.4959  1.6731  2.4605
  335MOL0     H45209  -0.362   3.640   2.632 -0.0929  1.7640 -2.0992
  335MOL0     H45210  -0.266   3.467   2.748 -2.8166  1.7362  0.6751
  335MOL0     H45211   0.970   3.997   2.755 -1.1474 -1.3080 -1.3473
  335MOL0     H45212   1.069   4.225   2.798  1.7692 -1.9019 -0.9186
  335MOL0     H45213   1.079   4.799   2.459  1.9385  1.1718 -0.7376
  335MOL0     H45214   1.257   4.940   2.509 -1.5621 -0.1475 -0.3932
  335MOL0     H45215   1.428   5.088   2.574  4.0326  2.6710  2.6254
  335MOL0     H45216   1.300   5.075   2.697  0.5854  1.7647  1.9959
  335MOL0     H45217   1.506   5.103   2.870 -0.4963  1.6814  0.9152
  335MOL0     H45218   1.406   5.228   2.781 -2.7634 -1.6156 -1.9366
  335MOL0     H45219   1.567   5.299   2.647  0.4654  1.3289 -0.2515
  335MOL0     H45220   1.644   5.138   2.629 -1.1635  1.8578 -1.9816
  335MOL0     H45221   1.786   5.284   2.772  0.6006 -1.1659  1.5393
  335MOL0     H45222   1.719   5.158   2.871 -2.4352 -0.8672  1.2510
  335MOL0     H45223   1.524   5.497   3.044  0.0483 -0.4186  1.9203
  335MOL0     H45224   1.417   4.693   2.824  1.1210  0.5777 -0.3937
  335MOL0     H45225   1.223   4.539   2.791  0.9926  3.1393  2.7922
  336MOL0     O45226   6.236  10.031   5.215  0.2599  0.3599  0.5970
  336MOL0     C45227   6.149   9.971   5.274 -0.3842  0.5615 -0.6610
  336MOL0     O45228   6.058   9.887   5.212  0.5911 -0.4140  0.5962
  336MOL0     C45229   6.058   9.882   5.071  0.4105  0.1303  0.5636
  336MOL0     C45230   6.045   9.756   5.014 -0.5909 -0.1045  0.6484
  336MOL0     C45231   6.043   9.742   4.872 -0.0002  0.1412 -1.0596
  336MOL0     C45232   6.032   9.852   4.789  0.3237 -0.2376  0.3100
  336MOL0     O45233   6.011   9.836   4.655  0.3387 -0.1776 -0.2173
  336MOL0     C45234   5.913   9.735   4.621  0.6719 -0.5598 -1.3505
  336MOL0     C45235   5.881   9.730   4.471 -1.1523  0.6530  0.6560
  336MOL0     C45236   5.744   9.665   4.428 -0.9937 -0.4901  0.3812
  336MOL0     C45237   5.725   9.522   4.477 -0.2562 -0.3808 -0.1367
  336MOL0     C45238   5.792   9.417   4.378  0.3733  0.1469  0.4806
  336MOL0     C45239   5.758   9.278   4.425  0.7234 -0.2338  0.4713
  336MOL0     C45240   5.815   9.170   4.327  1.0039 -0.4576 -0.0401
  336MOL0     C45241   5.742   9.039   4.341 -0.1781  0.9381 -0.4027
  336MOL0     N45242   5.725   9.002   4.477  0.2169 -0.3857 -0.3822
  336MOL0     C45243   5.820   8.980   4.572 -0.9395  0.0517  0.3325
  336MOL0     C45244   5.753   8.944   4.683 -0.6754 -0.9244 -0.8309
  336MOL0     C45245   5.804   8.918   4.816 -0.1002 -0.5178  0.5061
  336MOL0     C45246   5.942   8.847   4.822  0.7222 -0.4143 -0.0502
  336MOL0     C45247   5.995   8.834   4.968  0.0390  0.0611  0.2474
  336MOL0     C45248   6.108   8.732   5.003  0.1271  0.0031 -1.1009
  336MOL0     O45249   6.229   8.733   4.932  0.1464  0.3385 -0.2123
  336MOL0     C45250   6.332   8.675   4.999 -0.6990  0.7333 -0.0498
  336MOL0     C45251   6.311   8.580   5.102 -0.4574 -0.0079  1.0725
  336MOL0     C45252   6.421   8.530   5.168 -0.8616  0.0456 -0.1970
  336MOL0     C45253   6.395   8.433   5.271 -0.0408  1.1115  0.1852
  336MOL0     C45254   6.562   8.547   5.134 -0.6067 -0.6345 -0.6285
  336MOL0     C45255   6.683   8.488   5.193  0.3039  0.4889 -0.4430
  336MOL0     O45256   6.792   8.496   5.120 -0.2772  0.7813  0.2078
  336MOL0     C45257   6.898   8.444   5.192  0.2135  0.0897 -0.9439
  336MOL0     C45258   6.969   8.523   5.276  0.6655 -0.4430  0.4067
  336MOL0     C45259   7.062   8.477   5.370  0.3981 -0.1853 -0.8105
  336MOL0     C45260   7.097   8.341   5.353 -0.1305  0.4091  0.2471
  336MOL0     O45261   7.187   8.265   5.422  1.2788  0.0565  0.3303
  336MOL0     C45262   7.312   8.322   5.454  0.5779  0.0486  0.0482
  336MOL0     C45263   7.331   8.305   5.611 -0.1446 -0.3834  0.4765
  336MOL0     C45264   7.437   8.399   5.676  1.0210  0.3718  0.3579
  336MOL0     C45265   7.411   8.549   5.695 -0.1699  0.1746 -0.3288
  336MOL0     C45266   7.525   8.646   5.705  0.1156  0.1115  0.0556
  336MOL0     C45267   7.608   8.630   5.829  0.1934  0.5663 -0.6057
  336MOL0     C45268   7.726   8.724   5.821  0.4968 -0.1897 -0.3536
  336MOL0     C45269   7.771   8.744   5.969 -0.1247  0.4605  0.5250
  336MOL0    Cl45270   7.823   8.594   6.045 -0.3734 -0.0543 -0.4770
  336MOL0     C45271   7.037   8.264   5.253 -0.8479  0.9499 -0.3334
  336MOL0     C45272   6.940   8.307   5.179 -0.4781  0.0806  0.8342
  336MOL0     O45273   6.675   8.427   5.300 -0.7074  0.5369 -0.7276
  336MOL0     C45274   6.579   8.643   5.027  0.2863  0.1451 -1.4524
  336MOL0     C45275   6.466   8.702   4.966 -0.1141  0.4013  0.4188
  336MOL0     N45276   5.616   8.944   4.662  0.0515  1.0664 -0.1510
  336MOL0     N45277   5.603   8.973   4.531 -0.7393 -0.0126 -0.0236
  336MOL0     C45278   6.045   9.976   4.849 -0.2877  0.1774  0.4056
  336MOL0     C45279   6.062   9.999   4.985  0.0390 -0.4742  0.2298
  336MOL0     C45280   6.153   9.994   5.419 -0.5647 -0.5943  0.2655
  336MOL0     C45281   6.274  10.015   5.491 -0.7431  0.0521 -0.0768
  336MOL0     C45282   6.277  10.043   5.633 -0.1695  0.1765 -0.1311
  336MOL0     C45283   6.160  10.044   5.713  0.5061  0.0354  1.1294
  336MOL0     O45284   6.154  10.072   5.844 -1.0825 -0.0032  1.6796
  336MOL0     C45285   6.223   9.974   5.918 -0.0956 -0.3132 -0.0091
  336MOL0     C45286   6.189   9.818   5.910  0.0692 -0.0219 -0.1748
  336MOL0     C45287   6.055   9.786   5.975 -1.0873  0.4753  0.5422
  336MOL0     C45288   6.021   9.631   5.957 -0.4530 -0.0736 -0.1563
  336MOL0     C45289   6.097   9.541   6.046 -0.2532  0.1292 -0.7415
  336MOL0     C45290   6.174   9.471   6.120 -0.3233 -0.6255  0.4026
  336MOL0     C45291   6.042  10.027   5.639 -0.6329  0.7196 -0.2161
  336MOL0     C45292   6.034  10.004   5.501  0.7052  0.1654 -0.4403
  336MOL0     H45293   6.045   9.671   5.082  1.3232 -2.1002 -1.6689
  336MOL0     H45294   6.033   9.642   4.831 -2.2437 -0.3949  0.5960
  336MOL0     H45295   5.928   9.637   4.668 -1.8631 -0.3285  0.1120
  336MOL0     H45296   5.813   9.756   4.659  2.3118  0.7319  2.7876
  336MOL0     H45297   5.897   9.832   4.435  2.8368 -0.0251 -0.0357
  336MOL0     H45298   5.959   9.672   4.420 -1.7478  1.7771 -1.7116
  336MOL0     H45299   5.670   9.735   4.467 -2.5449 -0.7821 -1.8842
  336MOL0     H45300   5.737   9.671   4.319 -0.3524 -0.3143  0.3419
  336MOL0     H45301   5.767   9.492   4.573 -3.3942 -1.5939  0.9774
  336MOL0     H45302   5.616   9.508   4.473 -0.1613 -1.4838  0.5187
  336MOL0     H45303   5.744   9.442   4.283 -1.6627 -1.2864  1.0514
  336MOL0     H45304   5.901   9.410   4.373  0.2284 -1.5446 -1.5866
  336MOL0     H45305   5.783   9.255   4.529 -2.2489  2.5558  2.0018
  336MOL0     H45306   5.649   9.268   4.425  0.7859 -0.9394  0.2144
  336MOL0     H45307   5.799   9.205   4.225  0.0273 -1.9587 -0.4239
  336MOL0     H45308   5.921   9.147   4.342  0.3034 -3.9842  0.2962
  336MOL0     H45309   5.794   8.961   4.284 -0.4780 -0.6302  1.3697
  336MOL0     H45310   5.641   9.057   4.302  0.2900  0.4477 -1.8842
  336MOL0     H45311   5.925   9.002   4.557 -0.0889 -2.1781  2.3762
  336MOL0     H45312   5.811   9.010   4.875  0.3562  0.3557 -0.8722
  336MOL0     H45313   5.729   8.850   4.858 -1.6126  0.1267 -1.0570
  336MOL0     H45314   6.002   8.916   4.763  0.3641  0.6880  0.8264
  336MOL0     H45315   5.936   8.751   4.770 -4.4474  0.9351 -2.6556
  336MOL0     H45316   5.916   8.820   5.043  0.6914  1.4152  1.2377
  336MOL0     H45317   6.040   8.928   5.002  0.4680  0.8306 -2.2454
  336MOL0     H45318   6.071   8.629   4.992 -1.4188  0.4661 -0.5887
  336MOL0     H45319   6.127   8.762   5.107  0.0608  1.2057 -1.4230
  336MOL0     H45320   6.214   8.538   5.124 -2.1900  3.4406  0.7830
  336MOL0     H45321   6.292   8.398   5.260  0.7744 -1.4517 -0.0236
  336MOL0     H45322   6.452   8.341   5.252  0.0156  1.3243 -0.7390
  336MOL0     H45323   6.411   8.473   5.371  1.8550  0.9614 -0.0245
  336MOL0     H45324   6.935   8.625   5.283  1.9115 -0.0079  0.2950
  336MOL0     H45325   7.109   8.533   5.450 -1.1127 -1.0195  0.7398
  336MOL0     H45326   7.390   8.276   5.393 -0.0893  0.4584 -1.1432
  336MOL0     H45327   7.312   8.430   5.434 -2.1990  0.5811  2.2292
  336MOL0     H45328   7.235   8.337   5.651  0.3744  4.7145 -1.5252
  336MOL0     H45329   7.335   8.201   5.646 -0.7188 -1.2639 -1.9009
  336MOL0     H45330   7.526   8.387   5.614 -0.0550  0.1439 -1.1770
  336MOL0     H45331   7.468   8.360   5.774 -1.0976  2.9662  2.1972
  336MOL0     H45332   7.352   8.593   5.614  2.4369  5.1489  0.0885
  336MOL0     H45333   7.349   8.563   5.784 -2.8274 -2.5896 -1.5559
  336MOL0     H45334   7.491   8.750   5.703  1.3977  0.5873  1.2493
  336MOL0     H45335   7.591   8.626   5.620  1.2322  2.5057  0.2688
  336MOL0     H45336   7.545   8.669   5.909  0.8138 -3.4531  2.1449
  336MOL0     H45337   7.642   8.528   5.849 -1.6575  0.3070  1.6044
  336MOL0     H45338   7.695   8.816   5.772  0.2192  1.1380  2.1381
  336MOL0     H45339   7.812   8.677   5.773 -0.1811 -1.8788  0.0057
  336MOL0     H45340   7.680   8.770   6.023 -3.0387 -0.5326 -3.5068
  336MOL0     H45341   7.842   8.827   5.962 -0.3048  0.5363 -0.6048
  336MOL0     H45342   7.066   8.161   5.233 -0.2888  0.9003  0.6567
  336MOL0     H45343   6.894   8.243   5.105 -0.6597 -1.0870  1.9377
  336MOL0     H45344   6.677   8.679   4.998  0.7438 -1.0864 -1.5147
  336MOL0     H45345   6.463   8.773   4.884 -4.0176  1.9670  1.6472
  336MOL0     H45346   6.041  10.061   4.782  1.9107  1.6609  2.0290
  336MOL0     H45347   6.071  10.103   5.018 -0.6142 -1.0625  2.4493
  336MOL0     H45348   6.369  10.012   5.439 -0.2266  2.4316  0.6072
  336MOL0     H45349   6.368  10.080   5.678  0.6976 -1.5668 -0.3620
  336MOL0     H45350   6.331   9.987   5.919  0.0812 -1.2583  2.9937
  336MOL0     H45351   6.191  10.006   6.018 -3.5096  2.7549 -1.8461
  336MOL0     H45352   6.271   9.760   5.951 -1.1431 -1.4161  0.3314
  336MOL0     H45353   6.177   9.799   5.803  0.5846  0.4414 -0.3197
  336MOL0     H45354   5.980   9.847   5.924 -1.9724 -0.9943  0.0131
  336MOL0     H45355   6.056   9.805   6.083  1.0230 -0.3263  0.7072
  336MOL0     H45356   6.026   9.607   5.851 -3.4315  1.3047 -0.7174
  336MOL0     H45357   5.916   9.627   5.987 -1.3202 -2.3417 -3.0735
  336MOL0     H45358   6.240   9.407   6.175  2.4144  0.4313 -1.4831
  336MOL0     H45359   5.957  10.007   5.704  1.0559  0.1135  1.9430
  336MOL0     H45360   5.947   9.986   5.439  0.5705 -1.1175  0.1014
  337MOL0     O45361   5.860   9.941   2.573 -0.6025  0.1741 -0.2643
  337MOL0     C45362   5.806  10.014   2.660  0.2858 -0.0708 -0.2100
  337MOL0     O45363   5.820   9.994   2.796  0.1326 -0.5586  0.4261
  337MOL0     C45364   5.908   9.904   2.833 -0.2529 -0.2681  0.4055
  337MOL0     C45365   5.871   9.766   2.823 -0.2351  0.7221 -0.1928
  337MOL0     C45366   5.954   9.665   2.871 -0.5904  0.5688 -0.2674
  337MOL0     C45367   6.078   9.710   2.922  0.2239  0.6067  0.4472
  337MOL0     O45368   6.186   9.630   2.952 -0.1801 -0.0417  0.4274
  337MOL0     C45369   6.152   9.493   2.989 -1.1397 -0.6830  0.6889
  337MOL0     C45370   6.251   9.429   3.094  1.0699 -0.2967  0.1263
  337MOL0     C45371   6.388   9.464   3.046 -0.7610 -0.5497 -0.2955
  337MOL0     C45372   6.501   9.404   3.133  0.7278  0.2499  0.1801
  337MOL0     C45373   6.640   9.420   3.074 -0.1567 -0.4145  0.0513
  337MOL0     C45374   6.671   9.372   2.935  0.3461  0.0751 -0.3871
  337MOL0     C45375   6.624   9.220   2.933 -0.0129  0.6941 -0.4061
  337MOL0     C45376   6.698   9.152   2.808  0.6040 -0.8885 -0.6166
  337MOL0     N45377   6.647   9.012   2.794  0.1762  0.0391  0.4236
  337MOL0     C45378   6.518   8.974   2.765  0.3536  0.4377 -0.0857
  337MOL0     C45379   6.529   8.844   2.729  0.2452  0.0413  0.6561
  337MOL0     C45380   6.421   8.773   2.649 -0.8026  0.2485  0.8401
  337MOL0     C45381   6.293   8.722   2.729  0.2334  0.1793  1.0103
  337MOL0     C45382   6.334   8.670   2.869  1.1130 -0.4350  1.0877
  337MOL0     C45383   6.245   8.549   2.901  0.5593  0.4784  0.9461
  337MOL0     O45384   6.333   8.443   2.913 -0.4105 -0.5322  0.0490
  337MOL0     C45385   6.278   8.328   2.959 -1.1266  0.0508  0.3949
  337MOL0     C45386   6.151   8.277   2.932  0.0403 -0.3501  0.5780
  337MOL0     C45387   6.108   8.157   2.993  0.0925  0.2830 -0.1094
  337MOL0     C45388   5.966   8.116   2.964  0.6643 -0.3275 -0.3479
  337MOL0     C45389   6.182   8.086   3.091  0.3300  0.6024  0.5906
  337MOL0     C45390   6.136   7.974   3.175  1.2498  0.2748 -0.4257
  337MOL0     O45391   6.238   7.887   3.207  0.8545 -0.3656 -0.5937
  337MOL0     C45392   6.208   7.780   3.291 -0.2661  0.9950  0.5918
  337MOL0     C45393   6.089   7.709   3.280  0.3582 -0.0863  0.4573
  337MOL0     C45394   6.071   7.595   3.364  0.0363 -0.1321  1.2005
  337MOL0     C45395   6.168   7.558   3.456  0.3821 -0.5321 -0.0518
  337MOL0     O45396   6.127   7.452   3.536 -0.6845 -0.0178 -0.4558
  337MOL0     C45397   6.227   7.363   3.576 -0.6077 -0.6826  0.6124
  337MOL0     C45398   6.184   7.222   3.611  0.1249  0.1035 -0.9381
  337MOL0     C45399   6.188   7.191   3.755  0.5570 -0.0404  0.2779
  337MOL0     C45400   6.130   7.054   3.804  0.5996 -0.4285 -1.0881
  337MOL0     C45401   6.124   7.033   3.954 -0.8289  0.1984  0.1970
  337MOL0     C45402   6.045   6.902   3.989 -0.4418  0.2085 -0.5476
  337MOL0     C45403   6.051   6.851   4.140 -0.0128 -0.3473  0.1981
  337MOL0     C45404   6.021   6.700   4.143 -0.1982  0.0572 -0.4111
  337MOL0    Cl45405   5.854   6.665   4.101  0.0599 -0.2766  0.2153
  337MOL0     C45406   6.296   7.625   3.461 -0.7099 -0.2077 -0.0990
  337MOL0     C45407   6.313   7.738   3.378  0.5544 -0.2009 -0.2661
  337MOL0     O45408   6.018   7.966   3.227 -1.3565  0.7411  0.0233
  337MOL0     C45409   6.323   8.126   3.098  0.1219  0.6654 -0.5078
  337MOL0     C45410   6.367   8.243   3.025  0.3312 -0.6011  0.1368
  337MOL0     N45411   6.664   8.805   2.734 -0.4106 -0.3731 -0.5803
  337MOL0     N45412   6.732   8.905   2.790  0.6032  0.3094 -0.3905
  337MOL0     C45413   6.113   9.845   2.922 -0.0504  0.2150 -0.1668
  337MOL0     C45414   6.030   9.944   2.879  0.5462 -0.0863 -0.8015
  337MOL0     C45415   5.710  10.118   2.609 -1.3917  0.1660  0.3390
  337MOL0     C45416   5.721  10.168   2.477 -0.0819 -0.1578 -0.0167
  337MOL0     C45417   5.632  10.262   2.433  0.1067  0.5530  0.5576
  337MOL0     C45418   5.539  10.319   2.517  0.2163  0.5952 -0.3021
  337MOL0     O45419   5.464  10.423   2.457  0.8150  0.3817 -0.2620
  337MOL0     C45420   5.364  10.479   2.541  1.0067 -0.0234  0.7876
  337MOL0     C45421   5.426  10.559   2.659 -0.3243 -0.5960  1.0738
  337MOL0     C45422   5.542  10.651   2.617 -0.3217  0.3548 -0.3676
  337MOL0     C45423   5.503  10.758   2.510  0.0939 -0.2805  0.1749
  337MOL0     C45424   5.376  10.832   2.527  0.2129  0.1768  0.1021
  337MOL0     C45425   5.276  10.901   2.519  0.3611  0.4778  0.2959
  337MOL0     C45426   5.521  10.267   2.647 -0.2095  0.1221  0.0283
  337MOL0     C45427   5.612  10.171   2.694  0.4808  0.2662  0.2661
  337MOL0     H45428   5.771   9.740   2.789 -1.3109  0.3805  2.8391
  337MOL0     H45429   5.930   9.561   2.857 -1.2200  0.2640  2.5166
  337MOL0     H45430   6.054   9.489   3.036 -0.1272 -2.3193  2.8418
  337MOL0     H45431   6.160   9.429   2.900 -2.8884 -0.5839  0.4215
  337MOL0     H45432   6.235   9.472   3.194  0.3662 -0.2059 -0.0174
  337MOL0     H45433   6.236   9.321   3.100  0.2826 -0.2022  0.0760
  337MOL0     H45434   6.401   9.436   2.942  0.4906 -0.1684 -0.2608
  337MOL0     H45435   6.403   9.572   3.056 -0.1755 -0.6854  0.4582
  337MOL0     H45436   6.507   9.457   3.228  1.8650 -1.0957  0.8903
  337MOL0     H45437   6.475   9.299   3.145 -0.8865  0.8626  2.7189
  337MOL0     H45438   6.661   9.526   3.057  0.6211 -0.4749  0.5649
  337MOL0     H45439   6.707   9.370   3.145 -1.5762 -0.8833  1.1099
  337MOL0     H45440   6.615   9.435   2.865 -0.4588  0.9781  1.0216
  337MOL0     H45441   6.776   9.381   2.907  0.5119 -4.2144 -1.7883
  337MOL0     H45442   6.652   9.173   3.028  2.0798  0.9775 -0.8313
  337MOL0     H45443   6.515   9.218   2.927 -0.1194 -0.7761  1.1360
  337MOL0     H45444   6.805   9.159   2.828  1.0576  1.4767 -3.2694
  337MOL0     H45445   6.676   9.202   2.713  2.6485  1.2656 -0.0452
  337MOL0     H45446   6.423   9.025   2.756  1.8481  3.1091 -2.1220
  337MOL0     H45447   6.391   8.830   2.561 -1.5655  2.8335  2.6404
  337MOL0     H45448   6.478   8.682   2.630 -1.1353  0.0842  0.6309
  337MOL0     H45449   6.249   8.640   2.672  0.5410 -0.7351  2.0244
  337MOL0     H45450   6.223   8.805   2.743  1.7362  2.0014 -1.5639
  337MOL0     H45451   6.323   8.746   2.947 -2.7994  1.4011 -0.9560
  337MOL0     H45452   6.440   8.642   2.875  1.1663 -0.3082  0.7654
  337MOL0     H45453   6.175   8.524   2.821  3.3173 -0.0662 -1.5042
  337MOL0     H45454   6.182   8.553   2.990 -0.1353  0.9510  0.4414
  337MOL0     H45455   6.086   8.317   2.855  2.4588 -0.8803 -1.8478
  337MOL0     H45456   5.894   8.173   3.023 -1.5610  0.4629 -3.5603
  337MOL0     H45457   5.944   8.137   2.859 -6.0903 -3.1255  0.0134
  337MOL0     H45458   5.946   8.009   2.970  1.0695 -0.6921 -3.5544
  337MOL0     H45459   6.001   7.746   3.230  1.3866  1.7193 -0.1244
  337MOL0     H45460   5.977   7.541   3.359  0.5562 -1.1167  1.7855
  337MOL0     H45461   6.295   7.341   3.493 -2.2633 -1.1301 -0.6889
  337MOL0     H45462   6.290   7.410   3.652 -2.0669 -2.3339  2.9805
  337MOL0     H45463   6.087   7.192   3.570 -0.0397  0.3144 -0.7099
  337MOL0     H45464   6.247   7.161   3.547 -0.3043  1.8845 -3.1875
  337MOL0     H45465   6.140   7.272   3.811 -4.0051 -1.2641 -1.4122
  337MOL0     H45466   6.295   7.192   3.776  0.6403 -1.2237 -0.0099
  337MOL0     H45467   6.033   7.049   3.754 -0.3690  1.2006  0.4733
  337MOL0     H45468   6.191   6.975   3.761 -2.3015 -3.7828  0.4263
  337MOL0     H45469   6.076   7.118   4.004  0.7605  0.6756  0.9897
  337MOL0     H45470   6.222   7.029   4.003 -1.7510  2.0412  2.3770
  337MOL0     H45471   5.937   6.919   3.980 -0.4819  4.0698  3.3802
  337MOL0     H45472   6.092   6.828   3.924  0.8746  0.2054  0.3516
  337MOL0     H45473   5.973   6.895   4.203  1.2102  0.6540  1.0473
  337MOL0     H45474   6.146   6.877   4.187  0.7189  0.0975 -1.4634
  337MOL0     H45475   6.033   6.677   4.249 -1.7923 -0.2055 -0.2612
  337MOL0     H45476   6.093   6.648   4.078  0.1937 -0.8535  0.7357
  337MOL0     H45477   6.369   7.596   3.536 -0.9380 -1.4231 -0.3224
  337MOL0     H45478   6.394   7.809   3.391  0.4667 -0.4980  2.5171
  337MOL0     H45479   6.393   8.064   3.153  0.8118  2.0390  0.2173
  337MOL0     H45480   6.471   8.272   3.031 -0.7817  4.3887 -0.4960
  337MOL0     H45481   6.212   9.864   2.964 -0.3467 -2.9801  2.2995
  337MOL0     H45482   6.071  10.044   2.880  0.3294 -0.0019  0.5136
  337MOL0     H45483   5.811  10.141   2.423 -0.4301  1.1484 -1.3007
  337MOL0     H45484   5.644  10.311   2.338 -2.8567  1.3912  0.5021
  337MOL0     H45485   5.306  10.548   2.480  1.4655 -1.8367 -1.8337
  337MOL0     H45486   5.298  10.400   2.579 -0.0080  0.8335  0.8511
  337MOL0     H45487   5.443  10.489   2.741 -0.5298  0.0428  1.6738
  337MOL0     H45488   5.354  10.613   2.721 -3.0098 -2.5102 -0.2111
  337MOL0     H45489   5.621  10.594   2.568  0.0023 -0.2085  0.7906
  337MOL0     H45490   5.588  10.708   2.698 -2.2051  1.3362  0.0644
  337MOL0     H45491   5.503  10.715   2.410 -2.8941 -1.7050  0.6894
  337MOL0     H45492   5.584  10.832   2.514  1.2998 -1.5944  2.1125
  337MOL0     H45493   5.196  10.971   2.503  1.6662  1.4263 -3.0456
  337MOL0     H45494   5.431  10.291   2.703 -0.8328 -0.4382 -0.7101
  337MOL0     H45495   5.604  10.121   2.790  1.9766 -0.3729  0.0896
  338MOL0     O45496   4.960   0.311  10.309 -0.8343 -0.5443  0.6230
  338MOL0     C45497   5.048   0.385  10.259 -0.5353 -0.5319  0.8658
  338MOL0     O45498   5.064   0.392  10.124  0.1629  0.2663  0.1841
  338MOL0     C45499   5.034   0.279  10.050  0.2473  0.2877 -0.4309
  338MOL0     C45500   4.982   0.306   9.929  0.0960  0.8952 -1.0227
  338MOL0     C45501   4.921   0.213   9.852  0.3226  0.4056  0.0944
  338MOL0     C45502   4.939   0.075   9.888 -0.3767  0.4709  0.1659
  338MOL0     O45503   4.896  -0.025   9.806  0.0475 -0.1849  0.5197
  338MOL0     C45504   4.849   0.014   9.675 -0.0609 -0.4652  0.0746
  338MOL0     C45505   4.975   0.002   9.595 -0.0394 -0.2368  0.0579
  338MOL0     C45506   4.957  -0.025   9.448 -0.2763 -0.0660 -0.5637
  338MOL0     C45507   5.079   0.023   9.373 -0.1740  0.3313  0.1604
  338MOL0     C45508   5.043   0.047   9.225 -0.1360  0.4238 -0.4474
  338MOL0     C45509   5.174   0.098   9.144 -0.0033  1.2535  1.1337
  338MOL0     C45510   5.164   0.253   9.116 -0.1089 -0.0888 -0.1484
  338MOL0     C45511   5.294   0.295   9.047 -0.8841  0.0596  0.8546
  338MOL0     N45512   5.422   0.286   9.120 -0.9151 -0.2156  0.0269
  338MOL0     C45513   5.450   0.329   9.251  0.0869  0.0309 -0.5727
  338MOL0     C45514   5.570   0.254   9.272  0.3109  0.1161 -0.6773
  338MOL0     C45515   5.632   0.249   9.408 -0.5058 -0.0968 -0.4141
  338MOL0     C45516   5.616   0.381   9.493 -0.5195 -0.6754  1.4963
  338MOL0     C45517   5.697   0.361   9.634  0.3526 -0.7339  0.2918
  338MOL0     C45518   5.676   0.465   9.744 -1.0928  0.5408 -0.4896
  338MOL0     O45519   5.724   0.592   9.701 -1.1385 -0.1888 -0.1692
  338MOL0     C45520   5.738   0.676   9.814 -1.5280  0.7576 -0.5036
  338MOL0     C45521   5.677   0.672   9.943 -0.0940 -0.6036 -0.4142
  338MOL0     C45522   5.704   0.773  10.041  0.2683 -0.3415  0.6081
  338MOL0     C45523   5.628   0.750  10.164  0.1995 -0.5683 -0.3102
  338MOL0     C45524   5.777   0.883  10.009 -0.6524  0.0678  0.4222
  338MOL0     C45525   5.808   1.003  10.093 -0.2765  0.0916 -0.6559
  338MOL0     O45526   5.745   1.006  10.214  0.0525  0.8969 -0.5742
  338MOL0     C45527   5.773   1.119  10.300  0.1924  0.4045  0.4499
  338MOL0     C45528   5.886   1.123  10.380  0.5744  0.0942 -1.4314
  338MOL0     C45529   5.902   1.231  10.476 -0.7597  0.4079  0.0265
  338MOL0     C45530   5.805   1.333  10.478 -0.3877  0.4228 -0.2367
  338MOL0     O45531   5.819   1.434  10.566 -0.0766  0.1318 -0.5234
  338MOL0     C45532   5.695   1.467  10.632 -0.6871  0.3357 -0.2733
  338MOL0     C45533   5.698   1.515  10.780 -0.4969 -0.3581  1.1722
  338MOL0     C45534   5.731   1.423  10.898  0.0372 -0.3981  0.4831
  338MOL0     C45535   5.666   1.288  10.892 -0.5475  0.4549  0.0858
  338MOL0     C45536   5.714   1.194  11.010  1.7648 -0.2552 -0.4292
  338MOL0     C45537   5.601   1.087  11.038 -0.1614 -1.0459  0.0934
  338MOL0     C45538   5.633   1.016  11.167  0.1843  0.4826  0.4740
  338MOL0     C45539   5.596   1.101  11.285  0.6781  0.1966 -0.2095
  338MOL0    Cl45540   5.419   1.133  11.285 -0.4494  0.1186 -0.1988
  338MOL0     C45541   5.699   1.326  10.386  0.1768 -0.1554 -0.2447
  338MOL0     C45542   5.676   1.214  10.310 -0.2955 -0.2378  1.4238
  338MOL0     O45543   5.883   1.093  10.059 -0.7895  0.7194  0.1922
  338MOL0     C45544   5.841   0.894   9.880  0.7135 -0.5493 -0.2672
  338MOL0     C45545   5.822   0.784   9.791 -0.7314 -0.4424  0.0128
  338MOL0     N45546   5.600   0.171   9.162  0.1498 -0.4538 -0.4983
  338MOL0     N45547   5.511   0.193   9.076 -0.9452  0.6899  0.2445
  338MOL0     C45548   4.994   0.037  10.011 -0.6530 -0.8478 -0.9917
  338MOL0     C45549   5.043   0.144  10.089 -0.3827  0.6593  0.5327
  338MOL0     C45550   5.113   0.484  10.353 -0.5057 -0.3149  1.1749
  338MOL0     C45551   5.215   0.566  10.305  0.4989 -0.2135  0.4476
  338MOL0     C45552   5.267   0.676  10.375  0.4020  0.2530  0.5834
  338MOL0     C45553   5.230   0.687  10.510  0.2614 -0.4593 -0.8224
  338MOL0     O45554   5.308   0.762  10.600 -0.5405 -0.1152 -0.0615
  338MOL0     C45555   5.291   0.902  10.569  0.4667  0.5442  0.6774
  338MOL0     C45556   5.391   0.983  10.636  0.6451 -0.0917  0.5876
  338MOL0     C45557   5.531   0.968  10.597 -0.1755  0.1891  0.6138
  338MOL0     C45558   5.596   0.830  10.606 -0.4290  0.7276 -0.1966
  338MOL0     C45559   5.592   0.776  10.739 -0.0605  0.3634 -0.2672
  338MOL0     C45560   5.587   0.739  10.854 -0.0877 -0.0552  0.1912
  338MOL0     C45561   5.133   0.605  10.562 -0.0780  0.1559  0.8356
  338MOL0     C45562   5.066   0.512  10.484 -0.6750  0.0081  0.6467
  338MOL0     H45563   4.983   0.408   9.892 -1.9412  1.0410 -0.7923
  338MOL0     H45564   4.875   0.253   9.763 -3.1051 -1.6508  0.7760
  338MOL0     H45565   4.782  -0.068   9.648 -0.4541  0.1161 -0.7747
  338MOL0     H45566   4.795   0.108   9.661  0.5316  0.1829  1.8853
  338MOL0     H45567   5.024   0.097   9.619 -1.2810  0.1685  1.1348
  338MOL0     H45568   5.039  -0.078   9.634  1.9495  0.8980 -0.7595
  338MOL0     H45569   4.938  -0.131   9.427 -0.1141  0.3693 -3.2433
  338MOL0     H45570   4.872   0.034   9.414  0.7742  1.1339 -1.1925
  338MOL0     H45571   5.098   0.127   9.403 -0.9373 -0.0693  2.1626
  338MOL0     H45572   5.164  -0.045   9.388  2.2784  3.5596  2.6768
  338MOL0     H45573   4.996  -0.040   9.177 -0.3198  0.9110 -1.1660
  338MOL0     H45574   4.975   0.133   9.227 -0.9953 -0.1704 -1.9303
  338MOL0     H45575   5.263   0.091   9.207 -0.1913  1.7379  1.4652
  338MOL0     H45576   5.179   0.039   9.052 -0.5675 -1.2745  2.6365
  338MOL0     H45577   5.084   0.271   9.043 -1.2016 -1.7776  0.5635
  338MOL0     H45578   5.142   0.310   9.207  0.8980 -1.2681  0.8627
  338MOL0     H45579   5.295   0.399   9.013 -2.7084  0.2308  1.2072
  338MOL0     H45580   5.304   0.232   8.959 -4.3094 -0.3053  0.5745
  338MOL0     H45581   5.395   0.399   9.313 -1.1862  0.2826 -1.9287
  338MOL0     H45582   5.602   0.163   9.470  2.7658 -0.9396  0.2020
  338MOL0     H45583   5.738   0.226   9.398 -0.1910  1.9713 -2.5237
  338MOL0     H45584   5.509   0.400   9.498 -0.6586 -1.6659  3.0590
  338MOL0     H45585   5.655   0.463   9.432 -3.8668  0.6038  0.8911
  338MOL0     H45586   5.804   0.346   9.615  0.8815  1.1768  1.5006
  338MOL0     H45587   5.661   0.270   9.682 -2.7028  0.6732  0.9163
  338MOL0     H45588   5.721   0.422   9.834 -0.2660 -1.9276 -1.9824
  338MOL0     H45589   5.571   0.491   9.761 -1.3602 -1.2084  0.8326
  338MOL0     H45590   5.606   0.590   9.955 -1.5676  0.2168 -2.8214
  338MOL0     H45591   5.563   0.663  10.151 -2.4584  1.3564 -0.7567
  338MOL0     H45592   5.691   0.729  10.250 -1.6824 -0.8482  1.0581
  338MOL0     H45593   5.575   0.843  10.186  2.1544  1.0060 -1.8189
  338MOL0     H45594   5.945   1.032  10.376 -0.1975 -0.8333  2.8669
  338MOL0     H45595   5.994   1.229  10.532 -0.5354 -1.6316 -0.3314
  338MOL0     H45596   5.645   1.546  10.574  1.8350  0.3865 -2.5516
  338MOL0     H45597   5.629   1.380  10.639 -1.1987  0.8310  1.3313
  338MOL0     H45598   5.782   1.585  10.782 -2.0880  1.6267  1.5028
  338MOL0     H45599   5.598   1.558  10.788 -0.1776  1.3787 -2.2739
  338MOL0     H45600   5.695   1.469  10.991  0.1467 -0.3262  0.4906
  338MOL0     H45601   5.841   1.415  10.896  0.1809  1.2376 -1.7177
  338MOL0     H45602   5.558   1.302  10.893 -0.6169 -0.0443 -0.0204
  338MOL0     H45603   5.687   1.232  10.800 -0.1045 -0.3998  0.6888
  338MOL0     H45604   5.743   1.256  11.095  1.6644  0.5364 -0.9643
  338MOL0     H45605   5.803   1.137  10.984  2.1161  0.3838 -0.6382
  338MOL0     H45606   5.502   1.133  11.038 -0.4249 -1.5489  1.8371
  338MOL0     H45607   5.614   1.025  10.949  1.0797  2.7588 -2.6160
  338MOL0     H45608   5.742   1.006  11.170  0.4778  0.2820 -3.8242
  338MOL0     H45609   5.598   0.912  11.167  2.1096 -0.2105  0.7247
  338MOL0     H45610   5.639   1.202  11.281  1.1724  0.0360  0.7628
  338MOL0     H45611   5.634   1.072  11.383 -0.5172  0.0878  0.2305
  338MOL0     H45612   5.634   1.413  10.375 -1.9234 -1.2010  2.5812
  338MOL0     H45613   5.597   1.207  10.237 -2.2130 -1.6095  3.4783
  338MOL0     H45614   5.908   0.975   9.854  0.5194 -0.2955  0.0344
  338MOL0     H45615   5.873   0.789   9.696  0.7753 -2.7320  0.6152
  338MOL0     H45616   4.994  -0.064  10.052  0.3302  0.1802  1.8479
  338MOL0     H45617   5.089   0.135  10.187 -1.0687  3.3645  1.2000
  338MOL0     H45618   5.255   0.537  10.209  0.5218 -2.7803  1.1756
  338MOL0     H45619   5.341   0.741  10.328 -0.2894 -1.0610 -2.5514
  338MOL0     H45620   5.301   0.923  10.462 -2.5901 -3.0068 -0.5234
  338MOL0     H45621   5.193   0.930  10.609 -0.2502 -1.0024  0.0872
  338MOL0     H45622   5.386   0.957  10.743  0.2716  2.8861  1.3787
  338MOL0     H45623   5.367   1.090  10.635 -0.7636 -0.3437  2.3278
  338MOL0     H45624   5.592   1.031  10.663 -1.1917  0.8977  0.9000
  338MOL0     H45625   5.540   1.011  10.497 -1.6561 -1.3163 -0.2062
  338MOL0     H45626   5.699   0.821  10.571 -1.3159 -3.2918 -2.4685
  338MOL0     H45627   5.550   0.765  10.531  1.2527 -1.2220  0.3559
  338MOL0     H45628   5.592   0.706  10.956 -2.7470  0.5268  0.5772
  338MOL0     H45629   5.105   0.620  10.666 -1.2433  1.3761  0.3752
  338MOL0     H45630   4.982   0.457  10.524 -2.0605  1.5601  0.0097
  339MOL0     O45631   9.118   2.804   6.728  0.1156 -0.1836 -0.4157
  339MOL0     C45632   9.241   2.813   6.746  0.5278  0.3219 -0.2447
  339MOL0     O45633   9.332   2.718   6.774 -0.0962 -0.5896 -0.1632
  339MOL0     C45634   9.292   2.591   6.781  0.4308 -0.0619  0.5663
  339MOL0     C45635   9.200   2.544   6.877  0.1614 -0.7511 -0.0037
  339MOL0     C45636   9.154   2.407   6.880  0.2808  0.4027 -0.1725
  339MOL0     C45637   9.188   2.315   6.780 -0.4554 -0.3510  0.2400
  339MOL0     O45638   9.144   2.189   6.770 -0.6420  0.2653  0.0742
  339MOL0     C45639   9.027   2.140   6.838  0.7345  0.5046  0.0033
  339MOL0     C45640   8.983   2.013   6.768  0.3546 -0.2314  0.0113
  339MOL0     C45641   8.859   1.955   6.846 -0.0043  0.4686  1.0606
  339MOL0     C45642   8.824   1.815   6.791  0.1707 -0.3891  0.6277
  339MOL0     C45643   8.729   1.724   6.885  0.1856  0.8152 -0.5574
  339MOL0     C45644   8.584   1.775   6.872  0.5993 -0.0704 -0.2239
  339MOL0     C45645   8.477   1.697   6.960 -0.4717  1.3792 -0.4949
  339MOL0     C45646   8.342   1.749   6.917  0.6121  0.8038  0.8015
  339MOL0     N45647   8.223   1.715   6.984  0.2559  0.5934 -0.7526
  339MOL0     C45648   8.162   1.584   7.000 -0.7747 -0.5039 -0.4451
  339MOL0     C45649   8.047   1.615   7.072 -0.4100  0.7714 -0.4648
  339MOL0     C45650   7.949   1.516   7.108  0.4848  0.7262 -0.0544
  339MOL0     C45651   7.981   1.439   7.245  0.6142 -0.6882 -0.1923
  339MOL0     C45652   7.858   1.364   7.299 -0.5143 -0.4691  0.8337
  339MOL0     C45653   7.817   1.240   7.227  0.0847  0.4117 -0.4069
  339MOL0     O45654   7.780   1.250   7.086  0.2844 -0.8952 -0.5401
  339MOL0     C45655   7.707   1.149   7.039  1.3220  0.8928  0.7175
  339MOL0     C45656   7.581   1.188   6.989 -0.3882 -0.2096  0.1110
  339MOL0     C45657   7.501   1.086   6.937  0.3516  0.2924  0.5623
  339MOL0     C45658   7.363   1.125   6.888 -0.2276  0.5191  0.5993
  339MOL0     C45659   7.540   0.945   6.929  0.2562 -0.3049 -1.5035
  339MOL0     C45660   7.455   0.828   6.884 -0.0003  0.4172 -0.9237
  339MOL0     O45661   7.494   0.702   6.927  0.9122  0.8775 -0.4757
  339MOL0     C45662   7.468   0.584   6.854 -0.3449  0.1674  0.5495
  339MOL0     C45663   7.514   0.567   6.722 -0.3793  0.4057  0.2189
  339MOL0     C45664   7.483   0.452   6.650  0.5932  0.4827  1.6930
  339MOL0     C45665   7.412   0.351   6.694 -0.9305  0.4605  0.9950
  339MOL0     O45666   7.391   0.238   6.623  0.3347 -0.0422  0.1128
  339MOL0     C45667   7.301   0.252   6.512 -0.1358  0.2281  0.2605
  339MOL0     C45668   7.160   0.245   6.569 -0.2774 -0.2012  0.1127
  339MOL0     C45669   7.057   0.298   6.454  0.0052 -0.2507 -0.5253
  339MOL0     C45670   6.911   0.324   6.507 -0.1448  0.2001  0.7526
  339MOL0     C45671   6.810   0.374   6.400  0.4930 -0.9619 -0.2195
  339MOL0     C45672   6.723   0.253   6.370  0.0291 -0.6748 -0.4410
  339MOL0     C45673   6.610   0.240   6.478  0.8947  0.9374  0.1751
  339MOL0     C45674   6.493   0.154   6.452 -0.1121  0.2449  0.4544
  339MOL0    Cl45675   6.389   0.216   6.323  0.1547  0.7303  0.5868
  339MOL0     C45676   7.374   0.361   6.831  0.2987  0.1655 -0.3012
  339MOL0     C45677   7.394   0.480   6.908  0.1530 -0.2628  0.8679
  339MOL0     O45678   7.379   0.855   6.791 -0.3188  0.2476  0.6960
  339MOL0     C45679   7.672   0.918   6.983  0.2834  0.5061  0.8391
  339MOL0     C45680   7.751   1.013   7.039  0.5036  0.2468  0.2832
  339MOL0     N45681   8.037   1.754   7.086 -1.1624 -0.1961 -0.9313
  339MOL0     N45682   8.145   1.809   7.048  0.2668 -0.0166  0.2052
  339MOL0     C45683   9.283   2.358   6.690 -0.1383 -0.3597 -0.5745
  339MOL0     C45684   9.326   2.496   6.682 -0.0515  0.0613  0.4630
  339MOL0     C45685   9.309   2.936   6.711 -0.1136 -0.9739 -0.7396
  339MOL0     C45686   9.448   2.951   6.747 -0.1604  0.5172  0.6131
  339MOL0     C45687   9.512   3.072   6.706  0.4769  0.0548 -0.0681
  339MOL0     C45688   9.446   3.174   6.633 -0.5925  0.1269 -0.3032
  339MOL0     O45689   9.504   3.288   6.584 -0.1521 -0.3070  0.1282
  339MOL0     C45690   9.642   3.326   6.614  0.3839  0.4896 -0.3589
  339MOL0     C45691   9.757   3.250   6.544 -0.6036 -1.0691 -0.5719
  339MOL0     C45692   9.741   3.284   6.397  0.0070 -0.4977  0.0867
  339MOL0     C45693   9.841   3.202   6.310  0.4266  0.6372  0.4820
  339MOL0     C45694   9.859   3.246   6.174 -0.3610 -0.0326  0.8591
  339MOL0     C45695   9.891   3.278   6.062 -0.0126  0.5451  0.1206
  339MOL0     C45696   9.321   3.150   6.592  0.6739 -0.1782 -0.1125
  339MOL0     C45697   9.255   3.036   6.631  0.4233 -0.5228  0.6344
  339MOL0     H45698   9.152   2.603   6.955 -1.7333 -2.0822 -0.1052
  339MOL0     H45699   9.087   2.381   6.961  1.1836  1.1223  0.8465
  339MOL0     H45700   9.054   2.108   6.940  0.6380 -1.3414 -0.5040
  339MOL0     H45701   8.954   2.221   6.842 -0.4196 -0.5464  2.7430
  339MOL0     H45702   8.965   2.028   6.661  0.7672 -1.6574 -0.2766
  339MOL0     H45703   9.071   1.950   6.781 -0.2090 -1.1128 -0.2943
  339MOL0     H45704   8.871   1.948   6.955  2.2224 -3.1364  0.7440
  339MOL0     H45705   8.766   2.006   6.818  0.5326  0.7216 -0.3556
  339MOL0     H45706   8.774   1.834   6.696  1.3820 -2.2256 -0.4327
  339MOL0     H45707   8.920   1.771   6.764  0.3440  1.6002 -2.4370
  339MOL0     H45708   8.739   1.617   6.864 -0.2568  0.4185  1.0455
  339MOL0     H45709   8.766   1.726   6.988  0.0909  1.8879 -0.5377
  339MOL0     H45710   8.575   1.882   6.893 -3.4239 -0.6981  2.1547
  339MOL0     H45711   8.560   1.764   6.766 -1.4816 -0.7755  0.2793
  339MOL0     H45712   8.479   1.590   6.938 -0.2168  1.2701  0.0240
  339MOL0     H45713   8.516   1.722   7.059  1.1528  0.0972 -0.7586
  339MOL0     H45714   8.331   1.728   6.811  0.1489 -0.2327  1.0466
  339MOL0     H45715   8.326   1.857   6.921 -1.1603  0.5933  0.2017
  339MOL0     H45716   8.202   1.488   6.969  1.2785 -0.5241  1.9290
  339MOL0     H45717   7.852   1.565   7.122  0.0133 -0.3783  0.6070
  339MOL0     H45718   7.940   1.437   7.033  1.4009  1.0852 -0.5512
  339MOL0     H45719   8.012   1.516   7.316 -1.6608 -1.0449  1.3104
  339MOL0     H45720   8.056   1.366   7.213 -2.8622 -4.2162 -1.2400
  339MOL0     H45721   7.764   1.419   7.288 -2.1641 -3.5442 -2.2514
  339MOL0     H45722   7.872   1.332   7.403  2.1964 -3.3438 -0.2649
  339MOL0     H45723   7.738   1.193   7.286  1.6476 -0.9580  0.6734
  339MOL0     H45724   7.899   1.169   7.238  0.8856  1.6036  1.9679
  339MOL0     H45725   7.565   1.295   6.989  6.9778  1.4366 -0.2075
  339MOL0     H45726   7.288   1.049   6.913  1.1129 -0.6253  1.3124
  339MOL0     H45727   7.337   1.219   6.936  4.2292  2.5764 -0.4867
  339MOL0     H45728   7.359   1.148   6.781 -1.8636  1.0435  0.7482
  339MOL0     H45729   7.578   0.634   6.664  0.5239 -1.8083 -1.4816
  339MOL0     H45730   7.527   0.434   6.552  2.3129  1.5523  2.2244
  339MOL0     H45731   7.303   0.354   6.472  1.8196  0.0548 -0.1940
  339MOL0     H45732   7.303   0.178   6.432 -1.6564  1.6927 -1.2045
  339MOL0     H45733   7.126   0.146   6.603  1.7689 -1.2759 -0.7993
  339MOL0     H45734   7.151   0.311   6.656  2.7889 -0.0997  0.4342
  339MOL0     H45735   7.051   0.227   6.371 -0.1438 -1.3590  0.4115
  339MOL0     H45736   7.083   0.395   6.410  3.9872 -0.6703  0.5401
  339MOL0     H45737   6.878   0.229   6.549  3.5185 -1.4417  0.3190
  339MOL0     H45738   6.901   0.388   6.595  0.3907 -0.9404  1.6617
  339MOL0     H45739   6.871   0.412   6.318 -0.5913  1.5852  0.0638
  339MOL0     H45740   6.759   0.461   6.444 -0.1640 -1.6318  0.3672
  339MOL0     H45741   6.668   0.278   6.279 -1.9085  1.6748  1.2125
  339MOL0     H45742   6.779   0.161   6.354 -2.2678 -2.2087 -0.0913
  339MOL0     H45743   6.575   0.341   6.502 -3.2482  1.2469 -5.1168
  339MOL0     H45744   6.663   0.189   6.559 -1.8737 -1.2420  0.7924
  339MOL0     H45745   6.425   0.138   6.536 -1.7848  0.1337 -0.8743
  339MOL0     H45746   6.530   0.054   6.428 -3.0415 -0.6179 -0.9980
  339MOL0     H45747   7.332   0.288   6.899  1.7918  0.4770  1.0175
  339MOL0     H45748   7.361   0.486   7.012  1.9950 -4.1340  1.8579
  339MOL0     H45749   7.705   0.815   6.992 -1.0865  0.1682  2.4656
  339MOL0     H45750   7.833   0.982   7.103  2.0027 -0.2467 -1.7623
  339MOL0     H45751   9.307   2.293   6.606 -4.1187  0.8149 -2.8948
  339MOL0     H45752   9.392   2.523   6.600  1.2180  0.8910  1.7015
  339MOL0     H45753   9.507   2.877   6.800  0.6913  0.2231 -0.7024
  339MOL0     H45754   9.619   3.069   6.722  0.6891  1.8114 -0.9386
  339MOL0     H45755   9.655   3.434   6.600 -1.3287  0.6732 -0.6545
  339MOL0     H45756   9.658   3.311   6.721 -0.0485 -0.8030 -0.4591
  339MOL0     H45757   9.752   3.141   6.553 -0.4619 -1.0739 -0.5523
  339MOL0     H45758   9.849   3.286   6.591 -1.6561  3.1263 -1.3164
  339MOL0     H45759   9.760   3.387   6.366 -0.9126 -0.4710 -0.4164
  339MOL0     H45760   9.639   3.255   6.371  0.4300 -2.9090  0.8029
  339MOL0     H45761   9.806   3.098   6.308  1.3649  0.3083  0.6352
  339MOL0     H45762   9.943   3.212   6.347 -0.2443  2.6260  2.0174
  339MOL0     H45763   9.922   3.285   5.959  0.1604  0.8135  0.1893
  339MOL0     H45764   9.278   3.226   6.527  0.5510  1.3379  1.6766
  339MOL0     H45765   9.149   3.017   6.616  0.7770 -1.3437 -1.0150
  340MOL0     O45766   7.918   9.955   3.565  0.9604  0.1019  0.1308
  340MOL0     C45767   7.884   9.859   3.637  0.1369 -0.4119  0.7218
  340MOL0     O45768   7.966   9.761   3.679 -0.0599  0.4083  0.4834
  340MOL0     C45769   8.096   9.756   3.626  1.1129 -0.2695  0.1335
  340MOL0     C45770   8.195   9.842   3.674 -0.5229  0.5462  0.3660
  340MOL0     C45771   8.319   9.860   3.611 -0.8582 -0.0670  0.6042
  340MOL0     C45772   8.363   9.764   3.522  1.0305  0.0033 -0.4844
  340MOL0     O45773   8.488   9.781   3.468 -0.0718  0.1511  0.3330
  340MOL0     C45774   8.552   9.667   3.399 -0.9118 -0.3964 -0.2183
  340MOL0     C45775   8.645   9.591   3.495  0.4643 -0.1574  0.2764
  340MOL0     C45776   8.574   9.516   3.604 -0.5054 -0.2548  0.6615
  340MOL0     C45777   8.628   9.565   3.734 -0.1217 -0.2385 -0.9996
  340MOL0     C45778   8.574   9.512   3.862  0.6833  0.2305  0.4045
  340MOL0     C45779   8.630   9.367   3.885  0.1068 -0.0277  0.3655
  340MOL0     C45780   8.602   9.300   4.017 -0.5564  0.3719  0.5171
  340MOL0     C45781   8.697   9.353   4.123  0.2740 -0.0157  0.0240
  340MOL0     N45782   8.830   9.374   4.078 -0.4851 -0.4346 -0.2223
  340MOL0     C45783   8.913   9.269   4.066 -1.8053 -0.0007 -0.3197
  340MOL0     C45784   9.036   9.319   4.062  0.7988  0.1751 -0.2589
  340MOL0     C45785   9.173   9.256   4.064 -1.0019 -0.0955  1.0492
  340MOL0     C45786   9.277   9.349   3.996  0.5199 -0.4470 -0.6808
  340MOL0     C45787   9.330   9.283   3.870 -0.7039  0.9374 -0.0035
  340MOL0     C45788   9.238   9.299   3.751  0.7887  0.0079  0.2092
  340MOL0     O45789   9.312   9.246   3.639 -0.6566  0.0405 -0.7461
  340MOL0     C45790   9.254   9.250   3.516  0.1775  0.4425  0.8593
  340MOL0     C45791   9.112   9.243   3.484 -0.4021 -0.0268 -0.2969
  340MOL0     C45792   9.061   9.233   3.357  0.0511  0.3170 -1.3681
  340MOL0     C45793   8.920   9.238   3.334 -0.1070  0.5194 -0.5786
  340MOL0     C45794   9.143   9.225   3.245 -0.3188 -0.0268  0.1260
  340MOL0     C45795   9.099   9.190   3.100  0.0111 -0.3604 -0.1948
  340MOL0     O45796   9.183   9.238   2.997 -0.1522 -0.1777 -0.5509
  340MOL0     C45797   9.169   9.188   2.871 -0.7082  1.0639  0.1595
  340MOL0     C45798   9.181   9.050   2.838  0.5837  0.2738 -1.2822
  340MOL0     C45799   9.164   9.004   2.708 -0.4975  0.4375  0.4423
  340MOL0     C45800   9.162   9.087   2.599 -0.7722 -0.7950  0.9608
  340MOL0     O45801   9.154   9.053   2.460  0.1474 -0.1193  0.2969
  340MOL0     C45802   9.232   8.944   2.420  0.5527  0.5348  0.1922
  340MOL0     C45803   9.209   8.926   2.267 -0.1794  0.0298  1.3535
  340MOL0     C45804   9.325   8.869   2.192  0.2456 -0.2509 -0.7016
  340MOL0     C45805   9.285   8.852   2.036 -0.8731  0.2017 -0.9837
  340MOL0     C45806   9.178   8.746   1.998  0.0776 -0.1841 -0.6177
  340MOL0     C45807   9.229   8.605   2.046  0.5085 -0.7092  0.3505
  340MOL0     C45808   9.126   8.493   2.014 -0.1851  0.1527 -0.0232
  340MOL0     C45809   8.996   8.493   2.095  0.4038  0.2842 -0.0550
  340MOL0    Cl45810   8.894   8.643   2.066  0.3423 -0.3616  0.1642
  340MOL0     C45811   9.163   9.224   2.625  0.1212  0.0279 -0.3834
  340MOL0     C45812   9.162   9.272   2.763  0.1896 -0.1179 -0.3175
  340MOL0     O45813   8.996   9.125   3.082 -0.3419  0.0116 -0.1522
  340MOL0     C45814   9.279   9.229   3.269 -0.2224  0.5060  0.5289
  340MOL0     C45815   9.332   9.240   3.397  0.9575  0.7701 -0.7398
  340MOL0     N45816   9.024   9.463   4.061  0.9422 -0.0722 -0.3498
  340MOL0     N45817   8.898   9.494   4.082 -0.1277 -1.2565  0.1692
  340MOL0     C45818   8.269   9.665   3.477 -0.6088  0.6978  0.0726
  340MOL0     C45819   8.135   9.672   3.522  0.0388  0.2213  0.6175
  340MOL0     C45820   7.745   9.855   3.676 -0.0140  0.2803 -0.1878
  340MOL0     C45821   7.699   9.734   3.736 -0.1965 -0.6723  0.0930
  340MOL0     C45822   7.574   9.724   3.797  0.6439 -0.4734  0.8674
  340MOL0     C45823   7.485   9.832   3.792  0.2215  0.1848 -0.5123
  340MOL0     O45824   7.369   9.821   3.862  0.1455  1.0388 -0.0537
  340MOL0     C45825   7.263   9.769   3.784 -0.4090 -1.0002 -0.0202
  340MOL0     C45826   7.205   9.882   3.682 -0.0715 -0.0931  0.2829
  340MOL0     C45827   7.081   9.834   3.603 -0.4678  0.2337 -0.4003
  340MOL0     C45828   7.116   9.774   3.464 -0.0923 -0.3874  0.0502
  340MOL0     C45829   7.199   9.854   3.371 -0.2679 -0.1929  0.4275
  340MOL0     C45830   7.267   9.937   3.304  0.1676  0.7544 -0.6778
  340MOL0     C45831   7.524   9.940   3.713  1.1795 -0.5823 -0.3041
  340MOL0     C45832   7.650   9.954   3.653 -0.2594  0.2734 -0.0939
  340MOL0     H45833   8.161   9.900   3.760  1.7009 -0.8839  2.3240
  340MOL0     H45834   8.380   9.941   3.649 -1.2707 -0.7648  2.9184
  340MOL0     H45835   8.494   9.594   3.341  1.8680  0.3253 -4.3748
  340MOL0     H45836   8.626   9.696   3.324 -1.4302  2.4591  0.2718
  340MOL0     H45837   8.693   9.517   3.431 -1.3844 -0.4580 -0.8363
  340MOL0     H45838   8.724   9.657   3.532  0.8821 -1.8827  2.7441
  340MOL0     H45839   8.467   9.523   3.584 -0.2506  3.0581 -0.0967
  340MOL0     H45840   8.592   9.408   3.602  2.9088  0.2000 -0.5478
  340MOL0     H45841   8.737   9.556   3.733  0.0715  1.3149  0.7844
  340MOL0     H45842   8.598   9.669   3.746  0.3392 -0.4505  5.0437
  340MOL0     H45843   8.602   9.580   3.943 -2.0705  1.2040  0.6153
  340MOL0     H45844   8.465   9.510   3.869  0.7784 -1.1298  1.9523
  340MOL0     H45845   8.589   9.300   3.810  4.1944 -0.4085 -1.7456
  340MOL0     H45846   8.735   9.365   3.856 -0.5085 -0.9822 -2.0080
  340MOL0     H45847   8.498   9.310   4.049  0.1406  1.3976  2.6538
  340MOL0     H45848   8.615   9.192   4.016 -0.1085  0.3999 -1.7073
  340MOL0     H45849   8.702   9.273   4.198 -1.4923 -0.7706 -0.6184
  340MOL0     H45850   8.649   9.440   4.167  0.8344  1.5872 -2.3531
  340MOL0     H45851   8.898   9.162   4.075  0.4958 -0.2137  1.8490
  340MOL0     H45852   9.217   9.228   4.160  0.8544 -1.6065 -0.1750
  340MOL0     H45853   9.171   9.164   4.005  3.8935 -0.7734  1.5169
  340MOL0     H45854   9.362   9.381   4.058 -1.4298  1.5013  1.1539
  340MOL0     H45855   9.227   9.441   3.963 -0.9110 -1.4077 -1.2781
  340MOL0     H45856   9.351   9.176   3.875 -0.0635  0.8369 -3.0219
  340MOL0     H45857   9.426   9.328   3.844  0.1028 -1.8387 -2.2959
  340MOL0     H45858   9.210   9.405   3.745  1.0827  0.2564  2.5180
  340MOL0     H45859   9.143   9.246   3.767  2.1457 -2.5391  0.3379
  340MOL0     H45860   9.033   9.252   3.559 -1.4202 -1.8436 -1.1052
  340MOL0     H45861   8.883   9.136   3.351  2.9485 -0.8394 -1.4345
  340MOL0     H45862   8.861   9.317   3.381 -0.6489 -0.2988  0.1521
  340MOL0     H45863   8.889   9.265   3.233  0.7411 -0.4559 -1.1235
  340MOL0     H45864   9.191   8.980   2.921  1.0123  3.8197  1.9322
  340MOL0     H45865   9.169   8.897   2.686 -1.6657  0.3746  0.4435
  340MOL0     H45866   9.336   8.970   2.439  0.4935 -1.1688  3.5607
  340MOL0     H45867   9.211   8.848   2.468 -1.5124  0.1889 -1.2447
  340MOL0     H45868   9.123   8.860   2.249 -1.6102  2.5130 -1.8561
  340MOL0     H45869   9.183   9.020   2.218  0.2255 -1.0645 -1.0662
  340MOL0     H45870   9.351   8.772   2.235 -0.6476 -1.1684 -2.1478
  340MOL0     H45871   9.405   8.943   2.199  0.7923 -0.9447  1.1805
  340MOL0     H45872   9.254   8.950   2.000 -0.5060  1.2352  1.3682
  340MOL0     H45873   9.381   8.825   1.993 -0.8162 -0.3024 -0.5561
  340MOL0     H45874   9.161   8.744   1.890 -1.8560  0.7963 -0.3780
  340MOL0     H45875   9.085   8.782   2.043  2.3111  2.8418  2.1143
  340MOL0     H45876   9.327   8.582   2.003  2.6125  0.5296  4.0403
  340MOL0     H45877   9.232   8.617   2.155 -1.5949  2.2400  0.1798
  340MOL0     H45878   9.184   8.403   2.037  0.4062  0.7176  0.7582
  340MOL0     H45879   9.099   8.490   1.908  0.7639 -2.3622 -0.2727
  340MOL0     H45880   9.000   8.467   2.201 -1.7391  0.1178  0.0321
  340MOL0     H45881   8.933   8.407   2.069 -0.3798  0.7361  0.2918
  340MOL0     H45882   9.167   9.294   2.542  0.1459  1.9806  1.1934
  340MOL0     H45883   9.184   9.377   2.779  0.6853 -0.4826  1.6081
  340MOL0     H45884   9.349   9.211   3.188  0.4301 -3.2687  1.7143
  340MOL0     H45885   9.440   9.232   3.408  0.6970 -0.4615  1.6953
  340MOL0     H45886   8.305   9.585   3.413 -1.7344  1.4455 -1.5418
  340MOL0     H45887   8.062   9.600   3.487 -1.8992  1.7290  1.3664
  340MOL0     H45888   7.769   9.652   3.751 -1.8524 -2.5386 -1.7552
  340MOL0     H45889   7.537   9.638   3.851  1.2038 -2.1269 -1.2755
  340MOL0     H45890   7.299   9.683   3.726 -0.4305 -1.2674  0.3550
  340MOL0     H45891   7.185   9.736   3.853 -3.4408  1.8075 -1.8464
  340MOL0     H45892   7.283   9.923   3.617 -1.9475  3.6145  0.0841
  340MOL0     H45893   7.177   9.971   3.740 -1.7848  0.2521 -0.9935
  340MOL0     H45894   7.006   9.913   3.596 -1.2408 -0.3467  0.9156
  340MOL0     H45895   7.032   9.755   3.661 -2.9931  0.9921 -1.3353
  340MOL0     H45896   7.021   9.761   3.411 -0.3177  0.5426  0.2129
  340MOL0     H45897   7.172   9.683   3.489  2.7689  0.6571 -2.0029
  340MOL0     H45898   7.301  10.020   3.247 -1.3614  1.0023 -1.2811
  340MOL0     H45899   7.462  10.028   3.700 -1.2786 -1.9899  1.1806
  340MOL0     H45900   7.678  10.043   3.598 -1.1015  0.5353 -0.1152
  341MOL0     O45901   5.722  11.478   0.500  0.0006  0.3176 -0.2673
  341MOL0     C45902   5.654  11.389   0.453 -0.5894  0.4975 -0.1673
  341MOL0     O45903   5.566  11.402   0.353  0.1129  0.6088  0.1558
  341MOL0     C45904   5.553  11.523   0.292  0.5283 -0.4283  0.0124
  341MOL0     C45905   5.556  11.540   0.151  0.0655  0.2291  0.6095
  341MOL0     C45906   5.510  11.654   0.082 -0.3740  0.1889  0.3223
  341MOL0     C45907   5.468  11.769   0.152 -0.5000 -0.5585 -0.5183
  341MOL0     O45908   5.429  11.888   0.097  0.5884 -0.4690  0.0944
  341MOL0     C45909   5.419  11.896  -0.041 -1.1665 -0.1633  0.0884
  341MOL0     C45910   5.366  12.026  -0.087  0.3965 -0.1038 -0.1556
  341MOL0     C45911   5.339  12.044  -0.236 -0.5431  0.1131 -0.8369
  341MOL0     C45912   5.316  12.199  -0.254 -0.1985  0.2800 -0.3664
  341MOL0     C45913   5.235  12.235  -0.377  0.2713  0.3080 -0.5846
  341MOL0     C45914   5.197  12.385  -0.366 -0.0220  0.7575 -0.5724
  341MOL0     C45915   5.167  12.455  -0.497  0.1337 -0.1024  0.1618
  341MOL0     C45916   5.048  12.392  -0.575 -0.8256 -0.4774 -0.7527
  341MOL0     N45917   4.909  12.405  -0.502 -0.6810  0.1454  0.0891
  341MOL0     C45918   4.853  12.522  -0.483 -0.0063 -0.1536  0.2462
  341MOL0     C45919   4.723  12.502  -0.468  0.1552  0.6677 -0.1367
  341MOL0     C45920   4.619  12.601  -0.425  0.0466 -0.1298  0.5350
  341MOL0     C45921   4.517  12.556  -0.308 -0.0628 -0.2100  0.2377
  341MOL0     C45922   4.592  12.510  -0.193 -0.0808 -0.3523 -0.6172
  341MOL0     C45923   4.622  12.635  -0.096 -0.9061 -0.3584 -0.7978
  341MOL0     O45924   4.704  12.575   0.009 -0.2069  0.2152 -0.4004
  341MOL0     C45925   4.698  12.632   0.134  0.3989  0.2745 -0.4803
  341MOL0     C45926   4.696  12.772   0.152 -0.8545  0.4675  0.0332
  341MOL0     C45927   4.670  12.823   0.284 -0.4681  1.0417 -0.4444
  341MOL0     C45928   4.678  12.974   0.298 -0.8483  0.1898  0.4557
  341MOL0     C45929   4.665  12.734   0.396 -0.5197  1.0630  1.0948
  341MOL0     C45930   4.639  12.766   0.540 -0.5884 -0.4639 -0.0557
  341MOL0     O45931   4.611  12.663   0.633  0.2813 -0.9003 -0.2212
  341MOL0     C45932   4.601  12.694   0.770  0.2314 -0.3559  0.0534
  341MOL0     C45933   4.708  12.756   0.835 -0.3408  0.2727 -1.5846
  341MOL0     C45934   4.681  12.788   0.968 -0.3056  0.5111  0.2627
  341MOL0     C45935   4.559  12.767   1.031 -0.3717 -0.2600 -0.7200
  341MOL0     O45936   4.532  12.797   1.162 -0.5192 -0.4089 -0.5860
  341MOL0     C45937   4.584  12.921   1.220 -0.5953  0.4859 -0.4724
  341MOL0     C45938   4.486  12.983   1.330 -0.0932  0.2888 -0.4091
  341MOL0     C45939   4.548  13.108   1.388 -0.2386 -1.1034  0.6321
  341MOL0     C45940   4.467  13.154   1.510 -0.5607  0.1574  0.2445
  341MOL0     C45941   4.491  13.300   1.547  0.2066  0.1084  0.4940
  341MOL0     C45942   4.424  13.348   1.677  0.6475  0.2142 -0.2191
  341MOL0     C45943   4.414  13.499   1.695 -0.3789 -0.1548  0.4554
  341MOL0     C45944   4.328  13.536   1.817  0.4987 -0.4553 -0.0880
  341MOL0    Cl45945   4.156  13.522   1.774 -0.2295  0.2800 -0.0192
  341MOL0     C45946   4.459  12.703   0.961 -0.5799 -0.5007  0.0961
  341MOL0     C45947   4.479  12.662   0.832 -0.8269  0.1467  0.2517
  341MOL0     O45948   4.658  12.882   0.565  0.1886  0.5314 -0.0716
  341MOL0     C45949   4.688  12.602   0.366  0.0014 -0.8667 -0.4257
  341MOL0     C45950   4.699  12.546   0.242 -0.2824  0.1300 -0.1501
  341MOL0     N45951   4.701  12.362  -0.478  0.4726  0.2108  0.3622
  341MOL0     N45952   4.819  12.311  -0.485  0.3436 -0.6691  0.6477
  341MOL0     C45953   5.452  11.739   0.290 -0.0330  0.2824  0.6490
  341MOL0     C45954   5.485  11.630   0.354 -0.1649  0.2825 -0.0603
  341MOL0     C45955   5.651  11.249   0.521  0.0729  0.1418  1.2240
  341MOL0     C45956   5.589  11.136   0.455  0.0399 -0.6569 -0.0227
  341MOL0     C45957   5.573  11.009   0.517 -0.3503  0.0111  0.7605
  341MOL0     C45958   5.631  10.990   0.640 -0.5439 -0.2291 -0.3773
  341MOL0     O45959   5.625  10.866   0.701 -1.2280 -0.4883 -0.6423
  341MOL0     C45960   5.743  10.793   0.680 -0.8479  0.1543  0.7492
  341MOL0     C45961   5.704  10.655   0.625 -0.2110  0.2770  0.5618
  341MOL0     C45962   5.611  10.565   0.702 -0.5639 -0.0874 -0.3819
  341MOL0     C45963   5.561  10.438   0.626  0.0843 -0.4077  0.3556
  341MOL0     C45964   5.671  10.370   0.566 -1.1631  1.2325 -0.4365
  341MOL0     C45965   5.770  10.321   0.515 -0.4718  0.2524  0.2812
  341MOL0     C45966   5.706  11.096   0.697  0.1338  0.3770 -0.2295
  341MOL0     C45967   5.720  11.222   0.647  0.6303 -0.8921  0.7362
  341MOL0     H45968   5.583  11.457   0.087 -1.9820  0.8297 -1.1780
  341MOL0     H45969   5.503  11.659  -0.026 -0.6975  1.7279  0.3867
  341MOL0     H45970   5.518  11.893  -0.089 -1.0533  3.8161 -0.2542
  341MOL0     H45971   5.355  11.819  -0.086  0.1388 -5.0521  5.4604
  341MOL0     H45972   5.275  12.038  -0.027 -0.0986  2.3786 -1.2694
  341MOL0     H45973   5.435  12.103  -0.050  1.2290 -0.3554 -1.1473
  341MOL0     H45974   5.412  12.009  -0.310 -2.6120  2.0893 -4.0965
  341MOL0     H45975   5.253  11.983  -0.266  1.5118 -2.9169 -0.9793
  341MOL0     H45976   5.256  12.241  -0.173  0.1647  0.9142 -0.4177
  341MOL0     H45977   5.407  12.260  -0.242  1.4922 -2.3911  1.5615
  341MOL0     H45978   5.307  12.237  -0.460  1.9187 -0.8745  0.7662
  341MOL0     H45979   5.160  12.159  -0.403  0.1432 -0.8657  2.7972
  341MOL0     H45980   5.107  12.403  -0.307 -1.4954 -0.2734 -2.4250
  341MOL0     H45981   5.275  12.435  -0.307  0.5632  0.3923 -1.0182
  341MOL0     H45982   5.142  12.560  -0.478 -0.5869  0.2042 -2.1788
  341MOL0     H45983   5.254  12.466  -0.562  1.7560 -0.1198  2.1983
  341MOL0     H45984   5.065  12.285  -0.593  1.1506  0.0174 -2.0387
  341MOL0     H45985   5.036  12.446  -0.669  2.0910 -1.4843 -1.8266
  341MOL0     H45986   4.908  12.615  -0.476  1.7664 -1.2768  2.6361
  341MOL0     H45987   4.679  12.688  -0.395 -1.1531  1.0882 -0.4755
  341MOL0     H45988   4.562  12.640  -0.509  0.7311  0.1720  0.2039
  341MOL0     H45989   4.485  12.459  -0.348  3.1665 -1.6853  0.8353
  341MOL0     H45990   4.435  12.621  -0.276 -0.9699  0.1992 -2.6826
  341MOL0     H45991   4.686  12.470  -0.232 -0.4090 -1.5756 -0.1896
  341MOL0     H45992   4.535  12.429  -0.146 -0.1010  0.5278  0.9705
  341MOL0     H45993   4.536  12.683  -0.048  1.5159  0.8855  2.6955
  341MOL0     H45994   4.681  12.714  -0.142 -0.2914 -0.4404 -0.1831
  341MOL0     H45995   4.708  12.850   0.077 -1.0517  1.2387  0.7971
  341MOL0     H45996   4.701  13.017   0.200 -1.1720 -2.6631 -0.9622
  341MOL0     H45997   4.585  13.016   0.338 -0.1871  1.4112  0.7627
  341MOL0     H45998   4.765  12.997   0.359  1.7243  0.0642 -2.8826
  341MOL0     H45999   4.795  12.789   0.778 -0.2494 -0.1714 -1.7081
  341MOL0     H46000   4.768  12.834   1.013  0.0470 -0.8667  1.0165
  341MOL0     H46001   4.684  12.897   1.255  0.4029  2.9042 -1.4344
  341MOL0     H46002   4.596  12.993   1.139 -3.6359  1.9070  0.1872
  341MOL0     H46003   4.383  13.008   1.300 -1.8787 -0.4068  4.2771
  341MOL0     H46004   4.472  12.906   1.406 -1.5589 -2.4200 -3.2161
  341MOL0     H46005   4.523  13.186   1.316 -0.0578 -1.7477 -0.1370
  341MOL0     H46006   4.658  13.107   1.391 -0.2242 -0.5184  0.5686
  341MOL0     H46007   4.360  13.141   1.488 -1.2137  0.4492  2.8888
  341MOL0     H46008   4.480  13.096   1.602  1.9405  3.1470  1.9831
  341MOL0     H46009   4.438  13.360   1.473 -3.1549 -1.1010  1.6964
  341MOL0     H46010   4.598  13.319   1.550  0.6589 -2.1723  1.5566
  341MOL0     H46011   4.319  13.326   1.654  0.6847 -1.5236  1.0758
  341MOL0     H46012   4.444  13.291   1.769 -1.1198  0.5835  0.4371
  341MOL0     H46013   4.373  13.549   1.606  1.4075  1.0823  0.2752
  341MOL0     H46014   4.510  13.547   1.715 -0.5055 -0.0181  0.7401
  341MOL0     H46015   4.339  13.642   1.841  0.0137 -0.0793 -1.4398
  341MOL0     H46016   4.339  13.484   1.912 -1.6261  1.6540  1.4505
  341MOL0     H46017   4.367  12.679   1.014 -1.2757  2.9645  0.6821
  341MOL0     H46018   4.409  12.611   0.767 -1.9182  2.1477 -0.2044
  341MOL0     H46019   4.707  12.534   0.449 -0.8229 -2.5864 -1.6015
  341MOL0     H46020   4.720  12.439   0.240  0.1189  0.2144 -1.8232
  341MOL0     H46021   5.378  11.805   0.335 -2.5335 -2.2219  0.4432
  341MOL0     H46022   5.452  11.621   0.457 -0.0545  0.3199 -0.0223
  341MOL0     H46023   5.540  11.155   0.360  1.3911  0.9676 -0.4381
  341MOL0     H46024   5.508  10.929   0.483 -1.4790 -0.0993  2.9640
  341MOL0     H46025   5.803  10.840   0.602 -1.8687  2.0778  1.0505
  341MOL0     H46026   5.792  10.789   0.778 -0.6827 -1.4666  0.6352
  341MOL0     H46027   5.797  10.600   0.604 -1.3013 -1.0467 -0.9886
  341MOL0     H46028   5.658  10.672   0.528 -0.4238 -3.1960 -0.0684
  341MOL0     H46029   5.530  10.628   0.738  0.5842  1.1308  0.1551
  341MOL0     H46030   5.663  10.539   0.796 -2.6077 -0.5739  0.6760
  341MOL0     H46031   5.500  10.482   0.546 -3.4720 -0.4767  2.7634
  341MOL0     H46032   5.498  10.375   0.690 -2.8549  2.3243  0.4510
  341MOL0     H46033   5.860  10.280   0.474  2.1829 -1.0217  6.2345
  341MOL0     H46034   5.754  11.069   0.791 -0.7881 -0.4067  0.0331
  341MOL0     H46035   5.779  11.297   0.699  1.5386 -2.3628  1.9109
  342MOL0     O46036   9.817   9.925   7.741  1.0223 -0.5113 -0.0318
  342MOL0     C46037   9.937   9.897   7.739  0.0281 -0.8936 -0.2085
  342MOL0     O46038  10.006   9.842   7.628 -0.3383  0.2323 -0.2414
  342MOL0     C46039   9.945   9.830   7.503  0.0359  0.2995 -1.2477
  342MOL0     C46040   9.946   9.942   7.420 -0.5365  0.7620 -0.1182
  342MOL0     C46041   9.864   9.940   7.311  0.0373 -0.4672  0.0316
  342MOL0     C46042   9.781   9.834   7.286  0.3390  0.4388 -0.5807
  342MOL0     O46043   9.696   9.842   7.178  0.0124 -0.8057  0.1461
  342MOL0     C46044   9.567   9.784   7.174 -0.2972 -0.0620  0.0254
  342MOL0     C46045   9.456   9.842   7.258  0.0648 -0.3415  0.1108
  342MOL0     C46046   9.326   9.757   7.237 -0.5435 -0.5171 -0.4299
  342MOL0     C46047   9.306   9.634   7.336  0.1701 -0.6192  0.9096
  342MOL0     C46048   9.264   9.678   7.472 -0.1629 -1.0805 -0.9452
  342MOL0     C46049   9.124   9.729   7.483 -0.5627  0.1104 -0.6526
  342MOL0     C46050   9.014   9.624   7.443  0.1493  0.6302  0.1788
  342MOL0     C46051   8.866   9.650   7.478 -0.2085 -0.0248  0.6204
  342MOL0     N46052   8.819   9.778   7.433  0.7033  0.4869 -0.3653
  342MOL0     C46053   8.850   9.909   7.491  0.2605  0.3037 -0.0138
  342MOL0     C46054   8.752   9.994   7.435  0.5380 -0.1933 -0.0639
  342MOL0     C46055   8.740  10.135   7.465  0.3402  0.4504  0.0854
  342MOL0     C46056   8.675  10.151   7.604 -0.6169  0.3757 -0.0632
  342MOL0     C46057   8.528  10.116   7.610 -0.0760  0.0346  0.8110
  342MOL0     C46058   8.470  10.135   7.747  0.4260 -0.5246 -0.8021
  342MOL0     O46059   8.439  10.278   7.758 -0.4432  0.0827  0.0631
  342MOL0     C46060   8.414  10.325   7.886 -0.6568  0.0972  0.6254
  342MOL0     C46061   8.431  10.466   7.911 -0.1667  0.4929 -0.6067
  342MOL0     C46062   8.419  10.524   8.034  0.1838 -0.1819  0.2501
  342MOL0     C46063   8.438  10.678   8.050 -0.0696  0.3638  0.2351
  342MOL0     C46064   8.385  10.442   8.144 -0.1333  0.4154 -0.3089
  342MOL0     C46065   8.365  10.482   8.285 -0.2979 -0.3681 -0.3587
  342MOL0     O46066   8.382  10.382   8.373 -0.9559  0.2653  0.5120
  342MOL0     C46067   8.336  10.403   8.504  0.5802  0.1479  0.7206
  342MOL0     C46068   8.202  10.383   8.539  0.0191 -0.6189  0.2650
  342MOL0     C46069   8.157  10.415   8.670 -0.1312  0.2964 -0.5588
  342MOL0     C46070   8.260  10.447   8.764 -0.3542 -0.6077  0.4011
  342MOL0     O46071   8.229  10.484   8.890  0.1376  0.0017  0.0953
  342MOL0     C46072   8.166  10.391   8.977 -0.3929  1.0939 -0.5607
  342MOL0     C46073   8.263  10.283   9.028 -0.2422  0.0495 -0.5442
  342MOL0     C46074   8.228  10.184   9.142  0.8849 -0.2510 -0.3415
  342MOL0     C46075   8.176  10.047   9.095  0.5398 -0.3379 -0.1347
  342MOL0     C46076   8.130   9.952   9.208 -0.3805 -0.3369 -0.2203
  342MOL0     C46077   8.092   9.814   9.172  0.1840 -0.4485  0.3723
  342MOL0     C46078   7.991   9.752   9.277  0.5751  0.5566  0.6996
  342MOL0     C46079   7.970   9.603   9.248  0.4275  0.6360  0.6202
  342MOL0    Cl46080   7.807   9.580   9.202 -0.0036  0.1805 -0.1641
  342MOL0     C46081   8.393  10.454   8.728 -0.3113 -0.5091  0.0377
  342MOL0     C46082   8.433  10.433   8.594  0.3045 -0.7823  0.3148
  342MOL0     O46083   8.347  10.594   8.318  0.7523 -0.1096  0.3058
  342MOL0     C46084   8.371  10.298   8.116  0.0465  0.4172 -0.3386
  342MOL0     C46085   8.394  10.244   7.992  0.8475  0.1653 -0.5938
  342MOL0     N46086   8.663   9.922   7.360 -0.3119  0.6259  0.5799
  342MOL0     N46087   8.706   9.796   7.351 -0.2951 -0.0427 -0.8243
  342MOL0     C46088   9.780   9.722   7.369  0.6263  0.0353 -0.2579
  342MOL0     C46089   9.858   9.720   7.487 -0.1351 -0.1211  1.3332
  342MOL0     C46090  10.022   9.916   7.868 -0.0318  0.6769  0.5859
  342MOL0     C46091   9.964   9.951   7.995 -0.3578 -0.3934 -0.0819
  342MOL0     C46092  10.039   9.982   8.109 -0.3101  0.3822 -0.6306
  342MOL0     C46093  10.182   9.959   8.105  0.6644 -0.4057  1.0137
  342MOL0     O46094  10.247   9.974   8.219  0.1779  0.3462  0.4606
  342MOL0     C46095  10.394   9.958   8.226  0.3969 -0.5179  0.3730
  342MOL0     C46096  10.437   9.819   8.241  0.9355  0.4244  0.1100
  342MOL0     C46097  10.441   9.779   8.387 -1.0158 -0.3243 -0.2174
  342MOL0     C46098  10.549   9.828   8.473  0.4653 -0.3359  0.1710
  342MOL0     C46099  10.686   9.758   8.462 -0.7181  0.2882 -0.3456
  342MOL0     C46100  10.777   9.683   8.458 -0.2502  0.1619  0.0175
  342MOL0     C46101  10.239   9.925   7.985 -0.5165 -0.3434  0.2573
  342MOL0     C46102  10.161   9.901   7.867 -0.0100  0.5273 -0.6590
  342MOL0     H46103  10.002  10.031   7.449 -0.8596  1.4506 -1.5073
  342MOL0     H46104   9.862  10.022   7.239  2.0143  0.0424  0.4990
  342MOL0     H46105   9.537   9.810   7.072  1.7526  1.8296 -0.1793
  342MOL0     H46106   9.574   9.675   7.184  0.6973  0.1841  3.2555
  342MOL0     H46107   9.491   9.846   7.361 -0.3086 -0.0238  0.2243
  342MOL0     H46108   9.443   9.949   7.237 -2.7053 -1.2221 -4.0219
  342MOL0     H46109   9.247   9.827   7.267 -0.1976 -1.3760  2.9473
  342MOL0     H46110   9.311   9.722   7.134  2.4489  0.4088 -1.2682
  342MOL0     H46111   9.227   9.566   7.302  0.4190 -1.6208  2.2227
  342MOL0     H46112   9.396   9.576   7.361 -0.7963 -2.6149 -0.0427
  342MOL0     H46113   9.269   9.600   7.548 -1.1701  1.7665  2.3639
  342MOL0     H46114   9.341   9.746   7.511 -0.4342 -0.8075 -0.8778
  342MOL0     H46115   9.125   9.752   7.590  4.4014  3.7670 -1.1361
  342MOL0     H46116   9.115   9.824   7.430  2.7487  1.6938  1.2736
  342MOL0     H46117   9.019   9.608   7.335  1.8434  3.0950 -0.2180
  342MOL0     H46118   9.037   9.522   7.476 -3.2388 -0.4104 -0.3600
  342MOL0     H46119   8.872   9.656   7.587  2.1885  0.7014  0.4951
  342MOL0     H46120   8.805   9.570   7.434 -1.3660  1.7713 -1.1681
  342MOL0     H46121   8.922   9.932   7.568 -0.7324  0.1058  1.0019
  342MOL0     H46122   8.837  10.184   7.479  1.3976 -2.0381  2.0557
  342MOL0     H46123   8.688  10.187   7.384 -2.2248  2.5310  2.8375
  342MOL0     H46124   8.690  10.257   7.627  0.2631  0.9258 -2.8208
  342MOL0     H46125   8.722  10.095   7.686 -0.1049 -0.9056 -1.2011
  342MOL0     H46126   8.515  10.015   7.571 -1.5999 -0.7357  3.1488
  342MOL0     H46127   8.453  10.174   7.556  1.1307  1.5948  0.7164
  342MOL0     H46128   8.529  10.098   7.832 -2.0602  1.9579  2.2828
  342MOL0     H46129   8.376  10.078   7.743  0.3880 -0.4598 -0.8419
  342MOL0     H46130   8.444  10.544   7.837 -0.0880  0.4933 -0.5935
  342MOL0     H46131   8.343  10.732   8.041 -0.8664 -1.2789 -2.3091
  342MOL0     H46132   8.486  10.713   8.141  1.6922  2.4013 -1.3695
  342MOL0     H46133   8.510  10.717   7.977  2.4644 -0.0972  2.3804
  342MOL0     H46134   8.133  10.361   8.458  0.2368 -0.8083  0.1319
  342MOL0     H46135   8.051  10.429   8.689  0.0916  1.1169  0.1398
  342MOL0     H46136   8.117  10.453   9.053 -2.0851  0.8778 -1.4435
  342MOL0     H46137   8.090  10.336   8.921  0.4517  2.0028 -2.7357
  342MOL0     H46138   8.297  10.220   8.946  0.7650  1.3056 -1.1235
  342MOL0     H46139   8.346  10.343   9.066 -1.4437 -0.3218  3.0705
  342MOL0     H46140   8.157  10.229   9.211 -0.3456 -1.1559 -0.9734
  342MOL0     H46141   8.325  10.161   9.187  1.7153 -0.4696 -2.1512
  342MOL0     H46142   8.099  10.044   9.017  1.3969 -3.9365 -1.0111
  342MOL0     H46143   8.262   9.995   9.052  0.0888 -1.0712 -0.1741
  342MOL0     H46144   8.045   9.997   9.259  0.1326  1.1583 -0.6006
  342MOL0     H46145   8.204   9.940   9.288 -0.9518  0.8485  0.5121
  342MOL0     H46146   8.057   9.834   9.070  2.3606  0.9603 -0.1879
  342MOL0     H46147   8.182   9.752   9.170 -0.0852 -0.8330  0.1057
  342MOL0     H46148   7.895   9.803   9.265 -0.2465 -1.3380 -2.0572
  342MOL0     H46149   8.037   9.763   9.375  3.6902  2.4236 -0.8168
  342MOL0     H46150   7.994   9.546   9.338 -0.6831  0.4739  0.8345
  342MOL0     H46151   8.029   9.566   9.164 -0.3232 -1.6120  0.9986
  342MOL0     H46152   8.461  10.481   8.808 -1.3776  2.1623  0.1271
  342MOL0     H46153   8.535  10.457   8.562 -0.4081  1.6804 -0.3585
  342MOL0     H46154   8.341  10.231   8.196  2.7575 -1.0399 -0.4302
  342MOL0     H46155   8.373  10.139   7.974 -3.7012  0.8181 -0.2247
  342MOL0     H46156   9.719   9.634   7.353  3.0917 -1.7452 -0.2963
  342MOL0     H46157   9.864   9.645   7.565 -0.3182  0.0577  1.5182
  342MOL0     H46158   9.861   9.984   8.009 -0.0886  0.8269 -0.8996
  342MOL0     H46159  10.005  10.008   8.209  2.9520  1.3191  0.3714
  342MOL0     H46160  10.437  10.006   8.138  2.6581 -1.7009  0.7712
  342MOL0     H46161  10.414  10.028   8.307  0.5569  0.9709 -0.9040
  342MOL0     H46162  10.535   9.821   8.193  1.3341  2.5794  0.9300
  342MOL0     H46163  10.376   9.751   8.181  2.9156 -1.7839  0.4557
  342MOL0     H46164  10.443   9.670   8.393  0.2631 -0.2337  2.0471
  342MOL0     H46165  10.353   9.815   8.440 -1.1499 -1.0744  0.0735
  342MOL0     H46166  10.521   9.808   8.577 -1.4506 -0.0869 -0.2640
  342MOL0     H46167  10.558   9.935   8.453  2.3487 -0.0029  2.3277
  342MOL0     H46168  10.871   9.632   8.455  1.5756  3.2548  0.0931
  342MOL0     H46169  10.346   9.912   7.972 -0.3229  2.7235 -2.8564
  342MOL0     H46170  10.202   9.872   7.771  0.0974 -1.4203 -0.0673
  343MOL0     O46171   1.582   8.346  10.003  0.6779  0.0907  0.1340
  343MOL0     C46172   1.597   8.387   9.886  0.1474 -0.9984 -1.4902
  343MOL0     O46173   1.498   8.390   9.786 -0.1225 -1.3876  0.3674
  343MOL0     C46174   1.381   8.320   9.803 -0.6991  0.5935 -0.0258
  343MOL0     C46175   1.367   8.201   9.881 -0.1031  0.2280  0.6335
  343MOL0     C46176   1.244   8.127   9.893 -0.6037  0.3369 -0.0138
  343MOL0     C46177   1.134   8.169   9.823 -1.1599 -1.8503  0.7226
  343MOL0     O46178   1.031   8.081   9.829 -0.1486 -0.3372  0.1543
  343MOL0     C46179   0.946   8.076   9.710  0.7912 -0.0484  0.0022
  343MOL0     C46180   0.874   7.938   9.682  0.0836  0.4072 -0.7987
  343MOL0     C46181   0.783   7.875   9.791 -0.2186 -0.2677  0.1385
  343MOL0     C46182   0.754   7.727   9.760  0.0953 -0.1570 -0.4490
  343MOL0     C46183   0.671   7.653   9.854  0.1042  0.0406  0.6441
  343MOL0     C46184   0.521   7.672   9.824  0.0219  0.1286  0.1859
  343MOL0     C46185   0.442   7.577   9.918  0.3062 -0.4870 -0.2480
  343MOL0     C46186   0.409   7.647  10.054 -0.7666 -0.3905 -0.2349
  343MOL0     N46187   0.306   7.756  10.042 -0.8104  0.6273  0.1240
  343MOL0     C46188   0.185   7.760   9.967 -0.4681 -0.0885 -0.4755
  343MOL0     C46189   0.141   7.882   9.983 -0.8083 -0.0139 -0.3713
  343MOL0     C46190   0.014   7.940   9.942  1.1009 -0.0166 -0.3514
  343MOL0     C46191  -0.067   7.994  10.062  0.4110 -0.0153 -0.6237
  343MOL0     C46192  -0.190   8.090  10.033  0.7695  0.7034 -0.7838
  343MOL0     C46193  -0.293   8.052   9.922  0.8379 -0.3747 -0.7118
  343MOL0     O46194  -0.386   8.165   9.905 -0.2410  0.0210  0.2240
  343MOL0     C46195  -0.519   8.152   9.952 -0.5325 -0.2605 -0.6127
  343MOL0     C46196  -0.626   8.189   9.877 -1.1575  0.3512 -0.5110
  343MOL0     C46197  -0.751   8.205   9.933  0.1592 -0.5964  0.5406
  343MOL0     C46198  -0.863   8.266   9.844 -0.6782  0.3045 -0.2962
  343MOL0     C46199  -0.772   8.143  10.058  0.1596  0.6731 -0.9427
  343MOL0     C46200  -0.894   8.123  10.128  0.3687  0.3867 -0.5777
  343MOL0     O46201  -0.991   8.202  10.101  0.4189  0.1456 -0.8092
  343MOL0     C46202  -1.110   8.194  10.178  0.2263 -0.1313  0.1854
  343MOL0     C46203  -1.148   8.305  10.247 -0.6297  0.3149 -0.1597
  343MOL0     C46204  -1.274   8.322  10.305 -0.1874  0.1464  0.3608
  343MOL0     C46205  -1.364   8.218  10.298  0.1847 -0.4085 -0.2720
  343MOL0     O46206  -1.488   8.259  10.341  0.5135  0.0724  0.3360
  343MOL0     C46207  -1.587   8.160  10.344 -1.0341  0.6108  0.8961
  343MOL0     C46208  -1.718   8.229  10.368  0.7563  0.2709 -0.6708
  343MOL0     C46209  -1.727   8.271  10.517 -0.2503  0.3878 -0.0677
  343MOL0     C46210  -1.858   8.344  10.544 -0.3872 -0.2350 -1.3179
  343MOL0     C46211  -1.872   8.354  10.695  0.1036  0.2223  0.4796
  343MOL0     C46212  -2.012   8.397  10.739  0.5024 -1.0346 -0.1867
  343MOL0     C46213  -2.033   8.375  10.888  1.3951 -0.4485 -0.0873
  343MOL0     C46214  -2.152   8.450  10.949  0.3687 -0.5422 -0.4923
  343MOL0    Cl46215  -2.294   8.370  10.891 -0.4848 -0.3657 -0.0346
  343MOL0     C46216  -1.327   8.098  10.242  0.3979 -0.2653 -0.5635
  343MOL0     C46217  -1.205   8.092  10.172  0.4107  0.3178 -1.0860
  343MOL0     O46218  -0.895   8.027  10.198 -0.1602  0.2394  0.1141
  343MOL0     C46219  -0.660   8.106  10.140  0.1363  0.4136  1.0589
  343MOL0     C46220  -0.532   8.113  10.078 -0.1212  0.3140 -0.9566
  343MOL0     N46221   0.231   7.950  10.072 -0.2537  0.7618 -0.2336
  343MOL0     N46222   0.328   7.877  10.096 -0.1892  0.0208 -0.3128
  343MOL0     C46223   1.141   8.292   9.752  0.2088  0.4317  0.6470
  343MOL0     C46224   1.257   8.363   9.743  1.0104 -0.2521 -0.4600
  343MOL0     C46225   1.717   8.457   9.843  0.5704 -0.5444  0.3391
  343MOL0     C46226   1.799   8.518   9.932  0.2008 -0.0378  0.4262
  343MOL0     C46227   1.907   8.604   9.892 -0.0443  0.1769  0.1620
  343MOL0     C46228   1.945   8.622   9.757  0.3235 -0.5304 -0.2485
  343MOL0     O46229   2.049   8.707   9.719  0.0802 -0.9540  1.1279
  343MOL0     C46230   2.066   8.750   9.576 -1.0637  0.2704 -0.4926
  343MOL0     C46231   1.999   8.889   9.570  0.1636  0.0616 -0.0178
  343MOL0     C46232   2.070   8.994   9.659  0.1771 -0.7615  0.0800
  343MOL0     C46233   1.985   9.127   9.653  0.7756 -0.1132 -0.0695
  343MOL0     C46234   2.001   9.181   9.524  0.9087 -1.3427 -0.2833
  343MOL0     C46235   2.011   9.221   9.411 -0.0087 -0.4542 -0.3316
  343MOL0     C46236   1.853   8.564   9.673  0.2920 -0.2378 -0.0998
  343MOL0     C46237   1.739   8.484   9.709 -1.0350 -1.0309 -0.5025
  343MOL0     H46238   1.444   8.145   9.932 -1.4564 -1.7997  0.5464
  343MOL0     H46239   1.225   8.035   9.948  1.3585 -0.0837  0.0468
  343MOL0     H46240   0.870   8.155   9.712  1.0531  0.3495 -2.6866
  343MOL0     H46241   1.009   8.081   9.621  3.4037 -1.5790  1.6517
  343MOL0     H46242   0.803   7.932   9.598 -2.5463 -2.9040  1.3859
  343MOL0     H46243   0.957   7.870   9.663  1.7067  1.2242  2.5911
  343MOL0     H46244   0.841   7.894   9.882 -1.5208 -0.9722  1.1501
  343MOL0     H46245   0.687   7.929   9.794  0.1120  0.4497 -1.2908
  343MOL0     H46246   0.725   7.706   9.656 -2.0704 -0.8482  0.2400
  343MOL0     H46247   0.853   7.683   9.775 -0.8202 -2.6212 -1.1252
  343MOL0     H46248   0.714   7.553   9.860 -2.5036 -1.0945  1.9505
  343MOL0     H46249   0.689   7.688   9.956  1.1168 -0.6390  0.7096
  343MOL0     H46250   0.485   7.775   9.836 -2.5906 -0.6894  0.0103
  343MOL0     H46251   0.502   7.644   9.720 -3.6730  2.0581  0.1623
  343MOL0     H46252   0.348   7.544   9.871 -1.5860  1.6232  1.8103
  343MOL0     H46253   0.491   7.482   9.942 -1.0268 -1.1823 -0.1217
  343MOL0     H46254   0.505   7.679  10.097 -2.2614  0.2949  2.8736
  343MOL0     H46255   0.368   7.575  10.125  2.2490 -1.3700  0.6615
  343MOL0     H46256   0.135   7.685   9.906 -4.3666  1.1565  0.9028
  343MOL0     H46257   0.043   8.035   9.895  0.4813  0.7863  0.8441
  343MOL0     H46258  -0.055   7.888   9.875 -1.4181  4.5342 -1.7829
  343MOL0     H46259  -0.003   8.055  10.125  2.9852 -2.2931 -0.8554
  343MOL0     H46260  -0.112   7.916  10.124  4.1067 -0.6083  1.5910
  343MOL0     H46261  -0.141   8.185  10.007  1.4270  0.3235 -0.9614
  343MOL0     H46262  -0.253   8.104  10.121  2.3573 -4.2189  1.5184
  343MOL0     H46263  -0.346   7.957   9.937  0.4145  0.0529  0.7251
  343MOL0     H46264  -0.240   8.039   9.828  2.0390  1.0307 -0.2623
  343MOL0     H46265  -0.599   8.225   9.778  0.0928  1.2520  0.1275
  343MOL0     H46266  -0.827   8.255   9.741  1.5458 -3.9215  0.6962
  343MOL0     H46267  -0.956   8.208   9.838  0.1668 -1.1189  0.0259
  343MOL0     H46268  -0.886   8.369   9.874  0.2295  0.1345  1.0936
  343MOL0     H46269  -1.074   8.378  10.279 -0.7966  0.0256  0.9540
  343MOL0     H46270  -1.310   8.416  10.346  1.3538  1.4860 -1.2004
  343MOL0     H46271  -1.594   8.121  10.242 -0.3124  0.9088  0.7241
  343MOL0     H46272  -1.564   8.079  10.415 -2.1102 -1.5325 -1.0594
  343MOL0     H46273  -1.705   8.324  10.314  0.5941  1.3505  1.1150
  343MOL0     H46274  -1.804   8.170  10.336 -1.1440  4.2885 -3.8770
  343MOL0     H46275  -1.636   8.329  10.538 -1.4615  1.7884  1.5786
  343MOL0     H46276  -1.727   8.189  10.589  0.5772 -0.9532 -1.5471
  343MOL0     H46277  -1.849   8.446  10.503 -0.2531 -0.3774 -1.6492
  343MOL0     H46278  -1.939   8.289  10.495 -3.1385  0.4537  2.0665
  343MOL0     H46279  -1.809   8.436  10.732 -0.3116 -0.0699  1.8927
  343MOL0     H46280  -1.831   8.264  10.742  0.1583  0.7156  1.4053
  343MOL0     H46281  -2.037   8.497  10.704  0.7280 -1.3957 -1.4163
  343MOL0     H46282  -2.075   8.323  10.688 -0.1595  0.2754 -1.3089
  343MOL0     H46283  -1.950   8.425  10.938 -0.5184  3.3531 -0.4044
  343MOL0     H46284  -2.033   8.270  10.919  0.5296 -0.9501 -1.6748
  343MOL0     H46285  -2.155   8.557  10.922  1.9501 -0.8686 -2.2187
  343MOL0     H46286  -2.148   8.460  11.058 -1.0262 -0.6992 -0.4205
  343MOL0     H46287  -1.396   8.014  10.237 -1.2460  0.6874  2.8168
  343MOL0     H46288  -1.175   7.998  10.128  1.9180  0.3502 -0.2294
  343MOL0     H46289  -0.663   8.068  10.242  0.9051 -1.8657  0.3094
  343MOL0     H46290  -0.451   8.075  10.140  0.8034 -0.1747 -2.3977
  343MOL0     H46291   1.059   8.311   9.683  1.2368  0.5435 -0.5696
  343MOL0     H46292   1.248   8.459   9.695  0.6316  1.2234  2.3750
  343MOL0     H46293   1.784   8.508  10.039 -1.0891 -2.0635  0.1082
  343MOL0     H46294   1.965   8.658   9.968 -0.5301  0.6360  0.2121
  343MOL0     H46295   2.173   8.765   9.560 -1.5011  1.5805 -2.5063
  343MOL0     H46296   2.026   8.680   9.502 -1.5117  0.7202 -0.6750
  343MOL0     H46297   1.891   8.887   9.587  0.1965 -0.0133  0.1801
  343MOL0     H46298   1.998   8.914   9.463 -1.9381  0.5027  0.0534
  343MOL0     H46299   2.161   9.018   9.604 -1.5450  2.8431 -1.4912
  343MOL0     H46300   2.072   8.970   9.766 -1.3670 -0.0618  0.2992
  343MOL0     H46301   2.027   9.194   9.728  1.7995  0.8842 -1.4755
  343MOL0     H46302   1.879   9.113   9.674  0.1074  4.0278  0.2030
  343MOL0     H46303   2.017   9.245   9.307  1.2568 -1.3573 -0.4800
  343MOL0     H46304   1.849   8.580   9.566  2.7360 -0.7843 -0.3326
  343MOL0     H46305   1.673   8.439   9.635 -0.9730 -0.7212 -0.7474
  344MOL0     O46306   3.990   8.555   7.923  0.7240 -0.7336  0.5828
  344MOL0     C46307   3.873   8.592   7.930  0.8568 -0.1849  0.6717
  344MOL0     O46308   3.829   8.721   7.956 -0.7786 -0.1636  0.5024
  344MOL0     C46309   3.915   8.819   7.935  0.3613 -0.7002 -0.1026
  344MOL0     C46310   4.006   8.830   7.825 -0.7578  0.1202  0.4257
  344MOL0     C46311   4.077   8.944   7.811 -0.1857  0.2750  0.2226
  344MOL0     C46312   4.063   9.056   7.900  0.7162 -0.2756 -0.1273
  344MOL0     O46313   4.144   9.159   7.879  0.4809 -0.1538  0.1513
  344MOL0     C46314   4.190   9.238   7.991  0.1258  0.8908  0.4628
  344MOL0     C46315   4.295   9.341   7.949  0.1595 -0.2469  0.6662
  344MOL0     C46316   4.312   9.464   8.042  0.5915  0.7811 -0.5325
  344MOL0     C46317   4.352   9.435   8.188 -1.1401  1.9778  0.2310
  344MOL0     C46318   4.350   9.561   8.276  0.1256 -0.1714  0.2357
  344MOL0     C46319   4.472   9.567   8.362  0.4837 -0.6613 -0.4380
  344MOL0     C46320   4.464   9.691   8.452  1.1357  0.4463 -1.0591
  344MOL0     C46321   4.464   9.824   8.386 -0.6010 -0.1591 -0.2698
  344MOL0     N46322   4.604   9.880   8.349  0.0392  0.8116 -0.0752
  344MOL0     C46323   4.619  10.011   8.339  0.5189 -0.1914 -0.1829
  344MOL0     C46324   4.742  10.025   8.281 -0.2415 -0.8184  0.4326
  344MOL0     C46325   4.820  10.149   8.258  0.2632 -0.4047 -0.5799
  344MOL0     C46326   4.947  10.158   8.353  0.6574  0.4424 -0.6425
  344MOL0     C46327   5.003  10.302   8.342  1.2730  0.1901  0.3820
  344MOL0     C46328   5.048  10.342   8.208  0.0374  0.5164 -0.4602
  344MOL0     O46329   5.078  10.238   8.115  0.5514  0.1306  0.4038
  344MOL0     C46330   5.206  10.247   8.068 -0.1498 -0.0748  0.7030
  344MOL0     C46331   5.328  10.270   8.139 -1.1215  0.3327 -0.6426
  344MOL0     C46332   5.454  10.291   8.082  0.9898  0.1869  0.0004
  344MOL0     C46333   5.587  10.278   8.163  0.7122  0.2102 -0.2946
  344MOL0     C46334   5.460  10.285   7.942 -0.4449  0.4621 -0.6593
  344MOL0     C46335   5.588  10.310   7.868 -0.0788 -1.0393 -0.8383
  344MOL0     O46336   5.624  10.219   7.772  0.4647 -0.1163  0.1123
  344MOL0     C46337   5.741  10.233   7.707  0.0526 -0.0651  0.0615
  344MOL0     C46338   5.852  10.217   7.785  0.8235 -0.0645  0.6094
  344MOL0     C46339   5.976  10.227   7.733 -0.8670 -0.7368 -0.6003
  344MOL0     C46340   6.001  10.261   7.594  0.2349  0.4231 -0.2738
  344MOL0     O46341   6.135  10.262   7.553 -0.4810  1.0188  1.2593
  344MOL0     C46342   6.165  10.302   7.418 -0.3684  0.2724  0.2946
  344MOL0     C46343   6.167  10.188   7.317  0.2397 -0.5733 -0.5436
  344MOL0     C46344   6.249  10.244   7.206 -0.7792 -0.9761 -0.0858
  344MOL0     C46345   6.253  10.157   7.079 -0.5133  0.0455  1.5088
  344MOL0     C46346   6.287  10.234   6.945 -0.6538 -0.7187 -0.6492
  344MOL0     C46347   6.427  10.288   6.948 -0.2586  0.6367 -1.8511
  344MOL0     C46348   6.536  10.181   6.969 -0.3130 -0.4361 -0.2301
  344MOL0     C46349   6.670  10.245   6.956  0.5027  0.2884  0.2798
  344MOL0    Cl46350   6.792  10.147   7.033 -0.0886  0.3890 -0.1161
  344MOL0     C46351   5.885  10.282   7.518 -0.1726  0.6436 -0.4503
  344MOL0     C46352   5.760  10.267   7.572  0.8270  0.5842 -0.3103
  344MOL0     O46353   5.651  10.411   7.899  0.2756  0.6280 -0.1106
  344MOL0     C46354   5.347  10.249   7.868 -0.0204 -0.9859 -0.0429
  344MOL0     C46355   5.223  10.240   7.932  1.0781  1.1753 -0.6189
  344MOL0     N46356   4.789   9.898   8.236  0.1321  0.0279 -0.1650
  344MOL0     N46357   4.700   9.811   8.277  0.4121 -1.8582 -0.5950
  344MOL0     C46358   3.973   9.040   8.012 -0.5201  0.3898 -0.9877
  344MOL0     C46359   3.895   8.924   8.029 -0.6926 -0.5106  0.3763
  344MOL0     C46360   3.771   8.497   7.873 -0.3976 -0.6622 -0.3277
  344MOL0     C46361   3.830   8.374   7.831 -0.2069  0.6899  0.4768
  344MOL0     C46362   3.746   8.286   7.763  0.4635  0.5353  0.5408
  344MOL0     C46363   3.608   8.307   7.751 -0.4786 -1.0157  0.4281
  344MOL0     O46364   3.532   8.215   7.688  0.3249  0.7563  0.0956
  344MOL0     C46365   3.522   8.094   7.767  0.6406 -0.0919 -0.2770
  344MOL0     C46366   3.402   8.007   7.704 -0.7032 -0.0971  0.0935
  344MOL0     C46367   3.416   7.967   7.551 -0.1552  1.1667 -0.1205
  344MOL0     C46368   3.525   7.867   7.531 -0.3039  0.1950  0.7982
  344MOL0     C46369   3.654   7.934   7.499  0.6996 -0.1198  0.3409
  344MOL0     C46370   3.760   7.978   7.469 -0.2664 -0.2430  0.7801
  344MOL0     C46371   3.553   8.430   7.799  0.1333  0.6745  0.5427
  344MOL0     C46372   3.630   8.522   7.874 -0.8593 -1.5049  0.7914
  344MOL0     H46373   4.013   8.741   7.763 -0.3853  0.0568  0.5561
  344MOL0     H46374   4.151   8.948   7.731  0.0914 -1.1541  0.3784
  344MOL0     H46375   4.104   9.287   8.037 -1.5249 -0.8667 -0.6433
  344MOL0     H46376   4.238   9.171   8.063 -0.3348  1.0710  0.9455
  344MOL0     H46377   4.384   9.287   7.917 -2.4306 -2.0864 -4.4819
  344MOL0     H46378   4.271   9.371   7.847  1.3423 -0.6072  0.2565
  344MOL0     H46379   4.392   9.528   8.005  0.9095  0.5855 -0.1916
  344MOL0     H46380   4.217   9.518   8.042 -1.2710 -2.2481 -0.7658
  344MOL0     H46381   4.283   9.359   8.225  3.5508 -1.6971  2.5619
  344MOL0     H46382   4.452   9.392   8.198 -1.9667  0.0643  0.7240
  344MOL0     H46383   4.352   9.650   8.213 -1.7484 -0.2104  0.0430
  344MOL0     H46384   4.257   9.573   8.332  0.5724  0.5023  0.8521
  344MOL0     H46385   4.493   9.481   8.426  1.6342 -0.1215 -0.0616
  344MOL0     H46386   4.558   9.584   8.297 -1.2386  0.5812 -2.5640
  344MOL0     H46387   4.375   9.693   8.515  2.0539 -1.2464  0.3910
  344MOL0     H46388   4.546   9.697   8.523  0.5286 -3.5259  0.2068
  344MOL0     H46389   4.422   9.900   8.452  0.6522 -1.4269  2.1296
  344MOL0     H46390   4.404   9.823   8.295 -1.6500 -0.9436  0.3973
  344MOL0     H46391   4.554  10.089   8.377 -0.4221 -1.7088  1.4002
  344MOL0     H46392   4.846  10.168   8.153  0.1342  3.5533 -0.0461
  344MOL0     H46393   4.754  10.235   8.274  1.0285  0.2854 -1.0278
  344MOL0     H46394   5.023  10.082   8.333  0.4930 -0.1434  0.8448
  344MOL0     H46395   4.905  10.141   8.453 -2.7388  2.1714 -1.6141
  344MOL0     H46396   5.086  10.313   8.412  3.1961 -1.0079 -1.5773
  344MOL0     H46397   4.927  10.366   8.387  0.1888 -1.8932  1.6852
  344MOL0     H46398   5.137  10.402   8.229 -0.0296  0.7336 -0.7814
  344MOL0     H46399   4.968  10.404   8.166 -1.4037 -0.4574  0.7342
  344MOL0     H46400   5.321  10.278   8.247  1.0128  2.7830 -0.5775
  344MOL0     H46401   5.665  10.240   8.097 -1.5298 -0.5569 -2.6815
  344MOL0     H46402   5.616  10.378   8.197  0.7240  0.1814 -0.2202
  344MOL0     H46403   5.555  10.221   8.250 -1.7139  0.0940 -1.1852
  344MOL0     H46404   5.842  10.202   7.892 -2.2854  1.2019  0.6049
  344MOL0     H46405   6.053  10.210   7.807 -0.3911  1.0667 -0.6533
  344MOL0     H46406   6.089  10.377   7.397  1.1592  3.0136  3.6345
  344MOL0     H46407   6.261  10.350   7.441  0.9001 -2.5054  1.3015
  344MOL0     H46408   6.221  10.101   7.356 -0.8256 -1.6328 -1.3924
  344MOL0     H46409   6.064  10.159   7.296  0.0296  0.6003 -1.2135
  344MOL0     H46410   6.354  10.264   7.230 -0.5340 -3.3465  1.0478
  344MOL0     H46411   6.211  10.341   7.170 -0.1109  0.2418  2.2843
  344MOL0     H46412   6.321  10.074   7.097  0.4750  0.5574  0.2637
  344MOL0     H46413   6.159  10.110   7.048  0.9905 -0.3973 -3.1456
  344MOL0     H46414   6.219  10.319   6.933  1.2918  2.0412  4.8192
  344MOL0     H46415   6.286  10.160   6.864 -0.1768  1.6295 -2.9543
  344MOL0     H46416   6.446  10.335   6.851  1.8179 -0.5756 -2.0992
  344MOL0     H46417   6.442  10.356   7.032 -0.5292 -3.7270  2.1657
  344MOL0     H46418   6.515  10.096   6.904 -1.4215 -0.5839  0.2914
  344MOL0     H46419   6.529  10.140   7.070  1.6681 -1.2461 -0.3680
  344MOL0     H46420   6.677  10.347   6.994 -0.0474  0.9478 -1.2907
  344MOL0     H46421   6.692  10.270   6.851 -4.2582 -0.0925 -1.0240
  344MOL0     H46422   5.885  10.296   7.410 -2.8973 -1.4345 -0.8242
  344MOL0     H46423   5.669  10.265   7.513 -2.3488 -1.7294  4.0282
  344MOL0     H46424   5.352  10.240   7.760 -0.6549  0.1249 -0.1732
  344MOL0     H46425   5.144  10.206   7.866 -0.7175 -0.6693  2.2302
  344MOL0     H46426   3.967   9.122   8.083 -3.2688  0.6215 -1.3697
  344MOL0     H46427   3.822   8.912   8.107 -1.0975  1.0985  0.2614
  344MOL0     H46428   3.933   8.343   7.820 -0.1754  1.4094 -1.8050
  344MOL0     H46429   3.786   8.189   7.733  0.8831  0.8847 -0.0514
  344MOL0     H46430   3.619   8.045   7.757 -0.0142 -1.2172 -1.5486
  344MOL0     H46431   3.503   8.120   7.871  0.4139  1.9364 -0.7815
  344MOL0     H46432   3.317   8.070   7.732  1.4471  2.4442  1.3530
  344MOL0     H46433   3.401   7.912   7.758  3.4520  0.1452  0.9424
  344MOL0     H46434   3.426   8.047   7.478  3.6652 -0.5503 -1.7567
  344MOL0     H46435   3.313   7.933   7.531 -0.8133  3.2743 -0.5319
  344MOL0     H46436   3.510   7.806   7.441  0.4050 -0.7839  1.3243
  344MOL0     H46437   3.532   7.792   7.610 -3.2769  0.5041  1.4430
  344MOL0     H46438   3.854   8.022   7.443 -0.9714  0.4147 -0.8699
  344MOL0     H46439   3.448   8.458   7.793  0.6334  3.7405  3.3412
  344MOL0     H46440   3.592   8.616   7.911  3.5995  0.3789  1.2722
  345MOL0     O46441   7.791  10.226   4.397 -0.5962 -0.2977 -0.6339
  345MOL0     C46442   7.759  10.110   4.398 -0.6307  1.3550 -0.6285
  345MOL0     O46443   7.743  10.027   4.289 -0.8005  0.6024 -0.0948
  345MOL0     C46444   7.710  10.081   4.168  0.4227 -0.1339  0.6378
  345MOL0     C46445   7.789  10.070   4.057  0.6271 -0.4457  0.2020
  345MOL0     C46446   7.763  10.129   3.933  0.0177 -1.2148 -0.7051
  345MOL0     C46447   7.640  10.207   3.919 -0.0686  0.0642  0.2078
  345MOL0     O46448   7.608  10.272   3.803  0.6491 -0.1185  0.2453
  345MOL0     C46449   7.523  10.392   3.803 -0.1207  0.8670  0.8318
  345MOL0     C46450   7.387  10.366   3.731 -0.2399  0.1977  0.0518
  345MOL0     C46451   7.292  10.275   3.819  0.2461  0.2167  0.3942
  345MOL0     C46452   7.162  10.280   3.752  0.4622 -0.3667 -0.1506
  345MOL0     C46453   7.061  10.226   3.839 -0.2520  0.6607  0.1040
  345MOL0     C46454   6.913  10.236   3.807  1.2743 -0.7618  0.2701
  345MOL0     C46455   6.812  10.212   3.928 -0.4864 -0.0914 -1.2503
  345MOL0     C46456   6.813  10.067   3.983  1.1974  0.7474  0.1808
  345MOL0     N46457   6.779   9.974   3.877 -0.2979  0.3978  0.1764
  345MOL0     C46458   6.653   9.956   3.838 -0.2123 -0.1385 -0.1301
  345MOL0     C46459   6.670   9.869   3.730  0.4653  0.4893  0.4997
  345MOL0     C46460   6.571   9.809   3.622 -1.1799 -0.0959 -0.7002
  345MOL0     C46461   6.519   9.660   3.654  0.0251 -0.0819  0.0165
  345MOL0     C46462   6.590   9.554   3.577 -0.4339 -1.0189  1.2968
  345MOL0     C46463   6.738   9.535   3.620 -0.0364  0.3725  0.6550
  345MOL0     O46464   6.789   9.421   3.551  0.3376 -0.0648  0.1896
  345MOL0     C46465   6.926   9.424   3.536 -0.3209  0.9907  0.8428
  345MOL0     C46466   6.975   9.404   3.402 -0.4301  0.2619 -0.0158
  345MOL0     C46467   7.118   9.391   3.380 -0.2931 -0.1203 -1.2209
  345MOL0     C46468   7.161   9.362   3.242  0.4456  0.5206  0.7720
  345MOL0     C46469   7.203   9.395   3.493 -0.6609  0.6012  0.0239
  345MOL0     C46470   7.350   9.361   3.500 -0.0119 -0.5919  0.6685
  345MOL0     O46471   7.422   9.370   3.610  0.4673 -0.9381 -0.1895
  345MOL0     C46472   7.561   9.354   3.613  0.7138 -0.8804  0.2042
  345MOL0     C46473   7.600   9.234   3.672 -0.0132  0.2289  0.2476
  345MOL0     C46474   7.745   9.225   3.689  0.5763 -0.1598  0.5169
  345MOL0     C46475   7.835   9.318   3.635  0.9435 -0.6771 -0.2093
  345MOL0     O46476   7.974   9.305   3.654 -0.4162  0.4036  0.1432
  345MOL0     C46477   8.013   9.370   3.776  0.5887 -0.4391  0.1789
  345MOL0     C46478   8.144   9.308   3.832 -0.1450 -0.3068 -0.7972
  345MOL0     C46479   8.118   9.168   3.898  0.2153 -0.4113  0.3388
  345MOL0     C46480   8.248   9.108   3.931  1.3841  1.0290  0.3646
  345MOL0     C46481   8.243   8.957   3.949  0.4167  0.5448  0.1550
  345MOL0     C46482   8.383   8.909   3.965  0.4991  0.1711  0.3557
  345MOL0     C46483   8.389   8.753   3.970  0.0889  0.1743  0.1193
  345MOL0     C46484   8.530   8.703   3.929  0.1512 -0.6788 -0.1140
  345MOL0    Cl46485   8.548   8.745   3.759  0.1845 -0.3942  0.1184
  345MOL0     C46486   7.787   9.425   3.566  0.8188  0.4404  1.6641
  345MOL0     C46487   7.646   9.441   3.557  0.5457  0.0855  0.5943
  345MOL0     O46488   7.399   9.332   3.390  0.2555 -0.1156 -0.8617
  345MOL0     C46489   7.145   9.412   3.620 -1.3728  0.9389 -0.0426
  345MOL0     C46490   7.012   9.425   3.637  0.7365 -0.0385  0.3820
  345MOL0     N46491   6.804   9.853   3.713  0.1182  0.2021  0.0626
  345MOL0     N46492   6.868   9.916   3.800 -0.0949  0.1383 -0.1003
  345MOL0     C46493   7.550  10.208   4.027  0.2745  0.3678 -0.6831
  345MOL0     C46494   7.585  10.154   4.150  0.2215 -0.5599 -0.0458
  345MOL0     C46495   7.754  10.043   4.534 -0.0804  0.5895  0.4784
  345MOL0     C46496   7.726   9.908   4.539 -0.3933  0.8220  0.0890
  345MOL0     C46497   7.741   9.838   4.658  0.1126 -0.3726  0.2769
  345MOL0     C46498   7.777   9.898   4.780 -0.2622  1.1784  0.4566
  345MOL0     O46499   7.780   9.831   4.897 -0.0737 -0.0714 -0.8031
  345MOL0     C46500   7.805   9.688   4.901 -0.1849 -0.7460  0.1443
  345MOL0     C46501   7.794   9.618   5.038  0.0429 -0.7838 -0.0972
  345MOL0     C46502   7.888   9.677   5.144  1.2773  0.0050  0.7951
  345MOL0     C46503   7.804   9.713   5.262 -0.1732  0.7579  0.1888
  345MOL0     C46504   7.766   9.597   5.346 -1.0357 -1.0471 -0.2487
  345MOL0     C46505   7.740   9.503   5.418  0.7748  0.5074 -0.6961
  345MOL0     C46506   7.790  10.038   4.767  1.6605 -0.4613  0.2642
  345MOL0     C46507   7.783  10.113   4.647  0.7199  0.2557 -0.3042
  345MOL0     H46508   7.880  10.015   4.080  0.4144 -0.8990 -0.0435
  345MOL0     H46509   7.829  10.114   3.848 -0.5778 -1.8812 -1.0697
  345MOL0     H46510   7.509  10.446   3.897 -0.9323 -0.7489  1.6732
  345MOL0     H46511   7.566  10.471   3.741 -3.4461  1.6105 -0.7676
  345MOL0     H46512   7.337  10.462   3.715 -0.2080  0.1664 -0.2619
  345MOL0     H46513   7.400  10.318   3.634 -2.8839 -1.8042  0.5674
  345MOL0     H46514   7.326  10.171   3.824  3.1940  0.4572 -5.8368
  345MOL0     H46515   7.284  10.327   3.915  0.6566  2.2869 -0.6429
  345MOL0     H46516   7.135  10.380   3.716  3.2035 -0.6500 -3.6614
  345MOL0     H46517   7.154  10.211   3.668 -2.5912 -1.0579  0.5804
  345MOL0     H46518   7.090  10.121   3.852 -1.0434  0.2278 -1.3851
  345MOL0     H46519   7.077  10.277   3.934 -3.1243 -0.5966  1.3975
  345MOL0     H46520   6.886  10.338   3.780  2.1951  0.2241  2.8279
  345MOL0     H46521   6.884  10.167   3.727 -1.3080  1.7959 -1.2004
  345MOL0     H46522   6.844  10.284   4.003 -1.2130 -0.7846 -0.2548
  345MOL0     H46523   6.709  10.230   3.897 -1.0184  0.0861  0.5248
  345MOL0     H46524   6.731  10.070   4.055  0.6825 -3.7026  0.0638
  345MOL0     H46525   6.900  10.032   4.039 -0.2333 -3.0137  0.3657
  345MOL0     H46526   6.559   9.997   3.874  0.0650  1.9571 -1.5833
  345MOL0     H46527   6.482   9.872   3.607 -2.2764 -1.9369 -2.3366
  345MOL0     H46528   6.626   9.822   3.528 -1.9479  2.7700 -0.8402
  345MOL0     H46529   6.414   9.654   3.626  0.6554 -3.0671 -2.1825
  345MOL0     H46530   6.523   9.639   3.762  0.8675 -0.5484 -0.0924
  345MOL0     H46531   6.588   9.581   3.472  0.5949  2.4755  2.0533
  345MOL0     H46532   6.535   9.461   3.595  1.5678 -2.5304  0.0284
  345MOL0     H46533   6.730   9.506   3.725  2.7168 -1.9239  0.3628
  345MOL0     H46534   6.808   9.618   3.609  0.1755  0.3055  1.4521
  345MOL0     H46535   6.914   9.405   3.311  0.0033 -1.5299 -0.3628
  345MOL0     H46536   7.075   9.347   3.175 -0.3038  1.5260  1.4862
  345MOL0     H46537   7.217   9.450   3.211 -1.9443  2.4156  1.5181
  345MOL0     H46538   7.207   9.264   3.260 -3.5719 -1.2507  2.9684
  345MOL0     H46539   7.521   9.162   3.692  3.0630 -3.1487  1.2486
  345MOL0     H46540   7.785   9.141   3.744  2.8429 -0.7553 -1.8313
  345MOL0     H46541   8.028   9.476   3.753 -0.8720 -0.9545 -3.9592
  345MOL0     H46542   7.934   9.367   3.852 -2.5388 -0.3906 -2.8669
  345MOL0     H46543   8.210   9.305   3.745 -1.7028 -0.2354 -2.0367
  345MOL0     H46544   8.181   9.378   3.908  0.7732 -1.7484  0.1276
  345MOL0     H46545   8.053   9.108   3.835  1.8376 -4.5973  2.2781
  345MOL0     H46546   8.052   9.175   3.986 -2.8965  3.1070 -1.9775
  345MOL0     H46547   8.308   9.107   3.840 -1.5670 -4.4934 -2.0231
  345MOL0     H46548   8.295   9.172   4.006  2.5627  0.3491  0.2383
  345MOL0     H46549   8.208   8.922   3.852  1.4269  3.6858 -1.4787
  345MOL0     H46550   8.177   8.934   4.033  0.1538 -1.0373 -0.4390
  345MOL0     H46551   8.438   8.956   3.884 -2.5240 -2.9314 -3.9280
  345MOL0     H46552   8.411   8.950   4.063 -0.3933 -1.9631  1.5835
  345MOL0     H46553   8.312   8.713   3.905  1.4268 -0.8352 -0.8981
  345MOL0     H46554   8.352   8.723   4.069  0.4134  1.0404  0.5219
  345MOL0     H46555   8.523   8.594   3.928 -0.2099 -0.7542  2.5875
  345MOL0     H46556   8.607   8.730   4.003  0.2645  2.6433 -1.2676
  345MOL0     H46557   7.862   9.495   3.530  1.7690 -0.4251  1.9530
  345MOL0     H46558   7.604   9.528   3.508  1.7495  0.5509  0.3295
  345MOL0     H46559   7.201   9.399   3.713 -1.1851 -2.2080 -0.4670
  345MOL0     H46560   6.959   9.421   3.732 -0.7745  2.5747 -0.2377
  345MOL0     H46561   7.456  10.262   4.017  1.4579  2.9045  0.8928
  345MOL0     H46562   7.517  10.162   4.235 -0.9394  0.4425 -1.0307
  345MOL0     H46563   7.700   9.855   4.447 -2.0181 -2.2183  2.1246
  345MOL0     H46564   7.727   9.733   4.633 -1.3872 -0.3410  0.8982
  345MOL0     H46565   7.738   9.650   4.823  0.6499  0.9724 -1.4848
  345MOL0     H46566   7.911   9.681   4.877  0.4548  2.9485  1.3162
  345MOL0     H46567   7.825   9.514   5.024  1.1082 -0.4210 -0.4983
  345MOL0     H46568   7.690   9.607   5.072  0.7670 -0.8997  2.2413
  345MOL0     H46569   7.952   9.759   5.112  2.4480 -1.1555  0.0228
  345MOL0     H46570   7.956   9.597   5.177  1.7974  0.9966  2.1996
  345MOL0     H46571   7.710   9.753   5.223 -0.2864  1.7798  1.4476
  345MOL0     H46572   7.856   9.786   5.325  4.9224 -3.0083  0.9864
  345MOL0     H46573   7.725   9.424   5.488  4.1558 -1.7565 -2.1996
  345MOL0     H46574   7.805  10.099   4.856  1.4420  2.1129 -1.3413
  345MOL0     H46575   7.799  10.220   4.652  0.8842  0.1734  3.3019
  346MOL0     O46576   0.857   9.871  11.061  0.3017  0.9733 -0.0314
  346MOL0     C46577   0.862   9.834  11.176 -0.8717  0.1611 -0.3032
  346MOL0     O46578   0.974   9.808  11.245  0.7528  0.3275 -0.3317
  346MOL0     C46579   1.101   9.840  11.197  0.1728  0.4316  0.2854
  346MOL0     C46580   1.143   9.794  11.070  0.2832  0.5611  0.4867
  346MOL0     C46581   1.271   9.813  11.031  0.4079  0.2806 -0.1064
  346MOL0     C46582   1.362   9.893  11.108  0.5211 -0.3925  0.2023
  346MOL0     O46583   1.486   9.934  11.076  0.4454  0.5701  0.0475
  346MOL0     C46584   1.561   9.846  11.002 -0.7572  0.6770 -1.1157
  346MOL0     C46585   1.553   9.869  10.853 -0.3649  0.4311  0.2416
  346MOL0     C46586   1.625  10.004  10.816  0.4907  0.4319 -0.5126
  346MOL0     C46587   1.614  10.048  10.666 -0.3346  0.2840 -0.9796
  346MOL0     C46588   1.657  10.194  10.656  0.3391  0.1601  0.1705
  346MOL0     C46589   1.810  10.216  10.679  0.3666  0.0244  0.2816
  346MOL0     C46590   1.874  10.359  10.665  1.6497  0.5623  0.3425
  346MOL0     C46591   1.833  10.459  10.781 -0.0414  0.0868  0.2852
  346MOL0     N46592   1.924  10.581  10.775  0.1610  0.2473 -0.5643
  346MOL0     C46593   1.965  10.667  10.872  1.1178  1.0047 -0.4491
  346MOL0     C46594   2.040  10.764  10.812  0.0971 -0.2078  0.3973
  346MOL0     C46595   2.120  10.863  10.881 -0.4875  0.1258  0.4333
  346MOL0     C46596   2.046  10.992  10.909 -0.4350 -0.5550 -0.3239
  346MOL0     C46597   1.952  11.054  10.802  0.1483  0.7033 -0.7263
  346MOL0     C46598   2.024  11.097  10.680 -0.7419 -0.2242 -0.1878
  346MOL0     O46599   2.098  11.202  10.725 -0.3135  0.5907 -0.2563
  346MOL0     C46600   2.154  11.272  10.627 -0.4628  0.2077 -0.2514
  346MOL0     C46601   2.151  11.417  10.639  0.2753  0.1101 -0.1665
  346MOL0     C46602   2.210  11.493  10.551  0.2636 -0.4003 -0.4873
  346MOL0     C46603   2.193  11.639  10.570  0.0516  0.8263 -0.4923
  346MOL0     C46604   2.269  11.433  10.433 -0.7628 -0.7740  0.4394
  346MOL0     C46605   2.369  11.500  10.346  0.2875  0.3752 -1.0654
  346MOL0     O46606   2.456  11.423  10.286  0.2364  0.1943 -0.1910
  346MOL0     C46607   2.584  11.467  10.249 -0.2622  0.3001 -0.7307
  346MOL0     C46608   2.705  11.395  10.286 -0.3660  0.3403  0.1526
  346MOL0     C46609   2.827  11.445  10.245 -0.6439  0.2189 -0.1809
  346MOL0     C46610   2.844  11.562  10.176  0.6641 -0.6583  0.7053
  346MOL0     O46611   2.969  11.606  10.133  0.2371 -0.1353 -0.0794
  346MOL0     C46612   2.981  11.729  10.058  0.0386  0.8800 -0.6876
  346MOL0     C46613   3.122  11.771  10.034 -0.7864  0.4289 -0.0926
  346MOL0     C46614   3.140  11.875   9.920  1.1279 -0.0630  0.0265
  346MOL0     C46615   3.286  11.906   9.893 -0.0399 -0.0319  0.0336
  346MOL0     C46616   3.285  12.026   9.798 -1.2228  0.8860 -0.6857
  346MOL0     C46617   3.428  12.079   9.769 -0.0208 -0.1699 -0.4079
  346MOL0     C46618   3.427  12.147   9.633  0.7585  0.7392  0.4890
  346MOL0     C46619   3.527  12.254   9.615 -0.8373 -0.0343  0.2404
  346MOL0    Cl46620   3.478  12.373   9.745  0.0271  0.4639 -0.3654
  346MOL0     C46621   2.727  11.630  10.145  0.4307 -0.4030 -0.2107
  346MOL0     C46622   2.604  11.581  10.177 -0.7254 -0.1082 -1.0341
  346MOL0     O46623   2.377  11.620  10.368 -0.3256 -0.0295 -0.3330
  346MOL0     C46624   2.258  11.296  10.418 -0.0442 -0.1368  0.8598
  346MOL0     C46625   2.208  11.214  10.510  0.7265 -0.0510  1.0882
  346MOL0     N46626   2.015  10.754  10.675  0.7408 -0.2843 -0.0601
  346MOL0     N46627   1.957  10.637  10.651  1.0925  0.0853 -0.5681
  346MOL0     C46628   1.310   9.951  11.224 -0.0168  0.2787 -0.5559
  346MOL0     C46629   1.177   9.921  11.273 -0.0072  0.3923 -0.5317
  346MOL0     C46630   0.727   9.803  11.236  0.0612 -0.7760 -0.1885
  346MOL0     C46631   0.609   9.857  11.168 -0.6066  0.1423  0.4236
  346MOL0     C46632   0.478   9.814  11.204 -0.8659  0.4861 -0.2475
  346MOL0     C46633   0.474   9.726  11.311  1.3763  0.5221  0.3306
  346MOL0     O46634   0.353   9.677  11.362  0.5033 -0.2413  0.0392
  346MOL0     C46635   0.227   9.750  11.357 -0.0415  0.3012  0.4543
  346MOL0     C46636   0.210   9.864  11.450 -1.2995  0.1622  0.1422
  346MOL0     C46637   0.088   9.956  11.424 -0.2173 -0.1256 -0.4500
  346MOL0     C46638  -0.038   9.884  11.467  0.2356  0.6753  0.0532
  346MOL0     C46639  -0.153   9.953  11.421  0.3161  0.7087 -0.0545
  346MOL0     C46640  -0.263   9.998  11.402  0.2861 -0.4611  0.5281
  346MOL0     C46641   0.589   9.675  11.372  0.6000  0.4829 -0.0250
  346MOL0     C46642   0.715   9.717  11.336  0.6006 -0.1913 -0.7689
  346MOL0     H46643   1.076   9.732  11.011 -1.7725  1.5622  1.6575
  346MOL0     H46644   1.299   9.769  10.936 -0.2373 -0.8806  0.2291
  346MOL0     H46645   1.662   9.853  11.044 -1.8296  4.0993  1.3526
  346MOL0     H46646   1.538   9.741  11.023  4.1164 -0.1904  1.6305
  346MOL0     H46647   1.606   9.793  10.796 -3.8482 -0.9295 -1.5137
  346MOL0     H46648   1.449   9.865  10.817 -0.9221  1.6642  1.6027
  346MOL0     H46649   1.584  10.082  10.881  1.9300 -0.2056  1.2378
  346MOL0     H46650   1.729   9.992  10.848 -0.2997  3.7105  4.6315
  346MOL0     H46651   1.676   9.981  10.606  0.3797 -2.3859  2.4423
  346MOL0     H46652   1.510  10.038  10.633 -0.2237 -0.8066 -1.0388
  346MOL0     H46653   1.631  10.228  10.556 -0.9918  0.5658  0.6272
  346MOL0     H46654   1.602  10.262  10.722 -1.7728 -1.9717  0.7108
  346MOL0     H46655   1.837  10.173  10.775 -1.7511  0.3119  1.0645
  346MOL0     H46656   1.859  10.153  10.605 -1.1757 -2.0693  0.9497
  346MOL0     H46657   1.980  10.343  10.644  1.6613  1.8383 -0.7353
  346MOL0     H46658   1.824  10.406  10.579 -2.0461 -2.3153  0.6458
  346MOL0     H46659   1.852  10.409  10.876 -1.8230  0.2187  0.7499
  346MOL0     H46660   1.728  10.489  10.780 -0.9503 -2.8170 -0.6353
  346MOL0     H46661   1.959  10.657  10.980  0.7885  5.7347  0.1940
  346MOL0     H46662   2.167  10.827  10.973 -0.2543 -0.8650 -0.0623
  346MOL0     H46663   2.204  10.876  10.812 -0.4279  0.5583  0.5819
  346MOL0     H46664   2.128  11.057  10.939  0.4934 -0.5198 -2.6997
  346MOL0     H46665   1.991  10.982  11.002 -1.1184  0.2621 -0.6311
  346MOL0     H46666   1.903  11.136  10.854 -2.0558 -0.0317 -1.5533
  346MOL0     H46667   1.881  10.979  10.767  3.0457 -2.3451 -0.5500
  346MOL0     H46668   1.957  11.127  10.599 -0.6430  0.3227 -0.0726
  346MOL0     H46669   2.078  11.006  10.653 -0.6376 -0.5646  1.0990
  346MOL0     H46670   2.094  11.443  10.728 -3.4358 -1.2191 -1.9185
  346MOL0     H46671   2.139  11.661  10.663 -1.7801 -2.4229 -0.6443
  346MOL0     H46672   2.294  11.681  10.574  1.1933 -1.7242  0.1214
  346MOL0     H46673   2.136  11.671  10.483 -0.6477  2.3087  0.4712
  346MOL0     H46674   2.697  11.304  10.346 -1.4835  0.1706 -0.2217
  346MOL0     H46675   2.909  11.380  10.275  0.3168  2.2009  1.8604
  346MOL0     H46676   2.935  11.722   9.959  2.1423  3.0525 -1.9404
  346MOL0     H46677   2.934  11.811  10.112  2.4123 -1.3341  5.6996
  346MOL0     H46678   3.152  11.810  10.132  1.8927 -2.3691  0.3534
  346MOL0     H46679   3.175  11.677  10.019  0.8703  0.8084  2.6673
  346MOL0     H46680   3.091  11.970   9.945  1.8278 -0.2152  2.1599
  346MOL0     H46681   3.096  11.842   9.825  0.1051  2.1832 -0.3652
  346MOL0     H46682   3.331  11.930   9.990  3.5243  0.7442 -1.6425
  346MOL0     H46683   3.335  11.823   9.843  0.8166  0.1800  0.5063
  346MOL0     H46684   3.231  12.115   9.833 -2.2973 -0.7540  2.1399
  346MOL0     H46685   3.246  11.988   9.703 -1.0150 -3.1604  0.6826
  346MOL0     H46686   3.462  12.139   9.854  0.6348 -1.7753  0.5282
  346MOL0     H46687   3.491  11.992   9.745 -0.8568 -0.1484 -2.9512
  346MOL0     H46688   3.324  12.182   9.620 -0.0192 -1.0444  1.4075
  346MOL0     H46689   3.439  12.073   9.554  2.6121  1.4403  0.0493
  346MOL0     H46690   3.527  12.284   9.510 -3.5806  1.3958  0.5586
  346MOL0     H46691   3.626  12.214   9.637  0.9886  3.5622 -0.6856
  346MOL0     H46692   2.737  11.713  10.077 -1.1323 -0.2524 -0.3090
  346MOL0     H46693   2.526  11.653  10.153  2.1060  4.6888  2.4286
  346MOL0     H46694   2.304  11.259  10.327 -0.8826  1.8919 -0.4524
  346MOL0     H46695   2.204  11.106  10.502 -2.9689 -0.1824  2.7983
  346MOL0     H46696   1.368  10.018  11.287 -0.5287 -0.2880  0.5369
  346MOL0     H46697   1.133   9.965  11.362  1.2112  0.0387  0.2821
  346MOL0     H46698   0.613   9.925  11.084  0.1269 -0.7279 -0.2648
  346MOL0     H46699   0.388   9.851  11.155 -0.9102 -1.7113 -2.0291
  346MOL0     H46700   0.196   9.791  11.261  0.3860 -0.5194 -0.0549
  346MOL0     H46701   0.153   9.672  11.376 -1.7328  1.6465 -0.3520
  346MOL0     H46702   0.299   9.926  11.462 -2.0816  1.1126  1.2176
  346MOL0     H46703   0.201   9.829  11.553 -2.1463  1.7640  0.6453
  346MOL0     H46704   0.083   9.996  11.322 -1.6022  3.1236  0.7614
  346MOL0     H46705   0.100  10.044  11.488 -1.3421  1.1403 -1.9163
  346MOL0     H46706  -0.050   9.861  11.573  1.4519  3.7031  0.9595
  346MOL0     H46707  -0.024   9.783  11.426 -3.0944  0.2686 -0.3377
  346MOL0     H46708  -0.360  10.030  11.369 -0.4525 -0.0554  2.8890
  346MOL0     H46709   0.571   9.597  11.445 -2.6667  2.9282  2.0780
  346MOL0     H46710   0.801   9.662  11.373  0.0944  0.7776  2.1439
  347MOL0     O46711   0.235  11.456   2.346 -1.0836  0.6108 -0.2188
  347MOL0     C46712   0.159  11.472   2.251 -0.0249 -0.7874 -0.6528
  347MOL0     O46713   0.181  11.448   2.124 -0.5013 -0.1922  0.7132
  347MOL0     C46714   0.305  11.409   2.081  0.2081 -0.3891  0.4386
  347MOL0     C46715   0.355  11.277   2.077  0.1336  0.3307 -0.6938
  347MOL0     C46716   0.483  11.251   2.048 -0.4031 -1.1486 -0.1403
  347MOL0     C46717   0.569  11.350   2.014 -0.3126  0.9133  0.1117
  347MOL0     O46718   0.695  11.340   1.962 -0.9133 -0.1091  0.3918
  347MOL0     C46719   0.764  11.218   1.975 -0.1513 -0.1176  0.1745
  347MOL0     C46720   0.913  11.223   1.928  0.0737 -0.2481  0.4039
  347MOL0     C46721   0.935  11.257   1.775  0.3160  0.6646  0.3598
  347MOL0     C46722   1.083  11.262   1.755  0.4344  0.0807 -0.0132
  347MOL0     C46723   1.108  11.295   1.608  0.6478  0.1390  0.4033
  347MOL0     C46724   1.256  11.314   1.599 -0.6947  0.1173 -0.3199
  347MOL0     C46725   1.309  11.345   1.460  0.6203  0.4160 -0.2038
  347MOL0     C46726   1.458  11.357   1.456  0.3828 -0.8378  1.2261
  347MOL0     N46727   1.511  11.389   1.329  0.6070 -0.3675  0.7174
  347MOL0     C46728   1.575  11.299   1.243  0.3741  0.8653 -0.9039
  347MOL0     C46729   1.658  11.372   1.174  0.4108 -1.1430  0.0045
  347MOL0     C46730   1.758  11.318   1.072  1.3832  0.2391  0.2577
  347MOL0     C46731   1.903  11.322   1.120 -0.2858  0.0716 -0.1971
  347MOL0     C46732   1.919  11.217   1.240 -0.5827  0.8361  0.0902
  347MOL0     C46733   1.942  11.071   1.188 -0.8974 -0.8903  0.4239
  347MOL0     O46734   1.962  10.990   1.296  0.9572 -0.3066  0.5089
  347MOL0     C46735   2.017  10.871   1.264 -0.5546  0.4832 -0.2259
  347MOL0     C46736   2.095  10.808   1.369 -0.4953 -0.0941  0.4508
  347MOL0     C46737   2.159  10.687   1.354 -0.0067 -0.6952  0.6514
  347MOL0     C46738   2.217  10.619   1.484  0.1608 -0.6913  1.3826
  347MOL0     C46739   2.185  10.648   1.226 -0.0082 -0.4436 -0.5089
  347MOL0     C46740   2.287  10.545   1.191  0.8658 -0.6213 -0.6168
  347MOL0     O46741   2.388  10.524   1.283  0.8710  0.2681 -0.0992
  347MOL0     C46742   2.475  10.424   1.265 -0.7310 -0.3419  0.4923
  347MOL0     C46743   2.617  10.455   1.301  0.2097  1.4617 -0.7497
  347MOL0     C46744   2.715  10.357   1.264  0.7857 -0.6169 -0.3930
  347MOL0     C46745   2.674  10.236   1.215 -0.1558  0.6556  0.2335
  347MOL0     O46746   2.756  10.131   1.192 -0.9626  0.1790  0.2817
  347MOL0     C46747   2.887  10.121   1.248 -0.1626  0.3053  0.0572
  347MOL0     C46748   2.926   9.973   1.219  1.2721  0.1911 -0.0847
  347MOL0     C46749   3.059   9.947   1.300  0.7575 -0.6255 -0.0669
  347MOL0     C46750   3.050   9.823   1.385  1.1721 -0.1978 -0.0698
  347MOL0     C46751   3.180   9.788   1.458  0.2728  0.1749  0.8121
  347MOL0     C46752   3.303   9.778   1.369 -0.2164  0.1189 -0.1551
  347MOL0     C46753   3.312   9.665   1.267  1.0153 -0.2909 -0.2934
  347MOL0     C46754   3.443   9.675   1.207  0.2535  0.2223 -0.3546
  347MOL0    Cl46755   3.566   9.610   1.308  0.1761 -0.0715  0.0364
  347MOL0     C46756   2.537  10.203   1.193 -0.1631  0.4090 -1.4400
  347MOL0     C46757   2.439  10.297   1.216  0.2262  1.0974 -0.3309
  347MOL0     O46758   2.278  10.487   1.084  0.5321 -0.8110 -0.3550
  347MOL0     C46759   2.122  10.710   1.121  0.4825  0.0494  0.8901
  347MOL0     C46760   2.033  10.819   1.132 -1.8354  0.1414  0.0647
  347MOL0     N46761   1.639  11.508   1.206  0.4476  0.6057  1.5651
  347MOL0     N46762   1.552  11.512   1.290 -0.0567 -0.5942 -0.3467
  347MOL0     C46763   0.525  11.484   2.012 -0.1823  0.4463  0.9550
  347MOL0     C46764   0.391  11.512   2.040  0.3376  0.3546 -0.7103
  347MOL0     C46765   0.022  11.514   2.286  0.4560 -0.1499 -0.4861
  347MOL0     C46766  -0.032  11.501   2.411 -0.5242  0.6247 -1.2602
  347MOL0     C46767  -0.153  11.551   2.442 -0.1869  0.4951 -0.1163
  347MOL0     C46768  -0.237  11.611   2.349  0.4117 -0.2664  0.4826
  347MOL0     O46769  -0.363  11.639   2.387  0.0690  0.1921 -0.1086
  347MOL0     C46770  -0.374  11.783   2.378  0.3925  0.1385  0.6620
  347MOL0     C46771  -0.520  11.821   2.394  0.8666 -0.4043 -0.2116
  347MOL0     C46772  -0.553  11.969   2.366  0.1233 -0.5614  0.8445
  347MOL0     C46773  -0.484  12.036   2.239 -0.1167  0.0284 -0.8177
  347MOL0     C46774  -0.503  11.957   2.113 -0.5484 -0.0282  0.7993
  347MOL0     C46775  -0.527  11.902   2.003 -0.3777  0.6643 -0.7161
  347MOL0     C46776  -0.192  11.617   2.214  0.4806  0.7544 -0.0525
  347MOL0     C46777  -0.065  11.568   2.183 -0.5397 -0.5825  0.4027
  347MOL0     H46778   0.288  11.193   2.092  1.0368 -0.0712  1.5510
  347MOL0     H46779   0.520  11.149   2.047 -0.4002 -1.1584 -1.5755
  347MOL0     H46780   0.754  11.181   2.078 -2.5897  1.0940  0.4352
  347MOL0     H46781   0.705  11.147   1.915  1.0888 -0.3941 -0.7464
  347MOL0     H46782   0.965  11.290   1.998 -2.3870 -0.2030  2.3398
  347MOL0     H46783   0.963  11.126   1.937  2.6802  0.6699 -2.4368
  347MOL0     H46784   0.903  11.170   1.717 -0.7435  0.0194  1.8320
  347MOL0     H46785   0.884  11.346   1.738 -1.7610  0.1255  1.7495
  347MOL0     H46786   1.124  11.338   1.822 -0.2549  0.3747  0.0928
  347MOL0     H46787   1.124  11.163   1.776  1.1728  0.2147 -0.7831
  347MOL0     H46788   1.074  11.213   1.544  0.6805 -0.3053  0.9462
  347MOL0     H46789   1.054  11.385   1.580 -0.9686 -1.0579 -0.4792
  347MOL0     H46790   1.295  11.392   1.666  4.5782 -2.1087 -0.3382
  347MOL0     H46791   1.294  11.216   1.626  0.5868  1.2998  2.6248
  347MOL0     H46792   1.272  11.263   1.397 -1.0795 -0.4021  1.7582
  347MOL0     H46793   1.265  11.441   1.431 -0.6115 -0.1667 -0.3411
  347MOL0     H46794   1.501  11.262   1.490 -2.7877 -3.4366 -1.2807
  347MOL0     H46795   1.479  11.440   1.524 -0.6370  0.9995 -0.5973
  347MOL0     H46796   1.569  11.191   1.258  4.2134  0.0443 -3.7247
  347MOL0     H46797   1.726  11.221   1.030  2.5152 -0.0580  0.0596
  347MOL0     H46798   1.736  11.385   0.989  1.0331  1.4096  1.2772
  347MOL0     H46799   1.928  11.419   1.164  3.4113 -1.7275  2.1408
  347MOL0     H46800   1.981  11.307   1.045  1.3067 -1.7671  1.7196
  347MOL0     H46801   1.836  11.225   1.311 -0.0489  1.2104  0.6800
  347MOL0     H46802   2.008  11.248   1.296 -0.9231 -0.2977  1.3133
  347MOL0     H46803   2.018  11.075   1.110  0.1694  0.1940  1.4494
  347MOL0     H46804   1.853  11.045   1.132 -0.1667  0.7217 -1.6074
  347MOL0     H46805   2.094  10.847   1.470  0.0626 -0.6314  0.6667
  347MOL0     H46806   2.189  10.515   1.468 -1.7632 -0.2930  1.8492
  347MOL0     H46807   2.325  10.639   1.488  0.3916  0.2619 -3.5029
  347MOL0     H46808   2.170  10.655   1.576 -0.8951 -2.8321  1.7519
  347MOL0     H46809   2.645  10.551   1.343  0.0237  1.4934 -0.6951
  347MOL0     H46810   2.815  10.373   1.304  0.2182  2.7291 -0.0114
  347MOL0     H46811   2.964  10.194   1.219  0.7504 -0.6786 -0.0410
  347MOL0     H46812   2.868  10.142   1.353 -3.6444  4.4583 -1.1123
  347MOL0     H46813   2.842   9.910   1.252  1.6406 -0.6001 -0.6290
  347MOL0     H46814   2.943   9.975   1.111  2.5076 -5.4259 -0.3070
  347MOL0     H46815   3.085  10.026   1.371 -0.3424 -1.8471  1.8203
  347MOL0     H46816   3.135   9.948   1.222  1.7364  2.5599  0.7817
  347MOL0     H46817   2.964   9.832   1.453  0.8226 -0.8838 -0.4049
  347MOL0     H46818   3.021   9.735   1.326 -1.3424  0.8365 -0.5019
  347MOL0     H46819   3.158   9.698   1.515  1.4186  0.2335  1.3791
  347MOL0     H46820   3.197   9.864   1.535  3.5189 -2.1780  2.6532
  347MOL0     H46821   3.321   9.873   1.317  1.4366  0.4746  0.9771
  347MOL0     H46822   3.381   9.783   1.445  1.5142  1.1826 -1.8946
  347MOL0     H46823   3.225   9.673   1.200 -0.8835 -1.8131  1.8534
  347MOL0     H46824   3.320   9.566   1.311  1.6507 -0.1457 -0.0724
  347MOL0     H46825   3.464   9.773   1.165  0.8810 -0.1491 -0.9313
  347MOL0     H46826   3.457   9.603   1.126  1.3441  0.0251 -0.0135
  347MOL0     H46827   2.513  10.110   1.143  0.7397 -0.6040 -0.0480
  347MOL0     H46828   2.341  10.265   1.184  0.6935  0.9014 -1.6475
  347MOL0     H46829   2.142  10.664   1.025 -2.0360  2.8566 -1.1938
  347MOL0     H46830   1.992  10.869   1.045  4.3625  2.2062 -2.2437
  347MOL0     H46831   0.576  11.570   1.971 -0.3618  0.2911  0.3850
  347MOL0     H46832   0.363  11.617   2.035 -0.8072  0.0481 -1.0033
  347MOL0     H46833   0.033  11.455   2.484 -1.1999  1.7744  0.1097
  347MOL0     H46834  -0.192  11.551   2.544  0.9271  0.8914  0.3299
  347MOL0     H46835  -0.312  11.832   2.454 -0.8117 -0.9246  2.3984
  347MOL0     H46836  -0.347  11.820   2.278 -0.1937 -3.3888 -0.9597
  347MOL0     H46837  -0.552  11.807   2.497  1.8784  1.9276  0.4744
  347MOL0     H46838  -0.581  11.759   2.328  1.9964  1.1936 -2.9195
  347MOL0     H46839  -0.525  12.029   2.453 -3.3643  0.9357  1.0881
  347MOL0     H46840  -0.659  11.994   2.355  0.0870  0.3357  2.8218
  347MOL0     H46841  -0.381  12.056   2.271 -0.1928  0.4705 -0.8428
  347MOL0     H46842  -0.517  12.139   2.221 -0.8142  0.0810  0.6238
  347MOL0     H46843  -0.550  11.828   1.928 -4.6055 -0.3653  1.3202
  347MOL0     H46844  -0.260  11.662   2.143  0.1737 -2.6649 -2.1350
  347MOL0     H46845  -0.028  11.571   2.081 -1.0707 -3.5306  0.0534
  348MOL0     O46846  10.651   7.674   6.824  0.4627 -0.2420  0.5467
  348MOL0     C46847  10.713   7.660   6.928 -0.3800  0.3888  0.3974
  348MOL0     O46848  10.749   7.758   7.014  0.7419  0.6591  0.0358
  348MOL0     C46849  10.716   7.888   6.990  0.4934  0.0276 -0.7917
  348MOL0     C46850  10.597   7.936   6.947  0.3316  0.0570  0.5018
  348MOL0     C46851  10.560   8.073   6.949 -0.1244 -0.2204 -0.2418
  348MOL0     C46852  10.661   8.166   6.989 -0.7648  0.1866 -0.2134
  348MOL0     O46853  10.632   8.300   6.996  0.8062 -0.1721  0.5605
  348MOL0     C46854  10.583   8.331   7.123  0.2642 -0.4440 -0.7179
  348MOL0     C46855  10.471   8.435   7.111  0.2322 -0.3767  0.4675
  348MOL0     C46856  10.535   8.559   7.049  0.4463 -0.5356  1.2851
  348MOL0     C46857  10.455   8.688   7.066  0.2591  0.5239  0.2099
  348MOL0     C46858  10.515   8.816   7.003 -0.0792  1.3865 -0.6025
  348MOL0     C46859  10.424   8.929   7.030 -0.3065  0.0915  0.3925
  348MOL0     C46860  10.427   8.969   7.186 -1.0073  1.1344  0.8765
  348MOL0     C46861  10.333   9.081   7.220  0.0351  0.1030 -0.5576
  348MOL0     N46862  10.372   9.197   7.137  0.6841 -0.7356 -0.0033
  348MOL0     C46863  10.496   9.266   7.141 -1.0352  0.0769 -0.1208
  348MOL0     C46864  10.487   9.357   7.039 -0.3198  0.9332  0.0659
  348MOL0     C46865  10.592   9.457   6.994 -0.4473  0.4839  0.3744
  348MOL0     C46866  10.665   9.423   6.859 -0.1606 -0.0874  0.6387
  348MOL0     C46867  10.723   9.277   6.867  0.0865  0.6095  0.4446
  348MOL0     C46868  10.792   9.236   6.739 -0.0083  0.4621  0.2240
  348MOL0     O46869  10.861   9.108   6.747  0.6308 -0.1397 -0.4031
  348MOL0     C46870  10.820   9.020   6.647 -0.9448  0.0298 -0.2992
  348MOL0     C46871  10.883   9.003   6.529 -0.8816  0.6760  0.3057
  348MOL0     C46872  10.845   8.905   6.435 -0.0760 -0.3484 -0.5984
  348MOL0     C46873  10.940   8.909   6.314  1.4413  0.3734 -0.1257
  348MOL0     C46874  10.736   8.816   6.470 -0.8499 -0.3959  0.3760
  348MOL0     C46875  10.686   8.697   6.390  0.0867 -1.4194 -0.4533
  348MOL0     O46876  10.562   8.655   6.423 -0.8783 -0.0524 -0.1687
  348MOL0     C46877  10.517   8.536   6.359  0.1657 -0.7267 -0.8662
  348MOL0     C46878  10.458   8.554   6.234 -0.6691  0.7745 -0.5558
  348MOL0     C46879  10.402   8.448   6.157 -1.0745  0.0920 -0.2283
  348MOL0     C46880  10.420   8.318   6.214 -0.4125  0.6290 -0.1559
  348MOL0     O46881  10.373   8.214   6.141  0.3701 -1.1216 -0.1530
  348MOL0     C46882  10.391   8.071   6.175 -0.0592 -0.1918  1.1838
  348MOL0     C46883  10.305   8.032   6.286 -0.8859 -0.2455 -0.0020
  348MOL0     C46884  10.170   8.103   6.270 -0.0587 -0.2317  0.3014
  348MOL0     C46885  10.067   8.070   6.381  0.1056  0.3082 -0.4578
  348MOL0     C46886   9.922   8.089   6.330  0.1032 -0.3678 -0.3044
  348MOL0     C46887   9.807   8.060   6.437  0.4000  0.6319  1.1093
  348MOL0     C46888   9.668   8.050   6.375  0.1426  0.8882  0.8555
  348MOL0     C46889   9.549   8.041   6.467 -0.4145 -0.0232 -0.2249
  348MOL0    Cl46890   9.551   7.921   6.599  0.3065 -0.3598  0.4719
  348MOL0     C46891  10.492   8.305   6.336 -0.3325  0.4098 -0.3928
  348MOL0     C46892  10.525   8.411   6.411  0.1271 -0.1701  0.2116
  348MOL0     O46893  10.765   8.650   6.309  1.4774  0.2009 -0.0415
  348MOL0     C46894  10.669   8.841   6.591  0.0390 -1.4146  0.3045
  348MOL0     C46895  10.705   8.941   6.681 -0.1760  0.0827 -0.2109
  348MOL0     N46896  10.371   9.332   6.970  0.5185 -0.3189  0.8266
  348MOL0     N46897  10.304   9.238   7.024 -0.4264  0.2867 -0.3062
  348MOL0     C46898  10.786   8.122   7.028 -0.5092  0.0510  0.6374
  348MOL0     C46899  10.812   7.981   7.043  0.0606 -0.5504  0.2071
  348MOL0     C46900  10.724   7.531   6.985  0.2246  0.5213  0.5971
  348MOL0     C46901  10.787   7.513   7.106 -0.9615  0.7276  0.5898
  348MOL0     C46902  10.800   7.384   7.167  0.9232 -0.3991  0.1424
  348MOL0     C46903  10.749   7.274   7.100 -0.3058  0.3761 -0.0541
  348MOL0     O46904  10.756   7.145   7.139 -1.4894 -0.5529  0.0132
  348MOL0     C46905  10.750   7.118   7.277  0.6631  1.0253 -0.2624
  348MOL0     C46906  10.848   7.005   7.296  0.2581 -0.2813  0.1326
  348MOL0     C46907  10.869   6.979   7.449  0.1439 -0.3523  0.2877
  348MOL0     C46908  11.015   6.921   7.488  0.2312 -0.0727 -0.1763
  348MOL0     C46909  11.111   7.032   7.496 -0.1785  0.3909 -0.5983
  348MOL0     C46910  11.185   7.122   7.519 -0.5971 -0.0499 -0.0893
  348MOL0     C46911  10.676   7.292   6.980  0.3435 -0.3767  0.7134
  348MOL0     C46912  10.667   7.421   6.921 -0.0031  0.2572 -0.1390
  348MOL0     H46913  10.525   7.860   6.920 -1.5344  1.2252  2.0134
  348MOL0     H46914  10.459   8.099   6.920  0.3129 -0.2052 -1.8717
  348MOL0     H46915  10.553   8.243   7.180  0.0043  0.9316  1.3702
  348MOL0     H46916  10.665   8.370   7.183  0.6988 -1.5069 -0.6064
  348MOL0     H46917  10.386   8.403   7.049  1.0114 -1.6663  0.0247
  348MOL0     H46918  10.426   8.452   7.209 -3.0489 -1.2461 -0.7392
  348MOL0     H46919  10.634   8.586   7.087 -0.8982  1.3958  3.7384
  348MOL0     H46920  10.551   8.539   6.943 -0.5578 -0.9718  1.2057
  348MOL0     H46921  10.351   8.675   7.032 -0.1416  2.9998  0.3009
  348MOL0     H46922  10.460   8.696   7.175  1.7676  3.5775  0.0174
  348MOL0     H46923  10.615   8.832   7.044 -0.5967 -1.1103  2.0092
  348MOL0     H46924  10.522   8.804   6.895 -0.5953 -2.7276 -0.3528
  348MOL0     H46925  10.477   9.005   6.971 -0.7894 -0.1667 -0.3830
  348MOL0     H46926  10.322   8.913   6.995 -0.2785  3.6112 -1.8086
  348MOL0     H46927  10.409   8.889   7.257  1.4968  1.8325  2.4229
  348MOL0     H46928  10.529   9.001   7.209  0.5123 -3.3321  1.3642
  348MOL0     H46929  10.339   9.104   7.327  0.6492  0.4116 -0.6541
  348MOL0     H46930  10.227   9.062   7.201  0.2113 -1.8323  0.2109
  348MOL0     H46931  10.577   9.252   7.212  1.7075 -0.5793 -3.1553
  348MOL0     H46932  10.542   9.554   6.995 -2.4637 -0.3750  4.4747
  348MOL0     H46933  10.661   9.456   7.079  1.2373  1.2284 -0.9245
  348MOL0     H46934  10.745   9.497   6.857 -1.4438  1.3452 -1.5554
  348MOL0     H46935  10.599   9.438   6.773  1.9621  0.9860 -0.8732
  348MOL0     H46936  10.645   9.204   6.893 -1.3472  1.8656 -0.1668
  348MOL0     H46937  10.795   9.269   6.949  0.2626 -0.2641  0.2201
  348MOL0     H46938  10.871   9.304   6.706  1.6787 -1.4410  0.1736
  348MOL0     H46939  10.712   9.235   6.664  2.0353  0.3808 -2.0560
  348MOL0     H46940  10.966   9.064   6.495 -0.5370 -0.0662 -0.2222
  348MOL0     H46941  10.987   8.810   6.309  2.7050  0.9777 -4.1614
  348MOL0     H46942  10.863   8.914   6.235 -2.8212  5.1751  3.6235
  348MOL0     H46943  11.015   8.987   6.307  0.8772  0.9823  0.4887
  348MOL0     H46944  10.469   8.657   6.202  0.0101  0.4148 -1.5418
  348MOL0     H46945  10.346   8.459   6.064  1.0031 -0.6853 -1.6467
  348MOL0     H46946  10.373   8.016   6.083  1.1422 -0.1749  0.9241
  348MOL0     H46947  10.493   8.045   6.204  0.6408 -3.9385 -3.5066
  348MOL0     H46948  10.288   7.924   6.288 -1.7923 -0.1166 -0.0657
  348MOL0     H46949  10.352   8.058   6.381 -0.1298  0.2213 -0.4913
  348MOL0     H46950  10.123   8.115   6.172 -0.4914 -0.6460  0.4539
  348MOL0     H46951  10.188   8.209   6.288 -3.4008  0.3388  1.1329
  348MOL0     H46952  10.070   7.964   6.409  3.7848 -0.0659 -1.7490
  348MOL0     H46953  10.096   8.125   6.471  1.6100 -0.7852 -0.2256
  348MOL0     H46954   9.919   8.031   6.237  1.4185  1.7593 -1.7364
  348MOL0     H46955   9.914   8.194   6.304 -3.4208 -0.3651  0.3168
  348MOL0     H46956   9.822   7.973   6.502  0.6181  0.4078  0.7595
  348MOL0     H46957   9.807   8.142   6.510 -0.4296  0.5342  1.2247
  348MOL0     H46958   9.673   7.961   6.312  0.2323  1.5044 -0.0325
  348MOL0     H46959   9.652   8.131   6.304  2.1317  0.4154 -0.2004
  348MOL0     H46960   9.460   8.032   6.405  1.0434 -2.8580 -2.0850
  348MOL0     H46961   9.546   8.134   6.525 -0.4902 -1.4431  2.1826
  348MOL0     H46962  10.504   8.202   6.370 -0.2897 -0.7203 -3.4889
  348MOL0     H46963  10.570   8.397   6.508  0.6954 -1.4050 -0.2168
  348MOL0     H46964  10.579   8.787   6.616 -2.1600  1.0367 -1.7121
  348MOL0     H46965  10.643   8.957   6.769 -1.1557 -0.8791 -0.7004
  348MOL0     H46966  10.862   8.189   7.065  1.8252 -0.9535 -2.0172
  348MOL0     H46967  10.907   7.943   7.080  2.0404 -1.2243 -4.7655
  348MOL0     H46968  10.826   7.597   7.162  1.0267  0.9793 -1.0535
  348MOL0     H46969  10.848   7.365   7.262  0.9139 -2.7321 -0.2570
  348MOL0     H46970  10.749   7.207   7.342 -1.7537  1.0589 -0.2775
  348MOL0     H46971  10.654   7.070   7.294  2.4053 -2.8198 -0.2768
  348MOL0     H46972  10.941   7.047   7.257 -0.6940  0.4009 -1.4835
  348MOL0     H46973  10.813   6.915   7.244 -0.2277 -1.2070  1.9812
  348MOL0     H46974  10.781   6.922   7.480 -0.0989 -0.2384 -0.1787
  348MOL0     H46975  10.871   7.075   7.501  0.4760  0.7314 -1.6378
  348MOL0     H46976  11.029   6.857   7.400  1.5618  0.7443 -0.5983
  348MOL0     H46977  11.003   6.865   7.581  0.1064  0.0673 -0.1077
  348MOL0     H46978  11.224   7.210   7.566  0.8206 -0.9713  0.5400
  348MOL0     H46979  10.626   7.209   6.933  0.7821  0.1292 -0.6996
  348MOL0     H46980  10.616   7.426   6.825 -0.7294  1.3257  0.2883
  349MOL0     O46981   1.848   3.888   4.441 -0.7329  0.2964 -0.4967
  349MOL0     C46982   1.886   3.859   4.323 -0.6451  0.3945 -0.9652
  349MOL0     O46983   2.015   3.862   4.284  0.3674 -0.5946  0.0084
  349MOL0     C46984   2.115   3.889   4.371  0.3724  1.1749 -0.2312
  349MOL0     C46985   2.183   4.003   4.349  0.0583 -0.5263  0.1078
  349MOL0     C46986   2.292   4.047   4.434  0.6880  1.1306 -0.8908
  349MOL0     C46987   2.343   3.958   4.529 -1.2976  0.7115 -0.7750
  349MOL0     O46988   2.452   3.997   4.602  0.2122  0.4046 -0.0357
  349MOL0     C46989   2.423   4.003   4.746 -0.5396  1.1995 -0.0593
  349MOL0     C46990   2.558   3.982   4.828  0.6686 -0.0761  0.5074
  349MOL0     C46991   2.551   4.006   4.979  1.4023 -0.4466 -0.8988
  349MOL0     C46992   2.691   4.028   5.030 -0.1538 -0.1811 -0.3992
  349MOL0     C46993   2.681   4.074   5.181  0.2024 -0.3450  0.0222
  349MOL0     C46994   2.818   4.107   5.241 -0.8027  0.1152  1.1222
  349MOL0     C46995   2.870   3.979   5.304 -0.5392 -0.4691  0.4515
  349MOL0     C46996   3.024   3.951   5.283 -0.5567 -0.6356  0.4338
  349MOL0     N46997   3.104   4.052   5.352  0.1389  1.1243  0.4461
  349MOL0     C46998   3.120   4.188   5.315 -0.9687 -0.1319 -0.0763
  349MOL0     C46999   3.191   4.237   5.418 -0.0316 -0.3017 -0.7257
  349MOL0     C47000   3.247   4.380   5.423 -0.2904 -0.1087  0.3392
  349MOL0     C47001   3.126   4.474   5.433 -0.0399  0.2150  0.2218
  349MOL0     C47002   3.070   4.484   5.576 -0.1047  0.2699  0.0975
  349MOL0     C47003   2.954   4.384   5.602 -0.1795  0.5274 -1.3474
  349MOL0     O47004   2.880   4.433   5.721  0.1984 -0.7852  0.0684
  349MOL0     C47005   2.761   4.359   5.746  0.9299 -0.9657  0.1264
  349MOL0     C47006   2.742   4.228   5.712 -0.2911  1.5025  0.2481
  349MOL0     C47007   2.633   4.149   5.730  0.3482  0.0124  0.3749
  349MOL0     C47008   2.640   4.005   5.683  0.7593  0.0737 -0.0552
  349MOL0     C47009   2.528   4.216   5.790 -0.1240  0.3983 -0.3247
  349MOL0     C47010   2.406   4.140   5.813 -0.3394  0.0515  0.0325
  349MOL0     O47011   2.288   4.211   5.804 -0.4730  0.3383 -1.3234
  349MOL0     C47012   2.173   4.131   5.808 -0.7180  1.0986 -0.2065
  349MOL0     C47013   2.100   4.110   5.925 -0.3523 -0.5021  0.1218
  349MOL0     C47014   1.991   4.031   5.918  0.7455  0.7287 -1.5850
  349MOL0     C47015   1.951   3.981   5.798 -0.9859  0.1082  0.6606
  349MOL0     O47016   1.853   3.887   5.798  0.5183  0.5014  0.0961
  349MOL0     C47017   1.732   3.937   5.727  0.7922  0.2229 -0.2141
  349MOL0     C47018   1.713   3.839   5.606  0.2066 -0.0514  0.2514
  349MOL0     C47019   1.602   3.891   5.519  0.6792 -0.1315  0.5509
  349MOL0     C47020   1.570   3.787   5.416  0.0963 -0.0588  0.0206
  349MOL0     C47021   1.526   3.845   5.278  0.5634 -0.2741 -0.2497
  349MOL0     C47022   1.404   3.930   5.286 -0.9991 -0.0483  0.1286
  349MOL0     C47023   1.339   3.948   5.143 -0.2880  0.4632 -0.5521
  349MOL0     C47024   1.197   3.997   5.151  0.2899  1.0525 -0.6213
  349MOL0    Cl47025   1.151   4.022   4.977  0.1045 -0.1678  0.2976
  349MOL0     C47026   2.028   3.995   5.682 -1.0422  0.3842 -0.5038
  349MOL0     C47027   2.140   4.078   5.691  0.9303 -0.0935  0.9862
  349MOL0     O47028   2.416   4.022   5.849 -0.4053  0.0957  0.1824
  349MOL0     C47029   2.529   4.359   5.816 -0.4838 -0.4388  0.0071
  349MOL0     C47030   2.648   4.425   5.788 -0.4897  0.7736 -0.4838
  349MOL0     N47031   3.221   4.133   5.502 -0.0149 -0.2413 -0.4132
  349MOL0     N47032   3.164   4.025   5.469  0.3046 -1.1537  0.3995
  349MOL0     C47033   2.273   3.840   4.544  0.8663  0.6212 -0.5075
  349MOL0     C47034   2.158   3.801   4.472 -0.2876 -0.0442  0.0150
  349MOL0     C47035   1.778   3.806   4.236 -0.8326 -0.2526 -0.2799
  349MOL0     C47036   1.781   3.839   4.100 -0.5715 -0.7569 -1.0582
  349MOL0     C47037   1.677   3.797   4.017 -1.1942  1.0997  0.3556
  349MOL0     C47038   1.567   3.729   4.066 -0.2809 -0.2789  0.2286
  349MOL0     O47039   1.473   3.678   3.981 -0.1345  0.2060 -0.8148
  349MOL0     C47040   1.511   3.558   3.922  0.3326 -0.1528 -0.3214
  349MOL0     C47041   1.595   3.588   3.796  0.6590 -0.1748 -0.3972
  349MOL0     C47042   1.527   3.679   3.679  0.2699  0.1046 -0.8441
  349MOL0     C47043   1.636   3.734   3.585 -0.5803  0.2775  0.2713
  349MOL0     C47044   1.566   3.818   3.486  0.4428  0.1726 -0.9567
  349MOL0     C47045   1.519   3.908   3.430 -0.2991 -0.1654  0.2748
  349MOL0     C47046   1.562   3.695   4.199  0.4083 -0.9907  0.0904
  349MOL0     C47047   1.656   3.744   4.283 -0.4947  0.2683  0.3514
  349MOL0     H47048   2.152   4.072   4.271  0.9400 -0.2132  0.0208
  349MOL0     H47049   2.327   4.149   4.428  3.2916  0.5903  2.2828
  349MOL0     H47050   2.367   4.092   4.776 -1.4093  0.4520  0.6041
  349MOL0     H47051   2.365   3.912   4.765  0.8194  0.3393  0.1245
  349MOL0     H47052   2.591   3.878   4.824 -1.3095 -0.7861  1.4413
  349MOL0     H47053   2.632   4.045   4.778  0.5467 -0.7168 -0.5228
  349MOL0     H47054   2.488   4.093   5.001 -0.9636 -2.5604  1.5990
  349MOL0     H47055   2.509   3.920   5.032  4.9476 -2.6564 -1.3758
  349MOL0     H47056   2.750   3.937   5.029 -1.4963 -1.1117  0.6037
  349MOL0     H47057   2.749   4.108   4.984  2.0113 -1.2736  0.3180
  349MOL0     H47058   2.617   4.162   5.185  0.5556  0.0949 -2.4805
  349MOL0     H47059   2.633   3.996   5.241  2.0267 -0.4628  1.4386
  349MOL0     H47060   2.880   4.135   5.154 -1.9867  2.8619  1.0434
  349MOL0     H47061   2.813   4.201   5.297  1.1909  1.8235 -1.3024
  349MOL0     H47062   2.863   3.978   5.413 -0.9022 -0.8249  0.4276
  349MOL0     H47063   2.811   3.896   5.263 -1.2221 -0.0081  0.4956
  349MOL0     H47064   3.050   3.946   5.177  1.5845 -1.6279  0.9437
  349MOL0     H47065   3.068   3.853   5.305  1.8788  0.4633  0.7871
  349MOL0     H47066   3.067   4.235   5.233 -0.7952  3.1538  1.5627
  349MOL0     H47067   3.318   4.411   5.500  0.4839 -0.1478 -0.3513
  349MOL0     H47068   3.297   4.401   5.328  1.6282 -3.6057  0.4275
  349MOL0     H47069   3.045   4.448   5.364 -0.9244  2.7123  0.2402
  349MOL0     H47070   3.153   4.564   5.378 -2.7614  0.9417 -0.1075
  349MOL0     H47071   3.030   4.581   5.604 -1.5729 -0.8124  2.0767
  349MOL0     H47072   3.156   4.472   5.643  0.3358 -0.1737 -0.5322
  349MOL0     H47073   2.982   4.282   5.632 -3.1845  0.1619  0.6340
  349MOL0     H47074   2.884   4.392   5.519 -2.8007  1.6041  0.7831
  349MOL0     H47075   2.823   4.165   5.675 -0.4554 -0.1100  2.4606
  349MOL0     H47076   2.552   3.967   5.631 -0.1110  0.9246  0.7329
  349MOL0     H47077   2.724   3.991   5.614  1.4426 -2.7292  1.2257
  349MOL0     H47078   2.665   3.926   5.755  2.3455 -3.1040 -3.7426
  349MOL0     H47079   2.117   4.175   6.010  1.0979  2.4834 -2.2280
  349MOL0     H47080   1.926   4.027   6.005  0.5829 -1.6951 -1.7460
  349MOL0     H47081   1.650   3.956   5.797  1.3123  2.1189 -0.0721
  349MOL0     H47082   1.753   4.038   5.691  1.1263  0.2347  0.0109
  349MOL0     H47083   1.803   3.824   5.545 -0.1028 -2.0621  0.2482
  349MOL0     H47084   1.677   3.746   5.649  0.5141 -0.5714 -0.5898
  349MOL0     H47085   1.630   3.986   5.471  0.7414 -0.2341  0.3839
  349MOL0     H47086   1.513   3.910   5.581  1.4825  3.8537  0.7808
  349MOL0     H47087   1.653   3.717   5.404 -0.6004 -0.9172  0.1192
  349MOL0     H47088   1.496   3.721   5.462  0.1148  2.2479  3.7130
  349MOL0     H47089   1.519   3.766   5.202  1.7695  1.1639 -1.9553
  349MOL0     H47090   1.615   3.902   5.248  2.0030 -1.1128  2.2019
  349MOL0     H47091   1.335   3.878   5.354 -0.6011 -1.0163 -0.1971
  349MOL0     H47092   1.422   4.025   5.337 -1.2741 -0.0518  0.2363
  349MOL0     H47093   1.351   3.860   5.078 -0.7309 -1.1473  1.4224
  349MOL0     H47094   1.401   4.012   5.080  2.0266 -1.8705 -0.8473
  349MOL0     H47095   1.175   4.084   5.214  1.8185  1.5126 -0.6794
  349MOL0     H47096   1.137   3.917   5.195  2.3998  0.0333  0.5893
  349MOL0     H47097   1.993   3.936   5.598  0.3253 -3.3166  1.3095
  349MOL0     H47098   2.206   4.089   5.605  1.5396 -0.0886  1.4461
  349MOL0     H47099   2.450   4.409   5.870  0.2748 -0.2343  0.9607
  349MOL0     H47100   2.667   4.529   5.815  1.1285  0.2969  0.2819
  349MOL0     H47101   2.291   3.770   4.625 -1.1531 -0.6809 -1.1139
  349MOL0     H47102   2.117   3.701   4.483  2.9365 -1.7303 -1.8945
  349MOL0     H47103   1.860   3.901   4.059  0.0403  0.5078  1.7754
  349MOL0     H47104   1.696   3.815   3.912 -1.7404  0.3968  0.1253
  349MOL0     H47105   1.585   3.494   3.970  1.0945  1.5589  0.8858
  349MOL0     H47106   1.413   3.512   3.902  0.7553 -0.2585 -2.3549
  349MOL0     H47107   1.625   3.491   3.755  4.6235 -1.1225  3.9211
  349MOL0     H47108   1.687   3.640   3.822  0.6818  0.2868 -1.3557
  349MOL0     H47109   1.470   3.756   3.733 -1.6798 -1.9644  0.2036
  349MOL0     H47110   1.451   3.626   3.621 -2.5169  0.9567  1.7140
  349MOL0     H47111   1.686   3.657   3.525  0.2225  1.0305 -0.0350
  349MOL0     H47112   1.706   3.797   3.641 -0.0922 -1.6549  1.9739
  349MOL0     H47113   1.458   3.978   3.376 -0.5182 -0.0841  0.6292
  349MOL0     H47114   1.479   3.633   4.232 -1.7192 -0.0947 -3.1373
  349MOL0     H47115   1.655   3.710   4.386 -1.4532 -1.5534 -0.2291
  350MOL0     O47116   6.602   4.495   5.697 -0.3639  0.5930  0.0870
  350MOL0     C47117   6.650   4.382   5.665  0.8892 -0.4935  0.6316
  350MOL0     O47118   6.712   4.286   5.747 -0.2674  0.1159  0.4370
  350MOL0     C47119   6.736   4.306   5.883 -0.3590  0.6544 -0.3868
  350MOL0     C47120   6.672   4.405   5.968  0.0123  0.6401 -1.1088
  350MOL0     C47121   6.707   4.411   6.104  0.0739 -0.8279 -0.6335
  350MOL0     C47122   6.795   4.320   6.153 -0.1964  0.0352  0.0812
  350MOL0     O47123   6.842   4.304   6.280 -0.4913 -0.5319  0.7384
  350MOL0     C47124   6.870   4.434   6.349 -0.3007  0.3674  0.1825
  350MOL0     C47125   6.936   4.414   6.481 -0.4893 -0.1035  0.2611
  350MOL0     C47126   7.088   4.368   6.447 -0.1814 -0.0116  0.1561
  350MOL0     C47127   7.170   4.383   6.585 -0.3199  0.5393 -0.7746
  350MOL0     C47128   7.322   4.346   6.555 -0.1749  0.6108  0.0941
  350MOL0     C47129   7.332   4.195   6.508 -0.6933 -0.3924 -0.7151
  350MOL0     C47130   7.476   4.143   6.512  0.7889 -0.3491  0.0532
  350MOL0     C47131   7.497   3.999   6.466  0.6593 -0.2751 -0.1436
  350MOL0     N47132   7.641   3.977   6.440 -0.7752 -0.1900  0.6064
  350MOL0     C47133   7.703   3.989   6.319 -0.5152 -0.1920 -1.3106
  350MOL0     C47134   7.836   3.953   6.348  0.6005 -0.1573  0.2169
  350MOL0     C47135   7.951   3.932   6.252 -0.2946 -0.9880  0.2188
  350MOL0     C47136   7.905   3.956   6.113  0.3809  0.1196  0.2862
  350MOL0     C47137   8.020   3.970   6.016 -0.0095 -0.0777  0.7095
  350MOL0     C47138   7.970   3.968   5.875  0.1135 -0.2785  0.5319
  350MOL0     O47139   7.874   4.071   5.839  0.1579 -0.0854 -0.2040
  350MOL0     C47140   7.810   4.051   5.721  0.0359  0.0013  0.1528
  350MOL0     C47141   7.678   4.096   5.700  0.1298 -0.2812 -0.7589
  350MOL0     C47142   7.602   4.076   5.577  1.0991  0.8879  0.1133
  350MOL0     C47143   7.456   4.122   5.560  0.5941 -0.2871  0.2731
  350MOL0     C47144   7.668   4.016   5.462 -0.6622  0.0431  0.1436
  350MOL0     C47145   7.610   3.995   5.330  0.3185 -1.3982 -0.3679
  350MOL0     O47146   7.472   3.970   5.327 -0.9792 -0.3060  0.5425
  350MOL0     C47147   7.412   3.987   5.207  0.9928 -0.0668 -2.3587
  350MOL0     C47148   7.353   3.877   5.145  0.2525  0.0345  1.2447
  350MOL0     C47149   7.269   3.897   5.031 -0.0608 -0.6299  0.8071
  350MOL0     C47150   7.249   4.031   4.978 -0.7818  1.1189  0.3048
  350MOL0     O47151   7.166   4.032   4.877  0.7473 -0.7195  0.3869
  350MOL0     C47152   7.115   4.163   4.821  0.0269  0.4621  0.3966
  350MOL0     C47153   7.026   4.141   4.699  0.2890  0.4772 -0.2028
  350MOL0     C47154   6.964   4.279   4.646  0.1989  0.3547 -0.2968
  350MOL0     C47155   6.928   4.263   4.508 -0.3991 -0.4531 -0.1280
  350MOL0     C47156   6.825   4.151   4.499  0.5014  0.0693 -0.5011
  350MOL0     C47157   6.741   4.156   4.369 -0.1312  0.3526 -0.6204
  350MOL0     C47158   6.649   4.032   4.349  0.0645  0.6152 -0.4118
  350MOL0     C47159   6.720   3.916   4.297  0.1500 -0.2744  0.1624
  350MOL0    Cl47160   6.625   3.774   4.317  0.1702  0.1843  0.4019
  350MOL0     C47161   7.316   4.135   5.038  0.5117  0.7701 -0.0706
  350MOL0     C47162   7.389   4.115   5.155 -0.2410 -0.1378 -0.1798
  350MOL0     O47163   7.688   4.006   5.234  0.5960 -0.1442  0.1158
  350MOL0     C47164   7.810   3.999   5.481  0.5406 -0.6816 -0.4394
  350MOL0     C47165   7.868   4.021   5.605  0.2124  1.1027  0.4489
  350MOL0     N47166   7.853   3.940   6.490  0.0808 -0.2704  0.9102
  350MOL0     N47167   7.729   3.957   6.541 -0.6340  0.4931 -0.7202
  350MOL0     C47168   6.836   4.215   6.074  0.0246  0.5061  1.1396
  350MOL0     C47169   6.810   4.208   5.939  0.1822 -0.4192  0.6155
  350MOL0     C47170   6.619   4.335   5.521 -0.3267  0.7992  0.1404
  350MOL0     C47171   6.589   4.194   5.499 -0.7261 -0.6934 -0.1009
  350MOL0     C47172   6.558   4.147   5.375  0.1342  0.2955 -1.5231
  350MOL0     C47173   6.556   4.243   5.274 -0.8215 -0.5825 -0.2593
  350MOL0     O47174   6.533   4.193   5.151 -0.6064  0.3465  0.9388
  350MOL0     C47175   6.439   4.268   5.069 -0.1852  0.2515 -0.1653
  350MOL0     C47176   6.363   4.184   4.979 -0.6923 -0.0316  0.0625
  350MOL0     C47177   6.405   4.200   4.829  1.0350  0.9047 -0.0126
  350MOL0     C47178   6.373   4.079   4.751  0.7293  0.0942  0.2082
  350MOL0     C47179   6.232   4.043   4.763  1.3066 -0.9073 -0.4156
  350MOL0     C47180   6.111   4.013   4.762 -0.3316 -1.1368  0.2156
  350MOL0     C47181   6.582   4.379   5.289  0.3576 -1.1923 -0.0129
  350MOL0     C47182   6.605   4.426   5.420 -0.5834 -0.1629 -0.2872
  350MOL0     H47183   6.604   4.484   5.941 -0.6122  1.1759  1.7320
  350MOL0     H47184   6.659   4.488   6.163 -1.3861 -0.6639 -1.9634
  350MOL0     H47185   6.927   4.499   6.281 -2.3875  1.8953 -0.2079
  350MOL0     H47186   6.788   4.505   6.365  0.5624  1.1330  1.4244
  350MOL0     H47187   6.931   4.515   6.523 -1.9978  2.1118 -4.4603
  350MOL0     H47188   6.887   4.336   6.540 -0.7927 -0.6772 -0.7156
  350MOL0     H47189   7.094   4.263   6.417 -0.4733 -0.5854  1.9525
  350MOL0     H47190   7.143   4.417   6.366  0.6385  2.0729  1.8755
  350MOL0     H47191   7.171   4.490   6.612  0.2482  0.1128  1.0688
  350MOL0     H47192   7.136   4.326   6.671 -2.4632 -0.4821 -2.2230
  350MOL0     H47193   7.372   4.410   6.481  0.5151 -0.9758 -0.8722
  350MOL0     H47194   7.377   4.358   6.649 -2.1250  1.9824  1.1243
  350MOL0     H47195   7.273   4.141   6.583  0.2326 -2.2377 -1.2689
  350MOL0     H47196   7.283   4.165   6.415 -2.8211 -2.1119  0.8666
  350MOL0     H47197   7.545   4.209   6.459  2.1680  0.8225  3.0527
  350MOL0     H47198   7.515   4.138   6.614  6.2916 -1.2333 -1.7314
  350MOL0     H47199   7.439   3.982   6.375  0.5907 -1.2435  0.0676
  350MOL0     H47200   7.451   3.932   6.540 -2.5347 -1.1014 -2.6636
  350MOL0     H47201   7.658   4.019   6.225 -2.0694  1.3624 -0.1253
  350MOL0     H47202   8.026   4.001   6.293 -2.5759  2.1127 -0.4952
  350MOL0     H47203   7.985   3.828   6.255  1.5805 -0.4031  2.1660
  350MOL0     H47204   7.839   4.040   6.092  1.1390  0.6899  0.1391
  350MOL0     H47205   7.841   3.868   6.103  0.7311 -0.4802  2.5836
  350MOL0     H47206   8.086   3.884   6.031  0.2911 -0.5286 -2.5691
  350MOL0     H47207   8.084   4.059   6.017 -0.3941  0.2041  0.6788
  350MOL0     H47208   7.927   3.873   5.844  2.6199 -0.9523 -1.0998
  350MOL0     H47209   8.054   3.991   5.809 -0.0811  1.2078  0.7590
  350MOL0     H47210   7.640   4.139   5.792  0.6375  0.5179 -0.9065
  350MOL0     H47211   7.415   4.164   5.651  1.6390 -0.6687  0.9411
  350MOL0     H47212   7.452   4.205   5.489 -0.1306  0.8753  1.6457
  350MOL0     H47213   7.381   4.046   5.537  0.1474  0.0726  0.5375
  350MOL0     H47214   7.349   3.781   5.196  0.6066  0.6781  2.5197
  350MOL0     H47215   7.208   3.816   4.992  0.0363  0.9056 -3.0044
  350MOL0     H47216   7.044   4.197   4.897 -3.6644 -2.4880 -1.3783
  350MOL0     H47217   7.198   4.234   4.815 -1.1137  1.7247 -1.3340
  350MOL0     H47218   7.080   4.097   4.614 -0.5202  1.6736 -1.3843
  350MOL0     H47219   6.943   4.072   4.717  0.2483 -0.2511 -2.6984
  350MOL0     H47220   7.026   4.366   4.668 -1.3437  1.7898 -1.3224
  350MOL0     H47221   6.872   4.297   4.702  1.3311  1.2592  1.3204
  350MOL0     H47222   6.900   4.364   4.475 -3.2877 -0.8557  0.7673
  350MOL0     H47223   7.020   4.238   4.454 -0.0369  1.6212 -0.5380
  350MOL0     H47224   6.755   4.128   4.580 -1.5322  0.3037 -2.1286
  350MOL0     H47225   6.885   4.060   4.491 -0.2986 -0.4341 -0.8960
  350MOL0     H47226   6.681   4.247   4.364 -4.5594 -2.2497 -0.6979
  350MOL0     H47227   6.813   4.167   4.287 -0.3757 -1.8774 -1.2178
  350MOL0     H47228   6.573   4.064   4.277  0.0160  1.5471  0.0387
  350MOL0     H47229   6.603   4.004   4.444 -1.5048  3.0412 -0.3696
  350MOL0     H47230   6.811   3.911   4.356 -0.1217  0.9717  0.7234
  350MOL0     H47231   6.744   3.932   4.191  1.9070 -3.9383 -0.1523
  350MOL0     H47232   7.305   4.235   4.995 -1.2105  1.7919  2.4820
  350MOL0     H47233   7.432   4.204   5.200 -1.8872  2.8171 -3.8915
  350MOL0     H47234   7.863   3.945   5.402 -1.4723 -0.6124 -1.9117
  350MOL0     H47235   7.972   3.993   5.612  0.1192  0.7923  0.6205
  350MOL0     H47236   6.894   4.133   6.116  1.5668  0.9676 -0.0046
  350MOL0     H47237   6.836   4.122   5.879 -3.5772 -1.5669  0.3537
  350MOL0     H47238   6.593   4.121   5.578  3.2137  0.7301  1.2704
  350MOL0     H47239   6.525   4.044   5.365  0.1512  0.3932 -2.7606
  350MOL0     H47240   6.361   4.314   5.130 -2.0949 -1.6324 -1.0323
  350MOL0     H47241   6.496   4.340   5.010  1.4999 -2.2175 -1.7746
  350MOL0     H47242   6.260   4.219   4.978 -1.1938 -1.4247  0.8366
  350MOL0     H47243   6.368   4.078   5.005  0.3631 -0.4430 -1.6433
  350MOL0     H47244   6.512   4.222   4.827  1.8960 -2.6136 -3.0345
  350MOL0     H47245   6.354   4.279   4.773 -0.0515  1.6262  1.8975
  350MOL0     H47246   6.427   3.991   4.789 -0.2609  0.6134  3.0398
  350MOL0     H47247   6.390   4.102   4.645 -0.3714  1.5427  0.3231
  350MOL0     H47248   6.005   4.018   4.743  0.0155  1.2823 -1.6462
  350MOL0     H47249   6.581   4.449   5.207  2.7872 -1.5585 -0.4464
  350MOL0     H47250   6.630   4.528   5.447 -0.0403  0.2098 -2.0670
  351MOL0     O47251   1.426  11.393  10.384 -0.2719 -0.2284  0.0566
  351MOL0     C47252   1.467  11.282  10.394  0.3782  0.4966  0.2055
  351MOL0     O47253   1.568  11.232  10.321 -0.8707 -0.1944 -0.1102
  351MOL0     C47254   1.613  11.313  10.217 -0.9717  0.1630  0.7155
  351MOL0     C47255   1.703  11.422  10.240  2.1670  0.5535  0.4957
  351MOL0     C47256   1.750  11.504  10.140  0.5859 -0.0475 -0.5682
  351MOL0     C47257   1.712  11.483  10.011  0.4472  0.5963  0.8523
  351MOL0     O47258   1.753  11.574   9.914 -0.1053  0.6028  0.0493
  351MOL0     C47259   1.650  11.614   9.823 -0.1817 -0.0812  0.3080
  351MOL0     C47260   1.642  11.772   9.795  0.4428 -0.3181 -0.7769
  351MOL0     C47261   1.620  11.859   9.924 -0.3306 -0.3735  0.3613
  351MOL0     C47262   1.630  12.005   9.887 -0.9701  0.6677  0.6204
  351MOL0     C47263   1.564  12.087   9.995 -0.0894 -0.3400 -1.0119
  351MOL0     C47264   1.583  12.242   9.959  0.7281  0.0745  0.5642
  351MOL0     C47265   1.510  12.327  10.065 -0.4499 -0.5856 -0.7686
  351MOL0     C47266   1.506  12.469  10.030 -0.4231 -0.2819 -0.3694
  351MOL0     N47267   1.639  12.529  10.019  0.3825  0.3669 -0.1162
  351MOL0     C47268   1.733  12.539  10.119 -0.7112 -0.8353 -0.3756
  351MOL0     C47269   1.823  12.628  10.071  0.3156  1.0020  0.1130
  351MOL0     C47270   1.937  12.690  10.140 -0.0770 -0.0554  0.8924
  351MOL0     C47271   2.062  12.664  10.069 -0.2877  0.0509  0.0602
  351MOL0     C47272   2.148  12.791  10.022  0.4276  0.1914  0.4392
  351MOL0     C47273   2.189  12.891  10.133  0.0083  0.2554  0.4485
  351MOL0     O47274   2.332  12.921  10.150  0.4069 -0.0989 -0.7685
  351MOL0     C47275   2.409  12.831  10.211  0.3692  0.3797 -0.6920
  351MOL0     C47276   2.544  12.856  10.203 -0.3102  0.2354  0.0678
  351MOL0     C47277   2.647  12.790  10.273 -0.1763  0.6099  0.4204
  351MOL0     C47278   2.785  12.818  10.225 -0.7213 -0.0167 -0.4117
  351MOL0     C47279   2.601  12.679  10.356 -0.3560  0.9640 -0.8404
  351MOL0     C47280   2.685  12.599  10.458  0.3367 -0.0267  0.0964
  351MOL0     O47281   2.632  12.474  10.495 -1.1681 -0.5891 -0.9616
  351MOL0     C47282   2.728  12.371  10.496 -0.0408 -0.6992 -1.2544
  351MOL0     C47283   2.781  12.344  10.623  0.2595  0.3817 -0.1363
  351MOL0     C47284   2.889  12.241  10.626  0.1567 -0.1609  0.2924
  351MOL0     C47285   2.950  12.191  10.510  0.2849 -0.7272  0.3965
  351MOL0     O47286   3.060  12.108  10.530 -0.2697 -0.1031 -0.2638
  351MOL0     C47287   3.128  12.064  10.411  0.0487 -0.4710 -0.3693
  351MOL0     C47288   3.192  11.928  10.438  0.0736  0.1211  0.6841
  351MOL0     C47289   3.110  11.808  10.469 -0.4232 -0.0575 -0.4817
  351MOL0     C47290   3.195  11.703  10.549 -0.6278 -1.0846  0.7246
  351MOL0     C47291   3.103  11.595  10.613 -1.0254 -0.2646 -0.5387
  351MOL0     C47292   3.172  11.517  10.716 -0.1450  0.2575  0.6531
  351MOL0     C47293   3.274  11.413  10.657  0.1056  0.1233  0.7347
  351MOL0     C47294   3.340  11.371  10.787 -0.0606 -0.3240  0.1975
  351MOL0    Cl47295   3.508  11.316  10.745  0.5648 -0.0188 -0.0666
  351MOL0     C47296   2.905  12.246  10.387  0.2972  1.3001 -0.5104
  351MOL0     C47297   2.796  12.333  10.383  0.6651 -0.2501 -0.7309
  351MOL0     O47298   2.782  12.651  10.503  0.5337  0.8132 -0.1293
  351MOL0     C47299   2.463  12.644  10.351 -0.5226  0.4496  0.8349
  351MOL0     C47300   2.365  12.717  10.276 -0.5797  0.6469 -0.0003
  351MOL0     N47301   1.798  12.651   9.941  0.4667  0.2198  0.0469
  351MOL0     N47302   1.681  12.599   9.912 -0.4732  0.4553 -0.2148
  351MOL0     C47303   1.619  11.376   9.980 -0.3916 -1.1424 -0.0741
  351MOL0     C47304   1.577  11.291  10.081 -0.1876 -0.6505  0.5364
  351MOL0     C47305   1.383  11.193  10.475  0.1307 -0.5509  0.2492
  351MOL0     C47306   1.275  11.245  10.553  0.0213 -0.1471  0.7898
  351MOL0     C47307   1.207  11.159  10.634 -0.5731  0.3348  0.8917
  351MOL0     C47308   1.231  11.023  10.631  0.8141  0.2869  0.8370
  351MOL0     O47309   1.142  10.943  10.704  0.0893  0.3738  0.4029
  351MOL0     C47310   1.155  10.799  10.702 -0.4123  0.2916  0.1680
  351MOL0     C47311   1.044  10.755  10.786 -0.0299 -0.0295  0.5659
  351MOL0     C47312   0.976  10.629  10.729 -0.4128  0.1536 -0.9309
  351MOL0     C47313   0.902  10.662  10.598 -0.0171 -0.5154  0.6434
  351MOL0     C47314   0.836  10.548  10.546 -0.3588 -0.6137 -0.6337
  351MOL0     C47315   0.784  10.445  10.510  0.2014 -0.8231 -0.4419
  351MOL0     C47316   1.333  10.971  10.549  0.0089 -0.1872  0.3667
  351MOL0     C47317   1.422  11.060  10.485  0.4863 -0.3794 -0.0053
  351MOL0     H47318   1.731  11.441  10.343  1.2999  2.3890  0.4194
  351MOL0     H47319   1.817  11.590  10.149  3.5971 -2.0150 -2.2275
  351MOL0     H47320   1.666  11.554   9.733 -1.4995  0.1195 -0.0883
  351MOL0     H47321   1.551  11.586   9.861 -1.0512  1.4761 -0.6680
  351MOL0     H47322   1.739  11.796   9.750  0.1717  0.6169 -0.8912
  351MOL0     H47323   1.562  11.789   9.722 -0.5437 -1.2693  0.0581
  351MOL0     H47324   1.524  11.818   9.957 -0.9116 -1.2728 -2.2165
  351MOL0     H47325   1.698  11.826   9.994 -0.2005 -0.9149 -0.0296
  351MOL0     H47326   1.734  12.037   9.893 -0.5887 -0.7608  2.3133
  351MOL0     H47327   1.585  12.023   9.789 -0.5819 -0.0142  0.3123
  351MOL0     H47328   1.457  12.063   9.996 -0.0933 -0.2914  0.1964
  351MOL0     H47329   1.601  12.064  10.095 -0.1821 -1.3389 -1.1944
  351MOL0     H47330   1.689  12.266   9.955  0.5723  0.9045  1.3026
  351MOL0     H47331   1.536  12.262   9.862 -0.0640 -3.2012  0.1289
  351MOL0     H47332   1.411  12.284  10.076 -0.1366 -0.9964  0.6094
  351MOL0     H47333   1.556  12.320  10.164  2.7149  0.2271 -2.0491
  351MOL0     H47334   1.452  12.524  10.108  0.0520  0.8961 -0.8444
  351MOL0     H47335   1.460  12.468   9.931  1.9809 -4.3124 -1.6664
  351MOL0     H47336   1.722  12.501  10.220  2.9706 -1.6448 -0.1695
  351MOL0     H47337   1.924  12.798  10.133 -1.9801 -0.3496 -1.0681
  351MOL0     H47338   1.937  12.655  10.244 -0.9313 -0.2035  0.8443
  351MOL0     H47339   2.044  12.600   9.982 -1.7977 -0.9137  1.0486
  351MOL0     H47340   2.131  12.605  10.129  2.1358  0.8848 -1.7579
  351MOL0     H47341   2.103  12.843   9.937  2.7724  0.3673 -0.7886
  351MOL0     H47342   2.245  12.751   9.987  0.6651  0.0213  1.2660
  351MOL0     H47343   2.146  12.858  10.228 -0.9162 -1.7189 -0.5938
  351MOL0     H47344   2.141  12.985  10.109  1.7559  1.8133  2.5570
  351MOL0     H47345   2.575  12.941  10.144 -3.1746  1.5323  0.3014
  351MOL0     H47346   2.854  12.750  10.276  1.2364  1.4685 -0.9710
  351MOL0     H47347   2.793  12.790  10.120 -2.9099 -0.6418 -0.4698
  351MOL0     H47348   2.811  12.922  10.247 -0.8722  0.7785 -3.5522
  351MOL0     H47349   2.746  12.394  10.713 -0.0123  0.4858 -0.3001
  351MOL0     H47350   2.914  12.212  10.727  1.2989 -0.1658  0.0184
  351MOL0     H47351   3.068  12.053  10.321 -0.0384 -0.9243 -0.2605
  351MOL0     H47352   3.207  12.133  10.382 -2.5942  3.0469  0.2184
  351MOL0     H47353   3.242  11.896  10.346 -0.8495 -0.8068  0.4913
  351MOL0     H47354   3.268  11.933  10.516  1.7202 -0.3074 -0.8146
  351MOL0     H47355   3.057  11.766  10.383 -3.7561 -0.3548  1.5264
  351MOL0     H47356   3.035  11.840  10.542 -2.5047  1.0847 -2.9438
  351MOL0     H47357   3.277  11.666  10.487 -0.8915 -1.2773  0.4835
  351MOL0     H47358   3.252  11.746  10.631  1.4593 -0.4815 -0.9688
  351MOL0     H47359   3.059  11.539  10.529 -0.7782 -1.9344  0.3995
  351MOL0     H47360   3.033  11.650  10.676  3.1634  2.5067  2.2119
  351MOL0     H47361   3.219  11.603  10.765  0.9007  2.8065 -4.1772
  351MOL0     H47362   3.112  11.461  10.788 -1.1132 -0.6525 -0.8132
  351MOL0     H47363   3.341  11.457  10.583  0.0971  1.0884  1.2858
  351MOL0     H47364   3.223  11.326  10.615 -0.5353  0.5243  0.6613
  351MOL0     H47365   3.274  11.307  10.845 -0.0563 -0.3062  0.2220
  351MOL0     H47366   3.360  11.462  10.844 -1.4500  0.1284  0.0074
  351MOL0     H47367   2.963  12.232  10.296 -2.6081 -1.6733 -2.0941
  351MOL0     H47368   2.760  12.377  10.291 -0.9068  0.7159  0.2892
  351MOL0     H47369   2.432  12.558  10.410 -2.8942 -0.3221 -1.3694
  351MOL0     H47370   2.258  12.703  10.286 -0.1831 -0.9269  3.2462
  351MOL0     H47371   1.578  11.370   9.879 -2.8574 -0.0217  0.7691
  351MOL0     H47372   1.511  11.208  10.059  1.0149 -1.5079  0.1159
  351MOL0     H47373   1.236  11.347  10.547 -0.4785 -0.3355  0.7810
  351MOL0     H47374   1.129  11.209  10.692 -0.5511 -1.4626  2.5873
  351MOL0     H47375   1.150  10.763  10.599 -0.8923 -1.8159  0.8792
  351MOL0     H47376   1.254  10.762  10.730 -1.6091 -1.9913  1.7068
  351MOL0     H47377   0.962  10.828  10.781 -1.2371 -1.1106  2.9293
  351MOL0     H47378   1.079  10.745  10.889  2.5559 -0.7152 -0.3046
  351MOL0     H47379   0.907  10.586  10.802  1.4330 -2.1930 -0.4685
  351MOL0     H47380   1.048  10.550  10.711  0.8318  0.8889  0.6492
  351MOL0     H47381   0.971  10.709  10.528 -1.3160  2.3901  1.1543
  351MOL0     H47382   0.834  10.748  10.602  1.6527  1.0279 -1.6994
  351MOL0     H47383   0.722  10.360  10.491  0.5847 -0.9872 -0.9821
  351MOL0     H47384   1.365  10.868  10.560  2.3422  0.3159 -1.0002
  351MOL0     H47385   1.512  11.014  10.444  0.6323  0.1097 -0.2402
  352MOL0     O47386   4.283   2.722  10.325 -0.9302  0.3593 -0.0867
  352MOL0     C47387   4.169   2.737  10.344  0.0868  0.8582  0.2037
  352MOL0     O47388   4.120   2.803  10.449  0.2855 -0.2800  0.4582
  352MOL0     C47389   4.198   2.875  10.541  0.3711  0.1558 -0.1870
  352MOL0     C47390   4.295   2.970  10.517 -0.2702  0.9342 -0.5104
  352MOL0     C47391   4.356   3.031  10.624 -0.6042 -0.5954  0.8957
  352MOL0     C47392   4.326   2.992  10.758 -0.7809 -0.3610  0.6587
  352MOL0     O47393   4.387   3.039  10.873 -0.6551 -0.2806  0.3466
  352MOL0     C47394   4.519   3.097  10.854 -0.0187 -0.5742 -0.6833
  352MOL0     C47395   4.622   2.992  10.806  0.6114 -0.0412 -0.3413
  352MOL0     C47396   4.767   3.044  10.824  0.1798  0.0797  0.3329
  352MOL0     C47397   4.842   2.961  10.933  0.3162 -0.5601  0.8744
  352MOL0     C47398   4.992   2.974  10.892 -0.4411 -0.1475  0.7374
  352MOL0     C47399   5.052   3.107  10.931  0.5590 -1.1075  0.1669
  352MOL0     C47400   5.191   3.131  10.891  0.6539  0.1909 -0.1630
  352MOL0     C47401   5.284   3.026  10.952  0.2350  0.5340  0.3825
  352MOL0     N47402   5.425   3.027  10.893 -1.2939 -0.1135 -0.1041
  352MOL0     C47403   5.492   3.130  10.835  1.1677  0.2880  0.0408
  352MOL0     C47404   5.622   3.092  10.805  0.0472  0.2152  0.0764
  352MOL0     C47405   5.731   3.174  10.743  0.3455 -0.7438  0.2437
  352MOL0     C47406   5.809   3.248  10.851 -0.2235 -0.8945 -1.1301
  352MOL0     C47407   5.807   3.397  10.801  0.1756 -0.5726  1.0458
  352MOL0     C47408   5.896   3.497  10.882  0.0883 -0.2606 -0.9674
  352MOL0     O47409   5.906   3.620  10.814  0.0637 -0.1996  0.7408
  352MOL0     C47410   5.937   3.736  10.882 -0.5687  0.2628  0.1864
  352MOL0     C47411   5.942   3.857  10.808  0.1708  0.1286  0.5006
  352MOL0     C47412   5.945   3.980  10.869 -1.1724  0.0196  0.0898
  352MOL0     C47413   5.964   4.096  10.786  0.3149  0.4039 -0.9838
  352MOL0     C47414   5.951   3.988  11.008  0.8627 -0.1515  0.1228
  352MOL0     C47415   5.928   4.116  11.085 -0.6097 -0.1279 -0.0287
  352MOL0     O47416   5.951   4.120  11.218 -0.7752  0.0602 -0.0992
  352MOL0     C47417   5.921   4.243  11.277  1.1375  0.7205 -0.3593
  352MOL0     C47418   5.987   4.363  11.258  1.1100 -0.3730 -0.1465
  352MOL0     C47419   5.942   4.479  11.311 -1.0594  0.0658 -0.6356
  352MOL0     C47420   5.854   4.476  11.413  0.4540  0.1987 -0.6746
  352MOL0     O47421   5.866   4.582  11.498  0.8946  0.0730 -0.4677
  352MOL0     C47422   5.751   4.630  11.572 -0.2375  0.3300  0.0025
  352MOL0     C47423   5.650   4.703  11.487  0.7934 -0.1287 -0.0038
  352MOL0     C47424   5.704   4.783  11.367 -0.1573 -0.3225  0.2022
  352MOL0     C47425   5.780   4.902  11.406  0.6270  0.2352  0.1347
  352MOL0     C47426   5.804   5.002  11.285 -0.6947  0.1027  0.0242
  352MOL0     C47427   5.923   5.099  11.312 -0.7938 -0.3647 -0.3208
  352MOL0     C47428   5.904   5.195  11.429 -0.3252  0.4002  0.7703
  352MOL0     C47429   6.014   5.301  11.446  0.4471  0.0398 -0.6365
  352MOL0    Cl47430   5.994   5.422  11.315  0.2463 -0.1319  0.0211
  352MOL0     C47431   5.773   4.362  11.427 -0.7470 -0.0179 -0.5108
  352MOL0     C47432   5.807   4.240  11.368  0.4343 -0.7038  0.5300
  352MOL0     O47433   5.863   4.202  11.024  0.1390  0.8483  0.4279
  352MOL0     C47434   5.981   3.866  11.083 -0.2119 -0.7595 -0.1140
  352MOL0     C47435   5.968   3.743  11.020  0.7162  0.4619  0.3324
  352MOL0     N47436   5.627   2.961  10.846 -0.9978 -0.7680  0.1109
  352MOL0     N47437   5.507   2.919  10.890  0.4037 -0.9234  0.4442
  352MOL0     C47438   4.216   2.905  10.777  0.1123 -1.0356  0.4903
  352MOL0     C47439   4.157   2.842  10.666 -0.3781 -0.1686  0.3842
  352MOL0     C47440   4.074   2.705  10.242  0.5342 -0.6215  0.5042
  352MOL0     C47441   4.118   2.654  10.122 -0.1895 -0.2240 -0.0410
  352MOL0     C47442   4.027   2.620  10.016 -0.4637  1.0382  0.7745
  352MOL0     C47443   3.892   2.644  10.035  0.0063  0.3905 -0.0763
  352MOL0     O47444   3.789   2.607   9.952  1.0791  0.3378 -0.5908
  352MOL0     C47445   3.835   2.558   9.826  0.1208  1.4194 -0.3865
  352MOL0     C47446   3.727   2.529   9.727 -0.1230 -0.5137 -0.5796
  352MOL0     C47447   3.648   2.398   9.789  0.2895  0.0780 -0.1422
  352MOL0     C47448   3.579   2.316   9.677  0.7116  0.7142  0.0468
  352MOL0     C47449   3.679   2.272   9.577 -0.1492 -0.0896 -0.5395
  352MOL0     C47450   3.766   2.239   9.500  0.4013  0.4536 -0.2994
  352MOL0     C47451   3.847   2.712  10.155  0.3261  0.6258  1.3625
  352MOL0     C47452   3.942   2.743  10.250 -0.3679  0.0250  0.2097
  352MOL0     H47453   4.318   2.994  10.414  2.9538  0.7867  0.0743
  352MOL0     H47454   4.429   3.098  10.580  0.5775 -2.1242  0.4255
  352MOL0     H47455   4.521   3.176  10.778  3.1894  0.5098  0.3789
  352MOL0     H47456   4.541   3.148  10.948 -4.3186 -0.8593  0.6977
  352MOL0     H47457   4.611   2.893  10.851  2.0571  0.2470  0.7278
  352MOL0     H47458   4.607   2.984  10.698  1.3130  0.4457 -0.4819
  352MOL0     H47459   4.814   3.029  10.726 -2.1903 -0.5805 -0.8093
  352MOL0     H47460   4.769   3.152  10.841 -3.9828  0.8726 -2.5330
  352MOL0     H47461   4.837   3.007  11.032 -0.5949  1.2605  0.0386
  352MOL0     H47462   4.811   2.856  10.935 -1.3589 -0.0988  1.0809
  352MOL0     H47463   5.040   2.893  10.948  0.1997 -0.7995 -0.7038
  352MOL0     H47464   5.009   2.947  10.787  1.4468 -0.5802  1.1101
  352MOL0     H47465   4.995   3.191  10.892  2.0450 -0.6545 -1.1247
  352MOL0     H47466   5.043   3.132  11.037 -2.7744  2.6364 -0.7530
  352MOL0     H47467   5.193   3.136  10.781  0.3536  0.5770 -0.1553
  352MOL0     H47468   5.203   3.233  10.929 -0.3343  0.0987  0.4075
  352MOL0     H47469   5.252   2.923  10.931 -1.0732  0.7976  0.9771
  352MOL0     H47470   5.286   3.033  11.061  3.0068  0.1588  0.4258
  352MOL0     H47471   5.459   3.231  10.811 -0.7165 -0.9605 -3.2073
  352MOL0     H47472   5.800   3.108  10.689  2.8710  1.3475  0.7450
  352MOL0     H47473   5.691   3.239  10.665  0.9543  2.0433  2.1242
  352MOL0     H47474   5.914   3.219  10.866  0.5818  0.8198 -2.9918
  352MOL0     H47475   5.761   3.239  10.949  1.0774  0.7274 -0.2832
  352MOL0     H47476   5.706   3.441  10.799  0.3929  0.3137 -3.9099
  352MOL0     H47477   5.850   3.390  10.701 -2.0789  2.1662 -0.2668
  352MOL0     H47478   5.990   3.453  10.916  0.4384  0.4261 -1.0271
  352MOL0     H47479   5.849   3.517  10.979  5.0354  1.6538  1.3795
  352MOL0     H47480   5.920   3.850  10.701 -0.9143  0.9493  0.6550
  352MOL0     H47481   6.035   4.167  10.829  1.1852 -0.3364 -1.1617
  352MOL0     H47482   5.987   4.073  10.682  0.9785  0.0658 -0.7645
  352MOL0     H47483   5.871   4.154  10.786  0.8487  1.2944 -0.2589
  352MOL0     H47484   6.065   4.360  11.183 -1.3221  3.7629 -3.2877
  352MOL0     H47485   5.994   4.573  11.294 -0.3258 -0.6595 -2.6865
  352MOL0     H47486   5.702   4.557  11.637 -3.5080  3.0032  0.8587
  352MOL0     H47487   5.796   4.700  11.643  1.3604  1.0689 -1.6514
  352MOL0     H47488   5.569   4.634  11.460  2.3740 -1.6090 -1.1662
  352MOL0     H47489   5.597   4.772  11.554  0.0130 -0.6552 -0.0662
  352MOL0     H47490   5.620   4.814  11.303  1.5166 -1.9551 -3.0199
  352MOL0     H47491   5.757   4.729  11.288  2.4199  1.5780  0.5003
  352MOL0     H47492   5.725   4.943  11.492  0.2289 -1.1474  0.5581
  352MOL0     H47493   5.876   4.862  11.438 -0.5111 -4.2459 -1.4124
  352MOL0     H47494   5.714   5.054  11.251  1.1695  2.5684 -1.4896
  352MOL0     H47495   5.842   4.941  11.203  1.1449  1.1339  0.0708
  352MOL0     H47496   6.016   5.045  11.336 -0.6789  0.3754  1.0023
  352MOL0     H47497   5.937   5.158  11.221 -0.9546  0.3897  0.1366
  352MOL0     H47498   5.912   5.133  11.518 -0.2417 -1.0950 -0.2381
  352MOL0     H47499   5.801   5.232  11.426 -1.0552 -1.3653 -3.1947
  352MOL0     H47500   6.118   5.266  11.442  0.8380  1.0542  0.2668
  352MOL0     H47501   6.001   5.337  11.549 -1.2381 -0.0401 -0.8032
  352MOL0     H47502   5.690   4.369  11.497  0.3618  0.0777  0.8552
  352MOL0     H47503   5.745   4.153  11.384  0.2699 -0.6274  0.3128
  352MOL0     H47504   5.994   3.870  11.191  2.8660  1.0604 -0.4381
  352MOL0     H47505   5.988   3.652  11.075 -1.0037 -1.7116 -2.3975
  352MOL0     H47506   4.191   2.860  10.872 -1.3838 -0.2701  0.5056
  352MOL0     H47507   4.085   2.762  10.678  0.1758 -1.2049 -2.3869
  352MOL0     H47508   4.221   2.619  10.116 -0.6623 -1.9486  1.0565
  352MOL0     H47509   4.064   2.565   9.931 -1.1281  0.1774  1.0352
  352MOL0     H47510   3.902   2.635   9.787 -3.3766  4.1209 -1.6327
  352MOL0     H47511   3.890   2.466   9.847 -1.3026  0.7825  0.7757
  352MOL0     H47512   3.771   2.508   9.629  1.2183  1.2893 -0.4399
  352MOL0     H47513   3.665   2.619   9.719 -1.0675 -0.5717  3.5052
  352MOL0     H47514   3.573   2.450   9.849  3.5081  4.5097  0.4753
  352MOL0     H47515   3.712   2.334   9.849  3.1538  3.3628  0.5993
  352MOL0     H47516   3.502   2.376   9.628 -2.6752 -3.4089 -0.3140
  352MOL0     H47517   3.523   2.233   9.722 -1.0705  1.8108 -0.0531
  352MOL0     H47518   3.836   2.216   9.423  0.5140  0.2604 -0.1405
  352MOL0     H47519   3.746   2.728  10.192 -0.8669 -2.6108 -0.1525
  352MOL0     H47520   3.906   2.783  10.345 -0.8513 -1.8378  0.8498
  353MOL0     O47521   9.381   4.928   8.355 -0.2140  0.2598  0.3985
  353MOL0     C47522   9.425   5.038   8.384  0.6370 -0.0449  0.4931
  353MOL0     O47523   9.420   5.150   8.296 -0.1139 -0.0347 -0.0210
  353MOL0     C47524   9.371   5.133   8.171  0.5995 -0.0435  0.1417
  353MOL0     C47525   9.445   5.185   8.057  0.8310 -0.0273 -0.6075
  353MOL0     C47526   9.392   5.170   7.929 -0.5937  0.3092 -0.4510
  353MOL0     C47527   9.268   5.098   7.909 -0.0391  0.6245 -0.6886
  353MOL0     O47528   9.219   5.071   7.785 -0.1154  0.3370  0.1977
  353MOL0     C47529   9.303   4.997   7.688  0.3297 -0.2767 -0.3161
  353MOL0     C47530   9.300   4.844   7.713  1.6795 -0.5407 -0.6843
  353MOL0     C47531   9.428   4.775   7.656 -0.3073  0.5534 -0.8898
  353MOL0     C47532   9.480   4.820   7.511 -0.0206 -0.2653 -0.2489
  353MOL0     C47533   9.599   4.741   7.463  0.2183  0.7653 -0.1859
  353MOL0     C47534   9.559   4.589   7.437  0.2437 -0.4216  0.6289
  353MOL0     C47535   9.655   4.514   7.330 -0.1820 -0.2418  0.7524
  353MOL0     C47536   9.748   4.423   7.410 -0.6395 -0.3529  0.0589
  353MOL0     N47537   9.849   4.499   7.490  0.0531  0.2081 -0.0868
  353MOL0     C47538   9.974   4.538   7.449  0.1595 -0.4472 -0.1734
  353MOL0     C47539  10.040   4.577   7.561  0.4269 -0.0936 -0.0874
  353MOL0     C47540  10.180   4.610   7.575 -0.0162  0.2635 -0.4760
  353MOL0     C47541  10.209   4.752   7.512 -0.4070 -0.7389  0.0082
  353MOL0     C47542  10.163   4.853   7.612 -0.0432 -0.1270  0.4357
  353MOL0     C47543  10.205   4.990   7.568 -0.5080  0.1062  0.8255
  353MOL0     O47544  10.149   5.033   7.445  0.2829  0.2482  0.0508
  353MOL0     C47545  10.021   5.082   7.440  0.7912  0.1505 -0.1416
  353MOL0     C47546   9.925   5.087   7.548  0.7033 -0.7538  0.3615
  353MOL0     C47547   9.805   5.148   7.533  0.4588  0.8178 -1.1799
  353MOL0     C47548   9.723   5.147   7.670 -0.5929 -0.6520  0.1835
  353MOL0     C47549   9.756   5.193   7.411  0.0911  0.8261  0.3180
  353MOL0     C47550   9.618   5.247   7.386 -0.0781 -0.2637  0.6285
  353MOL0     O47551   9.563   5.319   7.492  0.6131 -0.3082 -0.1942
  353MOL0     C47552   9.439   5.373   7.486  0.3664 -0.0004 -0.4980
  353MOL0     C47553   9.368   5.356   7.608  0.4605 -0.6483  0.6872
  353MOL0     C47554   9.240   5.414   7.619 -0.2908 -0.2610 -1.3722
  353MOL0     C47555   9.192   5.489   7.510 -0.0217 -0.3473  0.1050
  353MOL0     O47556   9.075   5.562   7.508  0.2532 -0.6401  0.2850
  353MOL0     C47557   8.959   5.501   7.562  0.0603  0.1734 -0.2654
  353MOL0     C47558   8.863   5.461   7.451  0.4950 -0.4760  0.2514
  353MOL0     C47559   8.877   5.312   7.417 -0.5037  0.8746  0.7763
  353MOL0     C47560   8.798   5.258   7.298 -0.3966  0.3095  0.6987
  353MOL0     C47561   8.705   5.135   7.320 -0.1392  0.7629  0.0006
  353MOL0     C47562   8.785   5.001   7.324  0.8243  0.9908  0.8662
  353MOL0     C47563   8.731   4.885   7.412 -0.4912 -0.4628 -0.4907
  353MOL0     C47564   8.746   4.901   7.564  0.2243 -1.0730  0.0597
  353MOL0    Cl47565   8.864   4.785   7.626 -0.4041  0.1111 -0.6230
  353MOL0     C47566   9.263   5.490   7.386  0.5266  1.0405  0.4984
  353MOL0     C47567   9.381   5.429   7.376 -0.6490  0.1981  0.2554
  353MOL0     O47568   9.569   5.232   7.282  0.1465 -0.6300  0.5447
  353MOL0     C47569   9.844   5.168   7.301  1.0134 -0.3880  0.4210
  353MOL0     C47570   9.970   5.115   7.312 -0.5599 -0.9685  0.4403
  353MOL0     N47571   9.951   4.552   7.669 -0.3074  0.2765  1.4757
  353MOL0     N47572   9.833   4.523   7.620 -0.0883 -0.1369 -0.0035
  353MOL0     C47573   9.202   5.044   8.021 -0.2794  0.4958 -0.3354
  353MOL0     C47574   9.247   5.058   8.151  0.1507 -1.0111  0.1056
  353MOL0     C47575   9.476   5.061   8.524 -0.2247 -0.6073  0.2681
  353MOL0     C47576   9.518   4.945   8.600 -0.4643 -0.0834 -0.8393
  353MOL0     C47577   9.571   4.967   8.727 -1.7303  0.0865  0.2287
  353MOL0     C47578   9.594   5.100   8.775  0.2682 -0.0458  0.3865
  353MOL0     O47579   9.662   5.132   8.884 -0.9892  0.5971 -0.0046
  353MOL0     C47580   9.684   5.043   8.991  0.2423 -0.0976  1.4580
  353MOL0     C47581   9.573   5.032   9.091 -0.6879  0.5305 -0.1319
  353MOL0     C47582   9.620   4.966   9.223 -0.9611  0.7115 -0.5763
  353MOL0     C47583   9.638   4.817   9.213 -0.2833  0.0964 -0.0536
  353MOL0     C47584   9.655   4.758   9.354  0.2108  0.1105 -0.4571
  353MOL0     C47585   9.658   4.705   9.465 -0.7953 -0.5281 -0.3417
  353MOL0     C47586   9.550   5.207   8.695 -0.3511  0.9677 -0.5342
  353MOL0     C47587   9.501   5.190   8.576  0.8917 -0.2291  0.2177
  353MOL0     H47588   9.539   5.238   8.066 -0.6447  2.7033 -0.1158
  353MOL0     H47589   9.453   5.186   7.841 -2.0838 -2.2952 -2.0829
  353MOL0     H47590   9.270   5.006   7.584 -0.3472  1.3800  0.0151
  353MOL0     H47591   9.410   5.020   7.681  0.0260  0.6204 -3.0052
  353MOL0     H47592   9.280   4.823   7.819  3.5031 -0.3760 -0.2663
  353MOL0     H47593   9.214   4.806   7.656 -0.1517 -3.2581  3.3930
  353MOL0     H47594   9.513   4.777   7.725 -0.3101  0.9800 -0.8968
  353MOL0     H47595   9.405   4.668   7.649 -0.8759  0.7659 -3.0304
  353MOL0     H47596   9.399   4.813   7.438 -0.3596 -0.7224  0.1601
  353MOL0     H47597   9.522   4.921   7.519 -0.4226  0.0953 -2.2852
  353MOL0     H47598   9.615   4.776   7.360 -1.4980 -0.0638 -0.7796
  353MOL0     H47599   9.693   4.743   7.519  1.0319 -0.1373 -1.4402
  353MOL0     H47600   9.547   4.545   7.536 -4.9689  0.5923  0.7508
  353MOL0     H47601   9.463   4.600   7.386 -0.5101 -2.2525  1.5784
  353MOL0     H47602   9.593   4.457   7.261 -2.9768  3.8264 -0.4705
  353MOL0     H47603   9.707   4.586   7.267 -0.6186  0.5630  1.2812
  353MOL0     H47604   9.799   4.358   7.338  0.7006  0.5492  0.1396
  353MOL0     H47605   9.692   4.352   7.471 -1.1824 -1.3137 -1.4975
  353MOL0     H47606  10.007   4.530   7.346 -0.1425  3.2103 -0.6899
  353MOL0     H47607  10.202   4.616   7.682  0.0779  1.3147 -0.5421
  353MOL0     H47608  10.238   4.527   7.536  0.7099 -0.5575  2.1543
  353MOL0     H47609  10.153   4.767   7.419 -0.9807  0.4757  0.5148
  353MOL0     H47610  10.315   4.776   7.501 -0.2811  0.1610  2.4367
  353MOL0     H47611  10.220   4.835   7.703  3.7303 -0.8011 -1.8235
  353MOL0     H47612  10.056   4.846   7.636  0.2030  1.9304  2.3937
  353MOL0     H47613  10.314   4.986   7.557 -0.7481 -1.3064 -1.9602
  353MOL0     H47614  10.196   5.061   7.650  3.1263  1.1497  0.5056
  353MOL0     H47615   9.963   5.064   7.647  0.7929 -0.6260  0.3576
  353MOL0     H47616   9.792   5.098   7.739  0.9175  0.3190 -0.5665
  353MOL0     H47617   9.713   5.253   7.698 -0.9688 -0.0291 -2.1050
  353MOL0     H47618   9.631   5.089   7.673 -1.4557  0.6745  2.6042
  353MOL0     H47619   9.422   5.294   7.679  3.7210  0.3920 -0.6814
  353MOL0     H47620   9.194   5.425   7.717  1.1008 -2.9461 -0.3088
  353MOL0     H47621   8.978   5.416   7.629  1.9346 -0.2171 -1.2275
  353MOL0     H47622   8.909   5.572   7.629  1.2471  0.3984  0.3998
  353MOL0     H47623   8.758   5.482   7.471  0.4501 -0.6141  0.1634
  353MOL0     H47624   8.888   5.518   7.361  1.2979 -1.0302  0.1068
  353MOL0     H47625   8.851   5.256   7.507  3.4016 -1.0671  0.8854
  353MOL0     H47626   8.980   5.278   7.406  0.2720  2.7068  1.8629
  353MOL0     H47627   8.726   5.333   7.264 -0.1243 -0.1637 -1.0240
  353MOL0     H47628   8.859   5.244   7.208 -0.0837  1.0739  0.7853
  353MOL0     H47629   8.639   5.116   7.235 -2.4282 -4.7002  2.5228
  353MOL0     H47630   8.649   5.153   7.412  0.9689  1.4235  0.5686
  353MOL0     H47631   8.775   4.970   7.219  1.8655 -1.4698  1.4305
  353MOL0     H47632   8.891   4.999   7.347  0.3962 -1.5627  3.1178
  353MOL0     H47633   8.786   4.797   7.376 -2.2208 -0.8424 -2.4329
  353MOL0     H47634   8.629   4.851   7.391  0.7737 -3.6889 -2.1904
  353MOL0     H47635   8.652   4.904   7.620  1.3799  0.4665  2.0971
  353MOL0     H47636   8.799   4.995   7.583  0.6933 -1.0377 -1.2954
  353MOL0     H47637   9.222   5.553   7.308  2.1892  1.1897 -0.3017
  353MOL0     H47638   9.438   5.444   7.284  3.3826 -1.0449  2.3192
  353MOL0     H47639   9.804   5.192   7.203 -1.4342 -1.2685  1.1354
  353MOL0     H47640  10.039   5.120   7.228 -1.1963  0.8922 -0.0001
  353MOL0     H47641   9.108   4.991   8.009 -0.2660  0.3638  0.1237
  353MOL0     H47642   9.187   5.027   8.236  2.1658 -1.1598  1.5200
  353MOL0     H47643   9.508   4.846   8.558  2.8517  0.1297 -2.5222
  353MOL0     H47644   9.607   4.876   8.773  1.8953 -0.2844 -2.8518
  353MOL0     H47645   9.702   4.945   8.947  2.0532  1.1719 -0.8628
  353MOL0     H47646   9.778   5.068   9.040 -0.0305 -0.3004  2.0949
  353MOL0     H47647   9.483   4.977   9.060 -0.0248  0.2487 -1.6274
  353MOL0     H47648   9.552   5.139   9.097  1.2755  0.9305  0.4938
  353MOL0     H47649   9.554   5.001   9.303  2.0528  3.6173  0.8932
  353MOL0     H47650   9.714   5.012   9.253 -1.7271 -0.9690  5.9823
  353MOL0     H47651   9.721   4.796   9.145  1.3717 -0.3609  2.0219
  353MOL0     H47652   9.556   4.762   9.165  0.4603 -2.2361  1.2049
  353MOL0     H47653   9.680   4.669   9.563  0.1929  2.7084  0.7650
  353MOL0     H47654   9.549   5.306   8.739 -1.5395  0.6709  0.1557
  353MOL0     H47655   9.458   5.277   8.527 -0.0454 -1.1996 -0.7446
  354MOL0     O47656  10.954  11.510  10.137 -0.2609 -0.8263  0.6981
  354MOL0     C47657  10.947  11.542  10.253  0.7727  0.1940 -0.6429
  354MOL0     O47658  10.827  11.562  10.323 -0.4132 -0.6098  0.1880
  354MOL0     C47659  10.723  11.590  10.240  0.1899 -0.0190  0.1590
  354MOL0     C47660  10.631  11.486  10.214 -0.4045  0.1423 -0.3291
  354MOL0     C47661  10.544  11.501  10.099 -0.2599  0.3419  0.6370
  354MOL0     C47662  10.535  11.616  10.026 -0.1734 -0.2517  0.6036
  354MOL0     O47663  10.467  11.625   9.914 -0.5290  0.2260  0.4848
  354MOL0     C47664  10.321  11.622   9.909  0.2223  0.6811  0.0281
  354MOL0     C47665  10.272  11.545   9.785 -0.2662 -0.3337  0.5239
  354MOL0     C47666  10.122  11.502   9.798 -0.7448  0.5317  0.0114
  354MOL0     C47667  10.075  11.381   9.718 -0.6743  0.1170 -0.2739
  354MOL0     C47668  10.072  11.427   9.577  0.7095 -0.2203  0.0586
  354MOL0     C47669  10.077  11.311   9.485  0.3451  0.4225 -0.2478
  354MOL0     C47670   9.972  11.315   9.371 -0.6282 -0.7634  0.4169
  354MOL0     C47671   9.998  11.231   9.257 -0.2115 -1.1491 -0.1332
  354MOL0     N47672   9.954  11.099   9.282 -0.6242 -0.1458 -0.5055
  354MOL0     C47673   9.821  11.062   9.259  0.1607 -0.3021 -0.0504
  354MOL0     C47674   9.810  10.941   9.328 -1.1712  0.1849 -0.4090
  354MOL0     C47675   9.692  10.846   9.328  0.4454  0.3988  0.5575
  354MOL0     C47676   9.681  10.761   9.201 -0.5608 -0.0926 -1.1676
  354MOL0     C47677   9.545  10.700   9.198 -0.1911 -0.1788  0.3797
  354MOL0     C47678   9.527  10.575   9.284 -0.5540 -0.3066 -0.4526
  354MOL0     O47679   9.551  10.604   9.419 -0.1505 -0.3969 -0.4583
  354MOL0     C47680   9.448  10.602   9.521 -0.7878 -0.6892  0.6919
  354MOL0     C47681   9.479  10.648   9.646  0.1400 -0.8794 -0.2421
  354MOL0     C47682   9.397  10.635   9.758 -0.1266 -0.1866  0.7319
  354MOL0     C47683   9.460  10.682   9.888 -0.0959  0.5123 -0.8767
  354MOL0     C47684   9.271  10.575   9.742 -0.3175 -1.1482  0.5543
  354MOL0     C47685   9.169  10.563   9.846  0.0876  0.2421  0.9788
  354MOL0     O47686   9.051  10.535   9.795  0.0396 -0.1432  0.2374
  354MOL0     C47687   8.943  10.539   9.879 -0.5572 -0.2766  0.5518
  354MOL0     C47688   8.919  10.457   9.984  0.2851 -0.5343  0.1231
  354MOL0     C47689   8.795  10.452  10.045 -0.7173  1.2543 -0.6554
  354MOL0     C47690   8.696  10.544  10.012  0.4924  0.0457  0.7086
  354MOL0     O47691   8.588  10.545  10.095 -0.1427 -0.1428 -0.2338
  354MOL0     C47692   8.529  10.669  10.134 -0.3240  0.2772  0.5990
  354MOL0     C47693   8.382  10.652  10.122  0.1023  0.3333  0.0311
  354MOL0     C47694   8.314  10.542  10.197 -0.4435 -0.8109  0.3987
  354MOL0     C47695   8.337  10.405  10.136  0.4146  0.5229 -0.0418
  354MOL0     C47696   8.230  10.302  10.145  0.4305  0.3299 -0.3843
  354MOL0     C47697   8.213  10.212  10.275 -0.4304 -0.2288 -1.3644
  354MOL0     C47698   8.326  10.121  10.306 -0.0414  0.4610  0.2223
  354MOL0     C47699   8.310  10.040  10.439  0.1356 -0.0529  0.1337
  354MOL0    Cl47700   8.463   9.966  10.485 -0.0427  0.1115  0.0890
  354MOL0     C47701   8.716  10.637   9.907  0.3819 -0.8790 -0.4697
  354MOL0     C47702   8.835  10.625   9.837 -0.3928 -0.5960 -0.8505
  354MOL0     O47703   9.185  10.591   9.960  0.0750 -0.2447 -0.0824
  354MOL0     C47704   9.237  10.522   9.616  0.0978 -0.8672 -0.0372
  354MOL0     C47705   9.330  10.527   9.510  0.4143 -0.3568  0.9650
  354MOL0     N47706   9.936  10.914   9.392  0.9928  0.5256 -0.1385
  354MOL0     N47707  10.013  11.015   9.371 -0.1302  0.1282 -0.0701
  354MOL0     C47708  10.622  11.715  10.062 -0.2370 -0.9324  0.5407
  354MOL0     C47709  10.713  11.713  10.172  0.1871 -0.6387 -1.0377
  354MOL0     C47710  11.063  11.546  10.341 -0.0350  0.8903 -0.3953
  354MOL0     C47711  11.055  11.613  10.462 -0.1218  0.1961 -0.2128
  354MOL0     C47712  11.164  11.604  10.551  0.0386 -0.0428 -0.2709
  354MOL0     C47713  11.292  11.552  10.507 -0.5549 -0.2435 -0.7323
  354MOL0     O47714  11.398  11.569  10.593 -0.1295 -1.0613 -0.2007
  354MOL0     C47715  11.530  11.542  10.544 -0.2111  0.0740  1.2535
  354MOL0     C47716  11.624  11.554  10.657 -0.5650 -0.0310  0.2478
  354MOL0     C47717  11.740  11.455  10.646  0.3436 -0.3711  0.3291
  354MOL0     C47718  11.841  11.475  10.767  0.0471 -0.4303 -0.4774
  354MOL0     C47719  11.922  11.364  10.781  0.3225  0.2645 -1.0784
  354MOL0     C47720  11.984  11.261  10.793  0.2487  0.5952 -0.9607
  354MOL0     C47721  11.303  11.502  10.382  1.1079  0.3561 -0.0427
  354MOL0     C47722  11.187  11.506  10.293 -0.6209 -0.0281 -1.0469
  354MOL0     H47723  10.648  11.394  10.269 -6.1922 -0.7972  0.4650
  354MOL0     H47724  10.479  11.420  10.067  2.0296  0.0479 -4.0274
  354MOL0     H47725  10.287  11.574  10.001  0.4261  1.3193  0.4422
  354MOL0     H47726  10.269  11.718   9.896  0.2855  0.4688 -2.2214
  354MOL0     H47727  10.278  11.601   9.692  0.1629 -0.0413  0.7295
  354MOL0     H47728  10.331  11.454   9.769  0.1198  0.2397 -1.5699
  354MOL0     H47729  10.105  11.490   9.905  0.3453 -0.2695  0.1166
  354MOL0     H47730  10.065  11.586   9.756 -0.1542 -0.1952 -2.4155
  354MOL0     H47731  10.137  11.292   9.737 -0.5376 -0.4576 -3.0550
  354MOL0     H47732   9.975  11.347   9.748 -0.4437  1.6628  2.6521
  354MOL0     H47733   9.978  11.482   9.563 -0.9702 -3.3069 -2.0019
  354MOL0     H47734  10.148  11.502   9.555 -0.2566  1.0930  1.0318
  354MOL0     H47735  10.184  11.303   9.460  1.2019 -0.3037  3.2009
  354MOL0     H47736  10.064  11.218   9.542 -1.4676  0.4804 -0.4950
  354MOL0     H47737   9.873  11.300   9.415 -1.4632  1.7765 -0.4125
  354MOL0     H47738   9.976  11.417   9.331 -2.1250 -0.5667  0.7203
  354MOL0     H47739  10.104  11.241   9.232  0.4513 -0.3454  2.6699
  354MOL0     H47740   9.948  11.269   9.167 -2.3868  0.2493  1.5324
  354MOL0     H47741   9.741  11.115   9.208  0.4558  0.1470 -0.0444
  354MOL0     H47742   9.709  10.769   9.404 -0.3781 -0.9604 -0.5571
  354MOL0     H47743   9.603  10.902   9.358 -0.9325 -1.9202  1.1280
  354MOL0     H47744   9.755  10.682   9.212 -1.5729 -1.3546 -2.8592
  354MOL0     H47745   9.703  10.820   9.112  0.7070 -0.4767 -1.1228
  354MOL0     H47746   9.516  10.677   9.094 -2.0566 -0.9038  1.0085
  354MOL0     H47747   9.469  10.768   9.239 -0.2823  0.0265 -0.1139
  354MOL0     H47748   9.592  10.492   9.255  1.9290  1.4070 -0.1812
  354MOL0     H47749   9.421  10.553   9.271 -1.0257 -0.1767  2.4231
  354MOL0     H47750   9.576  10.697   9.654 -0.3383 -0.2100  2.3583
  354MOL0     H47751   9.382  10.717   9.956 -0.0053 -0.9398  0.0096
  354MOL0     H47752   9.502  10.590   9.927 -0.6153  0.0975 -1.2785
  354MOL0     H47753   9.540  10.756   9.877  0.0545  0.6446  0.8756
  354MOL0     H47754   8.995  10.394  10.029 -0.8740 -0.7441  1.9270
  354MOL0     H47755   8.781  10.388  10.131  0.3885  1.9857  0.0972
  354MOL0     H47756   8.561  10.683  10.238 -1.7172 -2.3585  1.4629
  354MOL0     H47757   8.565  10.755  10.076  0.5475 -0.3857  0.1369
  354MOL0     H47758   8.324  10.741  10.147  0.1401 -0.4370  3.1937
  354MOL0     H47759   8.373  10.636  10.014  2.3567 -1.0269 -0.0225
  354MOL0     H47760   8.207  10.560  10.188 -0.1613  0.4258 -1.0359
  354MOL0     H47761   8.340  10.544  10.303  1.1610 -1.3334  0.0418
  354MOL0     H47762   8.363  10.426  10.032 -0.5930  2.6654  0.0848
  354MOL0     H47763   8.430  10.369  10.182 -0.2911 -0.9239  0.3083
  354MOL0     H47764   8.241  10.232  10.062 -1.2445 -1.0448  0.5081
  354MOL0     H47765   8.134  10.351  10.127 -0.1257 -0.5565  0.0801
  354MOL0     H47766   8.182  10.264  10.365 -0.3471 -1.3151 -0.6843
  354MOL0     H47767   8.132  10.143  10.251  0.5455 -1.1737 -2.0507
  354MOL0     H47768   8.406  10.194  10.320 -1.0746  1.3426  1.9007
  354MOL0     H47769   8.344  10.066  10.213 -0.5632  0.2174  0.2614
  354MOL0     H47770   8.230   9.966  10.423 -2.0886  2.3813 -0.8065
  354MOL0     H47771   8.280  10.108  10.519  0.0211 -0.5632  0.5273
  354MOL0     H47772   8.639  10.710   9.882  0.8096 -0.1897  0.1861
  354MOL0     H47773   8.862  10.704   9.769 -1.0333  4.0073  3.6075
  354MOL0     H47774   9.147  10.465   9.595 -0.9992  0.7863  0.0184
  354MOL0     H47775   9.311  10.467   9.422  1.2634  0.9124 -0.1317
  354MOL0     H47776  10.630  11.797   9.991  1.2471 -2.3434 -1.0207
  354MOL0     H47777  10.790  11.789  10.183 -1.1925  0.5371  0.9042
  354MOL0     H47778  10.965  11.653  10.509  1.2137  3.4632 -0.1645
  354MOL0     H47779  11.152  11.647  10.650 -1.2302  1.8983 -1.1895
  354MOL0     H47780  11.534  11.441  10.502  2.2341  1.0112 -1.0399
  354MOL0     H47781  11.562  11.611  10.466  0.8597 -0.2686  1.3735
  354MOL0     H47782  11.566  11.518  10.743 -1.0561 -4.1499 -1.5356
  354MOL0     H47783  11.659  11.656  10.673 -1.1493 -0.0389  1.7275
  354MOL0     H47784  11.800  11.472  10.555  1.8891 -3.0059  0.7354
  354MOL0     H47785  11.706  11.352  10.633 -0.7751  0.0593 -0.3312
  354MOL0     H47786  11.791  11.478  10.865 -1.1432 -3.9368 -0.8280
  354MOL0     H47787  11.902  11.563  10.746  1.4826 -0.6767  2.1946
  354MOL0     H47788  12.043  11.177  10.825  1.7300  2.0273  0.2698
  354MOL0     H47789  11.388  11.446  10.344  0.4712 -2.2989  2.1429
  354MOL0     H47790  11.177  11.464  10.193  0.5649  0.4831 -1.3896
  355MOL0     O47791  11.316   5.674   6.615 -0.2725 -0.8795  0.7588
  355MOL0     C47792  11.405   5.642   6.691 -0.1283  0.3532  0.4753
  355MOL0     O47793  11.394   5.555   6.797 -0.0619 -0.9090 -0.6390
  355MOL0     C47794  11.267   5.507   6.802  0.5068  0.5460  0.9936
  355MOL0     C47795  11.170   5.557   6.888  0.4877 -0.5357 -0.6024
  355MOL0     C47796  11.043   5.504   6.897 -0.0751  0.4333  0.0556
  355MOL0     C47797  11.010   5.387   6.829 -0.7023  1.1061  0.7670
  355MOL0     O47798  10.881   5.329   6.844  0.2915 -0.3388  0.1502
  355MOL0     C47799  10.836   5.203   6.786  0.2003 -0.7025  0.9848
  355MOL0     C47800  10.705   5.162   6.852 -0.3041 -0.2717  0.0806
  355MOL0     C47801  10.705   5.157   7.003 -0.1381  0.3705 -0.1360
  355MOL0     C47802  10.565   5.143   7.065 -0.0749 -0.2182  0.3084
  355MOL0     C47803  10.572   5.161   7.214 -0.3506  0.3683  0.6863
  355MOL0     C47804  10.432   5.162   7.288  0.2511  0.2009  0.8435
  355MOL0     C47805  10.350   5.284   7.280  0.7311 -0.1815  0.8867
  355MOL0     C47806  10.405   5.402   7.353  0.1335 -0.2752 -0.6748
  355MOL0     N47807  10.384   5.396   7.499  0.2006  0.2023  0.3951
  355MOL0     C47808  10.265   5.400   7.550 -0.6275  0.0218 -0.3686
  355MOL0     C47809  10.284   5.400   7.686  0.0028  0.2905  0.7691
  355MOL0     C47810  10.187   5.426   7.786 -0.6096  0.2896 -0.7131
  355MOL0     C47811  10.157   5.575   7.817  0.9218 -0.0974  0.4974
  355MOL0     C47812  10.043   5.597   7.917  0.1138 -0.2773 -0.0061
  355MOL0     C47813   9.919   5.673   7.865 -0.0279  0.3777 -0.7647
  355MOL0     O47814   9.963   5.809   7.827  0.1205  0.2183  0.1964
  355MOL0     C47815   9.892   5.918   7.876  0.1138  0.4397  0.1152
  355MOL0     C47816   9.752   5.915   7.902  0.0426 -0.2922 -0.0118
  355MOL0     C47817   9.703   6.026   7.972  0.1029 -0.0373 -0.3198
  355MOL0     C47818   9.567   6.018   8.031  0.1528  0.0452 -0.4622
  355MOL0     C47819   9.790   6.140   8.020 -0.3530  0.1127 -0.1442
  355MOL0     C47820   9.757   6.241   8.127 -1.0185 -0.9702 -0.5750
  355MOL0     O47821   9.861   6.319   8.180 -0.3883 -0.2926  0.6325
  355MOL0     C47822   9.828   6.409   8.276 -1.3685 -0.4057  0.5891
  355MOL0     C47823   9.893   6.405   8.396  0.3885 -0.6592  0.1800
  355MOL0     C47824   9.886   6.505   8.503  0.1050 -1.3262  0.4216
  355MOL0     C47825   9.807   6.618   8.478  0.5888  0.1664  0.5741
  355MOL0     O47826   9.797   6.715   8.574  0.7891 -0.3630 -0.4889
  355MOL0     C47827   9.676   6.784   8.597  1.1261  0.1497 -0.6703
  355MOL0     C47828   9.708   6.881   8.711  0.0026  0.0133 -0.0225
  355MOL0     C47829   9.784   7.002   8.644  0.5159  0.3302 -0.1497
  355MOL0     C47830   9.683   7.102   8.595 -0.0283  0.5258  0.5624
  355MOL0     C47831   9.598   7.173   8.708  0.4312  0.3928 -1.1686
  355MOL0     C47832   9.519   7.279   8.642 -0.3449  0.1462  0.0083
  355MOL0     C47833   9.450   7.354   8.746 -0.5356 -0.5138  0.1883
  355MOL0     C47834   9.325   7.425   8.700  0.2259 -0.1570  0.0726
  355MOL0    Cl47835   9.341   7.492   8.538 -0.0451 -0.0427 -0.0914
  355MOL0     C47836   9.733   6.622   8.356 -0.3925  0.5768 -0.1642
  355MOL0     C47837   9.758   6.521   8.247  0.0141 -0.1699 -0.8610
  355MOL0     O47838   9.646   6.247   8.166 -0.1072 -0.5700  0.5255
  355MOL0     C47839   9.923   6.129   7.975 -0.6609  0.4255  1.3090
  355MOL0     C47840   9.968   6.027   7.901  0.4425  0.3156  0.1279
  355MOL0     N47841  10.418   5.406   7.701  0.0149  0.8508 -0.5066
  355MOL0     N47842  10.478   5.412   7.590  0.7143 -0.6725  0.9429
  355MOL0     C47843  11.102   5.332   6.736 -0.4535 -0.2343 -0.0936
  355MOL0     C47844  11.228   5.403   6.716 -0.7335  0.2979  0.3989
  355MOL0     C47845  11.543   5.695   6.654  0.4507  1.3186  0.2656
  355MOL0     C47846  11.649   5.629   6.706 -0.1646 -0.9975  0.3306
  355MOL0     C47847  11.780   5.675   6.668 -0.1706  0.1155 -0.5393
  355MOL0     C47848  11.799   5.782   6.582 -1.5886 -0.4270  0.4546
  355MOL0     O47849  11.929   5.807   6.545  0.4986  0.1676 -0.5254
  355MOL0     C47850  11.940   5.889   6.422 -0.7454  0.2708 -0.6791
  355MOL0     C47851  12.089   5.909   6.416  0.3700 -0.1445 -0.2032
  355MOL0     C47852  12.136   5.980   6.538 -0.5680  0.5990 -0.5960
  355MOL0     C47853  12.281   6.014   6.526  0.3614 -0.1964 -0.2711
  355MOL0     C47854  12.300   6.120   6.631 -0.5362  0.2928  0.1744
  355MOL0     C47855  12.341   6.211   6.703 -0.5763 -0.4269  0.2234
  355MOL0     C47856  11.684   5.843   6.532  0.0379 -0.4291  0.6495
  355MOL0     C47857  11.554   5.794   6.559 -0.2778 -0.4224 -0.2174
  355MOL0     H47858  11.201   5.640   6.950 -1.0562 -1.3255  1.3329
  355MOL0     H47859  10.975   5.542   6.973  1.2650  1.0238  1.0149
  355MOL0     H47860  10.813   5.227   6.682  0.3879 -0.2073  1.0561
  355MOL0     H47861  10.902   5.117   6.802 -3.3179 -3.3225  2.8133
  355MOL0     H47862  10.618   5.225   6.833  0.3507  0.5664 -0.1766
  355MOL0     H47863  10.680   5.065   6.807  1.8367 -1.1520  0.6332
  355MOL0     H47864  10.770   5.076   7.038  0.2088  1.0902  0.9418
  355MOL0     H47865  10.751   5.252   7.031  1.0708 -0.7835  2.0793
  355MOL0     H47866  10.496   5.221   7.031 -0.9808 -0.4725  1.4721
  355MOL0     H47867  10.523   5.043   7.053 -0.1741 -0.1744  0.2887
  355MOL0     H47868  10.630   5.079   7.259 -1.5099 -1.6180 -1.2724
  355MOL0     H47869  10.629   5.253   7.229  1.0098 -0.2795 -0.2949
  355MOL0     H47870  10.374   5.077   7.251  0.6559  1.0607 -2.0069
  355MOL0     H47871  10.445   5.143   7.395 -0.9899 -1.8459  0.6885
  355MOL0     H47872  10.347   5.296   7.171 -0.0679 -0.3932  0.8777
  355MOL0     H47873  10.247   5.257   7.304  1.1186 -2.4606  0.1712
  355MOL0     H47874  10.356   5.492   7.315 -1.5987  0.0112  1.9976
  355MOL0     H47875  10.509   5.411   7.320 -0.8039  2.9408 -3.3347
  355MOL0     H47876  10.170   5.408   7.498 -2.9954 -0.4759  3.4871
  355MOL0     H47877  10.095   5.374   7.759  1.1920 -2.0554 -2.7089
  355MOL0     H47878  10.227   5.393   7.882  0.4346  2.3688 -0.3651
  355MOL0     H47879  10.129   5.620   7.721 -1.7480 -2.8319 -0.1774
  355MOL0     H47880  10.248   5.615   7.863 -0.7952  2.0117  2.2967
  355MOL0     H47881  10.089   5.656   7.997 -1.4714  1.6947 -0.4777
  355MOL0     H47882  10.007   5.499   7.946  1.3698 -2.1653 -4.0925
  355MOL0     H47883   9.844   5.673   7.945 -0.3685  2.1020 -1.0410
  355MOL0     H47884   9.885   5.617   7.778 -0.4998  1.5910 -1.3817
  355MOL0     H47885   9.689   5.830   7.878  2.1123 -1.5916 -1.1549
  355MOL0     H47886   9.499   6.100   8.005  0.6471  0.5541 -0.1585
  355MOL0     H47887   9.511   5.933   7.989 -2.0385  2.5784 -3.1651
  355MOL0     H47888   9.578   6.018   8.139  2.3062 -0.6245 -0.6392
  355MOL0     H47889   9.972   6.334   8.416  0.2125 -0.0887  3.4487
  355MOL0     H47890   9.946   6.492   8.592 -0.2119 -1.2894  0.6387
  355MOL0     H47891   9.650   6.832   8.502 -2.3419 -0.5064 -0.1640
  355MOL0     H47892   9.597   6.710   8.609 -1.3242  2.2065 -2.9525
  355MOL0     H47893   9.625   6.925   8.766  0.6999 -0.2452  1.2707
  355MOL0     H47894   9.766   6.816   8.777 -2.5884 -3.2306 -0.7268
  355MOL0     H47895   9.842   6.965   8.559  0.6789  0.2331  0.0041
  355MOL0     H47896   9.858   7.038   8.715 -0.7916 -2.3691  2.8040
  355MOL0     H47897   9.751   7.173   8.547  1.6341  0.7081  2.9581
  355MOL0     H47898   9.620   7.044   8.527 -0.6788  1.6564  0.1935
  355MOL0     H47899   9.656   7.204   8.795 -2.3531 -1.5965  1.6063
  355MOL0     H47900   9.527   7.101   8.749  1.6103 -0.4356 -0.5367
  355MOL0     H47901   9.588   7.346   8.591 -1.0773 -1.8519 -3.9580
  355MOL0     H47902   9.451   7.241   8.566  1.1269  0.6206 -1.5916
  355MOL0     H47903   9.511   7.435   8.785  1.6966 -2.7809  1.7282
  355MOL0     H47904   9.422   7.282   8.824  0.9205  0.7401  1.9244
  355MOL0     H47905   9.304   7.506   8.770  1.2435  1.3564 -1.3183
  355MOL0     H47906   9.244   7.351   8.691 -0.3947  0.5768 -0.6377
  355MOL0     H47907   9.653   6.689   8.328 -1.7770 -1.9064 -2.6192
  355MOL0     H47908   9.699   6.525   8.156 -0.8814 -2.2102 -0.4207
  355MOL0     H47909  10.005   6.189   8.013  1.4487 -0.8328 -0.9688
  355MOL0     H47910  10.074   6.023   7.880  0.5993 -0.8380  1.0306
  355MOL0     H47911  11.083   5.242   6.678  2.6728  0.0357 -1.7915
  355MOL0     H47912  11.305   5.367   6.648  0.1437  1.9521  0.4757
  355MOL0     H47913  11.655   5.554   6.785 -1.8134 -1.9520 -0.4061
  355MOL0     H47914  11.864   5.628   6.718 -0.6691 -0.5854 -0.3485
  355MOL0     H47915  11.908   5.828   6.337 -0.1410  2.8966 -2.9216
  355MOL0     H47916  11.884   5.982   6.422 -2.3279 -0.6387 -1.4064
  355MOL0     H47917  12.117   5.967   6.328  1.3663  4.0899  2.6271
  355MOL0     H47918  12.132   5.808   6.409 -0.3549 -0.7952  3.1141
  355MOL0     H47919  12.134   5.901   6.614  2.2774 -2.6534 -3.5647
  355MOL0     H47920  12.070   6.060   6.572 -0.8158  0.0196  0.3189
  355MOL0     H47921  12.313   6.053   6.429  0.4840 -0.4825 -0.3483
  355MOL0     H47922  12.347   5.934   6.561  0.5836  1.0296  2.3982
  355MOL0     H47923  12.375   6.284   6.774 -1.8376  0.5396 -0.1142
  355MOL0     H47924  11.684   5.930   6.467  0.8170 -0.3903  0.6866
  355MOL0     H47925  11.461   5.840   6.529 -0.3668  0.2923  1.0908
  356MOL0     O47926  11.006   6.381   4.827  0.0420  0.5785 -0.3382
  356MOL0     C47927  10.892   6.352   4.790  0.0998  0.5211  0.0032
  356MOL0     O47928  10.838   6.231   4.796  0.2058  0.2128 -0.2279
  356MOL0     C47929  10.894   6.128   4.866  0.2210 -1.1470 -0.1839
  356MOL0     C47930  10.880   6.117   5.011  0.0680 -0.4386 -0.7586
  356MOL0     C47931  10.942   6.007   5.072 -0.7911  0.2293  0.2753
  356MOL0     C47932  11.008   5.904   5.004  0.2638 -0.1532  0.2067
  356MOL0     O47933  11.061   5.809   5.086 -0.4302 -0.0472  0.7872
  356MOL0     C47934  11.144   5.707   5.015  0.0005 -0.2008 -0.3791
  356MOL0     C47935  11.199   5.604   5.114 -0.6845 -0.2253 -0.3021
  356MOL0     C47936  11.289   5.498   5.041  0.3889 -0.0395  0.1873
  356MOL0     C47937  11.312   5.377   5.130  0.6672  0.3335  0.4135
  356MOL0     C47938  11.370   5.260   5.048  0.0888 -0.4789 -0.6190
  356MOL0     C47939  11.385   5.133   5.134 -0.9797  0.7916  0.4915
  356MOL0     C47940  11.390   5.004   5.051  0.6934  0.4722 -0.9031
  356MOL0     C47941  11.526   5.005   4.978 -0.7253  0.3427  0.5656
  356MOL0     N47942  11.539   4.884   4.899 -0.1555 -0.6081  0.4418
  356MOL0     C47943  11.480   4.866   4.774  0.3994  0.6560  0.6261
  356MOL0     C47944  11.532   4.751   4.722  0.0333  0.0359 -0.0190
  356MOL0     C47945  11.501   4.683   4.590 -0.5825  0.4331 -0.2485
  356MOL0     C47946  11.359   4.658   4.562  0.8221 -0.2198 -0.1578
  356MOL0     C47947  11.337   4.511   4.581  0.0658 -0.4575 -0.9303
  356MOL0     C47948  11.203   4.468   4.541 -0.2755 -0.4531 -0.2694
  356MOL0     O47949  11.160   4.532   4.418 -0.4140 -0.1847  0.0722
  356MOL0     C47950  11.043   4.490   4.354  0.0044  0.1810  0.2712
  356MOL0     C47951  11.009   4.548   4.231  0.5883 -0.3440 -0.1678
  356MOL0     C47952  10.898   4.512   4.154 -0.0193  0.5618 -0.3591
  356MOL0     C47953  10.884   4.578   4.020  0.6011  0.4966  0.0929
  356MOL0     C47954  10.811   4.410   4.210 -0.4504 -0.1050 -0.4076
  356MOL0     C47955  10.694   4.361   4.126 -0.2337  0.4165  0.4978
  356MOL0     O47956  10.663   4.232   4.143  0.4105 -0.9248 -0.5304
  356MOL0     C47957  10.560   4.172   4.076  1.0530  0.6087  0.1848
  356MOL0     C47958  10.591   4.055   4.007  0.3369 -0.3732 -0.2318
  356MOL0     C47959  10.497   3.973   3.929 -0.3790 -0.7022 -0.1831
  356MOL0     C47960  10.361   4.016   3.937 -0.1191 -0.1257  0.1925
  356MOL0     O47961  10.257   3.951   3.866  0.5165 -0.1278 -0.4959
  356MOL0     C47962  10.295   3.897   3.729 -0.6397 -0.1904  0.6563
  356MOL0     C47963  10.320   3.750   3.705  0.7456  0.2291 -0.1709
  356MOL0     C47964  10.409   3.725   3.586 -0.1890 -1.3508  0.3610
  356MOL0     C47965  10.352   3.732   3.445  0.0213  0.1576  0.1601
  356MOL0     C47966  10.229   3.655   3.419 -0.1275 -0.1119  0.5826
  356MOL0     C47967  10.097   3.734   3.425  0.1349  0.4040 -0.8426
  356MOL0     C47968  10.094   3.860   3.318 -0.2331  0.2902  0.7565
  356MOL0     C47969   9.950   3.916   3.322 -0.1013  0.9654 -0.8754
  356MOL0    Cl47970   9.933   4.034   3.195 -0.2002 -0.1210 -0.9299
  356MOL0     C47971  10.328   4.122   4.022  0.0879 -0.1323 -0.1361
  356MOL0     C47972  10.422   4.202   4.089  0.3164 -0.3618  0.3014
  356MOL0     O47973  10.632   4.443   4.057  0.5123  0.6012  0.6663
  356MOL0     C47974  10.836   4.356   4.334 -0.5470 -0.0662  0.9609
  356MOL0     C47975  10.954   4.388   4.409  0.0699 -0.0897  0.2449
  356MOL0     N47976  11.618   4.706   4.818 -0.4057  0.2786 -0.0177
  356MOL0     N47977  11.617   4.779   4.919 -0.6651 -0.3937 -0.0296
  356MOL0     C47978  11.020   5.917   4.858 -0.0603 -0.1625 -0.6671
  356MOL0     C47979  10.961   6.026   4.788 -0.4847 -1.0253 -0.8882
  356MOL0     C47980  10.822   6.441   4.700 -0.1485  1.2225  0.4632
  356MOL0     C47981  10.854   6.570   4.705 -0.2736  0.2478  0.3003
  356MOL0     C47982  10.778   6.665   4.637 -0.6904  1.1074  0.5321
  356MOL0     C47983  10.668   6.630   4.558 -0.6619 -0.0873 -0.2094
  356MOL0     O47984  10.581   6.716   4.494 -0.2359 -0.1197 -0.1944
  356MOL0     C47985  10.625   6.847   4.441 -0.0636  0.3261 -0.9741
  356MOL0     C47986  10.728   6.850   4.327  0.3522  0.0051  0.2168
  356MOL0     C47987  10.724   6.989   4.265 -0.5268 -0.1296  0.4985
  356MOL0     C47988  10.864   7.017   4.205 -0.5761 -0.0779  0.4267
  356MOL0     C47989  10.897   6.952   4.084  1.4219 -0.6629 -0.5068
  356MOL0     C47990  10.926   6.908   3.977  0.4420 -0.3941  0.1418
  356MOL0     C47991  10.632   6.497   4.560 -0.2229  0.2322  0.4502
  356MOL0     C47992  10.708   6.400   4.628 -1.2628  0.3310 -0.3214
  356MOL0     H47993  10.841   6.194   5.075 -1.9035 -3.5963  2.1996
  356MOL0     H47994  10.938   5.993   5.179 -3.2053  0.2526  0.2550
  356MOL0     H47995  11.073   5.651   4.955 -1.0131  2.4207 -1.8186
  356MOL0     H47996  11.221   5.743   4.946 -1.8740 -1.3881 -3.2297
  356MOL0     H47997  11.261   5.645   5.195  1.2869 -0.8516 -1.4079
  356MOL0     H47998  11.118   5.551   5.164 -1.1180  0.9200  0.2463
  356MOL0     H47999  11.233   5.456   4.958 -0.9234 -0.2036  1.1202
  356MOL0     H48000  11.387   5.533   5.006  1.3155 -1.1817  1.5201
  356MOL0     H48001  11.378   5.413   5.209 -0.7852 -1.0470  2.3671
  356MOL0     H48002  11.218   5.344   5.177 -0.4663  0.6893 -1.5002
  356MOL0     H48003  11.304   5.242   4.963 -1.8177 -0.4613  0.7971
  356MOL0     H48004  11.470   5.298   5.024 -0.5865  1.1607 -0.9770
  356MOL0     H48005  11.459   5.137   5.215 -1.8512  1.2542  1.2781
  356MOL0     H48006  11.299   5.119   5.201  0.6639 -1.4191  2.2989
  356MOL0     H48007  11.383   4.917   5.116  3.0321  1.7393  1.2463
  356MOL0     H48008  11.306   4.995   4.981 -1.0691 -0.9490  1.2740
  356MOL0     H48009  11.604   5.012   5.054  1.4084 -1.7068 -1.2942
  356MOL0     H48010  11.539   5.093   4.915  0.0405  0.2765  0.6254
  356MOL0     H48011  11.405   4.931   4.729 -1.0694 -0.7035  1.0028
  356MOL0     H48012  11.542   4.742   4.507  2.8004 -2.5969 -0.9984
  356MOL0     H48013  11.562   4.592   4.585  0.9948  1.4990 -1.9988
  356MOL0     H48014  11.330   4.684   4.460 -1.7385 -2.1933 -0.0239
  356MOL0     H48015  11.295   4.705   4.637 -0.8313  1.4077 -2.4568
  356MOL0     H48016  11.344   4.474   4.684 -1.2232 -0.3495 -0.7816
  356MOL0     H48017  11.407   4.453   4.520  2.7515  0.2186  1.2891
  356MOL0     H48018  11.139   4.490   4.626  2.7711  0.3424  1.9657
  356MOL0     H48019  11.201   4.359   4.537  0.8544 -0.5098  0.4506
  356MOL0     H48020  11.092   4.603   4.188  1.9230 -3.2137 -1.4897
  356MOL0     H48021  10.823   4.667   4.039  0.0832 -0.4041  3.3348
  356MOL0     H48022  10.986   4.600   3.987  0.6281 -0.1395 -0.2596
  356MOL0     H48023  10.830   4.523   3.944 -2.0461  1.7385  0.9592
  356MOL0     H48024  10.697   4.030   4.005 -0.2969 -3.8614  1.3997
  356MOL0     H48025  10.531   3.897   3.859 -1.2122 -3.7826  2.5124
  356MOL0     H48026  10.209   3.920   3.666  0.8194  1.1933 -0.9177
  356MOL0     H48027  10.384   3.943   3.686  0.5112 -1.0973  1.9871
  356MOL0     H48028  10.379   3.722   3.793  1.4312 -1.3345 -1.0929
  356MOL0     H48029  10.223   3.700   3.711  1.1443 -0.7213 -1.3823
  356MOL0     H48030  10.456   3.629   3.609 -1.1036 -2.1926 -1.1251
  356MOL0     H48031  10.490   3.797   3.579  2.5411 -4.3602 -3.5446
  356MOL0     H48032  10.343   3.835   3.409  1.0400 -0.3053 -1.5224
  356MOL0     H48033  10.423   3.675   3.384 -0.8208 -1.0091  0.2276
  356MOL0     H48034  10.220   3.564   3.479  1.5408 -0.7018 -0.0105
  356MOL0     H48035  10.241   3.606   3.322  2.1523 -2.1582  1.7702
  356MOL0     H48036  10.019   3.661   3.406  2.1191 -1.1998 -3.5137
  356MOL0     H48037  10.091   3.770   3.528  3.5322  1.2750 -0.8241
  356MOL0     H48038  10.117   3.824   3.217 -2.5998  0.4879  0.0766
  356MOL0     H48039  10.166   3.933   3.357 -0.6297  0.4897  1.1279
  356MOL0     H48040   9.942   3.969   3.417  0.8303  3.5090 -2.0918
  356MOL0     H48041   9.880   3.833   3.320  2.4925 -1.5108  1.8298
  356MOL0     H48042  10.222   4.145   4.017  0.6506  2.6625 -0.7693
  356MOL0     H48043  10.376   4.293   4.126  1.4087 -1.1962  4.1927
  356MOL0     H48044  10.772   4.284   4.383 -2.7705  1.5134  0.5643
  356MOL0     H48045  10.973   4.355   4.511 -2.5956 -1.1748  0.4635
  356MOL0     H48046  11.085   5.852   4.800  3.4017  1.8733  0.6268
  356MOL0     H48047  10.978   6.050   4.683 -0.3274 -1.4495 -0.9612
  356MOL0     H48048  10.947   6.606   4.747 -0.0263  2.1780 -1.7070
  356MOL0     H48049  10.812   6.768   4.643  0.2629  0.8584 -0.2638
  356MOL0     H48050  10.536   6.909   4.422 -1.4733 -0.2557  2.7996
  356MOL0     H48051  10.680   6.896   4.521  1.3430 -0.8074 -1.2115
  356MOL0     H48052  10.692   6.786   4.246  3.3406 -0.3032 -0.9965
  356MOL0     H48053  10.824   6.804   4.355  0.3288 -0.8032 -0.9471
  356MOL0     H48054  10.729   7.062   4.347  1.0965  1.4272 -0.9249
  356MOL0     H48055  10.639   7.007   4.198 -0.2262  0.7571  0.3463
  356MOL0     H48056  10.943   7.014   4.281  0.1477  4.4792  0.1792
  356MOL0     H48057  10.853   7.120   4.169  2.0939  0.2525  0.3658
  356MOL0     H48058  10.944   6.878   3.876 -1.1827 -2.4234  0.3885
  356MOL0     H48059  10.549   6.456   4.503  0.5843  0.1031 -0.6658
  356MOL0     H48060  10.679   6.299   4.601 -1.5859  1.1994 -3.6516
  357MOL0     O48061   7.202   6.501   2.097 -0.6768  0.2005  0.4366
  357MOL0     C48062   7.271   6.404   2.065  0.0973  0.4858 -0.3429
  357MOL0     O48063   7.404   6.385   2.090 -0.6796 -0.1654  0.7785
  357MOL0     C48064   7.465   6.480   2.170  1.1120  0.1912  0.9136
  357MOL0     C48065   7.471   6.447   2.301  0.0187 -0.0392 -0.4825
  357MOL0     C48066   7.543   6.531   2.394  0.0994  0.2468 -0.4740
  357MOL0     C48067   7.604   6.653   2.353 -0.2593 -0.2562 -0.5376
  357MOL0     O48068   7.675   6.727   2.447 -0.1150  0.1613  0.3708
  357MOL0     C48069   7.629   6.864   2.467 -0.1840  1.1091 -0.7597
  357MOL0     C48070   7.678   6.889   2.607 -1.3267  0.0671  0.6356
  357MOL0     C48071   7.616   6.797   2.722 -0.3759 -0.5474  0.7865
  357MOL0     C48072   7.460   6.809   2.741 -0.0466  0.6776 -0.4122
  357MOL0     C48073   7.401   6.708   2.832  0.4668  0.9356 -0.4313
  357MOL0     C48074   7.399   6.570   2.769  0.3196 -0.3627  0.5957
  357MOL0     C48075   7.344   6.462   2.871 -0.7128  0.0057 -0.1761
  357MOL0     C48076   7.333   6.329   2.803 -0.1547  0.3789  0.7253
  357MOL0     N48077   7.456   6.259   2.765  0.2671  0.0913 -0.0118
  357MOL0     C48078   7.533   6.196   2.853 -0.1722  0.2377 -0.4517
  357MOL0     C48079   7.630   6.152   2.775 -0.6185  0.2538  0.4130
  357MOL0     C48080   7.735   6.064   2.838 -0.1235 -0.0831 -0.1094
  357MOL0     C48081   7.692   5.917   2.800  0.6545 -0.1664  0.8483
  357MOL0     C48082   7.805   5.873   2.715 -0.7773 -0.5442  0.0074
  357MOL0     C48083   7.777   5.742   2.640 -0.0493 -0.1341 -0.4317
  357MOL0     O48084   7.697   5.649   2.706 -0.8611 -0.2723  0.7914
  357MOL0     C48085   7.611   5.563   2.639 -0.8779 -0.3422 -0.0960
  357MOL0     C48086   7.607   5.539   2.493  0.0217  1.4088 -0.9309
  357MOL0     C48087   7.529   5.432   2.438  0.2058  0.1214 -1.1471
  357MOL0     C48088   7.528   5.414   2.293 -0.7031  0.0370 -0.0514
  357MOL0     C48089   7.468   5.336   2.523 -0.6832 -0.0532 -0.5205
  357MOL0     C48090   7.397   5.207   2.475 -0.1008 -0.1658 -0.1981
  357MOL0     O48091   7.413   5.169   2.347  0.2490  0.1297 -0.3419
  357MOL0     C48092   7.383   5.034   2.324  0.1804  0.0397  0.1901
  357MOL0     C48093   7.270   4.986   2.261 -0.5174  0.9618  0.8225
  357MOL0     C48094   7.243   4.854   2.246 -0.8659 -0.1814 -0.1314
  357MOL0     C48095   7.331   4.761   2.294 -0.8250 -0.7382 -0.8074
  357MOL0     O48096   7.295   4.632   2.279 -0.0112 -0.3346  0.2018
  357MOL0     C48097   7.388   4.531   2.320 -0.6667 -0.4245  1.2422
  357MOL0     C48098   7.363   4.398   2.230 -0.3581 -0.1055 -0.7806
  357MOL0     C48099   7.211   4.364   2.220 -0.2877  0.6963  0.5320
  357MOL0     C48100   7.189   4.225   2.149  0.9054  1.1435 -0.3835
  357MOL0     C48101   7.183   4.258   1.991 -0.3562 -0.7737 -0.2892
  357MOL0     C48102   7.096   4.149   1.919  0.0549  0.8419 -0.2160
  357MOL0     C48103   7.153   4.013   1.906 -0.3699 -0.2479  0.9754
  357MOL0     C48104   7.059   3.894   1.871  0.1853  0.4448  0.0828
  357MOL0    Cl48105   6.926   3.870   1.983 -0.4322 -0.8893 -0.0794
  357MOL0     C48106   7.440   4.811   2.373 -1.0620  1.2547  0.0600
  357MOL0     C48107   7.474   4.948   2.381  0.6236  0.8943  0.2550
  357MOL0     O48108   7.350   5.142   2.567  0.3236 -0.1419 -0.4993
  357MOL0     C48109   7.466   5.364   2.658 -0.2590 -0.1971 -0.7125
  357MOL0     C48110   7.543   5.468   2.714 -0.5309  0.1032 -0.7907
  357MOL0     N48111   7.621   6.184   2.636 -0.2382 -0.6174 -0.5447
  357MOL0     N48112   7.523   6.269   2.643 -0.4769  0.0402 -0.1808
  357MOL0     C48113   7.596   6.683   2.223  0.6858  0.7424  0.6027
  357MOL0     C48114   7.516   6.602   2.128  0.0343 -0.0371  0.2477
  357MOL0     C48115   7.201   6.292   1.997 -0.8305 -0.1670  0.1202
  357MOL0     C48116   7.283   6.195   1.930  0.9118  0.0815  0.2201
  357MOL0     C48117   7.217   6.086   1.881  1.2444  0.4738  0.2884
  357MOL0     C48118   7.084   6.069   1.880  0.2566 -1.2848  0.5314
  357MOL0     O48119   7.031   5.955   1.839 -0.2669 -0.3684 -0.6386
  357MOL0     C48120   7.078   5.828   1.908  1.0418 -0.0212 -0.0746
  357MOL0     C48121   6.987   5.733   1.822 -0.2290 -0.6372 -0.6156
  357MOL0     C48122   7.042   5.699   1.689 -0.5755  0.3748 -0.0363
  357MOL0     C48123   7.177   5.630   1.686 -0.2045  1.0153 -0.7360
  357MOL0     C48124   7.182   5.499   1.757  1.0161 -0.3069 -0.6637
  357MOL0     C48125   7.181   5.387   1.795 -0.3930  0.1100  0.7156
  357MOL0     C48126   6.999   6.176   1.920  0.0348 -0.2309 -0.6496
  357MOL0     C48127   7.062   6.282   1.986  0.0991 -0.1622 -0.3840
  357MOL0     H48128   7.434   6.352   2.339  1.7799  0.1242  1.8181
  357MOL0     H48129   7.554   6.496   2.496  0.8623  1.8697  0.0435
  357MOL0     H48130   7.683   6.937   2.406  0.0969  1.7996  0.2923
  357MOL0     H48131   7.520   6.870   2.461 -0.6073 -2.5940  0.4730
  357MOL0     H48132   7.783   6.867   2.588 -1.1421 -2.4347  3.7639
  357MOL0     H48133   7.672   6.994   2.639  0.5654  0.7618 -1.0517
  357MOL0     H48134   7.641   6.691   2.709  3.1589  0.3628 -1.2342
  357MOL0     H48135   7.661   6.829   2.816 -0.6514  1.2816  0.3286
  357MOL0     H48136   7.448   6.906   2.790  0.2522 -0.4494  2.0784
  357MOL0     H48137   7.407   6.811   2.646 -2.1152  1.1351  0.6866
  357MOL0     H48138   7.465   6.714   2.921 -1.3885 -1.3189  1.1797
  357MOL0     H48139   7.302   6.742   2.864  1.2017  0.4920  2.6295
  357MOL0     H48140   7.337   6.589   2.681  0.2998  4.4397  1.3989
  357MOL0     H48141   7.502   6.548   2.738 -0.8507 -0.4356 -4.0175
  357MOL0     H48142   7.412   6.456   2.957  1.6531  0.5352 -1.8815
  357MOL0     H48143   7.245   6.499   2.898 -0.0744  1.4745  0.2807
  357MOL0     H48144   7.269   6.351   2.717 -1.6886 -0.5849  1.5665
  357MOL0     H48145   7.267   6.263   2.861  1.9923 -1.6946  0.9760
  357MOL0     H48146   7.525   6.178   2.959 -1.1930 -1.5970 -0.7908
  357MOL0     H48147   7.839   6.097   2.828 -0.8048  1.9028 -1.0664
  357MOL0     H48148   7.715   6.070   2.946 -1.4816  2.5077 -0.4348
  357MOL0     H48149   7.601   5.916   2.739  0.2913  0.7310  1.3670
  357MOL0     H48150   7.668   5.850   2.882 -2.2632 -1.5412 -0.9549
  357MOL0     H48151   7.893   5.869   2.781 -0.7619  4.3226  0.6286
  357MOL0     H48152   7.818   5.951   2.639  1.1240 -0.3706  0.4542
  357MOL0     H48153   7.865   5.692   2.600 -0.5126 -0.0846 -1.5613
  357MOL0     H48154   7.720   5.782   2.555 -0.1522 -1.3438 -0.9531
  357MOL0     H48155   7.665   5.609   2.434  0.9755  2.1148  0.7564
  357MOL0     H48156   7.584   5.500   2.252 -3.9984  2.1279 -0.5378
  357MOL0     H48157   7.580   5.320   2.274 -0.5354  0.3733 -1.3912
  357MOL0     H48158   7.429   5.412   2.246 -0.0952  0.7229 -1.4474
  357MOL0     H48159   7.203   5.055   2.211 -0.1880  1.1592  0.6508
  357MOL0     H48160   7.156   4.807   2.200 -0.8687 -1.9571  1.5780
  357MOL0     H48161   7.496   4.547   2.308 -0.9239  0.9663  0.6331
  357MOL0     H48162   7.360   4.509   2.423 -2.3031  3.1531  1.6812
  357MOL0     H48163   7.395   4.414   2.127  1.2848  0.1286 -0.2628
  357MOL0     H48164   7.411   4.314   2.281 -0.1228  0.1181 -0.6294
  357MOL0     H48165   7.152   4.440   2.168 -2.0862 -1.2627 -0.4385
  357MOL0     H48166   7.151   4.364   2.312 -0.8771  0.9975  0.1558
  357MOL0     H48167   7.276   4.164   2.175  0.8440  1.5957  0.9552
  357MOL0     H48168   7.103   4.165   2.179  0.6315  1.7066 -0.0363
  357MOL0     H48169   7.288   4.253   1.960  0.1137  0.3134  1.0486
  357MOL0     H48170   7.143   4.356   1.960 -1.5435 -1.1142  0.1082
  357MOL0     H48171   6.995   4.140   1.958 -0.9913  0.2173 -2.8240
  357MOL0     H48172   7.078   4.185   1.817 -0.4029 -0.9790 -0.8112
  357MOL0     H48173   7.211   3.990   1.996  2.4948 -0.7612 -0.8849
  357MOL0     H48174   7.221   4.018   1.820 -0.4921 -1.6049  0.7784
  357MOL0     H48175   7.127   3.809   1.861  0.9773  1.2384 -1.7638
  357MOL0     H48176   7.013   3.901   1.772 -3.9034  1.0068  1.8085
  357MOL0     H48177   7.511   4.741   2.415  0.8014  1.9851 -1.6642
  357MOL0     H48178   7.559   4.998   2.425  0.6505  0.3998  0.7895
  357MOL0     H48179   7.396   5.315   2.725  0.6733  1.3811  1.5234
  357MOL0     H48180   7.556   5.471   2.821 -0.1437 -2.6593 -0.6927
  357MOL0     H48181   7.629   6.782   2.192  2.2893 -0.2700 -1.1135
  357MOL0     H48182   7.501   6.635   2.025  2.1231 -0.1706 -0.1387
  357MOL0     H48183   7.391   6.191   1.929  0.9428  0.7402 -1.0428
  357MOL0     H48184   7.279   6.018   1.823 -0.3306  0.0872 -0.9963
  357MOL0     H48185   7.184   5.800   1.907  1.0670  0.0710 -0.9211
  357MOL0     H48186   7.027   5.810   2.003 -1.5291 -0.8696 -1.5074
  357MOL0     H48187   6.888   5.777   1.814  0.3221  0.6731 -0.4478
  357MOL0     H48188   6.969   5.639   1.876 -4.4944  1.6845  2.5971
  357MOL0     H48189   7.051   5.775   1.611 -2.4134 -0.2377 -0.9176
  357MOL0     H48190   6.966   5.627   1.655  0.0713 -1.3700  1.9622
  357MOL0     H48191   7.256   5.697   1.722  1.9868 -1.5101 -0.4612
  357MOL0     H48192   7.183   5.614   1.578 -1.4872  3.1866 -1.1689
  357MOL0     H48193   7.193   5.284   1.823  3.3669  1.0045  3.1041
  357MOL0     H48194   6.892   6.163   1.913 -0.2376  1.9569 -1.2638
  357MOL0     H48195   6.992   6.348   2.036 -2.0883 -1.8824 -0.9979
  358MOL0     O48196   0.277   1.935   0.676  0.3402  0.6183 -0.2985
  358MOL0     C48197   0.356   1.869   0.619  1.4553  0.2956  0.4101
  358MOL0     O48198   0.346   1.732   0.586  0.2489 -0.2109  0.7544
  358MOL0     C48199   0.237   1.670   0.633 -0.4000  0.6790  0.6216
  358MOL0     C48200   0.247   1.635   0.773 -0.6965 -0.6702 -0.6739
  358MOL0     C48201   0.142   1.583   0.848 -0.1487  0.2835  0.8257
  358MOL0     C48202   0.017   1.556   0.785 -0.0049 -1.1106  0.0464
  358MOL0     O48203  -0.103   1.510   0.835  0.9183 -0.3846  0.3757
  358MOL0     C48204  -0.087   1.407   0.939 -0.4121 -0.3922  0.4088
  358MOL0     C48205  -0.203   1.303   0.923  0.8291  0.3274 -0.5281
  358MOL0     C48206  -0.172   1.160   0.977  0.3050  0.2958 -0.2981
  358MOL0     C48207  -0.310   1.081   0.963 -0.8110  0.5014  0.4623
  358MOL0     C48208  -0.291   0.941   1.027  0.3461  0.1905  0.9110
  358MOL0     C48209  -0.406   0.858   0.971 -0.3355 -0.0819  0.4348
  358MOL0     C48210  -0.366   0.707   0.967  0.3321 -0.0405 -0.0354
  358MOL0     C48211  -0.263   0.669   0.859 -0.1183  0.7373 -0.1968
  358MOL0     N48212  -0.218   0.528   0.884  0.2227  0.7128 -0.3085
  358MOL0     C48213  -0.111   0.505   0.960 -0.3193  0.0079 -0.3151
  358MOL0     C48214  -0.116   0.379   0.994 -0.1575  0.8799 -0.1163
  358MOL0     C48215  -0.008   0.298   1.063 -0.2246 -0.2812  0.5430
  358MOL0     C48216  -0.004   0.295   1.213  0.0481 -0.0771  0.3104
  358MOL0     C48217  -0.057   0.173   1.289 -0.3410 -0.2857 -1.6318
  358MOL0     C48218  -0.192   0.130   1.238 -0.4184  0.5214 -0.0961
  358MOL0     O48219  -0.261   0.043   1.334 -0.1749 -0.2005  0.1734
  358MOL0     C48220  -0.397   0.023   1.313 -0.4343  0.8256  0.2136
  358MOL0     C48221  -0.494   0.117   1.271  0.7224 -0.6918  0.0283
  358MOL0     C48222  -0.631   0.099   1.259  1.0390 -0.1792 -0.2505
  358MOL0     C48223  -0.721   0.212   1.198  0.4614  1.4037 -1.2658
  358MOL0     C48224  -0.686  -0.020   1.315 -0.5285  0.5202  0.2521
  358MOL0     C48225  -0.829  -0.043   1.331  0.2244  0.0999  0.1959
  358MOL0     O48226  -0.865  -0.154   1.404 -0.3384  0.0143  0.2190
  358MOL0     C48227  -0.996  -0.170   1.424  0.1295 -1.2978  0.5389
  358MOL0     C48228  -1.053  -0.156   1.550  0.0044 -0.5929 -1.0021
  358MOL0     C48229  -1.185  -0.187   1.576 -0.4385  0.1515  0.1395
  358MOL0     C48230  -1.263  -0.225   1.474 -0.6418 -0.5169 -0.7053
  358MOL0     O48231  -1.386  -0.260   1.516  0.0498 -0.0283  0.8335
  358MOL0     C48232  -1.484  -0.325   1.429  0.0854  0.1306 -0.0534
  358MOL0     C48233  -1.597  -0.385   1.512 -0.8234  0.1240  0.5260
  358MOL0     C48234  -1.720  -0.414   1.420 -0.7874 -0.2230 -0.0471
  358MOL0     C48235  -1.828  -0.474   1.511 -0.4556  0.4671  0.4558
  358MOL0     C48236  -1.962  -0.489   1.440  0.3804 -0.2846 -0.4111
  358MOL0     C48237  -2.045  -0.601   1.502  0.4250 -0.7977 -0.1203
  358MOL0     C48238  -2.174  -0.618   1.428  1.0919 -0.3293  0.3454
  358MOL0     C48239  -2.236  -0.757   1.428 -0.2706  0.3005 -0.4146
  358MOL0    Cl48240  -2.322  -0.796   1.585  0.5142 -0.1078  0.1639
  358MOL0     C48241  -1.215  -0.238   1.342  0.0419 -0.3334 -0.2431
  358MOL0     C48242  -1.081  -0.208   1.317 -0.4016  0.9155 -0.7249
  358MOL0     O48243  -0.901   0.024   1.261  0.5264 -0.1635  0.3324
  358MOL0     C48244  -0.586  -0.117   1.356  0.3592 -0.6147 -0.2949
  358MOL0     C48245  -0.454  -0.094   1.354 -0.9978  0.1341  0.2201
  358MOL0     N48246  -0.245   0.336   0.959  0.6627  0.2711 -0.9720
  358MOL0     N48247  -0.304   0.419   0.880  0.0848 -0.1995  0.2078
  358MOL0     C48248   0.016   1.585   0.646  0.3736  0.1370 -0.3410
  358MOL0     C48249   0.122   1.640   0.563 -0.2250  0.3373 -0.0542
  358MOL0     C48250   0.479   1.933   0.571 -0.2791 -0.0914  0.0127
  358MOL0     C48251   0.577   1.860   0.505 -0.4521 -0.7822 -0.2358
  358MOL0     C48252   0.676   1.929   0.446 -0.6827  0.9192 -1.0367
  358MOL0     C48253   0.692   2.066   0.443  0.4109  0.9477 -0.7127
  358MOL0     O48254   0.802   2.115   0.379  0.7869  0.4350 -0.2692
  358MOL0     C48255   0.834   2.250   0.403 -0.1679  0.7054  0.1105
  358MOL0     C48256   0.986   2.283   0.372 -0.9027 -0.1730  0.0669
  358MOL0     C48257   1.079   2.223   0.473 -0.2670 -0.1860  0.0694
  358MOL0     C48258   1.223   2.282   0.442  0.7917 -0.4946  0.2449
  358MOL0     C48259   1.301   2.205   0.335 -0.1278 -1.1637 -0.1547
  358MOL0     C48260   1.368   2.137   0.263 -0.9871  0.0254 -0.1322
  358MOL0     C48261   0.587   2.143   0.498  0.0057  0.8120 -0.2680
  358MOL0     C48262   0.488   2.074   0.571  0.5935 -0.0261  0.9006
  358MOL0     H48263   0.332   1.664   0.834  1.1232 -2.6084 -2.1579
  358MOL0     H48264   0.156   1.552   0.951  1.1584 -0.6139  0.4089
  358MOL0     H48265   0.004   1.350   0.922 -1.4343 -1.5698 -1.5934
  358MOL0     H48266  -0.105   1.456   1.035  2.0795  0.1174  0.6728
  358MOL0     H48267  -0.296   1.347   0.959 -0.3951 -1.5649 -1.2208
  358MOL0     H48268  -0.215   1.286   0.816  2.7119 -3.5871 -0.2865
  358MOL0     H48269  -0.097   1.113   0.913 -0.5393 -1.0456 -0.3599
  358MOL0     H48270  -0.139   1.166   1.081 -1.6450 -1.4359  0.4909
  358MOL0     H48271  -0.385   1.130   1.025  2.1828  1.3344  3.7381
  358MOL0     H48272  -0.323   1.081   0.854 -1.1968 -1.2778  0.4715
  358MOL0     H48273  -0.194   0.901   0.997  0.3137  1.8934 -1.8693
  358MOL0     H48274  -0.296   0.940   1.136  1.0127  1.5777  0.9769
  358MOL0     H48275  -0.492   0.881   1.034 -0.1005 -3.2637  2.1432
  358MOL0     H48276  -0.421   0.892   0.869 -1.1302  1.3196  1.0008
  358MOL0     H48277  -0.324   0.685   1.066 -3.0573 -0.0356  1.5444
  358MOL0     H48278  -0.454   0.643   0.968 -0.0978  0.5408 -0.0692
  358MOL0     H48279  -0.176   0.731   0.880 -0.2132  0.3544  1.4429
  358MOL0     H48280  -0.307   0.673   0.759 -1.5844 -1.6994  0.2732
  358MOL0     H48281  -0.032   0.575   0.983 -1.5724  0.8715  1.6212
  358MOL0     H48282  -0.015   0.193   1.031 -0.6894 -0.0710 -0.0790
  358MOL0     H48283   0.088   0.336   1.026  0.2041 -0.3559  1.5450
  358MOL0     H48284  -0.063   0.384   1.238 -0.4385 -0.2300 -0.2704
  358MOL0     H48285   0.100   0.307   1.246  0.7574  0.6140 -1.9751
  358MOL0     H48286  -0.070   0.198   1.395 -0.9176 -2.0545 -1.2581
  358MOL0     H48287   0.020   0.096   1.295  2.2051  2.2058  2.3606
  358MOL0     H48288  -0.182   0.078   1.142 -0.3185 -2.0357  1.2069
  358MOL0     H48289  -0.249   0.222   1.226 -1.9088  0.0156  2.3294
  358MOL0     H48290  -0.463   0.217   1.241 -2.4037  0.4824  0.3224
  358MOL0     H48291  -0.765   0.171   1.107  1.3269  1.8143 -1.8835
  358MOL0     H48292  -0.808   0.233   1.261  1.6340  2.3347  0.1184
  358MOL0     H48293  -0.665   0.303   1.174  4.3794  0.0188  1.4430
  358MOL0     H48294  -0.989  -0.126   1.633 -4.3497  0.6493  2.2937
  358MOL0     H48295  -1.224  -0.178   1.678 -2.5215 -3.4710 -0.1660
  358MOL0     H48296  -1.530  -0.258   1.355  0.2587  0.4954  0.1637
  358MOL0     H48297  -1.435  -0.405   1.374  1.1577  1.7095 -1.5214
  358MOL0     H48298  -1.564  -0.480   1.557  0.7257 -0.0916 -0.9780
  358MOL0     H48299  -1.629  -0.312   1.587 -1.0299  0.1525  0.4112
  358MOL0     H48300  -1.687  -0.471   1.333 -0.0472  0.4752 -0.2353
  358MOL0     H48301  -1.760  -0.317   1.393 -0.2315  0.0390  0.0581
  358MOL0     H48302  -1.791  -0.572   1.543  4.1034  2.4540  2.0628
  358MOL0     H48303  -1.843  -0.418   1.604 -1.0307  4.6878 -1.9558
  358MOL0     H48304  -1.943  -0.507   1.334 -1.9816 -0.2560 -0.8841
  358MOL0     H48305  -2.022  -0.398   1.446 -0.4462 -0.9092  2.4826
  358MOL0     H48306  -1.994  -0.698   1.495  0.3790 -0.7341 -4.3826
  358MOL0     H48307  -2.063  -0.589   1.609  3.3973 -1.0878  0.4783
  358MOL0     H48308  -2.152  -0.589   1.325 -1.2260 -0.0333 -0.1222
  358MOL0     H48309  -2.242  -0.545   1.472  1.9686 -0.1034  1.3575
  358MOL0     H48310  -2.162  -0.831   1.397 -2.5171 -3.5083  2.3490
  358MOL0     H48311  -2.325  -0.757   1.365 -1.6978  1.9253  1.4655
  358MOL0     H48312  -1.287  -0.274   1.269 -0.8103  0.2716  0.2808
  358MOL0     H48313  -1.029  -0.210   1.222 -0.5695 -0.4261 -0.8063
  358MOL0     H48314  -0.626  -0.200   1.413  1.1764  0.5919  2.1804
  358MOL0     H48315  -0.392  -0.161   1.412 -4.0917  0.6860  4.7231
  358MOL0     H48316  -0.065   1.578   0.574  0.2112 -0.6133 -0.0964
  358MOL0     H48317   0.118   1.664   0.457  2.8633 -0.5719 -0.4790
  358MOL0     H48318   0.569   1.754   0.524 -1.9881 -1.3147 -3.2282
  358MOL0     H48319   0.758   1.873   0.404 -1.0170  2.4441 -4.0105
  358MOL0     H48320   0.760   2.312   0.351 -1.0020 -0.6243 -0.3156
  358MOL0     H48321   0.820   2.267   0.511 -0.2857  0.0620  0.1999
  358MOL0     H48322   0.996   2.391   0.365  1.2522 -0.3497 -0.4659
  358MOL0     H48323   1.014   2.251   0.271 -0.7059 -0.2841  0.1559
  358MOL0     H48324   1.071   2.114   0.479 -1.9545 -0.0117  2.4158
  358MOL0     H48325   1.058   2.254   0.576 -0.1140 -1.2131  0.4299
  358MOL0     H48326   1.281   2.273   0.535 -0.1155 -1.6783  0.7309
  358MOL0     H48327   1.216   2.389   0.422 -1.2885 -0.6159  0.1158
  358MOL0     H48328   1.424   2.070   0.201 -0.3574  2.4972 -2.4261
  358MOL0     H48329   0.574   2.250   0.487  3.7682  1.3807 -0.2636
  358MOL0     H48330   0.409   2.135   0.612 -0.5513  0.0822 -1.3139
  359MOL0     O48331   9.712   9.389   3.344  1.0223 -0.8531  0.2238
  359MOL0     C48332   9.614   9.436   3.291  0.1545  0.1532 -0.7737
  359MOL0     O48333   9.530   9.534   3.356 -0.3747 -1.0823  0.2748
  359MOL0     C48334   9.573   9.582   3.475 -0.0805 -0.0106 -0.5777
  359MOL0     C48335   9.642   9.703   3.468 -0.7499 -0.4046  0.0593
  359MOL0     C48336   9.706   9.758   3.586  0.1096  0.5476 -0.6852
  359MOL0     C48337   9.693   9.690   3.713 -0.6036  0.1198  0.5626
  359MOL0     O48338   9.747   9.756   3.821 -0.0976 -0.1300 -0.2544
  359MOL0     C48339   9.698   9.724   3.950 -0.3376 -1.0573  0.6316
  359MOL0     C48340   9.798   9.777   4.052 -0.6651 -0.5140  0.4274
  359MOL0     C48341   9.846   9.921   4.031 -0.2383  0.5459  0.6220
  359MOL0     C48342   9.889   9.974   4.168  0.3326  0.4882 -0.8471
  359MOL0     C48343  10.011   9.912   4.251  0.0073  0.0150 -0.5368
  359MOL0     C48344  10.138   9.920   4.166  1.3342 -0.3436  0.5772
  359MOL0     C48345  10.267   9.867   4.237 -0.2012 -0.8207 -0.4312
  359MOL0     C48346  10.276   9.721   4.246 -0.7654 -0.4092  0.2767
  359MOL0     N48347  10.410   9.686   4.278  0.1524  0.2991  0.6340
  359MOL0     C48348  10.480   9.693   4.397  0.2965 -0.0447  0.5760
  359MOL0     C48349  10.608   9.648   4.375  0.0723  0.0501  0.3341
  359MOL0     C48350  10.732   9.634   4.466  0.9872 -0.0564  0.8464
  359MOL0     C48351  10.754   9.766   4.543  0.2649 -0.4835  0.9489
  359MOL0     C48352  10.849   9.732   4.661  0.5216 -0.2045  0.3430
  359MOL0     C48353  10.880   9.859   4.750  0.6013  0.1334 -0.4988
  359MOL0     O48354  10.963   9.839   4.869 -0.7714 -0.1600  0.3151
  359MOL0     C48355  10.915   9.774   4.986 -0.3151  0.2344  0.7598
  359MOL0     C48356  10.844   9.845   5.077 -0.7876  0.2313  0.0982
  359MOL0     C48357  10.802   9.795   5.200  0.5265  0.7382 -0.8629
  359MOL0     C48358  10.729   9.881   5.293  0.7941  0.8220 -0.3868
  359MOL0     C48359  10.855   9.664   5.230  0.5969  0.7332  0.6279
  359MOL0     C48360  10.843   9.600   5.364 -0.4914 -0.1428 -0.4651
  359MOL0     O48361  10.826   9.462   5.355  0.1732  0.0630  1.0299
  359MOL0     C48362  10.852   9.406   5.478 -0.6537  0.4179 -0.1921
  359MOL0     C48363  10.747   9.371   5.567  0.7555  0.7902 -0.3096
  359MOL0     C48364  10.775   9.278   5.666 -0.4464 -0.5194  0.7861
  359MOL0     C48365  10.901   9.258   5.716  0.3787 -0.3725 -0.2557
  359MOL0     O48366  10.914   9.231   5.854  0.0410 -0.5384  0.3101
  359MOL0     C48367  11.035   9.261   5.920 -1.7026  0.3846 -0.0309
  359MOL0     C48368  11.029   9.228   6.071 -0.2629 -1.2010 -0.7948
  359MOL0     C48369  11.093   9.346   6.152  0.7203 -0.6961  0.7834
  359MOL0     C48370  11.074   9.321   6.301 -0.7011 -0.2788 -0.0129
  359MOL0     C48371  11.179   9.415   6.373 -0.5594 -0.5049 -0.4731
  359MOL0     C48372  11.151   9.439   6.523  0.5503  0.6769  0.7424
  359MOL0     C48373  11.233   9.578   6.563  1.0169 -0.2970 -0.8062
  359MOL0     C48374  11.375   9.534   6.597 -0.6770 -0.4350  0.0726
  359MOL0    Cl48375  11.468   9.671   6.631 -0.2148 -0.2585 -0.0479
  359MOL0     C48376  11.015   9.292   5.634  0.2849  0.0962  0.1174
  359MOL0     C48377  10.982   9.349   5.512 -0.5467  0.0229  0.2789
  359MOL0     O48378  10.851   9.664   5.471  0.4918  0.2564  0.6692
  359MOL0     C48379  10.922   9.586   5.137  0.6830  0.9275  0.9842
  359MOL0     C48380  10.958   9.649   5.015  0.1643 -1.1488 -0.3323
  359MOL0     N48381  10.617   9.625   4.236  0.1669  0.7079 -0.4212
  359MOL0     N48382  10.501   9.646   4.180 -0.1637 -0.4186  0.0899
  359MOL0     C48383   9.627   9.567   3.710 -0.2720 -0.0010  0.2267
  359MOL0     C48384   9.577   9.515   3.596 -0.4511  0.5471  0.4271
  359MOL0     C48385   9.565   9.390   3.157 -0.5272 -0.8002  1.1173
  359MOL0     C48386   9.464   9.456   3.082  0.2819 -0.3468  0.2288
  359MOL0     C48387   9.448   9.418   2.952  0.3935  0.3392  0.5038
  359MOL0     C48388   9.518   9.319   2.879 -0.9911 -1.1601 -0.0138
  359MOL0     O48389   9.482   9.294   2.759 -0.0081 -0.1040  0.9734
  359MOL0     C48390   9.554   9.195   2.679  0.3662 -0.3066  0.1950
  359MOL0     C48391   9.504   9.204   2.538  0.1256  0.5331  0.5035
  359MOL0     C48392   9.554   9.332   2.475 -0.5743 -0.2847  1.5462
  359MOL0     C48393   9.493   9.351   2.337 -0.4285 -0.0308  0.4956
  359MOL0     C48394   9.569   9.452   2.250 -0.0943  0.1583  0.1225
  359MOL0     C48395   9.632   9.529   2.175 -0.2734  0.0212 -0.6590
  359MOL0     C48396   9.626   9.253   2.951 -0.0920  0.4660 -0.3085
  359MOL0     C48397   9.641   9.288   3.086 -0.7597 -0.3566  1.1451
  359MOL0     H48398   9.661   9.751   3.372  2.6056  0.4884  1.0488
  359MOL0     H48399   9.769   9.844   3.570  0.5062  0.5906  0.8977
  359MOL0     H48400   9.598   9.765   3.967 -1.2795 -3.6502  1.9650
  359MOL0     H48401   9.702   9.617   3.975  0.2272 -1.0283  0.6937
  359MOL0     H48402   9.770   9.745   4.152 -0.2577 -1.4093  0.2618
  359MOL0     H48403   9.888   9.717   4.037 -0.0658  0.8279 -1.9247
  359MOL0     H48404   9.928   9.921   3.959  2.1173  3.2303  3.0150
  359MOL0     H48405   9.768   9.975   3.978 -1.1170  1.3141  2.5898
  359MOL0     H48406   9.910  10.079   4.144 -0.6462  0.8564 -0.1410
  359MOL0     H48407   9.800   9.973   4.232  1.0564  0.6640  0.1808
  359MOL0     H48408  10.028   9.959   4.349 -2.7134 -1.4462  0.7528
  359MOL0     H48409   9.972   9.812   4.271 -0.6529 -0.3952 -3.4767
  359MOL0     H48410  10.120   9.856   4.079 -1.2735 -1.0911  1.5570
  359MOL0     H48411  10.150  10.022   4.131 -0.2903  0.9107  3.3089
  359MOL0     H48412  10.354   9.898   4.178 -0.4733 -0.0078 -0.4124
  359MOL0     H48413  10.275   9.911   4.336  1.3342  0.6057 -1.1273
  359MOL0     H48414  10.249   9.680   4.148  0.7583 -2.3378  0.6001
  359MOL0     H48415  10.199   9.691   4.317 -0.8663  5.6343  3.3836
  359MOL0     H48416  10.433   9.725   4.490 -2.3625 -0.6099 -0.4811
  359MOL0     H48417  10.705   9.554   4.537 -1.9048 -1.0150 -1.1531
  359MOL0     H48418  10.819   9.614   4.403  1.2268 -1.6815  1.6350
  359MOL0     H48419  10.661   9.804   4.586 -0.1691 -1.4340  0.8744
  359MOL0     H48420  10.798   9.841   4.476  0.5198  0.0084  1.6541
  359MOL0     H48421  10.946   9.699   4.621  1.3795  4.0490 -1.6861
  359MOL0     H48422  10.814   9.659   4.735 -1.7956  2.7017  2.3473
  359MOL0     H48423  10.794   9.910   4.793  1.9644  1.2052  1.0647
  359MOL0     H48424  10.921   9.936   4.685 -2.2176  2.0301 -0.2157
  359MOL0     H48425  10.813   9.944   5.047  0.0799  0.3736 -0.3628
  359MOL0     H48426  10.793   9.928   5.367  1.2990  1.1018 -0.9937
  359MOL0     H48427  10.678   9.957   5.232 -0.7419 -1.2819 -1.9043
  359MOL0     H48428  10.658   9.820   5.349  1.9951  2.1271  2.7610
  359MOL0     H48429  10.645   9.405   5.554 -0.6355 -2.6706  0.3890
  359MOL0     H48430  10.689   9.245   5.723 -0.4517  2.4351  2.6999
  359MOL0     H48431  11.126   9.210   5.888 -1.0710  1.1034  0.5821
  359MOL0     H48432  11.060   9.367   5.909 -1.4909  0.3957  0.5274
  359MOL0     H48433  10.926   9.222   6.107  0.4239  1.2924  1.9537
  359MOL0     H48434  11.078   9.134   6.099 -0.2046 -0.4767  1.7823
  359MOL0     H48435  11.050   9.443   6.125  2.1641  0.2085  1.5823
  359MOL0     H48436  11.194   9.364   6.115  0.0191  1.1990 -0.4132
  359MOL0     H48437  10.978   9.349   6.346  0.2259  0.8165  1.3844
  359MOL0     H48438  11.098   9.218   6.328  2.8747 -0.7631 -4.0313
  359MOL0     H48439  11.171   9.516   6.333  1.0529  0.1743  0.8040
  359MOL0     H48440  11.276   9.379   6.338 -0.7626 -1.0248 -0.5134
  359MOL0     H48441  11.044   9.450   6.542 -0.1176 -3.2727  0.0714
  359MOL0     H48442  11.188   9.353   6.579  2.2596 -0.0729 -1.3877
  359MOL0     H48443  11.185   9.634   6.643  3.7950  1.2002 -0.0718
  359MOL0     H48444  11.236   9.650   6.481  1.0255 -1.9918 -2.3759
  359MOL0     H48445  11.431   9.490   6.515  1.3043  1.0181  0.5539
  359MOL0     H48446  11.381   9.473   6.688 -3.5624  1.4955  1.7049
  359MOL0     H48447  11.109   9.247   5.664  1.1527  0.0266 -2.4984
  359MOL0     H48448  11.057   9.366   5.436 -1.1799  1.3841 -0.0809
  359MOL0     H48449  10.960   9.488   5.164 -0.4830 -1.1110 -3.7353
  359MOL0     H48450  11.007   9.587   4.940 -2.9316 -2.5669 -1.3765
  359MOL0     H48451   9.618   9.503   3.796  0.8613 -1.3070 -0.5810
  359MOL0     H48452   9.537   9.414   3.592  4.4504 -1.6289 -0.7156
  359MOL0     H48453   9.405   9.543   3.110  0.9868  1.7249 -3.9433
  359MOL0     H48454   9.367   9.478   2.912  1.1279  0.3007 -1.0910
  359MOL0     H48455   9.663   9.203   2.678  0.6366 -3.0509 -0.8586
  359MOL0     H48456   9.521   9.102   2.725 -2.2726  0.6573  0.4250
  359MOL0     H48457   9.395   9.210   2.535  0.1508  1.1137  0.6533
  359MOL0     H48458   9.555   9.128   2.479 -0.0447 -0.1231  1.1853
  359MOL0     H48459   9.662   9.321   2.462 -0.6811  0.5465 -0.4571
  359MOL0     H48460   9.531   9.417   2.539  1.6494  0.1094  1.8973
  359MOL0     H48461   9.396   9.397   2.357 -0.6825  0.2234 -1.1439
  359MOL0     H48462   9.499   9.260   2.277 -1.3896 -0.2508  0.7363
  359MOL0     H48463   9.702   9.601   2.137 -0.8020  0.0165 -1.6684
  359MOL0     H48464   9.681   9.170   2.907 -1.8815 -1.5040  0.9365
  359MOL0     H48465   9.729   9.255   3.140  0.0639  1.6599  1.1233
  360MOL0     O48466   0.531   6.364   9.610  0.3397 -1.2413 -0.4748
  360MOL0     C48467   0.578   6.381   9.718 -0.6865 -1.3609  0.1069
  360MOL0     O48468   0.704   6.430   9.735 -0.0952 -0.8951  0.3874
  360MOL0     C48469   0.810   6.412   9.645  0.8700  0.9757  0.2999
  360MOL0     C48470   0.937   6.469   9.669 -0.5341 -0.0029 -0.0064
  360MOL0     C48471   1.036   6.480   9.569 -0.2301 -0.7502 -1.0313
  360MOL0     C48472   1.020   6.412   9.444 -1.0317  0.9219  0.6020
  360MOL0     O48473   1.123   6.440   9.346  0.1139  0.0825  0.1861
  360MOL0     C48474   1.112   6.381   9.207 -0.5708  0.7053 -0.3102
  360MOL0     C48475   1.027   6.481   9.130 -0.1429  0.3092  0.6332
  360MOL0     C48476   1.075   6.487   8.979  0.5628  0.5357 -0.7674
  360MOL0     C48477   0.975   6.421   8.887 -0.4352 -0.2272 -0.1045
  360MOL0     C48478   0.995   6.499   8.758  0.2165 -0.4416  1.0821
  360MOL0     C48479   0.927   6.636   8.750 -0.0054 -0.4566  0.3932
  360MOL0     C48480   0.979   6.699   8.621 -0.0042  0.2478  0.1108
  360MOL0     C48481   0.895   6.819   8.584  0.1710  0.1810  0.3508
  360MOL0     N48482   0.937   6.905   8.475  0.6836 -0.5652 -0.2218
  360MOL0     C48483   1.028   6.858   8.382 -0.1175 -0.4821  0.3067
  360MOL0     C48484   1.072   6.972   8.328  0.3148 -0.4782  0.7328
  360MOL0     C48485   1.172   6.993   8.221 -0.6696 -0.8725  0.1354
  360MOL0     C48486   1.127   7.118   8.133  0.7473  1.1529 -0.7378
  360MOL0     C48487   1.201   7.110   7.997 -0.4588  1.1274  0.0856
  360MOL0     C48488   1.166   7.233   7.915  0.1324 -0.8098 -0.2704
  360MOL0     O48489   1.207   7.207   7.778  0.1320  0.9707  0.0322
  360MOL0     C48490   1.205   7.302   7.679 -0.0306 -0.0463  0.3128
  360MOL0     C48491   1.250   7.251   7.562 -0.9246  0.7772 -0.2691
  360MOL0     C48492   1.255   7.327   7.441 -0.4919 -1.1588  0.3643
  360MOL0     C48493   1.308   7.279   7.305  0.0585  0.3798 -0.4541
  360MOL0     C48494   1.202   7.456   7.454 -0.4824 -0.3534 -0.1178
  360MOL0     C48495   1.195   7.552   7.348  0.1021  0.4962 -0.0274
  360MOL0     O48496   1.080   7.623   7.338  0.5147 -0.5169 -0.5038
  360MOL0     C48497   1.082   7.713   7.234  0.1999  0.1624  1.4975
  360MOL0     C48498   1.072   7.851   7.254  0.1828 -0.8058 -0.3258
  360MOL0     C48499   1.064   7.940   7.148 -0.0395 -0.1951  0.1468
  360MOL0     C48500   1.072   7.890   7.018  0.8418 -0.2227 -0.5281
  360MOL0     O48501   1.071   7.976   6.914  0.3946 -0.1752  0.5497
  360MOL0     C48502   1.155   7.954   6.807 -0.2020  0.4321 -0.7853
  360MOL0     C48503   1.069   7.936   6.687 -0.2213  0.0889  0.9229
  360MOL0     C48504   0.945   8.030   6.672 -0.0660  0.3655  0.0489
  360MOL0     C48505   0.993   8.171   6.632 -0.1531  0.1441  0.1988
  360MOL0     C48506   0.866   8.257   6.607  0.0672  0.5301  0.0694
  360MOL0     C48507   0.903   8.388   6.554 -0.1756  0.1334  1.3627
  360MOL0     C48508   0.783   8.495   6.560 -0.2713  0.4307 -1.3041
  360MOL0     C48509   0.760   8.557   6.429  0.7973 -0.3911  0.6500
  360MOL0    Cl48510   0.896   8.629   6.360  0.0432  0.4407  0.7569
  360MOL0     C48511   1.078   7.749   6.995  0.3203  1.3358 -0.6724
  360MOL0     C48512   1.089   7.660   7.103 -0.0135 -0.8041 -1.0682
  360MOL0     O48513   1.307   7.576   7.292 -0.1817 -0.4068  0.8249
  360MOL0     C48514   1.156   7.508   7.578  0.5404 -0.7156 -0.0812
  360MOL0     C48515   1.163   7.435   7.693 -0.3365 -0.4387 -0.3403
  360MOL0     N48516   1.015   7.084   8.395  0.1620 -0.0901 -0.1922
  360MOL0     N48517   0.926   7.043   8.479 -0.5035 -1.0984  0.1753
  360MOL0     C48518   0.904   6.337   9.434 -0.2971 -0.2985 -0.1926
  360MOL0     C48519   0.807   6.327   9.534 -0.9493  0.8996  0.7602
  360MOL0     C48520   0.491   6.366   9.837  0.1379  0.3916 -0.7219
  360MOL0     C48521   0.357   6.344   9.832 -0.2704 -0.3166 -0.7306
  360MOL0     C48522   0.273   6.337   9.946 -0.4158  0.3576 -0.5503
  360MOL0     C48523   0.328   6.360  10.074  0.1400  0.8198 -0.7604
  360MOL0     O48524   0.272   6.354  10.199 -0.1745  0.7661 -0.4950
  360MOL0     C48525   0.128   6.375  10.201 -0.3360  1.1881  0.6269
  360MOL0     C48526   0.077   6.361  10.343  0.0803  0.3064 -1.9629
  360MOL0     C48527   0.091   6.213  10.403 -0.8249 -0.5723  0.4826
  360MOL0     C48528   0.027   6.108  10.312  0.4940  1.1928  0.1449
  360MOL0     C48529  -0.123   6.113  10.293  0.0527 -0.5549 -0.2487
  360MOL0     C48530  -0.242   6.125  10.277 -0.2926 -0.2681 -0.2957
  360MOL0     C48531   0.466   6.394  10.083  0.5138 -0.2859 -0.3912
  360MOL0     C48532   0.549   6.391   9.962  0.1531 -0.4223  1.0350
  360MOL0     H48533   0.972   6.530   9.752 -1.7046  1.4314 -0.5268
  360MOL0     H48534   1.134   6.519   9.595 -0.7688  0.6329 -0.9357
  360MOL0     H48535   1.212   6.370   9.165 -1.3071  2.6345 -2.8445
  360MOL0     H48536   1.064   6.283   9.212 -0.1457  0.5267  0.4947
  360MOL0     H48537   0.924   6.444   9.128 -0.7985  1.7629  2.9296
  360MOL0     H48538   1.027   6.581   9.175  0.5987  0.1368  1.0198
  360MOL0     H48539   1.082   6.593   8.955  0.8971  1.3510  2.4369
  360MOL0     H48540   1.177   6.450   8.974  2.3145  2.8239  6.0099
  360MOL0     H48541   0.984   6.312   8.881 -0.4371 -0.1642 -2.2158
  360MOL0     H48542   0.869   6.429   8.915 -0.6316  1.7882 -1.2128
  360MOL0     H48543   1.100   6.505   8.728  0.1015 -0.0022  0.7513
  360MOL0     H48544   0.945   6.443   8.679 -2.5164  0.3536  2.1154
  360MOL0     H48545   0.819   6.625   8.751  0.2206 -4.0522 -0.1346
  360MOL0     H48546   0.952   6.702   8.834 -2.9728  1.6493 -0.2326
  360MOL0     H48547   1.087   6.719   8.620  0.0218  0.1726  0.8645
  360MOL0     H48548   0.961   6.637   8.532  1.5884  1.2641 -0.9610
  360MOL0     H48549   0.899   6.879   8.675 -0.1983  0.6231  0.0764
  360MOL0     H48550   0.792   6.786   8.566  1.0604 -3.2459  0.7115
  360MOL0     H48551   1.061   6.758   8.355 -0.4695 -0.4975 -0.0610
  360MOL0     H48552   1.272   7.010   8.260 -0.7313  2.5565 -0.9190
  360MOL0     H48553   1.164   6.907   8.153 -0.8880 -0.0625 -0.8901
  360MOL0     H48554   1.135   7.213   8.187  0.1278 -0.3514  2.1739
  360MOL0     H48555   1.023   7.095   8.108  0.1705 -0.1765  2.4830
  360MOL0     H48556   1.188   7.009   7.958  3.3192 -0.5782  2.5937
  360MOL0     H48557   1.309   7.114   8.017 -0.5294 -0.6625  1.0418
  360MOL0     H48558   1.227   7.319   7.944  0.3917 -0.3309 -2.1086
  360MOL0     H48559   1.062   7.267   7.926  0.3015 -0.3765  0.0244
  360MOL0     H48560   1.274   7.146   7.570  1.7241  1.1055 -2.3829
  360MOL0     H48561   1.417   7.275   7.314 -0.0321 -0.3944  0.4982
  360MOL0     H48562   1.268   7.178   7.294 -3.1503  1.6414 -1.4636
  360MOL0     H48563   1.261   7.333   7.223 -1.2325  0.8681  0.5620
  360MOL0     H48564   1.057   7.887   7.355 -1.3089 -2.0219 -0.0919
  360MOL0     H48565   1.047   8.046   7.165 -0.5472 -0.6173  2.5639
  360MOL0     H48566   1.227   8.035   6.793  1.0692 -0.3432  0.8915
  360MOL0     H48567   1.209   7.861   6.825  0.4299  1.2697  2.2135
  360MOL0     H48568   1.139   7.946   6.604 -0.4896 -0.0358  0.6773
  360MOL0     H48569   1.025   7.838   6.703 -0.4758  0.0594  0.0732
  360MOL0     H48570   0.881   8.043   6.760 -2.1598  0.9478 -1.4893
  360MOL0     H48571   0.882   7.984   6.595 -0.3679  1.3532 -0.3195
  360MOL0     H48572   1.066   8.213   6.702 -0.5665  2.7909 -0.8134
  360MOL0     H48573   1.048   8.159   6.537  1.8902 -0.1802  1.3567
  360MOL0     H48574   0.826   8.265   6.708  3.7921 -1.9843  1.9622
  360MOL0     H48575   0.810   8.197   6.534  0.6960 -2.8627  2.1615
  360MOL0     H48576   0.990   8.431   6.605  1.5551  0.2146 -1.4178
  360MOL0     H48577   0.943   8.377   6.453 -2.1945  0.6939  0.4523
  360MOL0     H48578   0.811   8.567   6.637 -1.8556 -2.0917  1.9329
  360MOL0     H48579   0.692   8.453   6.604 -0.0961  1.7961  0.4740
  360MOL0     H48580   0.679   8.630   6.430  0.3370 -0.8513 -0.5098
  360MOL0     H48581   0.733   8.477   6.359 -0.3757  2.1818 -2.0656
  360MOL0     H48582   1.088   7.690   6.905  2.3297  0.0178  0.3369
  360MOL0     H48583   1.102   7.553   7.098 -0.6908 -0.9602  0.2403
  360MOL0     H48584   1.120   7.607   7.601 -2.5480 -1.8932  0.5962
  360MOL0     H48585   1.118   7.473   7.784 -1.0051 -0.4669 -0.6566
  360MOL0     H48586   0.894   6.284   9.340  1.3855  0.3969 -0.8116
  360MOL0     H48587   0.720   6.263   9.520  1.1035 -2.0639  0.6928
  360MOL0     H48588   0.304   6.340   9.737 -3.1146 -2.8058  0.8051
  360MOL0     H48589   0.166   6.329   9.933 -0.5449 -0.1553  0.7281
  360MOL0     H48590   0.098   6.478  10.177 -4.2935 -0.0844 -0.8243
  360MOL0     H48591   0.069   6.305  10.141 -1.0984 -0.3246  2.9723
  360MOL0     H48592  -0.030   6.384  10.347 -1.0496 -4.1406 -0.0897
  360MOL0     H48593   0.124   6.440  10.402 -1.5192  0.3517 -0.6964
  360MOL0     H48594   0.029   6.214  10.493  0.5474  1.9090  1.4922
  360MOL0     H48595   0.192   6.178  10.426  0.3126  0.9180 -1.8523
  360MOL0     H48596   0.035   6.011  10.363 -0.9970 -0.7144 -2.9391
  360MOL0     H48597   0.083   6.087  10.221 -1.9848 -2.3114 -0.7702
  360MOL0     H48598  -0.349   6.132  10.288 -0.3641 -1.7160  0.0496
  360MOL0     H48599   0.513   6.427  10.176 -1.6092  1.7293  0.0519
  360MOL0     H48600   0.654   6.417   9.971 -0.3767  1.8154  1.5042
  361MOL0     O48601  10.482   6.872   5.491 -0.7680  0.0016 -0.9387
  361MOL0     C48602  10.507   6.991   5.491 -0.3320 -0.2168 -0.1398
  361MOL0     O48603  10.467   7.087   5.581 -0.3352  0.1377 -0.0956
  361MOL0     C48604  10.382   7.049   5.673 -0.1318  0.2614 -1.1110
  361MOL0     C48605  10.431   7.019   5.801  0.2283  0.1607  0.4246
  361MOL0     C48606  10.338   6.960   5.895 -0.7244 -0.0611 -0.1537
  361MOL0     C48607  10.199   6.948   5.862  0.1789  1.2065  0.1874
  361MOL0     O48608  10.101   6.902   5.952 -0.1784  0.1705  0.9021
  361MOL0     C48609  10.119   6.903   6.092  0.2652  0.4557 -0.7915
  361MOL0     C48610   9.979   6.929   6.165 -0.2690 -0.7131  0.4044
  361MOL0     C48611   9.883   6.810   6.157  0.8774  0.4564 -0.6828
  361MOL0     C48612   9.933   6.673   6.180  0.7528  0.5495 -0.0290
  361MOL0     C48613   9.816   6.580   6.153  0.9051  0.6384 -0.0922
  361MOL0     C48614   9.878   6.437   6.171 -0.3564 -0.5306 -0.1213
  361MOL0     C48615   9.765   6.334   6.169 -0.1882 -0.0975  0.2495
  361MOL0     C48616   9.808   6.192   6.186 -0.6902 -0.0494  0.2811
  361MOL0     N48617   9.719   6.080   6.144 -0.4775 -0.6378  0.0269
  361MOL0     C48618   9.586   6.096   6.100 -0.6316  0.3048  0.4316
  361MOL0     C48619   9.526   5.975   6.130  0.1772 -0.3785  0.2865
  361MOL0     C48620   9.375   5.953   6.097 -0.6030  0.2135 -0.5061
  361MOL0     C48621   9.338   5.924   5.955 -0.3371 -0.2622 -0.4638
  361MOL0     C48622   9.413   5.805   5.890  0.4566 -0.1776  0.3586
  361MOL0     C48623   9.371   5.677   5.962 -0.6945 -0.5607  0.9548
  361MOL0     O48624   9.446   5.567   5.900 -0.1689 -0.4463  0.8548
  361MOL0     C48625   9.422   5.442   5.936  0.4972  0.3968 -0.0493
  361MOL0     C48626   9.502   5.335   5.890  0.1501 -0.3274  0.0737
  361MOL0     C48627   9.489   5.207   5.935 -0.2642  0.0888  0.1024
  361MOL0     C48628   9.604   5.124   5.890 -0.1384 -0.0269 -0.4970
  361MOL0     C48629   9.391   5.172   6.031 -0.0560 -0.4188 -0.1725
  361MOL0     C48630   9.376   5.033   6.076  0.0076  0.7841 -0.4628
  361MOL0     O48631   9.385   5.014   6.213  0.1085 -0.0638 -0.4060
  361MOL0     C48632   9.397   4.882   6.254  0.3376  0.3705 -0.2255
  361MOL0     C48633   9.514   4.841   6.299 -0.1758  0.7689 -0.3928
  361MOL0     C48634   9.530   4.715   6.370  0.1616 -0.8859  0.1744
  361MOL0     C48635   9.423   4.623   6.379 -0.5736 -0.6568 -0.6291
  361MOL0     O48636   9.436   4.503   6.449 -0.2861 -0.5544  0.0656
  361MOL0     C48637   9.572   4.453   6.460 -0.3701 -0.1205  0.0265
  361MOL0     C48638   9.569   4.297   6.456 -0.3958  0.0711 -0.9239
  361MOL0     C48639   9.710   4.251   6.485  0.0164 -0.5920  1.0424
  361MOL0     C48640   9.714   4.108   6.531 -0.4837  0.4757 -0.8789
  361MOL0     C48641   9.854   4.063   6.535 -0.1282  0.0838  1.4898
  361MOL0     C48642   9.860   3.918   6.585 -0.0253  0.3924 -0.0978
  361MOL0     C48643   9.790   3.815   6.488  0.7996 -0.0388 -0.6764
  361MOL0     C48644   9.786   3.670   6.533  0.4544 -0.1079 -0.3038
  361MOL0    Cl48645   9.951   3.594   6.562 -0.1797 -0.0408  0.3454
  361MOL0     C48646   9.299   4.653   6.321 -0.1734  1.6022  0.0860
  361MOL0     C48647   9.293   4.788   6.270  0.1220  0.7980 -0.7384
  361MOL0     O48648   9.362   4.947   5.996 -0.3511  0.2050  0.2510
  361MOL0     C48649   9.286   5.264   6.051  0.3757 -0.5465  0.3043
  361MOL0     C48650   9.313   5.401   6.008  0.0946 -0.4464 -0.4765
  361MOL0     N48651   9.623   5.884   6.177  0.2347  0.8331  0.1287
  361MOL0     N48652   9.734   5.952   6.187 -0.2681  0.2988  0.4734
  361MOL0     C48653  10.159   6.976   5.732 -0.0424 -0.9631 -0.2270
  361MOL0     C48654  10.253   7.018   5.642  0.8399  0.5500  0.6704
  361MOL0     C48655  10.589   7.046   5.386  0.1987  1.0759 -1.5237
  361MOL0     C48656  10.657   7.166   5.407 -0.1083  0.0331  0.5009
  361MOL0     C48657  10.731   7.234   5.305  0.1280 -0.0565 -0.6750
  361MOL0     C48658  10.737   7.171   5.183  0.0251 -0.5399  0.1897
  361MOL0     O48659  10.811   7.241   5.085 -0.6385  0.1987  0.0193
  361MOL0     C48660  10.921   7.165   5.025 -0.9215  0.3042  0.2943
  361MOL0     C48661  10.949   7.208   4.881  0.3206  0.4409  0.8452
  361MOL0     C48662  10.827   7.191   4.796  0.2419 -0.0650 -0.3363
  361MOL0     C48663  10.857   7.185   4.648  0.3045  0.2876  1.9772
  361MOL0     C48664  10.945   7.072   4.605  0.0857  0.5552  0.1699
  361MOL0     C48665  11.028   6.982   4.575  0.0568  0.0244 -0.5811
  361MOL0     C48666  10.674   7.044   5.161  1.3729 -0.0075  0.3332
  361MOL0     C48667  10.601   6.982   5.259  0.1412  1.0113  0.0511
  361MOL0     H48668  10.535   7.045   5.816  0.6208  0.7447 -2.6067
  361MOL0     H48669  10.370   6.931   5.994 -0.9187 -0.1251 -0.1087
  361MOL0     H48670  10.145   6.802   6.127  3.7243  0.1119 -3.8257
  361MOL0     H48671  10.196   6.974   6.121  0.2238  1.1182 -2.2584
  361MOL0     H48672   9.984   6.953   6.272 -1.3235 -1.0336  0.5356
  361MOL0     H48673   9.943   7.025   6.127  1.0820  0.3835  1.7681
  361MOL0     H48674   9.804   6.812   6.232  1.0567 -1.7441 -0.3563
  361MOL0     H48675   9.833   6.818   6.060 -0.6226  2.9479  0.2091
  361MOL0     H48676  10.004   6.642   6.101 -2.3285 -4.4673 -1.3096
  361MOL0     H48677   9.965   6.668   6.284  0.1840  1.4033  0.1898
  361MOL0     H48678   9.743   6.606   6.230 -0.0824  1.3696 -1.2289
  361MOL0     H48679   9.773   6.592   6.053  1.8478  1.5923 -0.4031
  361MOL0     H48680   9.943   6.414   6.086 -3.4336 -0.3271 -2.7013
  361MOL0     H48681   9.936   6.418   6.262  1.2569 -1.3122 -1.2507
  361MOL0     H48682   9.691   6.346   6.249 -4.1056  0.2500 -3.0742
  361MOL0     H48683   9.715   6.351   6.073 -0.4189 -0.4169  0.3123
  361MOL0     H48684   9.838   6.175   6.290 -2.5412  0.3938  0.9143
  361MOL0     H48685   9.905   6.174   6.139 -0.7265 -2.5640  0.9888
  361MOL0     H48686   9.534   6.181   6.058 -0.9476  0.1863  0.5765
  361MOL0     H48687   9.317   5.878   6.151 -2.3341  1.1360 -0.9971
  361MOL0     H48688   9.338   6.049   6.135  2.1117  1.0812  0.1700
  361MOL0     H48689   9.339   6.010   5.888  2.1432  0.7477  0.7666
  361MOL0     H48690   9.232   5.897   5.961 -0.8577  1.7809  0.1033
  361MOL0     H48691   9.522   5.818   5.900  0.2442  0.5297  2.0525
  361MOL0     H48692   9.383   5.796   5.785 -0.7551  2.1026  0.4547
  361MOL0     H48693   9.264   5.669   5.983 -1.1314  2.4167  0.4084
  361MOL0     H48694   9.423   5.673   6.058 -1.1778  2.1154  1.4244
  361MOL0     H48695   9.583   5.349   5.819 -1.1615 -3.1580 -2.2063
  361MOL0     H48696   9.609   5.026   5.938  4.1629 -0.2118 -0.9850
  361MOL0     H48697   9.600   5.095   5.785  0.8511 -2.2213  0.0156
  361MOL0     H48698   9.696   5.179   5.909 -1.3345  3.4414 -3.5493
  361MOL0     H48699   9.603   4.903   6.296 -0.1338  0.7492  0.2738
  361MOL0     H48700   9.623   4.706   6.424  0.1644  4.2121  1.5245
  361MOL0     H48701   9.638   4.490   6.381 -2.7971  2.9115 -0.7652
  361MOL0     H48702   9.620   4.480   6.554 -1.3126 -1.2416  0.8612
  361MOL0     H48703   9.497   4.269   6.533 -1.2195  1.1888 -1.2650
  361MOL0     H48704   9.539   4.263   6.356 -0.3845 -0.9487 -0.5921
  361MOL0     H48705   9.757   4.303   6.569  0.1217  1.2351 -0.0984
  361MOL0     H48706   9.774   4.266   6.398 -0.2377 -1.1755  0.7441
  361MOL0     H48707   9.664   4.098   6.627  1.2592 -0.5160 -0.0283
  361MOL0     H48708   9.650   4.060   6.456 -1.7662  0.1172  0.4159
  361MOL0     H48709   9.911   4.132   6.598  2.0315 -0.9804  0.8295
  361MOL0     H48710   9.901   4.075   6.437  0.9802  2.7248  2.2518
  361MOL0     H48711   9.966   3.892   6.594  0.6600  2.9012 -0.2641
  361MOL0     H48712   9.817   3.913   6.686 -0.7647  1.0710 -0.3729
  361MOL0     H48713   9.842   3.830   6.392  0.7368 -2.4569 -1.1354
  361MOL0     H48714   9.685   3.839   6.468  1.1658  0.0233 -2.8676
  361MOL0     H48715   9.733   3.618   6.452  1.3223  0.9472 -1.5838
  361MOL0     H48716   9.729   3.667   6.627  0.4133 -1.1740 -0.3437
  361MOL0     H48717   9.215   4.584   6.318 -0.7165  1.7729  4.6412
  361MOL0     H48718   9.197   4.824   6.235  0.2257  1.3006 -0.5135
  361MOL0     H48719   9.199   5.235   6.109 -0.5316  2.7504  0.8198
  361MOL0     H48720   9.246   5.477   6.047  1.6252  0.7749 -0.1293
  361MOL0     H48721  10.054   6.972   5.704  0.3677  0.7585 -2.3025
  361MOL0     H48722  10.210   7.035   5.544 -0.0193 -1.5304  0.6225
  361MOL0     H48723  10.654   7.225   5.497  1.5100  0.3693  0.3744
  361MOL0     H48724  10.772   7.330   5.332 -0.0378 -0.3580  0.7130
  361MOL0     H48725  11.011   7.154   5.087 -1.9260 -0.6014  1.6478
  361MOL0     H48726  10.900   7.058   5.016 -0.5128  0.3989 -3.2288
  361MOL0     H48727  11.028   7.156   4.826 -0.0868  2.1810 -1.5688
  361MOL0     H48728  10.991   7.309   4.892 -1.4993  1.1959  1.1599
  361MOL0     H48729  10.758   7.275   4.801  2.6241  2.6078 -5.2048
  361MOL0     H48730  10.779   7.096   4.823  3.4648 -2.7689 -3.1491
  361MOL0     H48731  10.895   7.283   4.617  1.7479 -0.1121  2.3946
  361MOL0     H48732  10.758   7.175   4.603  0.7683  2.1914  0.4136
  361MOL0     H48733  11.100   6.913   4.536 -2.4718 -2.2098 -1.6381
  361MOL0     H48734  10.662   6.987   5.069 -2.4142  0.8598  0.1258
  361MOL0     H48735  10.544   6.892   5.235  1.0506  0.5053 -0.2860
  362MOL0     O48736   3.103   4.943   2.935 -0.1022 -0.3363 -0.3893
  362MOL0     C48737   3.219   4.900   2.927  0.4946  0.2567 -0.2023
  362MOL0     O48738   3.314   4.929   2.830  0.4506  0.3752  0.1489
  362MOL0     C48739   3.282   5.041   2.757  0.1294 -0.4974  0.2333
  362MOL0     C48740   3.326   5.168   2.802 -0.5432  0.2011 -0.0962
  362MOL0     C48741   3.312   5.283   2.732 -0.3196  0.3357 -0.3016
  362MOL0     C48742   3.229   5.282   2.610 -0.0053  0.3209  0.3604
  362MOL0     O48743   3.207   5.404   2.557  0.3830 -0.0085 -0.4016
  362MOL0     C48744   3.097   5.416   2.457  0.2831  0.3904  0.5287
  362MOL0     C48745   3.096   5.551   2.392  0.1401 -0.5821  0.5038
  362MOL0     C48746   2.960   5.573   2.333  0.2965 -0.7183  0.4285
  362MOL0     C48747   2.962   5.718   2.267  0.1138  0.2539  0.2512
  362MOL0     C48748   2.851   5.727   2.165 -0.4383 -1.2719 -1.2294
  362MOL0     C48749   2.833   5.869   2.120  0.2139  0.5174 -0.7882
  362MOL0     C48750   2.925   5.905   2.003 -0.1070  0.1500  0.0129
  362MOL0     C48751   2.885   6.034   1.944  1.2919 -0.5737  0.3622
  362MOL0     N48752   2.781   6.022   1.835  0.1040  0.3917 -0.2795
  362MOL0     C48753   2.803   5.957   1.715 -0.2907  1.0603  0.0543
  362MOL0     C48754   2.691   5.989   1.646  0.4680 -0.6737  0.4512
  362MOL0     C48755   2.669   5.968   1.498 -0.4838  0.6586 -0.6237
  362MOL0     C48756   2.548   5.884   1.475 -0.3365 -0.0317 -0.4516
  362MOL0     C48757   2.526   5.871   1.321  0.4540  0.0538 -0.2488
  362MOL0     C48758   2.432   5.757   1.290 -0.6259 -0.0286  0.8749
  362MOL0     O48759   2.394   5.752   1.152 -0.0679  0.1811 -0.3341
  362MOL0     C48760   2.471   5.695   1.059  0.5579  0.1007  0.3635
  362MOL0     C48761   2.497   5.559   1.052 -0.1484 -0.0186 -0.0018
  362MOL0     C48762   2.566   5.490   0.946  0.4063  0.7767 -0.1853
  362MOL0     C48763   2.596   5.343   0.979  0.9462  0.3558 -0.5225
  362MOL0     C48764   2.600   5.568   0.837 -0.3240  0.4354 -1.0332
  362MOL0     C48765   2.657   5.510   0.725 -0.2723  0.1262  0.1665
  362MOL0     O48766   2.714   5.595   0.636  0.3972  0.2315 -0.4174
  362MOL0     C48767   2.741   5.549   0.511  0.7659  0.5494 -0.8124
  362MOL0     C48768   2.641   5.531   0.412 -0.6046 -0.5241  0.9760
  362MOL0     C48769   2.685   5.472   0.292  0.1613  0.4111  0.6451
  362MOL0     C48770   2.811   5.419   0.271 -0.5939  0.5096  0.5129
  362MOL0     O48771   2.853   5.357   0.156 -0.4453 -0.4343 -0.2944
  362MOL0     C48772   2.775   5.371   0.035 -0.8993  0.2818 -0.7821
  362MOL0     C48773   2.882   5.328  -0.070 -0.4420 -0.7202  0.5778
  362MOL0     C48774   2.942   5.189  -0.052 -0.1316 -0.6727  0.1168
  362MOL0     C48775   3.030   5.160  -0.167 -0.6610  0.1650 -0.7783
  362MOL0     C48776   2.953   5.123  -0.288  0.6544 -0.1635 -0.3584
  362MOL0     C48777   3.057   5.104  -0.404  0.5415 -0.6754 -0.9790
  362MOL0     C48778   3.133   4.982  -0.377  0.2611  0.4390  0.4712
  362MOL0     C48779   3.283   5.004  -0.318  0.6029  0.4688  0.4413
  362MOL0    Cl48780   3.368   5.130  -0.420  0.2633  0.5681  0.4107
  362MOL0     C48781   2.909   5.443   0.371  0.1137 -0.2019  0.0389
  362MOL0     C48782   2.876   5.513   0.483  0.4587 -0.0344  0.2453
  362MOL0     O48783   2.624   5.393   0.698  0.3544 -0.2477 -0.6279
  362MOL0     C48784   2.584   5.703   0.836 -0.1623 -1.3846 -0.5827
  362MOL0     C48785   2.518   5.763   0.946  0.2378 -0.3643  0.6565
  362MOL0     N48786   2.604   6.058   1.722 -0.2132  0.4157  0.2092
  362MOL0     N48787   2.664   6.084   1.833  0.5322  0.0275 -0.0501
  362MOL0     C48788   3.162   5.159   2.572 -0.4719 -0.1752 -0.2863
  362MOL0     C48789   3.213   5.041   2.636  0.6753 -0.2703  0.4377
  362MOL0     C48790   3.257   4.801   3.026  0.3131  0.2141 -0.1432
  362MOL0     C48791   3.382   4.746   3.031 -0.1698  0.5967 -0.7152
  362MOL0     C48792   3.418   4.638   3.108 -0.2105 -0.5850  0.3963
  362MOL0     C48793   3.327   4.559   3.179  0.0262  0.7688 -0.1826
  362MOL0     O48794   3.357   4.439   3.244 -0.0171  0.0170 -0.5788
  362MOL0     C48795   3.484   4.427   3.310 -0.5125 -0.1404  0.0957
  362MOL0     C48796   3.499   4.286   3.361 -0.8341  0.2032  0.6030
  362MOL0     C48797   3.435   4.241   3.501 -0.2693 -0.1476  0.3219
  362MOL0     C48798   3.499   4.296   3.626 -0.0059 -0.2411 -0.1491
  362MOL0     C48799   3.408   4.268   3.737  0.2240 -0.0249 -0.2901
  362MOL0     C48800   3.339   4.233   3.826 -0.4920  0.3958  0.5491
  362MOL0     C48801   3.195   4.598   3.171 -0.5600 -0.9421 -0.0910
  362MOL0     C48802   3.155   4.722   3.098  0.0504  0.0717  0.4733
  362MOL0     H48803   3.384   5.168   2.894 -0.5580 -0.4002 -0.0802
  362MOL0     H48804   3.365   5.375   2.753  1.9924 -0.0754 -3.5352
  362MOL0     H48805   3.120   5.343   2.380  2.3044 -0.4301  1.8155
  362MOL0     H48806   3.000   5.394   2.504  0.8882 -1.5827  0.9236
  362MOL0     H48807   3.123   5.636   2.456 -0.6829  2.4329 -2.8321
  362MOL0     H48808   3.178   5.567   2.321  1.5318 -0.2168  2.1024
  362MOL0     H48809   2.940   5.509   2.247 -0.5919 -2.1844  1.6680
  362MOL0     H48810   2.879   5.566   2.407 -1.5222 -0.8525 -1.5016
  362MOL0     H48811   2.945   5.797   2.341  1.0668  0.2587  0.4784
  362MOL0     H48812   3.056   5.743   2.216  1.4182 -1.3590  1.7631
  362MOL0     H48813   2.878   5.658   2.084  0.5804 -0.5152 -1.5586
  362MOL0     H48814   2.756   5.703   2.214  1.0220 -3.6520  0.6765
  362MOL0     H48815   2.731   5.882   2.083  0.7840  3.4038 -1.6113
  362MOL0     H48816   2.853   5.938   2.203  3.4859  2.5275 -2.9919
  362MOL0     H48817   3.020   5.915   2.055  0.3148 -1.4193 -0.3864
  362MOL0     H48818   2.934   5.821   1.933  0.7743 -2.1785  2.7199
  362MOL0     H48819   2.969   6.088   1.899  1.1377 -2.0091 -1.7956
  362MOL0     H48820   2.844   6.091   2.027 -0.6161 -0.7747 -0.4061
  362MOL0     H48821   2.890   5.904   1.678  0.7087  1.1914  2.0562
  362MOL0     H48822   2.664   6.068   1.456  3.9381  0.7992 -1.3238
  362MOL0     H48823   2.757   5.926   1.448 -2.0707 -2.9793 -0.7274
  362MOL0     H48824   2.474   5.941   1.531  2.2285  1.6540  1.4968
  362MOL0     H48825   2.567   5.781   1.505  0.8450 -0.4695 -2.4946
  362MOL0     H48826   2.622   5.848   1.273 -1.1012 -2.7297 -2.3097
  362MOL0     H48827   2.485   5.962   1.275 -0.1625 -0.4247 -0.6544
  362MOL0     H48828   2.353   5.768   1.365 -1.7626  0.4949 -0.3610
  362MOL0     H48829   2.503   5.676   1.309  2.2335  2.1886  0.1645
  362MOL0     H48830   2.457   5.502   1.135 -0.3265  0.6991  0.4216
  362MOL0     H48831   2.513   5.286   0.936  0.2741  1.7231 -1.0967
  362MOL0     H48832   2.694   5.310   0.943 -0.1412 -1.0252 -2.3736
  362MOL0     H48833   2.616   5.336   1.086  2.3049  1.6873 -0.6501
  362MOL0     H48834   2.535   5.546   0.431 -0.3846  0.0019  1.8134
  362MOL0     H48835   2.605   5.463   0.219 -0.1439 -1.3945  1.1567
  362MOL0     H48836   2.694   5.299   0.042 -1.0299  0.5983  1.9847
  362MOL0     H48837   2.732   5.471   0.019  0.2617  0.4417 -3.4787
  362MOL0     H48838   2.832   5.350  -0.165 -3.1000  1.7615  2.3569
  362MOL0     H48839   2.965   5.399  -0.072 -0.5148 -0.6365  0.5022
  362MOL0     H48840   2.864   5.116  -0.031 -0.0744 -0.6567  0.3978
  362MOL0     H48841   2.995   5.186   0.044 -2.6457  1.1024  1.6708
  362MOL0     H48842   3.103   5.240  -0.183  0.5846 -1.0979 -1.6954
  362MOL0     H48843   3.086   5.073  -0.132 -0.4069  1.8521  3.5898
  362MOL0     H48844   2.887   5.206  -0.312 -0.9974 -0.7714  1.7663
  362MOL0     H48845   2.892   5.033  -0.272  1.3114 -0.1228  3.2573
  362MOL0     H48846   3.003   5.090  -0.498 -1.4683 -4.6314  0.5276
  362MOL0     H48847   3.121   5.193  -0.405  0.0598 -0.1211  2.4486
  362MOL0     H48848   3.133   4.926  -0.471 -2.7234 -0.2185  0.7793
  362MOL0     H48849   3.073   4.916  -0.315 -0.1582 -0.5226 -0.9062
  362MOL0     H48850   3.343   4.912  -0.322 -0.1180 -0.1069  2.1073
  362MOL0     H48851   3.279   5.021  -0.210  2.1123 -1.3038  0.8317
  362MOL0     H48852   3.017   5.434   0.365  0.1800  1.1070 -1.3198
  362MOL0     H48853   2.954   5.544   0.552  0.6121  2.4918 -0.9437
  362MOL0     H48854   2.599   5.772   0.754 -2.1340 -1.1191 -0.7636
  362MOL0     H48855   2.484   5.864   0.926 -1.0786 -0.6924  1.1747
  362MOL0     H48856   3.090   5.155   2.491 -1.3083  3.5740  0.0655
  362MOL0     H48857   3.193   4.937   2.613 -2.5301  0.0437  1.3816
  362MOL0     H48858   3.461   4.788   2.969  0.3781 -1.4185 -1.4571
  362MOL0     H48859   3.521   4.605   3.101 -0.4399 -1.4162  0.8075
  362MOL0     H48860   3.570   4.451   3.247 -0.7235  2.0987  0.5748
  362MOL0     H48861   3.476   4.492   3.397 -0.9530  0.4579 -0.3774
  362MOL0     H48862   3.607   4.267   3.359 -0.9593 -1.1058  3.0081
  362MOL0     H48863   3.462   4.220   3.282  1.2053  2.5991 -2.6360
  362MOL0     H48864   3.419   4.134   3.513 -1.3911 -0.1064 -0.6335
  362MOL0     H48865   3.337   4.289   3.499  1.1328  3.0810  1.5273
  362MOL0     H48866   3.498   4.405   3.619 -3.1982 -0.1164  0.7937
  362MOL0     H48867   3.602   4.267   3.647  1.0638  0.9512 -3.1870
  362MOL0     H48868   3.272   4.196   3.901 -1.7301 -1.7157 -1.4816
  362MOL0     H48869   3.128   4.534   3.227  0.1102 -1.1393  0.4912
  362MOL0     H48870   3.053   4.759   3.103 -0.1136 -0.3729  0.4611
  363MOL0     O48871   6.386   8.000   3.565  0.4649  0.6756  0.3459
  363MOL0     C48872   6.415   8.073   3.665 -0.6235  0.2990 -0.3817
  363MOL0     O48873   6.350   8.184   3.714  1.0346 -0.1177  0.2455
  363MOL0     C48874   6.256   8.227   3.615 -0.0017  0.0286 -0.2156
  363MOL0     C48875   6.287   8.263   3.487 -0.5814 -0.1569  0.8969
  363MOL0     C48876   6.183   8.299   3.391  0.7436 -0.6944  0.4102
  363MOL0     C48877   6.047   8.298   3.429  0.0663  1.1421 -0.2417
  363MOL0     O48878   5.939   8.316   3.349  0.0433  0.3463 -0.2407
  363MOL0     C48879   5.938   8.378   3.223 -0.2104 -0.0275 -0.6588
  363MOL0     C48880   5.899   8.516   3.245 -0.1575 -0.5323 -0.5743
  363MOL0     C48881   5.850   8.587   3.121  0.5102 -0.0202  0.1964
  363MOL0     C48882   5.818   8.739   3.139  0.0784 -0.4281  0.5735
  363MOL0     C48883   5.730   8.800   3.029  0.0942 -0.2029 -0.3308
  363MOL0     C48884   5.806   8.812   2.897 -0.6881 -0.3552 -0.2731
  363MOL0     C48885   5.708   8.841   2.795  1.1653  0.2352  0.7083
  363MOL0     C48886   5.782   8.836   2.662 -1.1919  0.0899  0.1581
  363MOL0     N48887   5.855   8.715   2.627  0.4546  0.2098  0.2893
  363MOL0     C48888   5.782   8.605   2.592 -0.4317  0.1769 -0.4485
  363MOL0     C48889   5.870   8.506   2.573 -0.0907 -0.0149 -0.5133
  363MOL0     C48890   5.849   8.360   2.546 -0.8012 -1.6008 -0.4824
  363MOL0     C48891   5.968   8.296   2.468 -0.3417  0.7705 -0.4674
  363MOL0     C48892   5.942   8.172   2.383 -0.1274 -0.4476 -0.5358
  363MOL0     C48893   5.890   8.049   2.457 -1.1234 -0.0134  0.4130
  363MOL0     O48894   5.751   8.069   2.461  0.2966  0.3607 -0.7511
  363MOL0     C48895   5.681   8.005   2.559  0.7226 -0.2094 -0.1249
  363MOL0     C48896   5.718   7.905   2.652 -0.6199 -0.5843  0.1119
  363MOL0     C48897   5.636   7.834   2.732 -0.3503 -0.3516 -0.6823
  363MOL0     C48898   5.697   7.735   2.825 -0.0869  0.5022  0.2781
  363MOL0     C48899   5.497   7.859   2.727  0.5439 -0.2219 -0.7633
  363MOL0     C48900   5.391   7.786   2.814 -0.0990 -1.5920  0.4218
  363MOL0     O48901   5.305   7.874   2.871  0.0268 -0.5216 -0.2443
  363MOL0     C48902   5.218   7.846   2.970  0.5000 -0.3153 -0.3113
  363MOL0     C48903   5.130   7.955   2.995 -0.1798  0.1455 -0.4786
  363MOL0     C48904   5.035   7.952   3.086  0.5941 -0.7206  0.3261
  363MOL0     C48905   5.014   7.833   3.161 -0.0969  0.0223  0.3583
  363MOL0     O48906   4.901   7.828   3.244 -0.2102 -0.8668  0.1676
  363MOL0     C48907   4.863   7.710   3.299 -0.1523  0.7106 -0.6784
  363MOL0     C48908   4.727   7.728   3.362  0.6683  0.0432  0.2024
  363MOL0     C48909   4.600   7.719   3.259 -0.1187 -0.0613 -0.7020
  363MOL0     C48910   4.498   7.613   3.289  0.0804 -0.3666 -0.3833
  363MOL0     C48911   4.401   7.588   3.173 -0.2787  0.7354 -0.6946
  363MOL0     C48912   4.323   7.710   3.125 -0.1987  0.1201 -0.2945
  363MOL0     C48913   4.265   7.716   2.988 -0.5268  0.1614  0.5439
  363MOL0     C48914   4.205   7.580   2.934  0.4757 -0.7626 -0.1779
  363MOL0    Cl48915   4.058   7.539   3.027  0.2927 -0.3391 -0.8626
  363MOL0     C48916   5.102   7.723   3.148 -0.4877 -0.3513 -0.1377
  363MOL0     C48917   5.199   7.728   3.043 -0.1928  0.7730  0.3869
  363MOL0     O48918   5.391   7.663   2.821 -0.2784 -0.0831  0.3500
  363MOL0     C48919   5.449   7.962   2.642 -0.6546  0.0061  0.8601
  363MOL0     C48920   5.539   8.030   2.558  0.0690  0.2475 -0.1628
  363MOL0     N48921   5.995   8.557   2.610 -0.0688  0.7309 -0.3567
  363MOL0     N48922   5.984   8.681   2.645  0.5743  0.0528  0.3776
  363MOL0     C48923   6.016   8.241   3.554 -0.8986  0.4161 -0.0800
  363MOL0     C48924   6.115   8.217   3.645 -1.5112 -0.7599 -0.4062
  363MOL0     C48925   6.522   8.028   3.759  0.4313  1.0182 -0.1663
  363MOL0     C48926   6.583   7.898   3.737  0.0958 -0.2827 -0.9319
  363MOL0     C48927   6.654   7.840   3.841 -0.0623 -0.7045  0.3027
  363MOL0     C48928   6.668   7.911   3.965 -0.2344  0.2114  0.2496
  363MOL0     O48929   6.728   7.843   4.062 -0.0611 -0.0053  0.0903
  363MOL0     C48930   6.823   7.899   4.153 -0.8996  0.2611 -0.6866
  363MOL0     C48931   6.971   7.882   4.125  0.2320 -1.3592  0.0494
  363MOL0     C48932   7.025   7.743   4.075  0.5058 -0.2395  0.1917
  363MOL0     C48933   7.166   7.726   4.043 -0.5441  0.3631  0.5509
  363MOL0     C48934   7.189   7.610   3.956  1.2219 -0.1250 -0.0304
  363MOL0     C48935   7.205   7.512   3.884 -0.1975  0.3473 -0.3005
  363MOL0     C48936   6.602   8.037   3.988  0.4773 -0.5710  1.2760
  363MOL0     C48937   6.540   8.093   3.880 -1.1155 -0.4111  0.5949
  363MOL0     H48938   6.386   8.265   3.444 -1.5065  2.3405 -1.4558
  363MOL0     H48939   6.209   8.305   3.285 -0.0762 -0.6715  0.2055
  363MOL0     H48940   6.030   8.379   3.163 -0.1831 -0.6272 -0.6369
  363MOL0     H48941   5.864   8.332   3.157  0.3270  1.0875 -2.0909
  363MOL0     H48942   5.812   8.513   3.311 -0.5811  1.3631 -0.9877
  363MOL0     H48943   5.978   8.564   3.303 -0.1135  0.8042 -1.6908
  363MOL0     H48944   5.928   8.573   3.045 -0.4420  0.6153 -0.9452
  363MOL0     H48945   5.764   8.532   3.082  0.8641 -0.7833  0.4680
  363MOL0     H48946   5.764   8.760   3.231 -1.3073 -4.2714  0.8291
  363MOL0     H48947   5.921   8.776   3.145  0.9900 -2.6424 -0.1366
  363MOL0     H48948   5.635   8.746   3.023 -1.1071  1.9602 -2.0299
  363MOL0     H48949   5.705   8.896   3.076 -1.1466  0.8373 -2.9639
  363MOL0     H48950   5.890   8.879   2.916 -2.0548  1.5057 -0.5188
  363MOL0     H48951   5.858   8.716   2.886  0.0065  0.0990 -1.1290
  363MOL0     H48952   5.633   8.764   2.778 -0.5037  2.0829 -0.9353
  363MOL0     H48953   5.653   8.932   2.818 -1.5724 -0.9958 -0.5701
  363MOL0     H48954   5.845   8.924   2.647  0.4220 -0.9680  0.5094
  363MOL0     H48955   5.702   8.843   2.587 -1.5306 -1.6923  0.3059
  363MOL0     H48956   5.675   8.605   2.570 -1.5483  0.0856  4.0612
  363MOL0     H48957   5.843   8.320   2.648 -0.4924 -0.1582  0.1316
  363MOL0     H48958   5.758   8.340   2.489 -0.1219  0.2971 -2.3399
  363MOL0     H48959   6.048   8.266   2.536  0.6683  1.9039 -1.1166
  363MOL0     H48960   6.010   8.378   2.408  1.2608  0.4849  0.1975
  363MOL0     H48961   6.031   8.137   2.332  1.7672 -0.0595  2.2859
  363MOL0     H48962   5.858   8.202   2.319 -1.5191  2.8710  2.4697
  363MOL0     H48963   5.934   8.053   2.557  5.1759  1.7612 -1.9214
  363MOL0     H48964   5.918   7.955   2.409  0.4183  1.8173 -2.6166
  363MOL0     H48965   5.821   7.878   2.668 -0.2989  1.5197  2.1790
  363MOL0     H48966   5.654   7.637   2.805  0.9148  0.0644  0.2039
  363MOL0     H48967   5.803   7.718   2.806 -0.7272 -1.8703 -1.6579
  363MOL0     H48968   5.680   7.766   2.929 -0.2399 -0.2961  0.4983
  363MOL0     H48969   5.133   8.043   2.931  0.7775 -2.3838 -4.2462
  363MOL0     H48970   4.965   8.031   3.113 -2.4325 -3.8020  2.4059
  363MOL0     H48971   4.872   7.617   3.242  0.8658 -0.0585  0.6760
  363MOL0     H48972   4.923   7.697   3.390 -1.7199  0.0748  0.3095
  363MOL0     H48973   4.712   7.660   3.446  5.5366 -1.1322  0.4432
  363MOL0     H48974   4.725   7.826   3.411  0.5326 -1.3376  3.2175
  363MOL0     H48975   4.635   7.712   3.156 -0.4243 -1.8764 -0.7046
  363MOL0     H48976   4.561   7.821   3.258 -1.1356 -0.4382 -2.1286
  363MOL0     H48977   4.554   7.522   3.309 -0.0278 -0.3115  0.1910
  363MOL0     H48978   4.429   7.638   3.370 -0.6384  2.7400 -1.7699
  363MOL0     H48979   4.333   7.504   3.192 -1.0879  0.9310 -2.4780
  363MOL0     H48980   4.464   7.561   3.088  0.0262  2.3933 -1.0426
  363MOL0     H48981   4.238   7.714   3.194  0.1999 -3.7263  0.6461
  363MOL0     H48982   4.377   7.803   3.143  0.9678 -0.7169  0.6846
  363MOL0     H48983   4.352   7.746   2.929 -0.3362 -2.0153 -0.4069
  363MOL0     H48984   4.188   7.793   2.976  1.1459  1.6307 -1.5411
  363MOL0     H48985   4.280   7.501   2.948 -2.7945 -4.4707 -1.6902
  363MOL0     H48986   4.181   7.597   2.828  2.4950  1.8670 -0.3109
  363MOL0     H48987   5.079   7.639   3.213  0.4483  2.0198  3.4898
  363MOL0     H48988   5.272   7.647   3.037  2.2698  2.9473 -1.3430
  363MOL0     H48989   5.342   7.977   2.632 -1.1977 -3.3978 -0.0004
  363MOL0     H48990   5.501   8.076   2.467  2.2693 -0.0644 -1.2962
  363MOL0     H48991   5.916   8.201   3.572 -1.0005  0.8940  0.4512
  363MOL0     H48992   6.103   8.179   3.746  2.0000  0.0352  0.4517
  363MOL0     H48993   6.566   7.845   3.643  0.3340 -1.6946 -0.2098
  363MOL0     H48994   6.700   7.741   3.837  2.7380  0.4484  1.2833
  363MOL0     H48995   6.814   8.005   4.175  0.3667  0.0418  1.0109
  363MOL0     H48996   6.798   7.839   4.241 -0.0373  0.3666 -0.3658
  363MOL0     H48997   7.037   7.916   4.205  0.1594 -0.8007 -0.1279
  363MOL0     H48998   6.988   7.957   4.047 -2.9436 -0.3761  0.1639
  363MOL0     H48999   6.963   7.737   3.985 -0.7727  5.8731  0.2372
  363MOL0     H49000   7.000   7.688   4.167  0.8206  1.6740  1.4884
  363MOL0     H49001   7.231   7.708   4.129  1.8806  0.3220 -1.1990
  363MOL0     H49002   7.204   7.815   3.992 -0.1070 -1.2628 -2.1222
  363MOL0     H49003   7.217   7.419   3.832  1.2491 -0.3821  1.2366
  363MOL0     H49004   6.602   8.085   4.085 -3.9157  0.6917  0.8715
  363MOL0     H49005   6.498   8.194   3.883 -3.4616 -1.3258  0.9641
  364MOL0     O49006   4.868   5.626   1.002 -0.2600 -0.1378  0.7215
  364MOL0     C49007   4.915   5.517   1.023  0.2884  0.5472 -0.4384
  364MOL0     O49008   4.952   5.467   1.145  0.0056  0.5007  0.5222
  364MOL0     C49009   4.976   5.563   1.237 -0.5222 -0.0287  0.2601
  364MOL0     C49010   5.097   5.634   1.242  0.2142  0.6746  0.1819
  364MOL0     C49011   5.109   5.734   1.340 -0.2895  1.0100  0.6274
  364MOL0     C49012   5.007   5.770   1.437  0.5545  0.4221  0.4094
  364MOL0     O49013   5.010   5.873   1.532  0.0679  0.5764  0.0482
  364MOL0     C49014   5.134   5.948   1.524 -0.0168  0.5133  0.7461
  364MOL0     C49015   5.143   6.070   1.619  0.4152  0.0950  0.4583
  364MOL0     C49016   5.286   6.098   1.621  0.3786  0.2556 -0.0003
  364MOL0     C49017   5.306   6.232   1.705 -0.2355  0.3213 -0.5187
  364MOL0     C49018   5.454   6.248   1.722 -0.1168 -0.0567  1.1484
  364MOL0     C49019   5.472   6.380   1.801  0.0542 -0.2597  1.0034
  364MOL0     C49020   5.450   6.358   1.949  1.0190  0.5894  1.0846
  364MOL0     C49021   5.374   6.474   2.017  0.3351  0.0096 -1.1630
  364MOL0     N49022   5.365   6.451   2.164 -0.1765  0.4209  0.3104
  364MOL0     C49023   5.456   6.493   2.251 -0.9647  0.4386 -0.4039
  364MOL0     C49024   5.407   6.469   2.372 -0.5329  1.1569 -0.5778
  364MOL0     C49025   5.465   6.502   2.511  0.2874  0.5379  0.6519
  364MOL0     C49026   5.611   6.475   2.520  0.1430 -0.0956 -0.1138
  364MOL0     C49027   5.627   6.322   2.498  0.5248 -0.6161 -0.1911
  364MOL0     C49028   5.525   6.233   2.581 -0.3404  0.6614  0.5112
  364MOL0     O49029   5.584   6.099   2.576 -0.3116  0.0481 -0.0676
  364MOL0     C49030   5.556   6.018   2.682 -0.9078 -0.3834 -0.5236
  364MOL0     C49031   5.647   5.916   2.691 -0.4705  1.1987 -0.0872
  364MOL0     C49032   5.626   5.803   2.782 -0.2840 -0.9160 -0.3193
  364MOL0     C49033   5.734   5.712   2.804  0.0200 -0.1684  0.6085
  364MOL0     C49034   5.507   5.793   2.859  0.0656 -0.3712  0.3449
  364MOL0     C49035   5.495   5.687   2.965  0.5400 -0.7020 -0.3793
  364MOL0     O49036   5.607   5.623   3.021  0.3403 -0.5786  0.7611
  364MOL0     C49037   5.588   5.520   3.109  0.2586  1.1830  0.6960
  364MOL0     C49038   5.541   5.534   3.242 -0.2972  0.7719 -0.3646
  364MOL0     C49039   5.537   5.423   3.330 -0.2780 -0.2408  0.6892
  364MOL0     C49040   5.592   5.297   3.297  0.4977 -0.0983  0.3396
  364MOL0     O49041   5.596   5.197   3.390  0.1415 -0.5229 -0.1832
  364MOL0     C49042   5.603   5.061   3.364 -0.1092 -0.0613 -0.4068
  364MOL0     C49043   5.483   4.991   3.426 -0.3741  0.8846 -0.0601
  364MOL0     C49044   5.492   4.841   3.454 -0.2283 -0.8456 -0.4226
  364MOL0     C49045   5.567   4.802   3.584 -0.6424  0.1537 -0.6638
  364MOL0     C49046   5.467   4.799   3.696  0.1346  0.8598  0.3018
  364MOL0     C49047   5.507   4.716   3.814 -0.5344 -0.3630 -0.5685
  364MOL0     C49048   5.453   4.774   3.943  0.2877  0.5468  0.0242
  364MOL0     C49049   5.434   4.668   4.050 -0.6120  0.4524 -0.0540
  364MOL0    Cl49050   5.394   4.761   4.194  0.2416  0.4262 -0.0276
  364MOL0     C49051   5.636   5.283   3.164  0.0819  0.4421  0.2145
  364MOL0     C49052   5.626   5.395   3.074  0.1872 -0.1454 -0.5570
  364MOL0     O49053   5.382   5.667   3.003  0.5277  0.6719  0.8200
  364MOL0     C49054   5.418   5.900   2.839  1.1756 -0.2052 -0.3708
  364MOL0     C49055   5.439   6.015   2.755 -0.0947  0.5616  0.9550
  364MOL0     N49056   5.286   6.401   2.360 -0.3662  0.1892 -0.0831
  364MOL0     N49057   5.272   6.379   2.238  0.0966 -0.0346  0.1025
  364MOL0     C49058   4.889   5.689   1.425  0.0827  0.9915  0.3269
  364MOL0     C49059   4.878   5.595   1.323  0.3848  0.3598  0.9205
  364MOL0     C49060   4.934   5.421   0.905 -1.1732 -0.7200  0.0550
  364MOL0     C49061   4.854   5.431   0.791  0.9844  0.2089 -0.1847
  364MOL0     C49062   4.850   5.326   0.700  0.5605  0.0987  0.3147
  364MOL0     C49063   4.951   5.218   0.706  0.2674 -0.3345  0.4388
  364MOL0     O49064   4.951   5.107   0.627  0.3374 -0.1631  0.6874
  364MOL0     C49065   4.851   5.085   0.531 -0.4597 -0.8327 -0.1105
  364MOL0     C49066   4.880   4.947   0.457  0.1417  0.9355 -1.1753
  364MOL0     C49067   5.005   4.946   0.366 -0.2664  1.2537 -0.2187
  364MOL0     C49068   4.967   4.989   0.220 -0.3289 -0.5366  0.3667
  364MOL0     C49069   4.885   4.890   0.149 -0.2767 -0.6462  0.2828
  364MOL0     C49070   4.829   4.794   0.097 -0.1540  0.4517 -0.0978
  364MOL0     C49071   5.031   5.214   0.820  0.7655 -0.4266 -0.0207
  364MOL0     C49072   5.030   5.315   0.913 -0.0665  0.5154  0.3306
  364MOL0     H49073   5.182   5.606   1.180  0.0567  2.3966 -0.9023
  364MOL0     H49074   5.195   5.797   1.320 -1.4539  3.1524  1.9283
  364MOL0     H49075   5.221   5.881   1.535 -0.0499  0.2962 -0.1897
  364MOL0     H49076   5.147   5.983   1.421  1.4554  0.7695  0.9893
  364MOL0     H49077   5.084   6.152   1.577 -0.5224 -0.6508  0.2503
  364MOL0     H49078   5.102   6.042   1.717 -0.5381 -1.8713 -0.4387
  364MOL0     H49079   5.332   6.016   1.678 -0.2236  1.0511  1.6984
  364MOL0     H49080   5.331   6.101   1.522 -2.3040 -1.8637 -1.4288
  364MOL0     H49081   5.255   6.322   1.668 -1.3439  0.9079  2.2104
  364MOL0     H49082   5.256   6.205   1.798  2.5326  0.3723  1.0831
  364MOL0     H49083   5.501   6.164   1.774 -0.5684 -1.4368 -0.5964
  364MOL0     H49084   5.501   6.266   1.625 -2.0388  5.1774  0.8721
  364MOL0     H49085   5.572   6.422   1.787 -0.1475  0.5823  2.0140
  364MOL0     H49086   5.399   6.456   1.772  1.1902 -0.1753 -2.0582
  364MOL0     H49087   5.387   6.269   1.963 -0.0667  1.3684  1.3519
  364MOL0     H49088   5.545   6.330   1.995 -0.0424 -0.8289  2.5470
  364MOL0     H49089   5.277   6.477   1.968  1.2582  3.6095 -3.1700
  364MOL0     H49090   5.418   6.574   2.011  3.5793 -0.9652  2.2757
  364MOL0     H49091   5.544   6.551   2.225 -1.0405  0.9077  0.3733
  364MOL0     H49092   5.451   6.609   2.529 -2.2107  0.2204  0.9633
  364MOL0     H49093   5.415   6.458   2.598  1.7643  0.6656  1.5888
  364MOL0     H49094   5.643   6.504   2.620 -1.1171 -3.1413  1.3293
  364MOL0     H49095   5.666   6.537   2.449 -1.7488 -0.4291 -1.9662
  364MOL0     H49096   5.729   6.296   2.528  2.2749  0.5937 -4.3729
  364MOL0     H49097   5.629   6.303   2.390  1.0926 -0.1232 -0.2727
  364MOL0     H49098   5.425   6.240   2.537 -0.1949 -1.5259 -0.2902
  364MOL0     H49099   5.526   6.286   2.677  1.8148  1.6017  0.0310
  364MOL0     H49100   5.729   5.919   2.620  0.9100 -1.8916  1.1666
  364MOL0     H49101   5.787   5.728   2.898  0.0366 -1.6688  0.8699
  364MOL0     H49102   5.690   5.614   2.785 -0.4725  0.7077 -4.1635
  364MOL0     H49103   5.815   5.705   2.731  2.5127 -0.8579  3.2590
  364MOL0     H49104   5.500   5.631   3.270 -2.2142  0.2085 -1.1152
  364MOL0     H49105   5.508   5.434   3.434 -1.9785 -1.0734  0.3338
  364MOL0     H49106   5.609   5.033   3.258  2.2353 -0.6827 -0.1772
  364MOL0     H49107   5.691   5.020   3.415  0.8483  1.1392 -1.0338
  364MOL0     H49108   5.464   5.040   3.522  0.1357  1.1245 -0.0802
  364MOL0     H49109   5.399   5.011   3.359 -0.6063 -1.4348 -0.5530
  364MOL0     H49110   5.551   4.801   3.371 -1.7097 -2.0105 -0.9529
  364MOL0     H49111   5.394   4.795   3.440 -2.3102  3.1232 -0.3787
  364MOL0     H49112   5.605   4.701   3.570 -2.0193 -0.7002  1.2456
  364MOL0     H49113   5.650   4.871   3.601 -0.0175 -0.5383 -0.8783
  364MOL0     H49114   5.374   4.753   3.661  2.5382 -1.4596 -3.8460
  364MOL0     H49115   5.446   4.903   3.722 -0.8232  1.3387 -2.1715
  364MOL0     H49116   5.474   4.612   3.801  0.6013 -0.5253 -2.5283
  364MOL0     H49117   5.616   4.704   3.823 -0.3608 -1.6908 -3.4837
  364MOL0     H49118   5.349   4.802   3.923  0.2102  2.9016  2.9623
  364MOL0     H49119   5.513   4.859   3.977 -2.5536  2.3873  0.8127
  364MOL0     H49120   5.529   4.614   4.057 -0.8581 -0.0603 -0.5986
  364MOL0     H49121   5.354   4.599   4.023  0.8299 -1.3063 -0.0195
  364MOL0     H49122   5.673   5.189   3.124  1.1922  0.9806 -0.0960
  364MOL0     H49123   5.651   5.383   2.969 -2.5468  0.2521 -1.3284
  364MOL0     H49124   5.325   5.881   2.890  1.0997  1.6699  0.2770
  364MOL0     H49125   5.373   6.100   2.745 -1.8627 -0.7426  0.9779
  364MOL0     H49126   4.795   5.700   1.477 -0.1647 -0.9176  0.3260
  364MOL0     H49127   4.787   5.536   1.324  1.8570 -2.0709  2.7227
  364MOL0     H49128   4.771   5.502   0.784  0.0717 -0.3744  3.0170
  364MOL0     H49129   4.771   5.327   0.625  1.6765  0.5208 -0.8947
  364MOL0     H49130   4.757   5.080   0.588  1.4903 -1.3976  3.2865
  364MOL0     H49131   4.842   5.175   0.469  1.4580 -0.1255  0.5704
  364MOL0     H49132   4.789   4.926   0.400  0.1504 -2.9594 -0.0542
  364MOL0     H49133   4.891   4.868   0.532  0.8014  1.3812 -0.7927
  364MOL0     H49134   5.057   4.850   0.371 -2.2370  0.1251 -0.2686
  364MOL0     H49135   5.057   5.029   0.415 -0.5470  1.6482 -0.5888
  364MOL0     H49136   5.063   5.010   0.171  0.0165 -0.0245  1.2499
  364MOL0     H49137   4.913   5.084   0.219 -0.1150 -0.4179 -0.3036
  364MOL0     H49138   4.793   4.704   0.050  0.6798  0.2438 -0.3462
  364MOL0     H49139   5.110   5.140   0.810 -1.0183 -2.6791  1.5019
  364MOL0     H49140   5.086   5.294   1.003 -1.8114 -2.9366  0.7647
  365MOL0     O49141   8.113   0.184   4.072 -0.3815  0.2414  0.4599
  365MOL0     C49142   8.059   0.109   4.149 -0.3364 -0.1385 -0.6031
  365MOL0     O49143   8.042   0.140   4.288  0.3340 -0.3756  0.2021
  365MOL0     C49144   8.045   0.264   4.330 -0.5285  0.3405  0.2183
  365MOL0     C49145   7.949   0.364   4.286 -0.2549 -0.4535 -0.2042
  365MOL0     C49146   7.947   0.488   4.344  0.7903 -0.0026  0.0966
  365MOL0     C49147   8.045   0.515   4.439 -0.0407 -0.4050 -0.4116
  365MOL0     O49148   8.038   0.635   4.492  1.0244  0.0482 -0.1762
  365MOL0     C49149   8.164   0.702   4.513  0.0156  0.5849 -0.4359
  365MOL0     C49150   8.157   0.851   4.474  0.4393  0.3767  0.3999
  365MOL0     C49151   8.148   0.883   4.315  0.0378 -0.2290  0.9108
  365MOL0     C49152   8.166   1.024   4.269  0.6458 -0.1155 -0.2605
  365MOL0     C49153   8.068   1.125   4.329 -0.6151 -1.2874  0.5518
  365MOL0     C49154   7.926   1.075   4.323  0.7115 -0.0765  0.0463
  365MOL0     C49155   7.828   1.178   4.397  0.0862  0.5664 -0.5858
  365MOL0     C49156   7.688   1.143   4.438 -0.5330  0.5345 -0.8226
  365MOL0     N49157   7.643   1.221   4.555  0.3972 -0.3428  0.4699
  365MOL0     C49158   7.676   1.346   4.609 -0.9295 -0.2472  0.1547
  365MOL0     C49159   7.586   1.372   4.714 -0.0903 -0.5007 -0.7309
  365MOL0     C49160   7.588   1.504   4.789  0.1849  0.6677  0.0910
  365MOL0     C49161   7.508   1.605   4.705 -1.6921 -0.2204 -0.0052
  365MOL0     C49162   7.519   1.748   4.763  0.3883  0.0194 -0.2477
  365MOL0     C49163   7.438   1.847   4.675  1.1121 -0.2276  0.5365
  365MOL0     O49164   7.298   1.812   4.685  0.4221  0.8890  0.3401
  365MOL0     C49165   7.195   1.881   4.625 -1.2236 -0.3623 -1.2072
  365MOL0     C49166   7.067   1.845   4.670 -1.4325  0.0215  0.4308
  365MOL0     C49167   6.956   1.902   4.606  0.4154 -0.4874  0.2667
  365MOL0     C49168   6.815   1.865   4.650  0.2340 -0.3767  0.0204
  365MOL0     C49169   6.970   1.992   4.488 -0.4984  0.2564  0.3506
  365MOL0     C49170   6.865   2.073   4.415  0.3766  0.2761 -0.8036
  365MOL0     O49171   6.892   2.120   4.291  0.1586 -0.1401  0.4804
  365MOL0     C49172   6.806   2.219   4.237 -0.0551 -0.0365 -0.1323
  365MOL0     C49173   6.817   2.355   4.277 -0.3364  1.0144 -0.5072
  365MOL0     C49174   6.720   2.447   4.243 -0.3005 -0.0896  0.7719
  365MOL0     C49175   6.605   2.403   4.171  0.6014 -1.1952 -0.0197
  365MOL0     O49176   6.517   2.508   4.132  0.9052 -0.0984 -0.1118
  365MOL0     C49177   6.418   2.459   4.036  0.4390  0.4924  0.2848
  365MOL0     C49178   6.340   2.588   3.995 -0.1235 -0.2883  0.7087
  365MOL0     C49179   6.301   2.582   3.854  0.5233  0.4572  0.1595
  365MOL0     C49180   6.175   2.504   3.822  0.6691  0.5090  0.0141
  365MOL0     C49181   6.149   2.493   3.678  0.4875  0.7115  0.7777
  365MOL0     C49182   6.033   2.394   3.652  0.0724 -0.9049 -0.3793
  365MOL0     C49183   5.901   2.471   3.629  0.6713 -0.8257 -0.4792
  365MOL0     C49184   5.788   2.377   3.676  0.7469 -0.2609 -1.0759
  365MOL0    Cl49185   5.627   2.454   3.670 -0.0665  0.3305 -0.6817
  365MOL0     C49186   6.605   2.270   4.119  0.4481 -0.3438 -0.3375
  365MOL0     C49187   6.704   2.175   4.153 -0.4498 -0.2358  0.8523
  365MOL0     O49188   6.769   2.119   4.486  0.4479  0.4115 -0.4696
  365MOL0     C49189   7.106   2.029   4.456  0.0507 -0.7123 -1.1583
  365MOL0     C49190   7.221   1.976   4.528  0.0396  0.6376  0.0421
  365MOL0     N49191   7.518   1.247   4.731  0.4608 -0.9092  0.4233
  365MOL0     N49192   7.563   1.164   4.640  0.9946  0.7156 -0.1232
  365MOL0     C49193   8.143   0.430   4.471 -0.1419 -0.6100 -0.8051
  365MOL0     C49194   8.139   0.297   4.424  1.0364 -0.0510  1.2343
  365MOL0     C49195   8.034  -0.028   4.095 -0.4531  0.4216 -0.5317
  365MOL0     C49196   8.020  -0.135   4.188 -0.5255 -0.5281  0.2872
  365MOL0     C49197   8.000  -0.262   4.147 -0.2604 -0.2137  0.4693
  365MOL0     C49198   8.003  -0.297   4.010  0.0283 -0.4391  1.1004
  365MOL0     O49199   7.999  -0.428   3.959 -0.7606 -0.0662 -0.1678
  365MOL0     C49200   8.093  -0.525   4.008  0.4240 -0.2655 -0.1583
  365MOL0     C49201   8.238  -0.475   3.990 -0.5158  0.2513  0.4670
  365MOL0     C49202   8.352  -0.563   4.045 -0.2820  0.2855  0.3043
  365MOL0     C49203   8.368  -0.535   4.196 -0.1203 -0.1563 -0.3969
  365MOL0     C49204   8.439  -0.647   4.254 -0.0050 -0.2200 -0.0654
  365MOL0     C49205   8.498  -0.750   4.300 -0.4984  0.3427 -0.3217
  365MOL0     C49206   8.010  -0.195   3.917 -0.6553  0.1000  0.9176
  365MOL0     C49207   8.031  -0.062   3.960 -0.2687  0.4115  0.0122
  365MOL0     H49208   7.863   0.362   4.220 -0.2989  0.6133 -0.2033
  365MOL0     H49209   7.871   0.562   4.321  1.6528  0.5447 -1.0490
  365MOL0     H49210   8.177   0.698   4.621 -4.4943 -1.1512  0.2741
  365MOL0     H49211   8.234   0.648   4.449 -0.2521  2.7584 -2.7313
  365MOL0     H49212   8.061   0.877   4.519  0.3447 -1.6109  1.4703
  365MOL0     H49213   8.232   0.916   4.521 -0.2883  2.4913 -1.1994
  365MOL0     H49214   8.233   0.833   4.267  0.1815 -0.1736  1.1052
  365MOL0     H49215   8.056   0.840   4.276 -0.5819  0.8566  1.1403
  365MOL0     H49216   8.267   1.053   4.299  0.4726  3.1903 -2.2773
  365MOL0     H49217   8.151   1.032   4.161 -2.4416  0.7635  0.1393
  365MOL0     H49218   8.091   1.143   4.435  1.4044 -1.0481  0.1078
  365MOL0     H49219   8.085   1.211   4.263  1.1956 -3.1526 -1.5728
  365MOL0     H49220   7.889   1.073   4.220 -2.3507  1.2702  0.9907
  365MOL0     H49221   7.913   0.975   4.365  3.6704 -1.6296 -2.3517
  365MOL0     H49222   7.886   1.202   4.486  0.2125  0.5750 -0.6698
  365MOL0     H49223   7.824   1.264   4.329 -0.1514  1.5770  0.6794
  365MOL0     H49224   7.676   1.041   4.475 -1.4312  1.7195  2.5798
  365MOL0     H49225   7.633   1.147   4.344  0.1856 -1.6647 -1.4031
  365MOL0     H49226   7.759   1.407   4.575 -0.9470 -0.7947 -0.9171
  365MOL0     H49227   7.545   1.482   4.888 -0.3533  0.2566 -0.2316
  365MOL0     H49228   7.690   1.543   4.798 -0.1367  2.2366 -2.1868
  365MOL0     H49229   7.403   1.574   4.708 -1.3946 -1.2202  0.5626
  365MOL0     H49230   7.546   1.604   4.603 -0.1816  0.6765  0.5164
  365MOL0     H49231   7.626   1.770   4.760  0.4618 -0.3588 -0.5185
  365MOL0     H49232   7.505   1.749   4.871 -0.8012 -0.8166 -0.3795
  365MOL0     H49233   7.459   1.843   4.568 -1.6156  1.7231 -0.1717
  365MOL0     H49234   7.450   1.944   4.724 -1.5361  1.4269 -1.7944
  365MOL0     H49235   7.043   1.777   4.752  1.9135 -0.7900  0.8926
  365MOL0     H49236   6.761   1.960   4.660 -1.6117 -1.3936  0.1504
  365MOL0     H49237   6.765   1.815   4.566 -2.6617  2.5104 -0.2158
  365MOL0     H49238   6.795   1.805   4.739 -3.8046 -1.9366 -1.6559
  365MOL0     H49239   6.893   2.389   4.346 -0.9569  0.9846  0.2012
  365MOL0     H49240   6.723   2.549   4.281 -0.7971  0.0744  0.3864
  365MOL0     H49241   6.468   2.396   3.962  2.2046 -1.3576  2.8933
  365MOL0     H49242   6.343   2.405   4.094 -0.3808  3.2251  1.9765
  365MOL0     H49243   6.255   2.605   4.062 -0.8458  1.6635 -0.6180
  365MOL0     H49244   6.413   2.668   4.006 -0.0811 -0.4583  1.7920
  365MOL0     H49245   6.382   2.542   3.792  1.3942  0.7994  1.0364
  365MOL0     H49246   6.268   2.684   3.833 -3.4274 -0.7802 -0.3060
  365MOL0     H49247   6.182   2.399   3.852 -1.4724  0.3798  0.1858
  365MOL0     H49248   6.084   2.546   3.866  0.3713 -0.2548  0.1475
  365MOL0     H49249   6.239   2.461   3.626 -0.1644  1.4447 -0.8881
  365MOL0     H49250   6.137   2.599   3.650 -0.2178  0.1547 -1.1567
  365MOL0     H49251   6.052   2.333   3.563  1.5024  1.7693 -2.0364
  365MOL0     H49252   6.023   2.329   3.739 -0.3098 -1.9676 -1.1933
  365MOL0     H49253   5.884   2.492   3.523 -2.4770  1.6773  0.3608
  365MOL0     H49254   5.892   2.564   3.686 -2.5047 -0.5469 -1.2216
  365MOL0     H49255   5.808   2.366   3.782  1.7184  1.4758 -1.0397
  365MOL0     H49256   5.794   2.284   3.619  1.0227 -1.3801  0.7178
  365MOL0     H49257   6.535   2.229   4.047 -2.2022  0.3560  1.6684
  365MOL0     H49258   6.704   2.071   4.122 -2.2866 -0.2970  0.9809
  365MOL0     H49259   7.121   2.104   4.378 -4.6910  1.8438  0.0449
  365MOL0     H49260   7.324   2.006   4.509  1.4512 -3.0326  0.9811
  365MOL0     H49261   8.209   0.462   4.551  0.1076  1.5440 -1.8088
  365MOL0     H49262   8.212   0.219   4.442  0.4199 -1.9145 -3.1148
  365MOL0     H49263   8.026  -0.114   4.294 -0.7557  2.6728 -0.2163
  365MOL0     H49264   7.989  -0.339   4.222 -0.0631  1.1677  1.9578
  365MOL0     H49265   8.063  -0.556   4.109  0.8372  0.7793  0.2991
  365MOL0     H49266   8.091  -0.620   3.954  0.5137 -0.9617  1.0147
  365MOL0     H49267   8.256  -0.376   4.031  0.6882  0.3162 -0.1903
  365MOL0     H49268   8.258  -0.462   3.884 -1.2177 -0.1042  0.2845
  365MOL0     H49269   8.447  -0.538   3.996  0.4470 -0.7919  1.0957
  365MOL0     H49270   8.326  -0.668   4.027  1.6325 -0.1103 -0.4640
  365MOL0     H49271   8.266  -0.522   4.233  0.4546  0.1816  1.1263
  365MOL0     H49272   8.424  -0.443   4.213  1.2653 -0.8715 -0.8706
  365MOL0     H49273   8.539  -0.833   4.354 -0.3028  1.9554  2.1615
  365MOL0     H49274   8.001  -0.208   3.809  2.3871 -1.2033  0.7133
  365MOL0     H49275   8.029   0.018   3.887 -0.0286  2.2619  1.9116
  366MOL0     O49276   6.487   2.190   3.802 -0.6778  0.0159  0.1710
  366MOL0     C49277   6.459   2.229   3.687  0.0248  0.9409 -0.1519
  366MOL0     O49278   6.353   2.187   3.624  0.6160  0.0505 -0.6047
  366MOL0     C49279   6.259   2.086   3.661 -0.2918 -0.7389  0.2691
  366MOL0     C49280   6.291   1.980   3.742  0.3464  0.6924  0.2165
  366MOL0     C49281   6.205   1.878   3.776 -0.5325  1.0005 -0.7457
  366MOL0     C49282   6.082   1.869   3.717 -0.2393 -0.4309  0.7548
  366MOL0     O49283   5.991   1.769   3.722 -0.4489  0.6021  0.2654
  366MOL0     C49284   6.011   1.653   3.803 -1.1624  0.6005  0.1012
  366MOL0     C49285   5.883   1.564   3.823  0.4880 -0.7842 -0.1284
  366MOL0     C49286   5.806   1.518   3.704  0.1673 -0.3060  0.7639
  366MOL0     C49287   5.739   1.390   3.729 -1.0174  0.3540 -1.5000
  366MOL0     C49288   5.660   1.334   3.614 -0.0408 -0.2541  0.0255
  366MOL0     C49289   5.642   1.178   3.624  0.2337 -0.1664 -0.5845
  366MOL0     C49290   5.567   1.117   3.748 -0.5430  1.4008  0.1572
  366MOL0     C49291   5.427   1.175   3.762 -0.5924  0.3795 -1.0371
  366MOL0     N49292   5.345   1.090   3.855 -0.0005 -0.8807  0.0517
  366MOL0     C49293   5.395   1.069   3.980  0.5694  0.4537  0.6469
  366MOL0     C49294   5.309   0.985   4.028  0.4815 -0.8350  0.6865
  366MOL0     C49295   5.314   0.923   4.159 -0.3426 -0.0956  0.3226
  366MOL0     C49296   5.173   0.890   4.218  0.3186  0.9567 -0.2935
  366MOL0     C49297   5.102   1.017   4.223  1.0292 -0.3642 -0.3173
  366MOL0     C49298   4.981   1.010   4.314  0.4955  0.4882  0.7864
  366MOL0     O49299   4.910   0.885   4.276 -0.5190 -1.0293  0.1217
  366MOL0     C49300   4.778   0.873   4.313 -0.2711  0.1403  0.5282
  366MOL0     C49301   4.688   0.835   4.215  0.4476 -1.3331  0.2029
  366MOL0     C49302   4.555   0.804   4.250  0.2909 -0.7326  0.2601
  366MOL0     C49303   4.465   0.771   4.138  0.4520  0.6034  0.9080
  366MOL0     C49304   4.507   0.841   4.384 -0.2675 -0.4244 -0.2354
  366MOL0     C49305   4.369   0.847   4.435  0.1597  0.0360  1.1015
  366MOL0     O49306   4.360   0.854   4.572  0.4860 -0.3396  1.0942
  366MOL0     C49307   4.232   0.837   4.630 -0.7187 -1.0354 -0.1456
  366MOL0     C49308   4.182   0.718   4.684  0.9353  0.1655 -0.7246
  366MOL0     C49309   4.049   0.716   4.741 -0.1440  0.1181 -0.2018
  366MOL0     C49310   3.974   0.835   4.749  0.1741  0.5275 -0.6592
  366MOL0     O49311   3.851   0.833   4.819  0.5463 -0.4023 -0.3116
  366MOL0     C49312   3.752   0.737   4.776 -0.1444  0.4962  0.1413
  366MOL0     C49313   3.637   0.707   4.873 -0.7342 -0.4000 -0.1196
  366MOL0     C49314   3.523   0.628   4.815  0.6406  0.0401  0.1762
  366MOL0     C49315   3.442   0.577   4.937  0.1048 -0.0378  0.0638
  366MOL0     C49316   3.395   0.671   5.049 -0.0716 -0.4754 -0.7458
  366MOL0     C49317   3.321   0.594   5.156 -0.4557  0.6366 -0.6267
  366MOL0     C49318   3.244   0.685   5.250 -0.4634  0.0907  0.1994
  366MOL0     C49319   3.184   0.598   5.362 -0.7073  0.3508  1.3405
  366MOL0    Cl49320   3.105   0.708   5.485 -0.5046 -0.2557  0.0385
  366MOL0     C49321   4.026   0.948   4.685 -0.0484 -0.3682  0.1339
  366MOL0     C49322   4.149   0.949   4.629  0.3108 -0.2056 -0.1639
  366MOL0     O49323   4.273   0.846   4.360 -0.3674  0.5112 -0.0955
  366MOL0     C49324   4.610   0.858   4.483  0.0932 -0.1418  0.3763
  366MOL0     C49325   4.746   0.882   4.447  0.8047 -0.0537 -0.3512
  366MOL0     N49326   5.213   0.961   3.936 -0.1639  0.6952  0.0333
  366MOL0     N49327   5.229   1.027   3.833  0.0366 -0.0550  0.4197
  366MOL0     C49328   6.047   1.968   3.621  0.8253 -0.6480  0.6676
  366MOL0     C49329   6.143   2.073   3.586 -0.8579 -0.4543 -0.9182
  366MOL0     C49330   6.542   2.338   3.625  0.1638 -0.4463 -0.4075
  366MOL0     C49331   6.646   2.394   3.705  0.2146 -0.4677  0.6691
  366MOL0     C49332   6.711   2.510   3.645  0.2318  0.3908  0.5594
  366MOL0     C49333   6.683   2.556   3.515  0.1288  0.0006  0.4587
  366MOL0     O49334   6.753   2.671   3.468  0.5436 -0.1774  0.5813
  366MOL0     C49335   6.761   2.698   3.325  0.5464 -0.4470  0.1663
  366MOL0     C49336   6.878   2.795   3.298 -0.0111 -0.2124  0.6399
  366MOL0     C49337   6.922   2.831   3.146  0.3563  0.1382 -0.6088
  366MOL0     C49338   7.021   2.950   3.130 -0.0493  1.2930 -1.0556
  366MOL0     C49339   7.073   2.952   2.998 -0.1060  0.5748 -0.5905
  366MOL0     C49340   7.135   2.961   2.895  0.8204 -0.3417 -0.0569
  366MOL0     C49341   6.590   2.483   3.433  1.1843 -0.2580 -0.6085
  366MOL0     C49342   6.519   2.378   3.486  0.0025  0.2643  0.3643
  366MOL0     H49343   6.392   1.974   3.782  0.1456  0.9548  0.7649
  366MOL0     H49344   6.225   1.801   3.850 -0.5639  1.7256  0.0461
  366MOL0     H49345   6.091   1.593   3.758  0.0570  0.8728  1.8183
  366MOL0     H49346   6.044   1.684   3.902  0.8826  0.8467 -0.5994
  366MOL0     H49347   5.907   1.479   3.888 -3.4985  0.1448  2.9355
  366MOL0     H49348   5.820   1.627   3.886  0.9692 -0.6247  0.1930
  366MOL0     H49349   5.727   1.589   3.675  0.9782 -0.6300 -2.7522
  366MOL0     H49350   5.868   1.510   3.614  0.0346  0.4360  0.5965
  366MOL0     H49351   5.825   1.325   3.749 -3.4103 -2.7692 -0.4691
  366MOL0     H49352   5.681   1.386   3.822  0.2049 -0.3154 -0.7447
  366MOL0     H49353   5.561   1.380   3.619 -0.7166 -1.6414 -0.0605
  366MOL0     H49354   5.696   1.364   3.515 -0.0233 -1.3980 -0.3304
  366MOL0     H49355   5.587   1.137   3.539 -1.4012  1.8655 -0.5955
  366MOL0     H49356   5.741   1.131   3.617  1.8373  3.1146 -3.6882
  366MOL0     H49357   5.565   1.008   3.750  0.4209  1.2616 -2.6105
  366MOL0     H49358   5.620   1.148   3.838 -1.6327  1.9264  0.6352
  366MOL0     H49359   5.380   1.183   3.664  0.1782 -0.4847 -1.4908
  366MOL0     H49360   5.430   1.273   3.811  4.4734 -0.5725  1.2162
  366MOL0     H49361   5.490   1.095   4.026  1.8292  0.5432 -1.8426
  366MOL0     H49362   5.363   0.826   4.143 -0.8137 -0.5319  1.4196
  366MOL0     H49363   5.372   0.978   4.233  0.4193  0.8564 -0.9371
  366MOL0     H49364   5.187   0.856   4.321 -1.7256  2.7720  0.6640
  366MOL0     H49365   5.126   0.825   4.145  3.2673 -0.7000 -0.8843
  366MOL0     H49366   5.054   1.040   4.127 -2.9366 -0.2724  1.5324
  366MOL0     H49367   5.172   1.095   4.255  0.5442 -0.4143  0.9036
  366MOL0     H49368   4.912   1.093   4.293 -0.9396 -0.9811 -0.6332
  366MOL0     H49369   5.011   1.016   4.419  1.9812  0.4124  0.3884
  366MOL0     H49370   4.707   0.845   4.109  0.7775  4.4324  0.4983
  366MOL0     H49371   4.401   0.687   4.169  1.3481  0.8141  3.5859
  366MOL0     H49372   4.415   0.862   4.105  2.2935  2.1241  2.1048
  366MOL0     H49373   4.525   0.747   4.050  3.4565  0.5816  2.8072
  366MOL0     H49374   4.244   0.628   4.685  0.1353 -0.4520  1.9783
  366MOL0     H49375   4.008   0.625   4.784 -4.8887  2.4618  0.9222
  366MOL0     H49376   3.707   0.784   4.688  2.4511 -0.4393 -1.8198
  366MOL0     H49377   3.799   0.648   4.732  0.4714 -1.0400  3.5046
  366MOL0     H49378   3.677   0.644   4.953  0.6812  0.3703 -0.1898
  366MOL0     H49379   3.615   0.802   4.923  3.3889  1.8031 -1.9428
  366MOL0     H49380   3.560   0.540   4.762  1.3660  0.4418  0.0042
  366MOL0     H49381   3.451   0.685   4.755 -2.7355 -0.2998  3.4738
  366MOL0     H49382   3.350   0.545   4.887 -1.0574  0.6018  1.7090
  366MOL0     H49383   3.497   0.503   4.997  1.6114  0.0733 -1.1451
  366MOL0     H49384   3.325   0.744   5.007  3.5578  2.4019 -2.3401
  366MOL0     H49385   3.475   0.725   5.100 -2.0216  3.7903 -1.7759
  366MOL0     H49386   3.241   0.534   5.112 -0.6525  1.4809 -1.4471
  366MOL0     H49387   3.389   0.527   5.208 -0.5194  1.1055  0.0863
  366MOL0     H49388   3.162   0.745   5.209 -0.6617  0.4625  1.1073
  366MOL0     H49389   3.321   0.752   5.289  0.6464  0.6201 -2.6341
  366MOL0     H49390   3.265   0.538   5.404  2.2567  3.2413  0.1891
  366MOL0     H49391   3.110   0.534   5.314  1.2181  0.3016 -1.8778
  366MOL0     H49392   3.959   1.034   4.692  1.0815  0.4309  1.9784
  366MOL0     H49393   4.189   1.042   4.588  1.6117 -1.2626 -1.3886
  366MOL0     H49394   4.598   0.884   4.588  0.2552 -2.3505  0.9987
  366MOL0     H49395   4.822   0.892   4.524  0.6660 -4.4364  0.6584
  366MOL0     H49396   5.945   1.973   3.584  0.8958 -0.2319  0.5172
  366MOL0     H49397   6.123   2.145   3.507 -1.9333  1.1609  0.7452
  366MOL0     H49398   6.657   2.356   3.806 -2.0483  0.3863  1.2850
  366MOL0     H49399   6.780   2.560   3.712  2.9145 -0.0961 -1.6122
  366MOL0     H49400   6.773   2.613   3.258 -0.9525 -1.3914  1.0512
  366MOL0     H49401   6.669   2.749   3.296  1.3068  0.9147  0.0429
  366MOL0     H49402   6.964   2.751   3.350  0.9414 -2.1461 -2.2819
  366MOL0     H49403   6.850   2.891   3.342 -0.3762 -0.5672  1.1908
  366MOL0     H49404   6.831   2.860   3.092 -1.0996  0.7429  1.9820
  366MOL0     H49405   6.948   2.738   3.095 -0.1996 -1.7475  2.3114
  366MOL0     H49406   7.104   2.936   3.199  0.7654  1.3748 -1.9956
  366MOL0     H49407   6.975   3.046   3.156 -2.2233  0.0054  0.1612
  366MOL0     H49408   7.184   2.967   2.800 -2.0908  2.1849 -1.5563
  366MOL0     H49409   6.576   2.519   3.332  1.7801 -0.4605 -0.7695
  366MOL0     H49410   6.447   2.329   3.421  1.2113  0.4071 -1.1449
  367MOL0     O49411   1.353   0.831  11.365 -1.7102  0.2245  0.4132
  367MOL0     C49412   1.429   0.853  11.461  0.3853  0.4835 -0.1608
  367MOL0     O49413   1.401   0.908  11.584 -0.1837 -0.1420  0.2361
  367MOL0     C49414   1.281   0.963  11.614 -0.4857  0.8065 -0.0682
  367MOL0     C49415   1.289   1.030  11.738  1.0531 -0.3672  0.1425
  367MOL0     C49416   1.165   1.084  11.787 -0.8112 -0.8283  0.2723
  367MOL0     C49417   1.043   1.080  11.717  0.1802 -0.5303 -0.2057
  367MOL0     O49418   0.922   1.133  11.767  0.1856  0.0093 -0.7986
  367MOL0     C49419   0.902   1.151  11.909  0.0921 -0.5484  0.4398
  367MOL0     C49420   0.848   1.031  11.989 -0.2470  0.2843 -0.0671
  367MOL0     C49421   0.710   0.980  11.945 -0.1220  0.0536 -1.2005
  367MOL0     C49422   0.622   0.956  12.071 -0.0019  0.3870  0.1061
  367MOL0     C49423   0.505   0.860  12.054  0.2641  0.1860 -0.5899
  367MOL0     C49424   0.426   0.848  12.185 -0.6071 -0.0814  0.1503
  367MOL0     C49425   0.313   0.744  12.159 -0.1566  0.0378  0.6362
  367MOL0     C49426   0.196   0.780  12.248  0.2013  0.0243  0.1695
  367MOL0     N49427   0.210   0.762  12.392 -0.2642 -0.7014 -0.1488
  367MOL0     C49428   0.332   0.721  12.446 -0.4822 -0.8333  0.0024
  367MOL0     C49429   0.292   0.708  12.574 -0.1069  0.0312 -0.2198
  367MOL0     C49430   0.373   0.645  12.689 -0.2377  0.4804 -0.2544
  367MOL0     C49431   0.352   0.491  12.682  0.2499 -0.8457  0.2779
  367MOL0     C49432   0.462   0.403  12.743 -1.3879 -0.5431  0.7169
  367MOL0     C49433   0.602   0.449  12.713  0.5334  0.1279  0.3905
  367MOL0     O49434   0.620   0.477  12.578 -0.5131 -0.7575 -0.0828
  367MOL0     C49435   0.731   0.529  12.534 -0.3335 -0.2010 -0.6975
  367MOL0     C49436   0.853   0.472  12.563 -0.4806  0.2338  0.5899
  367MOL0     C49437   0.974   0.528  12.512 -0.0082 -0.4310 -0.1256
  367MOL0     C49438   1.104   0.466  12.556  0.4756  0.6715 -0.6153
  367MOL0     C49439   0.966   0.646  12.427 -0.3078 -0.0182  0.0061
  367MOL0     C49440   1.087   0.720  12.375 -0.0678 -0.7810  0.1611
  367MOL0     O49441   1.049   0.833  12.307  0.4183  0.2952 -0.1320
  367MOL0     C49442   1.138   0.903  12.239  0.0220  0.1222 -0.0133
  367MOL0     C49443   1.125   1.045  12.225  0.8049  0.1362 -0.1365
  367MOL0     C49444   1.221   1.122  12.167  0.4608 -1.0648  0.4273
  367MOL0     C49445   1.342   1.071  12.104  0.8149  0.5522  0.5487
  367MOL0     O49446   1.452   1.139  12.064  0.3473  0.5832 -1.2324
  367MOL0     C49447   1.467   1.275  12.103  0.1978 -0.5981  0.2414
  367MOL0     C49448   1.607   1.337  12.070  1.2927 -0.2178 -0.4381
  367MOL0     C49449   1.718   1.258  12.129 -0.3693  0.0246  0.2869
  367MOL0     C49450   1.855   1.292  12.068 -0.1359 -1.0004  0.0819
  367MOL0     C49451   1.936   1.176  12.008 -0.2410  0.0330 -1.0534
  367MOL0     C49452   1.862   1.100  11.904  0.8035 -0.8436 -0.2926
  367MOL0     C49453   1.852   1.179  11.773  0.7782 -0.4759 -0.4847
  367MOL0     C49454   1.992   1.183  11.698  0.2225  0.5995 -0.1263
  367MOL0    Cl49455   2.043   1.020  11.654 -0.4317 -0.4081 -0.4107
  367MOL0     C49456   1.342   0.929  12.107  0.1526  0.0592  0.2547
  367MOL0     C49457   1.253   0.850  12.182  0.7503 -0.6000  0.4828
  367MOL0     O49458   1.197   0.709  12.428  0.2067  0.4831 -0.3710
  367MOL0     C49459   0.841   0.701  12.404 -0.4063  0.6018  0.1431
  367MOL0     C49460   0.732   0.646  12.469  0.2908 -0.5917  0.2649
  367MOL0     N49461   0.171   0.761  12.597 -0.0716 -0.6631 -0.0290
  367MOL0     N49462   0.121   0.811  12.488 -1.0568  0.1331  0.9389
  367MOL0     C49463   1.041   1.011  11.593  0.7682  0.1039 -0.4940
  367MOL0     C49464   1.153   0.953  11.548 -0.1532 -0.4497 -0.3814
  367MOL0     C49465   1.559   0.796  11.440  0.4019 -0.0787  0.6009
  367MOL0     C49466   1.669   0.833  11.521  0.0601 -0.2216  0.5178
  367MOL0     C49467   1.788   0.760  11.510  0.0619  0.4046  0.1852
  367MOL0     C49468   1.808   0.658  11.422  0.8681  1.0802  0.3143
  367MOL0     O49469   1.915   0.583  11.404 -0.5750 -0.3728  0.1433
  367MOL0     C49470   2.023   0.587  11.496  0.8190 -0.6048 -0.3716
  367MOL0     C49471   2.066   0.453  11.535  0.2785  0.3530 -0.7073
  367MOL0     C49472   2.112   0.365  11.425 -0.4133  0.3971  0.8353
  367MOL0     C49473   2.160   0.221  11.457  0.3737 -0.4581 -0.9818
  367MOL0     C49474   2.279   0.216  11.546  0.0935  0.0719 -0.1004
  367MOL0     C49475   2.373   0.205  11.621 -0.3358 -0.6115 -0.8220
  367MOL0     C49476   1.703   0.641  11.329 -0.5136 -0.1802 -0.3313
  367MOL0     C49477   1.580   0.701  11.340  0.1133  0.0001 -0.5952
  367MOL0     H49478   1.380   1.037  11.796  1.1098 -2.2696  0.3458
  367MOL0     H49479   1.179   1.122  11.888  0.2482 -0.4833  0.0102
  367MOL0     H49480   0.994   1.182  11.960 -0.5852  0.6174  0.9881
  367MOL0     H49481   0.846   1.241  11.933 -1.0794 -1.3893  0.9572
  367MOL0     H49482   0.918   0.950  11.968  1.8348  2.1893 -0.9317
  367MOL0     H49483   0.845   1.042  12.098  1.2501 -1.8957  0.2540
  367MOL0     H49484   0.666   1.061  11.887 -2.0501 -0.1973 -0.1883
  367MOL0     H49485   0.726   0.885  11.893  0.6423 -1.2416  1.2378
  367MOL0     H49486   0.679   0.913  12.155  1.7450  1.0977 -0.6544
  367MOL0     H49487   0.589   1.055  12.106 -1.0757 -0.3196  1.1328
  367MOL0     H49488   0.439   0.909  11.982 -0.7460  0.7568  0.6762
  367MOL0     H49489   0.530   0.762  12.014  0.3619  0.1026 -0.3284
  367MOL0     H49490   0.493   0.814  12.265  1.3264 -2.4166 -2.2760
  367MOL0     H49491   0.382   0.946  12.206 -0.6657  0.3901 -1.9631
  367MOL0     H49492   0.273   0.752  12.057 -1.0697 -1.0966  0.8791
  367MOL0     H49493   0.354   0.643  12.174 -0.2067 -0.1725 -0.5364
  367MOL0     H49494   0.103   0.725  12.228  1.1881 -1.8254  0.4675
  367MOL0     H49495   0.170   0.884  12.224  2.3234  0.6733  0.5266
  367MOL0     H49496   0.424   0.689  12.399 -2.0786  1.3927 -5.4622
  367MOL0     H49497   0.476   0.674  12.666  0.4372 -0.7778  0.9630
  367MOL0     H49498   0.341   0.674  12.790 -1.0443  0.3284 -0.4626
  367MOL0     H49499   0.338   0.456  12.579 -3.5757  1.7191 -0.2924
  367MOL0     H49500   0.255   0.458  12.718 -1.6361  0.1666 -3.3352
  367MOL0     H49501   0.441   0.304  12.701 -0.5552 -0.3068 -0.2949
  367MOL0     H49502   0.445   0.382  12.849 -4.4749 -0.8552  0.2674
  367MOL0     H49503   0.657   0.357  12.738  0.5569 -1.2310 -3.8392
  367MOL0     H49504   0.639   0.526  12.781 -1.6157 -1.0975  3.1513
  367MOL0     H49505   0.852   0.380  12.621  4.3278  0.2513  1.0794
  367MOL0     H49506   1.080   0.369  12.601  0.1923 -0.6780 -3.4676
  367MOL0     H49507   1.168   0.446  12.470 -0.2933 -0.9354 -0.8519
  367MOL0     H49508   1.146   0.537  12.627 -2.6057  0.8364  1.2511
  367MOL0     H49509   1.041   1.094  12.274  0.5011 -0.2782 -0.2325
  367MOL0     H49510   1.209   1.229  12.177 -0.4677 -0.8757 -2.1173
  367MOL0     H49511   1.396   1.339  12.050  0.6716 -0.4413 -0.2107
  367MOL0     H49512   1.451   1.271  12.211  1.8523 -2.3297  0.4673
  367MOL0     H49513   1.616   1.332  11.961 -0.9944  1.5360 -0.7973
  367MOL0     H49514   1.615   1.437  12.112 -0.6702 -1.1508  2.5072
  367MOL0     H49515   1.682   1.155  12.118 -1.2672  0.5472 -2.4728
  367MOL0     H49516   1.728   1.270  12.237  1.8889  0.3650  0.0908
  367MOL0     H49517   1.849   1.357  11.980 -0.2214  0.1567  0.9217
  367MOL0     H49518   1.907   1.352  12.143  0.5986  0.3936 -1.4838
  367MOL0     H49519   1.949   1.110  12.094  1.2945  0.8258 -0.6190
  367MOL0     H49520   2.029   1.220  11.971  2.0347 -3.0656  0.4584
  367MOL0     H49521   1.914   1.007  11.877 -2.6357 -2.1091 -3.3661
  367MOL0     H49522   1.760   1.069  11.929  1.3242 -2.4193 -0.0052
  367MOL0     H49523   1.810   1.280  11.783 -0.1457 -0.8524 -0.4752
  367MOL0     H49524   1.775   1.135  11.708  1.1295  0.8636 -1.8834
  367MOL0     H49525   2.066   1.224  11.768  0.0497 -0.2170  0.5514
  367MOL0     H49526   1.979   1.240  11.606 -1.6341  0.7426  0.1749
  367MOL0     H49527   1.430   0.870  12.082  0.2779  1.0480 -1.8297
  367MOL0     H49528   1.288   0.749  12.203  0.4893 -0.7216  0.3373
  367MOL0     H49529   0.839   0.796  12.353  0.2937  0.9706  0.7857
  367MOL0     H49530   0.646   0.712  12.473  1.5616  1.0922  1.0156
  367MOL0     H49531   0.947   1.009  11.539 -0.5921  0.8810  1.6841
  367MOL0     H49532   1.146   0.893  11.458  0.6825  1.8152 -2.0524
  367MOL0     H49533   1.663   0.915  11.591 -2.0136  1.2759 -1.2766
  367MOL0     H49534   1.871   0.782  11.577  0.3462  1.1604 -0.3974
  367MOL0     H49535   2.100   0.638  11.437  0.5065 -0.8521 -1.0087
  367MOL0     H49536   1.991   0.632  11.590 -2.5579 -2.1647 -0.5877
  367MOL0     H49537   1.986   0.404  11.590 -0.2909  0.8227 -1.1103
  367MOL0     H49538   2.142   0.473  11.612 -0.1900 -0.7576  0.0682
  367MOL0     H49539   2.196   0.418  11.379 -0.7451  3.5472  3.4920
  367MOL0     H49540   2.044   0.370  11.339  1.4094 -0.0783 -0.7212
  367MOL0     H49541   2.180   0.161  11.368 -3.0876 -0.2438 -2.0266
  367MOL0     H49542   2.082   0.166  11.511  1.5525 -3.3913 -2.0758
  367MOL0     H49543   2.456   0.203  11.689  0.2332  0.5977 -1.4504
  367MOL0     H49544   1.727   0.563  11.257 -0.7259 -2.4920  1.9423
  367MOL0     H49545   1.503   0.681  11.266 -2.3557 -0.7672  2.0071
  368MOL0     O49546   0.049   5.900   0.144 -0.0980 -0.4247  0.5229
  368MOL0     C49547   0.021   5.922   0.021 -0.7293  0.1886 -0.9579
  368MOL0     O49548  -0.026   6.037  -0.030 -0.4325  0.2457 -0.9126
  368MOL0     C49549  -0.026   6.170   0.021 -0.0013  0.6456 -0.0501
  368MOL0     C49550   0.036   6.203   0.146 -0.1792 -0.0112  0.0459
  368MOL0     C49551   0.047   6.349   0.173 -0.3448 -0.0870  0.5330
  368MOL0     C49552  -0.013   6.438   0.080 -0.7726 -0.2281 -0.4446
  368MOL0     O49553   0.013   6.572   0.095 -0.4424  0.2909 -0.0281
  368MOL0     C49554   0.053   6.620   0.230 -0.9499 -0.1539  0.3398
  368MOL0     C49555   0.038   6.771   0.252  0.6637  0.6581  0.6023
  368MOL0     C49556  -0.096   6.823   0.194  0.0519  0.3013  0.1196
  368MOL0     C49557  -0.077   6.977   0.174 -0.7450 -0.2609  0.4866
  368MOL0     C49558  -0.193   7.053   0.113  0.4779 -0.1631  0.4726
  368MOL0     C49559  -0.317   7.046   0.206 -0.3812  0.0554 -0.3032
  368MOL0     C49560  -0.397   7.162   0.180  0.7182 -0.2779  0.3033
  368MOL0     C49561  -0.526   7.154   0.247 -1.2129  0.3381  0.1564
  368MOL0     N49562  -0.550   7.233   0.368 -1.0350  0.3522 -0.4181
  368MOL0     C49563  -0.506   7.361   0.382 -0.5146 -0.0713  0.6016
  368MOL0     C49564  -0.514   7.386   0.511  0.5397 -0.8118 -0.0443
  368MOL0     C49565  -0.469   7.518   0.588 -0.9739 -0.2815  0.8090
  368MOL0     C49566  -0.576   7.543   0.694 -0.0888 -0.2797  0.3717
  368MOL0     C49567  -0.586   7.684   0.745  0.7289 -0.2217  1.1751
  368MOL0     C49568  -0.682   7.706   0.863 -0.1178  0.9580  0.3716
  368MOL0     O49569  -0.651   7.619   0.972  0.8825  0.9956  0.1764
  368MOL0     C49570  -0.747   7.529   1.003  0.2579 -0.0597 -0.1258
  368MOL0     C49571  -0.799   7.429   0.926 -0.2039 -0.2345 -0.0313
  368MOL0     C49572  -0.901   7.343   0.965  0.4860  0.8737 -0.3053
  368MOL0     C49573  -0.947   7.242   0.862 -0.1255 -0.3659 -0.3959
  368MOL0     C49574  -0.952   7.353   1.098 -0.1944  1.0984  0.5685
  368MOL0     C49575  -1.065   7.272   1.151 -0.1699  0.9841  0.2385
  368MOL0     O49576  -1.111   7.296   1.277  0.0485 -0.3733 -0.1948
  368MOL0     C49577  -1.213   7.217   1.322  0.1514  0.2938 -0.5833
  368MOL0     C49578  -1.340   7.276   1.285 -0.8517 -0.1602 -1.2607
  368MOL0     C49579  -1.454   7.205   1.316 -1.2133 -0.3416 -0.8625
  368MOL0     C49580  -1.447   7.075   1.377  0.4063  0.0803  0.1421
  368MOL0     O49581  -1.565   7.007   1.397  0.3515  0.1454  1.0393
  368MOL0     C49582  -1.596   6.931   1.520  0.0982  0.3637 -0.1049
  368MOL0     C49583  -1.556   6.783   1.501 -0.3646 -0.5513 -0.1448
  368MOL0     C49584  -1.529   6.694   1.626  0.8125 -0.2408 -0.1412
  368MOL0     C49585  -1.441   6.584   1.591  0.2951  0.8445  0.2355
  368MOL0     C49586  -1.408   6.496   1.705 -0.9225  0.4869 -0.3810
  368MOL0     C49587  -1.293   6.398   1.675 -0.0172  0.5015 -0.1286
  368MOL0     C49588  -1.326   6.297   1.572  0.1475  0.3611  0.6964
  368MOL0     C49589  -1.215   6.192   1.540 -0.7404  0.2862 -0.2577
  368MOL0    Cl49590  -1.260   6.107   1.387 -0.0946 -0.4862 -0.1676
  368MOL0     C49591  -1.318   7.017   1.408  0.2045  0.5421  0.2428
  368MOL0     C49592  -1.198   7.088   1.382  0.8068 -0.8538 -0.0862
  368MOL0     O49593  -1.120   7.192   1.073 -0.4184  0.0040 -0.1838
  368MOL0     C49594  -0.908   7.454   1.174 -0.6477  0.2091 -0.1995
  368MOL0     C49595  -0.809   7.538   1.127 -0.5107  0.6139 -0.1777
  368MOL0     N49596  -0.577   7.278   0.575  0.0064 -0.4081 -0.3526
  368MOL0     N49597  -0.597   7.194   0.486  1.4394 -0.7102 -0.3683
  368MOL0     C49598  -0.097   6.393  -0.028 -1.3898 -0.9162 -0.5367
  368MOL0     C49599  -0.080   6.261  -0.065 -0.8869 -0.1600  0.1401
  368MOL0     C49600   0.021   5.807  -0.074  1.1771 -0.0578 -0.8163
  368MOL0     C49601  -0.025   5.809  -0.208 -0.1578  0.2083 -0.1435
  368MOL0     C49602  -0.026   5.707  -0.297  0.2977  0.6888 -0.4971
  368MOL0     C49603   0.020   5.581  -0.256  0.2728 -0.2121 -0.2936
  368MOL0     O49604   0.030   5.477  -0.359 -0.2722  0.4009 -0.0783
  368MOL0     C49605   0.064   5.343  -0.313  0.2280 -0.4271  0.1692
  368MOL0     C49606   0.060   5.221  -0.409  0.8216  0.4453  0.1767
  368MOL0     C49607   0.194   5.159  -0.448  0.0008  0.1495 -0.1403
  368MOL0     C49608   0.185   5.081  -0.572 -0.1612  0.4122  0.3300
  368MOL0     C49609   0.302   4.981  -0.575 -0.2058  0.6856 -0.0809
  368MOL0     C49610   0.399   4.904  -0.578 -0.2190  0.2066 -0.6369
  368MOL0     C49611   0.068   5.580  -0.126 -0.2461 -0.0369  0.2909
  368MOL0     C49612   0.073   5.684  -0.038  0.3901  0.5082  0.6025
  368MOL0     H49613   0.081   6.134   0.215  0.4850 -1.0267 -1.3616
  368MOL0     H49614   0.086   6.377   0.270 -0.1688 -0.3031  0.5251
  368MOL0     H49615  -0.005   6.562   0.303 -0.1533  1.5151  2.3998
  368MOL0     H49616   0.158   6.595   0.244 -0.3505  0.5075 -2.5189
  368MOL0     H49617   0.047   6.799   0.358 -3.5196 -0.8059  1.5665
  368MOL0     H49618   0.121   6.819   0.201  1.0703  0.9230  1.4865
  368MOL0     H49619  -0.102   6.785   0.091  2.5526  1.2074 -0.4361
  368MOL0     H49620  -0.180   6.796   0.258 -0.0015  1.6227  0.6277
  368MOL0     H49621  -0.048   7.023   0.268  1.1011  0.2290 -0.2802
  368MOL0     H49622   0.013   6.997   0.116 -0.9309  1.6731  0.8195
  368MOL0     H49623  -0.156   7.156   0.108 -3.2690  1.2501 -1.5597
  368MOL0     H49624  -0.222   7.013   0.015 -1.8550 -0.5400  1.2734
  368MOL0     H49625  -0.357   6.945   0.208 -1.8478  0.6096  1.4857
  368MOL0     H49626  -0.282   7.064   0.308  3.5346 -0.0347 -1.4724
  368MOL0     H49627  -0.355   7.261   0.195  0.8132 -0.6846  3.5408
  368MOL0     H49628  -0.410   7.156   0.071  3.6316 -0.7596 -0.0984
  368MOL0     H49629  -0.547   7.047   0.261 -0.5926  0.2346  0.3677
  368MOL0     H49630  -0.593   7.194   0.171 -0.4674 -1.8079 -1.7613
  368MOL0     H49631  -0.471   7.419   0.297  2.0144 -3.0341 -0.5459
  368MOL0     H49632  -0.375   7.494   0.638 -0.8460  0.0618  0.7357
  368MOL0     H49633  -0.468   7.593   0.508  1.8160 -0.8861  0.1946
  368MOL0     H49634  -0.559   7.469   0.773 -1.4655 -1.6900 -0.6045
  368MOL0     H49635  -0.677   7.535   0.651  0.2878  0.2859 -0.6451
  368MOL0     H49636  -0.596   7.746   0.655  1.0314 -2.9424 -0.8659
  368MOL0     H49637  -0.486   7.700   0.785  0.6355 -1.4131  1.9363
  368MOL0     H49638  -0.787   7.688   0.837  0.0464 -0.9110  0.8802
  368MOL0     H49639  -0.662   7.807   0.901  2.0919 -0.3072  2.8326
  368MOL0     H49640  -0.758   7.419   0.826 -3.2098 -0.5094 -1.3502
  368MOL0     H49641  -0.902   7.270   0.767  2.0686 -0.7548  0.4526
  368MOL0     H49642  -0.915   7.144   0.900  2.8047  1.2213  1.6140
  368MOL0     H49643  -1.056   7.245   0.856 -0.3002 -0.1413  1.9981
  368MOL0     H49644  -1.340   7.367   1.226  1.7626  0.5064 -0.3330
  368MOL0     H49645  -1.535   7.262   1.272 -0.4241 -0.9355 -3.1783
  368MOL0     H49646  -1.533   6.974   1.599  0.0961 -0.8308  0.5714
  368MOL0     H49647  -1.702   6.938   1.548 -1.1101  1.1556 -4.2994
  368MOL0     H49648  -1.633   6.729   1.445 -0.3329 -1.7620  0.9196
  368MOL0     H49649  -1.469   6.786   1.435 -0.0852 -1.0787  0.1816
  368MOL0     H49650  -1.626   6.655   1.660  1.5114 -2.4641 -0.5201
  368MOL0     H49651  -1.488   6.758   1.704 -2.1520  2.3802 -0.4896
  368MOL0     H49652  -1.489   6.528   1.510  3.0981  1.2807 -1.8610
  368MOL0     H49653  -1.351   6.611   1.536  0.7029 -2.9749 -1.2356
  368MOL0     H49654  -1.490   6.432   1.742  1.0842 -2.6856 -1.0113
  368MOL0     H49655  -1.376   6.547   1.796 -0.7686 -1.5975  0.8204
  368MOL0     H49656  -1.207   6.456   1.640 -0.2873 -0.4964 -2.6403
  368MOL0     H49657  -1.261   6.351   1.769  0.6487  2.4273  0.6606
  368MOL0     H49658  -1.348   6.350   1.479 -0.1217  0.9426  1.0839
  368MOL0     H49659  -1.414   6.241   1.605 -0.6531  3.2797  4.1896
  368MOL0     H49660  -1.228   6.124   1.624  2.2657 -0.4420 -0.2779
  368MOL0     H49661  -1.114   6.234   1.547 -0.2288 -1.1788  2.0475
  368MOL0     H49662  -1.299   6.922   1.456 -0.0996 -0.7181 -1.9823
  368MOL0     H49663  -1.095   7.055   1.391  1.0271 -1.0993 -2.6220
  368MOL0     H49664  -0.956   7.489   1.265  0.7259  2.9925 -0.4214
  368MOL0     H49665  -0.787   7.622   1.193 -3.8306  2.0988 -0.7498
  368MOL0     H49666  -0.144   6.468  -0.091 -0.1955  0.0821 -0.2778
  368MOL0     H49667  -0.120   6.208  -0.150 -1.5744  1.3453 -0.5186
  368MOL0     H49668  -0.055   5.905  -0.248 -1.5644  1.0199  2.6802
  368MOL0     H49669  -0.048   5.730  -0.401  2.0982  2.6937 -0.4994
  368MOL0     H49670   0.157   5.340  -0.257 -0.6811  1.5405  1.9290
  368MOL0     H49671  -0.007   5.315  -0.235 -0.6874  1.9255  0.2668
  368MOL0     H49672   0.010   5.254  -0.501  0.1220  0.5392  0.5762
  368MOL0     H49673   0.000   5.142  -0.362 -1.5768  0.1452 -2.9968
  368MOL0     H49674   0.239   5.106  -0.363  3.3072  1.5668 -0.8548
  368MOL0     H49675   0.268   5.236  -0.471 -1.7191  1.3736 -1.9363
  368MOL0     H49676   0.179   5.145  -0.660  0.1244 -1.0062 -0.7540
  368MOL0     H49677   0.090   5.027  -0.561 -2.5799  4.1921 -0.3814
  368MOL0     H49678   0.482   4.836  -0.580  1.2857  1.9601 -0.4285
  368MOL0     H49679   0.104   5.483  -0.096  1.3928 -0.1085 -1.6659
  368MOL0     H49680   0.126   5.672   0.056  1.0507  2.3741  0.5081
  369MOL0     O49681   2.815   2.094   3.162  0.1808 -0.2741  0.7000
  369MOL0     C49682   2.879   1.986   3.156  0.2971 -0.2791 -0.7856
  369MOL0     O49683   2.999   1.973   3.083 -0.4320 -0.0075 -0.0183
  369MOL0     C49684   3.053   2.068   2.994 -0.3157  0.9821 -0.0198
  369MOL0     C49685   3.146   2.022   2.897 -1.1622  0.9998 -0.5302
  369MOL0     C49686   3.195   2.110   2.799 -0.3993 -0.5688  0.0411
  369MOL0     C49687   3.175   2.251   2.812 -0.8357 -0.3992 -1.2070
  369MOL0     O49688   3.224   2.353   2.731  0.2340 -0.2232 -0.2941
  369MOL0     C49689   3.235   2.329   2.591 -0.2173 -0.4971  0.1277
  369MOL0     C49690   3.242   2.478   2.530 -0.3716  0.2451 -0.4886
  369MOL0     C49691   3.116   2.570   2.522 -0.5624  0.6548  0.9403
  369MOL0     C49692   3.049   2.565   2.386 -0.4805  0.6844  0.8956
  369MOL0     C49693   2.952   2.685   2.362 -1.2535  0.8154 -0.2562
  369MOL0     C49694   2.827   2.652   2.287 -0.0880 -0.1493 -0.1021
  369MOL0     C49695   2.731   2.771   2.295  0.4108 -0.9360  0.4325
  369MOL0     C49696   2.766   2.875   2.192  0.2485 -1.0037  0.1254
  369MOL0     N49697   2.743   2.821   2.056  0.2465  0.1595  0.1055
  369MOL0     C49698   2.619   2.793   2.008 -0.5640  1.4170 -0.5523
  369MOL0     C49699   2.640   2.766   1.872 -0.5387  0.5789 -1.2155
  369MOL0     C49700   2.532   2.716   1.776 -0.5087 -0.3376  0.5963
  369MOL0     C49701   2.430   2.815   1.733  0.2154 -0.5094 -0.1252
  369MOL0     C49702   2.495   2.943   1.670  0.4092 -0.1661  0.3999
  369MOL0     C49703   2.383   3.047   1.675 -0.4099  0.8869  0.6133
  369MOL0     O49704   2.427   3.164   1.623 -1.2242 -0.2211  0.3864
  369MOL0     C49705   2.393   3.224   1.507  0.1656  1.0581  0.5120
  369MOL0     C49706   2.483   3.304   1.445  0.2358 -0.4058  0.9755
  369MOL0     C49707   2.449   3.377   1.326 -0.2674 -0.1047  0.3432
  369MOL0     C49708   2.553   3.470   1.264  0.1381 -0.1936 -0.6982
  369MOL0     C49709   2.323   3.349   1.266  1.3460 -0.4568  0.9867
  369MOL0     C49710   2.271   3.404   1.133  0.3021  0.0958  0.3451
  369MOL0     O49711   2.353   3.442   1.037 -0.6612  0.0832  0.2463
  369MOL0     C49712   2.307   3.466   0.911  0.9181  0.5737 -0.2677
  369MOL0     C49713   2.377   3.549   0.829 -0.3269  0.0707  0.5558
  369MOL0     C49714   2.361   3.551   0.692  0.7315  0.1076 -1.0340
  369MOL0     C49715   2.299   3.445   0.634 -1.3048 -0.4622 -0.8369
  369MOL0     O49716   2.279   3.439   0.500 -0.5587 -0.4067 -0.0903
  369MOL0     C49717   2.391   3.458   0.413 -1.5287 -0.5788 -0.4013
  369MOL0     C49718   2.357   3.434   0.269 -0.5269  0.6207  1.7881
  369MOL0     C49719   2.240   3.517   0.215 -0.3907  0.3757  0.0595
  369MOL0     C49720   2.197   3.490   0.076  0.1172  0.0359  0.7717
  369MOL0     C49721   2.090   3.572   0.009 -0.3065 -0.2301  0.9785
  369MOL0     C49722   1.944   3.543   0.045 -0.5006  0.1770 -0.5721
  369MOL0     C49723   1.847   3.631  -0.035 -1.0289 -0.1497 -0.6406
  369MOL0     C49724   1.712   3.618   0.024 -0.1102  0.0373  0.5575
  369MOL0    Cl49725   1.621   3.741  -0.075 -0.0935  0.1413  0.2982
  369MOL0     C49726   2.234   3.347   0.718  0.5992  0.4838  0.3799
  369MOL0     C49727   2.239   3.361   0.852 -0.3259 -0.3982  0.0321
  369MOL0     O49728   2.144   3.409   1.123  0.0011 -0.5884 -0.1627
  369MOL0     C49729   2.244   3.257   1.323  0.0506 -0.7565  0.4210
  369MOL0     C49730   2.273   3.202   1.446  0.8783  0.7289 -0.3510
  369MOL0     N49731   2.777   2.757   1.851  0.6928 -0.1071 -0.5746
  369MOL0     N49732   2.839   2.796   1.958  0.9298 -0.2621 -0.3599
  369MOL0     C49733   3.091   2.303   2.916 -0.4169 -0.1040 -0.5484
  369MOL0     C49734   3.034   2.207   3.008 -0.9512 -0.1443  0.7653
  369MOL0     C49735   2.830   1.871   3.232  0.0437  0.7592 -0.0445
  369MOL0     C49736   2.917   1.765   3.268 -0.0070  0.6024  0.0218
  369MOL0     C49737   2.860   1.640   3.310  0.1302  0.3906 -0.9185
  369MOL0     C49738   2.717   1.623   3.329 -0.1078 -0.2485 -0.1065
  369MOL0     O49739   2.671   1.500   3.370 -0.0674  0.3539  0.4365
  369MOL0     C49740   2.550   1.490   3.446  1.3582  0.0616  0.3478
  369MOL0     C49741   2.536   1.350   3.509  0.1025 -0.9356 -0.8007
  369MOL0     C49742   2.555   1.239   3.414 -0.1321  0.5837  0.4244
  369MOL0     C49743   2.531   1.102   3.480  0.5854  0.1436 -0.7638
  369MOL0     C49744   2.396   1.081   3.522  0.1656  0.1683 -0.1750
  369MOL0     C49745   2.274   1.088   3.537 -0.2008 -0.2083 -0.5524
  369MOL0     C49746   2.637   1.727   3.279  0.2881  0.4626 -0.5511
  369MOL0     C49747   2.692   1.847   3.237 -0.3374  0.0930  0.2071
  369MOL0     H49748   3.159   1.914   2.892 -2.6556  0.8256 -1.1178
  369MOL0     H49749   3.261   2.085   2.717 -1.3173 -0.0123 -0.8954
  369MOL0     H49750   3.324   2.267   2.576 -0.5789 -1.0441  0.2124
  369MOL0     H49751   3.145   2.278   2.554  0.3135 -0.4054 -1.3621
  369MOL0     H49752   3.308   2.530   2.600  0.0373  1.3133 -1.6319
  369MOL0     H49753   3.288   2.466   2.432 -4.5859 -0.4227 -2.6293
  369MOL0     H49754   3.052   2.538   2.604 -2.6810 -1.1679 -1.2804
  369MOL0     H49755   3.155   2.671   2.536  3.4903 -0.1326 -2.5066
  369MOL0     H49756   3.120   2.569   2.303 -2.0397 -1.8119 -0.6755
  369MOL0     H49757   2.998   2.468   2.387  2.9933 -1.3220  2.3129
  369MOL0     H49758   2.934   2.733   2.459  1.6882 -1.8970  1.8654
  369MOL0     H49759   3.009   2.749   2.294 -4.2097  2.1501 -1.6265
  369MOL0     H49760   2.840   2.618   2.184 -0.9020 -0.4846 -0.1056
  369MOL0     H49761   2.789   2.571   2.351  1.1493  1.8027  3.3757
  369MOL0     H49762   2.633   2.735   2.262  0.4441 -1.9748  1.4031
  369MOL0     H49763   2.727   2.804   2.399  3.1452  3.4310 -0.6164
  369MOL0     H49764   2.867   2.916   2.197 -0.0771 -0.1121 -0.3182
  369MOL0     H49765   2.698   2.958   2.215  1.3284  0.0971 -0.5351
  369MOL0     H49766   2.527   2.786   2.065  1.6773 -1.7260  3.2331
  369MOL0     H49767   2.576   2.668   1.689 -2.3861 -0.4195 -0.3594
  369MOL0     H49768   2.486   2.637   1.837 -0.6151 -0.7980 -0.0769
  369MOL0     H49769   2.370   2.829   1.823  0.6398 -3.0596  0.6088
  369MOL0     H49770   2.361   2.777   1.657 -1.1758  0.2323  0.7377
  369MOL0     H49771   2.527   2.934   1.566 -1.5961  1.4481 -0.4375
  369MOL0     H49772   2.579   2.982   1.728 -1.5368 -0.4488  3.6544
  369MOL0     H49773   2.339   3.066   1.773 -0.6463  0.9261  0.4995
  369MOL0     H49774   2.308   3.006   1.606  0.6249  3.7529 -2.5024
  369MOL0     H49775   2.582   3.305   1.490  1.8244  0.0375 -2.1882
  369MOL0     H49776   2.619   3.501   1.346 -2.1722 -0.8680  1.5789
  369MOL0     H49777   2.598   3.405   1.188 -0.3907 -5.6880  3.0614
  369MOL0     H49778   2.504   3.557   1.219  2.0698  1.1641 -0.3051
  369MOL0     H49779   2.446   3.623   0.868  0.2499 -0.0631 -0.2019
  369MOL0     H49780   2.405   3.631   0.632  0.1649  0.6564 -0.7286
  369MOL0     H49781   2.432   3.559   0.424  1.3089 -1.2983 -2.9122
  369MOL0     H49782   2.471   3.398   0.457 -2.0837  0.2602  1.8928
  369MOL0     H49783   2.449   3.461   0.215 -0.0023 -1.0901  1.7597
  369MOL0     H49784   2.341   3.326   0.268 -0.7208  0.6477  0.3293
  369MOL0     H49785   2.266   3.623   0.225 -2.3910  0.8977  0.2536
  369MOL0     H49786   2.154   3.497   0.281 -1.1862  0.6230 -0.8707
  369MOL0     H49787   2.286   3.481   0.014  0.0156  0.5684  0.5403
  369MOL0     H49788   2.142   3.395   0.082 -1.0387  0.5584 -0.7484
  369MOL0     H49789   2.095   3.563  -0.100  2.0999 -0.8250  1.0922
  369MOL0     H49790   2.118   3.674   0.038 -1.1141 -0.1417  1.4732
  369MOL0     H49791   1.923   3.438   0.021  0.6130  0.1302 -1.4324
  369MOL0     H49792   1.928   3.558   0.152  0.3142 -3.0788  0.1205
  369MOL0     H49793   1.842   3.608  -0.142  1.5915  0.3689 -0.9396
  369MOL0     H49794   1.877   3.734  -0.018 -1.0154 -0.5286  1.9791
  369MOL0     H49795   1.703   3.641   0.131  0.4464  0.9182  0.4272
  369MOL0     H49796   1.668   3.519   0.008 -1.9256  0.7595  0.8485
  369MOL0     H49797   2.178   3.264   0.675 -0.1874  1.1222  0.1575
  369MOL0     H49798   2.205   3.281   0.916 -4.2013  1.9519  1.2296
  369MOL0     H49799   2.149   3.229   1.278 -1.0784  1.2684  1.4258
  369MOL0     H49800   2.207   3.129   1.490 -0.1217  1.5749 -0.4036
  369MOL0     H49801   3.082   2.406   2.947 -2.3246 -0.9204  1.9556
  369MOL0     H49802   2.991   2.244   3.100  0.0691 -2.3832  2.2405
  369MOL0     H49803   3.020   1.791   3.246  0.6248 -1.3955  0.4327
  369MOL0     H49804   2.934   1.567   3.343 -0.3485  0.7429  1.0129
  369MOL0     H49805   2.547   1.570   3.522  2.4325  0.3537  0.0906
  369MOL0     H49806   2.464   1.503   3.380  0.4366 -0.4185  1.4164
  369MOL0     H49807   2.438   1.353   3.558  0.1977  3.6600 -0.4594
  369MOL0     H49808   2.604   1.339   3.594 -2.6815 -2.8721  1.3784
  369MOL0     H49809   2.660   1.225   3.385 -0.0203  1.2234  0.4851
  369MOL0     H49810   2.492   1.259   3.327 -3.5847 -1.2410  2.3020
  369MOL0     H49811   2.606   1.108   3.559  4.5365 -1.7186 -3.9789
  369MOL0     H49812   2.568   1.024   3.413  1.4266  0.0355 -0.1823
  369MOL0     H49813   2.171   1.080   3.565 -0.4999 -0.7182 -1.7314
  369MOL0     H49814   2.529   1.724   3.293  0.0775 -1.4323 -2.2240
  369MOL0     H49815   2.628   1.935   3.227 -1.3508 -0.3083  2.4905
  370MOL0     O49816   5.689   3.159   7.112  0.0649  0.6664  0.5405
  370MOL0     C49817   5.665   3.225   7.009 -0.3818 -0.8945 -0.3185
  370MOL0     O49818   5.548   3.216   6.935  0.6257  0.3763  0.0531
  370MOL0     C49819   5.444   3.133   6.978  0.2907 -0.6840  0.6520
  370MOL0     C49820   5.376   3.066   6.882  0.1264 -0.8587 -0.5468
  370MOL0     C49821   5.270   2.979   6.902 -0.9199 -1.1829  0.3105
  370MOL0     C49822   5.219   2.978   7.029  0.3880 -0.6958 -0.8818
  370MOL0     O49823   5.121   2.897   7.083 -0.1947 -0.1043  0.0425
  370MOL0     C49824   5.106   2.762   7.032  0.6676 -0.3617 -0.2758
  370MOL0     C49825   5.004   2.761   6.914 -1.0421  1.1616 -0.2568
  370MOL0     C49826   4.918   2.633   6.918 -0.1099 -0.6459 -0.6526
  370MOL0     C49827   4.868   2.588   6.779  0.9719  0.0316 -0.8844
  370MOL0     C49828   4.763   2.473   6.787  0.8581 -0.1110  0.6983
  370MOL0     C49829   4.820   2.330   6.812  0.4069 -1.3518 -0.2538
  370MOL0     C49830   4.723   2.223   6.762  0.1725  0.0866  0.4681
  370MOL0     C49831   4.582   2.202   6.845 -0.4700 -0.3428 -0.5684
  370MOL0     N49832   4.523   2.059   6.837  0.7505  0.5314  0.4868
  370MOL0     C49833   4.584   1.947   6.894  0.0483  0.3434  1.0925
  370MOL0     C49834   4.500   1.842   6.881  0.0320  0.7698  0.2548
  370MOL0     C49835   4.512   1.698   6.928  0.1653 -0.2286 -0.2278
  370MOL0     C49836   4.566   1.620   6.808 -0.8915  0.0098  0.8815
  370MOL0     C49837   4.693   1.692   6.742  0.1526  0.3485 -0.0284
  370MOL0     C49838   4.766   1.585   6.663  0.3878  0.8039  0.7387
  370MOL0     O49839   4.836   1.649   6.559 -0.6666 -0.3603 -0.5962
  370MOL0     C49840   4.782   1.667   6.432 -0.3422 -0.2542  0.2195
  370MOL0     C49841   4.865   1.724   6.328  0.4123  0.0966 -0.5028
  370MOL0     C49842   4.816   1.740   6.195  0.6898  0.1044  0.3930
  370MOL0     C49843   4.908   1.782   6.077  0.3098 -0.6403  0.4714
  370MOL0     C49844   4.682   1.697   6.160 -0.6520  0.1921 -0.2556
  370MOL0     C49845   4.626   1.705   6.020 -1.0767  0.3916  0.4187
  370MOL0     O49846   4.657   1.802   5.922 -0.3889  0.1245  0.1267
  370MOL0     C49847   4.564   1.824   5.832  0.2941  0.1326  0.1894
  370MOL0     C49848   4.492   1.942   5.847 -0.0950  0.0696 -0.5255
  370MOL0     C49849   4.386   1.988   5.767 -0.3002  0.1342 -0.5696
  370MOL0     C49850   4.363   1.904   5.655  0.7712  0.6944  0.0082
  370MOL0     O49851   4.274   1.934   5.560  0.6060 -0.0787 -0.0937
  370MOL0     C49852   4.207   2.064   5.558  0.5214 -0.2192  1.1295
  370MOL0     C49853   4.180   2.099   5.410 -0.1073  0.2036 -0.2531
  370MOL0     C49854   4.063   1.999   5.351  1.0668  0.0009  0.4817
  370MOL0     C49855   4.050   2.025   5.201  1.1207 -0.5444 -0.5013
  370MOL0     C49856   3.997   1.904   5.117 -0.7489  0.3281 -0.4548
  370MOL0     C49857   3.849   1.876   5.157 -0.5977  0.6504  0.8645
  370MOL0     C49858   3.776   1.771   5.059 -0.1816  0.2184  0.5026
  370MOL0     C49859   3.792   1.802   4.912  0.3229  0.9077 -0.0103
  370MOL0    Cl49860   3.693   1.697   4.820  0.0667  0.1366  0.1637
  370MOL0     C49861   4.430   1.784   5.639  1.2444  1.2474 -0.5717
  370MOL0     C49862   4.538   1.751   5.719  0.2929  0.2798  0.6859
  370MOL0     O49863   4.537   1.617   6.010 -0.2742 -0.2273  0.4218
  370MOL0     C49864   4.607   1.641   6.263 -0.3876 -0.0722 -0.8029
  370MOL0     C49865   4.654   1.634   6.394 -0.4009  0.7289 -0.0680
  370MOL0     N49866   4.386   1.892   6.820  0.6869  0.2590  0.1418
  370MOL0     N49867   4.406   2.012   6.784 -0.1694 -0.3446 -0.5100
  370MOL0     C49868   5.268   3.059   7.131  0.5631  0.2455  0.0921
  370MOL0     C49869   5.376   3.142   7.106  0.4150 -0.3258 -0.0602
  370MOL0     C49870   5.749   3.350   6.982 -0.4990  0.3268  0.6674
  370MOL0     C49871   5.718   3.443   6.866 -0.1124 -0.5979 -0.3924
  370MOL0     C49872   5.797   3.557   6.850  0.7090 -1.3013 -0.5386
  370MOL0     C49873   5.915   3.590   6.916 -0.0766  0.1563  0.2127
  370MOL0     O49874   5.996   3.700   6.890 -0.0004  1.2412  0.2334
  370MOL0     C49875   5.929   3.814   6.824  0.2011 -0.0961 -0.5876
  370MOL0     C49876   6.017   3.930   6.846  0.5051  0.3600 -0.0186
  370MOL0     C49877   6.157   3.903   6.783  0.0049  0.5770 -0.1079
  370MOL0     C49878   6.252   4.014   6.816  0.0286 -0.2395  0.5477
  370MOL0     C49879   6.374   4.022   6.735  1.2501 -0.1441 -0.3978
  370MOL0     C49880   6.473   4.035   6.674 -0.4111 -0.1657  0.4015
  370MOL0     C49881   5.940   3.507   7.026 -1.5034 -0.1913  0.3285
  370MOL0     C49882   5.864   3.387   7.057  0.4874 -0.8423  0.3233
  370MOL0     H49883   5.406   3.086   6.780 -0.5033  0.4218 -0.5066
  370MOL0     H49884   5.234   2.925   6.815  2.3585 -1.3475 -1.0845
  370MOL0     H49885   5.201   2.718   7.001  0.4342 -2.4325  1.6242
  370MOL0     H49886   5.077   2.701   7.118 -2.7223  0.7113 -0.4931
  370MOL0     H49887   4.931   2.843   6.908 -1.2400  1.2673  2.4120
  370MOL0     H49888   5.069   2.768   6.826  0.9777 -2.5664  0.7182
  370MOL0     H49889   4.974   2.555   6.969  0.4137  0.1849  0.0612
  370MOL0     H49890   4.833   2.648   6.985  1.2378 -1.7260  1.3784
  370MOL0     H49891   4.822   2.676   6.734  2.3343 -0.6284 -3.8868
  370MOL0     H49892   4.946   2.567   6.704  0.2490  2.0775 -2.2911
  370MOL0     H49893   4.680   2.499   6.854 -0.7248 -0.8671 -0.9027
  370MOL0     H49894   4.719   2.480   6.688  2.5701  1.8686 -0.0058
  370MOL0     H49895   4.914   2.327   6.757 -0.8446 -2.4058 -2.4438
  370MOL0     H49896   4.831   2.320   6.921  0.4305 -0.3761 -0.1504
  370MOL0     H49897   4.699   2.259   6.662  1.1318  3.3329  1.2805
  370MOL0     H49898   4.772   2.125   6.759  3.1907  1.4438  1.6776
  370MOL0     H49899   4.512   2.281   6.816 -0.6374 -0.5194 -0.6402
  370MOL0     H49900   4.611   2.219   6.949  2.3682 -2.0397 -0.9569
  370MOL0     H49901   4.683   1.944   6.938 -0.7154  0.5481  2.9325
  370MOL0     H49902   4.574   1.696   7.018 -2.8113  3.3970  2.2258
  370MOL0     H49903   4.410   1.663   6.947  0.7401 -1.8475  0.0051
  370MOL0     H49904   4.478   1.620   6.743 -1.3913  2.3238  1.4475
  370MOL0     H49905   4.589   1.517   6.836 -1.3059 -1.2251 -2.8203
  370MOL0     H49906   4.763   1.731   6.817 -0.4045  0.4158  0.4691
  370MOL0     H49907   4.648   1.774   6.686 -0.8178 -0.1242  0.0312
  370MOL0     H49908   4.702   1.500   6.639  0.1101  0.9212  1.0745
  370MOL0     H49909   4.843   1.537   6.725  0.9345  0.1850 -0.3821
  370MOL0     H49910   4.960   1.773   6.347  0.8483 -0.9974  0.2757
  370MOL0     H49911   5.014   1.773   6.104  0.9502 -2.4718 -2.2268
  370MOL0     H49912   4.889   1.736   5.979 -3.7667  0.8639  0.3685
  370MOL0     H49913   4.876   1.884   6.054 -2.1744 -2.0383 -3.3284
  370MOL0     H49914   4.501   2.013   5.928  3.9803  0.8077 -1.4392
  370MOL0     H49915   4.321   2.069   5.797 -3.1405 -1.8996 -0.8029
  370MOL0     H49916   4.110   2.056   5.607 -2.5899 -0.1013 -4.1510
  370MOL0     H49917   4.269   2.146   5.593 -0.5518  0.1753  2.1452
  370MOL0     H49918   4.139   2.200   5.399 -3.8143 -1.1169  0.0483
  370MOL0     H49919   4.272   2.085   5.354  1.0292  1.3453  1.2365
  370MOL0     H49920   3.966   2.022   5.395 -1.0663  2.2955 -4.6400
  370MOL0     H49921   4.084   1.892   5.365 -2.2853 -0.4452  3.4008
  370MOL0     H49922   3.992   2.117   5.194  2.8224  0.6375  0.1650
  370MOL0     H49923   4.145   2.056   5.157  0.9544 -1.0786 -1.2590
  370MOL0     H49924   4.069   1.828   5.149  0.3230  1.7308  0.5722
  370MOL0     H49925   4.002   1.916   5.008 -3.9408 -0.9928 -0.8512
  370MOL0     H49926   3.848   1.831   5.256 -2.0319 -0.7678  0.2559
  370MOL0     H49927   3.798   1.973   5.162  2.7197  2.4430  2.8764
  370MOL0     H49928   3.672   1.770   5.092 -0.5512 -1.1908 -0.6182
  370MOL0     H49929   3.815   1.669   5.072 -2.4274 -0.7425  0.1378
  370MOL0     H49930   3.895   1.779   4.885 -0.2735 -2.5562  0.2806
  370MOL0     H49931   3.769   1.907   4.892  0.6027  1.1605  0.9365
  370MOL0     H49932   4.416   1.711   5.560 -0.9687  0.3825  0.5369
  370MOL0     H49933   4.585   1.659   5.684 -1.1160 -0.2511  0.1060
  370MOL0     H49934   4.504   1.616   6.236 -1.5821  3.2261  0.2106
  370MOL0     H49935   4.594   1.584   6.469  0.0635  1.5846  0.9020
  370MOL0     H49936   5.216   3.054   7.227 -0.3658  0.7344 -0.3665
  370MOL0     H49937   5.409   3.204   7.189  1.8482 -0.7524 -0.2835
  370MOL0     H49938   5.636   3.418   6.799 -0.8681  2.7889 -0.9224
  370MOL0     H49939   5.786   3.627   6.768 -1.5681 -0.3964  0.4251
  370MOL0     H49940   5.935   3.795   6.717  0.1647 -0.6478 -0.4966
  370MOL0     H49941   5.826   3.842   6.850  0.5254  1.8339 -1.2815
  370MOL0     H49942   6.026   3.951   6.953 -2.9336 -0.1117  0.4668
  370MOL0     H49943   5.974   4.019   6.800 -1.3938 -0.8474 -0.7000
  370MOL0     H49944   6.146   3.874   6.679  1.7098 -2.2923  0.4224
  370MOL0     H49945   6.197   3.812   6.830  0.1597  1.0836  0.7750
  370MOL0     H49946   6.269   4.002   6.924 -0.4021  0.2286  0.6754
  370MOL0     H49947   6.203   4.109   6.791 -0.2941 -0.8236 -1.1440
  370MOL0     H49948   6.561   4.044   6.612  3.2038  0.8537  5.0923
  370MOL0     H49949   6.020   3.533   7.095 -3.8578  0.9599  2.8288
  370MOL0     H49950   5.889   3.332   7.147 -0.4006  0.2445  1.2636
  371MOL0     O49951   4.665   8.647   0.563 -0.8550  0.0056 -0.1820
  371MOL0     C49952   4.634   8.590   0.458 -0.8638  0.4103 -0.0403
  371MOL0     O49953   4.716   8.564   0.358  0.0349  0.9006 -0.2766
  371MOL0     C49954   4.857   8.568   0.360  0.1266  0.3678  0.3358
  371MOL0     C49955   4.931   8.467   0.300 -0.0899  1.2801  0.3934
  371MOL0     C49956   5.070   8.467   0.298 -0.9011 -1.3941 -0.5856
  371MOL0     C49957   5.139   8.579   0.351 -0.0615 -0.7202 -1.1071
  371MOL0     O49958   5.275   8.577   0.365  0.1754  0.0884 -0.0398
  371MOL0     C49959   5.351   8.688   0.398 -0.8242  0.1655 -0.4020
  371MOL0     C49960   5.371   8.786   0.282  0.6768 -0.5264 -0.2772
  371MOL0     C49961   5.416   8.726   0.150 -0.1179 -0.1696  0.6231
  371MOL0     C49962   5.504   8.838   0.084 -0.1229  0.1292  0.6560
  371MOL0     C49963   5.648   8.838   0.132 -0.2064  0.9352 -0.3062
  371MOL0     C49964   5.745   8.878   0.014 -0.9132 -0.2171  0.4718
  371MOL0     C49965   5.726   9.022  -0.035  0.5513  0.0838 -0.2385
  371MOL0     C49966   5.846   9.090  -0.089 -0.5046 -0.7457 -0.3592
  371MOL0     N49967   5.907   9.016  -0.207 -0.3414  0.2569 -0.9410
  371MOL0     C49968   5.855   8.929  -0.302 -0.4550  0.3308 -0.1424
  371MOL0     C49969   5.972   8.877  -0.355 -0.1654 -0.1137 -0.1896
  371MOL0     C49970   5.976   8.792  -0.481 -0.5216  0.2604 -1.5131
  371MOL0     C49971   6.110   8.742  -0.525 -0.7354  0.0894 -0.7804
  371MOL0     C49972   6.108   8.666  -0.653  0.2161  0.5006  0.1811
  371MOL0     C49973   6.038   8.523  -0.634  0.3046 -0.6039 -0.5547
  371MOL0     O49974   6.034   8.462  -0.764  0.6935  0.4877  0.6043
  371MOL0     C49975   5.971   8.340  -0.796  0.4139 -0.8401  0.4460
  371MOL0     C49976   5.970   8.293  -0.924  0.1112 -0.6142  0.5516
  371MOL0     C49977   5.909   8.173  -0.954 -0.0757 -0.9425  0.5865
  371MOL0     C49978   5.899   8.119  -1.099  0.5920  0.2409 -0.9183
  371MOL0     C49979   5.881   8.086  -0.839  0.3985 -0.5650  0.2027
  371MOL0     C49980   5.855   7.937  -0.854 -0.1034  0.3046 -1.0292
  371MOL0     O49981   5.803   7.871  -0.741  0.1720  0.0758  0.2040
  371MOL0     C49982   5.719   7.760  -0.762  0.7427 -0.4208  0.2152
  371MOL0     C49983   5.625   7.754  -0.873  0.7743 -0.2986 -0.4184
  371MOL0     C49984   5.536   7.646  -0.874  0.1395 -0.0431  0.0904
  371MOL0     C49985   5.511   7.561  -0.766 -0.1337  0.0582  0.2173
  371MOL0     O49986   5.416   7.459  -0.751 -0.7079 -1.1100 -0.5744
  371MOL0     C49987   5.287   7.504  -0.778  1.1614 -1.1024 -0.3007
  371MOL0     C49988   5.220   7.538  -0.641  0.4391  0.3051  0.0318
  371MOL0     C49989   5.179   7.407  -0.577 -0.4616  0.7437 -0.3809
  371MOL0     C49990   5.167   7.433  -0.426 -1.0470 -1.1676 -1.1633
  371MOL0     C49991   5.101   7.320  -0.342 -0.6048 -0.4321 -0.9316
  371MOL0     C49992   5.189   7.203  -0.328  0.8364 -0.4144 -0.9731
  371MOL0     C49993   5.119   7.127  -0.222  0.8004  0.3807  0.1776
  371MOL0     C49994   5.213   7.007  -0.196 -0.0014 -0.8820 -0.0385
  371MOL0    Cl49995   5.133   6.926  -0.055  0.0058  0.1591 -0.0937
  371MOL0     C49996   5.606   7.569  -0.663 -0.4679 -1.0132  0.5995
  371MOL0     C49997   5.707   7.665  -0.663  0.5900  0.4612  0.1542
  371MOL0     O49998   5.896   7.882  -0.952  0.1362  0.0827 -0.1481
  371MOL0     C49999   5.880   8.131  -0.711  0.3297  0.0610  0.5494
  371MOL0     C50000   5.927   8.260  -0.694 -0.0779 -0.6157 -0.1206
  371MOL0     N50001   6.085   8.943  -0.297  0.8697 -0.3746 -0.2878
  371MOL0     N50002   6.043   9.014  -0.208 -0.5478  0.0413  0.8592
  371MOL0     C50003   5.060   8.676   0.404 -0.4509  0.3020 -0.0366
  371MOL0     C50004   4.922   8.677   0.418  0.7006 -0.7774  0.4523
  371MOL0     C50005   4.489   8.554   0.442 -0.1773  0.3132  0.2795
  371MOL0     C50006   4.392   8.583   0.542 -0.1163 -0.5090 -1.1783
  371MOL0     C50007   4.254   8.602   0.516  0.0754  0.0685  0.6207
  371MOL0     C50008   4.209   8.562   0.386  0.1066  0.4106 -0.3213
  371MOL0     O50009   4.071   8.559   0.372 -0.2738 -0.0207  0.0411
  371MOL0     C50010   4.007   8.684   0.334 -0.2428  1.1524 -0.0057
  371MOL0     C50011   4.008   8.706   0.183 -0.5935 -0.7583  0.1417
  371MOL0     C50012   3.943   8.593   0.108  0.0387  0.9626 -0.0741
  371MOL0     C50013   3.784   8.602   0.121 -0.2184 -0.2015 -0.0894
  371MOL0     C50014   3.721   8.483   0.049 -2.0924 -0.1697  0.1808
  371MOL0     C50015   3.683   8.396  -0.023 -0.3724  0.0594 -0.1037
  371MOL0     C50016   4.300   8.519   0.292  0.6965 -0.1704 -0.0947
  371MOL0     C50017   4.440   8.514   0.318 -0.1473  0.2033  0.2185
  371MOL0     H50018   4.875   8.387   0.254 -2.0025  2.7314  0.0569
  371MOL0     H50019   5.124   8.386   0.252 -0.3156 -0.3717 -1.7808
  371MOL0     H50020   5.304   8.748   0.477  0.1069 -1.6546  1.6438
  371MOL0     H50021   5.451   8.653   0.426 -1.6571 -0.6592  1.7376
  371MOL0     H50022   5.290   8.854   0.255 -0.5286 -1.3594  1.1309
  371MOL0     H50023   5.456   8.849   0.312 -0.4540  0.5161  0.8611
  371MOL0     H50024   5.477   8.638   0.172 -2.8065 -3.1310 -2.7147
  371MOL0     H50025   5.334   8.681   0.094 -0.2207  1.8910 -1.0165
  371MOL0     H50026   5.497   8.813  -0.022 -1.8914 -3.1341  1.4181
  371MOL0     H50027   5.472   8.942   0.075  4.7752  1.8726  0.1724
  371MOL0     H50028   5.654   8.897   0.224 -0.4877 -0.2361  0.4801
  371MOL0     H50029   5.686   8.742   0.168 -0.3058  0.5233 -1.2505
  371MOL0     H50030   5.849   8.872   0.047 -0.2759 -1.7426 -1.5984
  371MOL0     H50031   5.744   8.815  -0.076 -0.3889  1.1909 -0.5616
  371MOL0     H50032   5.638   9.022  -0.100 -0.0146 -0.0047  0.5157
  371MOL0     H50033   5.685   9.078   0.049 -0.3820 -3.3373  1.7702
  371MOL0     H50034   5.922   9.098  -0.010 -2.3428  3.3785  1.2609
  371MOL0     H50035   5.822   9.189  -0.127  2.0292 -0.7635 -2.3189
  371MOL0     H50036   5.749   8.910  -0.312 -0.3451  0.4289 -1.7740
  371MOL0     H50037   5.906   8.708  -0.477 -1.8771  1.3681 -0.7317
  371MOL0     H50038   5.935   8.854  -0.562 -0.6273  0.4509 -1.3146
  371MOL0     H50039   6.156   8.680  -0.448  0.9798 -1.3145 -2.8306
  371MOL0     H50040   6.167   8.833  -0.545 -1.0550  1.2858  2.9474
  371MOL0     H50041   6.209   8.630  -0.669  0.5327  0.1769  2.4967
  371MOL0     H50042   6.071   8.718  -0.742 -1.2901 -2.2916 -0.9411
  371MOL0     H50043   5.935   8.527  -0.598  0.7505 -1.4887  0.8461
  371MOL0     H50044   6.110   8.466  -0.575 -0.4726 -0.9866  0.0341
  371MOL0     H50045   6.003   8.363  -1.001  2.4726 -0.0829  1.9523
  371MOL0     H50046   5.982   8.059  -1.134  0.4619 -1.1919  1.0629
  371MOL0     H50047   5.803   8.067  -1.106 -0.1135  1.1906  0.8765
  371MOL0     H50048   5.889   8.210  -1.160  1.0001 -0.1098 -1.5136
  371MOL0     H50049   5.636   7.816  -0.962 -0.0193 -3.2927 -2.7464
  371MOL0     H50050   5.481   7.641  -0.967  1.0087  2.3261 -0.6267
  371MOL0     H50051   5.287   7.596  -0.836  0.0334 -2.4038 -2.4753
  371MOL0     H50052   5.237   7.424  -0.833  3.5118 -0.4587 -3.7196
  371MOL0     H50053   5.287   7.601  -0.583  3.2937  0.3644 -3.0445
  371MOL0     H50054   5.127   7.592  -0.662 -0.3783 -0.4533  1.6003
  371MOL0     H50055   5.254   7.329  -0.594  0.8349  1.7611  0.4333
  371MOL0     H50056   5.084   7.367  -0.615 -1.2990  2.1474  0.1550
  371MOL0     H50057   5.266   7.457  -0.388 -1.0186 -1.8272 -0.8030
  371MOL0     H50058   5.106   7.522  -0.412 -0.9747 -0.3725 -4.8272
  371MOL0     H50059   5.007   7.294  -0.391 -0.0754  0.9149 -2.8101
  371MOL0     H50060   5.077   7.366  -0.246  0.6182  3.5279 -2.2910
  371MOL0     H50061   5.189   7.151  -0.424 -1.0623 -2.7313  0.1781
  371MOL0     H50062   5.294   7.227  -0.310  0.9027 -0.5245 -1.2137
  371MOL0     H50063   5.013   7.103  -0.240 -0.4603  4.1168  1.4927
  371MOL0     H50064   5.111   7.192  -0.135  3.1439 -1.5542  1.9390
  371MOL0     H50065   5.316   7.031  -0.170 -0.3882 -1.0426  1.8042
  371MOL0     H50066   5.204   6.939  -0.282  3.1060 -2.1196  0.5094
  371MOL0     H50067   5.608   7.484  -0.597 -1.5953 -3.0821 -1.8516
  371MOL0     H50068   5.769   7.675  -0.574  1.4632 -1.5876 -0.1732
  371MOL0     H50069   5.853   8.074  -0.623 -2.0135 -0.1935 -0.2616
  371MOL0     H50070   5.936   8.294  -0.592 -0.5634  1.0041 -0.5947
  371MOL0     H50071   5.100   8.765   0.452  0.8564 -0.5089  0.4329
  371MOL0     H50072   4.868   8.759   0.465 -2.9743 -2.1785 -0.9609
  371MOL0     H50073   4.412   8.622   0.641 -2.7993  1.7729 -1.3817
  371MOL0     H50074   4.181   8.642   0.585 -1.1860 -0.4675 -0.3675
  371MOL0     H50075   3.908   8.670   0.379  0.7171 -2.1801  1.4457
  371MOL0     H50076   4.063   8.766   0.381  0.1214  0.8372  0.1181
  371MOL0     H50077   4.108   8.719   0.140 -1.2833  1.0485 -0.9984
  371MOL0     H50078   3.957   8.801   0.164  0.2451  0.0879  1.8281
  371MOL0     H50079   3.976   8.494   0.142  0.1269  1.6283  1.9095
  371MOL0     H50080   3.969   8.583   0.002  0.5209  1.5200 -0.0115
  371MOL0     H50081   3.754   8.695   0.072  2.3254  2.6331  3.2410
  371MOL0     H50082   3.751   8.612   0.224  2.8295  0.9746  0.8670
  371MOL0     H50083   3.657   8.318  -0.093  3.4838 -2.0177  0.4953
  371MOL0     H50084   4.254   8.484   0.201  0.7638  2.6860 -1.3183
  371MOL0     H50085   4.502   8.480   0.235  2.4997  0.5069  1.9669
  372MOL0     O50086  11.413  10.313  10.619 -0.1014  0.4543 -0.5682
  372MOL0     C50087  11.346  10.220  10.579  0.5181 -0.7842 -0.3314
  372MOL0     O50088  11.387  10.091  10.572  0.1349  0.0694 -0.1829
  372MOL0     C50089  11.510  10.061  10.630  1.0540  0.6407 -0.1306
  372MOL0     C50090  11.512   9.937  10.694 -0.2694  0.4626 -0.3557
  372MOL0     C50091  11.621   9.880  10.760  0.1663 -0.4628 -0.1538
  372MOL0     C50092  11.743   9.943  10.760  0.1251  0.2041 -0.3535
  372MOL0     O50093  11.854   9.885  10.819  0.1294  0.7607 -0.0113
  372MOL0     C50094  11.979   9.955  10.804  0.3285  0.2059 -0.4163
  372MOL0     C50095  12.039   9.967  10.663  0.9758 -0.5149  1.3010
  372MOL0     C50096  12.156  10.074  10.660  0.0432 -0.4652  0.1470
  372MOL0     C50097  12.273  10.041  10.763  0.6410 -0.2297 -0.6264
  372MOL0     C50098  12.395  10.135  10.739  0.7255 -1.0807  0.3616
  372MOL0     C50099  12.494  10.108  10.851 -0.2123 -0.0612  0.0484
  372MOL0     C50100  12.607  10.209  10.861  0.0528 -0.1139 -0.1224
  372MOL0     C50101  12.715  10.160  10.966 -0.4599  0.1832  0.8348
  372MOL0     N50102  12.787  10.278  11.010  0.3498 -0.8420 -0.7375
  372MOL0     C50103  12.919  10.292  11.014 -1.1472  0.1026 -0.3036
  372MOL0     C50104  12.940  10.415  11.077 -0.3339 -0.2356  0.2511
  372MOL0     C50105  13.065  10.492  11.095  0.2027 -0.1135 -0.1731
  372MOL0     C50106  13.034  10.621  11.173 -1.3928  1.3035 -0.5143
  372MOL0     C50107  12.948  10.731  11.094 -1.4308 -0.7353 -0.7782
  372MOL0     C50108  13.015  10.778  10.971  0.7859 -0.3625  0.0968
  372MOL0     O50109  13.001  10.694  10.851 -0.0754  0.4801 -0.0260
  372MOL0     C50110  13.072  10.736  10.740 -0.0666  0.5097 -0.1177
  372MOL0     C50111  13.074  10.656  10.619 -0.0535 -1.3444  0.0399
  372MOL0     C50112  13.143  10.695  10.506 -0.4212 -0.2341 -0.9944
  372MOL0     C50113  13.142  10.604  10.392 -0.2274  0.2238 -0.3590
  372MOL0     C50114  13.210  10.816  10.506 -0.5351 -0.8970  0.3257
  372MOL0     C50115  13.274  10.869  10.385 -0.3076  0.2384  0.3839
  372MOL0     O50116  13.398  10.893  10.399 -1.0910 -0.9561  0.3632
  372MOL0     C50117  13.458  10.954  10.297  0.4995  0.1568  0.1758
  372MOL0     C50118  13.517  10.871  10.192 -0.0230 -0.0587 -0.0766
  372MOL0     C50119  13.580  10.931  10.087 -0.0309 -0.2678  0.1230
  372MOL0     C50120  13.590  11.071  10.071 -0.3427  0.2380  0.4294
  372MOL0     O50121  13.656  11.126   9.971 -0.6046 -0.6423  0.6367
  372MOL0     C50122  13.688  11.267   9.971 -0.4533  0.0235 -0.0610
  372MOL0     C50123  13.777  11.314   9.861  0.6855 -0.4710 -0.1726
  372MOL0     C50124  13.897  11.211   9.855  0.2284 -0.5063  1.2120
  372MOL0     C50125  14.015  11.284   9.784 -0.1378  0.1364 -0.4076
  372MOL0     C50126  14.086  11.379   9.884  0.4294 -0.1241 -0.2407
  372MOL0     C50127  14.227  11.409   9.844  0.6231 -0.2041 -0.5926
  372MOL0     C50128  14.312  11.296   9.884 -0.4859  1.2137 -0.0450
  372MOL0     C50129  14.463  11.329   9.862  0.7075  0.5721 -0.1967
  372MOL0    Cl50130  14.503  11.342   9.687  0.6454 -0.2964  0.0707
  372MOL0     C50131  13.521  11.147  10.171  0.9004 -0.9072 -0.4111
  372MOL0     C50132  13.456  11.095  10.284 -1.3650  0.2879  0.5468
  372MOL0     O50133  13.200  10.887  10.286  0.2865 -0.5189 -0.2122
  372MOL0     C50134  13.208  10.902  10.620 -0.7197 -0.4666  0.1909
  372MOL0     C50135  13.125  10.862  10.729  0.6633 -0.1641  0.0753
  372MOL0     N50136  12.819  10.455  11.124  0.3420  1.0176  0.0903
  372MOL0     N50137  12.726  10.366  11.092  0.0923  0.9218 -0.7731
  372MOL0     C50138  11.747  10.076  10.703 -0.2849 -0.8139  0.4580
  372MOL0     C50139  11.630  10.128  10.631 -0.0382  0.0711 -0.1964
  372MOL0     C50140  11.209  10.258  10.545 -0.2086 -0.3955  0.7800
  372MOL0     C50141  11.135  10.177  10.454  0.0878 -0.0321  0.0098
  372MOL0     C50142  10.997  10.200  10.432 -0.1170 -0.3473  0.0855
  372MOL0     C50143  10.937  10.313  10.489  0.3401 -0.4294  1.1319
  372MOL0     O50144  10.806  10.336  10.455 -0.5495  0.5345  0.4600
  372MOL0     C50145  10.731  10.232  10.401  0.5742  0.0303  0.1088
  372MOL0     C50146  10.587  10.261  10.422  0.3723 -0.6283  0.6287
  372MOL0     C50147  10.542  10.385  10.333  0.5330  0.4490  0.7950
  372MOL0     C50148  10.398  10.431  10.347 -0.2209  0.9523  0.4283
  372MOL0     C50149  10.382  10.571  10.308  0.2711  0.3887 -0.2567
  372MOL0     C50150  10.345  10.680  10.268  1.2129 -0.0556  0.1040
  372MOL0     C50151  11.011  10.407  10.565  0.6659  0.9472 -0.0909
  372MOL0     C50152  11.144  10.373  10.593  0.8574 -1.1948 -0.2964
  372MOL0     H50153  11.423   9.875  10.694  0.5405 -0.7320  0.5221
  372MOL0     H50154  11.626   9.775  10.784  1.2835 -0.5052 -0.5111
  372MOL0     H50155  11.974  10.051  10.855  0.1560  0.4897 -0.9540
  372MOL0     H50156  12.045   9.897  10.869  0.6522  2.6630  1.5844
  372MOL0     H50157  12.080   9.873  10.624 -1.8321 -2.7947  3.3717
  372MOL0     H50158  11.968  10.003  10.588 -0.0425 -4.6149  0.0271
  372MOL0     H50159  12.193  10.068  10.557  0.4617  1.0938  0.1774
  372MOL0     H50160  12.111  10.172  10.676  0.2541 -0.3577  0.0873
  372MOL0     H50161  12.219  10.062  10.855 -0.8096 -2.1024 -0.9883
  372MOL0     H50162  12.304   9.937  10.749 -0.4037 -0.4925 -1.0658
  372MOL0     H50163  12.447  10.115  10.644  1.2659  4.9798 -0.9870
  372MOL0     H50164  12.360  10.238  10.729  0.1247 -1.4910 -3.3547
  372MOL0     H50165  12.432  10.100  10.941 -0.2559 -2.8086 -0.1489
  372MOL0     H50166  12.538  10.013  10.822 -2.0253 -1.0815  0.4542
  372MOL0     H50167  12.661  10.222  10.767  1.7237 -4.2198  0.0744
  372MOL0     H50168  12.568  10.311  10.875 -0.0931 -0.0590 -0.8398
  372MOL0     H50169  12.786  10.101  10.908 -1.0238 -0.9636  1.2823
  372MOL0     H50170  12.673  10.105  11.051 -0.5840 -1.4935 -0.2812
  372MOL0     H50171  12.988  10.228  10.960 -0.7850 -1.8782  2.3371
  372MOL0     H50172  13.142  10.428  11.138  0.7161 -1.0795 -2.3891
  372MOL0     H50173  13.114  10.513  11.000  2.2067 -1.7891  0.4184
  372MOL0     H50174  13.136  10.661  11.181  0.2991 -2.6044 -0.3171
  372MOL0     H50175  12.990  10.603  11.272  2.3097 -0.5263  1.0128
  372MOL0     H50176  12.950  10.814  11.166  1.2789 -1.3345 -0.0092
  372MOL0     H50177  12.847  10.692  11.084 -2.3716  0.7287  1.9178
  372MOL0     H50178  13.120  10.783  11.001  0.4186  2.3815  1.2036
  372MOL0     H50179  12.978  10.876  10.939  0.8607 -1.3778 -3.5341
  372MOL0     H50180  13.031  10.557  10.611 -2.6533 -0.2404 -0.6832
  372MOL0     H50181  13.242  10.560  10.386 -1.2706 -2.2811 -0.3019
  372MOL0     H50182  13.081  10.514  10.402 -0.2466  0.2350 -0.3732
  372MOL0     H50183  13.113  10.640  10.293 -2.6604 -0.9416 -0.1419
  372MOL0     H50184  13.540  10.767  10.211  0.8764  0.1217 -0.0946
  372MOL0     H50185  13.621  10.862  10.013  1.2129 -0.5341  1.0358
  372MOL0     H50186  13.599  11.327   9.947  0.2289  0.7449 -0.9126
  372MOL0     H50187  13.720  11.309  10.067 -0.4004  0.6536 -0.3457
  372MOL0     H50188  13.723  11.308   9.766  0.9422 -3.9784 -0.2485
  372MOL0     H50189  13.827  11.411   9.872  0.7707 -0.7365  2.4478
  372MOL0     H50190  13.871  11.125   9.794  1.3341  1.4259 -2.2409
  372MOL0     H50191  13.929  11.179   9.955  4.1725 -1.0987 -0.0915
  372MOL0     H50192  14.088  11.204   9.765 -0.2862 -0.2862  0.7378
  372MOL0     H50193  13.993  11.330   9.687 -2.1896  2.7727  1.1843
  372MOL0     H50194  14.094  11.336   9.985  0.4172 -0.7220 -0.4900
  372MOL0     H50195  14.035  11.475   9.878  4.8119  2.3776 -1.9559
  372MOL0     H50196  14.247  11.432   9.739  1.9542  3.9701  0.3667
  372MOL0     H50197  14.276  11.500   9.881  3.5790 -1.4096 -1.2699
  372MOL0     H50198  14.305  11.200   9.832 -0.2384  1.0711  0.1800
  372MOL0     H50199  14.295  11.263   9.987  2.1082 -3.1278 -0.7523
  372MOL0     H50200  14.530  11.257   9.910  0.3071 -2.5067 -3.8270
  372MOL0     H50201  14.490  11.428   9.900  1.1442  0.0705  0.8528
  372MOL0     H50202  13.525  11.256  10.175  2.4362 -0.9529 -0.0537
  372MOL0     H50203  13.410  11.162  10.356 -2.5668 -0.3499  0.4017
  372MOL0     H50204  13.255  10.999  10.611 -2.3703  0.1975 -2.0159
  372MOL0     H50205  13.104  10.928  10.812 -0.2028 -0.4219  0.0719
  372MOL0     H50206  11.839  10.134  10.707 -0.6551 -0.2119  0.3817
  372MOL0     H50207  11.634  10.227  10.584  1.9377 -0.6129 -1.6234
  372MOL0     H50208  11.173  10.090  10.403  0.7546 -0.1919  0.7500
  372MOL0     H50209  10.938  10.132  10.372  1.1852 -1.5453  0.1082
  372MOL0     H50210  10.764  10.232  10.297  0.0902 -2.3342 -0.1022
  372MOL0     H50211  10.747  10.135  10.449  0.8310 -1.5624 -2.9568
  372MOL0     H50212  10.560  10.289  10.525  4.9029  0.7091  1.6623
  372MOL0     H50213  10.519  10.181  10.392  0.2955  0.5491 -2.7728
  372MOL0     H50214  10.567  10.365  10.229  1.4982  3.6497  0.3197
  372MOL0     H50215  10.602  10.471  10.365 -1.0617  1.1346  2.0918
  372MOL0     H50216  10.363  10.418  10.450  0.5001 -0.5142  0.5062
  372MOL0     H50217  10.327  10.369  10.293 -2.5190  0.5925  3.5464
  372MOL0     H50218  10.310  10.772  10.224  3.1502  0.3407 -0.7038
  372MOL0     H50219  10.953  10.491  10.603 -1.5540 -0.6331  0.2394
  372MOL0     H50220  11.201  10.441  10.655  0.7348 -1.5181  0.1799
  373MOL0     O50221   9.825   8.226   7.111 -0.5675  0.3359  0.3824
  373MOL0     C50222   9.779   8.192   7.002 -0.8881  0.2438 -0.2998
  373MOL0     O50223   9.766   8.060   6.958  0.1199 -0.4616  0.4163
  373MOL0     C50224   9.832   7.956   7.019 -1.0219  0.3335  0.7691
  373MOL0     C50225   9.822   7.917   7.150 -0.7957  0.0171 -0.7944
  373MOL0     C50226   9.861   7.781   7.188  0.5868 -0.7608  0.1417
  373MOL0     C50227   9.891   7.693   7.093  0.5040 -1.1684  0.7252
  373MOL0     O50228   9.910   7.566   7.136 -0.5038 -0.0396  0.1923
  373MOL0     C50229   9.874   7.461   7.045  0.3266  0.2913  0.0846
  373MOL0     C50230   9.867   7.331   7.119  0.3266  0.0375 -0.5385
  373MOL0     C50231   9.772   7.330   7.239  0.3879 -0.4356  0.7866
  373MOL0     C50232   9.721   7.188   7.279 -0.2297 -0.7289 -0.0688
  373MOL0     C50233   9.770   7.159   7.425 -0.4218  0.1745  0.7069
  373MOL0     C50234   9.693   7.250   7.524 -0.0870  0.5619 -0.2010
  373MOL0     C50235   9.706   7.194   7.667 -0.0148  0.3767 -0.0779
  373MOL0     C50236   9.624   7.260   7.770 -0.2154  0.1725 -0.6784
  373MOL0     N50237   9.680   7.381   7.825  0.1072 -1.1178 -0.5598
  373MOL0     C50238   9.743   7.392   7.950  0.3953 -1.2958  0.5030
  373MOL0     C50239   9.741   7.531   7.975  0.3763 -0.8725 -0.4178
  373MOL0     C50240   9.782   7.590   8.102 -1.0792 -0.5280 -0.7374
  373MOL0     C50241   9.677   7.571   8.213 -1.0694  0.0747  0.4578
  373MOL0     C50242   9.713   7.660   8.333 -0.1711  0.6882  0.1243
  373MOL0     C50243   9.721   7.807   8.297  0.2442  0.1787 -0.6529
  373MOL0     O50244   9.705   7.898   8.411  0.4477  0.1136  0.5171
  373MOL0     C50245   9.583   7.911   8.475  0.9215 -0.1206 -0.0766
  373MOL0     C50246   9.584   7.975   8.598 -1.2482 -0.0629 -0.4671
  373MOL0     C50247   9.468   7.986   8.679 -0.1314  0.1044 -0.6020
  373MOL0     C50248   9.503   8.045   8.815  0.3600  0.7863 -0.5727
  373MOL0     C50249   9.350   7.911   8.633 -0.8553 -0.5332  0.4675
  373MOL0     C50250   9.221   7.920   8.708 -0.1068 -0.2876  0.6671
  373MOL0     O50251   9.106   7.856   8.655 -0.4153 -1.0479 -0.0817
  373MOL0     C50252   8.985   7.856   8.721 -0.2467  0.7265  0.1657
  373MOL0     C50253   8.941   7.733   8.773 -0.2225 -0.6732 -0.6075
  373MOL0     C50254   8.805   7.725   8.831  0.3323 -0.3092 -0.4138
  373MOL0     C50255   8.717   7.840   8.825 -0.6017  0.5536  0.7708
  373MOL0     O50256   8.590   7.818   8.873 -0.3252  0.1820  1.2325
  373MOL0     C50257   8.533   7.925   8.955  1.0503  0.8660 -0.7274
  373MOL0     C50258   8.455   7.848   9.062 -0.1141 -0.1302 -0.0044
  373MOL0     C50259   8.379   7.943   9.151 -0.0557  0.1891 -0.4564
  373MOL0     C50260   8.261   7.857   9.207  0.4970  0.4116 -0.3648
  373MOL0     C50261   8.308   7.754   9.305  0.5167  0.1035  0.0518
  373MOL0     C50262   8.192   7.709   9.396  1.0710  0.1684 -0.5764
  373MOL0     C50263   8.243   7.600   9.502  0.5123 -0.0461  0.4881
  373MOL0     C50264   8.148   7.488   9.541 -0.3557  0.2495  0.0104
  373MOL0    Cl50265   8.124   7.390   9.390  0.3301  0.3655 -0.3863
  373MOL0     C50266   8.774   7.961   8.793 -0.1934  0.2596  0.8569
  373MOL0     C50267   8.905   7.972   8.744  0.3792 -0.1171  0.3218
  373MOL0     O50268   9.218   7.982   8.815  0.3134  0.3019 -0.1200
  373MOL0     C50269   9.360   7.835   8.517 -0.8180 -0.5631  1.0512
  373MOL0     C50270   9.474   7.831   8.439  0.1098 -0.1638 -0.0856
  373MOL0     N50271   9.684   7.591   7.865 -0.4428 -0.0357  0.8138
  373MOL0     N50272   9.646   7.505   7.784 -0.2612  0.1963 -0.4845
  373MOL0     C50273   9.893   7.737   6.957 -0.9630  0.8478  0.0084
  373MOL0     C50274   9.872   7.864   6.922 -0.4131  0.3325 -0.3562
  373MOL0     C50275   9.733   8.306   6.910 -0.2879 -0.2085  0.7356
  373MOL0     C50276   9.761   8.440   6.941 -0.0392 -1.3666 -0.3629
  373MOL0     C50277   9.747   8.537   6.845 -0.0474  0.8522 -0.7295
  373MOL0     C50278   9.710   8.502   6.718 -0.7335 -0.2980  0.1208
  373MOL0     O50279   9.698   8.618   6.648 -0.2744 -0.6191 -0.0931
  373MOL0     C50280   9.618   8.646   6.531 -0.4492  0.0271 -0.2746
  373MOL0     C50281   9.672   8.558   6.408  0.5949  0.7754  0.5459
  373MOL0     C50282   9.767   8.632   6.313  0.7207  0.3778 -0.2702
  373MOL0     C50283   9.901   8.615   6.348  0.4177 -0.3800  0.9231
  373MOL0     C50284  10.001   8.642   6.246 -0.5845 -1.1387  0.1132
  373MOL0     C50285  10.085   8.656   6.154 -0.1549  0.2083  0.8980
  373MOL0     C50286   9.686   8.372   6.682  0.8865 -0.5001 -0.0826
  373MOL0     C50287   9.699   8.275   6.779 -0.7523  0.5625  0.6480
  373MOL0     H50288   9.800   7.972   7.241  0.8175 -2.8179  1.4588
  373MOL0     H50289   9.870   7.742   7.288  1.7280  1.6962  1.0708
  373MOL0     H50290   9.780   7.482   6.994 -0.6914  0.4310  1.9557
  373MOL0     H50291   9.953   7.441   6.971 -0.3465  0.2060 -0.6154
  373MOL0     H50292   9.825   7.260   7.047 -2.9000  2.4312 -1.2768
  373MOL0     H50293   9.963   7.303   7.163 -0.2798  1.4585  1.9143
  373MOL0     H50294   9.808   7.388   7.325  1.8904 -1.1002  0.6352
  373MOL0     H50295   9.681   7.386   7.217  0.5673 -0.9920 -1.6182
  373MOL0     H50296   9.615   7.162   7.268  0.2366 -2.2782 -1.2835
  373MOL0     H50297   9.768   7.110   7.218 -3.9048 -1.2537 -2.5818
  373MOL0     H50298   9.748   7.052   7.433 -2.1492  0.2363 -1.9578
  373MOL0     H50299   9.874   7.181   7.449 -0.0244 -2.6168  1.8617
  373MOL0     H50300   9.731   7.353   7.515  3.3041 -0.2605  2.4423
  373MOL0     H50301   9.588   7.255   7.495 -0.3064 -0.0610  0.4550
  373MOL0     H50302   9.673   7.092   7.647  1.7867  0.0269 -1.5842
  373MOL0     H50303   9.807   7.194   7.709 -0.4776  1.4502  1.1197
  373MOL0     H50304   9.621   7.198   7.861  2.1183  0.5061 -0.3180
  373MOL0     H50305   9.528   7.274   7.719  0.1490 -0.4176 -1.5622
  373MOL0     H50306   9.760   7.313   8.022  0.2567 -0.9254  0.9470
  373MOL0     H50307   9.873   7.541   8.140 -1.3080  0.8954  1.9523
  373MOL0     H50308   9.812   7.693   8.079  1.7995 -0.7460  1.4082
  373MOL0     H50309   9.676   7.470   8.254 -1.7601  0.2618  0.9403
  373MOL0     H50310   9.579   7.609   8.181 -0.5382 -0.3144 -1.7733
  373MOL0     H50311   9.811   7.633   8.375  0.3065  3.2725  0.8754
  373MOL0     H50312   9.647   7.640   8.418  0.0514  5.2283  1.6479
  373MOL0     H50313   9.640   7.833   8.228 -1.4940  1.7105  1.8227
  373MOL0     H50314   9.816   7.823   8.244 -1.5127  0.1201 -4.0921
  373MOL0     H50315   9.682   8.010   8.628 -0.8738 -1.2420 -0.2632
  373MOL0     H50316   9.476   8.151   8.814 -1.1510  0.5494  2.5239
  373MOL0     H50317   9.456   8.008   8.907  1.9828  2.5750  1.0592
  373MOL0     H50318   9.610   8.042   8.834  0.0047  2.5179  2.3932
  373MOL0     H50319   8.996   7.642   8.752 -1.2838 -1.5266  0.1850
  373MOL0     H50320   8.763   7.632   8.869 -0.8691 -0.9980 -3.1537
  373MOL0     H50321   8.617   7.968   9.011  2.4646 -1.4565 -0.9484
  373MOL0     H50322   8.460   7.993   8.910 -1.3018 -1.1877 -0.2073
  373MOL0     H50323   8.395   7.772   9.012  0.4128 -1.6642  1.5934
  373MOL0     H50324   8.530   7.796   9.122  2.3741  2.1794 -0.8938
  373MOL0     H50325   8.326   8.011   9.083  0.2959  2.2963  1.2683
  373MOL0     H50326   8.450   7.987   9.222  2.4064 -0.2745 -2.4765
  373MOL0     H50327   8.204   7.929   9.266  0.6191 -2.1567  3.2374
  373MOL0     H50328   8.195   7.818   9.130 -2.0659  1.6881  1.0483
  373MOL0     H50329   8.383   7.781   9.379  2.3367 -1.9296 -0.9520
  373MOL0     H50330   8.349   7.667   9.253 -0.1231  0.4193 -1.0333
  373MOL0     H50331   8.147   7.796   9.445 -3.2577 -1.8859 -0.4143
  373MOL0     H50332   8.107   7.666   9.342  0.7635 -0.3546  0.3004
  373MOL0     H50333   8.281   7.655   9.588  0.8781  2.4205 -1.1531
  373MOL0     H50334   8.331   7.552   9.457  1.6034  1.7130  0.6416
  373MOL0     H50335   8.051   7.527   9.574  0.1542 -1.2513  3.8956
  373MOL0     H50336   8.192   7.428   9.621  2.1083 -1.7097 -2.6099
  373MOL0     H50337   8.717   8.053   8.796  3.0102  2.4472  0.7183
  373MOL0     H50338   8.942   8.072   8.721  1.1532 -0.1961  1.1350
  373MOL0     H50339   9.281   7.774   8.474  0.0841 -1.6873  0.9284
  373MOL0     H50340   9.464   7.759   8.358  0.3095 -0.8763  0.5212
  373MOL0     H50341   9.926   7.665   6.882 -0.6717 -1.4868  2.2235
  373MOL0     H50342   9.861   7.881   6.815  0.8696  1.4551 -0.3436
  373MOL0     H50343   9.791   8.475   7.040 -1.1625  0.9788 -0.7803
  373MOL0     H50344   9.794   8.631   6.874  0.1349  1.0283 -1.5767
  373MOL0     H50345   9.516   8.612   6.548 -0.1809 -1.6850 -1.7875
  373MOL0     H50346   9.612   8.753   6.509 -0.4333  0.1874  0.4546
  373MOL0     H50347   9.590   8.542   6.337  1.2677 -0.6596  0.0487
  373MOL0     H50348   9.716   8.460   6.430  2.4257  1.5027  0.3844
  373MOL0     H50349   9.739   8.738   6.310 -3.7730 -0.5953  0.5406
  373MOL0     H50350   9.751   8.592   6.213 -2.2985  2.3599 -0.7017
  373MOL0     H50351   9.916   8.517   6.394 -1.7434 -0.4073  1.6886
  373MOL0     H50352   9.921   8.688   6.427  2.0592 -0.7371  0.8797
  373MOL0     H50353  10.141   8.654   6.063 -0.2006 -1.9467  0.8785
  373MOL0     H50354   9.674   8.335   6.581  1.9333 -0.0928 -0.3706
  373MOL0     H50355   9.695   8.169   6.757  0.0983  0.4918  0.7900
  374MOL0     O50356  10.830  11.085   8.158 -0.2674  0.4607 -0.7435
  374MOL0     C50357  10.829  11.004   8.251 -0.4676  0.2823  0.3867
  374MOL0     O50358  10.803  11.043   8.383 -0.6396  0.2409  0.2537
  374MOL0     C50359  10.724  11.149   8.393  0.1767  1.1786  0.0776
  374MOL0     C50360  10.751  11.252   8.486 -0.3125 -0.0968  0.6867
  374MOL0     C50361  10.646  11.336   8.518  0.2495  0.4757 -0.2363
  374MOL0     C50362  10.518  11.327   8.459 -0.7551  0.2366 -0.2841
  374MOL0     O50363  10.435  11.434   8.495  0.4813 -0.6896 -0.3819
  374MOL0     C50364  10.303  11.435   8.441 -0.2968 -0.6762 -0.2493
  374MOL0     C50365  10.246  11.568   8.510 -0.2449 -0.6237 -0.1611
  374MOL0     C50366  10.099  11.575   8.472  1.6617  0.4643 -0.5380
  374MOL0     C50367  10.030  11.694   8.540  0.7877 -0.7718 -0.1128
  374MOL0     C50368   9.874  11.686   8.554  0.1091 -0.0260 -0.3157
  374MOL0     C50369   9.841  11.568   8.646  0.4581 -0.6187  0.0990
  374MOL0     C50370   9.696  11.560   8.699 -0.7780 -0.5663 -0.0153
  374MOL0     C50371   9.590  11.562   8.596  1.0811 -0.3813 -0.1496
  374MOL0     N50372   9.593  11.460   8.489 -0.3984 -0.1881  0.5402
  374MOL0     C50373   9.579  11.327   8.498  0.3155  0.0620 -0.0543
  374MOL0     C50374   9.591  11.267   8.379 -1.0780  0.1053  0.4863
  374MOL0     C50375   9.576  11.125   8.328 -0.1981 -0.2587 -0.6000
  374MOL0     C50376   9.699  11.037   8.355 -0.5095 -0.5330  0.6690
  374MOL0     C50377   9.684  10.892   8.298  0.1353  0.6346  0.3153
  374MOL0     C50378   9.605  10.804   8.400  1.0941  0.7149  0.4426
  374MOL0     O50379   9.465  10.831   8.387  0.7251  0.6762 -0.0887
  374MOL0     C50380   9.383  10.807   8.493 -0.1146 -0.7689  0.2907
  374MOL0     C50381   9.410  10.702   8.585 -0.9523  0.0227 -0.0922
  374MOL0     C50382   9.330  10.692   8.697 -0.1058  0.7095 -0.1422
  374MOL0     C50383   9.387  10.588   8.792  0.2922 -0.4630 -0.3228
  374MOL0     C50384   9.210  10.772   8.706 -0.0390 -0.1150 -0.6054
  374MOL0     C50385   9.106  10.751   8.813  0.1210 -0.6432 -0.0918
  374MOL0     O50386   8.991  10.838   8.809 -0.0016  0.4542 -0.1127
  374MOL0     C50387   8.894  10.807   8.905  0.0388  0.3727  0.0400
  374MOL0     C50388   8.888  10.879   9.023 -0.5335  0.6335  0.2786
  374MOL0     C50389   8.793  10.848   9.119 -0.8442  0.9278  1.0952
  374MOL0     C50390   8.690  10.753   9.094 -0.3451 -0.4005  1.2379
  374MOL0     O50391   8.601  10.717   9.192 -0.1117 -0.1563 -0.2844
  374MOL0     C50392   8.637  10.721   9.328 -0.5816 -0.5203  0.0697
  374MOL0     C50393   8.568  10.616   9.421  0.0775 -0.5855  0.3096
  374MOL0     C50394   8.584  10.473   9.363 -0.0074 -0.1566  0.4484
  374MOL0     C50395   8.497  10.372   9.425  0.2691 -0.5704 -1.0490
  374MOL0     C50396   8.547  10.340   9.575 -0.0840  0.5312 -0.1453
  374MOL0     C50397   8.693  10.283   9.575 -0.0889  0.2063  0.0949
  374MOL0     C50398   8.730  10.180   9.681  0.2861 -0.4964  0.1916
  374MOL0     C50399   8.716  10.209   9.835  0.3195  0.6051 -0.2383
  374MOL0    Cl50400   8.549  10.220   9.904 -0.2413  0.3113 -0.1635
  374MOL0     C50401   8.688  10.686   8.966  0.0979  0.0982 -0.3388
  374MOL0     C50402   8.786  10.719   8.873 -0.0170  0.7576  0.1630
  374MOL0     O50403   9.116  10.645   8.877  0.5698  0.3812 -1.3850
  374MOL0     C50404   9.183  10.857   8.593  0.7070 -0.2175  0.3006
  374MOL0     C50405   9.256  10.876   8.485 -0.8465 -0.7752 -0.8024
  374MOL0     N50406   9.619  11.378   8.295  0.4636 -0.1784  0.2520
  374MOL0     N50407   9.620  11.482   8.356 -0.1242  0.0530 -0.3361
  374MOL0     C50408  10.489  11.231   8.371 -0.2816  0.4104  0.2641
  374MOL0     C50409  10.585  11.131   8.338  0.6583 -0.5970  0.3171
  374MOL0     C50410  10.872  10.863   8.229 -0.6021 -0.2383 -0.8598
  374MOL0     C50411  10.843  10.770   8.329 -0.0605  0.8734 -0.6747
  374MOL0     C50412  10.882  10.632   8.312 -0.9190  0.4815  0.0295
  374MOL0     C50413  10.967  10.590   8.201  0.2059 -0.4625  1.2941
  374MOL0     O50414  11.020  10.466   8.169 -0.0801  0.4784  0.9353
  374MOL0     C50415  10.967  10.342   8.235  0.4379 -0.2522  0.5199
  374MOL0     C50416  10.844  10.287   8.158 -0.6278 -0.2755 -0.0558
  374MOL0     C50417  10.771  10.179   8.238  0.4542 -0.0170 -0.2343
  374MOL0     C50418  10.821  10.034   8.250 -1.1013  0.2962 -0.5172
  374MOL0     C50419  10.786   9.961   8.121 -0.1405  0.7777  0.0407
  374MOL0     C50420  10.773   9.891   8.022 -0.0697 -0.2354 -0.4708
  374MOL0     C50421  10.991  10.693   8.106 -0.7396  0.2843 -0.0878
  374MOL0     C50422  10.935  10.819   8.113  0.2173 -0.3517  0.2393
  374MOL0     H50423  10.852  11.261   8.525 -0.8242 -2.1974  2.7528
  374MOL0     H50424  10.670  11.413   8.591 -0.6437  0.1976  0.3659
  374MOL0     H50425  10.302  11.453   8.333 -5.6157 -0.9033 -0.4730
  374MOL0     H50426  10.251  11.341   8.459 -0.2266 -0.8794 -1.0748
  374MOL0     H50427  10.262  11.541   8.615  0.5328 -4.8334 -1.1778
  374MOL0     H50428  10.292  11.664   8.486 -1.8378  0.4348  0.7824
  374MOL0     H50429  10.097  11.594   8.364 -1.5661 -0.7869 -0.8046
  374MOL0     H50430  10.054  11.478   8.494 -2.8660  2.5483  0.6879
  374MOL0     H50431  10.071  11.700   8.641 -1.4835 -1.3229  0.9168
  374MOL0     H50432  10.056  11.782   8.481 -1.5709  0.6361  0.7872
  374MOL0     H50433   9.841  11.770   8.614 -2.6984 -2.1018  1.2981
  374MOL0     H50434   9.815  11.684   8.462 -1.8862  1.3077  0.8588
  374MOL0     H50435   9.868  11.476   8.594 -0.3320 -0.8655  0.1108
  374MOL0     H50436   9.918  11.565   8.724  0.7311 -0.9563 -0.1758
  374MOL0     H50437   9.678  11.467   8.754  0.1450 -1.1607 -0.6930
  374MOL0     H50438   9.684  11.640   8.773  0.5100 -0.8955  0.5855
  374MOL0     H50439   9.582  11.661   8.550 -1.9233 -0.2138  0.5022
  374MOL0     H50440   9.491  11.544   8.640 -1.0954 -0.1146 -4.4653
  374MOL0     H50441   9.556  11.276   8.591  1.9072 -0.2871  0.1780
  374MOL0     H50442   9.495  11.067   8.374 -0.0479 -0.3400 -0.4378
  374MOL0     H50443   9.551  11.121   8.222  1.1511  2.3684 -1.1015
  374MOL0     H50444   9.726  11.033   8.461  1.7449  0.7702  0.2012
  374MOL0     H50445   9.774  11.089   8.296 -1.5982  1.0403  0.6133
  374MOL0     H50446   9.781  10.841   8.296 -1.1603 -2.1193 -2.7439
  374MOL0     H50447   9.639  10.897   8.198  1.5599 -2.3870 -0.6197
  374MOL0     H50448   9.640  10.816   8.503  3.0147 -0.4586 -0.0251
  374MOL0     H50449   9.615  10.697   8.383 -2.9405 -0.0254  1.5274
  374MOL0     H50450   9.500  10.644   8.569  0.3926  1.8935  0.3148
  374MOL0     H50451   9.364  10.602   8.898  0.1773  0.3961 -0.4464
  374MOL0     H50452   9.350  10.488   8.770 -0.2420 -0.5975  1.0992
  374MOL0     H50453   9.495  10.594   8.802  0.2129  0.4519  0.2134
  374MOL0     H50454   8.971  10.949   9.028 -0.4689  0.5977 -0.2293
  374MOL0     H50455   8.803  10.899   9.215  0.6447 -1.3240  2.2195
  374MOL0     H50456   8.744  10.698   9.328 -0.7909 -1.5399  0.5667
  374MOL0     H50457   8.633  10.825   9.362 -2.8045 -0.0596 -1.4253
  374MOL0     H50458   8.611  10.618   9.522 -1.7613  2.0061  1.1428
  374MOL0     H50459   8.465  10.652   9.415  0.4765  0.3901 -3.6585
  374MOL0     H50460   8.686  10.435   9.378  0.0078  0.3218  1.6536
  374MOL0     H50461   8.561  10.473   9.256  0.6507  0.4721  0.3007
  374MOL0     H50462   8.398  10.419   9.431  0.0379 -1.1698  3.9609
  374MOL0     H50463   8.506  10.278   9.371  4.3699 -2.8423  2.8323
  374MOL0     H50464   8.476  10.278   9.630  0.5970 -1.3240 -1.2765
  374MOL0     H50465   8.550  10.436   9.628  0.3402  0.2778  0.2982
  374MOL0     H50466   8.695  10.231   9.478 -1.7737  3.1599 -1.6692
  374MOL0     H50467   8.767  10.362   9.581  0.0593 -0.0412  3.3332
  374MOL0     H50468   8.835  10.169   9.655 -0.1470  0.1416 -2.0222
  374MOL0     H50469   8.674  10.089   9.656 -1.7333  1.3900 -2.9866
  374MOL0     H50470   8.758  10.310   9.845  2.6759 -0.5199  2.5666
  374MOL0     H50471   8.779  10.140   9.892 -0.2133 -0.4932 -0.9502
  374MOL0     H50472   8.619  10.605   8.945 -0.8604  0.8978 -0.3372
  374MOL0     H50473   8.789  10.675   8.774 -0.1554 -1.5423  1.1302
  374MOL0     H50474   9.090  10.913   8.581  0.8236 -0.4545 -2.2947
  374MOL0     H50475   9.235  10.957   8.416 -0.4973  2.0828  2.1756
  374MOL0     H50476  10.396  11.212   8.318 -1.4801  2.2941  1.5765
  374MOL0     H50477  10.544  11.048   8.280 -3.3227  0.3713  1.4312
  374MOL0     H50478  10.793  10.799   8.422  0.4614 -2.5318  0.8339
  374MOL0     H50479  10.865  10.560   8.391 -1.4292 -2.5734 -2.6315
  374MOL0     H50480  11.053  10.274   8.235 -1.9537 -3.5755 -1.1426
  374MOL0     H50481  10.932  10.349   8.338 -2.6702 -2.4519 -0.2473
  374MOL0     H50482  10.885  10.240   8.068  1.4129 -0.2618  0.8130
  374MOL0     H50483  10.784  10.370   8.119  0.1285  1.0167  1.4313
  374MOL0     H50484  10.667  10.183   8.202  0.4062  1.7267  0.0249
  374MOL0     H50485  10.754  10.208   8.342 -3.0946 -1.3891 -0.2926
  374MOL0     H50486  10.785   9.988   8.343  0.4443 -1.0276 -0.5253
  374MOL0     H50487  10.930  10.036   8.263 -1.2716  0.8827  1.1053
  374MOL0     H50488  10.751   9.818   7.946  1.7140 -0.8829 -0.4101
  374MOL0     H50489  11.041  10.654   8.019 -2.3127 -1.6715 -0.1859
  374MOL0     H50490  10.951  10.887   8.029  1.0173  1.1805  1.5689
  375MOL0     O50491   2.041  10.313   5.957 -0.2633  0.2362  0.7002
  375MOL0     C50492   2.101  10.416   5.953  0.2157  0.7340  1.0083
  375MOL0     O50493   2.078  10.512   5.862 -0.7573 -0.0631 -0.0635
  375MOL0     C50494   2.008  10.482   5.750 -0.0038 -0.9203 -0.0271
  375MOL0     C50495   2.087  10.477   5.636 -0.2646  1.1308 -0.8407
  375MOL0     C50496   2.020  10.457   5.516  0.0640  0.5742  0.1132
  375MOL0     C50497   1.883  10.453   5.505 -0.0655  0.2292 -0.2806
  375MOL0     O50498   1.831  10.442   5.378  0.4835  0.5920 -0.0310
  375MOL0     C50499   1.688  10.404   5.359 -0.2929 -0.1389 -0.1782
  375MOL0     C50500   1.666  10.387   5.210  0.2126  0.0593 -0.1220
  375MOL0     C50501   1.753  10.274   5.164  0.6563  0.1078  0.3227
  375MOL0     C50502   1.772  10.279   5.014  0.6969 -0.1555  0.6765
  375MOL0     C50503   1.803  10.139   4.963 -0.1167  1.0912  0.7031
  375MOL0     C50504   1.678  10.064   4.929  0.8381  0.2827 -0.3814
  375MOL0     C50505   1.681   9.968   4.801 -0.0746 -0.2512  0.5681
  375MOL0     C50506   1.657  10.042   4.665  1.4322  0.0850  0.1534
  375MOL0     N50507   1.765  10.132   4.642  0.4899  0.7545  0.4595
  375MOL0     C50508   1.755  10.266   4.626  0.1702 -0.6797  0.1065
  375MOL0     C50509   1.876  10.311   4.568  0.1970 -0.0302  0.3502
  375MOL0     C50510   1.901  10.452   4.520  0.3490 -0.0599  0.0778
  375MOL0     C50511   2.021  10.506   4.591  0.2450 -0.5971  0.1553
  375MOL0     C50512   1.973  10.530   4.730  0.4888  0.8859  0.2662
  375MOL0     C50513   2.053  10.618   4.818  1.1258 -0.1371 -0.2132
  375MOL0     O50514   1.989  10.615   4.949  0.2523  0.1696  0.0497
  375MOL0     C50515   2.035  10.690   5.051 -0.5355 -0.4418 -1.1471
  375MOL0     C50516   2.145  10.768   5.034 -0.2048 -0.2589 -0.1886
  375MOL0     C50517   2.208  10.840   5.138 -0.7092 -0.3694  0.1284
  375MOL0     C50518   2.334  10.907   5.083  0.1249  0.1051  0.3039
  375MOL0     C50519   2.158  10.818   5.265  0.3212 -1.1536 -0.8917
  375MOL0     C50520   2.220  10.884   5.380 -0.5955 -0.5270 -0.0407
  375MOL0     O50521   2.208  10.815   5.498 -0.0213 -0.6101  0.1250
  375MOL0     C50522   2.306  10.816   5.592  0.0877 -0.1803 -0.7362
  375MOL0     C50523   2.293  10.856   5.728  0.3104 -0.2101 -0.0582
  375MOL0     C50524   2.400  10.828   5.818  0.4899  0.5938  0.8630
  375MOL0     C50525   2.525  10.767   5.778  0.0999  0.3193  0.1051
  375MOL0     O50526   2.625  10.768   5.877 -0.0381 -0.4962 -0.0687
  375MOL0     C50527   2.755  10.737   5.829  0.2627 -0.2815 -0.5853
  375MOL0     C50528   2.824  10.715   5.970  0.6203  0.5404  0.1425
  375MOL0     C50529   2.973  10.687   5.959 -0.4491  0.2426  0.2260
  375MOL0     C50530   3.024  10.538   5.976  0.2169  0.6554 -0.4201
  375MOL0     C50531   3.171  10.527   6.022  0.3102 -0.3928 -0.6346
  375MOL0     C50532   3.252  10.412   5.953 -0.6390  0.8951 -0.9097
  375MOL0     C50533   3.160  10.278   5.954  0.0359 -0.4422 -0.6346
  375MOL0     C50534   3.242  10.157   5.936 -0.9763  0.7988  0.4176
  375MOL0    Cl50535   3.380  10.187   5.818 -0.1430 -0.0003 -0.0184
  375MOL0     C50536   2.534  10.720   5.650  1.3768 -0.0581  0.0675
  375MOL0     C50537   2.426  10.753   5.557 -0.3815  0.6982 -0.0281
  375MOL0     O50538   2.298  10.980   5.357  0.3503  0.1160  0.1200
  375MOL0     C50539   2.046  10.731   5.291 -0.5936  0.5362 -0.6973
  375MOL0     C50540   1.999  10.662   5.176 -0.9865  0.8215  0.2641
  375MOL0     N50541   1.964  10.200   4.555  0.7111 -0.9237 -0.0944
  375MOL0     N50542   1.884  10.099   4.584 -0.5680 -0.2170 -0.3015
  375MOL0     C50543   1.802  10.464   5.630  0.3997  0.7541  0.3650
  375MOL0     C50544   1.868  10.480   5.755  0.6411 -0.2585  0.0564
  375MOL0     C50545   2.222  10.435   6.040 -0.7581 -0.1207  0.7078
  375MOL0     C50546   2.308  10.545   6.020  0.2243  0.2806  0.6484
  375MOL0     C50547   2.422  10.554   6.098 -0.6400 -0.6282 -0.9546
  375MOL0     C50548   2.454  10.459   6.197 -0.0449  0.0964 -0.8574
  375MOL0     O50549   2.565  10.491   6.267 -0.2894  0.0027  0.4740
  375MOL0     C50550   2.630  10.385   6.346 -0.4253 -0.3876 -0.1337
  375MOL0     C50551   2.734  10.452   6.447  0.3790  0.9216 -0.3745
  375MOL0     C50552   2.841  10.537   6.362 -0.3117  0.2588 -0.7867
  375MOL0     C50553   2.948  10.580   6.458  0.1304  0.3491  0.1075
  375MOL0     C50554   2.910  10.648   6.582  0.0457  0.4524  0.0772
  375MOL0     C50555   2.858  10.706   6.677 -0.3705  0.0785 -0.7208
  375MOL0     C50556   2.373  10.351   6.214 -0.8350  0.6008 -0.4507
  375MOL0     C50557   2.256  10.341   6.140  0.1657 -0.8401  0.1096
  375MOL0     H50558   2.194  10.493   5.639 -0.2171  0.6786  0.9269
  375MOL0     H50559   2.074  10.432   5.426  0.3358 -1.8420  0.8677
  375MOL0     H50560   1.668  10.317   5.423  0.9708 -1.0590 -0.9929
  375MOL0     H50561   1.618  10.482   5.389 -0.9290 -0.7551 -0.0345
  375MOL0     H50562   1.560  10.369   5.194  0.3001 -1.9383  1.1282
  375MOL0     H50563   1.696  10.481   5.163 -0.3347  0.8803  1.1025
  375MOL0     H50564   1.856  10.283   5.200  0.2649  1.7923  1.1279
  375MOL0     H50565   1.709  10.175   5.182 -0.3126  0.3531 -0.6073
  375MOL0     H50566   1.675  10.312   4.974  0.9853  0.8059  0.7564
  375MOL0     H50567   1.850  10.348   4.985  1.8149 -1.1443  1.2462
  375MOL0     H50568   1.879  10.142   4.884 -2.6954 -0.3259 -2.0357
  375MOL0     H50569   1.845  10.074   5.041 -0.7995  0.1496  0.3109
  375MOL0     H50570   1.654   9.998   5.013 -3.1470  3.3356  1.2154
  375MOL0     H50571   1.590  10.127   4.913 -0.1876 -1.0111 -0.0723
  375MOL0     H50572   1.781   9.924   4.801  2.1378  4.1704  0.8638
  375MOL0     H50573   1.597   9.899   4.787 -1.8687  2.1588 -1.5580
  375MOL0     H50574   1.561  10.094   4.665  0.0515 -2.3020 -0.0331
  375MOL0     H50575   1.639   9.956   4.599 -1.9918  1.8771 -1.4924
  375MOL0     H50576   1.675  10.333   4.657 -0.6139 -0.7819 -1.5380
  375MOL0     H50577   1.922  10.458   4.413 -0.8694  1.7383 -0.1003
  375MOL0     H50578   1.809  10.510   4.529 -0.0689 -0.1772 -2.6013
  375MOL0     H50579   2.039  10.606   4.548  0.2246 -0.7989 -0.3309
  375MOL0     H50580   2.109  10.441   4.589 -0.3681 -1.4310  0.0700
  375MOL0     H50581   1.976  10.433   4.780 -2.1023 -0.6188 -2.1747
  375MOL0     H50582   1.865  10.548   4.728  0.3379  0.0747 -1.6687
  375MOL0     H50583   2.064  10.723   4.787  2.9894 -0.2456 -0.0103
  375MOL0     H50584   2.154  10.579   4.829  0.8931 -1.0340 -1.1495
  375MOL0     H50585   2.186  10.785   4.935 -0.5255  1.4541 -0.0551
  375MOL0     H50586   2.424  10.868   5.131 -0.5280  0.9131  2.3108
  375MOL0     H50587   2.366  10.905   4.979  1.6972  3.0265  0.6172
  375MOL0     H50588   2.330  11.014   5.107 -0.6560 -0.4924  3.3180
  375MOL0     H50589   2.193  10.892   5.751  0.8604  0.8441  0.7842
  375MOL0     H50590   2.400  10.843   5.925  1.6767  0.0190  0.9683
  375MOL0     H50591   2.765  10.642   5.777 -0.2748 -0.3106 -0.6404
  375MOL0     H50592   2.806  10.819   5.777 -0.8304  1.6552  1.2023
  375MOL0     H50593   2.811  10.808   6.027 -1.3823  0.8699 -0.7657
  375MOL0     H50594   2.770  10.639   6.028 -1.0457  2.5035  1.2862
  375MOL0     H50595   3.019  10.729   6.049 -0.3401 -2.5737  1.6083
  375MOL0     H50596   3.004  10.730   5.863 -2.6954 -0.7985 -1.0489
  375MOL0     H50597   2.965  10.478   6.045  0.4285  0.2883 -0.5585
  375MOL0     H50598   3.018  10.487   5.879  3.1486  1.4995 -1.1385
  375MOL0     H50599   3.162  10.512   6.130  0.2113 -1.7363 -0.8076
  375MOL0     H50600   3.229  10.618   6.006  1.5348 -0.9079  0.6315
  375MOL0     H50601   3.269  10.430   5.847 -1.7557 -1.5223 -1.5782
  375MOL0     H50602   3.346  10.385   6.003 -0.1296  2.7360 -0.8133
  375MOL0     H50603   3.085  10.281   5.875 -0.8472  2.4962  0.1970
  375MOL0     H50604   3.106  10.257   6.047 -0.0381  0.9398 -0.3489
  375MOL0     H50605   3.179  10.082   5.889 -0.5761 -1.9310  3.7871
  375MOL0     H50606   3.286  10.121   6.030 -2.9350  0.2653  1.1807
  375MOL0     H50607   2.617  10.657   5.620  0.8125 -0.7112 -0.1385
  375MOL0     H50608   2.420  10.733   5.451  0.1808 -2.5091  0.4346
  375MOL0     H50609   2.010  10.720   5.393 -3.9356  1.7099 -1.6233
  375MOL0     H50610   1.926  10.582   5.170 -0.3350  0.3489 -2.8164
  375MOL0     H50611   1.694  10.471   5.619  0.5544  1.0409 -1.1691
  375MOL0     H50612   1.815  10.499   5.848  2.2767  1.4316  0.6861
  375MOL0     H50613   2.288  10.625   5.949  0.5260  0.4715  0.7739
  375MOL0     H50614   2.480  10.642   6.076 -2.0061  0.1823 -1.3956
  375MOL0     H50615   2.557  10.340   6.414 -1.4729  3.8184  1.9018
  375MOL0     H50616   2.667  10.306   6.280  0.5000 -0.9804  1.0423
  375MOL0     H50617   2.788  10.380   6.509  0.7123  3.5301  2.6272
  375MOL0     H50618   2.676  10.523   6.508 -0.0076  0.4599 -0.1944
  375MOL0     H50619   2.792  10.624   6.317  0.0908  0.8870 -0.0350
  375MOL0     H50620   2.891  10.481   6.283  0.3181 -2.0734  1.1210
  375MOL0     H50621   3.021  10.643   6.406  2.4567 -1.0966  1.4457
  375MOL0     H50622   3.000  10.491   6.495  1.9233  1.2979 -0.0140
  375MOL0     H50623   2.819  10.754   6.765  0.9324 -3.6430  2.1714
  375MOL0     H50624   2.395  10.283   6.297 -0.2779  1.6966  0.3354
  375MOL0     H50625   2.186  10.259   6.146 -0.9212 -0.2040 -2.6286
  376MOL0     O50626   8.841   5.809   8.809  0.5076  0.1157  0.1504
  376MOL0     C50627   8.884   5.692   8.802  0.5598 -0.4232 -0.4566
  376MOL0     O50628   8.976   5.641   8.708  0.2266  0.0469  0.0822
  376MOL0     C50629   8.998   5.720   8.603  0.1892  0.2139 -0.4112
  376MOL0     C50630   9.133   5.748   8.567  1.5402  0.0000 -0.7560
  376MOL0     C50631   9.163   5.813   8.448 -0.2350  0.6763  0.1521
  376MOL0     C50632   9.057   5.850   8.362 -0.1486  0.7369 -0.2418
  376MOL0     O50633   9.103   5.919   8.253  0.5153  0.0038  0.1055
  376MOL0     C50634   9.013   5.945   8.149 -0.7005 -0.5906  0.3732
  376MOL0     C50635   9.097   5.951   8.016  0.3929  0.1223 -0.8002
  376MOL0     C50636   9.197   5.825   8.003  0.1064  0.5008  0.2103
  376MOL0     C50637   9.290   5.821   7.873 -0.0492  0.4916 -0.5650
  376MOL0     C50638   9.209   5.801   7.750 -0.0545 -0.4069  0.5768
  376MOL0     C50639   9.294   5.841   7.622 -0.4406 -0.8753 -0.5087
  376MOL0     C50640   9.421   5.759   7.602  0.2545 -0.5152  0.0406
  376MOL0     C50641   9.497   5.780   7.478  0.5432  0.4652 -0.8093
  376MOL0     N50642   9.636   5.748   7.482 -0.4916 -0.7377 -0.9406
  376MOL0     C50643   9.688   5.626   7.445 -1.0042  0.2331  0.9340
  376MOL0     C50644   9.817   5.631   7.484 -0.3573 -0.0146  0.5122
  376MOL0     C50645   9.924   5.526   7.460 -1.1674  0.1156 -0.4384
  376MOL0     C50646   9.979   5.543   7.313 -0.1328 -0.0361  0.7781
  376MOL0     C50647  10.071   5.671   7.300  0.8351 -0.3637  0.6382
  376MOL0     C50648  10.097   5.708   7.154  0.9733  0.5818 -0.3296
  376MOL0     O50649  10.225   5.654   7.106  0.6322 -0.8567 -0.9601
  376MOL0     C50650  10.326   5.734   7.081 -0.4338 -0.8946  1.2686
  376MOL0     C50651  10.330   5.872   7.104  0.8556  0.2583 -0.0953
  376MOL0     C50652  10.439   5.953   7.063  0.6198 -1.2598 -0.1848
  376MOL0     C50653  10.425   6.101   7.095  0.4549 -0.2911 -0.4536
  376MOL0     C50654  10.547   5.898   6.996 -0.9190  0.4004 -0.1559
  376MOL0     C50655  10.666   5.972   6.954  0.1872 -0.2456 -0.0582
  376MOL0     O50656  10.745   5.904   6.864 -0.4791 -0.2870  0.6905
  376MOL0     C50657  10.870   5.955   6.830 -0.5807 -0.4948  0.3278
  376MOL0     C50658  10.893   6.088   6.795  1.0492  0.1548 -0.2687
  376MOL0     C50659  11.016   6.118   6.739  0.3924  0.8224  1.4685
  376MOL0     C50660  11.122   6.025   6.725 -0.1244  0.2983  0.0127
  376MOL0     O50661  11.254   6.067   6.688  0.3775  0.3940 -0.0177
  376MOL0     C50662  11.287   6.196   6.658 -0.4278  0.1220  0.0577
  376MOL0     C50663  11.276   6.252   6.522 -0.3229  0.2930  1.5173
  376MOL0     C50664  11.380   6.211   6.418 -0.1442  0.3027  0.2210
  376MOL0     C50665  11.346   6.077   6.358  0.0070  0.0992 -0.2489
  376MOL0     C50666  11.436   6.051   6.232 -0.2032 -0.5536 -0.0669
  376MOL0     C50667  11.423   6.158   6.117  0.1782  0.5187 -0.4201
  376MOL0     C50668  11.479   6.110   5.984  0.0005 -0.8133  0.5422
  376MOL0     C50669  11.483   6.211   5.865 -0.1552  1.4467 -0.1713
  376MOL0    Cl50670  11.551   6.106   5.729 -0.4906 -0.3710 -0.0628
  376MOL0     C50671  11.097   5.902   6.774 -0.2376  0.3908 -0.1456
  376MOL0     C50672  10.973   5.859   6.830 -0.8184 -0.5139  0.6392
  376MOL0     O50673  10.698   6.078   7.019 -0.4271  0.4401 -0.0015
  376MOL0     C50674  10.545   5.753   6.972 -0.0280 -0.2499 -0.0350
  376MOL0     C50675  10.436   5.680   7.017 -0.2835 -0.7974  0.2351
  376MOL0     N50676   9.848   5.746   7.546 -0.1783  0.0350  0.4246
  376MOL0     N50677   9.745   5.824   7.536 -0.1398 -0.4042  0.5178
  376MOL0     C50678   8.921   5.826   8.395 -0.2701  0.1017 -0.5488
  376MOL0     C50679   8.901   5.757   8.511  0.9882  0.1263  0.1868
  376MOL0     C50680   8.835   5.608   8.907 -0.0151  0.1700  0.2924
  376MOL0     C50681   8.797   5.665   9.032 -0.4604  0.5818  0.1386
  376MOL0     C50682   8.782   5.588   9.144  0.7736 -0.9371 -0.4619
  376MOL0     C50683   8.804   5.453   9.142 -0.0359  0.4948  0.5927
  376MOL0     O50684   8.785   5.387   9.250 -0.2196  0.4766  0.0493
  376MOL0     C50685   8.699   5.272   9.262 -1.2412 -0.1264  0.0391
  376MOL0     C50686   8.576   5.313   9.320  0.5006  1.3114 -0.3079
  376MOL0     C50687   8.475   5.401   9.239 -0.3588 -0.2145  0.0158
  376MOL0     C50688   8.332   5.393   9.259  0.5395  0.3652  0.2652
  376MOL0     C50689   8.250   5.434   9.144  0.4282  0.1724  0.6668
  376MOL0     C50690   8.181   5.492   9.063  0.0958  0.1125  1.2457
  376MOL0     C50691   8.836   5.390   9.018 -0.5213 -0.3387  0.1880
  376MOL0     C50692   8.851   5.468   8.900  0.5633 -0.3163  0.7769
  376MOL0     H50693   9.210   5.729   8.641  0.0269 -0.1482  0.8415
  376MOL0     H50694   9.263   5.845   8.423 -0.5505  1.4881 -0.1106
  376MOL0     H50695   8.946   5.863   8.121 -2.5471  1.2944 -1.0760
  376MOL0     H50696   8.956   6.037   8.167 -2.6831 -2.0022  1.6450
  376MOL0     H50697   9.015   5.940   7.945  0.1450  0.7659 -0.6221
  376MOL0     H50698   9.153   6.043   8.002  4.4867 -1.9233  0.4955
  376MOL0     H50699   9.268   5.847   8.083  0.4700  0.4335 -0.0866
  376MOL0     H50700   9.137   5.734   8.011  0.1133  0.6525  2.3811
  376MOL0     H50701   9.338   5.919   7.863  0.3097  0.6066  1.6790
  376MOL0     H50702   9.366   5.743   7.886 -3.1305 -2.4701  1.2574
  376MOL0     H50703   9.159   5.704   7.750  0.6357 -0.7704  0.5305
  376MOL0     H50704   9.130   5.876   7.752 -0.0813 -0.3663 -0.9782
  376MOL0     H50705   9.235   5.832   7.531  1.6909 -0.9131 -1.9660
  376MOL0     H50706   9.323   5.947   7.630 -0.6721 -0.8386 -0.1310
  376MOL0     H50707   9.479   5.767   7.695 -0.3403 -0.6641  0.4376
  376MOL0     H50708   9.384   5.657   7.588 -1.9739  0.6580 -4.2066
  376MOL0     H50709   9.484   5.883   7.442 -0.3397 -0.2026 -2.4977
  376MOL0     H50710   9.448   5.727   7.396 -1.6270  1.8058 -0.4639
  376MOL0     H50711   9.634   5.545   7.397 -0.6166  1.2458 -1.3498
  376MOL0     H50712   9.993   5.548   7.542 -4.1093 -3.8774  3.6655
  376MOL0     H50713   9.878   5.428   7.475 -1.5232  0.5528  1.6723
  376MOL0     H50714   9.897   5.540   7.240  1.9592 -2.4547 -1.6997
  376MOL0     H50715  10.045   5.457   7.301  0.4466  0.0844  2.8214
  376MOL0     H50716  10.162   5.661   7.359  0.0870 -0.4624  1.8101
  376MOL0     H50717  10.020   5.754   7.351  2.4944 -0.4170  2.4890
  376MOL0     H50718  10.083   5.815   7.143 -1.1687  0.3002 -0.7347
  376MOL0     H50719  10.009   5.666   7.104  0.2403 -0.0495  1.4032
  376MOL0     H50720  10.242   5.916   7.149 -1.2640  0.0849 -3.7689
  376MOL0     H50721  10.474   6.163   7.019 -0.4309  1.9947  0.7352
  376MOL0     H50722  10.320   6.133   7.095  1.3448  3.0118 -0.6130
  376MOL0     H50723  10.464   6.111   7.196 -0.8931  0.9410 -0.0201
  376MOL0     H50724  10.818   6.166   6.800 -0.4572 -1.2956  3.1154
  376MOL0     H50725  11.028   6.222   6.710  2.0276  0.9498  2.4894
  376MOL0     H50726  11.223   6.261   6.719 -0.0201  0.6875 -0.1094
  376MOL0     H50727  11.390   6.205   6.693 -0.4047 -3.5284  1.3732
  376MOL0     H50728  11.174   6.241   6.483  0.4231 -0.4515 -0.3539
  376MOL0     H50729  11.292   6.359   6.537  0.0704  0.7637 -1.5201
  376MOL0     H50730  11.479   6.207   6.463  0.6904  0.2433 -1.5620
  376MOL0     H50731  11.380   6.294   6.347 -0.7826 -0.8559 -1.1944
  376MOL0     H50732  11.352   5.989   6.423 -1.5809 -0.2450 -0.5175
  376MOL0     H50733  11.239   6.089   6.337  0.0686  1.2082  0.0026
  376MOL0     H50734  11.404   5.956   6.188 -3.4852  1.0775 -1.5123
  376MOL0     H50735  11.537   6.047   6.273 -0.4721 -2.3149  0.5114
  376MOL0     H50736  11.314   6.174   6.116  0.4624  3.2295  1.1504
  376MOL0     H50737  11.454   6.262   6.131 -3.5390  1.7360 -0.1767
  376MOL0     H50738  11.414   6.032   5.942  1.6816 -1.7473 -0.4520
  376MOL0     H50739  11.578   6.068   6.007  0.9550  0.1255 -1.6085
  376MOL0     H50740  11.555   6.289   5.892 -0.3789  1.6702 -0.2253
  376MOL0     H50741  11.385   6.250   5.838 -0.2406 -0.8184 -3.8300
  376MOL0     H50742  11.188   5.844   6.784  1.0811  2.6965  3.8769
  376MOL0     H50743  10.951   5.758   6.862 -2.7120  0.2341  1.8120
  376MOL0     H50744  10.625   5.703   6.918  0.0932  0.4177 -0.4938
  376MOL0     H50745  10.432   5.573   6.996 -0.8032 -0.5601 -0.9755
  376MOL0     H50746   8.839   5.878   8.345 -0.6732 -1.1959 -1.2965
  376MOL0     H50747   8.801   5.730   8.543  0.4596 -0.6631 -1.9577
  376MOL0     H50748   8.768   5.770   9.036  0.6183  0.8448  2.8050
  376MOL0     H50749   8.768   5.642   9.237 -2.2190 -1.0998 -0.7165
  376MOL0     H50750   8.689   5.225   9.164  0.8836  0.7663 -0.6709
  376MOL0     H50751   8.757   5.206   9.328 -2.6755 -1.5269 -0.0537
  376MOL0     H50752   8.593   5.362   9.417  1.8289  2.5779 -1.1318
  376MOL0     H50753   8.522   5.219   9.334 -1.0694  2.5882  3.3910
  376MOL0     H50754   8.496   5.382   9.133  1.0222  3.7254 -0.5857
  376MOL0     H50755   8.504   5.506   9.249 -0.8889 -0.3066  5.2777
  376MOL0     H50756   8.301   5.458   9.342 -0.5475  2.4748 -1.6605
  376MOL0     H50757   8.303   5.290   9.279  1.5299 -0.0104 -0.1933
  376MOL0     H50758   8.122   5.553   8.998  1.0494  0.7959  0.9992
  376MOL0     H50759   8.852   5.283   9.007  0.4781 -0.2309  0.4949
  376MOL0     H50760   8.887   5.422   8.809 -2.6606 -0.7934 -0.3715
  377MOL0     O50761   6.930   1.453   6.845  0.1479  0.0202 -0.2494
  377MOL0     C50762   6.817   1.395   6.846 -0.1087  0.4943 -0.2237
  377MOL0     O50763   6.707   1.438   6.780  0.2540  0.6800  0.6574
  377MOL0     C50764   6.735   1.532   6.692 -0.1099 -0.8980 -1.2080
  377MOL0     C50765   6.699   1.666   6.714 -0.1687 -0.5971 -1.4384
  377MOL0     C50766   6.722   1.758   6.617  0.8480  1.1537 -0.3469
  377MOL0     C50767   6.776   1.719   6.492 -0.2912  0.2201 -0.1608
  377MOL0     O50768   6.806   1.805   6.388  0.9814 -0.1532 -0.1787
  377MOL0     C50769   6.856   1.936   6.428  0.4490 -0.9342  0.8222
  377MOL0     C50770   6.917   2.006   6.305 -0.2567 -0.2325  0.3387
  377MOL0     C50771   7.053   1.955   6.266 -0.5616  0.1623  0.3821
  377MOL0     C50772   7.170   2.051   6.268  0.0072 -0.2271  0.0808
  377MOL0     C50773   7.306   1.995   6.226  0.7647 -1.1259  0.2934
  377MOL0     C50774   7.311   1.970   6.073 -0.4668 -0.4353  0.7078
  377MOL0     C50775   7.318   2.110   5.992 -0.6691  0.3271 -0.0133
  377MOL0     C50776   7.447   2.187   6.026 -0.1810  0.9444 -0.8246
  377MOL0     N50777   7.470   2.296   5.933  0.5950  0.0903  0.0410
  377MOL0     C50778   7.426   2.427   5.937 -0.8528  0.0695 -0.5164
  377MOL0     C50779   7.440   2.458   5.813 -0.7236 -1.2238  0.3655
  377MOL0     C50780   7.383   2.594   5.763  0.7287  0.1454 -0.0568
  377MOL0     C50781   7.294   2.575   5.638 -0.9190  0.2237  0.0107
  377MOL0     C50782   7.229   2.703   5.578  0.0521 -0.2429 -0.0420
  377MOL0     C50783   7.318   2.779   5.486  0.1403 -0.2114  0.5802
  377MOL0     O50784   7.391   2.863   5.577  0.5142 -0.1014  0.6323
  377MOL0     C50785   7.487   2.948   5.522  0.0341 -0.8000  0.2661
  377MOL0     C50786   7.539   3.044   5.611  0.0485 -1.8381 -0.5016
  377MOL0     C50787   7.650   3.125   5.573  0.5394 -0.0352  1.2942
  377MOL0     C50788   7.711   3.229   5.669  0.9795 -0.3073  0.4566
  377MOL0     C50789   7.702   3.108   5.438 -0.8435  0.4103  0.8155
  377MOL0     C50790   7.827   3.176   5.391  0.9886 -0.2604  0.6346
  377MOL0     O50791   7.855   3.178   5.261  0.6533  0.0429 -0.0694
  377MOL0     C50792   7.969   3.223   5.198 -0.1543  1.2375 -0.1300
  377MOL0     C50793   7.996   3.165   5.071 -0.1211 -0.0713  0.7070
  377MOL0     C50794   8.121   3.187   5.001 -0.3227  0.8951  0.6651
  377MOL0     C50795   8.217   3.267   5.064  0.1391  0.4546 -1.1274
  377MOL0     O50796   8.346   3.278   5.016 -0.2846  0.0324  0.9053
  377MOL0     C50797   8.390   3.246   4.889 -0.0077 -0.1184  0.0573
  377MOL0     C50798   8.541   3.271   4.870 -0.8434  1.2203 -0.2147
  377MOL0     C50799   8.563   3.425   4.906  0.2177  0.4716  0.0432
  377MOL0     C50800   8.708   3.462   4.943  0.5167  0.4062 -0.3406
  377MOL0     C50801   8.730   3.440   5.090 -0.7300  0.4156  0.5218
  377MOL0     C50802   8.869   3.397   5.142 -0.9806  0.4893  0.3073
  377MOL0     C50803   8.882   3.248   5.124 -0.6912 -0.1287 -0.8827
  377MOL0     C50804   9.016   3.199   5.191  0.1964  0.0318  0.2042
  377MOL0    Cl50805   9.153   3.251   5.086  0.2022 -0.4451 -0.2356
  377MOL0     C50806   8.185   3.328   5.190  0.8730 -0.0214  0.1306
  377MOL0     C50807   8.065   3.299   5.256 -1.5146  0.7498 -0.5559
  377MOL0     O50808   7.904   3.212   5.480  0.0659 -0.2399  0.1505
  377MOL0     C50809   7.639   3.018   5.351  0.5584 -0.1125  0.2105
  377MOL0     C50810   7.537   2.935   5.390  0.4208  0.4314 -0.9311
  377MOL0     N50811   7.495   2.367   5.738  0.8993  0.6611 -0.1220
  377MOL0     N50812   7.517   2.269   5.812 -0.3115 -0.3857  0.0078
  377MOL0     C50813   6.798   1.583   6.472  0.1801  0.5395  1.0087
  377MOL0     C50814   6.778   1.495   6.568  0.3195 -0.2041 -0.0717
  377MOL0     C50815   6.804   1.261   6.921 -0.8219 -0.3638  0.3458
  377MOL0     C50816   6.915   1.179   6.938 -0.7771  0.2283 -0.2200
  377MOL0     C50817   6.897   1.042   6.985 -0.8187 -0.6601  0.3553
  377MOL0     C50818   6.775   0.996   7.008  0.1805 -0.6570  0.2019
  377MOL0     O50819   6.769   0.866   7.061 -0.1287  0.3466  0.7041
  377MOL0     C50820   6.636   0.809   7.097 -0.0363  0.4270 -0.1092
  377MOL0     C50821   6.658   0.675   7.161  0.7268  0.5818  0.1262
  377MOL0     C50822   6.532   0.627   7.240 -0.0570 -0.3737 -1.1619
  377MOL0     C50823   6.569   0.503   7.325  0.7600 -0.2537  0.4960
  377MOL0     C50824   6.456   0.470   7.410  0.2370  0.5851 -0.3304
  377MOL0     C50825   6.357   0.451   7.479  0.1076 -0.3516  0.0250
  377MOL0     C50826   6.662   1.073   6.977  0.5427  0.2581 -0.5130
  377MOL0     C50827   6.680   1.207   6.945 -0.1893  0.0801 -0.2071
  377MOL0     H50828   6.663   1.684   6.815  2.9962 -1.1335 -0.0750
  377MOL0     H50829   6.680   1.857   6.626 -1.4796  0.1220  1.6114
  377MOL0     H50830   6.774   1.995   6.470  0.5191 -1.3479  1.5595
  377MOL0     H50831   6.943   1.929   6.494  0.6904  0.2553  0.6632
  377MOL0     H50832   6.860   2.002   6.212  1.9256 -2.8411 -1.0570
  377MOL0     H50833   6.922   2.115   6.314  0.6118 -0.2146 -0.1524
  377MOL0     H50834   7.077   1.866   6.325  1.6224  0.8797  0.6629
  377MOL0     H50835   7.031   1.921   6.165 -0.9513  0.8141  0.2371
  377MOL0     H50836   7.143   2.140   6.211 -0.9159 -0.5499  0.0057
  377MOL0     H50837   7.184   2.087   6.371  1.2627 -0.0004 -0.1434
  377MOL0     H50838   7.375   2.064   6.276 -0.2338  0.3072 -0.2282
  377MOL0     H50839   7.321   1.894   6.264 -1.6392 -1.0636  1.6171
  377MOL0     H50840   7.396   1.904   6.050 -1.1413 -0.3194 -2.5724
  377MOL0     H50841   7.217   1.924   6.040  1.4882 -2.3783 -2.6935
  377MOL0     H50842   7.318   2.096   5.883  0.8285  2.6663 -0.3799
  377MOL0     H50843   7.234   2.175   6.018 -0.6244  0.1276  0.6379
  377MOL0     H50844   7.529   2.116   6.029  1.2580  2.5843  1.7898
  377MOL0     H50845   7.426   2.222   6.127 -1.0827 -0.7482 -0.3939
  377MOL0     H50846   7.389   2.482   6.022 -0.5078  0.4821 -0.6298
  377MOL0     H50847   7.319   2.643   5.837  3.0668  2.7432  0.3840
  377MOL0     H50848   7.468   2.661   5.748  0.8599  0.7240  2.7828
  377MOL0     H50849   7.212   2.508   5.668  0.0571  0.3515  3.3503
  377MOL0     H50850   7.353   2.521   5.564 -0.5119 -2.4979  2.1509
  377MOL0     H50851   7.179   2.764   5.653 -1.8019  0.8903 -2.0768
  377MOL0     H50852   7.148   2.671   5.512 -1.5015 -0.6005  1.9474
  377MOL0     H50853   7.260   2.841   5.416 -1.6550  0.6479  2.7090
  377MOL0     H50854   7.385   2.715   5.428 -0.0153 -2.2247  2.4825
  377MOL0     H50855   7.509   3.053   5.715  1.4667 -0.4701 -0.1676
  377MOL0     H50856   7.799   3.179   5.710 -0.5466 -2.8032  0.9534
  377MOL0     H50857   7.718   3.324   5.615 -1.5669 -0.4172 -0.2182
  377MOL0     H50858   7.645   3.248   5.755  0.2648  1.8202 -0.4842
  377MOL0     H50859   7.926   3.085   5.050  1.3027 -0.9421 -1.0455
  377MOL0     H50860   8.138   3.130   4.910 -1.6496  1.9177 -0.2719
  377MOL0     H50861   8.365   3.140   4.874 -0.9981  0.4329 -2.7877
  377MOL0     H50862   8.348   3.315   4.814  2.8120  0.3081 -1.2446
  377MOL0     H50863   8.596   3.207   4.940 -0.2724 -1.0891 -2.6108
  377MOL0     H50864   8.583   3.250   4.771  1.4257 -2.5023  1.3352
  377MOL0     H50865   8.502   3.455   4.992 -0.1395 -2.5975  0.9816
  377MOL0     H50866   8.542   3.482   4.815 -0.3741  2.9452  1.6308
  377MOL0     H50867   8.775   3.399   4.883 -0.3061 -0.7341 -0.0892
  377MOL0     H50868   8.721   3.568   4.919 -7.3590  3.0318  3.4533
  377MOL0     H50869   8.664   3.367   5.138  1.5719 -1.7423  0.6595
  377MOL0     H50870   8.705   3.540   5.126 -0.2194  0.0680  1.9172
  377MOL0     H50871   8.952   3.447   5.091  1.4499 -1.7972  1.7699
  377MOL0     H50872   8.877   3.419   5.249 -1.0001 -1.9866  0.8733
  377MOL0     H50873   8.874   3.215   5.020 -1.0713 -0.4194 -0.7617
  377MOL0     H50874   8.802   3.195   5.176  2.0073 -4.3862 -0.5728
  377MOL0     H50875   9.007   3.091   5.204 -1.8531  0.2979  1.5010
  377MOL0     H50876   9.038   3.240   5.290  1.1317 -1.8818  0.8310
  377MOL0     H50877   8.263   3.388   5.237  1.4202 -1.3492  0.9905
  377MOL0     H50878   8.059   3.338   5.357 -0.1489 -2.1362  0.7557
  377MOL0     H50879   7.676   3.003   5.250  2.2267  0.7901  0.6609
  377MOL0     H50880   7.520   2.863   5.310 -1.2194  2.3631 -2.4392
  377MOL0     H50881   6.847   1.554   6.380 -0.0889  4.5987 -0.6514
  377MOL0     H50882   6.804   1.393   6.541  1.5017 -0.4465  1.7762
  377MOL0     H50883   7.010   1.218   6.902  0.4504 -0.7400  1.7880
  377MOL0     H50884   6.984   0.982   7.010 -1.3728 -1.0564  1.3600
  377MOL0     H50885   6.574   0.872   7.162  1.2719  2.1301 -0.4607
  377MOL0     H50886   6.588   0.799   6.999  0.1050  2.1739 -0.3954
  377MOL0     H50887   6.729   0.686   7.244 -0.1228 -1.7585  1.2406
  377MOL0     H50888   6.688   0.603   7.084  1.7948  0.5482  0.5575
  377MOL0     H50889   6.440   0.609   7.185 -1.5860  1.5166  0.6070
  377MOL0     H50890   6.507   0.703   7.315 -1.2997 -2.6919  0.9005
  377MOL0     H50891   6.655   0.525   7.388  1.2405 -1.1728  0.1810
  377MOL0     H50892   6.608   0.429   7.254 -0.2446 -1.3188  1.0233
  377MOL0     H50893   6.261   0.433   7.522  0.1366 -0.3452  0.0928
  377MOL0     H50894   6.565   1.025   6.978  1.5060 -1.8639 -1.0590
  377MOL0     H50895   6.593   1.266   6.917 -0.9687  0.1612  2.1354
  378MOL0     O50896   9.062   1.271   8.774 -0.6700  0.8829 -0.3076
  378MOL0     C50897   9.043   1.185   8.857 -0.1131 -0.1508 -1.0576
  378MOL0     O50898   9.071   1.198   8.989 -0.4221 -0.3024  0.2708
  378MOL0     C50899   8.977   1.175   9.090 -0.5169 -0.4623 -0.3504
  378MOL0     C50900   8.843   1.138   9.073 -1.1688 -0.7045  0.4157
  378MOL0     C50901   8.761   1.103   9.181 -0.0687 -0.7314  0.3726
  378MOL0     C50902   8.799   1.141   9.309 -0.5447  0.6255  0.5264
  378MOL0     O50903   8.729   1.094   9.416  0.3366 -0.0446 -0.6477
  378MOL0     C50904   8.714   1.172   9.538 -0.3675  0.4277  0.1954
  378MOL0     C50905   8.592   1.114   9.618  0.1964 -0.5565 -0.4021
  378MOL0     C50906   8.455   1.142   9.549 -0.3506 -0.5996 -0.8217
  378MOL0     C50907   8.435   1.040   9.437 -0.3387  0.5986  0.3677
  378MOL0     C50908   8.306   1.055   9.361  0.5762 -0.0610 -0.2744
  378MOL0     C50909   8.311   0.944   9.254  0.0036  0.2875  0.3686
  378MOL0     C50910   8.191   0.851   9.248 -0.0569 -0.1605 -0.4026
  378MOL0     C50911   8.222   0.734   9.143  0.6397  0.0310  0.0732
  378MOL0     N50912   8.105   0.644   9.136  0.6159  0.3393 -0.5150
  378MOL0     C50913   8.043   0.581   9.242  0.2570 -0.0224 -0.8462
  378MOL0     C50914   7.966   0.488   9.190 -0.3706  0.2496 -0.3306
  378MOL0     C50915   7.864   0.407   9.263  0.3282 -0.1053  0.2419
  378MOL0     C50916   7.712   0.384   9.215 -0.2211  0.5421 -0.9497
  378MOL0     C50917   7.627   0.516   9.242  0.7233 -0.5979 -0.0442
  378MOL0     C50918   7.621   0.554   9.392 -0.0507 -0.2518  0.3960
  378MOL0     O50919   7.548   0.677   9.412 -0.0302 -0.7697 -0.3514
  378MOL0     C50920   7.605   0.796   9.372  0.6288 -0.6155  0.0896
  378MOL0     C50921   7.535   0.910   9.420 -0.3113  0.6674  0.6682
  378MOL0     C50922   7.581   1.038   9.405  0.4875 -0.2819  0.0754
  378MOL0     C50923   7.493   1.151   9.444 -0.0859  0.3760 -0.0800
  378MOL0     C50924   7.703   1.060   9.344 -0.3631  0.3100 -1.1919
  378MOL0     C50925   7.759   1.191   9.318 -0.2722  0.0464 -1.3508
  378MOL0     O50926   7.804   1.214   9.195 -0.2956  0.2666 -0.3193
  378MOL0     C50927   7.870   1.324   9.154 -0.5762 -0.3444 -0.6368
  378MOL0     C50928   7.805   1.445   9.147  0.1582 -0.2945 -0.0960
  378MOL0     C50929   7.873   1.559   9.125  0.0787 -0.2064  0.3346
  378MOL0     C50930   8.014   1.567   9.109 -0.0485 -1.2139 -0.0211
  378MOL0     O50931   8.066   1.699   9.095  0.6904 -0.2055  0.4218
  378MOL0     C50932   8.201   1.716   9.112 -0.0280  0.3412  0.3147
  378MOL0     C50933   8.254   1.850   9.065 -0.9140  0.9720 -0.6877
  378MOL0     C50934   8.162   1.960   9.095  0.6717 -0.5808  0.2828
  378MOL0     C50935   8.195   2.084   9.020 -0.1934 -0.1233 -0.0326
  378MOL0     C50936   8.085   2.196   9.002 -0.3942 -0.3559  1.1146
  378MOL0     C50937   8.017   2.240   9.134  0.5401 -0.1772  1.1460
  378MOL0     C50938   7.926   2.361   9.100  0.7207 -0.8426  0.1658
  378MOL0     C50939   7.872   2.440   9.220 -0.3462 -0.2933  0.4385
  378MOL0    Cl50940   8.001   2.515   9.307  0.0868  0.5231 -0.2666
  378MOL0     C50941   8.088   1.434   9.110  0.3807  0.2447 -0.6450
  378MOL0     C50942   8.014   1.316   9.130 -0.2112 -0.0372  0.4511
  378MOL0     O50943   7.788   1.252   9.426  0.1587 -0.1638  0.4340
  378MOL0     C50944   7.780   0.944   9.303 -0.5017  0.2182 -1.0268
  378MOL0     C50945   7.728   0.821   9.313  0.8203  0.8706  0.1275
  378MOL0     N50946   7.970   0.499   9.057  0.0999 -1.1574  0.2440
  378MOL0     N50947   8.062   0.578   9.024 -0.1314  0.3509 -0.1825
  378MOL0     C50948   8.926   1.192   9.326  0.1219  0.3395 -0.5060
  378MOL0     C50949   9.013   1.215   9.221  0.7686  0.4462  0.2976
  378MOL0     C50950   9.018   1.047   8.808  1.0579  0.7246 -0.0773
  378MOL0     C50951   8.981   1.023   8.679  0.0575  0.3370  1.1676
  378MOL0     C50952   8.963   0.887   8.634  0.6174 -0.7486 -1.2101
  378MOL0     C50953   8.958   0.784   8.729 -0.0054 -0.1439  0.6487
  378MOL0     O50954   8.904   0.654   8.717  0.0758 -0.0099 -0.0034
  378MOL0     C50955   8.905   0.595   8.587  0.1181 -0.7846  0.6651
  378MOL0     C50956   9.044   0.545   8.564 -0.0178  0.0235 -0.4854
  378MOL0     C50957   9.073   0.476   8.427 -0.3422 -0.3878  0.6210
  378MOL0     C50958   9.221   0.442   8.408 -0.5468  1.0726 -0.9113
  378MOL0     C50959   9.265   0.339   8.503 -0.7888 -0.0602  0.2303
  378MOL0     C50960   9.273   0.240   8.568  0.3651  0.3126  0.6360
  378MOL0     C50961   8.991   0.818   8.863 -0.5557 -0.3902  0.4194
  378MOL0     C50962   9.029   0.938   8.898 -0.6501 -0.7581  0.4531
  378MOL0     H50963   8.801   1.123   8.974 -1.7612 -1.0409  0.7087
  378MOL0     H50964   8.657   1.084   9.154 -0.6056  0.8846  1.1328
  378MOL0     H50965   8.806   1.171   9.597 -0.7054  0.9202  0.7454
  378MOL0     H50966   8.695   1.276   9.510 -3.9323  0.0718  0.9005
  378MOL0     H50967   8.599   1.005   9.627  0.4220 -0.5792 -0.7937
  378MOL0     H50968   8.580   1.160   9.716  2.4527  0.8456 -0.7204
  378MOL0     H50969   8.368   1.140   9.615  1.2502  2.1737  1.6019
  378MOL0     H50970   8.462   1.239   9.500 -1.0445  1.1915  2.3542
  378MOL0     H50971   8.513   1.036   9.359 -0.3809 -4.2447  0.2696
  378MOL0     H50972   8.434   0.945   9.491  0.9564  0.8158  0.8095
  378MOL0     H50973   8.221   1.033   9.427  1.1554 -1.8325 -0.0583
  378MOL0     H50974   8.299   1.156   9.321  2.1535 -0.1074 -0.7346
  378MOL0     H50975   8.314   1.010   9.166  1.8161 -0.4831 -0.1926
  378MOL0     H50976   8.407   0.891   9.247 -0.1274 -0.1105  1.4312
  378MOL0     H50977   8.175   0.808   9.348 -2.9449 -1.9468 -1.4955
  378MOL0     H50978   8.098   0.902   9.223  0.6327  1.8528  0.9391
  378MOL0     H50979   8.306   0.675   9.183  0.5974 -1.3364 -1.7269
  378MOL0     H50980   8.247   0.771   9.043  0.0088 -0.2495 -0.1934
  378MOL0     H50981   8.073   0.586   9.347 -1.4707 -0.4655 -0.2928
  378MOL0     H50982   7.908   0.307   9.269  0.4383 -0.0001  1.5859
  378MOL0     H50983   7.864   0.448   9.365  2.6657 -0.3109  0.3654
  378MOL0     H50984   7.673   0.298   9.270  1.4649  0.2113 -0.2096
  378MOL0     H50985   7.709   0.359   9.108 -2.0039 -1.1240 -0.5517
  378MOL0     H50986   7.520   0.502   9.221  0.3334  0.2986  1.2003
  378MOL0     H50987   7.672   0.587   9.172  4.4849 -2.1029  0.6425
  378MOL0     H50988   7.720   0.575   9.434 -0.7967  0.9659  1.6301
  378MOL0     H50989   7.585   0.465   9.443  5.3072 -2.0431  1.7537
  378MOL0     H50990   7.440   0.901   9.472  0.8927  0.0670  2.8948
  378MOL0     H50991   7.435   1.181   9.356 -0.4701  2.2510  0.7626
  378MOL0     H50992   7.427   1.126   9.527 -0.7316  3.6528  0.5624
  378MOL0     H50993   7.551   1.238   9.476 -0.1634  0.8779 -1.2397
  378MOL0     H50994   7.700   1.458   9.174 -1.6176 -2.7119 -4.6777
  378MOL0     H50995   7.809   1.647   9.122 -3.3662 -2.5161  0.8098
  378MOL0     H50996   8.229   1.701   9.216 -1.8850 -0.2921  0.7644
  378MOL0     H50997   8.247   1.637   9.053  1.5227  0.6850  1.0312
  378MOL0     H50998   8.348   1.867   9.119 -1.5119  2.4190 -0.0478
  378MOL0     H50999   8.267   1.853   8.956 -0.8842  0.0585 -0.7123
  378MOL0     H51000   8.151   1.974   9.202 -1.3807 -0.4208  0.0836
  378MOL0     H51001   8.061   1.941   9.058 -0.1493 -1.1405  2.6592
  378MOL0     H51002   8.289   2.121   9.063  0.6708 -0.7204 -1.3401
  378MOL0     H51003   8.215   2.054   8.917 -0.5236  0.4063 -0.2494
  378MOL0     H51004   8.017   2.162   8.923 -0.1261 -0.3002  0.8610
  378MOL0     H51005   8.128   2.285   8.955 -3.3501 -0.3560 -1.9910
  378MOL0     H51006   7.943   2.169   9.172 -0.9117 -0.2182 -1.5475
  378MOL0     H51007   8.095   2.257   9.209  1.5596 -2.9435  0.8135
  378MOL0     H51008   7.841   2.325   9.041  0.1794 -0.9206  0.9884
  378MOL0     H51009   7.984   2.425   9.032 -0.2258 -2.2268 -2.0775
  378MOL0     H51010   7.822   2.372   9.290 -1.5604  2.8628  2.9269
  378MOL0     H51011   7.795   2.512   9.191 -1.5173 -1.3460  0.8448
  378MOL0     H51012   8.196   1.434   9.102  0.5915  2.9119  1.0354
  378MOL0     H51013   8.071   1.224   9.135 -2.0047 -1.5269 -2.8448
  378MOL0     H51014   7.877   0.950   9.256 -0.3789  0.2161 -0.7734
  378MOL0     H51015   7.791   0.738   9.283  1.6736  2.0284 -1.4198
  378MOL0     H51016   8.952   1.221   9.427 -0.1465  1.4511 -0.7343
  378MOL0     H51017   9.117   1.244   9.233  0.3709  2.7431 -1.0779
  378MOL0     H51018   8.978   1.103   8.606 -0.0925 -0.0537  0.7377
  378MOL0     H51019   8.933   0.853   8.536  0.4873 -4.1589 -0.1483
  378MOL0     H51020   8.844   0.505   8.598  0.0316 -1.0914 -1.8689
  378MOL0     H51021   8.857   0.653   8.508  2.2098  0.2236  0.0853
  378MOL0     H51022   9.075   0.484   8.649  0.0172  0.2444 -0.3374
  378MOL0     H51023   9.110   0.633   8.562  3.5007 -2.3604  0.0110
  378MOL0     H51024   9.053   0.545   8.344  2.3353 -2.3052 -1.8295
  378MOL0     H51025   9.005   0.391   8.422 -1.7917  0.5715  2.5694
  378MOL0     H51026   9.287   0.528   8.422  1.5789 -0.2844 -1.8694
  378MOL0     H51027   9.239   0.397   8.309  1.0532 -1.2469  0.3208
  378MOL0     H51028   9.298   0.161   8.636 -1.0416 -0.2164  0.5695
  378MOL0     H51029   8.973   0.745   8.941 -1.9743  0.6322  1.0904
  378MOL0     H51030   9.065   0.943   9.000 -1.3625 -3.5825  0.9409
  379MOL0     O51031   8.567   8.829   7.815  0.6372 -0.3222 -0.1006
  379MOL0     C51032   8.464   8.885   7.856  0.0647 -0.1554  0.8228
  379MOL0     O51033   8.333   8.860   7.804 -0.1543 -0.0831 -0.8148
  379MOL0     C51034   8.342   8.798   7.684  0.4507 -0.7168 -0.0780
  379MOL0     C51035   8.370   8.871   7.570  0.4552 -0.8926  0.2116
  379MOL0     C51036   8.363   8.812   7.440  0.2481 -0.8336 -0.3080
  379MOL0     C51037   8.306   8.679   7.442  0.6062 -0.0713  0.5471
  379MOL0     O51038   8.281   8.625   7.322 -0.4585  0.0015 -0.1346
  379MOL0     C51039   8.404   8.601   7.249 -0.0218  0.1528  0.8985
  379MOL0     C51040   8.445   8.454   7.268  0.6977  0.7234 -0.0110
  379MOL0     C51041   8.585   8.418   7.213  0.7055  0.1077  0.5908
  379MOL0     C51042   8.698   8.500   7.278  0.0780 -0.3968 -0.0022
  379MOL0     C51043   8.681   8.498   7.431 -0.9384  0.1560  0.1186
  379MOL0     C51044   8.798   8.570   7.508  0.1309 -0.1673  0.3266
  379MOL0     C51045   8.784   8.550   7.653  0.4899 -0.0644  0.6151
  379MOL0     C51046   8.833   8.682   7.721  0.2705  0.2166 -0.1854
  379MOL0     N51047   8.980   8.672   7.743 -0.1115 -1.3562  0.2679
  379MOL0     C51048   9.040   8.618   7.859  0.2385 -0.6614 -0.7878
  379MOL0     C51049   9.170   8.644   7.838  0.6472 -0.0559  0.2125
  379MOL0     C51050   9.284   8.587   7.918 -0.0593  0.7047  0.2614
  379MOL0     C51051   9.425   8.580   7.836  0.7223  0.8201 -0.2223
  379MOL0     C51052   9.534   8.598   7.948 -0.4539 -0.8739  0.0697
  379MOL0     C51053   9.552   8.477   8.042  0.0642  0.8290 -0.3221
  379MOL0     O51054   9.587   8.360   7.962 -0.0041  0.1713 -1.0490
  379MOL0     C51055   9.720   8.328   7.968  0.0687  0.4949 -0.4758
  379MOL0     C51056   9.759   8.262   8.086 -0.7077  1.0536 -1.2669
  379MOL0     C51057   9.899   8.211   8.104 -0.1101  0.2756  1.1943
  379MOL0     C51058   9.921   8.117   8.219 -0.1280  0.0824  0.4202
  379MOL0     C51059   9.992   8.254   8.004 -0.0765 -1.1186  0.4465
  379MOL0     C51060  10.130   8.206   8.004 -0.7656  0.4105 -0.2042
  379MOL0     O51061  10.177   8.135   8.111  0.6421 -0.0406 -0.4644
  379MOL0     C51062  10.283   8.051   8.082 -0.9771  1.1614 -0.0848
  379MOL0     C51063  10.416   8.089   8.083  0.2322 -0.3811 -0.2048
  379MOL0     C51064  10.524   8.002   8.051  0.6155 -0.4190  0.0714
  379MOL0     C51065  10.496   7.862   8.032  0.0396 -0.2691  0.3885
  379MOL0     O51066  10.594   7.765   8.012 -0.2204  0.0497 -0.5789
  379MOL0     C51067  10.562   7.625   8.031 -0.0109  0.5621  0.7661
  379MOL0     C51068  10.692   7.561   8.041 -0.4766  0.3289 -0.5457
  379MOL0     C51069  10.702   7.449   8.143  0.0046 -0.3951  0.2028
  379MOL0     C51070  10.822   7.366   8.121  0.1049 -0.3676  0.1004
  379MOL0     C51071  10.839   7.244   8.205  0.0059  0.7301 -0.3931
  379MOL0     C51072  10.900   7.281   8.341 -0.1289  0.7347 -0.2005
  379MOL0     C51073  10.934   7.149   8.419  0.3282 -0.7575 -0.0437
  379MOL0     C51074  11.055   7.079   8.355  0.8338 -1.6430  0.8675
  379MOL0    Cl51075  11.069   6.923   8.426  0.3359  0.2961  0.2805
  379MOL0     C51076  10.355   7.820   8.016  0.5345  1.1849 -1.0466
  379MOL0     C51077  10.258   7.919   8.052  0.2306 -0.1487  0.7112
  379MOL0     O51078  10.207   8.253   7.917  0.2187  0.2711  0.8259
  379MOL0     C51079   9.936   8.329   7.893  0.4458 -0.4707 -0.8426
  379MOL0     C51080   9.806   8.357   7.866  0.2278  0.2259  0.1522
  379MOL0     N51081   9.187   8.697   7.714 -0.3139  0.1838 -0.0915
  379MOL0     N51082   9.079   8.735   7.667 -0.2513 -0.6706  0.4290
  379MOL0     C51083   8.278   8.610   7.559  0.4531 -0.5694  0.2663
  379MOL0     C51084   8.298   8.669   7.680 -0.1055 -0.2645 -0.2078
  379MOL0     C51085   8.488   8.991   7.961 -0.6075  0.0044  0.1844
  379MOL0     C51086   8.617   9.026   7.996 -0.0039 -0.9569  0.6305
  379MOL0     C51087   8.652   9.109   8.102  0.2973  0.2835 -0.5894
  379MOL0     C51088   8.538   9.169   8.169  0.2111 -0.2623 -0.1526
  379MOL0     O51089   8.551   9.255   8.276  0.0123  0.2188 -0.0705
  379MOL0     C51090   8.682   9.318   8.318  0.2735 -0.3720  0.0278
  379MOL0     C51091   8.685   9.455   8.229  0.4982  0.2854 -0.3693
  379MOL0     C51092   8.783   9.563   8.283  0.2032  1.0649  0.4291
  379MOL0     C51093   8.757   9.690   8.194 -0.7646  0.4619  0.4271
  379MOL0     C51094   8.624   9.746   8.219  0.7297 -0.2803 -0.1890
  379MOL0     C51095   8.510   9.781   8.221  0.3199  0.1725  0.5873
  379MOL0     C51096   8.412   9.141   8.130 -0.8831  0.1952 -0.0334
  379MOL0     C51097   8.386   9.051   8.027 -0.4123  0.9193  0.6287
  379MOL0     H51098   8.397   8.976   7.567  0.6930 -0.8760  1.8578
  379MOL0     H51099   8.392   8.864   7.349 -2.5562 -1.4694 -1.6696
  379MOL0     H51100   8.398   8.625   7.143 -1.4312 -1.9426  0.4388
  379MOL0     H51101   8.488   8.660   7.286  2.0532 -1.4905 -0.9623
  379MOL0     H51102   8.428   8.419   7.370 -0.1167  0.9697 -0.0532
  379MOL0     H51103   8.372   8.403   7.205 -0.9233  3.5325 -0.5564
  379MOL0     H51104   8.602   8.312   7.234 -0.5040 -0.1824  0.1878
  379MOL0     H51105   8.607   8.430   7.106  0.8525 -0.3973  0.5620
  379MOL0     H51106   8.787   8.447   7.242  1.2673 -0.7164  3.0739
  379MOL0     H51107   8.716   8.599   7.235 -1.6595  1.0015  2.2921
  379MOL0     H51108   8.597   8.565   7.453  1.0115  2.7322  0.1641
  379MOL0     H51109   8.673   8.395   7.467 -1.1407  0.2173  0.2461
  379MOL0     H51110   8.887   8.511   7.484  0.2666 -0.7388  2.1122
  379MOL0     H51111   8.786   8.674   7.477 -0.2966 -0.6861 -1.3772
  379MOL0     H51112   8.679   8.527   7.670  1.1536 -4.1958  0.2226
  379MOL0     H51113   8.825   8.453   7.683  1.4669 -0.8444 -2.7861
  379MOL0     H51114   8.796   8.676   7.824  1.3562  1.4302  0.3034
  379MOL0     H51115   8.806   8.775   7.669  0.7642  0.0931 -0.6710
  379MOL0     H51116   8.989   8.568   7.940  0.9039  2.2316  1.5984
  379MOL0     H51117   9.311   8.651   8.003  1.3151  1.9664 -1.0527
  379MOL0     H51118   9.243   8.490   7.948 -2.3146  2.0556  1.8679
  379MOL0     H51119   9.419   8.666   7.768 -3.1365 -1.1599 -2.7256
  379MOL0     H51120   9.443   8.499   7.765  0.7493 -1.8609  2.6820
  379MOL0     H51121   9.515   8.688   8.007  1.3665  0.5858 -1.4243
  379MOL0     H51122   9.634   8.609   7.905  1.4082 -0.3378  4.0456
  379MOL0     H51123   9.451   8.467   8.085 -0.5637  0.0711 -1.8951
  379MOL0     H51124   9.615   8.491   8.130 -0.2996 -1.7932  0.4510
  379MOL0     H51125   9.676   8.247   8.154  1.9961  1.1195  2.3239
  379MOL0     H51126   9.992   8.158   8.292  1.6410 -1.8351 -0.1012
  379MOL0     H51127   9.825   8.106   8.270 -0.9104 -0.4355 -1.1072
  379MOL0     H51128   9.963   8.021   8.186  0.2554 -0.6368  2.7666
  379MOL0     H51129  10.428   8.195   8.106 -1.3880 -0.6646  2.2317
  379MOL0     H51130  10.624   8.044   8.042  0.6243 -0.6814 -1.4259
  379MOL0     H51131  10.508   7.621   8.127 -0.6944  2.6240  0.5269
  379MOL0     H51132  10.513   7.584   7.942  1.1462  3.3678 -1.3184
  379MOL0     H51133  10.724   7.514   7.947 -0.3657 -0.1132 -0.2888
  379MOL0     H51134  10.770   7.627   8.080  1.4154 -0.9226 -1.9964
  379MOL0     H51135  10.614   7.385   8.148 -0.3085  0.1124  1.9844
  379MOL0     H51136  10.696   7.506   8.236 -3.5492 -0.5211  0.1857
  379MOL0     H51137  10.824   7.316   8.024  0.9358  1.8505 -1.1020
  379MOL0     H51138  10.908   7.433   8.129 -0.5125  0.4194  0.3483
  379MOL0     H51139  10.912   7.185   8.149  0.6337 -0.8964  1.9900
  379MOL0     H51140  10.750   7.183   8.218  0.6356  0.0656  0.9771
  379MOL0     H51141  10.984   7.351   8.333  1.3837 -0.8090  1.1795
  379MOL0     H51142  10.817   7.326   8.397 -0.8783 -0.2654 -0.4780
  379MOL0     H51143  10.845   7.086   8.430  0.6404 -1.6080 -1.8989
  379MOL0     H51144  10.953   7.179   8.522  2.8359 -0.0810 -0.6119
  379MOL0     H51145  11.150   7.132   8.368  0.4827 -0.7720 -0.0305
  379MOL0     H51146  11.047   7.062   8.247  2.2995  0.0209  0.4431
  379MOL0     H51147  10.311   7.724   7.992 -4.8003  1.9384  3.5079
  379MOL0     H51148  10.159   7.882   8.028  1.8955 -5.6073  0.8208
  379MOL0     H51149  10.016   8.360   7.826 -2.0756  0.7740 -3.4413
  379MOL0     H51150   9.767   8.396   7.772 -1.1435 -1.8365 -0.2133
  379MOL0     H51151   8.223   8.519   7.538 -1.2750  0.7139 -1.1781
  379MOL0     H51152   8.282   8.620   7.775  1.7694  3.0562  2.0145
  379MOL0     H51153   8.696   8.980   7.938 -2.2000 -0.6006 -2.9058
  379MOL0     H51154   8.758   9.120   8.123  0.2379 -0.2368  0.0293
  379MOL0     H51155   8.675   9.328   8.426 -1.9715  1.0448 -0.1888
  379MOL0     H51156   8.772   9.262   8.291  0.0091 -2.7221  3.4518
  379MOL0     H51157   8.583   9.495   8.222  1.0091  2.3003  2.2917
  379MOL0     H51158   8.709   9.423   8.127 -1.9556 -1.1615 -0.5909
  379MOL0     H51159   8.878   9.516   8.258 -1.7778 -1.9280 -2.2412
  379MOL0     H51160   8.776   9.581   8.391  0.2186  1.3757  0.3810
  379MOL0     H51161   8.764   9.664   8.088  3.1574 -0.7517  0.8203
  379MOL0     H51162   8.833   9.766   8.215 -1.1762  0.4716  1.9626
  379MOL0     H51163   8.407   9.805   8.239  1.4709  3.5031  4.3188
  379MOL0     H51164   8.335   9.190   8.190 -1.9514  0.3709 -1.5000
  379MOL0     H51165   8.283   9.022   8.009 -0.2884  0.1990  1.0738
  380MOL0     O51166   8.439   8.183   5.957  0.1486 -0.0769 -0.1917
  380MOL0     C51167   8.397   8.152   5.843 -0.4609 -0.3787 -0.1232
  380MOL0     O51168   8.447   8.196   5.720  0.1675 -0.1261 -0.4830
  380MOL0     C51169   8.559   8.271   5.699  0.2920  0.6884  0.0600
  380MOL0     C51170   8.683   8.268   5.761  0.5910  0.5202 -0.0620
  380MOL0     C51171   8.795   8.335   5.717 -0.1703  1.0098  0.4702
  380MOL0     C51172   8.781   8.431   5.609 -0.8121  0.1400 -1.8114
  380MOL0     O51173   8.901   8.489   5.559 -0.3191  0.5296  0.6031
  380MOL0     C51174   8.917   8.570   5.440  0.3886 -0.3496  0.0426
  380MOL0     C51175   9.039   8.670   5.443  0.1162  0.6807  0.6985
  380MOL0     C51176   9.025   8.794   5.541  0.5008  0.0715  0.0670
  380MOL0     C51177   9.163   8.834   5.586  0.3956 -0.6893 -1.1300
  380MOL0     C51178   9.166   8.972   5.659 -0.5166  0.0293 -0.7267
  380MOL0     C51179   9.066   8.991   5.782 -0.7251  0.0966 -0.1165
  380MOL0     C51180   9.088   9.145   5.813 -0.0690 -1.2138  1.1482
  380MOL0     C51181   9.003   9.174   5.942  0.1731  0.7728  0.5184
  380MOL0     N51182   9.030   9.304   5.984 -0.4077 -0.0726  0.1291
  380MOL0     C51183   9.141   9.353   6.058 -0.0859  0.9178  0.0156
  380MOL0     C51184   9.107   9.487   6.070  0.0922  0.1387  0.3268
  380MOL0     C51185   9.191   9.587   6.152  0.8649 -0.1346 -0.0566
  380MOL0     C51186   9.129   9.618   6.290 -0.0710  0.4940  0.2845
  380MOL0     C51187   9.220   9.717   6.373  1.1898 -0.0436  0.1294
  380MOL0     C51188   9.207   9.859   6.318 -0.0511  0.3616 -0.8214
  380MOL0     O51189   9.292   9.900   6.216 -0.3463  0.2025  0.7283
  380MOL0     C51190   9.337  10.034   6.225 -0.7540  0.5203 -0.2115
  380MOL0     C51191   9.464  10.068   6.175  0.6518  1.0404 -0.4342
  380MOL0     C51192   9.508  10.198   6.161  0.1359 -0.4789 -0.0625
  380MOL0     C51193   9.646  10.212   6.111 -0.0891 -1.0461  0.1171
  380MOL0     C51194   9.422  10.306   6.213  0.5741 -0.0600 -0.6675
  380MOL0     C51195   9.475  10.446   6.238 -0.9808  0.0591 -0.2411
  380MOL0     O51196   9.391  10.536   6.263  0.0964 -0.3290 -0.0212
  380MOL0     C51197   9.413  10.670   6.250 -0.7141  1.4300 -1.0854
  380MOL0     C51198   9.337  10.754   6.321 -0.4621 -0.3662  0.2384
  380MOL0     C51199   9.355  10.890   6.319 -0.6556 -0.7215 -0.2446
  380MOL0     C51200   9.443  10.948   6.226 -0.1042 -0.4282 -0.1327
  380MOL0     O51201   9.439  11.081   6.218  0.0881  0.3700 -0.5602
  380MOL0     C51202   9.545  11.143   6.142  0.3130 -0.7059 -0.5097
  380MOL0     C51203   9.574  11.297   6.172  0.2548  1.1118  0.7744
  380MOL0     C51204   9.465  11.396   6.133  0.0060 -0.3375 -0.1051
  380MOL0     C51205   9.342  11.397   6.227 -0.8034  0.1772  0.6144
  380MOL0     C51206   9.360  11.464   6.369  0.4279  0.8492 -0.1226
  380MOL0     C51207   9.235  11.543   6.436 -1.2453  0.4474 -0.6707
  380MOL0     C51208   9.193  11.660   6.354 -0.2978 -0.7601 -0.1167
  380MOL0     C51209   9.090  11.753   6.403 -0.4545 -0.9697  0.8317
  380MOL0    Cl51210   9.060  11.887   6.282 -0.1565  0.3268 -0.0967
  380MOL0     C51211   9.508  10.863   6.140  0.1552 -0.3028 -0.3360
  380MOL0     C51212   9.503  10.726   6.158  0.4987  0.6681  0.6018
  380MOL0     O51213   9.598  10.463   6.245 -0.2206 -0.2304 -0.0024
  380MOL0     C51214   9.290  10.273   6.249  0.3157 -1.8180 -0.0112
  380MOL0     C51215   9.249  10.145   6.255 -0.5647  0.7229 -0.3257
  380MOL0     N51216   8.994   9.510   5.997  0.3915 -0.1588  0.1064
  380MOL0     N51217   8.939   9.405   5.962 -0.2733  1.6523 -0.0254
  380MOL0     C51218   8.659   8.429   5.546  0.4630  0.7512 -0.4662
  380MOL0     C51219   8.549   8.355   5.594  0.7838 -0.3228  0.4669
  380MOL0     C51220   8.284   8.049   5.829  0.3689  0.2750  0.3780
  380MOL0     C51221   8.273   7.971   5.720 -0.6423 -0.4823  0.5035
  380MOL0     C51222   8.174   7.879   5.707  0.5388 -0.0672 -0.5273
  380MOL0     C51223   8.067   7.871   5.806 -1.0426 -0.1226  0.0202
  380MOL0     O51224   7.956   7.792   5.798 -0.3269 -0.1991 -0.3123
  380MOL0     C51225   7.940   7.696   5.695 -1.2453  0.8163  0.0987
  380MOL0     C51226   8.046   7.578   5.719  0.7230 -0.4871 -0.0540
  380MOL0     C51227   8.037   7.454   5.628 -0.0986 -1.3281  1.0735
  380MOL0     C51228   8.010   7.469   5.477  0.3606 -0.0948  0.3184
  380MOL0     C51229   7.882   7.410   5.432  0.2666 -0.1064  0.3013
  380MOL0     C51230   7.774   7.372   5.406 -0.2151 -0.7974  0.1760
  380MOL0     C51231   8.074   7.954   5.915  0.0864 -0.2368 -0.6916
  380MOL0     C51232   8.186   8.038   5.928 -0.6178 -0.1992 -0.2395
  380MOL0     H51233   8.689   8.196   5.842 -1.0351  0.7147  0.2667
  380MOL0     H51234   8.893   8.327   5.763  0.0671 -1.8476 -0.3453
  380MOL0     H51235   8.956   8.507   5.360  2.5337  2.0162 -0.8942
  380MOL0     H51236   8.828   8.625   5.407 -0.3507 -1.9637 -0.7342
  380MOL0     H51237   9.126   8.614   5.480 -1.2078 -1.7264  0.3720
  380MOL0     H51238   9.071   8.692   5.341  4.4327 -4.2262  0.5661
  380MOL0     H51239   8.970   8.881   5.505 -0.2179  0.0861  1.1608
  380MOL0     H51240   8.957   8.745   5.612  0.0804  0.0434 -0.3491
  380MOL0     H51241   9.195   8.767   5.666 -0.7447 -0.3968 -0.3974
  380MOL0     H51242   9.232   8.837   5.502  0.8003 -0.2001 -0.7924
  380MOL0     H51243   9.269   8.991   5.692  0.9268 -3.5739 -2.5257
  380MOL0     H51244   9.149   9.044   5.578  0.6382  2.1848  0.8341
  380MOL0     H51245   8.965   8.965   5.748 -0.2167 -0.2828 -1.3909
  380MOL0     H51246   9.092   8.930   5.869  1.9599 -2.5332 -2.5547
  380MOL0     H51247   9.192   9.176   5.827 -0.7051  2.1358 -0.6628
  380MOL0     H51248   9.051   9.208   5.732  1.7328  0.0972  1.2860
  380MOL0     H51249   9.020   9.110   6.029 -0.6583  1.2585  1.0556
  380MOL0     H51250   8.900   9.184   5.907  1.1839  2.8857 -2.2188
  380MOL0     H51251   9.223   9.292   6.094 -0.5846 -0.1827 -0.6377
  380MOL0     H51252   9.289   9.540   6.170  1.5839  0.9043 -1.1175
  380MOL0     H51253   9.202   9.680   6.095  1.6558 -1.8970 -3.0232
  380MOL0     H51254   9.110   9.526   6.347 -1.9998 -0.0202 -1.1235
  380MOL0     H51255   9.032   9.665   6.275 -0.2191  0.7803  1.8926
  380MOL0     H51256   9.323   9.688   6.396  0.9494  0.6061  2.3344
  380MOL0     H51257   9.171   9.722   6.471  1.3090  2.1654  0.1207
  380MOL0     H51258   9.219   9.923   6.407  1.4791 -0.7939 -0.1441
  380MOL0     H51259   9.107   9.886   6.285  0.1438  3.6789  0.8169
  380MOL0     H51260   9.530   9.984   6.157 -0.0220  0.6533 -1.1922
  380MOL0     H51261   9.663  10.314   6.074  1.3903 -0.3432  2.4930
  380MOL0     H51262   9.718  10.188   6.190 -0.3188  0.9074  0.9781
  380MOL0     H51263   9.667  10.145   6.027  0.7312  0.1684 -0.6725
  380MOL0     H51264   9.263  10.713   6.389 -1.9621 -0.2028 -1.2166
  380MOL0     H51265   9.290  10.927   6.397  0.2422 -0.2631  0.3083
  380MOL0     H51266   9.636  11.092   6.174  0.6981 -0.2622 -0.8858
  380MOL0     H51267   9.528  11.129   6.035  1.5854  0.5867 -0.9093
  380MOL0     H51268   9.594  11.298   6.279  1.1933  0.0918  0.6353
  380MOL0     H51269   9.665  11.325   6.117  0.6151 -0.7171  0.3595
  380MOL0     H51270   9.427  11.382   6.031 -1.4160 -1.2678  0.5081
  380MOL0     H51271   9.505  11.497   6.129 -0.2078  0.2177  5.2893
  380MOL0     H51272   9.264  11.467   6.196 -0.8982  1.2596  3.0605
  380MOL0     H51273   9.303  11.297   6.247 -3.7035  0.7250 -1.6232
  380MOL0     H51274   9.439  11.540   6.370  0.9767  0.2890 -0.4118
  380MOL0     H51275   9.390  11.384   6.437  2.8144 -1.5292 -3.6646
  380MOL0     H51276   9.153  11.474   6.455  0.9838 -1.4936  3.2348
  380MOL0     H51277   9.264  11.578   6.536 -0.5915  1.8536 -1.3288
  380MOL0     H51278   9.143  11.618   6.266 -0.8372  0.6845 -0.5320
  380MOL0     H51279   9.281  11.722   6.335 -0.2026 -0.8489  0.0340
  380MOL0     H51280   9.094  11.786   6.507 -0.0615 -1.7804  1.0789
  380MOL0     H51281   9.001  11.689   6.399  0.6282 -2.7200  2.7157
  380MOL0     H51282   9.575  10.895   6.061  1.9290 -1.7819  0.4962
  380MOL0     H51283   9.560  10.661   6.092 -2.1085  0.4047 -1.6120
  380MOL0     H51284   9.216  10.348   6.271 -0.7140 -3.1663  1.2554
  380MOL0     H51285   9.144  10.128   6.274 -1.3768  3.5980 -1.6748
  380MOL0     H51286   8.637   8.477   5.451 -0.1650 -0.2759 -0.8711
  380MOL0     H51287   8.452   8.370   5.547  0.4926 -0.6623  0.9430
  380MOL0     H51288   8.337   7.971   5.632 -1.8085 -0.9202 -0.3746
  380MOL0     H51289   8.178   7.818   5.617  2.4351 -0.1123 -0.4651
  380MOL0     H51290   7.835   7.663   5.701 -1.5587  1.7755 -0.0306
  380MOL0     H51291   7.955   7.736   5.595  6.6722 -1.5795 -0.3498
  380MOL0     H51292   8.040   7.548   5.824 -0.2117  0.5011  0.1931
  380MOL0     H51293   8.148   7.616   5.705 -0.3838  2.8228 -0.1228
  380MOL0     H51294   7.954   7.390   5.661 -1.8429 -2.0637 -3.8896
  380MOL0     H51295   8.133   7.402   5.617 -0.3433 -1.4310 -1.1157
  380MOL0     H51296   8.093   7.427   5.419 -0.2632 -0.0305 -0.6435
  380MOL0     H51297   8.007   7.577   5.461 -2.2662 -0.0322  0.7097
  380MOL0     H51298   7.669   7.366   5.386 -0.3494  0.9032  0.2097
  380MOL0     H51299   8.004   7.957   5.998  1.9800  2.0375  1.0023
  380MOL0     H51300   8.192   8.103   6.014  2.0196  0.9543 -1.1826
  381MOL0     O51301   7.429   6.304   1.653 -0.0350  0.4988 -0.2089
  381MOL0     C51302   7.329   6.305   1.582 -0.1573  1.0418 -0.1333
  381MOL0     O51303   7.252   6.408   1.546 -0.9827  0.1901 -0.5815
  381MOL0     C51304   7.282   6.530   1.598 -0.1679  0.1420 -1.1714
  381MOL0     C51305   7.315   6.637   1.519  0.1419 -0.1863 -0.4434
  381MOL0     C51306   7.317   6.775   1.576  0.3648  0.1001  0.2647
  381MOL0     C51307   7.290   6.793   1.712 -0.4605 -0.0938 -0.5484
  381MOL0     O51308   7.297   6.918   1.773  0.4440 -0.0666  0.6894
  381MOL0     C51309   7.358   7.037   1.715 -0.1561 -0.2718  0.3779
  381MOL0     C51310   7.507   7.042   1.753  0.1614 -0.9793 -0.7576
  381MOL0     C51311   7.545   7.030   1.906 -0.3915 -0.5725 -0.0302
  381MOL0     C51312   7.483   7.152   1.979  0.2149 -0.8936 -1.4533
  381MOL0     C51313   7.501   7.140   2.133  0.0780 -1.5353  1.4385
  381MOL0     C51314   7.475   7.273   2.198  0.1126  0.7449  0.7624
  381MOL0     C51315   7.492   7.262   2.350  0.8428 -0.3532 -0.3980
  381MOL0     C51316   7.529   7.405   2.403  0.2801 -0.1662  1.8656
  381MOL0     N51317   7.662   7.468   2.367  0.0670  0.0488  0.7317
  381MOL0     C51318   7.696   7.592   2.418  0.8415  0.6317  0.2097
  381MOL0     C51319   7.816   7.613   2.364 -0.3438  0.3303  0.2818
  381MOL0     C51320   7.899   7.732   2.406 -0.8495 -0.4819  0.1150
  381MOL0     C51321   7.962   7.747   2.542 -0.0008  0.1935 -0.5377
  381MOL0     C51322   7.869   7.772   2.663 -0.2463 -0.1356 -0.3183
  381MOL0     C51323   7.802   7.912   2.645  0.8796  0.3086 -0.4124
  381MOL0     O51324   7.723   7.929   2.775 -0.0867  0.2599  1.1123
  381MOL0     C51325   7.736   8.040   2.847  0.1475 -0.3207  0.3742
  381MOL0     C51326   7.728   8.027   2.984  0.5109  0.0381 -0.4669
  381MOL0     C51327   7.748   8.132   3.070 -0.1683  0.8440 -0.1851
  381MOL0     C51328   7.711   8.111   3.217 -1.2122  0.0840 -0.8818
  381MOL0     C51329   7.805   8.253   3.015 -0.3087 -0.4545  0.7129
  381MOL0     C51330   7.853   8.362   3.108  0.6471 -0.3648  0.5145
  381MOL0     O51331   7.867   8.485   3.042  0.0150  0.3882 -1.1386
  381MOL0     C51332   7.904   8.592   3.118  0.4488 -0.4221  0.2855
  381MOL0     C51333   8.019   8.654   3.076 -0.1978 -0.4029 -0.2052
  381MOL0     C51334   8.080   8.749   3.153 -0.4258  0.0220 -0.1609
  381MOL0     C51335   8.032   8.783   3.275 -0.2791 -0.4288 -0.5036
  381MOL0     O51336   8.105   8.888   3.344  0.2502  0.2119  0.5623
  381MOL0     C51337   8.054   8.932   3.464 -0.3053  0.6715 -0.5627
  381MOL0     C51338   8.148   9.039   3.518  0.9283  0.6348 -0.1911
  381MOL0     C51339   8.304   9.007   3.526  0.3585  1.8986  0.2322
  381MOL0     C51340   8.388   9.140   3.538 -0.1377 -0.4128  0.3971
  381MOL0     C51341   8.536   9.125   3.507  0.8329 -0.8261 -0.5391
  381MOL0     C51342   8.598   9.023   3.598 -0.0630  0.6949 -0.8460
  381MOL0     C51343   8.732   9.063   3.648  0.3631 -0.3918  0.0665
  381MOL0     C51344   8.785   8.972   3.764  0.0923 -0.5378 -0.4128
  381MOL0    Cl51345   8.946   9.043   3.799 -0.5130  0.0130  0.1004
  381MOL0     C51346   7.919   8.716   3.325  0.3243  0.3539 -0.4458
  381MOL0     C51347   7.849   8.629   3.243 -0.4881  0.2406  0.0025
  381MOL0     O51348   7.888   8.339   3.226  0.3339  0.1911  0.7468
  381MOL0     C51349   7.808   8.268   2.876 -0.8557 -0.1431 -0.1596
  381MOL0     C51350   7.772   8.159   2.792  0.5600  0.7352 -0.3687
  381MOL0     N51351   7.856   7.510   2.285 -0.3078 -0.2579  1.2157
  381MOL0     N51352   7.766   7.429   2.282 -0.4474  0.2124 -0.0095
  381MOL0     C51353   7.266   6.684   1.794 -0.2502 -0.2438 -0.2909
  381MOL0     C51354   7.262   6.556   1.740  1.0401  0.1114 -0.7897
  381MOL0     C51355   7.309   6.177   1.513 -0.5892  1.2063  0.4675
  381MOL0     C51356   7.204   6.165   1.425 -1.0237  0.0756 -0.4746
  381MOL0     C51357   7.182   6.044   1.361 -0.1820 -0.6866 -0.9780
  381MOL0     C51358   7.262   5.936   1.373 -0.0868  0.0854 -0.3843
  381MOL0     O51359   7.243   5.817   1.308 -0.8154 -0.9656  1.0881
  381MOL0     C51360   7.357   5.747   1.250 -0.7925  0.2393  0.3125
  381MOL0     C51361   7.305   5.643   1.146 -0.0426  1.8411 -0.8081
  381MOL0     C51362   7.212   5.693   1.033  0.0722 -0.0378 -0.6726
  381MOL0     C51363   7.131   5.584   0.951  0.5698  0.6020  0.7228
  381MOL0     C51364   7.223   5.487   0.897  0.2960  0.0339 -0.8838
  381MOL0     C51365   7.321   5.432   0.843 -0.0386 -0.2054 -0.3608
  381MOL0     C51366   7.371   5.945   1.466  0.0693 -0.4435  0.1823
  381MOL0     C51367   7.386   6.059   1.543  0.4113 -0.6930  0.6890
  381MOL0     H51368   7.330   6.620   1.413  0.6546  0.7514 -0.5269
  381MOL0     H51369   7.337   6.855   1.506  0.2709 -1.7401 -2.0052
  381MOL0     H51370   7.353   7.039   1.606 -0.6223 -0.4307  0.3947
  381MOL0     H51371   7.305   7.130   1.737  3.3051  1.8608  0.4403
  381MOL0     H51372   7.558   6.962   1.700 -1.0490  0.4739 -4.4153
  381MOL0     H51373   7.551   7.135   1.715 -0.5956 -1.0774 -1.9154
  381MOL0     H51374   7.516   6.937   1.956 -0.2895 -1.0498 -0.8423
  381MOL0     H51375   7.654   7.038   1.899 -0.2480 -2.0274  0.2055
  381MOL0     H51376   7.528   7.248   1.954  2.0320 -1.2523  0.2062
  381MOL0     H51377   7.379   7.155   1.946  0.5943 -2.2750 -2.9071
  381MOL0     H51378   7.426   7.071   2.173 -1.6258 -1.7293 -1.8133
  381MOL0     H51379   7.604   7.112   2.160  0.6379 -1.9493 -0.9469
  381MOL0     H51380   7.553   7.336   2.155  2.5469 -2.5982 -0.1009
  381MOL0     H51381   7.373   7.297   2.165 -1.3435 -2.7490  2.2220
  381MOL0     H51382   7.401   7.219   2.394 -0.2455 -2.7533 -4.4402
  381MOL0     H51383   7.571   7.190   2.374  0.3692 -0.4277  1.0787
  381MOL0     H51384   7.530   7.392   2.511  1.1490 -1.1719  1.7559
  381MOL0     H51385   7.449   7.473   2.371  0.3908  0.3932  2.7503
  381MOL0     H51386   7.658   7.662   2.491 -0.9168  0.2852 -0.3254
  381MOL0     H51387   7.982   7.754   2.338 -2.2807 -0.0309 -1.5519
  381MOL0     H51388   7.830   7.815   2.392  0.6459  0.8515  0.4297
  381MOL0     H51389   8.030   7.830   2.525  0.0602  0.0501 -0.9861
  381MOL0     H51390   8.032   7.664   2.559 -1.5070 -1.0738 -0.2480
  381MOL0     H51391   7.948   7.786   2.738 -1.8585 -0.4849  1.5308
  381MOL0     H51392   7.805   7.690   2.695 -0.8880  1.0364  1.5949
  381MOL0     H51393   7.730   7.911   2.563  2.1327 -4.5652 -1.7963
  381MOL0     H51394   7.888   7.980   2.637  3.4455 -2.2781  2.4193
  381MOL0     H51395   7.704   7.927   3.020 -1.4308  1.2283  1.7944
  381MOL0     H51396   7.788   8.102   3.294 -1.9242 -2.4869 -0.3726
  381MOL0     H51397   7.650   8.197   3.245  2.2660  2.7630 -0.7757
  381MOL0     H51398   7.651   8.020   3.221 -4.2064  1.9829  2.0365
  381MOL0     H51399   8.052   8.638   2.973 -1.3105 -2.4162 -0.3153
  381MOL0     H51400   8.166   8.809   3.127  0.0070 -0.6913 -0.3951
  381MOL0     H51401   7.954   8.976   3.454  0.2167  1.6062 -1.9339
  381MOL0     H51402   8.044   8.846   3.532 -1.4864  1.1511 -0.0997
  381MOL0     H51403   8.133   9.127   3.454  0.2652 -1.1852 -2.6837
  381MOL0     H51404   8.114   9.069   3.618  0.8342  2.5869 -0.7654
  381MOL0     H51405   8.342   8.971   3.430 -1.2747 -0.1316  0.2863
  381MOL0     H51406   8.350   8.944   3.603  0.1396 -1.6286 -2.3208
  381MOL0     H51407   8.361   9.216   3.464  0.2861  1.6408  2.2486
  381MOL0     H51408   8.377   9.186   3.637  1.9595 -0.1982  0.5728
  381MOL0     H51409   8.589   9.218   3.530  5.6398 -3.6204  1.0532
  381MOL0     H51410   8.541   9.102   3.400 -1.5204 -2.5312 -0.3726
  381MOL0     H51411   8.539   9.024   3.690  3.3474 -0.4184  1.5612
  381MOL0     H51412   8.610   8.921   3.559  1.0984  0.3663  0.3085
  381MOL0     H51413   8.721   9.167   3.681 -1.0454 -0.9407  1.4587
  381MOL0     H51414   8.796   9.053   3.560  1.0259 -2.1317  0.7165
  381MOL0     H51415   8.808   8.876   3.717  1.2156 -0.7924  0.6184
  381MOL0     H51416   8.718   8.969   3.850 -0.4141  1.6085 -0.6792
  381MOL0     H51417   7.890   8.746   3.425  2.1149  0.7833 -0.0007
  381MOL0     H51418   7.754   8.583   3.269 -0.8057  0.6034 -0.5108
  381MOL0     H51419   7.830   8.358   2.820 -1.4525  1.0319  1.3907
  381MOL0     H51420   7.782   8.181   2.686 -4.5917 -2.1024 -1.8376
  381MOL0     H51421   7.264   6.694   1.902 -0.3801  1.2712 -0.4108
  381MOL0     H51422   7.236   6.474   1.806  1.8527 -1.2170 -2.0377
  381MOL0     H51423   7.150   6.251   1.389  3.6362  2.5013 -2.4356
  381MOL0     H51424   7.097   6.051   1.294 -1.6819  1.7057  0.9932
  381MOL0     H51425   7.429   5.823   1.219  0.4318 -0.5199  1.2314
  381MOL0     H51426   7.416   5.700   1.330  1.8946 -0.4568 -1.9456
  381MOL0     H51427   7.248   5.571   1.206  1.0536  3.5334  2.5179
  381MOL0     H51428   7.386   5.586   1.098  0.6061  3.7015 -2.0006
  381MOL0     H51429   7.260   5.734   0.944 -0.9923 -2.5216 -2.5143
  381MOL0     H51430   7.139   5.759   1.081  3.2530  1.8928  1.9509
  381MOL0     H51431   7.072   5.619   0.866  1.6697 -1.3113 -0.9338
  381MOL0     H51432   7.062   5.541   1.023  2.8607 -2.4406  1.3080
  381MOL0     H51433   7.406   5.376   0.811 -1.0123 -2.5016  0.8401
  381MOL0     H51434   7.415   5.849   1.492 -0.5107 -2.2156 -4.3945
  381MOL0     H51435   7.460   6.047   1.623  3.9464  2.0402 -1.8424
  382MOL0     O51436   8.377   9.535   3.063  0.9606 -0.1809  0.4689
  382MOL0     C51437   8.290   9.479   3.133  0.2467  0.1149 -0.3530
  382MOL0     O51438   8.285   9.346   3.164 -0.5140  0.8817  0.0200
  382MOL0     C51439   8.376   9.247   3.151 -0.8909 -0.0852  0.0036
  382MOL0     C51440   8.338   9.112   3.126  0.5837 -0.4196 -0.0184
  382MOL0     C51441   8.428   9.010   3.107 -0.0540 -0.0367 -1.0486
  382MOL0     C51442   8.566   9.035   3.111  0.2553  0.2579  0.0665
  382MOL0     O51443   8.649   8.933   3.077 -1.3889 -0.4353 -0.1116
  382MOL0     C51444   8.781   8.929   3.152 -0.4176  0.6104 -0.4607
  382MOL0     C51445   8.782   8.795   3.236  0.2138  0.2263 -0.0209
  382MOL0     C51446   8.862   8.806   3.364 -0.7365  0.9458  0.7136
  382MOL0     C51447   9.024   8.828   3.343  0.7347 -0.3187 -0.2699
  382MOL0     C51448   9.087   8.841   3.483 -0.3638  0.4854 -0.8083
  382MOL0     C51449   9.238   8.813   3.474  0.3333  0.5023  0.0127
  382MOL0     C51450   9.315   8.812   3.603  0.1120 -0.5485  0.0324
  382MOL0     C51451   9.420   8.699   3.617 -0.0217  0.2144 -0.3726
  382MOL0     N51452   9.374   8.558   3.651 -1.2860  0.4759  0.5274
  382MOL0     C51453   9.342   8.460   3.558  0.1314  0.0543 -0.2357
  382MOL0     C51454   9.297   8.355   3.633  0.0363  0.7120  0.1134
  382MOL0     C51455   9.282   8.219   3.577  0.5101 -0.8065 -0.4195
  382MOL0     C51456   9.380   8.118   3.647  0.5015 -0.6905  0.0094
  382MOL0     C51457   9.526   8.136   3.614 -0.1732  0.0162 -0.4614
  382MOL0     C51458   9.607   8.011   3.657  0.7144  0.1111 -0.1352
  382MOL0     O51459   9.551   7.908   3.568  0.8718 -0.7330  0.8301
  382MOL0     C51460   9.567   7.777   3.604 -0.7011  0.3500  0.0910
  382MOL0     C51461   9.680   7.727   3.671 -0.1990  0.3400 -0.2099
  382MOL0     C51462   9.686   7.595   3.712 -0.4424 -0.4914  0.6061
  382MOL0     C51463   9.794   7.577   3.816 -0.5682  0.2353 -0.4489
  382MOL0     C51464   9.587   7.503   3.670  0.7601  0.8826  0.6459
  382MOL0     C51465   9.590   7.359   3.692 -0.4691  0.6844 -0.7328
  382MOL0     O51466   9.472   7.290   3.673 -0.9095  0.1169  0.0132
  382MOL0     C51467   9.447   7.160   3.670 -0.9011  0.1748  0.2621
  382MOL0     C51468   9.541   7.060   3.644 -0.6251  1.1808  0.6047
  382MOL0     C51469   9.513   6.928   3.645  0.0038 -0.2956  0.3773
  382MOL0     C51470   9.378   6.891   3.657  0.3405 -0.0173 -0.1515
  382MOL0     O51471   9.356   6.756   3.633  1.0274 -0.4291 -0.1385
  382MOL0     C51472   9.242   6.691   3.681  0.7569 -0.2720  1.0690
  382MOL0     C51473   9.214   6.558   3.613 -0.3960 -0.9104 -0.3198
  382MOL0     C51474   9.333   6.461   3.640  0.3236  0.2925  0.0247
  382MOL0     C51475   9.320   6.328   3.558  0.3456 -0.3682  0.4426
  382MOL0     C51476   9.224   6.223   3.617  0.6224 -0.0755  0.5116
  382MOL0     C51477   9.244   6.212   3.770 -0.5861 -0.5857  0.9429
  382MOL0     C51478   9.142   6.120   3.838 -0.0449  0.4881 -0.0264
  382MOL0     C51479   9.000   6.187   3.846 -0.0177 -0.5698 -0.0941
  382MOL0    Cl51480   8.873   6.068   3.878 -0.0626  0.5240 -0.4116
  382MOL0     C51481   9.276   6.991   3.678  0.6924  0.8052  0.7222
  382MOL0     C51482   9.311   7.123   3.690 -0.4469 -0.6030  0.0373
  382MOL0     O51483   9.699   7.306   3.724  0.2569 -0.9723 -0.0987
  382MOL0     C51484   9.475   7.552   3.585 -0.2900 -0.3115 -1.3992
  382MOL0     C51485   9.471   7.687   3.554 -0.1554 -0.0736 -0.6568
  382MOL0     N51486   9.312   8.390   3.769 -0.2070 -0.9147 -0.6216
  382MOL0     N51487   9.355   8.511   3.776  0.7524 -1.2306  0.1321
  382MOL0     C51488   8.610   9.166   3.126  0.9320  0.4635  0.7155
  382MOL0     C51489   8.517   9.263   3.154 -0.0818 -0.1457  0.7973
  382MOL0     C51490   8.171   9.557   3.155  0.5154  1.0326 -0.4383
  382MOL0     C51491   8.168   9.699   3.187  0.0596 -0.5927  0.5828
  382MOL0     C51492   8.044   9.755   3.212 -0.2141 -0.1062  0.4129
  382MOL0     C51493   7.924   9.680   3.215  0.7346  1.1068  0.0866
  382MOL0     O51494   7.813   9.753   3.265 -0.1044 -0.0279  0.9306
  382MOL0     C51495   7.683   9.692   3.266 -0.6327 -0.0457  0.1094
  382MOL0     C51496   7.612   9.703   3.119 -1.3364  0.4808 -0.2328
  382MOL0     C51497   7.468   9.665   3.134  0.7730  0.0883  0.4158
  382MOL0     C51498   7.367   9.741   3.037 -0.5348 -0.5707  0.2232
  382MOL0     C51499   7.238   9.669   3.026  0.0916 -0.0660  0.2691
  382MOL0     C51500   7.127   9.627   3.011  0.7746  1.2127  0.1745
  382MOL0     C51501   7.932   9.539   3.187 -0.0843 -0.5553  1.0138
  382MOL0     C51502   8.054   9.486   3.158 -0.4289 -0.3584  0.9393
  382MOL0     H51503   8.232   9.091   3.130  0.7389 -1.7437 -1.8860
  382MOL0     H51504   8.394   8.909   3.091  1.9265 -0.8065 -0.7313
  382MOL0     H51505   8.866   8.926   3.083  0.1260  1.1547  0.1656
  382MOL0     H51506   8.789   9.016   3.218 -1.7130 -1.1302  2.1821
  382MOL0     H51507   8.677   8.777   3.262 -0.1111 -2.3313 -2.6000
  382MOL0     H51508   8.818   8.705   3.186  3.0471  0.5484  1.2577
  382MOL0     H51509   8.809   8.870   3.436 -0.9318 -1.5089  2.9243
  382MOL0     H51510   8.836   8.709   3.407 -0.5244  1.5316  2.2195
  382MOL0     H51511   9.072   8.740   3.300  0.1784 -1.6088  1.6241
  382MOL0     H51512   9.054   8.915   3.283  2.7929 -0.0475  1.0746
  382MOL0     H51513   9.083   8.946   3.511 -0.7250  0.4322 -0.6490
  382MOL0     H51514   9.029   8.774   3.547  0.2236  1.5346  0.8629
  382MOL0     H51515   9.256   8.714   3.432  0.3565 -0.1050  1.3964
  382MOL0     H51516   9.280   8.885   3.402 -2.5419  1.7440 -0.5642
  382MOL0     H51517   9.364   8.909   3.611  0.0175 -0.2383 -2.2573
  382MOL0     H51518   9.250   8.799   3.690 -0.3069  0.5307 -0.1021
  382MOL0     H51519   9.484   8.728   3.701  1.6699 -0.6996 -1.2942
  382MOL0     H51520   9.496   8.691   3.539  0.0610  2.4232 -0.5541
  382MOL0     H51521   9.367   8.469   3.452 -1.0914  4.1155 -0.3487
  382MOL0     H51522   9.179   8.187   3.598 -1.7401  2.9496 -4.1781
  382MOL0     H51523   9.287   8.219   3.468 -1.4839  2.6092 -0.6595
  382MOL0     H51524   9.343   8.023   3.609  0.0191  0.0841 -1.5544
  382MOL0     H51525   9.367   8.118   3.756 -1.3920 -0.7221 -0.1881
  382MOL0     H51526   9.557   8.224   3.670  1.1687  0.2242 -1.5008
  382MOL0     H51527   9.546   8.153   3.508 -1.4320  2.6041 -0.3698
  382MOL0     H51528   9.568   7.990   3.758 -2.0168  0.2293 -1.0847
  382MOL0     H51529   9.714   8.027   3.647  0.5422  0.8863 -0.8371
  382MOL0     H51530   9.752   7.801   3.706  0.6974  0.2076 -1.6950
  382MOL0     H51531   9.824   7.668   3.869  1.4106 -1.1734  0.9972
  382MOL0     H51532   9.764   7.497   3.884 -0.8450 -0.3161 -1.2148
  382MOL0     H51533   9.883   7.544   3.761 -1.1254 -0.2456 -1.0729
  382MOL0     H51534   9.647   7.075   3.626  0.0931 -1.9896  1.5408
  382MOL0     H51535   9.579   6.843   3.628  1.1377  1.1482 -3.4733
  382MOL0     H51536   9.237   6.681   3.790  2.0259 -2.8773  0.9639
  382MOL0     H51537   9.155   6.754   3.660  1.2788 -0.2554 -1.3576
  382MOL0     H51538   9.125   6.509   3.654 -2.1147  1.0987 -1.4321
  382MOL0     H51539   9.198   6.583   3.507 -1.2082  0.2366  0.0517
  382MOL0     H51540   9.343   6.452   3.749 -0.9701  0.4866  0.1738
  382MOL0     H51541   9.425   6.516   3.615  0.0200  0.5213 -0.6212
  382MOL0     H51542   9.279   6.360   3.462  1.0180 -0.0629  0.2500
  382MOL0     H51543   9.425   6.299   3.554  1.3742  2.9291  0.2986
  382MOL0     H51544   9.221   6.123   3.572  0.0655 -0.3782  1.2045
  382MOL0     H51545   9.122   6.260   3.608 -0.1242 -1.9408  0.7395
  382MOL0     H51546   9.348   6.193   3.800  0.5012  1.7387 -1.0016
  382MOL0     H51547   9.228   6.311   3.816  0.8809 -0.1941  0.6590
  382MOL0     H51548   9.181   6.081   3.933  1.3001  3.4403  0.7905
  382MOL0     H51549   9.138   6.034   3.771 -0.2320  1.3600 -1.1617
  382MOL0     H51550   8.974   6.244   3.756 -4.1727 -0.1694  1.1937
  382MOL0     H51551   8.993   6.269   3.917 -4.7855  1.1338 -2.1023
  382MOL0     H51552   9.171   6.967   3.685  0.3172  1.1898 -2.2424
  382MOL0     H51553   9.240   7.203   3.708  0.5948  0.5666 -0.8729
  382MOL0     H51554   9.401   7.482   3.547  1.0461 -1.4910 -1.9275
  382MOL0     H51555   9.382   7.715   3.499 -0.9136 -2.6670 -0.8997
  382MOL0     H51556   8.715   9.192   3.125  0.3580  3.0578  0.5557
  382MOL0     H51557   8.562   9.362   3.159  0.4705 -0.3214 -0.4498
  382MOL0     H51558   8.258   9.758   3.192 -2.1163  2.9402  1.9842
  382MOL0     H51559   8.028   9.861   3.232 -4.0634 -0.1183 -1.5973
  382MOL0     H51560   7.678   9.591   3.308  0.0632  0.4639  1.5024
  382MOL0     H51561   7.626   9.758   3.332  0.3778  0.5377  0.4323
  382MOL0     H51562   7.659   9.637   3.045 -0.3511 -3.2125  3.3017
  382MOL0     H51563   7.621   9.804   3.078  0.5620  0.2087 -0.5916
  382MOL0     H51564   7.443   9.680   3.239  0.1514  0.7791  0.1773
  382MOL0     H51565   7.454   9.560   3.105 -3.1106  0.4288  0.5688
  382MOL0     H51566   7.404   9.736   2.935 -0.5397 -2.3770  0.2816
  382MOL0     H51567   7.341   9.844   3.064 -1.3598 -0.1343 -2.0472
  382MOL0     H51568   7.029   9.584   3.001 -0.0069  2.9106  0.1636
  382MOL0     H51569   7.843   9.476   3.190 -2.0878  1.8896 -1.2029
  382MOL0     H51570   8.061   9.380   3.139  1.9532 -0.5002  2.2971
  383MOL0     O51571  10.334   2.563   1.670  0.1897  0.2695 -0.8683
  383MOL0     C51572  10.297   2.651   1.749 -0.4265 -0.0467  0.6491
  383MOL0     O51573  10.380   2.755   1.794  0.5113 -0.4254 -0.7009
  383MOL0     C51574  10.515   2.724   1.768  1.4231 -0.1028 -0.4854
  383MOL0     C51575  10.577   2.833   1.705 -0.0271 -0.8574  0.7109
  383MOL0     C51576  10.718   2.832   1.685 -0.3549 -0.3925  1.0217
  383MOL0     C51577  10.789   2.721   1.736  0.3597  0.4098 -0.1188
  383MOL0     O51578  10.920   2.704   1.698  0.0945 -0.2470  0.3264
  383MOL0     C51579  11.015   2.626   1.765 -0.5041 -1.1322  0.2209
  383MOL0     C51580  11.065   2.695   1.886 -0.9812  0.3468  1.3842
  383MOL0     C51581  10.964   2.674   2.005  0.1047 -0.1979 -0.8126
  383MOL0     C51582  11.037   2.702   2.136  0.0438 -0.0766 -0.6956
  383MOL0     C51583  10.942   2.710   2.257  0.5797  0.2748  0.4324
  383MOL0     C51584  10.907   2.858   2.260  0.3513  0.1163  0.4994
  383MOL0     C51585  11.010   2.943   2.332  0.3678 -0.1271  0.4477
  383MOL0     C51586  10.994   3.089   2.288 -0.2779 -0.9987  0.8137
  383MOL0     N51587  11.081   3.174   2.373 -0.0368  0.9170  0.6423
  383MOL0     C51588  11.172   3.266   2.326  0.2436  0.1430 -0.1739
  383MOL0     C51589  11.224   3.319   2.437  0.3456 -0.8495  0.6956
  383MOL0     C51590  11.351   3.388   2.451  0.2264 -0.2187 -0.2423
  383MOL0     C51591  11.360   3.529   2.392  0.3263 -0.5431 -0.4234
  383MOL0     C51592  11.499   3.558   2.346  0.5038  0.2368 -0.4895
  383MOL0     C51593  11.582   3.591   2.463 -0.9425  0.1465  1.3472
  383MOL0     O51594  11.712   3.590   2.419  0.2821  0.6022  0.0250
  383MOL0     C51595  11.785   3.475   2.400 -0.3420  0.3166  0.1252
  383MOL0     C51596  11.911   3.496   2.334  0.9832 -0.4024 -0.7527
  383MOL0     C51597  11.997   3.392   2.297 -0.5483 -0.1819  0.4651
  383MOL0     C51598  12.118   3.426   2.209 -0.5068 -0.4659  0.1695
  383MOL0     C51599  11.960   3.254   2.328  0.6087 -0.3587  0.0867
  383MOL0     C51600  12.041   3.128   2.291 -0.4891 -0.3466 -0.1789
  383MOL0     O51601  11.976   3.012   2.251  0.1235 -0.1965  0.2559
  383MOL0     C51602  12.040   2.892   2.232  0.3798  0.7622 -0.2088
  383MOL0     C51603  11.992   2.805   2.131  0.7503  0.4575  0.5712
  383MOL0     C51604  12.043   2.679   2.098 -0.1414 -0.7455  0.3770
  383MOL0     C51605  12.163   2.649   2.150 -0.8714 -0.3622  0.3476
  383MOL0     O51606  12.233   2.542   2.107  0.0765  0.1605  0.2430
  383MOL0     C51607  12.152   2.440   2.042  0.2920  0.3459  0.2130
  383MOL0     C51608  12.206   2.297   2.065  0.4538  0.1806 -0.0330
  383MOL0     C51609  12.215   2.204   1.948 -0.6760 -0.4709 -0.2657
  383MOL0     C51610  12.117   2.087   1.964  0.0414 -0.2107 -0.6238
  383MOL0     C51611  12.154   1.974   1.863 -0.5660  0.7997  0.5484
  383MOL0     C51612  12.031   1.928   1.791  0.8097  0.5638  0.3699
  383MOL0     C51613  12.015   1.976   1.644  0.0195  0.4965  0.2496
  383MOL0     C51614  11.961   1.872   1.555  0.2785  1.6959 -0.8062
  383MOL0    Cl51615  11.911   1.928   1.401 -0.1113  0.2178 -0.1883
  383MOL0     C51616  12.220   2.735   2.243 -1.1071  0.5929 -0.1311
  383MOL0     C51617  12.158   2.851   2.292  0.6069  0.1237 -0.1825
  383MOL0     O51618  12.164   3.134   2.289 -0.2435  0.3533 -0.6717
  383MOL0     C51619  11.836   3.231   2.397  0.4555 -0.0405  0.6047
  383MOL0     C51620  11.758   3.338   2.430  0.5852  0.4694 -0.1789
  383MOL0     N51621  11.166   3.265   2.544  0.2601 -0.0143  0.1637
  383MOL0     N51622  11.074   3.176   2.507 -0.3294 -0.3391 -1.3501
  383MOL0     C51623  10.728   2.623   1.819  0.4691 -0.1581 -0.1976
  383MOL0     C51624  10.588   2.628   1.834 -0.6382  0.6084  0.0986
  383MOL0     C51625  10.156   2.648   1.786 -0.1999 -0.8913  0.8074
  383MOL0     C51626  10.105   2.758   1.872  0.0324  0.0034  0.4488
  383MOL0     C51627   9.975   2.764   1.912  0.2088 -0.2823 -0.2503
  383MOL0     C51628   9.895   2.658   1.874  0.2072 -0.4264  1.0768
  383MOL0     O51629   9.767   2.647   1.905  0.4312 -0.0655 -0.4810
  383MOL0     C51630   9.686   2.697   1.802  0.0020 -0.1581  1.0003
  383MOL0     C51631   9.541   2.648   1.805  0.2611 -0.6138 -0.1081
  383MOL0     C51632   9.532   2.505   1.748 -0.5728 -0.5163 -0.9428
  383MOL0     C51633   9.415   2.427   1.811 -0.5086 -0.0592  0.2423
  383MOL0     C51634   9.403   2.283   1.791  0.5504 -0.1469 -0.2008
  383MOL0     C51635   9.417   2.163   1.786  0.5608  0.3633 -0.4504
  383MOL0     C51636   9.936   2.548   1.798 -0.0882 -0.2000  0.2642
  383MOL0     C51637  10.071   2.549   1.749 -0.0849 -0.2850 -0.8614
  383MOL0     H51638  10.518   2.900   1.643  1.5050  1.4144  1.5854
  383MOL0     H51639  10.768   2.909   1.628  0.2533 -2.1735 -0.9609
  383MOL0     H51640  10.986   2.521   1.763  2.1018 -1.9332 -1.8841
  383MOL0     H51641  11.104   2.618   1.702 -0.1482  0.4030  0.4709
  383MOL0     H51642  11.163   2.657   1.916 -0.5068 -0.0748 -0.5851
  383MOL0     H51643  11.089   2.802   1.881  2.3038 -0.3028  1.3894
  383MOL0     H51644  10.891   2.755   1.999  0.3019  0.1600  1.0176
  383MOL0     H51645  10.916   2.576   2.014 -2.8255  1.2920  1.6558
  383MOL0     H51646  11.097   2.613   2.162 -3.6672 -3.3577 -2.3131
  383MOL0     H51647  11.104   2.787   2.125  5.7932 -3.6801  1.4750
  383MOL0     H51648  10.852   2.648   2.248  0.5684  0.3698 -0.1961
  383MOL0     H51649  10.993   2.677   2.347  0.8918  1.5800  0.7575
  383MOL0     H51650  10.898   2.893   2.157  1.5607 -2.1373 -0.4218
  383MOL0     H51651  10.810   2.873   2.309 -0.0724  1.4986 -0.6753
  383MOL0     H51652  10.976   2.935   2.436  1.0884 -0.8352  0.6320
  383MOL0     H51653  11.111   2.906   2.314  0.8788  0.6945  1.4656
  383MOL0     H51654  10.892   3.127   2.291  0.1994  0.7259 -1.9446
  383MOL0     H51655  11.016   3.082   2.181  3.4721 -2.9212  1.5202
  383MOL0     H51656  11.189   3.304   2.226  0.3538 -1.2040 -0.6759
  383MOL0     H51657  11.381   3.393   2.556  4.1331 -0.0874 -1.2110
  383MOL0     H51658  11.417   3.315   2.404  1.4253 -1.0813  2.5584
  383MOL0     H51659  11.330   3.602   2.467 -1.2370 -0.1963 -1.3393
  383MOL0     H51660  11.296   3.533   2.303 -0.6482  0.9133  0.3060
  383MOL0     H51661  11.495   3.644   2.279 -1.1890 -0.7367 -1.7433
  383MOL0     H51662  11.543   3.479   2.284  3.5008  0.8693  0.6553
  383MOL0     H51663  11.584   3.522   2.548  2.6090  0.1102  1.3996
  383MOL0     H51664  11.549   3.687   2.503  0.0256  1.0389  0.0659
  383MOL0     H51665  11.934   3.599   2.311  2.0614 -0.4740 -0.0277
  383MOL0     H51666  12.111   3.521   2.154  1.4542  0.4023  1.3235
  383MOL0     H51667  12.200   3.447   2.278  0.6067 -0.8468 -1.0041
  383MOL0     H51668  12.143   3.342   2.144  2.5397 -1.5742  2.5234
  383MOL0     H51669  11.912   2.834   2.063  1.8595  4.1851  0.6264
  383MOL0     H51670  12.015   2.636   2.003  1.2696  3.3534 -2.1930
  383MOL0     H51671  12.050   2.442   2.080  0.4574 -0.6021  0.7436
  383MOL0     H51672  12.156   2.454   1.934 -0.7864  3.8549  0.5166
  383MOL0     H51673  12.309   2.314   2.100 -0.5103  2.2584  2.1268
  383MOL0     H51674  12.164   2.249   2.154  1.5880  0.2378  0.5628
  383MOL0     H51675  12.319   2.176   1.929 -0.2450  0.2257  0.9793
  383MOL0     H51676  12.188   2.256   1.856 -0.3947 -0.9868 -0.6458
  383MOL0     H51677  12.115   2.047   2.066 -0.6535 -2.7778 -1.5796
  383MOL0     H51678  12.017   2.127   1.947 -0.7135 -2.9270 -3.5385
  383MOL0     H51679  12.181   1.887   1.923 -0.6980  0.7728  0.5700
  383MOL0     H51680  12.240   2.012   1.808  0.3349  1.1883  2.1938
  383MOL0     H51681  12.047   1.819   1.793 -1.5991  0.1599  0.1569
  383MOL0     H51682  11.939   1.950   1.846  0.4965 -0.9449  0.4906
  383MOL0     H51683  12.113   2.010   1.608 -0.5377  1.5347 -0.3381
  383MOL0     H51684  11.957   2.068   1.653 -0.1880  0.3199  0.7913
  383MOL0     H51685  11.881   1.826   1.613  2.0249  2.3250  2.3520
  383MOL0     H51686  12.042   1.800   1.541 -0.0743  1.7201 -3.4521
  383MOL0     H51687  12.314   2.699   2.283 -2.2329 -2.2088  0.2400
  383MOL0     H51688  12.206   2.910   2.371  1.4073 -2.5043  1.4225
  383MOL0     H51689  11.787   3.135   2.411  0.7032 -0.4279 -0.9888
  383MOL0     H51690  11.667   3.325   2.487  1.2717  3.6236  1.8691
  383MOL0     H51691  10.785   2.539   1.857  1.1019 -0.5376 -1.8791
  383MOL0     H51692  10.527   2.555   1.889  1.8009 -0.1281  2.0091
  383MOL0     H51693  10.176   2.828   1.916 -1.2250  2.0125 -0.5752
  383MOL0     H51694   9.951   2.856   1.964  1.3171  1.1618 -2.1608
  383MOL0     H51695   9.688   2.806   1.813  3.5909  0.0054  0.0071
  383MOL0     H51696   9.743   2.689   1.709 -0.8865 -0.7425  0.5016
  383MOL0     H51697   9.465   2.713   1.762  1.8844  2.2851  1.1363
  383MOL0     H51698   9.515   2.651   1.911 -0.9765  3.2652 -0.3573
  383MOL0     H51699   9.623   2.453   1.778 -1.6005 -1.1852  1.1552
  383MOL0     H51700   9.519   2.508   1.639  1.0693  3.0399 -1.1824
  383MOL0     H51701   9.322   2.462   1.765 -2.0924 -0.5366  2.8650
  383MOL0     H51702   9.408   2.453   1.917  3.3257  2.1251  0.1334
  383MOL0     H51703   9.420   2.056   1.782 -1.6406  0.2785 -2.2096
  383MOL0     H51704   9.867   2.469   1.770  0.9725 -2.6477  3.7697
  383MOL0     H51705  10.100   2.457   1.699 -3.1669 -2.4465  0.9751
  384MOL0     O51706   5.992   9.038   2.450  0.0260 -0.4569  0.5377
  384MOL0     C51707   6.064   8.967   2.382  0.4941 -0.0835  0.0249
  384MOL0     O51708   6.203   8.969   2.370  0.0215 -0.9902  0.1775
  384MOL0     C51709   6.280   9.059   2.440 -0.5783  0.5849  0.2063
  384MOL0     C51710   6.393   9.112   2.381  0.4362 -0.9235 -0.0546
  384MOL0     C51711   6.477   9.206   2.439 -0.4279 -0.1869  0.1879
  384MOL0     C51712   6.447   9.269   2.558  0.6941 -0.5333  0.1212
  384MOL0     O51713   6.519   9.377   2.616 -0.8904 -0.1852  0.0750
  384MOL0     C51714   6.454   9.498   2.646 -1.1890  0.5161 -0.0722
  384MOL0     C51715   6.383   9.575   2.528  0.2093 -0.4097  0.0675
  384MOL0     C51716   6.265   9.509   2.451 -0.2643  0.6664 -0.5622
  384MOL0     C51717   6.133   9.527   2.517  0.4759 -0.3383  0.6252
  384MOL0     C51718   6.020   9.421   2.471 -0.1816  0.2042 -0.2045
  384MOL0     C51719   6.017   9.400   2.319  0.1137 -0.3247  0.2849
  384MOL0     C51720   5.894   9.324   2.274 -0.2108 -0.1603 -0.2561
  384MOL0     C51721   5.870   9.350   2.126 -0.4370 -0.6622 -0.1696
  384MOL0     N51722   5.758   9.270   2.076 -0.2464  0.5249 -0.1859
  384MOL0     C51723   5.624   9.293   2.098  0.2612 -0.7715  0.2359
  384MOL0     C51724   5.556   9.178   2.067 -0.6129  1.0790 -0.6323
  384MOL0     C51725   5.412   9.146   2.072 -0.1112  0.0226  0.2000
  384MOL0     C51726   5.341   9.176   1.932 -0.5611  0.8808  0.0705
  384MOL0     C51727   5.390   9.067   1.837  1.3448 -0.5689 -0.8861
  384MOL0     C51728   5.324   9.064   1.702 -0.1099  0.0216  0.0947
  384MOL0     O51729   5.403   8.980   1.618 -0.4641 -0.3174  0.1394
  384MOL0     C51730   5.426   9.033   1.495  0.3110 -0.6332 -0.2628
  384MOL0     C51731   5.316   9.054   1.396 -0.4613 -0.5766 -0.5103
  384MOL0     C51732   5.337   9.133   1.278 -0.1809 -0.4069 -0.3250
  384MOL0     C51733   5.217   9.157   1.181 -0.3847  0.2796  0.5480
  384MOL0     C51734   5.479   9.166   1.244 -0.3173 -0.1523 -0.6348
  384MOL0     C51735   5.511   9.235   1.115  0.3580  0.8953  0.2526
  384MOL0     O51736   5.424   9.228   1.008  1.0003  0.1196 -0.2050
  384MOL0     C51737   5.404   9.330   0.918 -0.7758 -0.1627  0.6513
  384MOL0     C51738   5.338   9.296   0.804  0.3129  0.7388 -0.8117
  384MOL0     C51739   5.318   9.389   0.698  0.9341  0.7366 -0.9148
  384MOL0     C51740   5.364   9.520   0.716 -0.4060  0.0076 -0.7573
  384MOL0     O51741   5.349   9.597   0.601  0.2831 -0.0388 -1.0196
  384MOL0     C51742   5.444   9.704   0.582  0.1020 -0.9356  0.7728
  384MOL0     C51743   5.422   9.750   0.431 -0.0092 -0.7089 -0.1287
  384MOL0     C51744   5.271   9.804   0.423  0.5255 -0.2938  0.4033
  384MOL0     C51745   5.245   9.867   0.285  0.1134  0.0140  0.3156
  384MOL0     C51746   5.106   9.937   0.286 -0.2450  0.4100  0.0660
  384MOL0     C51747   5.059   9.996   0.148 -0.0445 -0.3452 -0.2123
  384MOL0     C51748   4.922  10.060   0.148  0.0753  0.9122  0.0353
  384MOL0     C51749   4.878  10.087  -0.001  0.1157 -0.0411 -0.1155
  384MOL0    Cl51750   4.709  10.167   0.038  0.2164  0.2102  0.1346
  384MOL0     C51751   5.415   9.563   0.846 -0.8787  0.0824 -0.8458
  384MOL0     C51752   5.444   9.462   0.941 -0.1401 -0.7886 -0.5626
  384MOL0     O51753   5.623   9.282   1.112  0.1362  0.1548 -0.0740
  384MOL0     C51754   5.585   9.138   1.340 -0.1491  0.1110  0.1329
  384MOL0     C51755   5.555   9.077   1.465 -0.0255 -0.7393 -0.5358
  384MOL0     N51756   5.658   9.077   2.035 -0.4747  0.0340 -0.1310
  384MOL0     N51757   5.770   9.139   2.038 -0.5969 -0.4448  0.4235
  384MOL0     C51758   6.331   9.211   2.626 -0.5134  0.2260  0.6428
  384MOL0     C51759   6.254   9.110   2.563  0.6620  0.5708  0.6977
  384MOL0     C51760   5.994   8.854   2.314 -0.2927 -0.2459  0.5022
  384MOL0     C51761   6.059   8.731   2.285 -0.4516 -0.4832 -0.3256
  384MOL0     C51762   5.986   8.625   2.231  0.0764 -0.1837 -1.6812
  384MOL0     C51763   5.852   8.644   2.195  0.0872  0.4128 -0.5786
  384MOL0     O51764   5.775   8.560   2.118  0.2877  0.0838 -0.0702
  384MOL0     C51765   5.847   8.478   2.033  0.4078 -0.1845  0.4301
  384MOL0     C51766   5.751   8.391   1.954 -0.8574  0.4562  0.1510
  384MOL0     C51767   5.662   8.468   1.853 -0.6574  0.9872 -0.2746
  384MOL0     C51768   5.585   8.382   1.754  0.5408  0.5672 -0.7153
  384MOL0     C51769   5.478   8.294   1.805 -0.4081 -0.4617  0.0862
  384MOL0     C51770   5.425   8.202   1.862  0.0343 -1.0464 -1.0274
  384MOL0     C51771   5.781   8.753   2.229  0.1820 -0.1749  0.2892
  384MOL0     C51772   5.849   8.857   2.299  1.3759 -0.0978  0.9354
  384MOL0     H51773   6.425   9.064   2.290  2.6476  0.8705 -0.2992
  384MOL0     H51774   6.572   9.236   2.396 -0.2175 -0.3578  0.5362
  384MOL0     H51775   6.374   9.468   2.714 -0.1387 -1.0906  0.5118
  384MOL0     H51776   6.516   9.570   2.700  0.0792 -0.4348 -0.2221
  384MOL0     H51777   6.342   9.663   2.577  0.0459  0.5176 -1.6410
  384MOL0     H51778   6.462   9.604   2.457  0.2733 -3.6009 -1.3421
  384MOL0     H51779   6.272   9.573   2.362  3.6563  2.0311  0.4974
  384MOL0     H51780   6.283   9.404   2.426  0.0906  0.8174 -0.9606
  384MOL0     H51781   6.139   9.524   2.627  0.8849 -1.9858  0.5886
  384MOL0     H51782   6.080   9.621   2.502  2.2748  0.7326  0.7806
  384MOL0     H51783   6.046   9.323   2.513 -1.0461  0.4360  0.9013
  384MOL0     H51784   5.929   9.451   2.522 -0.2720  0.2521 -0.3922
  384MOL0     H51785   6.019   9.506   2.292  1.6620 -0.2548  0.5883
  384MOL0     H51786   6.111   9.355   2.287  0.1966 -0.0037  0.0733
  384MOL0     H51787   5.915   9.217   2.273 -1.5468 -0.6370 -5.1203
  384MOL0     H51788   5.806   9.358   2.330 -1.1955 -2.7045 -0.1055
  384MOL0     H51789   5.954   9.305   2.072  1.1480  1.1017  0.7072
  384MOL0     H51790   5.877   9.458   2.114  0.5993 -0.7869 -0.7607
  384MOL0     H51791   5.573   9.387   2.116 -0.3888 -1.2049  0.6819
  384MOL0     H51792   5.389   9.044   2.103 -2.4838  0.6005  0.5945
  384MOL0     H51793   5.359   9.202   2.150  0.5751 -1.3068  1.6616
  384MOL0     H51794   5.357   9.279   1.903 -2.5769  1.3696  0.5069
  384MOL0     H51795   5.238   9.161   1.967 -1.3141 -2.1556 -2.8799
  384MOL0     H51796   5.382   8.966   1.879  1.9764 -1.4580 -2.7938
  384MOL0     H51797   5.496   9.080   1.811  0.5996 -0.5646 -4.3295
  384MOL0     H51798   5.338   9.170   1.678  0.7610  1.3671  5.2536
  384MOL0     H51799   5.220   9.031   1.709  0.4830 -2.1185 -0.5839
  384MOL0     H51800   5.215   9.016   1.408 -0.2163 -0.8734  0.6822
  384MOL0     H51801   5.215   9.263   1.156 -0.5495  0.3677  0.9303
  384MOL0     H51802   5.242   9.095   1.094  2.6478 -1.0663  2.2121
  384MOL0     H51803   5.124   9.133   1.232 -0.5352  1.6997  0.9871
  384MOL0     H51804   5.307   9.192   0.797 -1.6421  1.2325 -0.2661
  384MOL0     H51805   5.277   9.346   0.607 -2.4540 -0.2968  0.9561
  384MOL0     H51806   5.433   9.786   0.654  1.2613  1.2450 -1.3619
  384MOL0     H51807   5.546   9.672   0.602  1.7304  2.5308 -1.0301
  384MOL0     H51808   5.480   9.838   0.403 -0.3003 -0.9797 -1.7048
  384MOL0     H51809   5.437   9.673   0.355  0.0003 -1.1567  0.3208
  384MOL0     H51810   5.270   9.881   0.501  4.5747 -0.8908  1.2923
  384MOL0     H51811   5.204   9.722   0.451  0.6970 -0.9544 -1.0525
  384MOL0     H51812   5.318   9.946   0.268 -1.6691  1.8725  0.8718
  384MOL0     H51813   5.252   9.797   0.201  0.3828  0.7719 -0.3099
  384MOL0     H51814   5.103  10.002   0.374  1.0643 -0.0814  0.5027
  384MOL0     H51815   5.040   9.856   0.317  2.3094 -0.9773  2.3578
  384MOL0     H51816   5.133  10.064   0.103 -1.5870  1.4129 -0.2142
  384MOL0     H51817   5.066   9.914   0.076 -0.4996  1.2170 -2.1216
  384MOL0     H51818   4.922  10.158   0.196  4.3923  1.1253 -0.0063
  384MOL0     H51819   4.856   9.992   0.202 -0.0235  1.0372  0.0739
  384MOL0     H51820   4.865   9.997  -0.063  0.3406  0.6963 -1.2717
  384MOL0     H51821   4.954  10.152  -0.045  0.5995  0.5134  1.4756
  384MOL0     H51822   5.453   9.663   0.864 -0.0660  0.2682 -3.2594
  384MOL0     H51823   5.483   9.504   1.033 -3.9058  0.2609  0.7555
  384MOL0     H51824   5.690   9.159   1.322 -0.1640 -1.5206 -2.4672
  384MOL0     H51825   5.637   9.052   1.531 -2.1842 -0.6395  2.3936
  384MOL0     H51826   6.295   9.250   2.720  1.5973  0.2751  1.4980
  384MOL0     H51827   6.170   9.072   2.620 -1.0066 -0.0056 -1.9243
  384MOL0     H51828   6.164   8.708   2.303 -0.2916  1.1122  0.9380
  384MOL0     H51829   6.049   8.545   2.196  1.7055  1.4130 -2.5665
  384MOL0     H51830   5.902   8.538   1.960 -0.6174 -0.0933 -0.2874
  384MOL0     H51831   5.922   8.422   2.089 -0.0491  1.5236  2.8921
  384MOL0     H51832   5.696   8.330   2.027 -1.4288  1.8855  0.9705
  384MOL0     H51833   5.815   8.324   1.896  1.2348  1.8235  0.7488
  384MOL0     H51834   5.737   8.514   1.788  4.6523 -4.3991  1.1445
  384MOL0     H51835   5.596   8.538   1.905  0.6620  3.1704 -1.3641
  384MOL0     H51836   5.659   8.320   1.703 -0.2227  0.6302 -1.9374
  384MOL0     H51837   5.542   8.448   1.678 -1.1925 -2.2454 -2.3337
  384MOL0     H51838   5.382   8.114   1.905 -1.5552  0.7412  1.3026
  384MOL0     H51839   5.675   8.764   2.206 -0.1210 -2.3003  0.5023
  384MOL0     H51840   5.787   8.945   2.311 -1.0246 -1.0596 -2.5910
  385MOL0     O51841   2.733   6.526   9.534 -0.0579 -0.7262 -0.0030
  385MOL0     C51842   2.735   6.633   9.471  0.0244 -0.4207  0.5482
  385MOL0     O51843   2.855   6.691   9.428  0.0107  0.5446 -0.6709
  385MOL0     C51844   2.972   6.670   9.496 -0.1554  0.6399  0.5368
  385MOL0     C51845   3.019   6.542   9.484 -0.7532 -0.5388 -0.2870
  385MOL0     C51846   3.126   6.491   9.562  0.6029  1.1916  0.4274
  385MOL0     C51847   3.197   6.597   9.642  0.4971  0.7593 -0.4304
  385MOL0     O51848   3.283   6.556   9.744 -0.0646  0.0373  0.4972
  385MOL0     C51849   3.356   6.435   9.733 -0.7755 -0.0364  0.2155
  385MOL0     C51850   3.430   6.416   9.869 -0.5180 -0.5519  0.4472
  385MOL0     C51851   3.568   6.484   9.848  0.4386 -0.7748 -0.5320
  385MOL0     C51852   3.649   6.488   9.985  0.1255 -0.2677 -0.6057
  385MOL0     C51853   3.754   6.597   9.981  0.3160  0.4749 -0.0365
  385MOL0     C51854   3.797   6.636  10.123  0.1110 -0.3026  0.7819
  385MOL0     C51855   3.862   6.777  10.133  0.9759 -0.6472 -0.0690
  385MOL0     C51856   3.777   6.896  10.100  0.2937  0.8531  0.8186
  385MOL0     N51857   3.851   7.015  10.147  0.0688 -1.2678 -0.4515
  385MOL0     C51858   3.818   7.094  10.259  0.8978  1.1692  0.2437
  385MOL0     C51859   3.909   7.195  10.261  0.4263  1.2463  0.6136
  385MOL0     C51860   3.913   7.306  10.363  0.5216 -0.2926 -0.4364
  385MOL0     C51861   3.906   7.439  10.287 -0.2667 -0.0353 -1.0927
  385MOL0     C51862   3.768   7.465  10.229 -0.2125 -0.3905 -0.8876
  385MOL0     C51863   3.680   7.541  10.336 -0.1274 -0.3451 -0.7092
  385MOL0     O51864   3.742   7.657  10.396  0.5203 -0.6889  0.1954
  385MOL0     C51865   3.704   7.706  10.519 -0.1745 -0.5378  1.0104
  385MOL0     C51866   3.799   7.781  10.589 -0.7209  0.4294  0.5403
  385MOL0     C51867   3.762   7.835  10.715  0.1554  0.5412  0.1532
  385MOL0     C51868   3.858   7.930  10.769  0.2003  0.0400 -1.0375
  385MOL0     C51869   3.629   7.816  10.766 -0.3648  0.2606  0.0561
  385MOL0     C51870   3.565   7.883  10.892  0.3861  0.0419 -0.0428
  385MOL0     O51871   3.434   7.899  10.883 -0.0156  0.3172  0.8542
  385MOL0     C51872   3.347   7.907  10.988  0.2576  0.5146  0.2954
  385MOL0     C51873   3.208   7.934  10.968  0.8399  0.3677 -0.4761
  385MOL0     C51874   3.122   7.942  11.075  0.0759  0.0781 -0.0261
  385MOL0     C51875   3.165   7.916  11.202 -0.2562 -1.1674  0.1045
  385MOL0     O51876   3.067   7.938  11.299 -0.7138 -0.0280  0.1286
  385MOL0     C51877   3.105   7.971  11.437 -0.3110 -0.1009 -0.9426
  385MOL0     C51878   2.998   8.028  11.515  0.2873  0.3811 -0.5199
  385MOL0     C51879   3.030   8.038  11.668  0.3423 -0.2121  0.6143
  385MOL0     C51880   3.143   8.136  11.696  0.4111  0.1164  1.0180
  385MOL0     C51881   3.173   8.145  11.850  0.3567  0.3204  0.4658
  385MOL0     C51882   3.247   8.268  11.888 -0.1144 -0.0768  0.1929
  385MOL0     C51883   3.263   8.288  12.042 -0.5220 -0.6919  0.5358
  385MOL0     C51884   3.324   8.419  12.074  0.0786  0.2018 -0.7248
  385MOL0    Cl51885   3.348   8.416  12.242  0.1765  0.3073 -1.1501
  385MOL0     C51886   3.296   7.883  11.224 -0.6536  0.0125 -0.3766
  385MOL0     C51887   3.386   7.883  11.122 -0.1707 -0.0401 -0.9557
  385MOL0     O51888   3.632   7.919  10.984  0.0259  0.2655  0.4538
  385MOL0     C51889   3.534   7.737  10.694 -0.1694  0.8472  0.8809
  385MOL0     C51890   3.577   7.677  10.572 -0.1355 -0.1658 -0.4462
  385MOL0     N51891   3.988   7.172  10.150  0.3833  0.1211 -0.4797
  385MOL0     N51892   3.956   7.068  10.080 -0.3365 -0.1985  0.1975
  385MOL0     C51893   3.155   6.729   9.641  0.1143 -0.0013  1.0357
  385MOL0     C51894   3.038   6.763   9.574 -0.3783  0.0776  0.8624
  385MOL0     C51895   2.612   6.700   9.433 -0.4004 -0.0441 -0.2066
  385MOL0     C51896   2.496   6.625   9.438  0.3537  0.7432 -0.9415
  385MOL0     C51897   2.377   6.682   9.398 -0.2197 -0.0863  1.1207
  385MOL0     C51898   2.379   6.814   9.340 -0.0972  0.1230 -0.4003
  385MOL0     O51899   2.259   6.867   9.298  0.4768 -0.2486 -0.3372
  385MOL0     C51900   2.248   7.000   9.243 -0.0881 -0.5658 -0.5338
  385MOL0     C51901   2.245   6.985   9.093 -0.4704  0.9380  0.2626
  385MOL0     C51902   2.292   7.101   9.012 -0.7575 -0.1584  0.2307
  385MOL0     C51903   2.360   7.219   9.082 -0.2509  0.7430 -0.9545
  385MOL0     C51904   2.413   7.311   8.983  0.4758  0.2948  0.2329
  385MOL0     C51905   2.457   7.387   8.891 -0.7910  0.0446  0.5001
  385MOL0     C51906   2.505   6.881   9.323 -0.8943  0.2251  0.0717
  385MOL0     C51907   2.619   6.824   9.372  0.1573 -0.6321  0.1437
  385MOL0     H51908   2.961   6.465   9.432 -0.9019 -0.7361  0.1667
  385MOL0     H51909   3.156   6.387   9.555  0.9909  1.4387 -3.2638
  385MOL0     H51910   3.284   6.356   9.707  0.7802 -1.0651 -1.1801
  385MOL0     H51911   3.435   6.446   9.659  0.9401 -1.0742  1.7842
  385MOL0     H51912   3.379   6.450   9.960  0.8299  2.0595  0.3422
  385MOL0     H51913   3.452   6.310   9.880  1.0638 -0.2185  0.8266
  385MOL0     H51914   3.633   6.415   9.792  2.2833 -0.2709  0.8761
  385MOL0     H51915   3.562   6.583   9.803 -0.6031 -0.8938 -0.6622
  385MOL0     H51916   3.588   6.529  10.066 -1.3997 -1.2400 -1.2139
  385MOL0     H51917   3.692   6.395  10.024 -0.1637  0.1636  0.7988
  385MOL0     H51918   3.840   6.570   9.918 -0.0641 -2.3288  0.5159
  385MOL0     H51919   3.714   6.683   9.927  1.6855  2.9447  2.6567
  385MOL0     H51920   3.711   6.643  10.191 -1.4580 -1.1866 -1.0138
  385MOL0     H51921   3.857   6.559  10.171 -0.9360 -1.2086  0.6637
  385MOL0     H51922   3.892   6.781  10.238 -2.3192 -1.2639  0.9930
  385MOL0     H51923   3.931   6.778  10.048 -2.9623  0.1247 -3.5823
  385MOL0     H51924   3.677   6.889  10.144  0.6103  0.1382  1.4600
  385MOL0     H51925   3.771   6.892   9.991  1.6036 -1.3930  0.7718
  385MOL0     H51926   3.736   7.073  10.328  2.5652 -1.1778  1.6789
  385MOL0     H51927   3.820   7.301  10.419 -0.7552  2.8710 -2.0444
  385MOL0     H51928   4.007   7.292  10.417  1.4078 -1.1681 -2.1249
  385MOL0     H51929   3.980   7.443  10.207 -0.8363 -2.4653 -1.8121
  385MOL0     H51930   3.926   7.524  10.354  1.9808 -0.2586 -1.3876
  385MOL0     H51931   3.717   7.375  10.193 -0.6297 -0.6782  0.3690
  385MOL0     H51932   3.783   7.540  10.151  3.3194  1.1764  1.0330
  385MOL0     H51933   3.656   7.473  10.418 -0.3421 -0.5031 -0.9045
  385MOL0     H51934   3.588   7.582  10.294 -2.0732 -0.0810  3.3632
  385MOL0     H51935   3.903   7.793  10.559 -0.6326  0.5874  0.9008
  385MOL0     H51936   3.859   7.923  10.878  0.3807 -0.7479 -1.0879
  385MOL0     H51937   3.960   7.923  10.731  0.9805 -0.4251  1.0329
  385MOL0     H51938   3.829   8.033  10.747  3.2740  0.9637 -1.2296
  385MOL0     H51939   3.168   7.927  10.867 -0.6452 -0.3875  0.1488
  385MOL0     H51940   3.019   7.965  11.047  0.7060 -0.8259 -3.5970
  385MOL0     H51941   3.148   7.882  11.483 -0.6033 -0.1080 -0.6799
  385MOL0     H51942   3.187   8.044  11.431 -0.8813  0.5747 -0.7394
  385MOL0     H51943   2.979   8.127  11.474 -0.4198 -0.2065 -1.6684
  385MOL0     H51944   2.907   7.967  11.509 -0.4518  1.5378 -1.3133
  385MOL0     H51945   3.069   7.941  11.701 -3.5399 -1.4622  2.0145
  385MOL0     H51946   2.935   8.051  11.720  0.3342 -1.0990  0.8225
  385MOL0     H51947   3.227   8.110  11.631 -1.9931  0.7452 -2.6815
  385MOL0     H51948   3.111   8.233  11.657  0.9789 -1.0903 -2.9154
  385MOL0     H51949   3.231   8.066  11.896  0.0534  0.0755  0.4293
  385MOL0     H51950   3.079   8.136  11.905  0.0075 -0.4265 -0.2244
  385MOL0     H51951   3.343   8.289  11.839  0.2480  3.5720  2.1090
  385MOL0     H51952   3.194   8.354  11.847  0.9704  0.1889 -0.6993
  385MOL0     H51953   3.336   8.214  12.077  1.1365 -0.0247 -1.3114
  385MOL0     H51954   3.163   8.277  12.085 -1.9362  2.8310 -1.3833
  385MOL0     H51955   3.246   8.489  12.042 -2.2097 -1.6159  0.5621
  385MOL0     H51956   3.415   8.441  12.017  0.3236 -1.8811 -1.1972
  385MOL0     H51957   3.333   7.864  11.324 -3.1420 -0.7119  0.4750
  385MOL0     H51958   3.488   7.854  11.144 -1.1530 -4.0855 -0.8925
  385MOL0     H51959   3.435   7.713  10.731  0.0196  0.6274  1.2503
  385MOL0     H51960   3.504   7.610  10.527 -1.9048  1.4591 -0.1141
  385MOL0     H51961   3.197   6.799   9.711  1.3640  0.0842  0.2295
  385MOL0     H51962   2.993   6.861   9.575  0.0037  0.2663  0.3344
  385MOL0     H51963   2.502   6.527   9.485 -1.1306  2.1676  2.5428
  385MOL0     H51964   2.282   6.630   9.391 -0.9461  1.3614 -2.7195
  385MOL0     H51965   2.174   7.064   9.290 -1.3641 -0.7224 -2.2260
  385MOL0     H51966   2.337   7.061   9.261 -2.1837  2.6523 -0.4149
  385MOL0     H51967   2.140   6.964   9.072 -0.4144  0.9666 -0.0499
  385MOL0     H51968   2.305   6.900   9.059 -0.7175  1.4736 -1.6382
  385MOL0     H51969   2.212   7.145   8.952 -1.8561  0.9553  2.3754
  385MOL0     H51970   2.366   7.058   8.944  1.6793 -1.7995  3.5992
  385MOL0     H51971   2.440   7.183   9.147 -0.6608  0.1958 -0.7391
  385MOL0     H51972   2.286   7.268   9.145 -0.7683  0.0254 -0.9851
  385MOL0     H51973   2.479   7.449   8.806  1.3683  1.0929  1.7441
  385MOL0     H51974   2.521   6.975   9.272 -1.4429  0.8131  0.9551
  385MOL0     H51975   2.715   6.871   9.354  0.9019 -2.6182 -1.4070
  386MOL0     O51976   3.601   0.386   0.097 -0.3903  0.1680 -0.5800
  386MOL0     C51977   3.658   0.388   0.207 -0.4503 -0.2828 -0.7290
  386MOL0     O51978   3.727   0.500   0.247 -0.3660  0.2129 -0.4681
  386MOL0     C51979   3.716   0.618   0.177  0.0306  0.5608  0.2681
  386MOL0     C51980   3.839   0.688   0.145  0.4290  0.5973 -0.3855
  386MOL0     C51981   3.828   0.818   0.096 -0.4843 -0.3131 -0.0817
  386MOL0     C51982   3.709   0.884   0.066  0.8454 -0.4646 -0.0273
  386MOL0     O51983   3.693   1.001  -0.000 -0.1784  0.0269 -1.2502
  386MOL0     C51984   3.812   1.060  -0.053 -0.6911  0.3319 -0.6028
  386MOL0     C51985   3.768   1.183  -0.134  0.2264 -0.2378 -0.2756
  386MOL0     C51986   3.686   1.144  -0.268 -0.2587 -0.9967 -0.7359
  386MOL0     C51987   3.778   1.128  -0.384  0.8915  0.4620 -0.6325
  386MOL0     C51988   3.695   1.067  -0.503  0.0844  0.0061 -0.2470
  386MOL0     C51989   3.790   1.080  -0.623  0.0759  1.3613  0.3412
  386MOL0     C51990   3.751   1.028  -0.768 -0.4732 -0.1785 -0.4519
  386MOL0     C51991   3.730   0.872  -0.777  0.1407 -0.5930  0.6403
  386MOL0     N51992   3.587   0.826  -0.804 -0.2158  0.2243 -0.7485
  386MOL0     C51993   3.489   0.803  -0.708 -0.4193 -0.8124  0.0001
  386MOL0     C51994   3.408   0.710  -0.767 -0.8387 -1.2196 -0.4862
  386MOL0     C51995   3.295   0.629  -0.707 -0.9965  0.1464 -0.3563
  386MOL0     C51996   3.353   0.480  -0.697 -0.8809  0.1857  0.1599
  386MOL0     C51997   3.236   0.391  -0.668  0.2088 -0.2096  0.0425
  386MOL0     C51998   3.132   0.420  -0.554  0.6563  0.8056  1.1031
  386MOL0     O51999   2.999   0.367  -0.587 -0.5308  0.4830  0.2153
  386MOL0     C52000   2.970   0.254  -0.517 -0.1268  0.2409 -0.6260
  386MOL0     C52001   2.842   0.248  -0.450  0.1076  1.3090  0.1285
  386MOL0     C52002   2.797   0.134  -0.376  0.7385  0.0039  0.2602
  386MOL0     C52003   2.650   0.137  -0.332 -0.8579  0.2971  0.2742
  386MOL0     C52004   2.890   0.029  -0.359  0.2324  0.0524  0.0491
  386MOL0     C52005   2.858  -0.088  -0.270 -0.0794 -0.4756  0.4478
  386MOL0     O52006   2.912  -0.204  -0.315 -0.2256  1.0530  0.0348
  386MOL0     C52007   2.913  -0.324  -0.250  0.5429 -0.7776 -0.9236
  386MOL0     C52008   2.864  -0.361  -0.121  0.0537 -0.3154  1.1142
  386MOL0     C52009   2.870  -0.492  -0.082  0.3583 -0.0211  1.0250
  386MOL0     C52010   2.919  -0.597  -0.166 -0.0675  0.9745  0.0813
  386MOL0     O52011   2.895  -0.723  -0.112 -0.2761 -0.2478 -0.4367
  386MOL0     C52012   2.946  -0.841  -0.177  0.2530  0.9365 -0.6369
  386MOL0     C52013   2.852  -0.886  -0.285 -0.3684  0.0675  0.2984
  386MOL0     C52014   2.727  -0.969  -0.262  0.3495 -0.6853  0.2433
  386MOL0     C52015   2.759  -1.118  -0.266 -0.8145  0.7479  0.4674
  386MOL0     C52016   2.747  -1.170  -0.415  0.3029  0.0941  0.0422
  386MOL0     C52017   2.832  -1.290  -0.448 -0.1529  0.5319 -0.0520
  386MOL0     C52018   2.805  -1.416  -0.352  0.1565  0.2392 -0.1714
  386MOL0     C52019   2.854  -1.548  -0.416  0.5037  0.5071  0.4891
  386MOL0    Cl52020   3.020  -1.546  -0.464 -0.1871 -0.3357 -0.2876
  386MOL0     C52021   2.979  -0.557  -0.281  0.5259  0.3908  0.2921
  386MOL0     C52022   2.962  -0.423  -0.325  0.2572  0.4050 -0.6369
  386MOL0     O52023   2.808  -0.071  -0.155 -0.5176  0.0125  0.1601
  386MOL0     C52024   3.014   0.040  -0.412 -0.0112 -0.4363 -0.2186
  386MOL0     C52025   3.061   0.146  -0.491 -0.1720 -0.0106  0.6769
  386MOL0     N52026   3.451   0.689  -0.895 -1.0077 -0.3429  0.1792
  386MOL0     N52027   3.558   0.761  -0.915  0.6423  0.0564  0.5853
  386MOL0     C52028   3.587   0.811   0.090  0.2028  0.0266 -0.5834
  386MOL0     C52029   3.594   0.680   0.157  0.9286 -0.2632 -0.0258
  386MOL0     C52030   3.653   0.284   0.306 -0.9515 -0.0929  0.4050
  386MOL0     C52031   3.598   0.157   0.272  0.6641 -1.0478 -0.5029
  386MOL0     C52032   3.597   0.046   0.359  0.2343 -0.5109  0.1996
  386MOL0     C52033   3.648   0.069   0.489 -0.4118  0.7819 -0.0769
  386MOL0     O52034   3.646  -0.027   0.589  0.2675  0.8024 -0.4725
  386MOL0     C52035   3.561  -0.149   0.592  0.5756  0.0410  0.6572
  386MOL0     C52036   3.418  -0.100   0.624 -0.3167  0.1486  0.3034
  386MOL0     C52037   3.404   0.014   0.721 -0.2549 -0.1784 -0.3556
  386MOL0     C52038   3.269   0.037   0.785 -0.0798 -0.3401 -0.2553
  386MOL0     C52039   3.163   0.068   0.684 -0.5007 -0.1240  0.0754
  386MOL0     C52040   3.075   0.081   0.603  0.1873 -0.1769 -0.4077
  386MOL0     C52041   3.701   0.187   0.525 -0.4019 -0.0563  0.1460
  386MOL0     C52042   3.692   0.300   0.440  0.0491 -0.0695  0.1912
  386MOL0     H52043   3.930   0.632   0.162 -0.1451 -0.8483 -1.8636
  386MOL0     H52044   3.920   0.872   0.073 -0.7421  0.2870  0.2725
  386MOL0     H52045   3.884   1.088   0.024  0.1656 -2.2656 -0.3398
  386MOL0     H52046   3.857   0.984  -0.118  1.3085  1.0903 -0.2018
  386MOL0     H52047   3.701   1.240  -0.069 -1.8913 -1.2769 -1.4230
  386MOL0     H52048   3.841   1.257  -0.167 -0.0706 -1.3171 -3.6786
  386MOL0     H52049   3.628   1.053  -0.248  1.1742 -1.5769  1.1743
  386MOL0     H52050   3.616   1.221  -0.300  1.7539 -0.1744 -3.5083
  386MOL0     H52051   3.814   1.228  -0.412  0.8573  0.8856  0.7330
  386MOL0     H52052   3.868   1.071  -0.358  0.8292  0.8810  0.5769
  386MOL0     H52053   3.679   0.964  -0.472  4.2207 -0.2784  1.6179
  386MOL0     H52054   3.607   1.127  -0.527  0.0580  0.7285  1.5193
  386MOL0     H52055   3.807   1.187  -0.632  0.3596  1.3474  0.6912
  386MOL0     H52056   3.887   1.034  -0.602 -1.0071 -1.4673 -0.3589
  386MOL0     H52057   3.664   1.089  -0.796  1.5286  4.1014  1.5881
  386MOL0     H52058   3.831   1.043  -0.841 -1.4996 -2.3844 -2.1638
  386MOL0     H52059   3.752   0.827  -0.680 -0.6121 -1.2523  0.5164
  386MOL0     H52060   3.791   0.830  -0.857  2.3409  3.9309 -0.4217
  386MOL0     H52061   3.487   0.838  -0.606 -0.2530  2.6390 -1.0331
  386MOL0     H52062   3.272   0.657  -0.604 -1.0575 -3.0367  0.5908
  386MOL0     H52063   3.205   0.635  -0.770 -1.8366  1.3898  0.8740
  386MOL0     H52064   3.431   0.465  -0.622  0.4121 -1.4351 -1.4276
  386MOL0     H52065   3.398   0.456  -0.794  0.1724  0.6651  0.5182
  386MOL0     H52066   3.279   0.291  -0.654  0.8945  0.0433 -0.2413
  386MOL0     H52067   3.191   0.399  -0.767 -1.3147  4.5940  0.8473
  386MOL0     H52068   3.120   0.528  -0.541 -1.6672  1.6548 -4.8782
  386MOL0     H52069   3.167   0.372  -0.462  2.0286  0.1138  0.2512
  386MOL0     H52070   2.777   0.335  -0.464  2.2891  2.9761 -0.1727
  386MOL0     H52071   2.610   0.039  -0.304 -1.4983  0.9016  1.5340
  386MOL0     H52072   2.647   0.193  -0.238 -2.7210 -0.2193  0.5721
  386MOL0     H52073   2.584   0.175  -0.411 -1.2092 -0.2152  0.3134
  386MOL0     H52074   2.834  -0.293  -0.042 -1.2431 -2.9951  3.0742
  386MOL0     H52075   2.831  -0.530   0.012 -0.3394 -2.7153 -0.2503
  386MOL0     H52076   3.052  -0.843  -0.207  0.7730 -0.8266  1.0534
  386MOL0     H52077   2.951  -0.920  -0.101  2.8541  1.5911 -0.0223
  386MOL0     H52078   2.810  -0.798  -0.336 -1.5301 -1.2105 -1.0478
  386MOL0     H52079   2.901  -0.937  -0.368 -0.4405  0.7339 -0.1636
  386MOL0     H52080   2.640  -0.938  -0.319 -0.8603 -0.3218  2.2134
  386MOL0     H52081   2.692  -0.945  -0.161  1.2697  1.9264  0.0054
  386MOL0     H52082   2.858  -1.130  -0.221 -1.1352  2.0620  1.5879
  386MOL0     H52083   2.684  -1.175  -0.210  0.4281 -2.3448 -0.7865
  386MOL0     H52084   2.778  -1.091  -0.485  1.2970 -0.9501 -0.7326
  386MOL0     H52085   2.644  -1.201  -0.432  0.5019 -1.2717  1.1767
  386MOL0     H52086   2.814  -1.323  -0.551 -1.4813 -1.9444  0.8654
  386MOL0     H52087   2.937  -1.262  -0.434 -0.4426  1.2948  0.6960
  386MOL0     H52088   2.706  -1.433  -0.308  1.3250 -0.2575  2.4656
  386MOL0     H52089   2.860  -1.402  -0.259  1.1949 -0.9461 -0.5700
  386MOL0     H52090   2.788  -1.560  -0.503 -0.9062  3.1494  1.0836
  386MOL0     H52091   2.843  -1.630  -0.345  4.8890 -1.4793 -0.7289
  386MOL0     H52092   3.019  -0.626  -0.353  0.1362  0.8436 -0.3738
  386MOL0     H52093   2.995  -0.393  -0.424  1.7474 -1.1363 -0.6618
  386MOL0     H52094   3.084  -0.043  -0.403 -0.0862 -0.9838 -3.4969
  386MOL0     H52095   3.167   0.149  -0.513 -0.0060 -1.0807  1.2774
  386MOL0     H52096   3.495   0.864   0.069 -0.6119 -0.0737  2.2452
  386MOL0     H52097   3.498   0.632   0.170 -0.2767  1.9449 -0.1254
  386MOL0     H52098   3.559   0.136   0.173 -0.0267 -2.0996 -0.0317
  386MOL0     H52099   3.576  -0.059   0.342  3.3235 -0.7180 -3.9478
  386MOL0     H52100   3.564  -0.204   0.497 -1.0908  0.2444  0.4444
  386MOL0     H52101   3.590  -0.226   0.664 -0.9806 -1.1165  0.1075
  386MOL0     H52102   3.360  -0.182   0.667  1.9320  0.1153  3.6959
  386MOL0     H52103   3.373  -0.065   0.531  1.8128  2.9851  0.1769
  386MOL0     H52104   3.444   0.099   0.665  1.4841 -0.0624  0.9570
  386MOL0     H52105   3.472  -0.006   0.805 -0.7715  1.3688  0.4570
  386MOL0     H52106   3.283   0.131   0.839 -1.6827 -0.0485 -0.3106
  386MOL0     H52107   3.235  -0.043   0.852  4.4619 -0.9159  1.7555
  386MOL0     H52108   2.995   0.099   0.534  0.9815  2.7081 -0.7001
  386MOL0     H52109   3.747   0.195   0.623 -4.5052 -2.2734  2.4913
  386MOL0     H52110   3.721   0.396   0.480 -1.1131 -0.5272  2.2841
  387MOL0     O52111   0.343   9.418   7.520 -0.3489  0.7124  0.2148
  387MOL0     C52112   0.285   9.450   7.422 -0.2634  0.1464  1.0769
  387MOL0     O52113   0.238   9.372   7.324 -0.6848 -0.7543 -0.4951
  387MOL0     C52114   0.229   9.242   7.352 -0.7468 -0.4648  0.9940
  387MOL0     C52115   0.160   9.194   7.464 -0.3062 -0.3889 -0.4088
  387MOL0     C52116   0.160   9.057   7.487 -0.0541 -0.4510 -0.2859
  387MOL0     C52117   0.208   8.963   7.390  0.2607 -0.4768  0.3053
  387MOL0     O52118   0.169   8.836   7.402  0.5347 -0.4573  0.3292
  387MOL0     C52119   0.171   8.756   7.279  0.1104  0.2720 -0.3985
  387MOL0     C52120   0.148   8.617   7.330  0.2253  0.3256 -0.6528
  387MOL0     C52121   0.149   8.508   7.219  0.6942 -0.5769 -0.0783
  387MOL0     C52122   0.175   8.363   7.261  0.1954  0.3761  0.1135
  387MOL0     C52123   0.168   8.284   7.130  0.6532  0.1672 -0.9518
  387MOL0     C52124   0.199   8.134   7.160  0.4052 -1.8060 -0.0913
  387MOL0     C52125   0.087   8.063   7.233  0.2132  0.4320  0.2924
  387MOL0     C52126  -0.028   8.010   7.152 -0.3693 -0.6297  0.2244
  387MOL0     N52127  -0.157   8.089   7.184  0.3192 -0.5471 -0.3989
  387MOL0     C52128  -0.182   8.211   7.237 -0.7286  0.0452 -0.3058
  387MOL0     C52129  -0.315   8.223   7.247  1.6822  1.1093 -0.0509
  387MOL0     C52130  -0.404   8.342   7.288  0.1487  0.2693 -0.0653
  387MOL0     C52131  -0.351   8.425   7.409 -0.3977 -0.0732 -0.2142
  387MOL0     C52132  -0.451   8.537   7.443 -0.1198  0.5785 -0.0019
  387MOL0     C52133  -0.448   8.656   7.353 -0.8340 -0.1848  0.0784
  387MOL0     O52134  -0.320   8.717   7.349 -1.3366  0.4284  0.0217
  387MOL0     C52135  -0.302   8.819   7.253  0.3961 -0.3458 -0.4282
  387MOL0     C52136  -0.371   8.848   7.138 -0.3871  1.0823  0.2918
  387MOL0     C52137  -0.339   8.962   7.055  0.5862 -0.0950  0.2080
  387MOL0     C52138  -0.413   8.998   6.918  0.1875 -0.4569 -0.5960
  387MOL0     C52139  -0.248   9.051   7.111 -0.7707 -0.2324 -0.2362
  387MOL0     C52140  -0.198   9.179   7.038 -0.5780  0.7282  0.4079
  387MOL0     O52141  -0.140   9.268   7.117 -0.1092 -0.8136 -0.7156
  387MOL0     C52142  -0.094   9.383   7.049 -0.5727  0.4282 -0.7452
  387MOL0     C52143  -0.170   9.499   7.037  0.5237 -0.0683  0.0400
  387MOL0     C52144  -0.109   9.624   7.012 -0.6286  1.0535  0.4911
  387MOL0     C52145   0.013   9.628   6.949 -0.0897  0.7069  0.3558
  387MOL0     O52146   0.059   9.749   6.918 -0.3182  0.2211  0.1864
  387MOL0     C52147   0.184   9.760   6.849 -0.3590 -0.5788  0.2372
  387MOL0     C52148   0.173   9.888   6.781  0.7515 -0.3291  0.1162
  387MOL0     C52149   0.317   9.920   6.732 -0.4788  0.0473  1.2992
  387MOL0     C52150   0.321  10.025   6.623 -0.0426 -0.2082 -0.0211
  387MOL0     C52151   0.459  10.086   6.597 -0.1872 -0.0526 -0.2657
  387MOL0     C52152   0.579   9.994   6.581 -0.1537  0.0347  0.6643
  387MOL0     C52153   0.705  10.064   6.520  0.3124  1.1632  0.1083
  387MOL0     C52154   0.790   9.967   6.437 -0.2917 -0.7754 -0.5162
  387MOL0    Cl52155   0.892  10.058   6.333 -0.1114  0.0403 -0.1029
  387MOL0     C52156   0.091   9.506   6.937  1.0063 -0.2551  0.5669
  387MOL0     C52157   0.036   9.386   7.000  0.3718 -1.2159  0.0418
  387MOL0     O52158  -0.204   9.184   6.917 -0.2760 -0.2769 -0.3315
  387MOL0     C52159  -0.176   9.011   7.225  0.5335 -0.4758 -0.6860
  387MOL0     C52160  -0.207   8.896   7.300 -0.1719 -0.1671  1.2227
  387MOL0     N52161  -0.370   8.099   7.220  0.8409  1.0106 -0.2360
  387MOL0     N52162  -0.273   8.019   7.187 -0.1149 -0.1576  0.0500
  387MOL0     C52163   0.249   9.023   7.268 -0.9412  0.1769  0.6100
  387MOL0     C52164   0.261   9.158   7.256 -0.2244  0.5470  0.5444
  387MOL0     C52165   0.254   9.601   7.415 -1.3353  0.1103  0.6341
  387MOL0     C52166   0.189   9.645   7.305  0.2016 -0.4786  0.9969
  387MOL0     C52167   0.135   9.780   7.296  0.3697  0.4902  0.4744
  387MOL0     C52168   0.149   9.865   7.413  0.8189 -0.1235  0.5936
  387MOL0     O52169   0.089   9.985   7.414 -0.5656 -1.0050  0.9593
  387MOL0     C52170   0.057  10.051   7.538 -0.7232  0.0413  0.3804
  387MOL0     C52171   0.162  10.156   7.595  0.2655  0.1265  0.4879
  387MOL0     C52172   0.193  10.279   7.507 -0.1333  0.9055  0.0476
  387MOL0     C52173   0.320  10.353   7.558  0.0897 -0.5895 -0.1907
  387MOL0     C52174   0.329  10.389   7.694 -0.1289 -0.7992 -0.5173
  387MOL0     C52175   0.339  10.432   7.807 -0.2031 -0.6385  1.1215
  387MOL0     C52176   0.232   9.821   7.517 -0.3034  0.1741  0.8065
  387MOL0     C52177   0.279   9.691   7.522  0.1349 -0.4104 -0.5511
  387MOL0     H52178   0.124   9.267   7.534  0.0663 -0.3171 -0.2901
  387MOL0     H52179   0.112   9.020   7.577 -1.8936 -0.1186 -1.0840
  387MOL0     H52180   0.091   8.790   7.212  1.0584  3.2641 -0.1391
  387MOL0     H52181   0.267   8.746   7.227 -0.1982 -0.3091 -0.8775
  387MOL0     H52182   0.218   8.588   7.409  1.8609 -1.1433 -2.5430
  387MOL0     H52183   0.055   8.628   7.387  0.0912 -2.7832 -0.0740
  387MOL0     H52184   0.052   8.506   7.169 -0.4718 -1.7382  2.0900
  387MOL0     H52185   0.232   8.526   7.149  1.4128 -1.5483  0.5006
  387MOL0     H52186   0.275   8.346   7.301  1.4667  2.7330 -1.8541
  387MOL0     H52187   0.095   8.335   7.330 -0.8100  0.1325 -1.1016
  387MOL0     H52188   0.069   8.296   7.085 -0.2520  0.1794  0.9278
  387MOL0     H52189   0.249   8.319   7.065  3.8121 -2.9703  0.8857
  387MOL0     H52190   0.211   8.089   7.062 -2.1463 -1.8020 -0.4606
  387MOL0     H52191   0.288   8.130   7.224  0.7223  1.4882 -0.1482
  387MOL0     H52192   0.136   7.980   7.285  1.2908  2.2962  2.4579
  387MOL0     H52193   0.041   8.114   7.318 -0.4019 -0.6618  0.6370
  387MOL0     H52194  -0.036   7.901   7.159 -0.1532 -0.7871 -1.5089
  387MOL0     H52195  -0.003   8.029   7.047  1.6211 -2.9611  0.1808
  387MOL0     H52196  -0.111   8.292   7.249  1.0133 -1.6233  1.6870
  387MOL0     H52197  -0.403   8.409   7.201  2.8847  1.2804  0.6461
  387MOL0     H52198  -0.502   8.303   7.317  0.0452  2.3562  2.8003
  387MOL0     H52199  -0.251   8.464   7.387 -0.6468  1.6701  1.4451
  387MOL0     H52200  -0.340   8.353   7.491 -3.7225  0.5956  0.9694
  387MOL0     H52201  -0.435   8.571   7.546  1.1160  1.6852 -0.5282
  387MOL0     H52202  -0.553   8.496   7.440 -0.6169  1.7950 -0.5992
  387MOL0     H52203  -0.519   8.729   7.392  0.9624  1.3939  0.5193
  387MOL0     H52204  -0.487   8.624   7.256 -1.4292  1.5878 -0.2976
  387MOL0     H52205  -0.458   8.785   7.120  1.1261 -0.5495 -1.8887
  387MOL0     H52206  -0.358   8.982   6.825  2.2934 -0.0428  0.5020
  387MOL0     H52207  -0.495   8.933   6.888  2.0441 -2.6374 -1.1821
  387MOL0     H52208  -0.444   9.103   6.918 -1.4133 -0.8231 -3.5280
  387MOL0     H52209  -0.272   9.487   7.071  0.0875 -2.6318 -1.9209
  387MOL0     H52210  -0.158   9.721   7.011 -1.0536  0.9296 -3.0425
  387MOL0     H52211   0.266   9.767   6.921 -0.5123 -3.5940  0.8209
  387MOL0     H52212   0.201   9.673   6.784 -2.0276  1.6054 -3.5103
  387MOL0     H52213   0.109   9.876   6.693  0.8714  0.3214 -0.0671
  387MOL0     H52214   0.137   9.963   6.850  0.7056 -1.7676  1.7171
  387MOL0     H52215   0.370   9.839   6.680 -0.5998  0.0512  1.1686
  387MOL0     H52216   0.377   9.944   6.820  4.1946 -2.0512 -0.9506
  387MOL0     H52217   0.284   9.987   6.528  0.3116 -0.3351 -0.1107
  387MOL0     H52218   0.251  10.098   6.663  0.3901 -0.1701  0.6894
  387MOL0     H52219   0.476  10.144   6.688  0.0014 -1.1077  0.3847
  387MOL0     H52220   0.447  10.162   6.518 -0.7255  1.8995  1.5924
  387MOL0     H52221   0.611   9.957   6.679  2.7866  1.9331  0.5634
  387MOL0     H52222   0.549   9.914   6.513 -0.6832  1.7531 -1.2052
  387MOL0     H52223   0.744  10.100   6.615 -0.1561 -1.6984  1.4914
  387MOL0     H52224   0.673  10.143   6.451 -1.0666 -2.2780 -3.5477
  387MOL0     H52225   0.734   9.892   6.382  0.0932  0.1508 -2.2446
  387MOL0     H52226   0.852   9.919   6.514  1.2573 -0.4766 -1.5204
  387MOL0     H52227   0.188   9.505   6.889  0.4873  0.7559 -0.5386
  387MOL0     H52228   0.092   9.293   7.007 -1.9905 -2.6135  2.8772
  387MOL0     H52229  -0.093   9.068   7.266  1.5572 -1.2149 -1.6893
  387MOL0     H52230  -0.143   8.878   7.386  0.5095  0.1052  0.7806
  387MOL0     H52231   0.255   8.984   7.166 -1.7467  2.0677 -0.2107
  387MOL0     H52232   0.291   9.195   7.158  1.4806 -0.4087  0.6633
  387MOL0     H52233   0.162   9.576   7.225 -2.3884 -1.0500  2.2614
  387MOL0     H52234   0.080   9.812   7.207 -1.0826 -0.2201  1.0836
  387MOL0     H52235  -0.044  10.090   7.525 -0.4044  1.0059  0.6929
  387MOL0     H52236   0.035   9.978   7.616 -1.7860 -1.3635 -1.1643
  387MOL0     H52237   0.249  10.102   7.633 -1.5373 -0.9493  3.4316
  387MOL0     H52238   0.117  10.203   7.683 -4.1818 -4.3396  1.0218
  387MOL0     H52239   0.107  10.346   7.510  0.0775  1.5917 -3.8199
  387MOL0     H52240   0.208  10.246   7.403  1.3172  0.2422  0.4414
  387MOL0     H52241   0.352  10.438   7.498  0.3501  1.1595  2.2661
  387MOL0     H52242   0.397  10.278   7.536 -0.0895 -1.5991  2.2439
  387MOL0     H52243   0.343  10.463   7.910  0.2150 -0.0757  0.9384
  387MOL0     H52244   0.277   9.893   7.585 -2.0328  3.7525 -1.5386
  387MOL0     H52245   0.332   9.663   7.613  2.4905 -0.0490 -1.7337
  388MOL0     O52246   0.569   6.035   3.567  0.6372  0.0464 -0.3925
  388MOL0     C52247   0.587   5.909   3.572 -0.2361 -0.4979 -0.6577
  388MOL0     O52248   0.520   5.809   3.504 -0.0262 -0.2918 -0.4182
  388MOL0     C52249   0.471   5.842   3.378  0.6395  0.0538  0.0284
  388MOL0     C52250   0.354   5.916   3.356 -0.4280 -0.0650  0.0449
  388MOL0     C52251   0.307   5.930   3.229  0.5323  0.0080  0.4765
  388MOL0     C52252   0.378   5.886   3.117 -0.1585  0.5069 -0.3238
  388MOL0     O52253   0.339   5.922   2.989 -0.5006 -0.7118  0.3460
  388MOL0     C52254   0.216   5.846   2.950  0.1449  0.8196 -1.0584
  388MOL0     C52255   0.181   5.897   2.815 -0.1924 -0.2325 -0.3816
  388MOL0     C52256   0.065   5.804   2.749  0.0313 -0.2554 -0.2714
  388MOL0     C52257   0.007   5.893   2.642 -0.6026 -0.4368  0.0025
  388MOL0     C52258  -0.102   5.838   2.545 -0.6335  0.0214 -0.1462
  388MOL0     C52259  -0.225   5.791   2.620  0.4461 -0.4654 -1.1628
  388MOL0     C52260  -0.301   5.697   2.527  0.7574  0.4133 -0.0905
  388MOL0     C52261  -0.349   5.783   2.403  0.9645  0.0594  0.4567
  388MOL0     N52262  -0.470   5.733   2.334 -0.4708  1.3578  0.8662
  388MOL0     C52263  -0.467   5.608   2.270  0.5212 -0.2418  0.7223
  388MOL0     C52264  -0.604   5.582   2.242 -0.2318 -1.0028 -0.4823
  388MOL0     C52265  -0.668   5.455   2.183 -0.4829  0.2090 -0.2893
  388MOL0     C52266  -0.637   5.433   2.036  0.9271 -0.4218 -1.1632
  388MOL0     C52267  -0.680   5.295   2.006 -0.2146 -0.3798 -0.7195
  388MOL0     C52268  -0.606   5.240   1.882  0.4610  0.4322  0.0178
  388MOL0     O52269  -0.475   5.208   1.918 -1.0291  0.0026  0.4780
  388MOL0     C52270  -0.400   5.127   1.832 -0.0257  0.3040 -0.4371
  388MOL0     C52271  -0.435   5.075   1.711 -0.2064 -0.4095 -0.4815
  388MOL0     C52272  -0.347   5.027   1.622 -0.7342 -0.0461 -0.0730
  388MOL0     C52273  -0.415   4.986   1.492  0.3553  0.6867 -0.5707
  388MOL0     C52274  -0.216   5.002   1.666 -0.7066  0.5642 -0.7192
  388MOL0     C52275  -0.112   4.930   1.574 -0.1980 -0.3905  0.4173
  388MOL0     O52276  -0.006   4.870   1.639 -0.0162 -0.3399  0.6499
  388MOL0     C52277   0.105   4.798   1.584  0.0818  1.3185 -0.3397
  388MOL0     C52278   0.104   4.714   1.466  0.3000  0.6325 -0.7201
  388MOL0     C52279   0.210   4.634   1.422 -0.0493 -0.0759 -0.3023
  388MOL0     C52280   0.327   4.638   1.499 -0.9287 -0.3674 -0.1568
  388MOL0     O52281   0.437   4.558   1.452  0.5061 -0.6443  0.5967
  388MOL0     C52282   0.564   4.554   1.527  0.0992  0.9303  0.6459
  388MOL0     C52283   0.680   4.455   1.470  0.2487 -0.6150  0.1021
  388MOL0     C52284   0.622   4.325   1.408 -0.5725 -0.5347  0.0769
  388MOL0     C52285   0.536   4.240   1.512 -0.7917 -1.0004 -1.0189
  388MOL0     C52286   0.449   4.131   1.448  0.5656 -0.6397  0.1295
  388MOL0     C52287   0.317   4.189   1.389  0.1187 -0.7141  0.2387
  388MOL0     C52288   0.237   4.073   1.345  0.4574  0.8751 -0.8042
  388MOL0     C52289   0.140   4.099   1.239  0.3721 -0.5808 -0.5933
  388MOL0    Cl52290   0.033   3.957   1.211 -0.2242  0.1622  0.3429
  388MOL0     C52291   0.332   4.714   1.623 -0.1634  0.2636  0.0282
  388MOL0     C52292   0.225   4.797   1.656  0.2701 -0.4800  0.0748
  388MOL0     O52293  -0.132   4.916   1.452  0.6410 -0.3238 -0.0990
  388MOL0     C52294  -0.170   5.062   1.779 -0.1202  0.6575 -0.7305
  388MOL0     C52295  -0.256   5.129   1.862  0.1926  0.3364 -0.6993
  388MOL0     N52296  -0.673   5.688   2.287  0.2742 -0.1197 -0.0643
  388MOL0     N52297  -0.599   5.770   2.348  0.0835  0.5167 -0.6870
  388MOL0     C52298   0.496   5.819   3.137  0.2055 -0.2810  0.3051
  388MOL0     C52299   0.540   5.801   3.264 -0.5182  0.9469  1.0281
  388MOL0     C52300   0.681   5.859   3.672  0.9736  0.1419  0.0053
  388MOL0     C52301   0.729   5.944   3.770 -1.0092 -0.2015 -0.4737
  388MOL0     C52302   0.831   5.903   3.855 -0.5262  0.4768 -0.9671
  388MOL0     C52303   0.889   5.771   3.831 -0.9743 -0.8772  0.4563
  388MOL0     O52304   1.007   5.742   3.892 -1.1187  0.1532 -0.0395
  388MOL0     C52305   1.137   5.799   3.843  0.0095  0.6319 -0.6201
  388MOL0     C52306   1.193   5.700   3.748  0.4627 -0.4823 -1.1355
  388MOL0     C52307   1.347   5.728   3.724  0.3731  0.6855  0.1032
  388MOL0     C52308   1.413   5.658   3.606 -0.3992  0.0740  0.1423
  388MOL0     C52309   1.527   5.738   3.563  1.0631  0.0805  0.6040
  388MOL0     C52310   1.615   5.807   3.526 -0.2086 -0.3979 -0.2485
  388MOL0     C52311   0.847   5.690   3.727 -0.4208 -0.8583  0.0208
  388MOL0     C52312   0.735   5.725   3.657  0.0264  0.1724  0.8371
  388MOL0     H52313   0.304   5.952   3.446  1.1099 -1.2524  1.4188
  388MOL0     H52314   0.213   5.979   3.203  0.2063 -0.6868  0.3186
  388MOL0     H52315   0.233   5.739   2.940  1.5062  1.1869 -3.7986
  388MOL0     H52316   0.133   5.864   3.018 -0.7962  0.1136 -1.9903
  388MOL0     H52317   0.159   6.004   2.823  1.3150  0.0201  0.7914
  388MOL0     H52318   0.264   5.897   2.744  2.7879  0.7199  2.8289
  388MOL0     H52319   0.104   5.707   2.717  3.2656  0.6346  0.5740
  388MOL0     H52320  -0.017   5.791   2.820  1.1181  0.3722  1.1416
  388MOL0     H52321  -0.030   5.979   2.698 -0.5297  0.1386 -0.8164
  388MOL0     H52322   0.084   5.938   2.579  0.8328 -2.7998 -0.0471
  388MOL0     H52323  -0.129   5.914   2.471 -1.0080  1.0647  1.0319
  388MOL0     H52324  -0.058   5.750   2.496  4.7405  1.9294  0.5541
  388MOL0     H52325  -0.198   5.740   2.712  0.9855  0.2193 -0.9273
  388MOL0     H52326  -0.286   5.871   2.662 -1.1863 -1.1699 -2.0991
  388MOL0     H52327  -0.239   5.616   2.486 -1.4932 -1.5816  0.2832
  388MOL0     H52328  -0.386   5.658   2.583  1.5355 -0.0768  0.7860
  388MOL0     H52329  -0.268   5.792   2.331  0.5315 -2.7684 -0.5107
  388MOL0     H52330  -0.378   5.874   2.456 -1.1620 -1.0095  1.2793
  388MOL0     H52331  -0.387   5.536   2.255  0.2471 -1.0421  2.7724
  388MOL0     H52332  -0.630   5.370   2.242 -2.1349  0.5038  1.2902
  388MOL0     H52333  -0.776   5.463   2.199 -0.4743 -2.1068  1.4946
  388MOL0     H52334  -0.533   5.447   2.005  1.3829  1.7307  1.0255
  388MOL0     H52335  -0.699   5.504   1.980  0.0607  0.2783  0.6068
  388MOL0     H52336  -0.789   5.296   1.991 -0.1823  0.9875 -0.9260
  388MOL0     H52337  -0.651   5.236   2.093 -1.2541  2.0324  1.3913
  388MOL0     H52338  -0.610   5.312   1.800  0.4476  1.3983  0.8369
  388MOL0     H52339  -0.658   5.148   1.855  0.9687  0.3588 -0.7235
  388MOL0     H52340  -0.542   5.078   1.694 -0.1980 -1.1413 -0.6894
  388MOL0     H52341  -0.368   5.035   1.405 -2.0633  3.1389 -0.6332
  388MOL0     H52342  -0.417   4.877   1.483 -0.1082  0.5608  0.8393
  388MOL0     H52343  -0.519   5.018   1.485 -0.2817 -0.2272  3.0644
  388MOL0     H52344   0.007   4.720   1.416  1.3611 -0.1512 -3.0163
  388MOL0     H52345   0.186   4.573   1.337 -2.6889 -1.9537  1.6207
  388MOL0     H52346   0.611   4.653   1.519 -0.7961  1.3104 -0.0368
  388MOL0     H52347   0.547   4.523   1.631 -0.6737  2.2648  0.9441
  388MOL0     H52348   0.728   4.509   1.388  0.2490  2.5774  2.0524
  388MOL0     H52349   0.746   4.418   1.550 -1.2992 -1.1236  1.1914
  388MOL0     H52350   0.716   4.272   1.386  0.9924  0.9130  2.7238
  388MOL0     H52351   0.568   4.337   1.314 -0.0879 -1.4118 -0.3275
  388MOL0     H52352   0.596   4.188   1.587 -3.1466  2.2329  3.6100
  388MOL0     H52353   0.474   4.310   1.569  0.8454  1.3618 -2.0024
  388MOL0     H52354   0.427   4.065   1.533 -1.5028 -2.3276 -1.5874
  388MOL0     H52355   0.501   4.076   1.369  0.5352  0.6186 -0.8046
  388MOL0     H52356   0.261   4.254   1.457  2.4949 -0.7310  2.3586
  388MOL0     H52357   0.351   4.258   1.311  0.4183  0.9543  1.7722
  388MOL0     H52358   0.189   4.022   1.429 -0.1426 -1.7910 -2.6539
  388MOL0     H52359   0.301   3.996   1.300 -0.7366  1.0368 -2.9303
  388MOL0     H52360   0.212   4.115   1.159  2.8924 -3.0933  0.9558
  388MOL0     H52361   0.081   4.189   1.261 -0.5706 -1.9865  3.7879
  388MOL0     H52362   0.423   4.717   1.683 -0.3097 -0.3387  0.2841
  388MOL0     H52363   0.228   4.866   1.740  1.3640  1.6176 -1.5790
  388MOL0     H52364  -0.070   5.051   1.818 -0.5218  1.1881  0.5214
  388MOL0     H52365  -0.221   5.176   1.953  1.2622  0.1421 -1.0020
  388MOL0     H52366   0.537   5.784   3.043 -1.8902 -0.8717 -0.4431
  388MOL0     H52367   0.641   5.762   3.269  0.0041  2.4010  2.9314
  388MOL0     H52368   0.699   6.048   3.783  0.7054  0.6907 -2.9636
  388MOL0     H52369   0.872   5.964   3.935 -2.2385 -1.9320  1.9931
  388MOL0     H52370   1.113   5.895   3.795 -1.9532  0.1456 -0.6963
  388MOL0     H52371   1.206   5.812   3.927 -0.7466 -3.1107  0.7791
  388MOL0     H52372   1.135   5.704   3.656 -0.5170  1.4253 -0.4808
  388MOL0     H52373   1.176   5.601   3.792 -4.6001 -0.3931 -2.3347
  388MOL0     H52374   1.393   5.708   3.821 -4.4043  4.4970  3.6585
  388MOL0     H52375   1.344   5.834   3.700 -2.9251  0.4514 -1.0408
  388MOL0     H52376   1.342   5.663   3.523  1.3166 -2.7283 -1.6695
  388MOL0     H52377   1.442   5.552   3.613  0.5268  0.2043 -1.3994
  388MOL0     H52378   1.702   5.869   3.514 -0.8299  0.4713 -0.3350
  388MOL0     H52379   0.878   5.586   3.715 -0.7358 -1.1820  1.7165
  388MOL0     H52380   0.699   5.657   3.581  2.0823 -1.2864  1.0667
  389MOL0     O52381   9.309   6.103   9.712 -0.4537 -0.4778 -0.4141
  389MOL0     C52382   9.254   6.212   9.732  0.2519 -0.3487 -0.3861
  389MOL0     O52383   9.278   6.294   9.842 -0.7785  1.0232 -0.6096
  389MOL0     C52384   9.397   6.284   9.913 -0.0106  0.4604 -0.4062
  389MOL0     C52385   9.390   6.300  10.047 -0.5986 -0.7951 -0.4918
  389MOL0     C52386   9.511   6.328  10.116  0.2719  0.4958 -0.3187
  389MOL0     C52387   9.633   6.313  10.056 -0.7956 -0.4351 -0.1632
  389MOL0     O52388   9.746   6.338  10.134 -0.3937 -0.1977  0.5399
  389MOL0     C52389   9.791   6.224  10.206  0.0824 -0.1822 -0.5556
  389MOL0     C52390   9.937   6.192  10.188 -1.5429 -0.8182 -0.1064
  389MOL0     C52391  10.031   6.312  10.171 -0.5608 -0.5977 -0.1361
  389MOL0     C52392  10.185   6.275  10.176 -0.2031 -0.1169  0.0802
  389MOL0     C52393  10.273   6.379  10.099 -0.0208  0.3129 -0.6155
  389MOL0     C52394  10.268   6.509  10.188 -0.3264 -0.4142 -0.6674
  389MOL0     C52395  10.354   6.619  10.132  0.2940  0.0387  0.4796
  389MOL0     C52396  10.343   6.652   9.980 -0.5372 -0.1178 -0.0471
  389MOL0     N52397  10.195   6.692   9.963 -0.4600 -0.1878 -0.1214
  389MOL0     C52398  10.122   6.673   9.853 -0.0132 -0.3691 -0.2908
  389MOL0     C52399  10.010   6.741   9.871  0.2107  0.7372 -0.4218
  389MOL0     C52400   9.903   6.766   9.770 -0.5274  0.1751 -0.1912
  389MOL0     C52401   9.766   6.785   9.822 -0.5907 -0.0481 -1.1287
  389MOL0     C52402   9.734   6.678   9.930  0.3454 -0.1743  0.1067
  389MOL0     C52403   9.588   6.680   9.951  1.2768  0.0194 -0.1398
  389MOL0     O52404   9.540   6.816   9.964  0.0684 -0.1082 -0.4713
  389MOL0     C52405   9.480   6.856  10.082  0.1944  0.0767  1.5701
  389MOL0     C52406   9.485   6.789  10.199  0.7374 -0.0671  1.0335
  389MOL0     C52407   9.424   6.832  10.316  0.7760  1.0682 -0.4357
  389MOL0     C52408   9.448   6.746  10.438 -0.3285  0.0988 -0.6439
  389MOL0     C52409   9.349   6.954  10.316  1.4828  0.4062  0.7005
  389MOL0     C52410   9.289   7.014  10.437 -0.7826 -0.4823  0.7644
  389MOL0     O52411   9.272   7.148  10.436  0.9770  0.1711 -0.2660
  389MOL0     C52412   9.198   7.212  10.529 -0.5304 -0.0631 -0.6111
  389MOL0     C52413   9.079   7.157  10.578 -0.8242 -1.0197  0.2860
  389MOL0     C52414   8.997   7.235  10.655  0.0227  0.2526  0.0529
  389MOL0     C52415   9.031   7.367  10.694 -0.6042 -0.3220 -0.3170
  389MOL0     O52416   8.940   7.432  10.776 -0.0332 -0.4550  0.3670
  389MOL0     C52417   8.872   7.542  10.716 -1.1316  0.5886 -0.4777
  389MOL0     C52418   8.950   7.669  10.742 -0.7017 -0.2001 -0.7034
  389MOL0     C52419   8.991   7.709  10.890 -0.0925 -0.7080  0.1289
  389MOL0     C52420   8.873   7.703  11.001 -0.1073 -0.7800 -0.4213
  389MOL0     C52421   8.766   7.814  10.972  0.9980  0.5721 -0.0705
  389MOL0     C52422   8.685   7.844  11.092 -0.2780 -0.3825 -0.3151
  389MOL0     C52423   8.590   7.739  11.152 -0.1129  0.3917  0.2295
  389MOL0     C52424   8.474   7.797  11.239  0.7143  0.8249  0.1804
  389MOL0    Cl52425   8.531   7.889  11.379 -0.0169 -0.6788 -0.3794
  389MOL0     C52426   9.158   7.409  10.675 -0.1498  0.0167 -0.5118
  389MOL0     C52427   9.238   7.334  10.586 -0.4866 -0.5352 -0.1077
  389MOL0     O52428   9.275   6.939  10.529  0.5121  0.7528 -0.4756
  389MOL0     C52429   9.338   7.019  10.198  0.1587 -0.9965  0.3553
  389MOL0     C52430   9.406   6.968  10.083  0.7015 -0.3428  0.2867
  389MOL0     N52431  10.029   6.818   9.983  0.2260 -0.7291 -0.0995
  389MOL0     N52432  10.138   6.790  10.035  0.1029 -0.2755  0.2814
  389MOL0     C52433   9.643   6.285   9.929  0.2604 -0.2928  0.1152
  389MOL0     C52434   9.526   6.268   9.851  0.6581 -0.1916  0.4343
  389MOL0     C52435   9.149   6.265   9.638 -0.1181 -0.8102 -0.0120
  389MOL0     C52436   9.047   6.339   9.691  0.9644  0.0383 -0.0616
  389MOL0     C52437   8.936   6.360   9.617 -0.2151 -0.2095 -0.0719
  389MOL0     C52438   8.938   6.344   9.480  0.4611  0.8996 -0.5404
  389MOL0     O52439   8.855   6.387   9.389  0.2924  0.5563 -0.4473
  389MOL0     C52440   8.779   6.500   9.430 -0.6046 -0.2973 -0.2041
  389MOL0     C52441   8.751   6.593   9.308 -0.1850  0.4893 -0.3829
  389MOL0     C52442   8.888   6.665   9.278 -0.1571 -0.0157 -1.4838
  389MOL0     C52443   8.844   6.786   9.188  0.8319 -0.3601 -0.6215
  389MOL0     C52444   8.789   6.898   9.264 -0.0955  0.4855 -1.2259
  389MOL0     C52445   8.742   7.004   9.314  0.2477  0.6991 -0.7629
  389MOL0     C52446   9.040   6.262   9.424  0.3134 -0.5398 -0.6475
  389MOL0     C52447   9.134   6.214   9.507 -0.6310  0.5793 -0.5805
  389MOL0     H52448   9.291   6.308  10.092 -0.5831 -2.2008 -0.1520
  389MOL0     H52449   9.515   6.371  10.215  2.9710 -1.8842  0.7369
  389MOL0     H52450   9.788   6.255  10.311 -2.1909  0.8446 -0.8635
  389MOL0     H52451   9.734   6.133  10.186 -0.9141 -0.6682  3.5352
  389MOL0     H52452   9.983   6.121  10.257 -0.0005 -0.3449 -0.6005
  389MOL0     H52453   9.927   6.138  10.093 -0.5627 -1.1509 -0.0360
  389MOL0     H52454  10.005   6.367  10.080  1.8554 -0.3345 -0.7344
  389MOL0     H52455  10.004   6.387  10.247  2.0627 -1.7948  2.1307
  389MOL0     H52456  10.209   6.286  10.283  0.7551 -0.3196 -0.1068
  389MOL0     H52457  10.222   6.177  10.145  3.8449  0.7325  1.6345
  389MOL0     H52458  10.376   6.341  10.110 -0.6231 -1.3198 -0.3008
  389MOL0     H52459  10.249   6.402   9.995 -0.1559  1.4705 -0.3396
  389MOL0     H52460  10.161   6.534  10.196  0.1411  1.2303  1.1423
  389MOL0     H52461  10.300   6.483  10.289 -2.0256  0.8949  0.2731
  389MOL0     H52462  10.337   6.711  10.188  0.3688  0.3205  0.0450
  389MOL0     H52463  10.461   6.597  10.142  1.7239  4.3354 -2.4572
  389MOL0     H52464  10.373   6.571   9.913  1.5542  1.4117 -1.0679
  389MOL0     H52465  10.413   6.735   9.968  1.9435 -1.9952  0.6685
  389MOL0     H52466  10.151   6.619   9.764  0.9615  0.0207 -0.2281
  389MOL0     H52467   9.941   6.853   9.716  0.3243  0.6127  1.0707
  389MOL0     H52468   9.899   6.683   9.699 -2.6349 -1.4416  1.6572
  389MOL0     H52469   9.691   6.782   9.742 -1.0163 -1.1315 -0.7035
  389MOL0     H52470   9.754   6.882   9.871 -3.8910 -1.3643  1.0289
  389MOL0     H52471   9.774   6.703  10.028 -2.6024 -0.8887  1.6124
  389MOL0     H52472   9.786   6.583   9.912  3.1019  1.3416 -0.5739
  389MOL0     H52473   9.548   6.612  10.026  3.4585 -0.1826  0.9072
  389MOL0     H52474   9.540   6.635   9.863  1.2881  1.4848 -0.9300
  389MOL0     H52475   9.559   6.710  10.202 -0.3795 -1.1130  2.0087
  389MOL0     H52476   9.354   6.709  10.480 -1.0908  2.1299 -0.4380
  389MOL0     H52477   9.517   6.665  10.413  0.7067  0.4167  1.0280
  389MOL0     H52478   9.501   6.809  10.509  0.5073 -2.6543  1.3410
  389MOL0     H52479   9.054   7.063  10.530  2.4824 -1.0704 -1.6936
  389MOL0     H52480   8.902   7.194  10.687  0.8264  0.4435  2.9884
  389MOL0     H52481   8.838   7.521  10.615 -0.6075 -2.1422 -0.1697
  389MOL0     H52482   8.782   7.564  10.773  0.6459  1.6913  2.1090
  389MOL0     H52483   9.039   7.665  10.679 -1.0162  1.6866 -1.3350
  389MOL0     H52484   8.896   7.748  10.689  0.8718  0.0509 -2.0158
  389MOL0     H52485   9.031   7.810  10.880 -0.2162 -0.7393 -0.7269
  389MOL0     H52486   9.073   7.641  10.915  1.0950  0.9483  0.9574
  389MOL0     H52487   8.836   7.601  10.986 -3.2197  0.2355 -0.2629
  389MOL0     H52488   8.907   7.703  11.105  0.8412  1.3456 -0.6821
  389MOL0     H52489   8.691   7.796  10.895  0.6636 -0.4282  0.4709
  389MOL0     H52490   8.822   7.904  10.948  1.4241  0.7207  1.3480
  389MOL0     H52491   8.748   7.880  11.173 -0.5248  1.5268 -0.9139
  389MOL0     H52492   8.633   7.938  11.069  3.0394  1.7529  0.2823
  389MOL0     H52493   8.650   7.671  11.213  1.9037  2.2595  0.4651
  389MOL0     H52494   8.537   7.681  11.076  1.5795 -2.1054  0.8202
  389MOL0     H52495   8.413   7.715  11.279 -1.9611  1.5423 -2.1263
  389MOL0     H52496   8.408   7.850  11.170 -1.2035 -2.6964 -0.9188
  389MOL0     H52497   9.200   7.503  10.712  3.1075 -2.7325  3.6782
  389MOL0     H52498   9.335   7.365  10.550 -1.2576 -0.6420 -2.4135
  389MOL0     H52499   9.282   7.110  10.179 -1.2310 -1.3469  2.5155
  389MOL0     H52500   9.410   7.030   9.994  2.0876  0.3570  0.8074
  389MOL0     H52501   9.747   6.298   9.901  0.7844  1.5417  2.5831
  389MOL0     H52502   9.539   6.249   9.745  0.1429 -1.2585  0.5451
  389MOL0     H52503   9.037   6.352   9.798  4.1117 -0.5822  0.3917
  389MOL0     H52504   8.850   6.407   9.662  0.6162  0.9889  0.3162
  389MOL0     H52505   8.679   6.468   9.458 -1.6011  0.5774 -2.5089
  389MOL0     H52506   8.837   6.556   9.505  1.2578 -0.2681 -1.5801
  389MOL0     H52507   8.677   6.660   9.354  1.9382  2.0942  0.8695
  389MOL0     H52508   8.711   6.536   9.224  1.2549 -1.3998  0.1466
  389MOL0     H52509   8.956   6.589   9.239 -0.5212 -4.5837  5.2013
  389MOL0     H52510   8.937   6.693   9.372  2.0223 -0.2134 -2.4989
  389MOL0     H52511   8.770   6.751   9.116 -1.1917 -1.3036  1.7748
  389MOL0     H52512   8.920   6.840   9.130  2.5681  0.0533  1.8748
  389MOL0     H52513   8.705   7.099   9.346 -1.1601 -0.3035  0.8291
  389MOL0     H52514   9.037   6.252   9.316  1.0254 -1.9236 -0.5572
  389MOL0     H52515   9.215   6.149   9.476  0.0030  0.5515  1.0408
  390MOL0     O52516   6.921   2.259   3.894  0.4131 -0.1874  0.6368
  390MOL0     C52517   7.019   2.253   3.965 -0.3387  0.1377  0.7040
  390MOL0     O52518   7.079   2.360   4.020  0.4063 -0.0942 -0.0628
  390MOL0     C52519   7.045   2.490   3.982  0.1483 -0.1351 -0.3163
  390MOL0     C52520   7.032   2.579   4.081  0.2891 -0.5703 -0.0927
  390MOL0     C52521   6.997   2.712   4.059  0.4886 -0.1104 -0.1274
  390MOL0     C52522   6.953   2.758   3.928  0.0397  0.9542 -1.2704
  390MOL0     O52523   6.906   2.881   3.919  0.5736  0.2738 -0.6437
  390MOL0     C52524   6.871   2.941   3.794  0.6095 -0.4654  0.5865
  390MOL0     C52525   6.990   3.016   3.731  0.4460  0.0237 -0.9700
  390MOL0     C52526   6.967   3.107   3.610 -0.7094  0.8127  0.4710
  390MOL0     C52527   7.100   3.182   3.576  1.0937  0.0039 -0.1301
  390MOL0     C52528   7.079   3.323   3.519  0.5379  1.4866 -0.5314
  390MOL0     C52529   7.071   3.329   3.370 -0.1387 -0.2637  0.1234
  390MOL0     C52530   7.087   3.471   3.329  0.4058 -0.3634  0.3060
  390MOL0     C52531   6.973   3.566   3.385 -0.3995  0.2392 -0.8407
  390MOL0     N52532   6.969   3.693   3.320  0.4561  0.2625  0.6395
  390MOL0     C52533   7.047   3.740   3.221 -0.3196  0.4334 -0.9768
  390MOL0     C52534   6.993   3.862   3.199  0.5386 -0.6076  0.2848
  390MOL0     C52535   7.055   3.961   3.101  0.4718 -1.0875 -0.3115
  390MOL0     C52536   6.963   4.002   2.990  1.3554 -0.2821 -0.4067
  390MOL0     C52537   6.833   4.079   3.032 -0.3694 -0.3957 -0.1534
  390MOL0     C52538   6.768   4.161   2.918  0.2491 -1.0623 -0.2500
  390MOL0     O52539   6.627   4.173   2.938  0.3154 -0.0944  0.3266
  390MOL0     C52540   6.547   4.217   2.836  0.1094  0.9728 -0.4446
  390MOL0     C52541   6.574   4.330   2.763 -0.1184 -0.4034 -0.4694
  390MOL0     C52542   6.499   4.361   2.650  0.2969 -0.7289 -0.4091
  390MOL0     C52543   6.537   4.485   2.569 -0.9266 -0.1326  0.5588
  390MOL0     C52544   6.389   4.275   2.618  0.3241  0.4720 -0.8629
  390MOL0     C52545   6.318   4.284   2.495 -0.8480 -0.2052  0.1070
  390MOL0     O52546   6.245   4.178   2.449  0.1653 -0.3492  0.0502
  390MOL0     C52547   6.183   4.188   2.326  0.4912 -0.6229  0.4147
  390MOL0     C52548   6.078   4.277   2.297 -0.7754  0.8673 -0.5278
  390MOL0     C52549   6.040   4.299   2.163  0.8605  0.1045  1.2635
  390MOL0     C52550   6.086   4.222   2.060  0.1364 -0.0278 -0.8410
  390MOL0     O52551   6.044   4.242   1.936 -0.3644 -0.2275  0.1177
  390MOL0     C52552   5.913   4.192   1.897 -0.8764 -0.0243 -0.2808
  390MOL0     C52553   5.901   4.046   1.853 -0.3454  0.1095  0.2658
  390MOL0     C52554   5.925   3.933   1.961  0.5474  0.2095  1.0027
  390MOL0     C52555   5.906   3.796   1.911 -0.0267  0.9805  0.3414
  390MOL0     C52556   5.755   3.769   1.886  0.8175 -0.0057 -0.8699
  390MOL0     C52557   5.746   3.629   1.818  0.2583  0.1495  0.1821
  390MOL0     C52558   5.805   3.641   1.675 -0.8676  0.2944 -0.4892
  390MOL0     C52559   5.729   3.544   1.568  0.4232 -0.2833 -0.2019
  390MOL0    Cl52560   5.769   3.566   1.396 -0.2210 -0.2824 -0.1149
  390MOL0     C52561   6.187   4.128   2.090  0.5668 -0.1992 -0.5397
  390MOL0     C52562   6.235   4.110   2.222  0.0954  0.3668 -0.7811
  390MOL0     O52563   6.317   4.395   2.444  0.0053  0.0219  0.6554
  390MOL0     C52564   6.372   4.166   2.697  0.3263  0.9373  0.6402
  390MOL0     C52565   6.450   4.131   2.803  0.7264  0.2710 -0.7996
  390MOL0     N52566   6.869   3.872   3.255  0.3352  0.0999 -0.4520
  390MOL0     N52567   6.864   3.774   3.335  1.1813 -0.4870  0.7846
  390MOL0     C52568   6.971   2.665   3.824 -1.1926  0.1238  0.0279
  390MOL0     C52569   7.014   2.533   3.846 -0.0623 -0.2018  0.0735
  390MOL0     C52570   7.085   2.119   3.997  1.5929 -0.8090 -1.2155
  390MOL0     C52571   7.004   2.005   4.005 -1.1898 -0.1548  0.1483
  390MOL0     C52572   7.061   1.891   4.041 -0.4564  1.4394 -0.1299
  390MOL0     C52573   7.195   1.870   4.064  0.0553  1.3113 -0.0339
  390MOL0     O52574   7.238   1.739   4.073 -0.9156  0.3477  0.0208
  390MOL0     C52575   7.382   1.717   4.087  0.0184 -0.4681 -1.0905
  390MOL0     C52576   7.429   1.750   4.237  0.9270  0.2032 -0.2613
  390MOL0     C52577   7.574   1.729   4.250  0.6992  0.2979  0.6144
  390MOL0     C52578   7.633   1.602   4.196  0.3988  0.9709 -0.8176
  390MOL0     C52579   7.556   1.489   4.245  0.6251  0.2568 -0.5093
  390MOL0     C52580   7.502   1.387   4.295 -0.3946  0.5089 -0.5223
  390MOL0     C52581   7.271   1.981   4.061  0.4719 -0.7554 -0.1283
  390MOL0     C52582   7.211   2.109   4.043 -0.4680  0.5343  0.1834
  390MOL0     H52583   7.053   2.544   4.181  1.1509 -1.2419 -0.4930
  390MOL0     H52584   6.978   2.777   4.144 -1.2372 -1.5784  0.6739
  390MOL0     H52585   6.828   2.871   3.722  0.4962  1.2183 -1.0453
  390MOL0     H52586   6.791   3.015   3.807 -2.3114 -3.2661  0.1112
  390MOL0     H52587   7.013   3.094   3.804  0.0846 -1.4044  0.7266
  390MOL0     H52588   7.072   2.947   3.709  0.3143 -2.1480  4.0023
  390MOL0     H52589   6.941   3.045   3.524  0.7462 -0.7611  1.1128
  390MOL0     H52590   6.887   3.182   3.619  0.4471  2.4588 -2.0815
  390MOL0     H52591   7.157   3.194   3.668 -2.6129  0.2290  2.3244
  390MOL0     H52592   7.159   3.125   3.503  3.0768  3.0589 -1.1031
  390MOL0     H52593   7.005   3.369   3.585  1.2108 -0.5615  1.8073
  390MOL0     H52594   7.172   3.372   3.548  3.0478 -3.2272  0.3037
  390MOL0     H52595   7.141   3.268   3.314 -0.6223 -0.1206 -0.6579
  390MOL0     H52596   6.969   3.300   3.340 -0.5661 -1.2173  2.3008
  390MOL0     H52597   7.191   3.504   3.342  0.7355 -1.4886  0.6026
  390MOL0     H52598   7.073   3.470   3.220  1.4484  0.3752  0.1442
  390MOL0     H52599   7.002   3.591   3.488  0.4281  2.7876 -1.6078
  390MOL0     H52600   6.878   3.512   3.382 -1.2758  1.5348  1.0270
  390MOL0     H52601   7.140   3.706   3.176 -0.3285  0.4689 -1.0216
  390MOL0     H52602   7.086   4.042   3.168 -0.7027 -2.9864  2.7579
  390MOL0     H52603   7.149   3.923   3.059  0.5317 -2.7060  1.1838
  390MOL0     H52604   6.930   3.918   2.929 -0.3717  1.0276 -1.3929
  390MOL0     H52605   7.022   4.080   2.940  1.0933 -0.5755 -1.1830
  390MOL0     H52606   6.860   4.157   3.104  1.3323 -1.0149 -0.0821
  390MOL0     H52607   6.765   4.009   3.081 -2.3413  1.3018 -0.3361
  390MOL0     H52608   6.787   4.108   2.824  1.4508 -2.3552  0.6820
  390MOL0     H52609   6.808   4.262   2.925  0.2368 -0.8762 -2.3123
  390MOL0     H52610   6.660   4.392   2.788 -1.8918  0.7175  3.6760
  390MOL0     H52611   6.625   4.527   2.618  0.0538 -0.4952 -0.8291
  390MOL0     H52612   6.574   4.468   2.467 -1.0722 -0.0590  0.4941
  390MOL0     H52613   6.456   4.558   2.573 -1.7029 -0.9418 -0.0829
  390MOL0     H52614   6.027   4.336   2.373  2.0032 -0.2266  2.4217
  390MOL0     H52615   5.967   4.376   2.140  1.9280  0.7713 -0.0277
  390MOL0     H52616   5.834   4.210   1.970 -0.5255 -1.2576  0.4463
  390MOL0     H52617   5.878   4.242   1.806 -0.9299 -2.5853 -1.7827
  390MOL0     H52618   5.799   4.028   1.817 -1.0844  1.3019  1.6151
  390MOL0     H52619   5.976   4.024   1.778 -0.0105 -1.4928  1.0286
  390MOL0     H52620   5.853   3.944   2.043  1.3770  1.1477  1.6217
  390MOL0     H52621   6.025   3.949   2.004  1.2736  1.9945 -1.1772
  390MOL0     H52622   5.974   3.772   1.829 -2.9443  1.4391 -2.3836
  390MOL0     H52623   5.930   3.735   1.999 -0.2148 -0.9477 -0.8849
  390MOL0     H52624   5.708   3.839   1.817 -3.7550  0.2313  2.0565
  390MOL0     H52625   5.701   3.759   1.980 -1.8939  3.1208 -1.9102
  390MOL0     H52626   5.797   3.546   1.868 -0.2948 -1.1484 -1.2886
  390MOL0     H52627   5.644   3.592   1.825  0.2099  0.2695  0.1145
  390MOL0     H52628   5.913   3.627   1.679 -0.6855  1.7622  1.2677
  390MOL0     H52629   5.795   3.742   1.633 -2.1334  0.7022  0.6938
  390MOL0     H52630   5.620   3.551   1.567  0.2144 -2.4262  1.4903
  390MOL0     H52631   5.761   3.442   1.587  0.6583 -0.2651 -0.4877
  390MOL0     H52632   6.220   4.067   2.006  2.2044  0.6941 -0.5928
  390MOL0     H52633   6.311   4.035   2.243  0.8111  1.9831  3.4821
  390MOL0     H52634   6.300   4.097   2.654  2.8814 -0.3644 -1.8254
  390MOL0     H52635   6.435   4.038   2.857  1.0428  1.3827  1.2990
  390MOL0     H52636   6.945   2.689   3.722 -0.5572  1.1060  0.0800
  390MOL0     H52637   7.010   2.461   3.765 -2.7779  0.6982 -0.6856
  390MOL0     H52638   6.901   2.000   3.973 -1.0864 -1.3738 -0.0792
  390MOL0     H52639   6.999   1.802   4.045  1.0818  0.1719 -2.1810
  390MOL0     H52640   7.412   1.619   4.049  1.7881  1.0355 -3.9256
  390MOL0     H52641   7.445   1.774   4.018 -0.8275 -1.3936 -2.7075
  390MOL0     H52642   7.381   1.686   4.312 -0.4740 -1.5983 -2.5387
  390MOL0     H52643   7.395   1.850   4.265 -1.3078 -0.8532  1.0985
  390MOL0     H52644   7.587   1.730   4.359  2.3408  0.4294  0.4470
  390MOL0     H52645   7.623   1.814   4.201  1.6110 -1.5715 -1.9584
  390MOL0     H52646   7.730   1.590   4.245 -0.4848 -0.1462  0.7180
  390MOL0     H52647   7.649   1.600   4.087  2.8611 -0.4343 -0.5204
  390MOL0     H52648   7.451   1.297   4.323 -1.4649  1.7501  1.7935
  390MOL0     H52649   7.377   1.980   4.084  0.7231  4.3508  0.1566
  390MOL0     H52650   7.274   2.192   4.073  1.1185 -0.6819  0.3403
  391MOL0     O52651   7.690   6.427   6.707 -0.8736  0.1255  0.1758
  391MOL0     C52652   7.626   6.459   6.805 -0.3823 -0.7040 -0.2746
  391MOL0     O52653   7.652   6.564   6.891  0.7650 -0.6956  0.4154
  391MOL0     C52654   7.727   6.671   6.846  0.1472 -0.6533 -0.3803
  391MOL0     C52655   7.802   6.743   6.932  0.7074 -0.7415 -0.3095
  391MOL0     C52656   7.872   6.850   6.894 -0.1443  0.6106 -0.4419
  391MOL0     C52657   7.872   6.886   6.765  0.0464 -0.1105  0.3703
  391MOL0     O52658   7.951   6.987   6.744 -0.1310 -0.5597 -0.7397
  391MOL0     C52659   7.951   7.051   6.616 -0.9425 -0.1338  0.3225
  391MOL0     C52660   8.021   7.185   6.647 -0.1850 -0.0202  1.1636
  391MOL0     C52661   8.065   7.250   6.508 -0.2283  0.2589  0.6390
  391MOL0     C52662   8.211   7.206   6.469  0.3081  0.2965 -0.7590
  391MOL0     C52663   8.221   7.207   6.316  0.2772  0.1541 -0.3600
  391MOL0     C52664   8.365   7.190   6.281 -0.1779  0.0435  0.5781
  391MOL0     C52665   8.402   7.040   6.251 -1.2584 -0.1361  0.1562
  391MOL0     C52666   8.533   7.025   6.177  0.7757  1.3167  0.1099
  391MOL0     N52667   8.547   6.889   6.114  0.5168 -0.5905  0.4509
  391MOL0     C52668   8.568   6.781   6.193  0.6623 -0.7423  0.4785
  391MOL0     C52669   8.526   6.684   6.110 -0.0977  0.1529 -0.2456
  391MOL0     C52670   8.528   6.534   6.142 -1.0356 -1.0927 -0.1126
  391MOL0     C52671   8.403   6.457   6.101  0.7847  0.0417  0.2825
  391MOL0     C52672   8.287   6.498   6.201  0.1956  0.2682 -1.0899
  391MOL0     C52673   8.157   6.421   6.186 -0.7000 -1.4495  0.0382
  391MOL0     O52674   8.199   6.289   6.209  0.5356  0.7340 -0.3267
  391MOL0     C52675   8.130   6.206   6.294 -0.1692 -0.9632  0.0346
  391MOL0     C52676   8.076   6.243   6.419  0.0766  0.5409  0.6327
  391MOL0     C52677   8.000   6.152   6.486  0.3015 -0.0166 -0.3870
  391MOL0     C52678   7.921   6.222   6.603 -0.0710 -0.3842 -1.1038
  391MOL0     C52679   7.986   6.013   6.444  0.1529  1.5020 -0.2361
  391MOL0     C52680   7.916   5.907   6.519  0.6174 -0.2384 -0.1310
  391MOL0     O52681   7.929   5.773   6.482 -0.2123 -0.9052 -0.6106
  391MOL0     C52682   7.813   5.708   6.449 -0.0899  0.6914  0.3777
  391MOL0     C52683   7.819   5.577   6.409 -0.3488  0.0530 -0.2429
  391MOL0     C52684   7.710   5.503   6.370 -0.3861  0.1653 -0.8390
  391MOL0     C52685   7.583   5.567   6.368 -0.8609  1.1805 -0.6471
  391MOL0     O52686   7.467   5.523   6.318 -0.2393  0.5712  0.6014
  391MOL0     C52687   7.467   5.410   6.234  0.2526  0.0961  0.1966
  391MOL0     C52688   7.421   5.281   6.304  0.1706  0.5509 -0.4640
  391MOL0     C52689   7.372   5.188   6.194  0.2196  0.4893  1.0925
  391MOL0     C52690   7.221   5.163   6.212 -0.4258  0.2645 -0.1994
  391MOL0     C52691   7.142   5.286   6.171  0.7188 -0.7382 -0.6839
  391MOL0     C52692   6.986   5.261   6.179 -0.1892 -0.6737  0.1182
  391MOL0     C52693   6.901   5.378   6.129 -0.6825 -0.5333  0.4705
  391MOL0     C52694   6.756   5.332   6.120 -0.9126  0.3973  2.1151
  391MOL0    Cl52695   6.689   5.292   6.283  0.3447  0.1695 -0.2850
  391MOL0     C52696   7.572   5.704   6.398 -0.7700 -0.1313  0.3935
  391MOL0     C52697   7.685   5.775   6.440  0.3159  0.7858 -0.1240
  391MOL0     O52698   7.847   5.949   6.621  0.7895  0.0179  0.4996
  391MOL0     C52699   8.047   5.980   6.319 -0.7985  1.1707  0.9220
  391MOL0     C52700   8.116   6.081   6.246  0.1289 -0.1108 -0.0892
  391MOL0     N52701   8.491   6.733   5.981 -0.3675  0.3269 -0.4517
  391MOL0     N52702   8.495   6.858   5.991 -0.2252 -0.0238 -0.6309
  391MOL0     C52703   7.786   6.825   6.669 -0.7280 -0.0503 -0.4424
  391MOL0     C52704   7.712   6.717   6.710  0.5103 -0.4113 -0.5021
  391MOL0     C52705   7.522   6.352   6.862 -0.3030  0.9304  0.0581
  391MOL0     C52706   7.518   6.222   6.805 -0.1355  0.7066  0.4873
  391MOL0     C52707   7.415   6.136   6.845  0.4211  0.1198  0.3458
  391MOL0     C52708   7.319   6.171   6.943 -0.5046 -0.0243  0.3569
  391MOL0     O52709   7.223   6.080   6.974  0.1458 -0.3276 -0.4102
  391MOL0     C52710   7.256   5.953   7.025 -0.5062 -0.2867 -0.3516
  391MOL0     C52711   7.382   5.950   7.123 -0.0925  0.0489 -0.5245
  391MOL0     C52712   7.411   5.809   7.183  1.0922 -0.7412  0.1784
  391MOL0     C52713   7.462   5.715   7.065  0.3841 -0.2415  0.0926
  391MOL0     C52714   7.560   5.776   6.980 -0.5933  0.3997 -0.3790
  391MOL0     C52715   7.642   5.819   6.904 -0.7778  0.2122  0.7344
  391MOL0     C52716   7.313   6.299   6.984  0.1693  0.0201 -0.7626
  391MOL0     C52717   7.416   6.392   6.952  0.3987 -0.5218  0.5155
  391MOL0     H52718   7.817   6.698   7.030 -0.4087 -1.1928 -0.3370
  391MOL0     H52719   7.938   6.909   6.958  0.0497  3.7222 -3.2210
  391MOL0     H52720   8.014   6.997   6.544  0.3632 -1.2901  2.2539
  391MOL0     H52721   7.852   7.076   6.575  0.0663  3.1244 -0.3813
  391MOL0     H52722   7.947   7.255   6.687  0.0992  1.6557 -1.0123
  391MOL0     H52723   8.105   7.165   6.714  0.1774  0.3209  0.8191
  391MOL0     H52724   7.991   7.224   6.432  0.1800  2.6825 -0.6515
  391MOL0     H52725   8.049   7.358   6.514 -3.8897 -0.1077  0.0521
  391MOL0     H52726   8.285   7.266   6.523  0.2905 -0.9773  0.7619
  391MOL0     H52727   8.212   7.104   6.509 -2.2695 -0.1104 -1.5114
  391MOL0     H52728   8.158   7.128   6.273 -2.7384  2.9975 -1.5807
  391MOL0     H52729   8.183   7.295   6.264  0.4297  0.1631 -0.4576
  391MOL0     H52730   8.381   7.246   6.188 -4.4884 -1.7466 -1.4884
  391MOL0     H52731   8.432   7.242   6.351 -1.2531  1.0590  0.8847
  391MOL0     H52732   8.395   6.991   6.349  2.3804  0.4143  0.8238
  391MOL0     H52733   8.322   6.998   6.189  0.1642  1.4690 -3.0020
  391MOL0     H52734   8.620   7.035   6.243 -1.2453  0.2682  3.1869
  391MOL0     H52735   8.533   7.101   6.099  1.0966  0.1917 -1.0170
  391MOL0     H52736   8.607   6.773   6.294  0.6777 -2.7714  0.3427
  391MOL0     H52737   8.618   6.497   6.092  0.4949  0.4246  1.3719
  391MOL0     H52738   8.552   6.517   6.248 -0.2747 -0.0538 -0.1029
  391MOL0     H52739   8.406   6.347   6.108  0.9405  0.0648  0.6048
  391MOL0     H52740   8.392   6.488   5.997  1.0980  3.9075  1.2754
  391MOL0     H52741   8.273   6.599   6.162  0.9486 -1.3477 -6.2636
  391MOL0     H52742   8.324   6.505   6.304 -0.6004  0.9031 -0.8442
  391MOL0     H52743   8.108   6.433   6.089 -3.6740  1.7317  1.7042
  391MOL0     H52744   8.084   6.463   6.257  1.4671  0.4562  1.2832
  391MOL0     H52745   8.097   6.344   6.453  1.9245  0.1142  0.8928
  391MOL0     H52746   7.925   6.331   6.595 -1.9486 -0.2550 -0.6085
  391MOL0     H52747   7.815   6.197   6.610 -1.1440  3.0607 -2.7370
  391MOL0     H52748   7.967   6.206   6.701  0.8133 -1.7845 -1.7170
  391MOL0     H52749   7.908   5.519   6.434 -1.6050 -1.6982  0.3569
  391MOL0     H52750   7.721   5.398   6.346 -0.5238  0.9891 -5.3983
  391MOL0     H52751   7.408   5.437   6.146 -0.5958 -0.3300  0.6154
  391MOL0     H52752   7.565   5.395   6.189 -0.5133  0.4548 -1.7032
  391MOL0     H52753   7.510   5.237   6.350 -0.1187  0.1524 -0.2853
  391MOL0     H52754   7.347   5.290   6.384  0.8482 -2.2588  0.5721
  391MOL0     H52755   7.418   5.090   6.208 -1.0156  0.0954  2.7605
  391MOL0     H52756   7.395   5.215   6.091  0.6625  0.5537  1.2031
  391MOL0     H52757   7.185   5.080   6.151  0.1278 -0.0255 -0.1431
  391MOL0     H52758   7.200   5.140   6.317 -1.7234 -2.9190 -1.0454
  391MOL0     H52759   7.173   5.304   6.068 -0.1722 -1.9047 -1.1782
  391MOL0     H52760   7.172   5.374   6.228 -2.2660 -0.9894  1.5122
  391MOL0     H52761   6.957   5.172   6.121 -0.0439 -2.1687  2.2322
  391MOL0     H52762   6.975   5.250   6.287  0.9592 -2.2992  0.1064
  391MOL0     H52763   6.935   5.397   6.027  1.1917 -2.4012  0.6612
  391MOL0     H52764   6.904   5.469   6.189 -0.0560  0.1265 -0.5320
  391MOL0     H52765   6.750   5.251   6.047 -0.7194  2.3958 -0.2387
  391MOL0     H52766   6.696   5.414   6.081 -3.2275 -2.9437 -2.3297
  391MOL0     H52767   7.477   5.748   6.370 -0.6800 -0.4512 -0.4586
  391MOL0     H52768   7.672   5.883   6.444  0.6961  0.9961 -2.9156
  391MOL0     H52769   8.050   5.880   6.278  0.0239  1.5078  0.1272
  391MOL0     H52770   8.153   6.053   6.148  0.7724  1.0951 -0.2059
  391MOL0     H52771   7.786   6.856   6.565 -2.2958  4.5182  0.6840
  391MOL0     H52772   7.646   6.681   6.632 -1.6886  2.1912  0.0014
  391MOL0     H52773   7.578   6.185   6.723 -2.0284  1.4417 -1.3445
  391MOL0     H52774   7.424   6.037   6.801  1.8170 -0.0630  0.9670
  391MOL0     H52775   7.165   5.930   7.081 -1.3831  0.8175 -1.2619
  391MOL0     H52776   7.276   5.880   6.946 -2.2838 -0.6756 -0.4847
  391MOL0     H52777   7.387   6.027   7.201  2.2769  0.4719 -1.0254
  391MOL0     H52778   7.465   5.981   7.059  2.9211 -0.8186  2.6506
  391MOL0     H52779   7.313   5.773   7.216 -0.0008  3.8348  2.8933
  391MOL0     H52780   7.471   5.817   7.274 -0.9468  3.8418  1.4329
  391MOL0     H52781   7.370   5.708   7.006 -0.2407  2.8607  0.4933
  391MOL0     H52782   7.486   5.614   7.099  2.5495 -0.4955 -1.9628
  391MOL0     H52783   7.717   5.858   6.838 -2.7000  2.6525 -0.1366
  391MOL0     H52784   7.224   6.325   7.040 -0.0172 -1.2230 -0.4516
  391MOL0     H52785   7.408   6.489   7.002 -1.4009 -0.0391 -0.6328
  392MOL0     O52786   2.094   9.258   5.972  0.5775  0.1555 -0.3713
  392MOL0     C52787   2.126   9.199   6.072  0.5990 -0.2980 -0.6392
  392MOL0     O52788   2.057   9.086   6.129 -0.8063 -0.7977 -0.9668
  392MOL0     C52789   1.955   9.010   6.071 -0.2926  0.2385 -0.2721
  392MOL0     C52790   1.846   8.978   6.150 -0.6576  0.0741 -0.1731
  392MOL0     C52791   1.746   8.901   6.086 -0.1509  1.1609 -1.2850
  392MOL0     C52792   1.750   8.853   5.956  0.6986  0.3457 -0.4156
  392MOL0     O52793   1.652   8.778   5.895  0.2701  0.9728  0.1607
  392MOL0     C52794   1.522   8.793   5.941  0.5221 -0.5023  0.4005
  392MOL0     C52795   1.430   8.696   5.848 -0.5851 -0.3132  0.2933
  392MOL0     C52796   1.335   8.601   5.926  0.4723  0.7238 -0.4449
  392MOL0     C52797   1.252   8.521   5.836  0.4062  0.7217 -0.1865
  392MOL0     C52798   1.174   8.426   5.925  0.6857  0.2904 -0.3939
  392MOL0     C52799   1.049   8.365   5.851 -0.1671  0.3494  0.0613
  392MOL0     C52800   0.977   8.282   5.951 -0.0106  0.1455 -0.2271
  392MOL0     C52801   1.068   8.171   6.015 -0.7653 -0.6699 -0.1344
  392MOL0     N52802   0.983   8.093   6.103  0.8183  0.4716  0.4276
  392MOL0     C52803   0.882   7.999   6.059  0.0265 -0.4299  0.6761
  392MOL0     C52804   0.806   7.977   6.162  0.9361  0.4826  0.6971
  392MOL0     C52805   0.683   7.883   6.143  0.8113 -0.9286 -0.2654
  392MOL0     C52806   0.684   7.756   6.229  1.3194 -0.7341 -1.0493
  392MOL0     C52807   0.683   7.799   6.377  0.2654 -0.0498  0.4847
  392MOL0     C52808   0.660   7.677   6.475 -0.4002  0.8101 -0.4006
  392MOL0     O52809   0.674   7.717   6.615  0.3347  0.3676  0.0554
  392MOL0     C52810   0.716   7.624   6.705 -0.2487  0.0310  0.4573
  392MOL0     C52811   0.769   7.493   6.684  0.7599 -0.7487 -0.0837
  392MOL0     C52812   0.819   7.423   6.794  0.3805  0.7145 -0.1552
  392MOL0     C52813   0.854   7.277   6.761  0.6369  0.1602  0.3526
  392MOL0     C52814   0.802   7.464   6.929 -0.6656 -0.4933  0.4425
  392MOL0     C52815   0.858   7.400   7.053 -0.2287 -0.1757 -0.3309
  392MOL0     O52816   0.821   7.440   7.179 -0.1044 -0.4641 -0.3384
  392MOL0     C52817   0.840   7.357   7.293  0.4288  0.6296 -1.3599
  392MOL0     C52818   0.850   7.218   7.285 -0.5753  0.3550  0.4791
  392MOL0     C52819   0.855   7.135   7.403 -0.1337  0.2187 -0.7173
  392MOL0     C52820   0.861   7.181   7.533  0.9260 -0.4774  0.2105
  392MOL0     O52821   0.870   7.083   7.629  0.6140  0.0524  0.0016
  392MOL0     C52822   0.817   7.124   7.762  0.3385 -1.5376  0.6206
  392MOL0     C52823   0.809   7.017   7.878 -0.2470 -0.4014  1.4609
  392MOL0     C52824   0.718   6.900   7.830 -0.4494  0.4408  0.5839
  392MOL0     C52825   0.618   6.871   7.934 -0.3643  0.2645 -0.5412
  392MOL0     C52826   0.530   6.761   7.878  0.4339  0.5414  0.5643
  392MOL0     C52827   0.439   6.725   7.986  0.0950 -0.2583 -0.5544
  392MOL0     C52828   0.337   6.617   7.942 -0.7402 -0.4356  0.1955
  392MOL0     C52829   0.238   6.574   8.047 -0.1460 -0.2603 -0.2607
  392MOL0    Cl52830   0.306   6.507   8.208 -0.4032 -0.5478  0.1635
  392MOL0     C52831   0.871   7.326   7.543 -0.1723  0.2675  0.0595
  392MOL0     C52832   0.849   7.406   7.430  0.6343  0.1211  0.4230
  392MOL0     O52833   0.943   7.312   7.031 -0.3669  0.3352  0.0961
  392MOL0     C52834   0.736   7.591   6.950  0.7154 -0.5199 -0.0915
  392MOL0     C52835   0.697   7.676   6.837 -0.3312  0.1207 -1.2427
  392MOL0     N52836   0.843   8.057   6.264 -0.2877 -1.0695 -0.8981
  392MOL0     N52837   0.954   8.118   6.234  0.7923  0.0263  1.1921
  392MOL0     C52838   1.852   8.910   5.870 -1.0844  0.7838 -0.4295
  392MOL0     C52839   1.957   8.980   5.934  0.2272  0.1396 -0.0127
  392MOL0     C52840   2.227   9.277   6.149 -0.1669  0.2116 -0.1126
  392MOL0     C52841   2.307   9.202   6.247  0.5708 -0.4940  0.0544
  392MOL0     C52842   2.418   9.256   6.309  0.0026  0.0493 -0.0776
  392MOL0     C52843   2.431   9.389   6.296 -0.0053 -0.3584 -0.0571
  392MOL0     O52844   2.525   9.453   6.369 -0.5023 -0.0737  0.0290
  392MOL0     C52845   2.656   9.393   6.386  1.2066  0.9432 -0.2903
  392MOL0     C52846   2.680   9.357   6.528  0.1722  0.6676 -0.0203
  392MOL0     C52847   2.672   9.482   6.609  0.3951  0.4221  0.0226
  392MOL0     C52848   2.715   9.448   6.750 -0.6198 -0.7838 -0.4055
  392MOL0     C52849   2.861   9.438   6.769  0.2163  0.5811 -0.0241
  392MOL0     C52850   2.983   9.417   6.798 -0.7789  0.2047 -0.3515
  392MOL0     C52851   2.356   9.474   6.206 -0.7447 -0.6390 -0.5309
  392MOL0     C52852   2.254   9.418   6.136  0.0225  0.5017  0.1730
  392MOL0     H52853   1.850   8.991   6.257  1.5424  0.3843 -0.2517
  392MOL0     H52854   1.662   8.883   6.152 -0.0138 -0.9016 -1.6184
  392MOL0     H52855   1.513   8.764   6.046  1.0416  1.6394  1.0851
  392MOL0     H52856   1.489   8.895   5.922  1.5816 -0.8610 -4.8454
  392MOL0     H52857   1.379   8.749   5.767  2.0921 -0.1475 -1.3917
  392MOL0     H52858   1.492   8.626   5.792 -1.9855 -0.4231 -1.1994
  392MOL0     H52859   1.387   8.546   6.005  0.5161  1.6375  0.1932
  392MOL0     H52860   1.263   8.666   5.977  1.3085  0.7613  0.7414
  392MOL0     H52861   1.191   8.579   5.766  0.8165 -0.4132 -1.5346
  392MOL0     H52862   1.305   8.451   5.771 -1.5034  0.6151 -1.7369
  392MOL0     H52863   1.240   8.348   5.964  1.2115 -0.0344 -1.8969
  392MOL0     H52864   1.135   8.478   6.013  3.8076  3.6370 -0.7413
  392MOL0     H52865   0.974   8.436   5.813  1.5036  0.9867 -2.2614
  392MOL0     H52866   1.081   8.318   5.758 -1.6218 -0.8115  0.1039
  392MOL0     H52867   0.926   8.337   6.030  0.6679  0.2499  0.1437
  392MOL0     H52868   0.895   8.226   5.904 -0.5394  2.2124 -1.9153
  392MOL0     H52869   1.141   8.210   6.086 -0.9015 -1.0120  0.1967
  392MOL0     H52870   1.118   8.105   5.943  0.5055 -0.2756  0.3556
  392MOL0     H52871   0.863   7.956   5.961 -0.1664  1.0335  0.0440
  392MOL0     H52872   0.594   7.939   6.171  2.0620  0.8754  0.3394
  392MOL0     H52873   0.665   7.867   6.036  1.2830 -1.5503 -0.2598
  392MOL0     H52874   0.774   7.698   6.204  2.3626  1.5370 -2.9442
  392MOL0     H52875   0.597   7.693   6.206 -0.1201  1.2205 -1.1204
  392MOL0     H52876   0.593   7.860   6.389  1.4181  2.1440 -1.2131
  392MOL0     H52877   0.774   7.857   6.389 -1.7511  3.1280  1.7948
  392MOL0     H52878   0.730   7.595   6.457  0.2676  1.2503  0.1458
  392MOL0     H52879   0.567   7.620   6.470 -0.6889  1.2534 -0.1873
  392MOL0     H52880   0.762   7.449   6.585  0.4174 -0.9486  0.0284
  392MOL0     H52881   0.960   7.256   6.744  0.2919 -2.6925  1.2854
  392MOL0     H52882   0.819   7.209   6.839 -2.0329 -1.1710 -1.8203
  392MOL0     H52883   0.800   7.259   6.667  2.4260  3.8619 -1.6041
  392MOL0     H52884   0.843   7.180   7.183 -3.0183  2.8431 -0.4090
  392MOL0     H52885   0.863   7.028   7.389 -0.6939 -0.1169  1.2843
  392MOL0     H52886   0.876   7.210   7.796 -0.1179 -0.4744 -1.1379
  392MOL0     H52887   0.719   7.165   7.738  1.7328  0.1068 -2.9375
  392MOL0     H52888   0.910   6.988   7.907  0.7377  0.1969 -1.1050
  392MOL0     H52889   0.763   7.060   7.968 -1.5458 -0.3613  0.8025
  392MOL0     H52890   0.777   6.814   7.796 -0.5517  1.2750 -1.9770
  392MOL0     H52891   0.666   6.937   7.741 -1.1801  0.5247  1.0429
  392MOL0     H52892   0.669   6.837   8.025 -2.7608 -1.6280  0.2114
  392MOL0     H52893   0.555   6.954   7.965 -1.2136 -1.3393  2.4255
  392MOL0     H52894   0.581   6.668   7.852 -0.2837  0.3060 -0.0487
  392MOL0     H52895   0.474   6.791   7.789  1.7895 -1.8121 -1.1849
  392MOL0     H52896   0.491   6.687   8.074 -0.1209 -1.6058 -0.9847
  392MOL0     H52897   0.391   6.814   8.026  1.3473  0.0437  0.3662
  392MOL0     H52898   0.400   6.531   7.916  1.9122  1.4520 -0.0526
  392MOL0     H52899   0.277   6.661   7.861  0.6206 -1.1787 -1.2652
  392MOL0     H52900   0.170   6.500   8.005  0.4561 -1.5167  0.9266
  392MOL0     H52901   0.174   6.661   8.067  1.5591  0.2453  3.8938
  392MOL0     H52902   0.889   7.378   7.637  0.3556  1.8460 -0.8636
  392MOL0     H52903   0.849   7.512   7.456 -3.4119  0.0418  1.5283
  392MOL0     H52904   0.713   7.631   7.048 -1.0087 -2.3177  0.2925
  392MOL0     H52905   0.665   7.779   6.848  1.1652  0.3297  2.3882
  392MOL0     H52906   1.853   8.888   5.763  2.1957  0.7099 -0.4950
  392MOL0     H52907   2.041   9.020   5.878  0.5897  0.8003  0.9916
  392MOL0     H52908   2.290   9.098   6.275 -1.3548 -0.0146  0.7719
  392MOL0     H52909   2.474   9.186   6.369 -0.2286 -0.6991 -0.7195
  392MOL0     H52910   2.663   9.302   6.326 -1.0364  1.1823 -0.9849
  392MOL0     H52911   2.739   9.453   6.348 -0.5205  1.8125 -2.9825
  392MOL0     H52912   2.774   9.305   6.544  0.0119  0.4753  0.2985
  392MOL0     H52913   2.603   9.292   6.569  1.7193  0.7821  3.3733
  392MOL0     H52914   2.573   9.528   6.612  0.1627 -0.0351 -0.3847
  392MOL0     H52915   2.739   9.545   6.549 -2.1730  1.1178 -2.3369
  392MOL0     H52916   2.666   9.354   6.778 -2.9675 -0.2024 -2.2395
  392MOL0     H52917   2.669   9.524   6.815  0.0718  0.4595 -1.3196
  392MOL0     H52918   3.088   9.399   6.799 -1.2225 -2.9309 -0.6366
  392MOL0     H52919   2.384   9.577   6.186  2.5144 -1.4443 -0.6419
  392MOL0     H52920   2.204   9.477   6.060  3.7368  3.1734 -0.4832
  393MOL0     O52921   7.900   0.803   1.884  0.2863  0.2260  0.2822
  393MOL0     C52922   7.906   0.779   2.000  0.3471 -0.2496 -1.2323
  393MOL0     O52923   7.952   0.867   2.095 -0.3677  0.3174 -0.9701
  393MOL0     C52924   8.026   0.984   2.069 -0.2425 -0.6655  0.4883
  393MOL0     C52925   8.149   0.985   1.998  0.4182 -0.9077  0.1438
  393MOL0     C52926   8.211   1.104   1.963  0.1223  0.3260  1.0876
  393MOL0     C52927   8.138   1.227   1.973 -0.3626 -0.1627  1.0185
  393MOL0     O52928   8.194   1.351   1.941 -0.4446  0.2228 -0.1894
  393MOL0     C52929   8.105   1.462   1.916  0.1797 -0.1716 -0.1356
  393MOL0     C52930   8.178   1.564   1.824  0.0817  0.0458 -0.1275
  393MOL0     C52931   8.175   1.696   1.911  0.2820 -0.4069  1.2140
  393MOL0     C52932   8.299   1.785   1.878  0.0793 -0.4035 -0.0258
  393MOL0     C52933   8.279   1.917   1.943 -0.1875  0.5942  0.4539
  393MOL0     C52934   8.384   2.016   1.901 -1.3085  0.5520  0.0057
  393MOL0     C52935   8.332   2.157   1.918 -1.0334 -0.5741  0.1630
  393MOL0     C52936   8.439   2.271   1.927  0.7824  0.8230  0.0791
  393MOL0     N52937   8.478   2.283   2.063 -0.8789  0.1272 -0.3347
  393MOL0     C52938   8.402   2.346   2.153 -0.4407  0.1639 -0.6154
  393MOL0     C52939   8.480   2.342   2.270  0.3526 -0.8047 -0.4135
  393MOL0     C52940   8.443   2.414   2.395 -0.6336 -0.1429  0.3971
  393MOL0     C52941   8.354   2.335   2.498  0.2971 -0.3845 -0.3045
  393MOL0     C52942   8.342   2.391   2.641 -0.0117 -0.8609 -0.0827
  393MOL0     C52943   8.226   2.326   2.713 -0.1582  0.5023  1.1359
  393MOL0     O52944   8.222   2.176   2.695 -0.0000 -0.1477  0.2496
  393MOL0     C52945   8.321   2.089   2.726  0.6212  0.1699  0.0584
  393MOL0     C52946   8.302   1.958   2.692 -0.9978  0.6553 -0.1751
  393MOL0     C52947   8.395   1.863   2.725 -0.1038 -0.6385  0.3570
  393MOL0     C52948   8.358   1.716   2.686  0.3615  1.1378 -0.3248
  393MOL0     C52949   8.523   1.897   2.785  0.6281  0.4942  0.9610
  393MOL0     C52950   8.638   1.809   2.798 -0.8714  1.0675  0.4041
  393MOL0     O52951   8.773   1.859   2.824  0.1582 -0.5299  0.1234
  393MOL0     C52952   8.885   1.765   2.813 -0.6885  0.4217  0.4177
  393MOL0     C52953   8.987   1.751   2.913 -0.5617  0.3201  0.2818
  393MOL0     C52954   9.101   1.673   2.899  0.4129 -0.0945  1.3770
  393MOL0     C52955   9.113   1.596   2.782  0.1790  0.1387 -0.1767
  393MOL0     O52956   9.229   1.533   2.753  0.1235  0.2925 -0.3293
  393MOL0     C52957   9.278   1.433   2.853 -0.1098 -0.2506  0.1006
  393MOL0     C52958   9.337   1.305   2.782  1.7371  0.4225 -0.0063
  393MOL0     C52959   9.397   1.202   2.887 -0.1725 -0.2177  0.3393
  393MOL0     C52960   9.508   1.132   2.818  0.8247 -0.6342 -0.0724
  393MOL0     C52961   9.450   1.022   2.728 -0.5098 -0.6806  0.2418
  393MOL0     C52962   9.550   0.942   2.639 -0.0680  0.0059  0.0799
  393MOL0     C52963   9.487   0.823   2.579 -0.0869  0.8644  0.9388
  393MOL0     C52964   9.595   0.758   2.496  0.0951  0.3876 -0.1841
  393MOL0    Cl52965   9.511   0.624   2.409  0.0434 -0.3064 -0.2471
  393MOL0     C52966   9.025   1.611   2.681  0.1960  0.2658  0.3907
  393MOL0     C52967   8.906   1.688   2.692  0.2344 -0.1265 -0.7775
  393MOL0     O52968   8.618   1.688   2.786 -0.5289 -0.0326  0.5144
  393MOL0     C52969   8.535   2.026   2.831 -1.2626  0.2674  0.9754
  393MOL0     C52970   8.431   2.120   2.807 -0.0077 -0.4565 -0.1112
  393MOL0     N52971   8.600   2.282   2.240 -0.5461  0.0967 -0.0371
  393MOL0     N52972   8.597   2.244   2.123  0.5262  0.0055  0.6730
  393MOL0     C52973   8.023   1.228   2.059 -0.7819 -0.2114  0.0460
  393MOL0     C52974   7.965   1.110   2.101  0.5179  0.2656  0.8501
  393MOL0     C52975   7.861   0.646   2.055  0.6765  0.3078  0.1253
  393MOL0     C52976   7.834   0.629   2.192 -0.0577  0.3879 -0.3865
  393MOL0     C52977   7.785   0.509   2.244 -0.5339 -0.1335  0.0399
  393MOL0     C52978   7.794   0.391   2.170 -0.7853 -0.0989 -1.3120
  393MOL0     O52979   7.757   0.267   2.217  0.6073  0.2563 -0.4781
  393MOL0     C52980   7.715   0.256   2.355  0.6020 -1.1533  0.4950
  393MOL0     C52981   7.645   0.114   2.379 -0.7103  0.1473 -0.0179
  393MOL0     C52982   7.731   0.001   2.310 -0.5941 -1.1522 -0.1553
  393MOL0     C52983   7.676  -0.129   2.368  0.1351  1.5034 -0.1006
  393MOL0     C52984   7.534  -0.145   2.346  0.1226 -0.2537  0.2270
  393MOL0     C52985   7.413  -0.155   2.323  0.1353 -0.5725  0.8838
  393MOL0     C52986   7.830   0.406   2.038  0.3750  1.0603  0.8933
  393MOL0     C52987   7.860   0.526   1.977  0.0707 -0.7190 -1.1630
  393MOL0     H52988   8.202   0.900   1.954 -0.1955  0.8427 -4.5405
  393MOL0     H52989   8.311   1.100   1.920  0.9393 -0.5743  2.9880
  393MOL0     H52990   8.016   1.439   1.857 -1.3438 -0.6604  2.2310
  393MOL0     H52991   8.076   1.503   2.014 -2.3305  1.3180 -1.3974
  393MOL0     H52992   8.281   1.529   1.814  0.3497  0.6501  0.5246
  393MOL0     H52993   8.142   1.575   1.721 -0.5381  0.1424  0.0916
  393MOL0     H52994   8.085   1.746   1.875 -1.3045 -3.8981 -0.1669
  393MOL0     H52995   8.166   1.675   2.018  0.8857  0.2078  1.3913
  393MOL0     H52996   8.396   1.748   1.912  0.7393  1.1211 -0.1561
  393MOL0     H52997   8.296   1.809   1.772 -2.3302 -2.7527 -0.6037
  393MOL0     H52998   8.185   1.963   1.911  0.8777  2.6292  0.0930
  393MOL0     H52999   8.280   1.902   2.052  2.3157 -0.9216  0.3048
  393MOL0     H53000   8.461   2.000   1.978 -3.9577  1.6884  3.1557
  393MOL0     H53001   8.410   2.004   1.796 -0.7909 -1.3252  0.3081
  393MOL0     H53002   8.272   2.174   1.828 -0.4481 -0.2612 -0.1701
  393MOL0     H53003   8.266   2.170   2.005 -1.3664  0.7995 -0.2718
  393MOL0     H53004   8.397   2.366   1.894  1.9077  0.8505 -1.3996
  393MOL0     H53005   8.525   2.244   1.865 -0.9811 -3.7021 -0.7772
  393MOL0     H53006   8.308   2.397   2.136 -2.0348 -0.4139  4.6697
  393MOL0     H53007   8.535   2.445   2.447 -0.7933  1.6719 -0.3627
  393MOL0     H53008   8.400   2.507   2.357  2.0736  1.3080  0.5984
  393MOL0     H53009   8.405   2.238   2.510  2.8566  0.7001 -1.5716
  393MOL0     H53010   8.253   2.317   2.459 -1.3094  0.0279  3.2658
  393MOL0     H53011   8.331   2.499   2.631 -3.0620 -1.2189 -2.1504
  393MOL0     H53012   8.439   2.367   2.686  2.5590  0.9179 -4.0612
  393MOL0     H53013   8.134   2.371   2.675 -2.5264 -4.2697  0.5178
  393MOL0     H53014   8.218   2.351   2.819 -3.0560  1.6140  0.7421
  393MOL0     H53015   8.212   1.933   2.637 -0.1418  2.7464 -2.7095
  393MOL0     H53016   8.258   1.707   2.644  0.8971 -2.5582 -1.1217
  393MOL0     H53017   8.425   1.690   2.604  2.4715  0.0531  1.6079
  393MOL0     H53018   8.376   1.636   2.758  0.0626 -1.0722 -2.5860
  393MOL0     H53019   8.975   1.818   2.997 -0.1219 -0.7222  1.2094
  393MOL0     H53020   9.181   1.662   2.971  0.5280  1.0299  1.4266
  393MOL0     H53021   9.367   1.477   2.899  1.0991 -0.5231 -1.8743
  393MOL0     H53022   9.192   1.413   2.918 -1.1795 -3.9315 -2.1229
  393MOL0     H53023   9.268   1.260   2.711  1.8598  0.7475 -0.3378
  393MOL0     H53024   9.416   1.335   2.712  3.3186 -0.1229  1.4658
  393MOL0     H53025   9.314   1.135   2.912 -2.7075  2.3266 -0.6421
  393MOL0     H53026   9.437   1.257   2.973  0.3461 -0.7668  0.4488
  393MOL0     H53027   9.574   1.208   2.775  2.2192 -1.4402  0.5895
  393MOL0     H53028   9.555   1.097   2.910  0.7844 -1.2926 -0.2953
  393MOL0     H53029   9.377   1.065   2.659 -0.8135  1.7210  1.9491
  393MOL0     H53030   9.387   0.962   2.793 -2.3847  2.0482  1.1285
  393MOL0     H53031   9.593   1.003   2.559 -0.9287  0.3547 -0.1267
  393MOL0     H53032   9.634   0.917   2.705 -0.1019  1.8163  0.8759
  393MOL0     H53033   9.406   0.862   2.517 -1.0891  0.2575  1.8429
  393MOL0     H53034   9.448   0.756   2.656  1.6696 -0.7772  0.4595
  393MOL0     H53035   9.669   0.710   2.561  0.3362  3.6336  2.1736
  393MOL0     H53036   9.638   0.841   2.438 -2.5754  1.4581 -0.7707
  393MOL0     H53037   9.043   1.568   2.584  1.0419  0.6135  0.3881
  393MOL0     H53038   8.828   1.695   2.616  0.5912 -2.3822 -1.4416
  393MOL0     H53039   8.621   2.052   2.893  0.0294 -3.6298  1.0538
  393MOL0     H53040   8.444   2.220   2.846 -3.0705  0.1517 -0.3544
  393MOL0     H53041   7.992   1.325   2.095  0.3150 -0.4445  1.7507
  393MOL0     H53042   7.887   1.122   2.175 -1.1893  0.6606 -0.9503
  393MOL0     H53043   7.835   0.711   2.263 -1.2179 -0.2839  0.4689
  393MOL0     H53044   7.746   0.521   2.345 -3.3899  0.9355 -1.0864
  393MOL0     H53045   7.807   0.261   2.413  2.0769  0.0090 -1.8172
  393MOL0     H53046   7.639   0.330   2.384 -0.7509 -1.5847 -1.7121
  393MOL0     H53047   7.543   0.120   2.341 -0.5158  4.2220 -0.3633
  393MOL0     H53048   7.648   0.088   2.486 -3.0852  0.2165  0.1148
  393MOL0     H53049   7.838   0.003   2.336 -0.2980 -3.5286 -0.9919
  393MOL0     H53050   7.718  -0.001   2.202 -1.8912 -0.5492 -0.0300
  393MOL0     H53051   7.700  -0.142   2.474  0.3919  0.4237 -0.2761
  393MOL0     H53052   7.738  -0.204   2.318 -1.3961  0.8795 -1.1630
  393MOL0     H53053   7.306  -0.150   2.310  0.1547  0.3747  1.0002
  393MOL0     H53054   7.820   0.319   1.974  3.5410  0.6236  0.8192
  393MOL0     H53055   7.868   0.533   1.869 -1.8250 -1.8122 -1.4287
  394MOL0     O53056   7.676   5.368   5.559  0.4011  0.2186  0.3861
  394MOL0     C53057   7.742   5.447   5.496 -0.6904  0.8388 -0.4311
  394MOL0     O53058   7.869   5.418   5.452  0.0818  0.3798  0.4841
  394MOL0     C53059   7.932   5.302   5.480 -0.4449 -0.2091  0.8535
  394MOL0     C53060   7.961   5.271   5.615  0.4293  0.2580  0.3692
  394MOL0     C53061   8.048   5.169   5.641  0.5873 -0.3425 -1.3749
  394MOL0     C53062   8.100   5.088   5.541  1.0990 -1.3316  0.9121
  394MOL0     O53063   8.160   4.978   5.579 -0.7787 -0.1789  0.0745
  394MOL0     C53064   8.303   4.967   5.536  0.8037 -0.5539 -0.0517
  394MOL0     C53065   8.395   4.946   5.651  0.2418  0.2621 -0.3487
  394MOL0     C53066   8.534   4.967   5.616  0.3278  0.4608 -0.1742
  394MOL0     C53067   8.613   4.922   5.737 -0.9021  0.0551  0.3135
  394MOL0     C53068   8.758   4.973   5.726 -0.0258  0.0497  0.1606
  394MOL0     C53069   8.827   4.925   5.852 -0.7110  0.8495 -0.8708
  394MOL0     C53070   8.953   4.995   5.876  0.1790 -0.0673 -0.1330
  394MOL0     C53071   9.039   4.946   5.993 -0.4235 -0.5484 -0.2678
  394MOL0     N53072   8.974   4.970   6.125  0.2296  0.7168 -0.3624
  394MOL0     C53073   8.897   4.861   6.178  0.2888 -0.7832  0.8274
  394MOL0     C53074   8.845   4.913   6.288 -0.1653  0.3350  0.0056
  394MOL0     C53075   8.763   4.836   6.383  0.5409 -1.0196 -0.3499
  394MOL0     C53076   8.623   4.903   6.408 -1.1267  0.9986  0.6174
  394MOL0     C53077   8.539   4.838   6.522  0.1923 -0.3262  0.9624
  394MOL0     C53078   8.386   4.852   6.503 -0.7633 -0.0255 -0.4044
  394MOL0     O53079   8.349   4.991   6.507  0.5393  0.4530  0.0045
  394MOL0     C53080   8.216   5.014   6.498  0.0943  0.1972  0.3100
  394MOL0     C53081   8.112   4.927   6.443  0.9139  0.3686 -0.0974
  394MOL0     C53082   7.978   4.956   6.446 -0.3909  0.3746 -0.6337
  394MOL0     C53083   7.872   4.860   6.398 -0.6014 -0.0751  0.4090
  394MOL0     C53084   7.938   5.083   6.503  0.1329  0.6631 -0.0604
  394MOL0     C53085   7.794   5.126   6.505 -0.1451  0.3255 -0.4135
  394MOL0     O53086   7.765   5.180   6.624  0.0930 -0.1672 -0.5161
  394MOL0     C53087   7.625   5.212   6.656  0.9196  0.0152  0.4880
  394MOL0     C53088   7.602   5.322   6.729 -0.0225  0.3908 -0.1071
  394MOL0     C53089   7.473   5.361   6.764 -0.7067  0.5534  1.0096
  394MOL0     C53090   7.363   5.281   6.725 -0.1469 -0.4407 -1.0284
  394MOL0     O53091   7.235   5.321   6.781  0.3092  0.2691 -0.0233
  394MOL0     C53092   7.107   5.283   6.715  0.1362  0.1875 -0.4592
  394MOL0     C53093   7.088   5.353   6.593  0.5932  0.8019  0.8902
  394MOL0     C53094   7.136   5.495   6.604 -0.2782 -0.3184  0.3976
  394MOL0     C53095   7.097   5.594   6.491  0.0094  0.6319  0.6581
  394MOL0     C53096   7.115   5.742   6.533 -0.3890 -0.3973 -0.8894
  394MOL0     C53097   7.102   5.836   6.419 -0.2024 -0.2386 -0.3735
  394MOL0     C53098   7.102   5.983   6.482  0.2187 -0.0797  0.0460
  394MOL0     C53099   7.220   6.024   6.565  1.3601 -0.5707  0.1299
  394MOL0    Cl53100   7.371   6.027   6.471  0.3603  0.1591  0.2034
  394MOL0     C53101   7.388   5.163   6.641  0.3387 -0.6627  0.0968
  394MOL0     C53102   7.514   5.131   6.607 -0.0124 -0.2733 -0.4823
  394MOL0     O53103   7.715   5.096   6.417 -0.0294 -0.4184  0.3009
  394MOL0     C53104   8.039   5.178   6.538  0.1214  0.0269 -0.2708
  394MOL0     C53105   8.174   5.143   6.540 -0.7148  0.6604 -0.1440
  394MOL0     N53106   8.885   5.042   6.300 -0.0239  0.2079  0.5057
  394MOL0     N53107   8.969   5.075   6.212  0.2409 -0.1415 -0.7594
  394MOL0     C53108   8.066   5.110   5.404 -1.0079 -0.0334  0.4518
  394MOL0     C53109   7.988   5.217   5.375  0.9290 -0.3465 -1.1033
  394MOL0     C53110   7.666   5.575   5.452  0.1802 -0.0959  0.7049
  394MOL0     C53111   7.736   5.677   5.391  0.1413 -0.2619  0.4883
  394MOL0     C53112   7.675   5.795   5.341  0.2238  0.1945  0.4023
  394MOL0     C53113   7.538   5.804   5.355  0.7282  0.6082  0.5718
  394MOL0     O53114   7.453   5.896   5.295 -0.6133 -0.0036  0.6416
  394MOL0     C53115   7.510   6.003   5.219 -0.4184 -0.9105  0.6512
  394MOL0     C53116   7.401   6.116   5.187 -0.0736  0.2268 -0.4358
  394MOL0     C53117   7.284   6.031   5.129  0.0102 -0.1279  0.1628
  394MOL0     C53118   7.179   6.109   5.048 -0.0327  0.0666  1.1651
  394MOL0     C53119   7.095   6.026   4.954 -0.3226 -0.9035  0.0393
  394MOL0     C53120   7.033   5.953   4.880 -0.5551  0.6189 -0.5105
  394MOL0     C53121   7.466   5.712   5.415 -0.3548  0.1825  0.7838
  394MOL0     C53122   7.527   5.596   5.456  0.4802 -0.0181 -1.1045
  394MOL0     H53123   7.929   5.334   5.697  1.1788 -2.6003  3.0618
  394MOL0     H53124   8.083   5.156   5.743 -1.6206  2.9824 -0.0237
  394MOL0     H53125   8.305   4.875   5.477  0.8794 -0.3489 -0.3691
  394MOL0     H53126   8.325   5.055   5.476  0.1338 -0.4296 -0.1199
  394MOL0     H53127   8.375   5.016   5.733 -1.2868 -1.7774  1.1215
  394MOL0     H53128   8.386   4.840   5.679  0.4188 -0.1118 -1.6364
  394MOL0     H53129   8.567   4.906   5.531  0.6152 -1.9681  1.5535
  394MOL0     H53130   8.555   5.072   5.595  0.4759  0.3294 -0.6957
  394MOL0     H53131   8.574   4.959   5.832  3.1109 -0.5427  2.4073
  394MOL0     H53132   8.606   4.812   5.735  0.8174 -0.0594 -0.9937
  394MOL0     H53133   8.800   4.931   5.634 -1.3480  4.1396 -2.5581
  394MOL0     H53134   8.750   5.082   5.723  0.5609  0.1144  0.7082
  394MOL0     H53135   8.766   4.942   5.940 -0.0190  4.9363 -1.0124
  394MOL0     H53136   8.861   4.821   5.842 -0.7302  0.9517 -2.3027
  394MOL0     H53137   9.012   4.981   5.785  1.9082 -1.5392  1.1326
  394MOL0     H53138   8.938   5.103   5.882  2.6244  0.3670 -0.8545
  394MOL0     H53139   9.128   5.009   5.980 -2.7977  3.1324 -0.1667
  394MOL0     H53140   9.069   4.842   5.979  0.6110 -0.2075 -0.6874
  394MOL0     H53141   8.889   4.759   6.143 -0.1628 -0.1298 -1.1315
  394MOL0     H53142   8.751   4.734   6.343  0.2821 -1.6573  1.2914
  394MOL0     H53143   8.829   4.821   6.469  3.6080  3.0260 -1.6715
  394MOL0     H53144   8.559   4.876   6.324 -1.4648 -5.7594  2.4689
  394MOL0     H53145   8.636   5.011   6.426  3.4356  1.1260 -1.9515
  394MOL0     H53146   8.563   4.884   6.618  2.1418 -2.0611  1.3888
  394MOL0     H53147   8.559   4.730   6.516  0.2882 -0.2778  0.3401
  394MOL0     H53148   8.339   4.788   6.578  2.1015 -0.1170  1.4599
  394MOL0     H53149   8.342   4.820   6.408 -0.7154 -2.1948  0.2509
  394MOL0     H53150   8.142   4.842   6.383 -2.3183  1.2041 -3.2365
  394MOL0     H53151   7.850   4.890   6.295  0.8716  0.8203  0.3179
  394MOL0     H53152   7.901   4.755   6.409  1.3278 -0.1800 -3.7792
  394MOL0     H53153   7.787   4.865   6.467 -1.9664 -0.3194 -1.1846
  394MOL0     H53154   7.683   5.381   6.768 -0.8835 -0.1633  2.7255
  394MOL0     H53155   7.454   5.451   6.823 -1.6492  0.0082  1.5754
  394MOL0     H53156   7.083   5.178   6.699 -4.6253  0.7773  1.0712
  394MOL0     H53157   7.029   5.303   6.789  2.0499 -0.7026  1.9581
  394MOL0     H53158   7.138   5.306   6.508  0.3916  2.2708 -0.0874
  394MOL0     H53159   6.985   5.329   6.566  1.0997 -3.1762  1.9108
  394MOL0     H53160   7.245   5.495   6.615 -0.3582 -1.6640  1.3437
  394MOL0     H53161   7.092   5.542   6.691  0.8102  0.1157  0.7307
  394MOL0     H53162   7.161   5.566   6.407 -2.1391  4.7556 -2.7475
  394MOL0     H53163   6.993   5.569   6.470  0.4281 -0.1406 -0.5997
  394MOL0     H53164   7.208   5.742   6.591 -1.3300 -2.2694  0.7787
  394MOL0     H53165   7.044   5.756   6.615  1.8643 -3.3558  1.8369
  394MOL0     H53166   7.195   5.825   6.362  0.5328 -3.5982  1.1859
  394MOL0     H53167   7.014   5.823   6.357 -1.0419  1.0909  0.4918
  394MOL0     H53168   7.018   5.999   6.549  0.1595 -0.6987  0.1299
  394MOL0     H53169   7.093   6.043   6.391  1.5685 -0.8388 -0.6265
  394MOL0     H53170   7.226   5.955   6.650 -4.2355 -2.8315 -0.8909
  394MOL0     H53171   7.200   6.126   6.598  3.1285 -0.4071  0.8057
  394MOL0     H53172   7.304   5.099   6.615  1.4851 -1.6841 -1.2676
  394MOL0     H53173   7.518   5.036   6.555 -1.1614 -1.8469  2.1162
  394MOL0     H53174   8.005   5.273   6.577 -1.7657 -1.6709  2.6094
  394MOL0     H53175   8.248   5.217   6.569  0.1394 -1.6315  4.5398
  394MOL0     H53176   8.118   5.050   5.330  3.2574  1.8941  1.5743
  394MOL0     H53177   7.963   5.249   5.274 -0.4088  1.2366 -0.3186
  394MOL0     H53178   7.844   5.671   5.389  0.4118  1.9933  2.9988
  394MOL0     H53179   7.736   5.878   5.306  1.6951 -0.7919  0.5563
  394MOL0     H53180   7.583   6.050   5.286 -0.6271 -3.0691  2.5061
  394MOL0     H53181   7.564   5.960   5.134  4.3832  2.4379  1.5975
  394MOL0     H53182   7.433   6.192   5.115  0.9065  0.6749  0.4341
  394MOL0     H53183   7.372   6.161   5.282  0.0862 -1.3244  0.3797
  394MOL0     H53184   7.222   5.998   5.214 -1.3954 -3.4113 -1.9380
  394MOL0     H53185   7.319   5.950   5.066 -0.5125 -2.0823  2.2297
  394MOL0     H53186   7.233   6.181   4.987 -1.5141 -0.2557 -0.6389
  394MOL0     H53187   7.122   6.170   5.119  1.6305  1.4572  1.3528
  394MOL0     H53188   6.973   5.893   4.814  2.5593 -1.9903 -1.2127
  394MOL0     H53189   7.358   5.716   5.425 -0.2252 -0.3277  2.9299
  394MOL0     H53190   7.462   5.516   5.491 -2.1367  1.6310 -1.8853
  395MOL0     O53191   1.275   0.302   3.689 -0.0574  0.6182  0.0830
  395MOL0     C53192   1.190   0.304   3.777  0.8195 -0.6169 -1.0529
  395MOL0     O53193   1.076   0.238   3.779 -0.1552 -0.2851 -0.4616
  395MOL0     C53194   1.025   0.176   3.665  0.0984 -0.3963 -1.3088
  395MOL0     C53195   0.977   0.044   3.667  0.6248  0.0492  0.2035
  395MOL0     C53196   0.954  -0.039   3.551 -0.0814 -0.4598  0.2176
  395MOL0     C53197   0.969   0.017   3.422 -0.2120 -0.1327 -0.9465
  395MOL0     O53198   0.964  -0.048   3.304 -0.1222 -0.3182  0.6581
  395MOL0     C53199   1.039  -0.176   3.308 -0.3236 -0.0979 -0.2900
  395MOL0     C53200   1.151  -0.192   3.212 -0.4626 -0.0558 -0.3155
  395MOL0     C53201   1.258  -0.070   3.219  0.4259  0.3591  0.5940
  395MOL0     C53202   1.216   0.045   3.142  0.5489 -0.2302  0.9965
  395MOL0     C53203   1.343   0.129   3.115  0.5909 -0.1651 -0.7146
  395MOL0     C53204   1.340   0.199   2.977 -0.5122  0.2455 -0.7144
  395MOL0     C53205   1.220   0.294   2.929  0.2755  0.0616 -0.4064
  395MOL0     C53206   1.259   0.399   2.816  1.0285  1.4562  1.0852
  395MOL0     N53207   1.323   0.334   2.699 -1.4347 -0.5721 -0.4934
  395MOL0     C53208   1.255   0.308   2.587  0.4241  0.5070 -1.3097
  395MOL0     C53209   1.359   0.303   2.494 -0.2598  0.1531  0.1504
  395MOL0     C53210   1.346   0.264   2.355 -0.1051  0.0808  0.4215
  395MOL0     C53211   1.272   0.382   2.281  0.1527 -0.4471  1.1441
  395MOL0     C53212   1.248   0.341   2.133 -0.5892 -0.6591  0.3785
  395MOL0     C53213   1.221   0.461   2.040 -0.9574 -0.4953 -0.9013
  395MOL0     O53214   1.350   0.526   2.028 -0.1500 -0.1979 -0.2509
  395MOL0     C53215   1.361   0.657   2.030  0.9074 -0.3565 -0.0104
  395MOL0     C53216   1.490   0.712   2.036 -0.4750 -0.2047  0.2091
  395MOL0     C53217   1.522   0.850   2.011 -0.3870  0.1706 -0.4437
  395MOL0     C53218   1.659   0.889   2.056  0.1216  0.3754 -0.6575
  395MOL0     C53219   1.413   0.937   1.979  1.0933  0.7657 -0.7450
  395MOL0     C53220   1.419   1.091   1.972 -0.7542 -0.0515 -0.2604
  395MOL0     O53221   1.535   1.162   2.012  0.0251 -0.2515  1.0680
  395MOL0     C53222   1.532   1.291   2.050  0.0957  0.5147  0.0299
  395MOL0     C53223   1.602   1.307   2.176  0.5145  0.2514  0.1462
  395MOL0     C53224   1.590   1.436   2.233 -0.1116  1.2153  0.2330
  395MOL0     C53225   1.517   1.542   2.178  0.3673  0.2436 -1.1027
  395MOL0     O53226   1.501   1.666   2.230  0.7053 -0.1142  0.0772
  395MOL0     C53227   1.582   1.705   2.338 -0.1876  0.2062  0.3886
  395MOL0     C53228   1.608   1.858   2.342  0.1461 -0.6714 -0.8168
  395MOL0     C53229   1.655   1.928   2.214 -0.0224 -0.4171 -0.1863
  395MOL0     C53230   1.806   1.900   2.176  0.0866  0.8642  0.0035
  395MOL0     C53231   1.850   1.947   2.035  0.1609  0.2653  0.4215
  395MOL0     C53232   2.002   1.937   2.006  0.4620 -0.7120  0.1579
  395MOL0     C53233   2.061   1.801   2.027  0.4922 -0.5665  0.3283
  395MOL0     C53234   2.212   1.789   2.027  0.4238  0.0453  0.4623
  395MOL0    Cl53235   2.276   1.625   2.049 -0.3047 -0.2572  0.2204
  395MOL0     C53236   1.452   1.519   2.055 -0.4117  0.9775  0.7367
  395MOL0     C53237   1.457   1.395   1.993  0.7129  0.5904  0.3601
  395MOL0     O53238   1.310   1.142   1.932 -0.0695  0.1824 -0.4887
  395MOL0     C53239   1.278   0.883   1.988  1.0883  0.0357 -0.4938
  395MOL0     C53240   1.254   0.749   2.013  0.1043 -0.5978  0.0572
  395MOL0     N53241   1.481   0.319   2.562 -0.1641  0.4484  0.0700
  395MOL0     N53242   1.460   0.334   2.682 -0.4240 -0.1303 -1.4448
  395MOL0     C53243   0.981   0.159   3.416 -0.2947  0.2737 -0.2768
  395MOL0     C53244   1.002   0.238   3.536  0.3916  0.9613  0.4663
  395MOL0     C53245   1.198   0.406   3.880  0.4490  0.1704  0.5704
  395MOL0     C53246   1.304   0.496   3.891  0.0637  1.0419 -0.4698
  395MOL0     C53247   1.317   0.583   4.002  0.1870  0.1803  0.1691
  395MOL0     C53248   1.237   0.572   4.109  0.2354  1.6655  0.1180
  395MOL0     O53249   1.290   0.644   4.216  0.5546  0.1830  0.2569
  395MOL0     C53250   1.204   0.675   4.333 -0.7216  0.2571 -0.2895
  395MOL0     C53251   1.108   0.788   4.303 -0.1555 -1.3660  0.3726
  395MOL0     C53252   1.113   0.907   4.402 -0.3232  0.6772 -0.0203
  395MOL0     C53253   1.253   0.977   4.411  1.2605  0.8102  0.0737
  395MOL0     C53254   1.273   1.054   4.290 -0.6949  0.4713 -1.1426
  395MOL0     C53255   1.286   1.113   4.184 -1.3518 -0.4300 -0.5199
  395MOL0     C53256   1.120   0.488   4.102 -0.9953 -0.8305 -0.4885
  395MOL0     C53257   1.094   0.414   3.986 -0.0326  0.4640  0.6422
  395MOL0     H53258   0.978  -0.017   3.757  5.1461 -0.3563  0.1037
  395MOL0     H53259   0.925  -0.143   3.565 -0.1751 -0.7769 -1.9770
  395MOL0     H53260   1.068  -0.204   3.410 -2.0004 -2.2064 -0.3196
  395MOL0     H53261   0.970  -0.259   3.292  0.4031 -0.5860 -0.9306
  395MOL0     H53262   1.206  -0.282   3.241  3.3874  1.8034 -1.1093
  395MOL0     H53263   1.116  -0.208   3.110  0.0363 -2.9762 -0.1096
  395MOL0     H53264   1.269  -0.046   3.325 -0.4919  0.1767  0.7369
  395MOL0     H53265   1.354  -0.106   3.180  1.4378  0.5788  2.7327
  395MOL0     H53266   1.169   0.008   3.051  0.8762  0.3671  0.5801
  395MOL0     H53267   1.139   0.102   3.195  0.7128  1.2000 -0.2629
  395MOL0     H53268   1.338   0.213   3.184  3.5655 -0.2741 -0.2418
  395MOL0     H53269   1.437   0.076   3.133  0.9417  0.2123 -1.3935
  395MOL0     H53270   1.420   0.273   2.986 -0.1999 -0.3075  2.4798
  395MOL0     H53271   1.372   0.128   2.901  1.0724  0.2896 -0.1236
  395MOL0     H53272   1.141   0.224   2.899 -1.2930  2.2265 -1.6775
  395MOL0     H53273   1.186   0.342   3.021 -0.0770 -1.8031  0.4768
  395MOL0     H53274   1.309   0.486   2.860 -1.1702  1.9559  2.7883
  395MOL0     H53275   1.161   0.429   2.779  0.8938 -3.5983 -3.8941
  395MOL0     H53276   1.148   0.311   2.570  0.0735 -1.0082  0.3096
  395MOL0     H53277   1.446   0.250   2.314 -1.3560  0.3593 -3.0613
  395MOL0     H53278   1.282   0.175   2.347  0.9420 -0.6566  0.1157
  395MOL0     H53279   1.348   0.460   2.279 -1.5243  1.2636  1.3095
  395MOL0     H53280   1.173   0.406   2.321 -0.2384  2.2747 -1.1370
  395MOL0     H53281   1.164   0.271   2.136  0.8015 -2.3948 -0.0762
  395MOL0     H53282   1.323   0.275   2.091 -1.6568 -2.6461  1.4520
  395MOL0     H53283   1.149   0.536   2.075 -0.7718  0.0471 -1.6309
  395MOL0     H53284   1.180   0.421   1.947 -3.1599  1.1680 -0.7473
  395MOL0     H53285   1.578   0.649   2.046  2.8273  4.2815  2.9050
  395MOL0     H53286   1.724   0.804   2.033  0.5807  0.5162  0.1012
  395MOL0     H53287   1.692   0.975   1.998  0.3971  0.5053 -0.3105
  395MOL0     H53288   1.649   0.915   2.161  0.0459 -1.3965 -0.1862
  395MOL0     H53289   1.650   1.217   2.214 -2.8670 -2.2560 -0.9766
  395MOL0     H53290   1.645   1.450   2.325  0.0275 -2.2561  0.7920
  395MOL0     H53291   1.532   1.681   2.432 -0.4763 -0.0489  0.1698
  395MOL0     H53292   1.687   1.674   2.342  0.3856  2.0243  0.7177
  395MOL0     H53293   1.521   1.916   2.376  0.7280 -0.0120 -0.4251
  395MOL0     H53294   1.679   1.866   2.424 -1.1458 -2.6110  0.5698
  395MOL0     H53295   1.632   2.034   2.228 -1.6154 -0.9984  2.2598
  395MOL0     H53296   1.593   1.894   2.130 -1.0504 -2.2474  1.2413
  395MOL0     H53297   1.876   1.931   2.254 -0.3242  0.6996  0.4417
  395MOL0     H53298   1.821   1.792   2.181 -1.3946  0.5263 -1.7863
  395MOL0     H53299   1.825   2.053   2.026 -0.5692  0.2873  2.2425
  395MOL0     H53300   1.792   1.891   1.961  0.6884  0.3646 -0.0687
  395MOL0     H53301   2.031   1.969   1.906  2.6556 -4.2021 -0.5093
  395MOL0     H53302   2.047   2.013   2.070 -2.6309  1.1054  0.3350
  395MOL0     H53303   2.024   1.741   1.943 -1.4740  0.4997  0.3846
  395MOL0     H53304   2.031   1.754   2.122  0.6558  1.2341  1.3236
  395MOL0     H53305   2.242   1.839   2.120 -1.7900 -1.1235  1.8909
  395MOL0     H53306   2.257   1.841   1.943 -0.4786 -1.1477 -0.8083
  395MOL0     H53307   1.391   1.601   2.018  0.1384  0.7497 -0.7344
  395MOL0     H53308   1.397   1.375   1.904  0.6519 -0.4454  0.6187
  395MOL0     H53309   1.186   0.939   1.982 -1.1671 -2.8203  3.0581
  395MOL0     H53310   1.147   0.731   2.009 -1.2961  5.8518 -2.0751
  395MOL0     H53311   0.996   0.214   3.324  2.3596 -0.0150 -0.1019
  395MOL0     H53312   1.015   0.345   3.522  0.0896  0.9302 -0.0961
  395MOL0     H53313   1.384   0.492   3.818 -0.1793 -1.7662 -0.7097
  395MOL0     H53314   1.402   0.650   4.004  0.4513 -0.1065  3.4303
  395MOL0     H53315   1.151   0.580   4.346  2.6064 -2.0506 -1.9959
  395MOL0     H53316   1.262   0.700   4.422 -1.7549  1.1117  0.1553
  395MOL0     H53317   1.009   0.744   4.315 -1.4305  0.7048 -1.6863
  395MOL0     H53318   1.118   0.831   4.203 -0.0486  0.7291  1.2241
  395MOL0     H53319   1.085   0.869   4.502  0.3019  2.5762  0.9133
  395MOL0     H53320   1.026   0.965   4.369 -2.0283 -1.8364 -0.3260
  395MOL0     H53321   1.336   0.913   4.442 -1.3481 -1.9303  2.1410
  395MOL0     H53322   1.238   1.049   4.492  2.9657  1.2603  0.0150
  395MOL0     H53323   1.299   1.159   4.088  2.4905 -2.8423 -1.3595
  395MOL0     H53324   1.046   0.497   4.181 -0.7223  0.4131 -0.3430
  395MOL0     H53325   1.000   0.364   3.965 -1.6315  4.0057 -1.7255
  396MOL0     O53326   3.898   2.182   3.075  0.2323 -0.7277  0.1721
  396MOL0     C53327   3.966   2.081   3.099  0.3906 -0.7818  0.1747
  396MOL0     O53328   3.922   1.947   3.096  0.6609 -0.1007  0.4330
  396MOL0     C53329   3.797   1.918   3.053  0.3729 -0.0889 -0.8815
  396MOL0     C53330   3.680   1.948   3.129 -0.7190  0.0345  0.1754
  396MOL0     C53331   3.554   1.894   3.112  0.6180 -0.4099 -0.4572
  396MOL0     C53332   3.532   1.807   3.000  0.5158 -1.0001 -0.1238
  396MOL0     O53333   3.418   1.745   2.974 -0.2671  0.8060  0.6286
  396MOL0     C53334   3.321   1.717   3.078 -1.2251  0.3541  0.1186
  396MOL0     C53335   3.366   1.639   3.188 -0.0842  0.2094  0.1009
  396MOL0     C53336   3.451   1.516   3.160  0.2895  0.4762 -0.5997
  396MOL0     C53337   3.460   1.423   3.276 -0.9559 -0.0009 -1.0837
  396MOL0     C53338   3.582   1.333   3.277  1.2841 -0.4812  0.4357
  396MOL0     C53339   3.595   1.212   3.376  0.0569  0.0813  0.3421
  396MOL0     C53340   3.611   1.268   3.521  0.4925 -0.2428  0.2401
  396MOL0     C53341   3.664   1.156   3.621  0.2119  0.2565  0.6012
  396MOL0     N53342   3.596   1.030   3.593 -0.6529  0.5424  0.6160
  396MOL0     C53343   3.648   0.937   3.499 -0.8013  0.5935  0.8197
  396MOL0     C53344   3.549   0.843   3.482  0.7378 -0.7641 -0.2028
  396MOL0     C53345   3.552   0.716   3.397  0.0922  0.3070 -0.0770
  396MOL0     C53346   3.534   0.766   3.250 -0.6303 -0.1051  0.5460
  396MOL0     C53347   3.392   0.814   3.226 -0.2901 -0.1633  0.0159
  396MOL0     C53348   3.373   0.871   3.089 -1.1322 -0.6440  0.2001
  396MOL0     O53349   3.229   0.895   3.065  0.5245 -0.0816  0.0867
  396MOL0     C53350   3.188   1.020   3.039 -0.4501 -0.4693 -0.2343
  396MOL0     C53351   3.094   1.033   2.943  0.2640 -0.1555  0.1798
  396MOL0     C53352   3.034   1.155   2.897 -1.1064 -0.6940  0.3564
  396MOL0     C53353   2.958   1.144   2.772  0.1064 -0.6061  0.2686
  396MOL0     C53354   3.059   1.274   2.973 -0.6385  0.8404  0.4380
  396MOL0     C53355   3.014   1.409   2.938 -0.1658  0.2169 -0.0818
  396MOL0     O53356   2.918   1.414   2.839 -0.6636 -0.1136 -0.1496
  396MOL0     C53357   2.850   1.530   2.819  0.8820  0.0841 -0.1119
  396MOL0     C53358   2.771   1.518   2.704  0.1497 -0.7420  0.2373
  396MOL0     C53359   2.708   1.630   2.654 -0.3581  0.2045 -0.3089
  396MOL0     C53360   2.710   1.752   2.727 -0.7224  0.1680 -1.3264
  396MOL0     O53361   2.657   1.868   2.682 -0.3339 -0.0185 -0.1733
  396MOL0     C53362   2.705   1.915   2.555 -0.6121  0.9246  1.0587
  396MOL0     C53363   2.798   2.038   2.564 -0.4021  1.0103  0.7742
  396MOL0     C53364   2.869   2.087   2.439 -0.1191 -0.5464  0.5725
  396MOL0     C53365   2.999   2.014   2.406  0.0486  0.5225  0.1848
  396MOL0     C53366   3.088   2.083   2.301  0.2122 -0.0970  0.5368
  396MOL0     C53367   3.221   2.002   2.260  1.2624  0.6873  0.4768
  396MOL0     C53368   3.292   2.035   2.123  0.3878  0.1817  0.2534
  396MOL0     C53369   3.353   2.178   2.124  0.3853  0.6538  0.7087
  396MOL0    Cl53370   3.464   2.178   2.259 -0.3586  0.3181 -0.1779
  396MOL0     C53371   2.769   1.747   2.849  0.2359 -0.3018 -1.2196
  396MOL0     C53372   2.830   1.634   2.905 -0.1968 -0.5927 -0.2098
  396MOL0     O53373   3.054   1.502   2.997  0.1950 -0.1676 -0.3139
  396MOL0     C53374   3.156   1.261   3.076  0.0680 -1.8508 -0.2079
  396MOL0     C53375   3.219   1.138   3.111 -0.2381  0.4881  0.8585
  396MOL0     N53376   3.451   0.882   3.581  0.4123  0.0005  0.1227
  396MOL0     N53377   3.479   0.988   3.644 -0.3681  0.3176 -0.1010
  396MOL0     C53378   3.629   1.797   2.910 -0.1526 -0.4716  0.3483
  396MOL0     C53379   3.759   1.852   2.930  0.0974 -0.9691  0.0202
  396MOL0     C53380   4.106   2.113   3.142 -0.2159 -1.6043  0.2464
  396MOL0     C53381   4.157   2.247   3.109 -0.1038  0.4927  0.1646
  396MOL0     C53382   4.280   2.286   3.150  0.3903  0.5838  0.4676
  396MOL0     C53383   4.372   2.195   3.207 -0.9488 -0.5043  0.6600
  396MOL0     O53384   4.502   2.228   3.233  0.2241  0.1111 -0.1067
  396MOL0     C53385   4.572   2.345   3.182 -0.5456 -0.1142 -0.3206
  396MOL0     C53386   4.694   2.362   3.270  0.5335  0.2156 -0.5133
  396MOL0     C53387   4.764   2.491   3.243  0.2371 -0.6434 -0.7490
  396MOL0     C53388   4.890   2.520   3.324 -1.4661 -0.8086 -0.0810
  396MOL0     C53389   4.865   2.523   3.465  0.1590 -0.3963  0.3547
  396MOL0     C53390   4.855   2.493   3.587  0.6541  0.7002 -0.1763
  396MOL0     C53391   4.316   2.072   3.246  0.0877  1.0871 -0.2827
  396MOL0     C53392   4.182   2.025   3.216 -0.7538  1.2456  0.2796
  396MOL0     H53393   3.694   2.029   3.200 -4.3113  1.0004 -0.0135
  396MOL0     H53394   3.469   1.918   3.176  0.3939 -0.1760 -0.8356
  396MOL0     H53395   3.286   1.810   3.124 -0.5932  0.3204  0.6870
  396MOL0     H53396   3.241   1.660   3.030  2.8481 -2.5586 -4.1684
  396MOL0     H53397   3.422   1.699   3.260  3.7885 -2.7153 -0.1216
  396MOL0     H53398   3.283   1.592   3.242  0.8399 -2.5224 -0.6807
  396MOL0     H53399   3.405   1.465   3.074  1.1911  1.5308 -1.7427
  396MOL0     H53400   3.553   1.537   3.127  0.9292  0.7767  1.4372
  396MOL0     H53401   3.471   1.494   3.358 -1.3947  1.3962 -2.1754
  396MOL0     H53402   3.371   1.362   3.291 -0.5069 -0.5979 -0.8569
  396MOL0     H53403   3.563   1.275   3.186  0.2223  1.3563 -0.5672
  396MOL0     H53404   3.669   1.396   3.260  0.1249  0.1925 -5.0191
  396MOL0     H53405   3.502   1.156   3.361  0.0756  0.3881 -1.0560
  396MOL0     H53406   3.675   1.149   3.336 -1.0643  0.4461 -2.7816
  396MOL0     H53407   3.685   1.348   3.534  0.8582 -0.6435  0.6530
  396MOL0     H53408   3.516   1.318   3.543  0.4909 -0.0924 -0.0976
  396MOL0     H53409   3.648   1.181   3.726 -0.4657  1.1162  0.2991
  396MOL0     H53410   3.773   1.146   3.608  0.2622  3.1481 -2.5174
  396MOL0     H53411   3.744   0.940   3.447 -1.4760 -2.3134 -0.8321
  396MOL0     H53412   3.644   0.657   3.407  0.3855  1.0677  2.5124
  396MOL0     H53413   3.464   0.657   3.427 -0.2910  1.5229  1.3459
  396MOL0     H53414   3.558   0.689   3.176 -2.5961  0.0617 -0.3296
  396MOL0     H53415   3.607   0.846   3.241 -2.0380  1.4726  2.3490
  396MOL0     H53416   3.370   0.894   3.297 -0.1484 -0.7134  0.6872
  396MOL0     H53417   3.322   0.730   3.238 -1.4389  0.4067 -2.1681
  396MOL0     H53418   3.407   0.790   3.023 -3.0557 -1.3568  0.0213
  396MOL0     H53419   3.424   0.967   3.079 -1.2273 -0.4139  1.6971
  396MOL0     H53420   3.074   0.940   2.890 -0.4773 -0.6024  1.2097
  396MOL0     H53421   2.977   1.223   2.699  1.5610 -1.4666 -0.3535
  396MOL0     H53422   2.981   1.059   2.706 -2.2627 -2.5936  1.8464
  396MOL0     H53423   2.852   1.149   2.796  0.5724  0.9110  2.2503
  396MOL0     H53424   2.764   1.421   2.655 -0.6255 -0.3110 -0.5215
  396MOL0     H53425   2.645   1.637   2.566 -3.2546  1.2469  1.6974
  396MOL0     H53426   2.765   1.838   2.506  2.8860  0.3977  5.5237
  396MOL0     H53427   2.613   1.941   2.501  1.5766  0.3745 -3.4176
  396MOL0     H53428   2.741   2.117   2.615 -0.7950  0.7190  0.7895
  396MOL0     H53429   2.877   2.010   2.633  0.9239  1.7162 -0.4020
  396MOL0     H53430   2.882   2.195   2.454 -1.2131 -0.6647  2.6771
  396MOL0     H53431   2.802   2.062   2.356  1.0454  0.7047 -0.8035
  396MOL0     H53432   3.056   2.010   2.499 -1.3686  0.8812  1.0967
  396MOL0     H53433   2.984   1.910   2.376  2.8189 -0.6766  2.4245
  396MOL0     H53434   3.123   2.185   2.317 -3.9829  1.5995  0.0056
  396MOL0     H53435   3.036   2.108   2.208  0.8991 -0.5161  0.0274
  396MOL0     H53436   3.288   2.003   2.346 -0.2765 -0.4690  1.7344
  396MOL0     H53437   3.198   1.897   2.242  0.6972  0.9479 -0.3824
  396MOL0     H53438   3.222   2.038   2.039  1.2854  4.9458 -0.5979
  396MOL0     H53439   3.369   1.961   2.100  0.7192  0.7710 -0.5582
  396MOL0     H53440   3.276   2.254   2.135 -0.9956 -0.9463  2.9555
  396MOL0     H53441   3.395   2.200   2.026 -1.4351  3.5601  0.4640
  396MOL0     H53442   2.785   1.842   2.899 -2.7408  0.7014 -1.9793
  396MOL0     H53443   2.872   1.642   3.005 -1.0271  1.5960  0.0238
  396MOL0     H53444   3.184   1.350   3.131 -1.8905 -0.0742 -1.9453
  396MOL0     H53445   3.294   1.142   3.189  1.5179  0.9196 -0.7693
  396MOL0     H53446   3.610   1.739   2.820 -0.4408  3.2903 -2.2306
  396MOL0     H53447   3.837   1.822   2.861 -0.0758 -0.2595 -0.4955
  396MOL0     H53448   4.102   2.313   3.043 -1.9525  0.2242  1.3463
  396MOL0     H53449   4.310   2.386   3.119  1.7943  0.8988  2.6563
  396MOL0     H53450   4.598   2.324   3.077  3.2401 -0.2642  0.5017
  396MOL0     H53451   4.509   2.434   3.188  1.1527  1.1516 -0.1368
  396MOL0     H53452   4.758   2.273   3.266 -0.6260 -0.6113 -1.3757
  396MOL0     H53453   4.656   2.380   3.371  0.6123 -2.1263 -0.0031
  396MOL0     H53454   4.691   2.568   3.270  3.0828  1.3486  1.9902
  396MOL0     H53455   4.786   2.496   3.136 -0.4638  0.4360 -0.8558
  396MOL0     H53456   4.929   2.615   3.287 -0.9977 -0.3964  1.4394
  396MOL0     H53457   4.967   2.445   3.307 -1.8302 -1.2164  0.0416
  396MOL0     H53458   4.845   2.462   3.690 -1.4855  1.9967  0.0532
  396MOL0     H53459   4.388   2.006   3.294  0.6491  2.1182  0.3372
  396MOL0     H53460   4.140   1.930   3.246  2.3509  0.6096  3.2604
  397MOL0     O53461   4.381   3.175   4.863  0.4063 -0.5015  0.8367
  397MOL0     C53462   4.467   3.128   4.785  0.4623 -0.7594  0.1207
  397MOL0     O53463   4.578   3.193   4.747 -1.3109  0.3341 -0.4568
  397MOL0     C53464   4.610   3.314   4.805  1.0907 -0.5614  0.1824
  397MOL0     C53465   4.621   3.420   4.721 -0.4351  0.3761  0.4984
  397MOL0     C53466   4.678   3.542   4.759 -0.1341 -0.5236  0.0957
  397MOL0     C53467   4.720   3.557   4.894  0.2263  0.0850 -0.2267
  397MOL0     O53468   4.780   3.667   4.945 -0.7037 -0.5422  0.1769
  397MOL0     C53469   4.825   3.780   4.862  0.0034  0.2884  0.5542
  397MOL0     C53470   4.901   3.852   4.965  0.0389  0.8113 -0.4006
  397MOL0     C53471   5.023   3.766   5.023  0.3822 -0.2891 -0.0594
  397MOL0     C53472   5.122   3.725   4.914 -0.3964  0.1353 -0.4172
  397MOL0     C53473   5.267   3.714   4.963  0.2083  0.1532 -0.5597
  397MOL0     C53474   5.288   3.632   5.085 -0.4450 -0.0085 -0.0080
  397MOL0     C53475   5.438   3.609   5.129  0.6846 -0.2755 -0.2413
  397MOL0     C53476   5.537   3.530   5.038  1.2559 -0.7923  0.2995
  397MOL0     N53477   5.674   3.530   5.088 -0.0090 -0.6767  0.4047
  397MOL0     C53478   5.724   3.430   5.165 -0.1030 -0.6663  0.0091
  397MOL0     C53479   5.859   3.443   5.159  1.6448  0.3668  0.4993
  397MOL0     C53480   5.957   3.353   5.217  0.0820 -0.4309 -0.0440
  397MOL0     C53481   5.914   3.207   5.189 -0.9070 -0.2340  0.1156
  397MOL0     C53482   5.920   3.175   5.046  0.9098 -0.1781 -0.0996
  397MOL0     C53483   5.844   3.047   5.002 -0.2005 -0.3355  0.0453
  397MOL0     O53484   5.867   2.942   5.095  0.2453 -0.8410  0.2339
  397MOL0     C53485   5.787   2.830   5.084  0.2404  0.3398 -0.1054
  397MOL0     C53486   5.669   2.812   5.016  1.0818 -0.5023 -0.2337
  397MOL0     C53487   5.585   2.703   5.034  0.3515 -0.9298 -0.2070
  397MOL0     C53488   5.459   2.690   4.940 -0.6037 -0.8928  0.2062
  397MOL0     C53489   5.619   2.606   5.130  0.8683  0.1862 -0.2617
  397MOL0     C53490   5.531   2.483   5.161  0.2971 -1.2704 -0.5848
  397MOL0     O53491   5.585   2.401   5.261 -0.0720  0.6320  0.9629
  397MOL0     C53492   5.532   2.276   5.290  0.0298 -0.8252  0.8895
  397MOL0     C53493   5.437   2.259   5.384 -0.1959  0.1066 -0.0663
  397MOL0     C53494   5.383   2.129   5.418 -0.9068 -0.0134  0.0133
  397MOL0     C53495   5.434   2.016   5.356 -0.1531  0.1977 -0.1832
  397MOL0     O53496   5.370   1.896   5.382  0.4865  0.0119  0.0523
  397MOL0     C53497   5.315   1.819   5.271 -1.0987  1.0783 -0.2276
  397MOL0     C53498   5.309   1.671   5.294 -0.5575  0.5103 -0.5746
  397MOL0     C53499   5.217   1.609   5.183 -0.5155 -0.7471  0.3435
  397MOL0     C53500   5.195   1.466   5.224  0.1535  0.6401  0.7462
  397MOL0     C53501   5.089   1.394   5.142  0.3868 -0.0281  0.1160
  397MOL0     C53502   4.954   1.462   5.125 -0.9085  0.9143  0.2317
  397MOL0     C53503   4.885   1.491   5.253 -0.3097 -0.7163 -0.8823
  397MOL0     C53504   4.751   1.553   5.235 -0.5459  0.6349  0.2417
  397MOL0    Cl53505   4.705   1.584   5.396  0.0211 -0.0221  0.6397
  397MOL0     C53506   5.530   2.031   5.250  0.3352  0.0738 -0.5830
  397MOL0     C53507   5.589   2.159   5.228 -0.4972 -1.4555 -0.0536
  397MOL0     O53508   5.420   2.461   5.098  0.0705  0.1424 -0.0417
  397MOL0     C53509   5.744   2.620   5.193  0.1314  0.3638 -1.2160
  397MOL0     C53510   5.833   2.731   5.170  0.1405 -0.4002  0.4052
  397MOL0     N53511   5.884   3.555   5.082 -0.0400 -1.0388  0.3540
  397MOL0     N53512   5.775   3.613   5.042 -0.5823  0.9624 -0.0323
  397MOL0     C53513   4.691   3.449   4.985  0.8979  0.4253 -0.3015
  397MOL0     C53514   4.636   3.330   4.944 -0.6041  0.1519 -0.0711
  397MOL0     C53515   4.454   2.988   4.745  1.1074  0.1918 -0.4622
  397MOL0     C53516   4.560   2.906   4.710 -0.0248  0.0910 -0.0290
  397MOL0     C53517   4.545   2.767   4.670 -1.2501 -0.0527 -0.7317
  397MOL0     C53518   4.427   2.699   4.696 -0.1516 -0.1677 -0.1580
  397MOL0     O53519   4.417   2.563   4.673 -0.4316  0.6825  0.7739
  397MOL0     C53520   4.297   2.490   4.682  0.4722 -0.0098 -0.3868
  397MOL0     C53521   4.310   2.384   4.793 -0.2704 -0.4312 -0.7370
  397MOL0     C53522   4.379   2.441   4.923 -0.0638 -0.3678  0.4188
  397MOL0     C53523   4.382   2.325   5.025 -0.0614  0.4968 -0.5692
  397MOL0     C53524   4.454   2.353   5.149  0.1282 -0.1020 -0.3966
  397MOL0     C53525   4.515   2.380   5.247 -0.5691 -0.3759 -0.5652
  397MOL0     C53526   4.316   2.780   4.740  0.4693  0.3097  0.6546
  397MOL0     C53527   4.334   2.914   4.763 -0.2182 -0.3393 -0.1050
  397MOL0     H53528   4.606   3.403   4.614  1.6819 -1.1394  0.3680
  397MOL0     H53529   4.682   3.626   4.690  2.3577 -0.7997 -0.1566
  397MOL0     H53530   4.886   3.744   4.778 -0.5890 -1.0139  0.6632
  397MOL0     H53531   4.753   3.847   4.814  0.5505  1.2512  1.0433
  397MOL0     H53532   4.947   3.935   4.912  2.3430  0.0905  0.3593
  397MOL0     H53533   4.842   3.885   5.052  0.9639 -2.5576  1.6965
  397MOL0     H53534   5.070   3.838   5.090  1.4791  2.2089 -3.2036
  397MOL0     H53535   4.990   3.674   5.071 -0.9941  0.2725  0.1316
  397MOL0     H53536   5.086   3.630   4.873 -1.1907 -0.4919  1.5775
  397MOL0     H53537   5.141   3.803   4.840  1.3342 -0.8748 -1.1059
  397MOL0     H53538   5.323   3.672   4.879 -1.4397 -0.1974 -1.5231
  397MOL0     H53539   5.304   3.815   4.984  0.0213 -0.0515  0.8153
  397MOL0     H53540   5.237   3.688   5.163 -2.0413  0.1479 -1.1170
  397MOL0     H53541   5.247   3.535   5.054  0.5502  0.0349 -1.5800
  397MOL0     H53542   5.489   3.706   5.135  2.2363 -0.8609 -2.7238
  397MOL0     H53543   5.437   3.565   5.229  1.5164 -1.2681 -0.6605
  397MOL0     H53544   5.529   3.576   4.939 -3.1663 -5.0984 -1.7867
  397MOL0     H53545   5.499   3.431   5.012 -0.3555 -0.1639  0.1417
  397MOL0     H53546   5.662   3.356   5.216 -1.8840  0.0232 -1.0637
  397MOL0     H53547   6.051   3.374   5.166 -0.3308  2.6416  0.2616
  397MOL0     H53548   5.977   3.377   5.322  1.8529  2.7503 -0.9908
  397MOL0     H53549   5.813   3.199   5.230 -1.4045 -2.0944 -1.3377
  397MOL0     H53550   5.981   3.143   5.247 -1.8461  1.3239  3.1599
  397MOL0     H53551   6.026   3.175   5.019  0.8702 -0.3175 -0.2589
  397MOL0     H53552   5.885   3.254   4.980  0.6527 -2.2029 -2.5587
  397MOL0     H53553   5.850   3.012   4.899 -0.6788  0.0975 -0.1278
  397MOL0     H53554   5.746   3.088   5.028 -0.1340 -0.0905 -0.0945
  397MOL0     H53555   5.639   2.878   4.935 -0.8747 -0.9019  0.1108
  397MOL0     H53556   5.371   2.682   5.004 -0.6190  1.9618  0.6742
  397MOL0     H53557   5.462   2.771   4.867  0.7998 -2.4219 -1.5100
  397MOL0     H53558   5.461   2.598   4.882 -1.5469  0.6053 -2.3856
  397MOL0     H53559   5.389   2.347   5.426 -1.0374  0.7167 -2.1702
  397MOL0     H53560   5.295   2.122   5.480 -2.9362 -1.4322 -2.7794
  397MOL0     H53561   5.213   1.858   5.269 -1.4526  0.2017  0.0363
  397MOL0     H53562   5.353   1.837   5.170  1.4423 -0.4946  0.3491
  397MOL0     H53563   5.413   1.638   5.287  0.0941  2.0929  0.7941
  397MOL0     H53564   5.269   1.649   5.393  3.6405  2.8766  1.9547
  397MOL0     H53565   5.257   1.625   5.083  1.2947 -0.4170  1.0738
  397MOL0     H53566   5.134   1.680   5.190  1.7249  1.9196  1.8269
  397MOL0     H53567   5.293   1.417   5.216 -0.1401  0.3711 -2.7464
  397MOL0     H53568   5.172   1.467   5.331  1.8689  4.8223  1.2633
  397MOL0     H53569   5.058   1.300   5.187 -1.5720  1.0911  1.2910
  397MOL0     H53570   5.141   1.388   5.047  1.8106  2.7713  0.5957
  397MOL0     H53571   4.976   1.551   5.065 -0.5220 -1.0426 -2.7425
  397MOL0     H53572   4.882   1.413   5.059 -0.8343  0.8037  0.2337
  397MOL0     H53573   4.954   1.545   5.319 -0.4279  1.3138 -2.3214
  397MOL0     H53574   4.859   1.393   5.294 -1.4764  0.5896  1.7540
  397MOL0     H53575   4.698   1.479   5.175  3.6023 -2.2963 -0.2436
  397MOL0     H53576   4.746   1.656   5.199  0.9014  1.1578  1.3982
  397MOL0     H53577   5.574   1.938   5.215  0.9823 -0.0554  0.5147
  397MOL0     H53578   5.683   2.176   5.177  0.3057 -0.2107  1.7153
  397MOL0     H53579   5.787   2.537   5.249 -0.1230 -0.8068 -2.6884
  397MOL0     H53580   5.921   2.749   5.231 -1.2379 -1.2679  2.7960
  397MOL0     H53581   4.721   3.440   5.088 -1.3062 -2.1066  0.2645
  397MOL0     H53582   4.611   3.253   5.017 -0.7031  0.2220 -0.0314
  397MOL0     H53583   4.660   2.947   4.712 -0.2170  0.6856 -1.4864
  397MOL0     H53584   4.634   2.717   4.634 -1.3758  2.3407 -5.0704
  397MOL0     H53585   4.216   2.556   4.715  0.5272 -1.1882  2.3909
  397MOL0     H53586   4.274   2.449   4.583  0.3396  0.1518 -0.4233
  397MOL0     H53587   4.364   2.303   4.742  1.8916  1.0418 -0.8976
  397MOL0     H53588   4.204   2.359   4.809  0.0201  0.0722  2.8048
  397MOL0     H53589   4.322   2.528   4.960 -1.2798 -1.2734  0.7364
  397MOL0     H53590   4.479   2.483   4.907  0.4542 -0.2282  3.3842
  397MOL0     H53591   4.443   2.251   4.974  2.0405  1.8769 -0.1993
  397MOL0     H53592   4.281   2.291   5.050 -1.0132  4.1249  1.2863
  397MOL0     H53593   4.563   2.419   5.334 -0.5734 -2.6336  0.5190
  397MOL0     H53594   4.211   2.756   4.735  1.3193 -5.3857  3.0120
  397MOL0     H53595   4.248   2.964   4.806  0.4121  0.2745  0.4735
  398MOL0     O53596   8.428   0.656   8.313 -0.2771  0.2735  0.1532
  398MOL0     C53597   8.480   0.588   8.403 -0.9853 -1.0901 -0.2932
  398MOL0     O53598   8.581   0.635   8.482 -0.4359  0.3413 -0.5828
  398MOL0     C53599   8.634   0.754   8.446  0.4598 -0.1008 -0.2189
  398MOL0     C53600   8.626   0.864   8.531 -0.2172 -0.9918  0.3994
  398MOL0     C53601   8.685   0.978   8.481  0.7877  0.0185 -0.5923
  398MOL0     C53602   8.729   0.998   8.357  0.1008 -0.0979  0.7688
  398MOL0     O53603   8.786   1.122   8.329  0.3006  0.2123 -0.6534
  398MOL0     C53604   8.874   1.138   8.218  0.4423  0.4598 -0.1760
  398MOL0     C53605   8.919   1.283   8.214  0.5493 -0.2484  0.5867
  398MOL0     C53606   9.028   1.322   8.302 -0.4520 -0.8320 -0.9384
  398MOL0     C53607   9.161   1.257   8.278  0.5445 -0.0083  0.2998
  398MOL0     C53608   9.262   1.343   8.361 -0.2821  0.2696  0.3108
  398MOL0     C53609   9.400   1.298   8.337  1.0001 -0.0808  0.0945
  398MOL0     C53610   9.512   1.345   8.430  0.6114 -0.4962 -0.5244
  398MOL0     C53611   9.480   1.352   8.586  0.2197  0.7248 -0.1899
  398MOL0     N53612   9.596   1.391   8.666  0.4413 -0.4935 -0.1826
  398MOL0     C53613   9.594   1.375   8.802  0.4118 -0.4000  0.7286
  398MOL0     C53614   9.720   1.420   8.836  0.6861  0.2073  0.7394
  398MOL0     C53615   9.793   1.406   8.961 -0.2311  0.0083  0.5199
  398MOL0     C53616   9.737   1.500   9.075 -0.0978  0.4558  1.4003
  398MOL0     C53617   9.803   1.477   9.208  0.0686 -0.8516  0.1097
  398MOL0     C53618   9.838   1.334   9.251 -0.2928  0.3094  0.4317
  398MOL0     O53619   9.762   1.211   9.237 -0.4703  0.2536 -0.7406
  398MOL0     C53620   9.671   1.170   9.336  0.3947  0.0255  0.0485
  398MOL0     C53621   9.624   1.248   9.441  0.1615  0.1827 -0.2705
  398MOL0     C53622   9.530   1.197   9.534 -0.1427  0.4008 -0.4059
  398MOL0     C53623   9.502   1.278   9.653  0.1066  0.5726  0.0248
  398MOL0     C53624   9.456   1.082   9.505  0.1528 -0.7643 -0.1632
  398MOL0     C53625   9.345   1.030   9.594  0.1739 -0.2589  0.6064
  398MOL0     O53626   9.259   1.123   9.636 -0.2084  0.6014  0.6699
  398MOL0     C53627   9.149   1.074   9.698 -0.0534 -0.4770  0.6648
  398MOL0     C53628   9.055   1.010   9.628  0.7899 -0.5783 -0.5179
  398MOL0     C53629   8.941   0.961   9.697  0.8680 -0.0550 -0.7604
  398MOL0     C53630   8.936   0.988   9.835 -0.6295  0.0244 -0.7219
  398MOL0     O53631   8.821   0.950   9.897  0.5034  0.7710  0.0752
  398MOL0     C53632   8.834   0.916  10.026 -0.0561 -0.1161 -0.4070
  398MOL0     C53633   8.707   0.839  10.068  0.1521 -1.0847 -0.0237
  398MOL0     C53634   8.581   0.916  10.029 -0.0229 -0.3468  0.2797
  398MOL0     C53635   8.450   0.851  10.055  0.3957 -0.1952  0.1541
  398MOL0     C53636   8.349   0.925   9.970  0.1281 -0.8003 -0.7176
  398MOL0     C53637   8.205   0.873   9.982 -0.0510  0.2810  0.3894
  398MOL0     C53638   8.093   0.950   9.912  0.0523 -0.5634  0.4275
  398MOL0     C53639   8.129   0.998   9.768 -0.4612  0.4792 -1.4470
  398MOL0    Cl53640   8.188   0.853   9.671 -0.0970 -0.0625  0.5017
  398MOL0     C53641   9.025   1.074   9.902 -0.0513  0.2731 -0.4120
  398MOL0     C53642   9.141   1.108   9.832  0.7765 -0.6709 -0.5387
  398MOL0     O53643   9.338   0.907   9.611  0.2092  0.4546  0.3102
  398MOL0     C53644   9.486   1.009   9.388 -0.6583  0.0606  0.7431
  398MOL0     C53645   9.591   1.060   9.302 -1.0297 -0.5294  0.2363
  398MOL0     N53646   9.782   1.475   8.728  0.3346 -0.6138 -0.1459
  398MOL0     N53647   9.706   1.457   8.623  0.3822  0.0762  0.2861
  398MOL0     C53648   8.743   0.886   8.273 -0.0121  0.0871 -1.0041
  398MOL0     C53649   8.702   0.759   8.320  0.7775 -0.1883 -0.0382
  398MOL0     C53650   8.425   0.454   8.424 -0.4624 -0.0559 -0.4653
  398MOL0     C53651   8.485   0.366   8.521  0.9569  0.6875 -0.1268
  398MOL0     C53652   8.430   0.248   8.551  0.1387  0.2910  0.2417
  398MOL0     C53653   8.308   0.210   8.499 -0.0692  0.0943 -0.1313
  398MOL0     O53654   8.270   0.084   8.537  0.6949  0.2161  0.2573
  398MOL0     C53655   8.169   0.013   8.465  0.8989  0.2714 -0.8447
  398MOL0     C53656   8.162  -0.140   8.523 -0.0579 -0.5867 -0.2016
  398MOL0     C53657   8.061  -0.150   8.639 -0.1915 -0.3481 -0.6998
  398MOL0     C53658   8.071  -0.296   8.692  0.3802  0.6266  0.8750
  398MOL0     C53659   7.960  -0.333   8.788  0.0004 -0.2873  0.4537
  398MOL0     C53660   7.858  -0.348   8.862  0.8249  0.2291  0.1533
  398MOL0     C53661   8.246   0.288   8.404 -0.3484 -0.5643 -0.1275
  398MOL0     C53662   8.308   0.410   8.361 -0.3455  0.6581  0.5530
  398MOL0     H53663   8.590   0.866   8.633  2.1690  1.7843  1.3200
  398MOL0     H53664   8.680   1.066   8.545  1.5140 -1.5098  1.6581
  398MOL0     H53665   8.960   1.073   8.232 -0.5212 -0.4503  2.0780
  398MOL0     H53666   8.818   1.109   8.129 -2.4596 -0.6406  1.8487
  398MOL0     H53667   8.961   1.315   8.118  2.7243  1.0537  1.8928
  398MOL0     H53668   8.833   1.345   8.240 -0.6968 -2.3632  1.7794
  398MOL0     H53669   9.038   1.430   8.286 -1.2829 -0.5425  0.3249
  398MOL0     H53670   8.999   1.317   8.408  0.5297  1.0902 -0.5156
  398MOL0     H53671   9.157   1.154   8.316  3.3708  0.2606  1.6441
  398MOL0     H53672   9.188   1.262   8.172  1.3083 -0.1763  0.4770
  398MOL0     H53673   9.253   1.442   8.317  0.9418  0.5791  0.7081
  398MOL0     H53674   9.238   1.345   8.467  0.3446 -1.6720  0.5287
  398MOL0     H53675   9.386   1.191   8.350  1.3648  0.1321  2.8288
  398MOL0     H53676   9.420   1.307   8.230 -2.6455  0.0063 -0.7283
  398MOL0     H53677   9.590   1.269   8.419  1.7299  0.0976  2.3376
  398MOL0     H53678   9.561   1.439   8.401  0.1630  0.0502  0.4176
  398MOL0     H53679   9.441   1.258   8.625  0.5311  0.3389 -0.8059
  398MOL0     H53680   9.397   1.422   8.605 -1.5255 -1.7147  1.8692
  398MOL0     H53681   9.515   1.317   8.849 -2.9413  1.2836 -2.2672
  398MOL0     H53682   9.775   1.300   8.981 -1.7851  0.3317  1.0209
  398MOL0     H53683   9.900   1.428   8.954 -0.3665  0.1162 -2.8712
  398MOL0     H53684   9.639   1.453   9.090  1.3531 -4.5968 -2.3160
  398MOL0     H53685   9.727   1.601   9.035  0.7000 -1.2300 -3.7832
  398MOL0     H53686   9.747   1.528   9.287 -0.9946  1.3636 -1.9657
  398MOL0     H53687   9.896   1.534   9.201 -0.0597 -0.7845 -1.3457
  398MOL0     H53688   9.878   1.324   9.352 -1.2872 -0.1182  0.8023
  398MOL0     H53689   9.929   1.321   9.192  0.9063  2.6263  1.6522
  398MOL0     H53690   9.679   1.341   9.446 -0.3979  0.8833 -4.2958
  398MOL0     H53691   9.449   1.226   9.733 -2.8667 -0.2099 -2.2618
  398MOL0     H53692   9.599   1.289   9.702  0.3784 -0.1943 -0.3224
  398MOL0     H53693   9.455   1.375   9.635 -2.4886 -0.4695  0.7598
  398MOL0     H53694   9.083   1.001   9.524  0.9495 -0.0064 -0.5310
  398MOL0     H53695   8.867   0.896   9.651  2.8133 -2.6805 -0.4079
  398MOL0     H53696   8.925   0.857  10.042 -1.5026 -2.0380  1.4287
  398MOL0     H53697   8.839   1.006  10.088  3.5356  1.6587 -2.9267
  398MOL0     H53698   8.723   0.736  10.034 -0.9343 -0.9060 -1.1665
  398MOL0     H53699   8.710   0.817  10.175 -0.4747 -1.8408 -0.1518
  398MOL0     H53700   8.586   0.934   9.921 -2.8930 -1.2129 -0.0729
  398MOL0     H53701   8.593   1.011  10.082 -2.3795 -0.5859  1.3397
  398MOL0     H53702   8.441   0.747  10.025 -2.7885  0.0199  0.0499
  398MOL0     H53703   8.428   0.848  10.162  4.5537 -4.7115  1.2302
  398MOL0     H53704   8.388   0.935   9.868  2.9345  1.3465  0.4241
  398MOL0     H53705   8.357   1.032   9.995 -1.7105 -0.8075  0.0382
  398MOL0     H53706   8.202   0.768   9.951 -0.9300  0.7407 -1.1557
  398MOL0     H53707   8.192   0.868  10.091  0.0375  1.7952  0.4864
  398MOL0     H53708   8.061   1.036   9.972 -1.0908  1.2859 -2.6110
  398MOL0     H53709   8.007   0.884   9.896  0.6131 -0.5423 -3.7547
  398MOL0     H53710   8.212   1.068   9.780 -1.5217  1.5318  0.0556
  398MOL0     H53711   8.042   1.043   9.718 -1.7651 -1.8423 -1.4156
  398MOL0     H53712   9.007   1.119   9.999  1.0676  0.8528 -0.4572
  398MOL0     H53713   9.219   1.166   9.880 -0.2582 -0.2412  0.6736
  398MOL0     H53714   9.434   0.914   9.383 -0.8904  0.0896  2.2097
  398MOL0     H53715   9.626   1.011   9.211 -2.6380 -0.8189 -0.2623
  398MOL0     H53716   8.787   0.897   8.175 -0.5004 -1.8284 -1.4726
  398MOL0     H53717   8.707   0.677   8.250 -2.9053  1.1787 -2.1784
  398MOL0     H53718   8.574   0.393   8.577  1.5847 -0.6578 -0.4600
  398MOL0     H53719   8.476   0.178   8.621 -3.8307 -1.9714  0.8963
  398MOL0     H53720   8.073   0.066   8.469  1.8163  1.9246  0.7517
  398MOL0     H53721   8.193   0.000   8.359 -2.1886 -2.9411 -1.3623
  398MOL0     H53722   8.264  -0.164   8.554 -0.0998  0.1199  0.4988
  398MOL0     H53723   8.132  -0.202   8.438 -1.5071 -1.3792  0.8495
  398MOL0     H53724   7.959  -0.126   8.606  0.5568  0.1610 -2.8002
  398MOL0     H53725   8.094  -0.078   8.715 -1.7180  2.0028 -2.1512
  398MOL0     H53726   8.166  -0.308   8.745 -0.0949 -2.0477  1.2641
  398MOL0     H53727   8.065  -0.367   8.609  0.4473 -0.7996  2.0607
  398MOL0     H53728   7.770  -0.337   8.922  0.0982 -1.2373 -0.5780
  398MOL0     H53729   8.160   0.260   8.345 -0.7341  0.4816 -0.0854
  398MOL0     H53730   8.249   0.477   8.299 -0.3324 -0.7211 -1.0306
  399MOL0     O53731   0.270   9.416   4.749 -0.5071  0.3041  0.6234
  399MOL0     C53732   0.370   9.441   4.681 -0.2705  0.1165  0.9260
  399MOL0     O53733   0.379   9.429   4.544  0.0049  0.8575 -0.1635
  399MOL0     C53734   0.275   9.384   4.468  0.3257  0.3743 -0.2035
  399MOL0     C53735   0.273   9.441   4.332 -0.0756  0.3630  0.2849
  399MOL0     C53736   0.175   9.405   4.247  0.5918 -0.2927  0.1353
  399MOL0     C53737   0.079   9.309   4.284 -0.7081 -0.5679  0.3226
  399MOL0     O53738  -0.013   9.264   4.194 -0.5730 -0.2322 -0.3485
  399MOL0     C53739  -0.032   9.118   4.175  0.6571  0.0285 -0.1029
  399MOL0     C53740   0.087   9.044   4.113 -0.6956 -0.0341  0.7128
  399MOL0     C53741   0.125   9.107   3.979 -0.1407  0.2989 -0.2411
  399MOL0     C53742   0.257   9.046   3.923  0.1582  1.0253 -0.8434
  399MOL0     C53743   0.266   9.091   3.769  0.4819 -0.1052  0.4180
  399MOL0     C53744   0.335   9.230   3.741 -0.0003  1.1464  0.3916
  399MOL0     C53745   0.375   9.240   3.588  0.2396 -0.4794 -0.7076
  399MOL0     C53746   0.265   9.288   3.499 -0.0909  0.5614  0.0484
  399MOL0     N53747   0.330   9.346   3.385 -0.3455  0.4995  0.1894
  399MOL0     C53748   0.406   9.288   3.291  0.4985 -0.6475  0.0957
  399MOL0     C53749   0.450   9.385   3.209  0.0461  1.3581  0.5468
  399MOL0     C53750   0.526   9.371   3.082 -0.4677 -0.5999  0.2550
  399MOL0     C53751   0.458   9.421   2.954 -0.7019  0.2405  0.1922
  399MOL0     C53752   0.330   9.352   2.907 -0.3754  0.5783  0.3292
  399MOL0     C53753   0.351   9.206   2.873 -0.8917 -0.7867  0.2993
  399MOL0     O53754   0.238   9.164   2.800 -0.0058 -0.1076  0.2815
  399MOL0     C53755   0.133   9.118   2.869  0.4614  0.5601 -0.4104
  399MOL0     C53756   0.022   9.073   2.789 -0.3761 -0.5303  0.4902
  399MOL0     C53757  -0.082   8.993   2.843 -0.5914 -0.7592  0.1255
  399MOL0     C53758  -0.193   8.953   2.746 -0.3789  0.0541  0.1064
  399MOL0     C53759  -0.086   8.956   2.978 -0.2800 -0.6163  1.1294
  399MOL0     C53760  -0.187   8.874   3.038 -0.2561  0.1314  0.1199
  399MOL0     O53761  -0.196   8.884   3.172  0.0974 -0.6546  0.6509
  399MOL0     C53762  -0.310   8.851   3.246 -0.2559  0.0152  0.3888
  399MOL0     C53763  -0.292   8.787   3.372  0.3805 -0.1835  0.3860
  399MOL0     C53764  -0.407   8.752   3.446 -0.2499 -0.4153 -1.0491
  399MOL0     C53765  -0.539   8.787   3.409  0.3442 -0.0664 -0.6774
  399MOL0     O53766  -0.657   8.732   3.470 -0.5918 -0.0814  0.2966
  399MOL0     C53767  -0.746   8.660   3.379  0.4143 -0.1571 -0.2462
  399MOL0     C53768  -0.845   8.553   3.451 -0.2846  0.6293  0.4051
  399MOL0     C53769  -0.808   8.543   3.597 -0.9173  0.6276 -0.0784
  399MOL0     C53770  -0.893   8.449   3.686  1.0939  0.8526  0.3231
  399MOL0     C53771  -0.967   8.537   3.787 -0.1181  0.3117  0.4481
  399MOL0     C53772  -1.063   8.441   3.869 -0.7327  0.9559  0.0618
  399MOL0     C53773  -1.070   8.502   4.011 -0.5895 -0.7085 -0.2665
  399MOL0     C53774  -1.156   8.626   4.010 -0.2135 -0.2669 -0.0973
  399MOL0    Cl53775  -1.332   8.597   3.974 -0.3107 -0.1988  0.0285
  399MOL0     C53776  -0.551   8.870   3.293 -0.0508 -0.4861 -0.7953
  399MOL0     C53777  -0.440   8.893   3.211  0.2208 -1.0743  0.2289
  399MOL0     O53778  -0.231   8.779   2.977 -0.2534 -0.1345  0.1109
  399MOL0     C53779   0.025   9.002   3.058  0.4730  0.2453 -0.3307
  399MOL0     C53780   0.130   9.083   3.003 -0.3134  1.5524 -0.1093
  399MOL0     N53781   0.407   9.504   3.256  0.3516 -0.1218 -0.2127
  399MOL0     N53782   0.326   9.479   3.357  0.3754  0.7925 -0.5646
  399MOL0     C53783   0.091   9.247   4.408  0.1280 -0.3113 -0.6080
  399MOL0     C53784   0.189   9.286   4.505 -0.9414  0.3742  0.0085
  399MOL0     C53785   0.501   9.459   4.748 -0.6456  0.3576 -0.2462
  399MOL0     C53786   0.510   9.500   4.879 -0.5213  0.3599  0.1623
  399MOL0     C53787   0.641   9.502   4.944 -0.4919  0.6355 -0.6979
  399MOL0     C53788   0.756   9.490   4.863  0.2113 -0.1984 -0.4827
  399MOL0     O53789   0.883   9.509   4.907 -0.0686 -0.1654  0.2317
  399MOL0     C53790   0.904   9.553   5.038  1.0093  0.1123 -1.3794
  399MOL0     C53791   1.044   9.566   5.095  0.0585 -0.6283  0.2455
  399MOL0     C53792   1.123   9.447   5.046 -0.6007  0.4014 -0.6376
  399MOL0     C53793   1.244   9.421   5.142 -0.1884 -0.2143  0.5568
  399MOL0     C53794   1.346   9.514   5.088  0.0925  1.3478 -0.0700
  399MOL0     C53795   1.426   9.582   5.021  0.3245 -0.5813  0.7879
  399MOL0     C53796   0.746   9.464   4.729 -0.5725  0.4192 -0.3474
  399MOL0     C53797   0.626   9.443   4.674 -0.5890 -0.9388  0.1511
  399MOL0     H53798   0.339   9.522   4.302  0.4948 -0.2890 -0.2483
  399MOL0     H53799   0.168   9.438   4.144 -0.8954  2.1148  0.9306
  399MOL0     H53800  -0.058   9.073   4.271  3.3429  0.9603  1.1750
  399MOL0     H53801  -0.120   9.097   4.114 -0.3656  4.1900 -0.3915
  399MOL0     H53802   0.167   9.050   4.188  1.4238 -1.5248 -1.3106
  399MOL0     H53803   0.071   8.936   4.116 -1.3147 -0.0129 -0.9245
  399MOL0     H53804   0.047   9.084   3.905  2.1108 -3.4471 -1.7574
  399MOL0     H53805   0.144   9.214   3.990 -0.3190  0.2623  0.4404
  399MOL0     H53806   0.342   9.080   3.982  0.2265 -0.7236  0.1558
  399MOL0     H53807   0.251   8.937   3.918  3.8110  0.4414  2.5066
  399MOL0     H53808   0.333   9.015   3.728  1.0767  0.6663 -0.0927
  399MOL0     H53809   0.180   9.074   3.703  1.4465 -3.8730 -0.0500
  399MOL0     H53810   0.256   9.305   3.755 -1.1044  0.5020 -1.8084
  399MOL0     H53811   0.420   9.246   3.808 -2.3678  2.9407  3.2011
  399MOL0     H53812   0.463   9.304   3.588  0.3851 -0.6668 -0.0862
  399MOL0     H53813   0.412   9.141   3.559 -3.3282 -1.9604 -0.7020
  399MOL0     H53814   0.206   9.368   3.543  0.5213  2.6119 -2.5972
  399MOL0     H53815   0.186   9.215   3.476 -2.3576  3.0076 -0.3986
  399MOL0     H53816   0.423   9.182   3.279  0.7507 -1.0007  2.9044
  399MOL0     H53817   0.607   9.443   3.099 -0.7170 -0.3130  0.2294
  399MOL0     H53818   0.565   9.269   3.069 -0.7701 -0.7405  0.4480
  399MOL0     H53819   0.531   9.413   2.873 -0.3215 -0.9558  0.6210
  399MOL0     H53820   0.446   9.528   2.971  0.3640  0.5951 -1.0891
  399MOL0     H53821   0.285   9.401   2.819  0.3434  5.9203  2.5765
  399MOL0     H53822   0.258   9.359   2.989  0.2394 -2.0951  1.2261
  399MOL0     H53823   0.395   9.142   2.948 -0.0803  1.5853  1.9702
  399MOL0     H53824   0.428   9.200   2.795 -0.8541 -1.4561  0.3855
  399MOL0     H53825   0.022   9.108   2.686  0.4598 -0.0287  0.6540
  399MOL0     H53826  -0.289   8.991   2.783  1.5391  3.6002  1.9331
  399MOL0     H53827  -0.178   9.002   2.649 -0.1735 -0.9296 -0.3730
  399MOL0     H53828  -0.184   8.846   2.729 -1.7188 -0.5750  2.8198
  399MOL0     H53829  -0.185   8.770   3.381  0.9065  0.5503 -2.9630
  399MOL0     H53830  -0.380   8.698   3.536  1.5715  0.8106 -0.8099
  399MOL0     H53831  -0.801   8.734   3.319  1.0891 -0.1014 -0.8012
  399MOL0     H53832  -0.688   8.598   3.310 -2.1360 -3.5675  0.4127
  399MOL0     H53833  -0.950   8.575   3.427 -0.3215 -1.6174 -1.9901
  399MOL0     H53834  -0.826   8.454   3.409  1.3679  1.3266 -0.6078
  399MOL0     H53835  -0.810   8.645   3.638 -1.3067  1.1700 -1.4027
  399MOL0     H53836  -0.701   8.519   3.600 -1.3453 -1.3561  0.6393
  399MOL0     H53837  -0.960   8.380   3.633  0.5276  1.3616  0.3704
  399MOL0     H53838  -0.836   8.367   3.731 -1.5402 -0.9758  0.5796
  399MOL0     H53839  -1.036   8.610   3.741 -2.3361 -1.0177  1.4933
  399MOL0     H53840  -0.894   8.598   3.840 -0.0110  0.1488  0.4871
  399MOL0     H53841  -1.161   8.422   3.824 -0.4821  2.4710 -1.2172
  399MOL0     H53842  -1.020   8.341   3.881 -0.1562  0.9465 -1.7240
  399MOL0     H53843  -0.973   8.533   4.052 -0.6951  0.1731 -0.6374
  399MOL0     H53844  -1.099   8.420   4.076  0.1146 -4.3197 -4.0915
  399MOL0     H53845  -1.107   8.702   3.949 -1.0913  0.7667  0.4553
  399MOL0     H53846  -1.153   8.655   4.116 -1.6620  1.7097 -0.5412
  399MOL0     H53847  -0.649   8.898   3.255 -0.6076  0.0834  0.9507
  399MOL0     H53848  -0.451   8.963   3.129  3.4765  0.3361  0.8476
  399MOL0     H53849   0.031   8.963   3.160  1.2420 -3.1342 -1.5295
  399MOL0     H53850   0.223   9.102   3.055 -1.8350  5.9472  1.5270
  399MOL0     H53851   0.031   9.161   4.436  0.7301 -0.8604 -0.9840
  399MOL0     H53852   0.193   9.246   4.606 -1.0168  0.2726 -0.0281
  399MOL0     H53853   0.417   9.516   4.933 -1.5994 -1.1258 -1.1708
  399MOL0     H53854   0.640   9.520   5.051  0.9198 -3.8718  0.2853
  399MOL0     H53855   0.855   9.649   5.054  1.9969  0.1915  1.8143
  399MOL0     H53856   0.843   9.501   5.113 -0.0923  1.8579 -1.0001
  399MOL0     H53857   1.027   9.572   5.203  0.6010 -0.2789  0.3117
  399MOL0     H53858   1.087   9.662   5.067 -0.5087  0.2142  2.1397
  399MOL0     H53859   1.153   9.457   4.941  0.0845  0.9321 -0.3958
  399MOL0     H53860   1.061   9.357   5.050  1.5265 -1.1029  1.3941
  399MOL0     H53861   1.278   9.317   5.139 -0.6951 -0.4205 -3.6782
  399MOL0     H53862   1.220   9.450   5.245 -3.5204  0.6793 -0.3424
  399MOL0     H53863   1.503   9.628   4.962 -1.2180  1.9786  0.5955
  399MOL0     H53864   0.834   9.431   4.674  0.2340 -5.7078  3.6910
  399MOL0     H53865   0.616   9.407   4.572  5.5733 -1.3687 -0.6584
  400MOL0     O53866   1.197   4.885   7.658 -1.2385 -1.2386  0.2136
  400MOL0     C53867   1.281   4.972   7.623  0.2203 -0.0604  1.3311
  400MOL0     O53868   1.252   5.101   7.593 -0.1953  0.0666  0.7865
  400MOL0     C53869   1.128   5.161   7.621 -0.7028  0.1337  0.2239
  400MOL0     C53870   1.007   5.097   7.578 -0.1038  1.1319 -0.0945
  400MOL0     C53871   0.885   5.135   7.631 -0.3981  0.0651  0.1086
  400MOL0     C53872   0.877   5.217   7.743 -0.2526 -0.2286  0.6120
  400MOL0     O53873   0.760   5.240   7.813 -0.3328 -0.2509 -1.4421
  400MOL0     C53874   0.651   5.145   7.813  0.4710 -0.5007 -0.2425
  400MOL0     C53875   0.585   5.137   7.951  0.5927 -0.1119 -0.3816
  400MOL0     C53876   0.502   5.001   7.975  1.1235  0.5862  1.1443
  400MOL0     C53877   0.408   5.004   8.094 -0.0927  0.7451 -1.0504
  400MOL0     C53878   0.337   4.873   8.128 -0.4163 -0.8568 -0.1536
  400MOL0     C53879   0.437   4.791   8.217  1.8365  0.5129  0.2840
  400MOL0     C53880   0.386   4.644   8.205  0.9478 -0.0782  0.2440
  400MOL0     C53881   0.473   4.554   8.287 -0.9388  0.7874 -0.4305
  400MOL0     N53882   0.455   4.577   8.432  0.3178  0.2560  0.2604
  400MOL0     C53883   0.356   4.528   8.518 -0.1081  1.1408 -0.5822
  400MOL0     C53884   0.415   4.527   8.643  1.1003 -0.7408 -0.7786
  400MOL0     C53885   0.337   4.465   8.759 -0.3494 -0.6683 -0.4484
  400MOL0     C53886   0.400   4.469   8.897  0.7634 -0.9268  0.3471
  400MOL0     C53887   0.347   4.360   8.993  0.6645 -0.5726  0.9013
  400MOL0     C53888   0.378   4.394   9.138  0.2937 -0.1596 -0.2535
  400MOL0     O53889   0.507   4.442   9.166 -0.4977  0.2063  1.1018
  400MOL0     C53890   0.611   4.349   9.139  0.3872  1.0502  0.7719
  400MOL0     C53891   0.588   4.208   9.116 -0.3766 -0.8464  0.4633
  400MOL0     C53892   0.712   4.128   9.128  0.3424  0.2580 -0.0240
  400MOL0     C53893   0.695   3.984   9.108  0.0991 -0.4678 -0.1676
  400MOL0     C53894   0.844   4.186   9.149  0.4518  0.3354 -0.2365
  400MOL0     C53895   0.963   4.113   9.208  0.0298 -0.0371 -0.1948
  400MOL0     O53896   0.939   3.988   9.261  0.0911  0.0440 -0.2508
  400MOL0     C53897   1.042   3.900   9.241  1.2341  0.8283 -0.7852
  400MOL0     C53898   1.082   3.808   9.342 -0.3643 -0.3516 -0.0061
  400MOL0     C53899   1.174   3.704   9.330  1.0914  0.3213  0.5368
  400MOL0     C53900   1.238   3.698   9.206  0.0690 -0.5772  0.0919
  400MOL0     O53901   1.330   3.607   9.190 -0.4908 -0.7196  0.3208
  400MOL0     C53902   1.423   3.566   9.294  1.2799  0.0478  0.7325
  400MOL0     C53903   1.487   3.440   9.251 -0.0648  0.5172  1.0957
  400MOL0     C53904   1.418   3.326   9.159  1.0031  0.3450  0.2754
  400MOL0     C53905   1.526   3.222   9.121 -0.8308  0.4853  0.4235
  400MOL0     C53906   1.470   3.090   9.064 -0.4905 -0.7489 -0.1082
  400MOL0     C53907   1.583   2.992   9.041 -0.3916 -0.6748  0.6326
  400MOL0     C53908   1.513   2.862   8.997 -0.3888  0.5421  0.2301
  400MOL0     C53909   1.621   2.763   8.953 -0.3863  0.3162 -0.2200
  400MOL0    Cl53910   1.695   2.691   9.110 -0.1152 -0.0264  0.5499
  400MOL0     C53911   1.203   3.792   9.104  0.0438  0.0802  0.2423
  400MOL0     C53912   1.104   3.891   9.121  0.8528 -0.9587  1.1295
  400MOL0     O53913   1.075   4.168   9.201 -0.8764 -0.1361 -0.1331
  400MOL0     C53914   0.857   4.323   9.154 -0.4012  0.2596  0.5693
  400MOL0     C53915   0.744   4.404   9.146  0.6649  0.0640 -0.9069
  400MOL0     N53916   0.543   4.588   8.626  0.0753  0.5731  0.4818
  400MOL0     N53917   0.557   4.623   8.506  0.0091 -0.2259  0.4274
  400MOL0     C53918   0.990   5.290   7.794 -0.3305  0.0092  0.2023
  400MOL0     C53919   1.120   5.256   7.729  0.1801  0.5149 -0.3343
  400MOL0     C53920   1.420   4.927   7.622 -0.4343 -0.4670 -0.3282
  400MOL0     C53921   1.467   4.797   7.642 -0.0468 -0.7968  0.7282
  400MOL0     C53922   1.602   4.772   7.635 -0.3355  0.1778 -1.0066
  400MOL0     C53923   1.695   4.878   7.623 -0.3604  0.2969 -0.1245
  400MOL0     O53924   1.834   4.862   7.633 -0.4160  0.4628 -0.9201
  400MOL0     C53925   1.915   4.747   7.668  0.5444 -0.1920  0.2648
  400MOL0     C53926   2.042   4.794   7.756  0.8963  0.6279  0.5682
  400MOL0     C53927   2.013   4.861   7.887  0.7511  0.6534 -0.5752
  400MOL0     C53928   2.138   4.924   7.950  0.3541  0.1681  0.4013
  400MOL0     C53929   2.178   5.035   7.862  0.0751 -0.2175  0.2002
  400MOL0     C53930   2.212   5.108   7.773 -1.2374  0.0738 -0.0934
  400MOL0     C53931   1.651   5.005   7.608  0.4102 -0.0321 -0.7753
  400MOL0     C53932   1.513   5.034   7.603 -0.6027 -0.0870 -0.7928
  400MOL0     H53933   1.013   5.019   7.502 -2.4012 -0.7400  1.4858
  400MOL0     H53934   0.795   5.082   7.600  0.0676 -0.8859  0.3528
  400MOL0     H53935   0.585   5.182   7.735  2.7047  4.7471 -0.0671
  400MOL0     H53936   0.697   5.049   7.790 -1.3347 -2.4330  3.2971
  400MOL0     H53937   0.656   5.143   8.034  0.9741  0.8190 -0.7641
  400MOL0     H53938   0.513   5.218   7.961 -1.3013 -1.9735  3.3589
  400MOL0     H53939   0.453   4.967   7.883  1.9144 -2.4812  1.7418
  400MOL0     H53940   0.565   4.913   7.992  3.2210  2.1964  2.1847
  400MOL0     H53941   0.469   5.048   8.173  0.1179  0.4352 -1.0370
  400MOL0     H53942   0.324   5.069   8.069 -1.0563  0.4415  1.1459
  400MOL0     H53943   0.240   4.887   8.178 -1.2402 -2.5053 -1.1801
  400MOL0     H53944   0.315   4.820   8.035 -2.2344  1.6368 -1.2488
  400MOL0     H53945   0.539   4.787   8.177  0.7741  0.5524 -2.7092
  400MOL0     H53946   0.419   4.812   8.323 -2.3715  3.2816 -0.7334
  400MOL0     H53947   0.286   4.634   8.248  0.3916  1.2623 -0.6655
  400MOL0     H53948   0.375   4.612   8.101 -0.5665  0.2823  0.2580
  400MOL0     H53949   0.577   4.570   8.259 -0.4830 -2.6188 -1.1829
  400MOL0     H53950   0.453   4.452   8.253  2.0569  0.2908 -0.9784
  400MOL0     H53951   0.259   4.480   8.505  0.3621  0.8906 -3.8183
  400MOL0     H53952   0.234   4.503   8.767  0.1954  1.7861 -3.2619
  400MOL0     H53953   0.327   4.356   8.755  0.0772 -0.8079  1.4967
  400MOL0     H53954   0.393   4.563   8.953 -2.1870 -1.2082  0.6011
  400MOL0     H53955   0.509   4.463   8.885  0.6491  0.3935 -2.1307
  400MOL0     H53956   0.394   4.267   8.959 -0.3113 -2.0449  3.3268
  400MOL0     H53957   0.239   4.355   8.982  0.3032  2.8163  1.6821
  400MOL0     H53958   0.360   4.302   9.195 -1.5602  0.8064  0.7835
  400MOL0     H53959   0.310   4.474   9.167 -0.8802 -0.8949 -0.8842
  400MOL0     H53960   0.490   4.161   9.122 -0.7579  0.1379  2.9047
  400MOL0     H53961   0.613   3.960   9.041 -0.5850 -0.3507  0.6073
  400MOL0     H53962   0.788   3.940   9.071  2.6893  1.0132  3.7632
  400MOL0     H53963   0.682   3.929   9.202 -0.6481  1.3565  0.8492
  400MOL0     H53964   1.022   3.806   9.433  1.2204  0.7049  1.1095
  400MOL0     H53965   1.188   3.627   9.406  0.7967  1.3540  1.6727
  400MOL0     H53966   1.497   3.644   9.314 -0.3804  3.0588 -3.4850
  400MOL0     H53967   1.377   3.540   9.390  2.7493  1.1458  1.7689
  400MOL0     H53968   1.577   3.463   9.194  0.5119 -2.9427  0.3956
  400MOL0     H53969   1.516   3.385   9.341 -0.8380 -3.5470 -0.9261
  400MOL0     H53970   1.382   3.373   9.067  0.3386 -1.8457 -0.6500
  400MOL0     H53971   1.333   3.273   9.202  1.0138  0.4885  0.4745
  400MOL0     H53972   1.585   3.261   9.037 -1.6900  2.9251  0.8774
  400MOL0     H53973   1.583   3.209   9.213  0.5925  4.0841  0.1927
  400MOL0     H53974   1.428   3.114   8.965  2.7903  3.8119 -0.7113
  400MOL0     H53975   1.393   3.053   9.132 -1.9463 -0.1758 -1.3836
  400MOL0     H53976   1.651   3.025   8.962  0.7225 -0.5882  1.6110
  400MOL0     H53977   1.649   2.978   9.127  1.4697  0.1175 -0.6270
  400MOL0     H53978   1.468   2.891   8.902  1.4977 -0.4059 -1.0033
  400MOL0     H53979   1.436   2.828   9.067  0.0553 -0.9393  0.0318
  400MOL0     H53980   1.696   2.807   8.887  1.0496 -2.4566 -0.6012
  400MOL0     H53981   1.566   2.686   8.897 -0.2080 -0.2522  0.3744
  400MOL0     H53982   1.253   3.789   9.008 -1.5743  0.9860 -0.6610
  400MOL0     H53983   1.081   3.949   9.033 -0.0743 -1.4724  1.0142
  400MOL0     H53984   0.948   4.378   9.175 -1.0987  1.7738 -0.2207
  400MOL0     H53985   0.765   4.510   9.164  0.0937 -0.3446  3.0013
  400MOL0     H53986   0.987   5.357   7.879 -0.3432 -0.5164  0.6272
  400MOL0     H53987   1.215   5.292   7.766 -0.5562  1.6373  0.5321
  400MOL0     H53988   1.396   4.718   7.666 -0.8954 -0.6568 -1.1133
  400MOL0     H53989   1.643   4.671   7.642  3.9644  1.7261 -1.0593
  400MOL0     H53990   1.861   4.670   7.724  1.7233 -0.5125  1.0065
  400MOL0     H53991   1.949   4.690   7.581 -1.5322 -3.0631  1.1805
  400MOL0     H53992   2.100   4.860   7.691 -0.4440 -0.0511 -1.4490
  400MOL0     H53993   2.102   4.704   7.772 -1.5750 -1.3248 -0.4720
  400MOL0     H53994   1.979   4.785   7.959  4.3442 -2.0357 -1.4399
  400MOL0     H53995   1.943   4.945   7.883  0.9641  1.0583  2.1779
  400MOL0     H53996   2.213   4.845   7.949  2.5190  2.1170 -0.2649
  400MOL0     H53997   2.121   4.963   8.051 -0.0536 -0.4031  0.5590
  400MOL0     H53998   2.266   5.152   7.692  0.1379  2.9297  2.1967
  400MOL0     H53999   1.721   5.088   7.617  2.0458 -1.2144 -1.9337
  400MOL0     H54000   1.494   5.141   7.602  0.9502  0.2784  1.7360
  401MOL0     O54001   2.966   5.096   8.285 -0.1607  0.4220  0.7083
  401MOL0     C54002   2.866   5.092   8.347 -0.0359 -0.1011 -0.0160
  401MOL0     O54003   2.759   5.175   8.337 -0.3007  0.5683 -0.5137
  401MOL0     C54004   2.761   5.268   8.238  0.5196 -1.2505 -0.8692
  401MOL0     C54005   2.639   5.280   8.161  0.0709 -0.1546  0.2627
  401MOL0     C54006   2.636   5.367   8.053  0.0001  0.7212  0.2551
  401MOL0     C54007   2.742   5.455   8.037  0.0063  0.3063 -0.3957
  401MOL0     O54008   2.721   5.540   7.939 -0.0413 -0.8673 -0.0081
  401MOL0     C54009   2.814   5.642   7.902  0.5121 -0.5075 -0.2561
  401MOL0     C54010   2.771   5.710   7.772 -0.7393  0.0331  0.1406
  401MOL0     C54011   2.828   5.860   7.751 -0.2767 -0.5524  0.3730
  401MOL0     C54012   2.985   5.881   7.744 -0.0974  0.4603  0.3615
  401MOL0     C54013   3.015   6.030   7.753  0.6524  0.1109 -0.4668
  401MOL0     C54014   3.167   6.041   7.691  0.0403  0.9906 -0.1961
  401MOL0     C54015   3.218   6.187   7.647  0.6647 -0.4608 -0.1793
  401MOL0     C54016   3.349   6.205   7.583  0.3088  0.1465 -1.2391
  401MOL0     N54017   3.459   6.162   7.670 -0.3955 -0.4317  0.3732
  401MOL0     C54018   3.518   6.248   7.760  0.7113  0.3615  0.6622
  401MOL0     C54019   3.616   6.189   7.822 -0.5935 -0.2645 -0.1027
  401MOL0     C54020   3.712   6.258   7.919 -0.2544  0.2156 -0.2410
  401MOL0     C54021   3.713   6.184   8.058 -0.2279  0.6184  0.5336
  401MOL0     C54022   3.816   6.073   8.058  0.0614 -0.0920  0.3153
  401MOL0     C54023   3.801   5.948   8.153 -0.2962  0.0769 -0.1846
  401MOL0     O54024   3.761   5.972   8.296 -1.0544  0.0082  1.1553
  401MOL0     C54025   3.858   6.038   8.369  0.0131 -0.3029  0.1024
  401MOL0     C54026   3.816   6.066   8.504 -0.3000 -0.6746 -0.0872
  401MOL0     C54027   3.896   6.132   8.596  0.8680 -0.4661  0.7925
  401MOL0     C54028   3.832   6.166   8.721 -0.1853 -0.2916  0.5234
  401MOL0     C54029   4.028   6.158   8.553 -0.7705  1.1166  0.7060
  401MOL0     C54030   4.113   6.245   8.625  0.2629  0.2050 -0.4804
  401MOL0     O54031   4.055   6.315   8.721 -0.1786 -0.0836 -0.5636
  401MOL0     C54032   4.121   6.409   8.799  0.4308  0.2483  0.7712
  401MOL0     C54033   4.185   6.369   8.927  0.5890  0.6110  0.7591
  401MOL0     C54034   4.229   6.476   9.003 -1.1980  0.3230 -0.0369
  401MOL0     C54035   4.222   6.608   8.966  0.2013 -0.4903 -0.3494
  401MOL0     O54036   4.254   6.715   9.050 -0.3435  0.0088 -0.5908
  401MOL0     C54037   4.332   6.684   9.172  0.7201  0.0148  0.7691
  401MOL0     C54038   4.381   6.811   9.226  0.3111 -1.1798 -0.1792
  401MOL0     C54039   4.471   6.786   9.348 -0.0361 -0.2198  0.6353
  401MOL0     C54040   4.568   6.898   9.387 -0.1473  1.0866 -0.1665
  401MOL0     C54041   4.632   6.874   9.527 -0.6199  0.1689 -0.6488
  401MOL0     C54042   4.732   6.971   9.570  0.2876 -0.2801  0.7717
  401MOL0     C54043   4.681   7.121   9.588 -0.8967 -0.8115  1.8725
  401MOL0     C54044   4.787   7.204   9.658  1.3653  0.5949 -0.4469
  401MOL0    Cl54045   4.936   7.196   9.558  0.0455  0.2872 -0.0844
  401MOL0     C54046   4.170   6.636   8.832  1.0517  0.5055 -0.3765
  401MOL0     C54047   4.124   6.539   8.750 -0.7198 -0.0899  0.6774
  401MOL0     O54048   4.231   6.255   8.600  0.3346 -0.0510  1.1545
  401MOL0     C54049   4.078   6.098   8.435 -0.4791  0.5147  0.2232
  401MOL0     C54050   3.994   6.043   8.339  0.7480  0.4739  0.3671
  401MOL0     N54051   3.615   6.062   7.771  0.3673  0.3536  0.5464
  401MOL0     N54052   3.507   6.043   7.694 -0.5546 -0.4689 -0.2381
  401MOL0     C54053   2.855   5.454   8.122 -0.3432  1.5889  0.3972
  401MOL0     C54054   2.863   5.359   8.227  0.5419 -0.3585  0.1193
  401MOL0     C54055   2.868   5.004   8.474 -0.2881  0.0059  0.5135
  401MOL0     C54056   2.980   4.921   8.503  1.0307  0.7276 -0.1779
  401MOL0     C54057   2.979   4.822   8.600  0.0350 -0.3763 -0.6293
  401MOL0     C54058   2.858   4.810   8.672  0.2052 -0.0103  0.5033
  401MOL0     O54059   2.848   4.708   8.758  0.4316  0.4822  0.5314
  401MOL0     C54060   2.873   4.742   8.891 -1.2572 -0.4721 -0.1364
  401MOL0     C54061   2.760   4.828   8.952 -0.3543  0.8948  1.0224
  401MOL0     C54062   2.782   4.861   9.097 -1.2791  0.3858  0.1870
  401MOL0     C54063   2.678   4.948   9.171  0.1585  0.1544 -0.6839
  401MOL0     C54064   2.540   4.887   9.175  1.1460  0.4338  0.2395
  401MOL0     C54065   2.423   4.851   9.174  0.1673 -0.2934  0.7001
  401MOL0     C54066   2.745   4.890   8.642  0.7999 -0.9722 -0.5997
  401MOL0     C54067   2.748   4.977   8.533  0.5676  0.9209 -0.4962
  401MOL0     H54068   2.566   5.200   8.165 -1.4796  1.0697 -1.7548
  401MOL0     H54069   2.556   5.359   7.981 -1.6064 -1.2261  2.1242
  401MOL0     H54070   2.804   5.722   7.976 -1.4936  0.8979 -1.9276
  401MOL0     H54071   2.915   5.599   7.890  1.7991  1.9740  0.9084
  401MOL0     H54072   2.793   5.639   7.692 -3.3558 -2.2823  1.2876
  401MOL0     H54073   2.664   5.716   7.754 -0.4747  1.0248 -1.2396
  401MOL0     H54074   2.802   5.884   7.647  3.3493 -0.5092 -0.6632
  401MOL0     H54075   2.785   5.926   7.827  3.5097  1.3271  1.1302
  401MOL0     H54076   3.022   5.830   7.834 -1.7704  2.3864  2.2559
  401MOL0     H54077   3.026   5.834   7.655  0.6194 -0.3722  1.1049
  401MOL0     H54078   2.944   6.080   7.687 -0.4014 -0.4293  0.2380
  401MOL0     H54079   3.026   6.078   7.851  3.8121  1.5892 -1.4045
  401MOL0     H54080   3.229   5.984   7.760 -3.1185 -1.0977  1.1640
  401MOL0     H54081   3.166   5.985   7.597 -0.6923  0.1523  0.3050
  401MOL0     H54082   3.143   6.222   7.576 -0.5404 -1.0787  0.7357
  401MOL0     H54083   3.204   6.261   7.727 -1.0132  1.7935 -2.4036
  401MOL0     H54084   3.365   6.305   7.542 -0.5713  1.8692  2.2148
  401MOL0     H54085   3.336   6.138   7.497  1.0275 -2.0042  0.2604
  401MOL0     H54086   3.484   6.350   7.779  1.0734  0.3320  1.4923
  401MOL0     H54087   3.813   6.252   7.878  0.7690 -1.4378  2.2956
  401MOL0     H54088   3.692   6.364   7.937  0.9090 -0.1782  4.6192
  401MOL0     H54089   3.616   6.136   8.069  0.3417 -1.1918 -1.5388
  401MOL0     H54090   3.736   6.247   8.144 -0.0322  0.7662  0.3745
  401MOL0     H54091   3.909   6.127   8.081 -1.1784  1.8258  1.0334
  401MOL0     H54092   3.833   6.040   7.955  1.5506 -1.3032  0.9076
  401MOL0     H54093   3.889   5.884   8.145 -0.8174 -0.9937  1.8883
  401MOL0     H54094   3.719   5.896   8.103 -2.2274  1.9281  0.8630
  401MOL0     H54095   3.710   6.044   8.515 -1.0936  2.4272 -0.6862
  401MOL0     H54096   3.894   6.128   8.802 -0.1012  0.7668  0.9676
  401MOL0     H54097   3.812   6.273   8.732  0.9628  0.2110 -1.7287
  401MOL0     H54098   3.741   6.105   8.732 -1.6004  1.7065  0.4430
  401MOL0     H54099   4.187   6.267   8.965  0.1779  0.2818 -0.0791
  401MOL0     H54100   4.277   6.443   9.094 -1.6139  0.8027  0.3657
  401MOL0     H54101   4.273   6.634   9.249 -1.3057  0.7458 -0.1997
  401MOL0     H54102   4.401   6.613   9.127 -0.4721 -1.3836  1.0556
  401MOL0     H54103   4.448   6.860   9.155 -0.5666  1.9941  1.0468
  401MOL0     H54104   4.298   6.873   9.260 -0.8495 -3.1241  0.6996
  401MOL0     H54105   4.532   6.697   9.328 -0.4806  0.4520 -5.7704
  401MOL0     H54106   4.398   6.764   9.426 -0.9604 -2.8096 -0.8462
  401MOL0     H54107   4.646   6.890   9.311  0.3343  0.8879  0.3426
  401MOL0     H54108   4.526   6.999   9.384  0.2250  1.2235 -0.9558
  401MOL0     H54109   4.661   6.769   9.528  2.7714  0.9469  1.6317
  401MOL0     H54110   4.546   6.874   9.594 -2.0850 -1.7260 -2.4263
  401MOL0     H54111   4.760   6.944   9.672  2.2631 -0.3927  0.2339
  401MOL0     H54112   4.823   6.969   9.510  1.1043 -0.5559  2.0012
  401MOL0     H54113   4.584   7.125   9.638 -2.4498  4.7464 -0.7906
  401MOL0     H54114   4.667   7.156   9.486  1.0014 -1.4472  1.3528
  401MOL0     H54115   4.809   7.171   9.760 -1.1249  1.3704  0.4126
  401MOL0     H54116   4.758   7.309   9.673 -1.2845 -0.0110 -0.9129
  401MOL0     H54117   4.180   6.739   8.800  1.4666  1.2676  2.0048
  401MOL0     H54118   4.102   6.567   8.648 -0.6347  1.2316  0.9987
  401MOL0     H54119   4.185   6.107   8.419 -0.5074  0.1439 -0.1850
  401MOL0     H54120   4.026   5.987   8.252 -1.0568 -0.9545  0.5727
  401MOL0     H54121   2.930   5.531   8.125 -1.2413  2.5426 -0.6481
  401MOL0     H54122   2.951   5.359   8.291  1.9417  2.1887 -1.6237
  401MOL0     H54123   3.067   4.927   8.437  0.8001 -0.0138 -0.5557
  401MOL0     H54124   3.064   4.762   8.631  0.9464  0.6248 -1.1409
  401MOL0     H54125   2.903   4.653   8.948  0.8777  1.4571  2.0516
  401MOL0     H54126   2.966   4.800   8.892 -0.8785 -0.9466 -2.6451
  401MOL0     H54127   2.666   4.774   8.939 -1.2737  2.5746  0.3764
  401MOL0     H54128   2.762   4.921   8.894  2.0494 -0.3895 -1.1745
  401MOL0     H54129   2.875   4.918   9.092  0.0988 -1.6694  1.0552
  401MOL0     H54130   2.797   4.774   9.161 -2.1836  1.9054  2.6029
  401MOL0     H54131   2.675   5.050   9.132 -1.4000  0.0790 -0.8298
  401MOL0     H54132   2.715   4.950   9.274 -1.5169  0.2370 -0.0600
  401MOL0     H54133   2.325   4.817   9.148  1.7006 -1.9106 -3.8757
  401MOL0     H54134   2.648   4.870   8.687 -0.2060  0.2693 -2.1095
  401MOL0     H54135   2.649   5.013   8.507 -0.2234  0.2060  1.3538
  402MOL0     O54136   2.860   3.005   8.583 -0.8484 -0.5213 -0.6302
  402MOL0     C54137   2.812   2.919   8.508  0.8848 -0.0958  0.1677
  402MOL0     O54138   2.752   2.802   8.549  0.6816  0.3128  1.3164
  402MOL0     C54139   2.729   2.783   8.680  1.1052  0.5047  0.8167
  402MOL0     C54140   2.677   2.874   8.772 -0.0804  0.4127  0.6421
  402MOL0     C54141   2.666   2.853   8.908  0.1849  1.6401  0.7359
  402MOL0     C54142   2.710   2.729   8.966 -0.4839 -0.2067  0.3371
  402MOL0     O54143   2.712   2.731   9.105 -0.3425  0.2405  0.0134
  402MOL0     C54144   2.771   2.623   9.167 -0.2627 -0.8121 -0.4911
  402MOL0     C54145   2.687   2.492   9.180  0.0481  0.7717 -0.3808
  402MOL0     C54146   2.739   2.414   9.307  0.9494  0.7097  1.0392
  402MOL0     C54147   2.707   2.270   9.290 -0.6233  0.1016 -0.3801
  402MOL0     C54148   2.703   2.188   9.413 -0.4740  0.1645 -0.8737
  402MOL0     C54149   2.829   2.205   9.507  0.5160  1.4930  0.3844
  402MOL0     C54150   2.797   2.109   9.630  0.3364  0.3602  0.9248
  402MOL0     C54151   2.802   1.958   9.595  0.5979 -1.5209 -1.0182
  402MOL0     N54152   2.766   1.879   9.717  0.0599 -0.9125 -0.6127
  402MOL0     C54153   2.655   1.800   9.742 -0.2216  1.0277  0.0439
  402MOL0     C54154   2.680   1.753   9.867  0.7310 -0.4230 -0.3010
  402MOL0     C54155   2.603   1.651   9.949 -0.2486 -1.3118  0.9143
  402MOL0     C54156   2.462   1.614   9.896 -0.9668  0.1507 -0.8175
  402MOL0     C54157   2.468   1.492   9.799  0.6529 -0.0740  0.5236
  402MOL0     C54158   2.351   1.481   9.685 -0.3465  0.0165  0.3912
  402MOL0     O54159   2.221   1.474   9.742  0.0911 -0.4002  0.7040
  402MOL0     C54160   2.112   1.438   9.660 -0.5768 -0.0017 -1.1860
  402MOL0     C54161   1.992   1.438   9.729 -0.2586  0.6993  0.1183
  402MOL0     C54162   1.876   1.394   9.674  0.0079 -0.6955  0.5853
  402MOL0     C54163   1.767   1.383   9.771  0.6460  0.8622  0.0053
  402MOL0     C54164   1.872   1.369   9.528 -0.0270 -0.0352  0.6294
  402MOL0     C54165   1.754   1.332   9.449 -0.7146  0.5419 -0.1297
  402MOL0     O54166   1.645   1.413   9.460  0.4667 -0.2133  0.3026
  402MOL0     C54167   1.530   1.381   9.380 -0.8432 -0.8463  0.1849
  402MOL0     C54168   1.532   1.347   9.243  0.1563 -0.4714  0.1185
  402MOL0     C54169   1.417   1.323   9.171 -0.2766 -0.7803 -0.1988
  402MOL0     C54170   1.292   1.316   9.239 -0.5668 -0.4322 -0.9058
  402MOL0     O54171   1.178   1.295   9.175 -0.1251 -0.4215  0.1598
  402MOL0     C54172   1.154   1.158   9.156 -0.1861 -0.5569  0.0731
  402MOL0     C54173   1.022   1.148   9.069 -0.3694 -0.2558  0.8131
  402MOL0     C54174   0.995   1.000   9.022  0.6985  0.7887 -0.7427
  402MOL0     C54175   0.851   0.988   8.953 -0.0440 -0.5385  0.1699
  402MOL0     C54176   0.868   1.021   8.805 -0.5136  0.5408 -0.6237
  402MOL0     C54177   0.926   0.908   8.728 -0.4690 -0.3963  0.3368
  402MOL0     C54178   0.968   0.946   8.582  0.7746 -1.1700 -0.5029
  402MOL0     C54179   1.051   0.848   8.520 -0.2051  0.2412 -0.4071
  402MOL0    Cl54180   1.015   0.825   8.348  0.0759 -0.1137  0.5281
  402MOL0     C54181   1.285   1.369   9.371 -0.9857  0.1354  0.7068
  402MOL0     C54182   1.400   1.400   9.444 -1.0774 -0.2883  0.5472
  402MOL0     O54183   1.764   1.241   9.368  0.1830  0.2139 -0.7524
  402MOL0     C54184   1.993   1.383   9.452 -0.3688  0.6849  0.2806
  402MOL0     C54185   2.116   1.418   9.518 -0.1513 -0.9883  0.1597
  402MOL0     N54186   2.802   1.792   9.913  0.7352 -0.1461  0.5003
  402MOL0     N54187   2.844   1.872   9.824 -0.1908  0.9303  0.8702
  402MOL0     C54188   2.767   2.641   8.876 -0.0402  0.0922 -1.0142
  402MOL0     C54189   2.770   2.665   8.740 -1.0146 -0.7930 -0.4076
  402MOL0     C54190   2.835   2.933   8.368  0.6543 -0.6492  0.1672
  402MOL0     C54191   2.930   3.015   8.316  0.4996 -0.3234  0.1703
  402MOL0     C54192   2.959   3.024   8.175 -0.3072  0.6469  0.2852
  402MOL0     C54193   2.888   2.947   8.086 -0.9742  0.8026 -0.8978
  402MOL0     O54194   2.909   2.958   7.952  0.4580 -0.1269  0.2352
  402MOL0     C54195   2.959   2.849   7.866  1.1448 -0.0071 -0.4635
  402MOL0     C54196   3.079   2.775   7.929  0.4505 -0.3492 -0.3439
  402MOL0     C54197   3.205   2.858   7.897 -0.0072 -0.1646 -1.0651
  402MOL0     C54198   3.246   2.856   7.745  0.1304  0.0732  0.6102
  402MOL0     C54199   3.304   2.723   7.725  0.2336 -0.2825  0.6552
  402MOL0     C54200   3.334   2.610   7.686 -0.0050  0.5505 -0.1165
  402MOL0     C54201   2.792   2.858   8.137  0.1180 -0.3724 -0.0483
  402MOL0     C54202   2.772   2.847   8.274  0.4540  0.3585  0.0122
  402MOL0     H54203   2.651   2.973   8.735  1.5199  0.9684  0.9215
  402MOL0     H54204   2.644   2.946   8.960 -1.0172  0.1904  2.9809
  402MOL0     H54205   2.868   2.602   9.123 -1.1824 -3.7777 -1.3294
  402MOL0     H54206   2.787   2.664   9.267 -0.3892 -0.2783 -0.6835
  402MOL0     H54207   2.580   2.515   9.182 -0.5475 -1.2407 -2.8173
  402MOL0     H54208   2.709   2.427   9.095 -1.4164 -0.8900  0.4322
  402MOL0     H54209   2.848   2.426   9.304  0.9631  0.6753 -2.6636
  402MOL0     H54210   2.700   2.449   9.403  1.4652  2.0935  0.7648
  402MOL0     H54211   2.612   2.258   9.237  1.0106 -2.1495 -3.1105
  402MOL0     H54212   2.777   2.227   9.217 -1.4061 -2.4801  0.2790
  402MOL0     H54213   2.613   2.209   9.471  0.3664 -1.1944  1.0004
  402MOL0     H54214   2.700   2.084   9.379 -2.6360 -0.6744  1.6240
  402MOL0     H54215   2.916   2.164   9.455 -1.6717 -0.1048 -2.2712
  402MOL0     H54216   2.834   2.307   9.547  1.2711  1.5266  0.2242
  402MOL0     H54217   2.877   2.132   9.701  2.5210 -3.9416  0.2334
  402MOL0     H54218   2.700   2.116   9.679  0.0418  0.3024  0.3527
  402MOL0     H54219   2.905   1.936   9.565  0.4506 -1.8056 -1.3045
  402MOL0     H54220   2.733   1.926   9.517  2.3233  2.3213 -4.5390
  402MOL0     H54221   2.570   1.784   9.676 -0.1137 -3.0649  0.6718
  402MOL0     H54222   2.665   1.561   9.954 -0.7645 -1.7621 -0.3727
  402MOL0     H54223   2.583   1.689  10.049  0.2478  2.8629 -0.3633
  402MOL0     H54224   2.412   1.702   9.854 -0.5128  2.0120  2.2562
  402MOL0     H54225   2.394   1.581   9.975  0.2180 -4.1920 -1.3481
  402MOL0     H54226   2.453   1.403   9.860  0.7539  1.7388  3.3458
  402MOL0     H54227   2.570   1.479   9.762  0.9887 -4.8889  2.4578
  402MOL0     H54228   2.376   1.383   9.645 -0.6907  1.1300 -2.8295
  402MOL0     H54229   2.350   1.554   9.603 -3.0063  2.9726  2.7589
  402MOL0     H54230   1.986   1.469   9.833 -0.9179  2.1366 -0.3190
  402MOL0     H54231   1.688   1.314   9.737 -0.0037  0.2815  2.4840
  402MOL0     H54232   1.791   1.347   9.872 -3.4981  0.7795  1.1639
  402MOL0     H54233   1.728   1.484   9.778 -1.9976 -0.1841  2.2448
  402MOL0     H54234   1.625   1.363   9.190 -0.6505  4.9770 -0.3065
  402MOL0     H54235   1.426   1.314   9.064  0.1451 -3.2076 -0.0126
  402MOL0     H54236   1.234   1.110   9.097  0.5972  1.9138 -0.9970
  402MOL0     H54237   1.138   1.099   9.246  0.8711  0.1486  0.7532
  402MOL0     H54238   0.933   1.186   9.121 -3.0026 -1.6328 -2.3195
  402MOL0     H54239   1.036   1.216   8.984  1.6346  0.8079  1.9146
  402MOL0     H54240   0.992   0.937   9.112 -1.4456  1.1831 -0.4804
  402MOL0     H54241   1.071   0.963   8.953 -0.4063  0.7682 -1.9694
  402MOL0     H54242   0.809   0.887   8.954 -3.7367  0.7363 -2.6932
  402MOL0     H54243   0.783   1.062   8.997  1.2986 -0.5205  2.3661
  402MOL0     H54244   0.925   1.115   8.805  0.2258  0.1009 -0.5366
  402MOL0     H54245   0.773   1.039   8.756 -0.9519  0.3914  0.1535
  402MOL0     H54246   1.013   0.870   8.781  1.6562  3.6926  0.1338
  402MOL0     H54247   0.860   0.820   8.724  0.5384 -1.6563  5.3376
  402MOL0     H54248   1.027   1.038   8.572 -0.4518 -0.6668 -6.8522
  402MOL0     H54249   0.877   0.961   8.523 -1.0884 -3.9728  1.4200
  402MOL0     H54250   1.046   0.752   8.573 -2.7713 -0.1499 -1.2289
  402MOL0     H54251   1.156   0.875   8.536 -0.0340 -0.0476 -1.0014
  402MOL0     H54252   1.191   1.359   9.423 -1.5645  1.0260 -0.1443
  402MOL0     H54253   1.405   1.440   9.545  1.1807 -0.1746  0.4466
  402MOL0     H54254   1.988   1.363   9.346 -2.5926 -0.4689  0.5401
  402MOL0     H54255   2.216   1.414   9.475 -0.4727 -2.6556 -0.5177
  402MOL0     H54256   2.808   2.553   8.927 -0.9779 -0.1075 -0.5818
  402MOL0     H54257   2.828   2.597   8.679  0.8446 -0.0542  0.4559
  402MOL0     H54258   2.977   3.086   8.384  0.0443 -0.3157  0.4782
  402MOL0     H54259   3.033   3.097   8.144 -2.4506  2.8468  0.1084
  402MOL0     H54260   2.874   2.780   7.858  0.2961  1.1995 -3.1689
  402MOL0     H54261   2.977   2.886   7.764 -2.0996  0.3838 -0.9953
  402MOL0     H54262   3.097   2.671   7.898  0.2959 -1.0505  1.7705
  402MOL0     H54263   3.068   2.774   8.037 -0.4980  2.3810 -0.3378
  402MOL0     H54264   3.285   2.828   7.966 -2.3578 -0.4767  1.7060
  402MOL0     H54265   3.177   2.959   7.926  0.6791 -0.4075  0.5558
  402MOL0     H54266   3.331   2.921   7.721 -0.9281  0.8031 -1.3746
  402MOL0     H54267   3.173   2.876   7.667 -1.1841 -2.6555  1.0355
  402MOL0     H54268   3.371   2.514   7.659  1.8623  1.3018 -0.3581
  402MOL0     H54269   2.744   2.802   8.058  1.4284  1.1164 -1.9820
  402MOL0     H54270   2.705   2.763   8.289 -1.4406  1.5350 -1.3361
  403MOL0     O54271   6.971   2.099  10.297  0.1433  0.2881  0.4962
  403MOL0     C54272   6.894   2.191  10.274  0.2535 -0.3120  0.8458
  403MOL0     O54273   6.768   2.208  10.318  0.3491  0.2122 -0.1061
  403MOL0     C54274   6.703   2.103  10.380  0.1479 -0.2574 -0.1820
  403MOL0     C54275   6.688   2.107  10.518 -0.2663 -0.2945  0.1767
  403MOL0     C54276   6.636   1.999  10.590  0.3714  0.2722 -0.0053
  403MOL0     C54277   6.605   1.870  10.530  0.1722  0.0833  0.3820
  403MOL0     O54278   6.557   1.772  10.611 -0.2762 -1.6102 -0.1282
  403MOL0     C54279   6.491   1.658  10.541 -0.3999 -0.7982  0.2669
  403MOL0     C54280   6.476   1.561  10.654  0.2840  0.1368 -0.6494
  403MOL0     C54281   6.362   1.613  10.750  0.9859  0.6715  0.4939
  403MOL0     C54282   6.329   1.495  10.830  0.6873  0.5413 -0.1869
  403MOL0     C54283   6.232   1.544  10.943 -0.7005  0.0886  1.0939
  403MOL0     C54284   6.272   1.679  11.016 -0.0434  0.6676  1.0610
  403MOL0     C54285   6.174   1.706  11.135 -0.4347  0.5172 -0.2483
  403MOL0     C54286   6.218   1.828  11.218  0.3848 -0.4180  0.2151
  403MOL0     N54287   6.348   1.809  11.297 -0.6262  0.8319 -0.3234
  403MOL0     C54288   6.372   1.692  11.374  0.0318 -0.2488 -0.5075
  403MOL0     C54289   6.486   1.726  11.442 -0.5209  0.2583 -0.2731
  403MOL0     C54290   6.543   1.637  11.546 -0.1903  0.0383 -0.5551
  403MOL0     C54291   6.673   1.569  11.503 -0.0347  0.0605  0.3878
  403MOL0     C54292   6.660   1.467  11.390 -0.9033 -0.8025 -1.2066
  403MOL0     C54293   6.559   1.359  11.408 -0.0894 -1.6680 -0.0720
  403MOL0     O54294   6.429   1.392  11.374  0.0809 -0.3358 -0.2833
  403MOL0     C54295   6.335   1.290  11.369 -0.8096 -0.9195  0.0309
  403MOL0     C54296   6.207   1.324  11.334 -0.0953 -0.1445  0.2209
  403MOL0     C54297   6.094   1.235  11.341 -0.2165 -0.1389  0.2453
  403MOL0     C54298   5.965   1.290  11.279  0.8216 -0.5444  0.4808
  403MOL0     C54299   6.113   1.103  11.387  0.4738 -0.3521 -0.1926
  403MOL0     C54300   6.008   0.997  11.390 -0.8089  0.3206  0.5659
  403MOL0     O54301   6.061   0.880  11.359 -0.2087 -0.4929  0.0741
  403MOL0     C54302   5.982   0.768  11.345 -0.3425 -0.2474  0.3325
  403MOL0     C54303   5.910   0.751  11.219 -0.7540  0.3229 -0.1260
  403MOL0     C54304   5.851   0.625  11.198 -0.0483  0.5100 -0.4939
  403MOL0     C54305   5.872   0.515  11.288  0.2350  0.4841  0.6565
  403MOL0     O54306   5.824   0.398  11.233 -0.0166  0.2745 -0.3535
  403MOL0     C54307   5.816   0.289  11.320 -0.2356  0.1890 -0.6690
  403MOL0     C54308   5.708   0.188  11.272 -0.0383 -1.1419  0.6761
  403MOL0     C54309   5.745   0.124  11.127 -0.0034 -0.3193 -0.1261
  403MOL0     C54310   5.770   0.215  11.013 -0.0976  1.6058 -0.0763
  403MOL0     C54311   5.660   0.308  10.978  0.1644 -0.1902  0.8074
  403MOL0     C54312   5.513   0.268  10.986 -0.6388  0.6865 -0.2495
  403MOL0     C54313   5.397   0.357  10.947 -0.1016 -0.4401  0.6567
  403MOL0     C54314   5.384   0.368  10.798  0.9546  1.2247 -0.2824
  403MOL0    Cl54315   5.336   0.216  10.706  0.0112 -0.1541  0.3215
  403MOL0     C54316   5.945   0.523  11.401 -0.1222 -0.6994  0.2479
  403MOL0     C54317   5.998   0.653  11.433  0.2820 -0.6068  0.1866
  403MOL0     O54318   5.889   1.025  11.407 -0.6015  0.0885 -0.5606
  403MOL0     C54319   6.251   1.068  11.424  0.6134 -0.2825  0.8927
  403MOL0     C54320   6.356   1.158  11.418  0.1269 -1.1413 -0.6374
  403MOL0     N54321   6.525   1.855  11.417 -0.6001 -0.5734  0.2850
  403MOL0     N54322   6.448   1.896  11.320  1.3719  0.8268 -0.5314
  403MOL0     C54323   6.618   1.882  10.392  0.1988  0.6226 -0.1678
  403MOL0     C54324   6.665   1.988  10.319 -0.8293  1.1937  0.3275
  403MOL0     C54325   6.944   2.307  10.197 -0.9440 -0.7428 -0.0196
  403MOL0     C54326   6.867   2.426  10.173 -0.1179  0.7199 -1.3192
  403MOL0     C54327   6.914   2.544  10.123 -0.1950  0.0361 -0.4256
  403MOL0     C54328   7.050   2.556  10.089 -0.6868 -0.1892 -0.7944
  403MOL0     O54329   7.122   2.671  10.077  0.0802 -0.2137 -0.2679
  403MOL0     C54330   7.074   2.780  10.006 -0.4763 -0.0918 -0.2115
  403MOL0     C54331   7.167   2.892  10.045 -0.0255 -0.4175  0.5265
  403MOL0     C54332   7.320   2.870   9.991  0.7734  0.0595 -0.1137
  403MOL0     C54333   7.394   3.001   9.969  0.0772 -0.4353  0.1519
  403MOL0     C54334   7.320   3.114   9.905  1.2827 -0.1077  0.3826
  403MOL0     C54335   7.265   3.200   9.839 -0.6588  0.0008  0.2382
  403MOL0     C54336   7.131   2.441  10.105  0.2787  0.0649 -0.3363
  403MOL0     C54337   7.080   2.321  10.158  0.1711  0.8214  0.5450
  403MOL0     H54338   6.714   2.188  10.585  1.0230 -1.2170  0.8428
  403MOL0     H54339   6.608   2.012  10.694 -1.5444 -3.2460  0.0508
  403MOL0     H54340   6.392   1.682  10.502 -0.2555 -1.8678 -0.8133
  403MOL0     H54341   6.553   1.618  10.460  2.9981  1.8444  1.3244
  403MOL0     H54342   6.473   1.455  10.625  2.0856  0.7627 -3.4965
  403MOL0     H54343   6.571   1.566  10.709  2.8562 -2.2773 -4.3671
  403MOL0     H54344   6.415   1.687  10.810  0.2667  1.5310  0.0963
  403MOL0     H54345   6.273   1.650  10.697  0.6408 -0.3356  0.3557
  403MOL0     H54346   6.280   1.413  10.777 -0.2398  0.0430  1.3785
  403MOL0     H54347   6.417   1.455  10.881  0.5331  1.6563  0.9897
  403MOL0     H54348   6.137   1.556  10.890  0.4630 -1.6531 -1.6348
  403MOL0     H54349   6.225   1.465  11.019  2.5629  0.9401  2.4178
  403MOL0     H54350   6.376   1.673  11.048  0.2441  2.6586  0.6574
  403MOL0     H54351   6.269   1.760  10.942  0.7367 -1.0620 -0.9691
  403MOL0     H54352   6.071   1.725  11.104 -0.0734  1.0236 -1.1919
  403MOL0     H54353   6.167   1.622  11.205 -0.5037  2.3150  2.0396
  403MOL0     H54354   6.144   1.848  11.296 -1.2596 -2.6572 -0.6757
  403MOL0     H54355   6.234   1.920  11.161  0.0060 -0.7294 -0.3950
  403MOL0     H54356   6.326   1.594  11.382 -1.1954  0.2828 -0.8028
  403MOL0     H54357   6.552   1.701  11.635 -2.0369 -1.4695  0.7956
  403MOL0     H54358   6.470   1.558  11.564  1.3155 -1.2546  0.0747
  403MOL0     H54359   6.717   1.518  11.589 -0.8143 -0.3085  0.5768
  403MOL0     H54360   6.747   1.641  11.467 -0.4368 -0.6698 -2.1325
  403MOL0     H54361   6.757   1.422  11.370  0.7795  1.9152  0.1768
  403MOL0     H54362   6.635   1.528  11.303 -0.6083  1.0970 -0.0218
  403MOL0     H54363   6.563   1.323  11.511 -0.1223 -2.5393 -0.3615
  403MOL0     H54364   6.596   1.276  11.346  0.8777 -0.2339 -1.4941
  403MOL0     H54365   6.200   1.426  11.298 -5.1291  0.3474  1.8104
  403MOL0     H54366   5.923   1.225  11.201 -0.0684 -2.8213  2.7313
  403MOL0     H54367   5.891   1.274  11.358  1.6412 -3.5214  0.7300
  403MOL0     H54368   5.970   1.395  11.246 -0.2059 -0.6325 -0.0240
  403MOL0     H54369   5.911   0.826  11.141 -1.5930  0.3334 -0.1332
  403MOL0     H54370   5.822   0.600  11.097 -4.7174 -3.3517  1.3698
  403MOL0     H54371   5.912   0.245  11.347 -1.4520 -0.5299  3.1190
  403MOL0     H54372   5.773   0.330  11.411  0.3095  2.3533 -1.3213
  403MOL0     H54373   5.689   0.120  11.355  2.1133  0.0793  2.2679
  403MOL0     H54374   5.609   0.233  11.259  1.4590  1.7954 -2.2994
  403MOL0     H54375   5.665   0.054  11.098  0.9785 -1.4421 -0.2088
  403MOL0     H54376   5.833   0.062  11.144 -1.1803 -1.9974  0.1795
  403MOL0     H54377   5.861   0.271  11.038  3.0534 -3.5004  1.5144
  403MOL0     H54378   5.797   0.146  10.933 -0.9069 -0.2017  1.1359
  403MOL0     H54379   5.671   0.320  10.870  0.0808  2.5048  1.0272
  403MOL0     H54380   5.667   0.413  11.010 -0.1332  0.7794 -2.0442
  403MOL0     H54381   5.509   0.177  10.924 -1.0916  1.4714 -1.3941
  403MOL0     H54382   5.494   0.238  11.090  2.0520  0.6287  0.3006
  403MOL0     H54383   5.397   0.454  10.998 -2.5634 -0.6030  1.0826
  403MOL0     H54384   5.306   0.314  10.989  0.5505 -0.1760  2.4475
  403MOL0     H54385   5.472   0.417  10.757  1.3327  0.1206 -0.8620
  403MOL0     H54386   5.307   0.444  10.784 -1.7772 -1.2657 -0.0044
  403MOL0     H54387   5.978   0.444  11.468 -0.8164 -2.0768 -0.9596
  403MOL0     H54388   6.053   0.652  11.526 -0.3690 -0.4281  0.5804
  403MOL0     H54389   6.274   0.968  11.461 -0.7090 -0.8294  0.2803
  403MOL0     H54390   6.453   1.112  11.436 -0.0482 -0.2112  3.7843
  403MOL0     H54391   6.609   1.785  10.342  0.7103 -0.6788  2.1204
  403MOL0     H54392   6.675   1.965  10.213 -0.6863 -1.3538  0.8234
  403MOL0     H54393   6.760   2.432  10.190  0.2396  2.6714  0.8316
  403MOL0     H54394   6.848   2.630  10.118  0.6561  0.8958  1.6974
  403MOL0     H54395   7.061   2.751   9.901 -3.1115 -0.6472  0.1817
  403MOL0     H54396   6.971   2.809  10.031 -0.8456 -0.1146 -1.5946
  403MOL0     H54397   7.179   2.896  10.154 -1.1540 -2.4955  0.7760
  403MOL0     H54398   7.133   2.991  10.014 -0.0868 -0.3458  0.8133
  403MOL0     H54399   7.309   2.818   9.895 -2.7445  2.2072 -1.0676
  403MOL0     H54400   7.381   2.814  10.062  1.6040  1.0754 -0.0039
  403MOL0     H54401   7.475   2.977   9.901 -1.0679 -0.1915 -1.3472
  403MOL0     H54402   7.424   3.045  10.065  3.1919 -0.1105 -0.8894
  403MOL0     H54403   7.232   3.291   9.792 -0.0633  0.1701  0.1308
  403MOL0     H54404   7.234   2.465  10.079 -1.1843  4.7079 -3.1292
  403MOL0     H54405   7.140   2.232  10.172 -0.5822  0.4782  1.7760
  404MOL0     O54406   0.625   1.486   2.177  0.3552 -0.0881 -0.0440
  404MOL0     C54407   0.583   1.600   2.189 -0.1414  1.0546 -0.5742
  404MOL0     O54408   0.455   1.642   2.149 -0.5433  0.2306  0.2589
  404MOL0     C54409   0.372   1.565   2.068  0.2918 -0.1955  0.7327
  404MOL0     C54410   0.375   1.427   2.048 -0.8587  1.0116  0.7428
  404MOL0     C54411   0.303   1.364   1.944 -0.3329 -0.6236 -0.1632
  404MOL0     C54412   0.205   1.440   1.887  0.5169 -0.8344  0.9879
  404MOL0     O54413   0.111   1.391   1.796 -0.7739 -0.2226  0.4830
  404MOL0     C54414   0.102   1.251   1.772  0.4342 -0.2793 -0.4799
  404MOL0     C54415   0.032   1.214   1.645 -0.2409  0.9490 -0.9539
  404MOL0     C54416   0.122   1.243   1.528 -0.5864  0.5184  0.3916
  404MOL0     C54417   0.043   1.261   1.398 -0.0652  0.0993 -0.0051
  404MOL0     C54418   0.138   1.311   1.281  0.8422 -0.2840 -0.3439
  404MOL0     C54419   0.191   1.190   1.203  0.4417 -0.0307  0.1460
  404MOL0     C54420   0.264   1.240   1.078  0.8584 -0.0389 -0.4211
  404MOL0     C54421   0.338   1.116   1.003 -0.7624 -1.4241 -0.0853
  404MOL0     N54422   0.456   1.156   0.931 -0.7840 -0.6386 -0.1388
  404MOL0     C54423   0.482   1.275   0.868 -0.2858  1.5289  0.5047
  404MOL0     C54424   0.606   1.263   0.808 -0.0797  0.4075 -1.1580
  404MOL0     C54425   0.669   1.372   0.721 -0.1315 -0.2081 -0.4160
  404MOL0     C54426   0.560   1.447   0.632  0.8086 -0.4958  0.7939
  404MOL0     C54427   0.524   1.347   0.519  0.1380  0.2418 -0.1346
  404MOL0     C54428   0.432   1.416   0.410  0.7781 -0.4272  0.3659
  404MOL0     O54429   0.378   1.323   0.320  0.4155  0.9412  0.1082
  404MOL0     C54430   0.266   1.253   0.357  0.0512  0.3944 -0.6128
  404MOL0     C54431   0.202   1.254   0.478 -0.5846  0.4059  0.7138
  404MOL0     C54432   0.084   1.177   0.485 -0.7675 -0.0926  0.2253
  404MOL0     C54433  -0.017   1.205   0.605  0.4592  0.2452  0.2169
  404MOL0     C54434   0.039   1.102   0.377  0.6469  0.3728  0.2909
  404MOL0     C54435  -0.082   1.003   0.368  0.4393 -0.9478 -0.2739
  404MOL0     O54436  -0.143   0.988   0.486  0.0278  0.3370 -0.5749
  404MOL0     C54437  -0.255   0.901   0.502 -1.1717  0.1572  0.9891
  404MOL0     C54438  -0.252   0.762   0.482 -0.2748  0.5432  1.0386
  404MOL0     C54439  -0.370   0.681   0.502  0.1255 -0.6396  0.0805
  404MOL0     C54440  -0.488   0.737   0.548 -0.2314 -0.0859  0.3074
  404MOL0     O54441  -0.584   0.648   0.578 -0.0797  0.0555  0.0114
  404MOL0     C54442  -0.684   0.686   0.676  0.6874  0.3659 -0.3881
  404MOL0     C54443  -0.810   0.752   0.608  0.6175  1.2304 -0.4434
  404MOL0     C54444  -0.836   0.673   0.485  0.0588 -0.9406  0.2669
  404MOL0     C54445  -0.961   0.731   0.416  0.2883  1.0306  0.4686
  404MOL0     C54446  -0.978   0.674   0.273  0.1085  0.4903  0.5638
  404MOL0     C54447  -1.072   0.758   0.195 -1.2908 -0.3811 -0.6828
  404MOL0     C54448  -1.081   0.711   0.049  0.3961  0.3835  0.4587
  404MOL0     C54449  -1.169   0.586   0.035  0.4617  0.1283  0.6094
  404MOL0    Cl54450  -1.334   0.629   0.095  0.2213 -0.4132  0.2230
  404MOL0     C54451  -0.485   0.874   0.585  0.1417  0.6350 -0.5318
  404MOL0     C54452  -0.374   0.960   0.548 -0.1958 -0.5990  0.3509
  404MOL0     O54453  -0.091   0.929   0.274  0.2681 -0.4814  1.2844
  404MOL0     C54454   0.116   1.102   0.259 -1.2996 -0.5693  0.3838
  404MOL0     C54455   0.232   1.176   0.250  0.1079 -0.0269 -0.5053
  404MOL0     N54456   0.646   1.132   0.834 -0.5614  0.2517  0.3186
  404MOL0     N54457   0.557   1.073   0.899 -1.0828  0.2991 -1.0461
  404MOL0     C54458   0.200   1.576   1.907  0.3917 -0.0479 -0.5562
  404MOL0     C54459   0.278   1.638   2.005 -0.7305  1.4805 -0.2413
  404MOL0     C54460   0.656   1.692   2.267 -0.4323 -0.4715 -0.3829
  404MOL0     C54461   0.610   1.823   2.279 -0.0123 -0.1218  0.2733
  404MOL0     C54462   0.665   1.915   2.369  0.0155 -0.3941  0.2438
  404MOL0     C54463   0.758   1.869   2.456 -0.2700  0.4186  1.0256
  404MOL0     O54464   0.795   1.960   2.551  0.2842  0.2440  0.5082
  404MOL0     C54465   0.896   1.928   2.649  0.6320  0.0730  0.3887
  404MOL0     C54466   1.020   1.950   2.585  0.9983 -0.0784 -0.8572
  404MOL0     C54467   1.141   1.909   2.680  0.6512  0.8921 -0.0063
  404MOL0     C54468   1.266   1.989   2.670 -1.2793  0.1016 -0.0432
  404MOL0     C54469   1.374   1.927   2.748 -0.6784 -0.3099  0.6182
  404MOL0     C54470   1.480   1.890   2.769 -1.0860 -0.0507  0.8288
  404MOL0     C54471   0.815   1.740   2.440  0.3234 -0.5129  0.0357
  404MOL0     C54472   0.763   1.641   2.353  0.7835  0.1984  0.6915
  404MOL0     H54473   0.451   1.364   2.093 -1.2389 -0.4560 -0.5638
  404MOL0     H54474   0.322   1.258   1.930 -2.8169 -1.3174  1.0569
  404MOL0     H54475   0.203   1.221   1.741 -0.6574 -0.6069 -4.1993
  404MOL0     H54476   0.054   1.189   1.848 -0.7959 -1.3897 -2.0950
  404MOL0     H54477   0.006   1.110   1.624 -1.6645  0.9318  0.6986
  404MOL0     H54478  -0.069   1.254   1.633 -1.8401 -2.2398  0.5595
  404MOL0     H54479   0.196   1.321   1.547  1.3595 -1.5428  1.8271
  404MOL0     H54480   0.173   1.147   1.513 -1.3360  0.1044  0.4499
  404MOL0     H54481   0.001   1.164   1.368  3.0962 -1.3143 -0.3087
  404MOL0     H54482  -0.045   1.323   1.417  0.6457  0.6911  1.4698
  404MOL0     H54483   0.079   1.379   1.218 -0.5723  2.3182  3.4241
  404MOL0     H54484   0.227   1.365   1.312  2.0530 -1.1751 -2.1271
  404MOL0     H54485   0.261   1.132   1.264 -0.3443 -1.1498  0.0227
  404MOL0     H54486   0.115   1.120   1.166  0.1881  0.9360 -1.2601
  404MOL0     H54487   0.191   1.297   1.019  0.3160 -0.5085 -0.1998
  404MOL0     H54488   0.348   1.308   1.096  0.2906  0.8721 -1.0423
  404MOL0     H54489   0.281   1.058   0.930  0.0318 -0.8420 -1.2006
  404MOL0     H54490   0.364   1.043   1.081  3.2276  1.0026  1.1495
  404MOL0     H54491   0.424   1.366   0.860 -1.5697  1.0646  3.4167
  404MOL0     H54492   0.707   1.446   0.792 -0.0434 -1.3063  0.7350
  404MOL0     H54493   0.750   1.339   0.656 -0.8355  2.5308 -2.9100
  404MOL0     H54494   0.611   1.531   0.585 -2.0525  0.2210 -1.2526
  404MOL0     H54495   0.465   1.474   0.678  0.8741  1.2723 -0.0520
  404MOL0     H54496   0.471   1.266   0.569  2.5435 -2.1235 -1.2144
  404MOL0     H54497   0.614   1.303   0.476  2.5880  1.6694  3.1354
  404MOL0     H54498   0.496   1.484   0.354  2.5860 -2.9890 -0.8942
  404MOL0     H54499   0.347   1.471   0.451 -1.1461 -0.3132 -3.3773
  404MOL0     H54500   0.232   1.304   0.570  2.5412 -0.0014  0.0520
  404MOL0     H54501  -0.123   1.204   0.579 -0.1095  3.0389  1.9625
  404MOL0     H54502  -0.003   1.116   0.667  0.6917  0.7536  0.9107
  404MOL0     H54503   0.001   1.301   0.656 -3.2811  1.4641 -0.4145
  404MOL0     H54504  -0.161   0.715   0.446 -1.3581  0.6960 -2.2220
  404MOL0     H54505  -0.369   0.577   0.473 -1.7103 -0.9323  0.9348
  404MOL0     H54506  -0.714   0.590   0.718 -1.6729  1.0628 -0.3871
  404MOL0     H54507  -0.647   0.750   0.757 -0.8651  0.6109  0.1595
  404MOL0     H54508  -0.894   0.759   0.677  1.0957  2.0092  0.0763
  404MOL0     H54509  -0.791   0.857   0.583 -0.4493  1.1128 -1.8914
  404MOL0     H54510  -0.846   0.569   0.515 -2.1928 -0.7044  0.5248
  404MOL0     H54511  -0.753   0.699   0.419 -1.1850  2.9457 -0.0093
  404MOL0     H54512  -1.047   0.693   0.471  0.9755 -6.1712 -2.3534
  404MOL0     H54513  -0.960   0.841   0.415 -0.5028  1.0543 -1.0541
  404MOL0     H54514  -1.016   0.571   0.279  2.1679 -0.3218  0.4480
  404MOL0     H54515  -0.882   0.689   0.223 -0.6996  3.2345 -0.3616
  404MOL0     H54516  -1.167   0.747   0.249 -0.6775  1.5912  0.8949
  404MOL0     H54517  -1.038   0.862   0.192 -2.7282  0.1826  0.8272
  404MOL0     H54518  -0.982   0.693   0.006  0.6291  0.8602  0.7802
  404MOL0     H54519  -1.127   0.784  -0.019 -0.8728  0.1718  1.0621
  404MOL0     H54520  -1.117   0.507   0.090  1.8878 -1.4520 -2.7320
  404MOL0     H54521  -1.181   0.553  -0.068 -1.2681  0.8987  0.5309
  404MOL0     H54522  -0.564   0.923   0.640  1.4896 -0.9579  3.1926
  404MOL0     H54523  -0.372   1.067   0.569  0.5859 -1.1117  3.3870
  404MOL0     H54524   0.078   1.050   0.172 -2.4756 -1.1226  1.2125
  404MOL0     H54525   0.279   1.185   0.153 -3.4498  4.4248 -2.1580
  404MOL0     H54526   0.126   1.636   1.854  0.2853 -1.9676 -2.7356
  404MOL0     H54527   0.273   1.747   2.011 -1.3139  1.3727  3.5794
  404MOL0     H54528   0.530   1.868   2.222 -2.3688 -1.0405  2.6308
  404MOL0     H54529   0.629   2.016   2.383 -3.4771 -1.5101  0.2915
  404MOL0     H54530   0.870   1.983   2.740 -4.2667 -1.3897  0.1143
  404MOL0     H54531   0.884   1.823   2.674  3.3563 -0.4501 -0.1310
  404MOL0     H54532   1.022   2.049   2.539 -0.8087  0.7070  0.6430
  404MOL0     H54533   1.025   1.876   2.504  1.6717 -0.3820 -0.5417
  404MOL0     H54534   1.161   1.802   2.673  0.2522  0.9172 -2.8550
  404MOL0     H54535   1.120   1.923   2.786  2.1558  1.2000  0.2772
  404MOL0     H54536   1.249   2.092   2.705  1.6827  0.4872  0.5053
  404MOL0     H54537   1.297   1.990   2.566  2.0140 -0.3496  0.8097
  404MOL0     H54538   1.585   1.872   2.782 -0.7919  0.0822 -1.1505
  404MOL0     H54539   0.905   1.716   2.496  0.4981  3.0827  1.5152
  404MOL0     H54540   0.787   1.536   2.364 -1.6967 -0.1390  5.4170
  405MOL0     O54541   3.791   0.876   8.579  0.5199  0.5272  0.8830
  405MOL0     C54542   3.748   0.800   8.492  0.5214 -1.2310  0.0003
  405MOL0     O54543   3.646   0.831   8.418  0.6798  0.4701 -0.4225
  405MOL0     C54544   3.564   0.943   8.448 -0.4936 -0.3038 -0.2741
  405MOL0     C54545   3.430   0.925   8.478  0.3366 -1.6008 -0.4627
  405MOL0     C54546   3.335   1.027   8.492  0.0983  0.1577 -0.2617
  405MOL0     C54547   3.386   1.158   8.467 -0.1133  0.4394 -0.6270
  405MOL0     O54548   3.297   1.258   8.466  0.2140  0.0529 -0.1863
  405MOL0     C54549   3.280   1.300   8.329 -1.2233 -0.0720 -0.0488
  405MOL0     C54550   3.267   1.450   8.316  1.1837 -0.2973 -0.5663
  405MOL0     C54551   3.148   1.502   8.403  0.3262  0.7313 -0.6861
  405MOL0     C54552   3.124   1.649   8.366  0.3715  0.1710 -0.0783
  405MOL0     C54553   3.007   1.720   8.438  0.1835  0.4932  0.2105
  405MOL0     C54554   3.064   1.833   8.528  0.0847  0.4721  0.1976
  405MOL0     C54555   2.982   1.891   8.641  0.1054  0.1377 -0.1362
  405MOL0     C54556   2.948   1.779   8.739 -0.9100 -0.9235  0.3718
  405MOL0     N54557   2.875   1.840   8.850  0.4737  0.1489  0.4147
  405MOL0     C54558   2.743   1.829   8.856  0.3233  0.1657 -0.2556
  405MOL0     C54559   2.715   1.897   8.966 -0.3413 -0.5552  0.7217
  405MOL0     C54560   2.573   1.926   9.011 -0.1962 -0.2983  0.3691
  405MOL0     C54561   2.498   2.033   8.933 -0.0056 -0.4939 -1.1222
  405MOL0     C54562   2.353   2.039   8.988  0.4374  0.1298  0.1453
  405MOL0     C54563   2.273   2.156   8.926  0.0733 -0.3554  0.2511
  405MOL0     O54564   2.308   2.283   8.984 -0.7886  0.3490 -0.1338
  405MOL0     C54565   2.264   2.403   8.943 -0.2705  0.0751  0.6946
  405MOL0     C54566   2.137   2.427   8.898  1.8629 -0.4671  0.9814
  405MOL0     C54567   2.101   2.550   8.831 -0.6633 -0.9465  0.8002
  405MOL0     C54568   1.962   2.571   8.783 -0.3582 -0.1080  0.2883
  405MOL0     C54569   2.195   2.657   8.818 -0.6251 -0.7037 -0.3990
  405MOL0     C54570   2.165   2.792   8.767  0.9724  1.7492 -0.3486
  405MOL0     O54571   2.278   2.863   8.732 -0.4609  0.1722 -0.2658
  405MOL0     C54572   2.293   2.992   8.785  0.2687 -0.4996  1.0575
  405MOL0     C54573   2.356   3.012   8.906 -0.1698  1.0391  0.3941
  405MOL0     C54574   2.363   3.143   8.960  0.7335 -0.0046 -0.1203
  405MOL0     C54575   2.311   3.252   8.885 -0.0144 -0.1896  0.1380
  405MOL0     O54576   2.315   3.384   8.929  0.5666  0.2457 -0.5846
  405MOL0     C54577   2.409   3.409   9.028  0.3087  0.7651 -0.2218
  405MOL0     C54578   2.429   3.561   9.052  0.0836  1.1752  1.3202
  405MOL0     C54579   2.453   3.644   8.917 -0.1754  0.4533 -0.0055
  405MOL0     C54580   2.412   3.792   8.923  0.1793 -0.9595  0.0916
  405MOL0     C54581   2.439   3.869   8.792  0.6722 -0.0196 -0.5111
  405MOL0     C54582   2.382   4.014   8.812  0.2289  0.5687 -0.0613
  405MOL0     C54583   2.374   4.082   8.669  0.2531  0.7927 -0.3021
  405MOL0     C54584   2.510   4.081   8.599 -0.5707  0.7404  0.9201
  405MOL0    Cl54585   2.481   4.146   8.425 -0.1114  0.3478  0.1133
  405MOL0     C54586   2.263   3.226   8.755 -1.0576  0.0681  0.4823
  405MOL0     C54587   2.256   3.102   8.702  0.3507  0.0610  0.0795
  405MOL0     O54588   2.056   2.844   8.781 -0.3053 -0.6610  0.8502
  405MOL0     C54589   2.325   2.622   8.862  0.7409  0.0618 -0.9989
  405MOL0     C54590   2.362   2.500   8.926 -0.3772 -0.8824  0.9096
  405MOL0     N54591   2.832   1.942   9.023 -0.0034 -0.6851 -0.4887
  405MOL0     N54592   2.933   1.906   8.954 -0.1309 -0.5639 -0.0767
  405MOL0     C54593   3.522   1.177   8.446  0.0068 -0.0095 -0.0832
  405MOL0     C54594   3.609   1.071   8.433 -0.5508 -0.7809  0.0882
  405MOL0     C54595   3.817   0.678   8.451 -0.1680  0.4359  0.7640
  405MOL0     C54596   3.764   0.583   8.371  0.3392  1.1084 -0.2274
  405MOL0     C54597   3.844   0.472   8.325 -0.3955  0.3070 -0.2874
  405MOL0     C54598   3.976   0.456   8.365 -1.0870  1.0467  0.5598
  405MOL0     O54599   4.048   0.353   8.312  0.1111 -0.2611 -0.0125
  405MOL0     C54600   4.181   0.339   8.325 -0.8329 -0.2911 -0.1707
  405MOL0     C54601   4.224   0.428   8.203  0.4847  0.0983 -0.0654
  405MOL0     C54602   4.171   0.378   8.072  0.7365 -0.2597  0.0086
  405MOL0     C54603   4.265   0.396   7.957 -1.0003  0.1613 -1.0271
  405MOL0     C54604   4.303   0.531   7.933 -0.2649  0.0838  0.1618
  405MOL0     C54605   4.342   0.643   7.910 -0.2799 -0.1670 -0.9737
  405MOL0     C54606   4.030   0.550   8.440 -0.3970 -0.3576  0.3908
  405MOL0     C54607   3.949   0.662   8.483  0.4534  0.4620 -0.2997
  405MOL0     H54608   3.383   0.828   8.486 -0.5254 -1.1646 -0.1306
  405MOL0     H54609   3.236   0.988   8.513  0.8663 -1.2966  0.8287
  405MOL0     H54610   3.365   1.274   8.264 -0.8559 -0.6862  0.6561
  405MOL0     H54611   3.190   1.255   8.286 -2.2281  0.7760  1.1298
  405MOL0     H54612   3.366   1.491   8.339  1.5742 -0.0296 -2.5598
  405MOL0     H54613   3.258   1.482   8.212 -1.3302 -0.1901 -0.3812
  405MOL0     H54614   3.064   1.441   8.368  1.2794  0.2046 -2.1324
  405MOL0     H54615   3.158   1.480   8.510  0.0221  0.4869 -0.7063
  405MOL0     H54616   3.216   1.709   8.369 -0.1757  1.0550 -0.6097
  405MOL0     H54617   3.094   1.636   8.262 -3.0051  0.0974  0.8116
  405MOL0     H54618   2.946   1.782   8.373  2.4925  2.8608  0.1247
  405MOL0     H54619   2.950   1.651   8.501  0.0328  0.4806  0.0611
  405MOL0     H54620   3.158   1.806   8.579  0.8139 -1.2320 -1.8699
  405MOL0     H54621   3.094   1.908   8.455 -4.6010  1.3770 -1.0807
  405MOL0     H54622   3.039   1.972   8.687  0.1373 -0.5573  1.0838
  405MOL0     H54623   2.881   1.916   8.608  0.4107 -1.6055 -2.7802
  405MOL0     H54624   3.045   1.744   8.775  1.4920  2.0610 -2.5883
  405MOL0     H54625   2.908   1.687   8.695  0.2844  0.0564 -3.0678
  405MOL0     H54626   2.669   1.786   8.790  0.6811  0.1647 -0.6610
  405MOL0     H54627   2.518   1.832   9.006 -0.1539 -0.3062  0.0908
  405MOL0     H54628   2.588   1.962   9.114  2.4952  0.8728 -0.3567
  405MOL0     H54629   2.502   2.019   8.825  0.7638  2.1581 -1.5245
  405MOL0     H54630   2.539   2.135   8.942 -2.7536  0.6653 -0.6785
  405MOL0     H54631   2.361   2.049   9.097 -0.3506  0.6860  0.1611
  405MOL0     H54632   2.292   1.953   8.959  0.7154  0.6779 -2.2542
  405MOL0     H54633   2.168   2.132   8.948 -0.3114 -1.4555 -2.4069
  405MOL0     H54634   2.291   2.176   8.820  0.3005  1.3862  0.5917
  405MOL0     H54635   2.060   2.350   8.896  0.1264  1.2027  0.4687
  405MOL0     H54636   1.958   2.608   8.680 -0.0207 -0.1687  0.2519
  405MOL0     H54637   1.911   2.475   8.773 -0.0408 -0.0503 -3.0656
  405MOL0     H54638   1.915   2.648   8.845  0.8346  1.5339 -0.7527
  405MOL0     H54639   2.400   2.930   8.962 -0.9760  0.0932 -0.3213
  405MOL0     H54640   2.427   3.147   9.047  3.3623 -1.2369 -1.8853
  405MOL0     H54641   2.365   3.366   9.118 -3.0370  1.1109 -1.5439
  405MOL0     H54642   2.505   3.363   9.002 -0.0194 -2.4089  3.3124
  405MOL0     H54643   2.330   3.603   9.076 -2.2015  0.4795 -4.8527
  405MOL0     H54644   2.510   3.565   9.125 -1.7222  1.3251  3.4247
  405MOL0     H54645   2.402   3.598   8.831 -3.1153  0.2749  1.7011
  405MOL0     H54646   2.557   3.667   8.893  0.5883 -1.3923  1.2954
  405MOL0     H54647   2.307   3.802   8.953  0.8145  0.6738  2.0012
  405MOL0     H54648   2.481   3.823   9.002 -1.5956  0.8317  1.0121
  405MOL0     H54649   2.385   3.825   8.708  0.4578  2.2746 -1.6734
  405MOL0     H54650   2.542   3.880   8.759  1.1364 -0.5063  0.7148
  405MOL0     H54651   2.286   4.003   8.863  1.8873 -2.4571  2.8687
  405MOL0     H54652   2.458   4.053   8.881  2.0287 -0.3344 -1.4291
  405MOL0     H54653   2.337   4.184   8.681 -0.0865  0.4810  1.6202
  405MOL0     H54654   2.297   4.042   8.601 -0.1654 -0.3973  0.8176
  405MOL0     H54655   2.557   3.986   8.573 -1.4583  0.3818  0.5828
  405MOL0     H54656   2.592   4.135   8.647 -0.0032  0.3062  0.4425
  405MOL0     H54657   2.235   3.310   8.691  1.1600 -0.7147 -1.7016
  405MOL0     H54658   2.203   3.086   8.608 -0.4171  1.9116  0.1566
  405MOL0     H54659   2.395   2.705   8.859  0.0093  0.6610 -2.1022
  405MOL0     H54660   2.467   2.481   8.945 -0.7788 -3.4933  0.8941
  405MOL0     H54661   3.552   1.277   8.418  1.1544  0.0561  1.2507
  405MOL0     H54662   3.711   1.092   8.402 -0.5976 -0.0751  0.3920
  405MOL0     H54663   3.662   0.598   8.337 -0.1684 -0.0703  0.6909
  405MOL0     H54664   3.806   0.396   8.258 -3.8753  0.1612  1.6446
  405MOL0     H54665   4.215   0.377   8.422 -2.8333  0.7035  0.1837
  405MOL0     H54666   4.211   0.234   8.321 -3.0231 -0.9124 -1.3476
  405MOL0     H54667   4.333   0.417   8.197  0.4495 -0.0768 -0.4268
  405MOL0     H54668   4.189   0.531   8.214  2.2744  0.6340  1.1621
  405MOL0     H54669   4.075   0.427   8.053  1.7390  1.9032  0.2841
  405MOL0     H54670   4.149   0.271   8.062  1.4186 -0.1891 -3.8286
  405MOL0     H54671   4.210   0.362   7.868 -0.6588 -0.0194 -1.1727
  405MOL0     H54672   4.351   0.331   7.976 -0.4868  1.6762  2.4695
  405MOL0     H54673   4.361   0.748   7.894 -3.0636  1.2844  3.3003
  405MOL0     H54674   4.135   0.547   8.467 -0.7562 -4.2709  1.8794
  405MOL0     H54675   4.000   0.736   8.544  3.1276 -0.9039 -0.6998
  406MOL0     O54676   9.699  10.925   3.206 -0.0778  0.3739 -0.9480
  406MOL0     C54677   9.640  10.990   3.125 -0.6703  0.3379  1.0658
  406MOL0     O54678   9.700  11.055   3.025 -0.0952 -0.7971  0.6351
  406MOL0     C54679   9.831  11.037   2.988  0.5075 -0.4837 -0.3457
  406MOL0     C54680   9.910  11.146   2.968  0.8107  0.7733  0.7560
  406MOL0     C54681  10.033  11.129   2.914  0.1767 -0.6518  0.2938
  406MOL0     C54682  10.093  11.003   2.892  0.0027  0.1322  0.9418
  406MOL0     O54683  10.205  10.984   2.822 -0.0689 -0.3122  0.1888
  406MOL0     C54684  10.330  10.951   2.894  0.5624 -0.1945  0.4757
  406MOL0     C54685  10.412  10.862   2.811 -0.3972  0.5440  0.0268
  406MOL0     C54686  10.348  10.720   2.796  1.0070  0.3765 -0.2737
  406MOL0     C54687  10.437  10.607   2.860  1.2334  0.0277  0.5322
  406MOL0     C54688  10.401  10.457   2.830  0.0642  0.3432  0.3383
  406MOL0     C54689  10.247  10.435   2.797  0.4330  0.5145  0.0798
  406MOL0     C54690  10.185  10.299   2.792 -0.3323  0.9014  0.5176
  406MOL0     C54691  10.215  10.217   2.659  1.0356 -0.5422  0.0168
  406MOL0     N54692  10.171  10.273   2.524  0.4221 -0.0919 -0.4070
  406MOL0     C54693  10.243  10.351   2.436  0.7245 -0.0573  0.1329
  406MOL0     C54694  10.160  10.367   2.333 -0.0047 -0.3253  0.7304
  406MOL0     C54695  10.198  10.426   2.206  0.2109  0.5232 -0.9612
  406MOL0     C54696  10.116  10.358   2.090  0.5834  0.5358  0.2170
  406MOL0     C54697  10.147  10.397   1.952 -0.0328  0.7310 -0.6093
  406MOL0     C54698  10.299  10.411   1.933  0.0187 -0.5762 -0.7136
  406MOL0     O54699  10.308  10.437   1.790 -0.3773 -0.8223 -0.5022
  406MOL0     C54700  10.437  10.459   1.728  0.1996  1.2033  0.1130
  406MOL0     C54701  10.436  10.488   1.594  0.4376 -0.2526 -0.2565
  406MOL0     C54702  10.557  10.498   1.525  1.3122  0.4329  0.0689
  406MOL0     C54703  10.541  10.491   1.378 -0.1632 -0.1660  0.3931
  406MOL0     C54704  10.679  10.488   1.599  0.1697 -0.0955  0.6755
  406MOL0     C54705  10.812  10.493   1.531  0.6163  0.2022 -0.2921
  406MOL0     O54706  10.819  10.570   1.414 -0.4495  0.0648 -0.6375
  406MOL0     C54707  10.937  10.576   1.338  0.4395 -0.0245 -0.8325
  406MOL0     C54708  11.042  10.659   1.385 -0.4926  1.2182  0.1842
  406MOL0     C54709  11.169  10.657   1.329  0.0813  0.7770  0.5977
  406MOL0     C54710  11.197  10.569   1.223 -0.8214 -0.7003 -0.5283
  406MOL0     O54711  11.314  10.561   1.152 -0.3056 -0.4411  0.1039
  406MOL0     C54712  11.395  10.678   1.132  0.1475  0.1551  0.6353
  406MOL0     C54713  11.333  10.750   1.012 -0.0910  0.0981  0.1752
  406MOL0     C54714  11.422  10.869   0.966 -0.6266  0.5669  0.7288
  406MOL0     C54715  11.377  10.916   0.824  0.6933 -0.1850  0.3241
  406MOL0     C54716  11.422  10.830   0.704  0.5625  0.6067 -0.0904
  406MOL0     C54717  11.572  10.845   0.671 -0.1682  0.1931  0.4064
  406MOL0     C54718  11.633  10.723   0.586  1.3931  0.5488  0.1719
  406MOL0     C54719  11.787  10.739   0.560 -0.2095  0.2009 -0.0928
  406MOL0    Cl54720  11.817  10.596   0.461  0.1805 -0.1337 -0.1059
  406MOL0     C54721  11.095  10.482   1.173 -0.4524 -0.9982 -1.0696
  406MOL0     C54722  10.963  10.483   1.230  1.1926 -0.9034  0.7739
  406MOL0     O54723  10.898  10.428   1.579 -0.0859  1.1678  0.3219
  406MOL0     C54724  10.677  10.463   1.739  1.0145 -0.1949  0.7023
  406MOL0     C54725  10.558  10.448   1.805 -0.0633 -0.2258 -0.3430
  406MOL0     N54726  10.042  10.304   2.366  0.3769  1.2276  0.3407
  406MOL0     N54727  10.045  10.245   2.483 -0.2743 -0.2693 -0.3494
  406MOL0     C54728  10.015  10.891   2.930 -0.6156  0.9125 -0.5639
  406MOL0     C54729   9.882  10.906   2.969 -0.1138  0.0946 -0.7699
  406MOL0     C54730   9.497  11.011   3.132  0.3720 -0.5525 -0.9632
  406MOL0     C54731   9.429  11.118   3.067  0.1368 -0.2358 -0.0432
  406MOL0     C54732   9.291  11.131   3.085  0.0442  0.9488  0.1956
  406MOL0     C54733   9.220  11.049   3.168 -0.1152  0.2944 -0.6173
  406MOL0     O54734   9.084  11.070   3.182  0.5245 -0.3897 -0.0101
  406MOL0     C54735   8.992  11.000   3.100  0.0932 -0.2048 -0.3388
  406MOL0     C54736   8.886  11.091   3.044 -0.0885  0.0282 -1.1997
  406MOL0     C54737   8.818  11.036   2.930  0.3707 -1.0558 -0.0062
  406MOL0     C54738   8.673  11.096   2.913  0.6642 -0.3457  0.1518
  406MOL0     C54739   8.584  11.096   3.035  0.4622  0.0441  0.5840
  406MOL0     C54740   8.523  11.089   3.134 -0.1824  0.3572  0.1279
  406MOL0     C54741   9.281  10.945   3.235  0.7345  0.3169  0.7860
  406MOL0     C54742   9.419  10.924   3.221  0.3456 -1.4380  0.4452
  406MOL0     H54743   9.868  11.245   2.985  2.7485  1.3179  2.8410
  406MOL0     H54744  10.093  11.217   2.893 -2.4691  0.6360 -2.6641
  406MOL0     H54745  10.384  11.045   2.907 -0.8878  0.6001  1.0951
  406MOL0     H54746  10.315  10.902   2.991 -3.0503  2.9724  1.7870
  406MOL0     H54747  10.420  10.898   2.709 -1.7132 -0.7197 -0.5651
  406MOL0     H54748  10.510  10.865   2.860 -0.1118  2.5333 -0.6009
  406MOL0     H54749  10.246  10.726   2.837  0.0743 -1.4025 -2.1548
  406MOL0     H54750  10.327  10.683   2.695 -1.9934 -1.3125  0.8299
  406MOL0     H54751  10.540  10.624   2.830  0.8471  2.3005  0.3061
  406MOL0     H54752  10.433  10.620   2.969  4.5999  1.0669  0.6356
  406MOL0     H54753  10.463  10.419   2.748  1.4927 -0.6638  1.8105
  406MOL0     H54754  10.427  10.402   2.921 -0.0921  0.5221  0.4931
  406MOL0     H54755  10.191  10.495   2.869  1.4582  0.8428  0.6224
  406MOL0     H54756  10.221  10.496   2.710 -0.8759  0.5245  0.4599
  406MOL0     H54757  10.196  10.249   2.889 -2.0917 -2.2678 -0.7720
  406MOL0     H54758  10.078  10.322   2.791 -1.5092 -3.4316 -2.5325
  406MOL0     H54759  10.165  10.121   2.676 -1.6320  0.9467  1.1093
  406MOL0     H54760  10.323  10.196   2.666  1.4502  1.6485  1.0265
  406MOL0     H54761  10.341  10.393   2.456  0.2512  1.3423 -0.3851
  406MOL0     H54762  10.188  10.535   2.215  1.3571  0.5921 -0.3878
  406MOL0     H54763  10.303  10.400   2.193  0.0204  0.2038 -1.9567
  406MOL0     H54764  10.014  10.394   2.109  0.2381 -1.2633  2.0766
  406MOL0     H54765  10.126  10.250   2.106 -2.3010  0.2266  0.4456
  406MOL0     H54766  10.112  10.499   1.932 -0.4642  0.2364 -2.6498
  406MOL0     H54767  10.103  10.338   1.871 -1.2418 -3.0362  2.4699
  406MOL0     H54768  10.352  10.318   1.956 -2.4669 -3.0579 -3.9967
  406MOL0     H54769  10.335  10.494   1.994 -0.5576  1.8766 -3.4690
  406MOL0     H54770  10.335  10.486   1.554  0.8772  0.7546 -1.4914
  406MOL0     H54771  10.590  10.580   1.337 -3.0895  1.7939  0.8177
  406MOL0     H54772  10.571  10.395   1.335  0.8350  1.0889 -1.8974
  406MOL0     H54773  10.433  10.493   1.360 -0.6370  0.2326  2.8004
  406MOL0     H54774  11.029  10.726   1.469 -0.0676 -0.0129  1.2693
  406MOL0     H54775  11.248  10.721   1.367  0.3421  1.2186 -0.6684
  406MOL0     H54776  11.397  10.747   1.217  1.4635  1.9092 -0.7174
  406MOL0     H54777  11.499  10.647   1.122  0.3311 -0.5839  3.7721
  406MOL0     H54778  11.310  10.686   0.927  0.0291  1.0920 -0.6330
  406MOL0     H54779  11.237  10.788   1.049  0.5527  2.4222 -0.3420
  406MOL0     H54780  11.529  10.848   0.966 -0.5995  0.6982  0.9832
  406MOL0     H54781  11.406  10.935   1.052  1.2392 -0.3339  1.8412
  406MOL0     H54782  11.268  10.916   0.815  0.8844 -0.6289 -5.5399
  406MOL0     H54783  11.411  11.019   0.812  0.6473 -0.4009 -2.0992
  406MOL0     H54784  11.365  10.857   0.615  1.2018  0.2797 -0.6025
  406MOL0     H54785  11.382  10.734   0.738 -0.0568  1.0427  0.4674
  406MOL0     H54786  11.582  10.931   0.603 -1.0057 -0.6897 -0.8838
  406MOL0     H54787  11.641  10.865   0.754  3.5618 -2.9648 -1.5608
  406MOL0     H54788  11.601  10.729   0.481  2.4301 -0.0230 -0.1942
  406MOL0     H54789  11.609  10.625   0.629 -0.0223 -0.0876 -1.9065
  406MOL0     H54790  11.850  10.747   0.649  1.9198  1.2850 -1.6043
  406MOL0     H54791  11.812  10.821   0.493 -0.3810 -1.3830 -2.1920
  406MOL0     H54792  11.113  10.420   1.085 -1.0469  0.3607 -2.1810
  406MOL0     H54793  10.879  10.424   1.194 -0.4213 -0.0444  2.9278
  406MOL0     H54794  10.767  10.442   1.797  1.5447 -0.6591 -0.2697
  406MOL0     H54795  10.572  10.409   1.905 -0.2508  2.6202  0.8590
  406MOL0     H54796  10.054  10.792   2.910  0.9326  1.5569 -0.8948
  406MOL0     H54797   9.821  10.825   3.008  0.8555 -1.1276 -1.7211
  406MOL0     H54798   9.480  11.188   3.003 -1.9309  0.8442 -0.5889
  406MOL0     H54799   9.227  11.207   3.040 -0.3364  1.0112  0.8198
  406MOL0     H54800   9.044  10.956   3.014 -1.2423 -0.8484 -0.8488
  406MOL0     H54801   8.941  10.922   3.157 -3.1886 -0.6776 -3.5411
  406MOL0     H54802   8.947  11.178   3.019  2.6677 -1.0200  1.2848
  406MOL0     H54803   8.815  11.120   3.121 -1.3867 -4.3211 -0.4571
  406MOL0     H54804   8.812  10.927   2.931 -1.6492 -0.9858  1.4453
  406MOL0     H54805   8.877  11.066   2.843 -1.7084 -1.9797 -1.8479
  406MOL0     H54806   8.637  11.029   2.835 -0.4733 -5.1127  4.2172
  406MOL0     H54807   8.683  11.197   2.872 -0.8415 -0.7921 -1.4046
  406MOL0     H54808   8.475  11.086   3.229  2.2851 -1.4794  1.4092
  406MOL0     H54809   9.218  10.888   3.302 -0.7958 -0.1015 -0.9142
  406MOL0     H54810   9.479  10.858   3.283 -0.0145 -2.1356  0.0464
  407MOL0     O54811  11.496   0.893   1.769 -0.4732 -0.0631  0.4940
  407MOL0     C54812  11.574   0.872   1.861  0.1586 -0.3313  0.2901
  407MOL0     O54813  11.715   0.881   1.856  0.4470  0.5748  0.5494
  407MOL0     C54814  11.780   0.910   1.739 -0.6429 -0.0985  0.1441
  407MOL0     C54815  11.742   0.874   1.607  0.7614  0.1790  0.3689
  407MOL0     C54816  11.820   0.909   1.495 -0.3990 -0.5172  0.3307
  407MOL0     C54817  11.941   0.979   1.512  0.3829  0.3883 -0.4866
  407MOL0     O54818  11.998   1.006   1.397 -0.9666 -0.3320 -0.3215
  407MOL0     C54819  12.139   1.028   1.403 -0.2395 -0.0743 -0.1796
  407MOL0     C54820  12.186   1.014   1.264  0.4095  0.8560  1.0185
  407MOL0     C54821  12.340   1.037   1.240  0.1454  1.0524 -0.0571
  407MOL0     C54822  12.365   1.088   1.091  0.4720 -0.2460 -0.1790
  407MOL0     C54823  12.504   1.154   1.094 -0.2597  0.8048  0.1121
  407MOL0     C54824  12.612   1.049   1.105  1.1054 -0.1880  0.4898
  407MOL0     C54825  12.746   1.113   1.080  0.5074 -0.6117  0.2613
  407MOL0     C54826  12.862   1.019   1.083  0.4999 -0.3178  0.0855
  407MOL0     N54827  12.860   0.958   1.217 -0.2321 -0.1887  0.2118
  407MOL0     C54828  12.875   0.829   1.247  0.0851  0.6302  0.4962
  407MOL0     C54829  12.900   0.815   1.377 -0.4362 -0.0962 -0.1447
  407MOL0     C54830  12.924   0.694   1.456  0.0227  0.8322  0.6719
  407MOL0     C54831  12.797   0.627   1.496 -0.9365  0.2165 -0.0826
  407MOL0     C54832  12.686   0.625   1.396  0.6437 -0.3173  1.1139
  407MOL0     C54833  12.581   0.516   1.422  1.0841 -0.7375  0.1421
  407MOL0     O54834  12.459   0.588   1.466 -0.2352  1.1946  0.6286
  407MOL0     C54835  12.352   0.514   1.491  0.0695 -0.1308 -0.7826
  407MOL0     C54836  12.241   0.601   1.513 -0.0308  1.2139  0.3974
  407MOL0     C54837  12.122   0.542   1.562  0.6407  0.0601 -0.7963
  407MOL0     C54838  12.018   0.638   1.612 -0.2470 -0.5645 -0.0024
  407MOL0     C54839  12.111   0.406   1.589  0.5806  1.3895 -0.8131
  407MOL0     C54840  12.000   0.342   1.648 -0.5733 -0.2666  1.0147
  407MOL0     O54841  11.889   0.320   1.561  0.3631  0.3911 -0.3983
  407MOL0     C54842  11.784   0.244   1.620  0.0981 -0.1187  0.3025
  407MOL0     C54843  11.799   0.128   1.698  0.8383 -0.7328 -0.2704
  407MOL0     C54844  11.693   0.053   1.751 -0.4330 -0.5804 -0.0754
  407MOL0     C54845  11.566   0.104   1.722 -0.2975  0.5907  0.1825
  407MOL0     O54846  11.457   0.017   1.746 -0.0010  0.5382 -0.0548
  407MOL0     C54847  11.339   0.064   1.809 -0.0775  0.5773  0.1037
  407MOL0     C54848  11.226   0.076   1.701 -0.8567 -0.5039  1.8307
  407MOL0     C54849  11.098   0.126   1.754  1.1975 -0.2213  0.1897
  407MOL0     C54850  10.985   0.131   1.649  0.1142 -0.1928  0.3990
  407MOL0     C54851  10.873   0.215   1.697  0.9415  1.0644  0.0114
  407MOL0     C54852  10.742   0.180   1.621 -0.1807  0.2971  0.1852
  407MOL0     C54853  10.625   0.286   1.647 -0.7905  0.4408 -0.9199
  407MOL0     C54854  10.505   0.273   1.570  0.5315 -0.6136  0.8514
  407MOL0    Cl54855  10.395   0.143   1.630 -0.1786  0.0785 -0.1443
  407MOL0     C54856  11.540   0.218   1.648  0.7984 -0.3292 -0.4529
  407MOL0     C54857  11.652   0.283   1.605  0.5570  0.0462 -0.2079
  407MOL0     O54858  12.012   0.307   1.760  0.1505  0.4050 -0.2140
  407MOL0     C54859  12.219   0.316   1.558  0.0104  0.0296  0.4750
  407MOL0     C54860  12.337   0.373   1.516 -0.7552  0.3599  0.4418
  407MOL0     N54861  12.887   0.945   1.435  0.1021  0.6349  0.1907
  407MOL0     N54862  12.871   1.021   1.336  0.7204  0.3652  0.4917
  407MOL0     C54863  11.978   1.020   1.642 -0.7456  0.1669  0.7455
  407MOL0     C54864  11.897   0.986   1.747  0.6671  0.9309 -0.0384
  407MOL0     C54865  11.508   0.844   1.998 -1.2389  0.0158 -0.6170
  407MOL0     C54866  11.365   0.827   2.012  0.3279 -0.4968 -0.2716
  407MOL0     C54867  11.319   0.779   2.127 -0.1567  0.6808  0.7393
  407MOL0     C54868  11.404   0.782   2.242  0.4552 -0.0741 -0.5053
  407MOL0     O54869  11.341   0.730   2.352  0.3317  0.2921 -0.3015
  407MOL0     C54870  11.398   0.720   2.477 -1.1203  0.1268  0.2751
  407MOL0     C54871  11.339   0.595   2.542 -0.5078 -0.5480  0.0985
  407MOL0     C54872  11.404   0.577   2.675  0.6670  0.1334 -1.5255
  407MOL0     C54873  11.372   0.440   2.747  0.4156  0.1205 -0.0852
  407MOL0     C54874  11.232   0.395   2.735  0.5383 -0.1302  0.1684
  407MOL0     C54875  11.122   0.355   2.727  0.4754 -0.1910  0.4149
  407MOL0     C54876  11.540   0.818   2.242 -0.2834 -0.6468 -0.6826
  407MOL0     C54877  11.596   0.841   2.114  0.7371  0.1482  0.0818
  407MOL0     H54878  11.657   0.811   1.583  1.0849  0.4280 -1.6576
  407MOL0     H54879  11.789   0.901   1.391  1.7512 -0.2427 -0.3927
  407MOL0     H54880  12.146   1.132   1.437  3.0744 -0.6453  1.3726
  407MOL0     H54881  12.202   0.972   1.474 -0.5997  1.2344  1.2479
  407MOL0     H54882  12.158   0.913   1.232 -1.4909  1.9520 -1.0378
  407MOL0     H54883  12.123   1.070   1.195  0.3497 -1.3062 -0.7669
  407MOL0     H54884  12.394   1.101   1.310 -1.1080 -1.0960  3.1003
  407MOL0     H54885  12.388   0.941   1.258 -1.4313  0.8081  3.9896
  407MOL0     H54886  12.351   1.022   1.005  1.1157 -0.0316 -0.4561
  407MOL0     H54887  12.302   1.176   1.076 -0.4991 -0.6559  1.3333
  407MOL0     H54888  12.510   1.209   1.000  0.1518  0.2037 -0.2196
  407MOL0     H54889  12.510   1.222   1.179 -0.4456  0.1699  0.6437
  407MOL0     H54890  12.598   0.999   1.201 -2.4078 -3.0627 -1.2871
  407MOL0     H54891  12.597   0.969   1.033 -0.6438 -1.7805  2.4920
  407MOL0     H54892  12.748   1.156   0.979  1.8496  1.8403  1.2394
  407MOL0     H54893  12.759   1.201   1.143 -3.2551  1.7695 -1.9108
  407MOL0     H54894  12.953   1.075   1.060  0.3705  1.1557  2.7577
  407MOL0     H54895  12.863   0.940   1.008 -2.6486  2.1823 -2.8976
  407MOL0     H54896  12.884   0.746   1.177  1.1251  1.8463 -0.8858
  407MOL0     H54897  12.982   0.632   1.388 -2.5465 -0.2724 -0.6373
  407MOL0     H54898  12.988   0.713   1.544  1.9313 -2.1279  0.0603
  407MOL0     H54899  12.764   0.681   1.585 -2.1202  0.8080 -0.8562
  407MOL0     H54900  12.808   0.525   1.533 -2.4131 -0.8729 -2.4653
  407MOL0     H54901  12.726   0.594   1.299  1.2161  0.5454  1.0657
  407MOL0     H54902  12.637   0.722   1.389  0.5521 -0.2075  2.8229
  407MOL0     H54903  12.601   0.450   1.507  1.6375  0.9257  1.3566
  407MOL0     H54904  12.561   0.449   1.339 -1.4763 -0.3869  0.3928
  407MOL0     H54905  12.259   0.703   1.483  2.4680 -0.5370 -5.5912
  407MOL0     H54906  12.075   0.713   1.669  0.4396 -1.4563  0.5207
  407MOL0     H54907  11.959   0.681   1.532 -1.2214  0.4007  1.1946
  407MOL0     H54908  11.953   0.599   1.691 -2.0115  3.0175  0.4789
  407MOL0     H54909  11.897   0.082   1.703  1.6891  0.9350 -1.0347
  407MOL0     H54910  11.707  -0.046   1.795  0.9856 -0.9940 -1.3497
  407MOL0     H54911  11.302   0.005   1.894  2.0305  1.4774  1.7435
  407MOL0     H54912  11.358   0.165   1.847  2.7772  0.0141  0.3859
  407MOL0     H54913  11.265   0.137   1.618 -3.0097 -2.7913 -1.0826
  407MOL0     H54914  11.215  -0.022   1.655  0.1061 -0.0329  0.5236
  407MOL0     H54915  11.115   0.232   1.770  2.0723  0.0051 -1.8478
  407MOL0     H54916  11.081   0.079   1.851  1.0737 -1.1847 -0.2842
  407MOL0     H54917  11.032   0.169   1.558  0.9384  0.7265  1.1814
  407MOL0     H54918  10.946   0.031   1.626  0.5640 -0.6437  1.5604
  407MOL0     H54919  10.889   0.321   1.677 -0.3343  1.4333  0.8178
  407MOL0     H54920  10.838   0.190   1.798 -1.2948 -2.0878 -1.3470
  407MOL0     H54921  10.769   0.185   1.515  2.8294 -1.2874  0.7853
  407MOL0     H54922  10.700   0.081   1.638 -0.4775  0.2693 -0.6919
  407MOL0     H54923  10.666   0.386   1.633 -1.9029  0.9737 -0.4754
  407MOL0     H54924  10.591   0.293   1.751  0.8539  1.0642 -0.3879
  407MOL0     H54925  10.521   0.267   1.462 -3.3143  1.3471 -0.0223
  407MOL0     H54926  10.460   0.371   1.585  1.7408  0.1688 -0.4018
  407MOL0     H54927  11.437   0.249   1.632  0.4426 -2.2942 -2.3784
  407MOL0     H54928  11.639   0.383   1.563 -2.4481 -0.0882  0.1858
  407MOL0     H54929  12.215   0.209   1.573  2.9266 -0.3634 -0.9412
  407MOL0     H54930  12.419   0.301   1.523 -0.3636  0.8968  1.9366
  407MOL0     H54931  12.062   1.088   1.647 -1.2891  1.6994 -4.6440
  407MOL0     H54932  11.926   1.021   1.846  1.4793 -2.8843  1.2330
  407MOL0     H54933  11.288   0.836   1.936 -0.2272 -0.5384  0.2692
  407MOL0     H54934  11.224   0.729   2.147  1.9352 -2.3251  4.7679
  407MOL0     H54935  11.506   0.709   2.467 -0.9539  1.7365  0.0039
  407MOL0     H54936  11.371   0.813   2.527  0.0670  0.7563 -0.2090
  407MOL0     H54937  11.365   0.504   2.485  1.9417  0.5382 -0.6685
  407MOL0     H54938  11.231   0.609   2.538 -0.0272  4.7146 -1.6251
  407MOL0     H54939  11.360   0.643   2.751  1.5104 -2.3939  1.3286
  407MOL0     H54940  11.512   0.596   2.681  0.3644  2.1191 -1.4533
  407MOL0     H54941  11.395   0.447   2.854  0.2771  1.4421 -0.1269
  407MOL0     H54942  11.437   0.365   2.701  1.9631  0.7465  0.9833
  407MOL0     H54943  11.023   0.314   2.717  0.0815  1.1510 -2.0649
  407MOL0     H54944  11.593   0.820   2.336  1.2549 -2.5251 -1.4377
  407MOL0     H54945  11.704   0.856   2.110  1.3881 -3.7167 -1.0684
  408MOL0     O54946   0.782   0.200   6.264 -0.1187 -0.4447 -0.4887
  408MOL0     C54947   0.689   0.223   6.340  0.3555 -0.4225 -0.4803
  408MOL0     O54948   0.580   0.142   6.335 -0.4454  0.1039 -0.1282
  408MOL0     C54949   0.583   0.035   6.248  0.0148 -0.4646  0.6391
  408MOL0     C54950   0.628  -0.094   6.294 -0.5522  0.0421  0.8253
  408MOL0     C54951   0.589  -0.212   6.221  0.2284 -0.6462 -0.4839
  408MOL0     C54952   0.502  -0.207   6.118  0.0949 -0.5580  0.9425
  408MOL0     O54953   0.456  -0.324   6.063 -0.7682 -0.1347 -0.2979
  408MOL0     C54954   0.315  -0.321   6.051 -0.0095  0.4280  0.2177
  408MOL0     C54955   0.269  -0.467   6.028  0.0951  0.5741  0.6844
  408MOL0     C54956   0.292  -0.552   6.158 -0.6720  0.7307 -0.0613
  408MOL0     C54957   0.217  -0.685   6.177 -0.0930  0.0680  1.1822
  408MOL0     C54958   0.233  -0.764   6.300  0.4507  0.2592 -0.0877
  408MOL0     C54959   0.167  -0.694   6.424  0.2593 -0.3289 -0.7562
  408MOL0     C54960   0.208  -0.773   6.555  0.1278  0.1601  0.0240
  408MOL0     C54961   0.085  -0.840   6.614  0.1080  1.0039 -0.5621
  408MOL0     N54962   0.047  -0.966   6.556 -0.3782 -0.0588  0.4340
  408MOL0     C54963  -0.024  -0.977   6.441 -0.4985  1.6633  0.3529
  408MOL0     C54964  -0.019  -1.112   6.407 -0.2896  0.4909 -0.2700
  408MOL0     C54965  -0.075  -1.200   6.288  0.5055  0.7102 -0.8297
  408MOL0     C54966   0.013  -1.203   6.166  0.6865 -0.1229  0.3966
  408MOL0     C54967   0.157  -1.231   6.190  0.0826 -0.1402  1.1050
  408MOL0     C54968   0.193  -1.353   6.270  0.0784 -0.1702  0.0040
  408MOL0     O54969   0.150  -1.472   6.201 -0.0796  0.3260  0.5661
  408MOL0     C54970   0.218  -1.583   6.241  0.8797  0.5779 -0.3045
  408MOL0     C54971   0.150  -1.689   6.302  0.0760  0.5157  0.2097
  408MOL0     C54972   0.218  -1.813   6.328  0.3794  0.3800 -0.3184
  408MOL0     C54973   0.138  -1.942   6.364 -0.7783 -0.7736 -0.1821
  408MOL0     C54974   0.359  -1.822   6.305 -0.4992  0.4371  0.6232
  408MOL0     C54975   0.455  -1.941   6.324 -0.5032 -0.7518  0.0551
  408MOL0     O54976   0.588  -1.908   6.340 -0.1762  0.3016  0.7325
  408MOL0     C54977   0.662  -2.005   6.393  0.0830  0.8447  0.5268
  408MOL0     C54978   0.701  -2.120   6.325  0.5040  0.1797  0.7249
  408MOL0     C54979   0.795  -2.213   6.368 -0.2975 -0.9059 -0.5787
  408MOL0     C54980   0.850  -2.186   6.498  0.0257  0.1796  0.5152
  408MOL0     O54981   0.950  -2.262   6.535 -0.4793  0.8247 -0.0914
  408MOL0     C54982   0.935  -2.401   6.526 -0.3718 -0.3095  0.6391
  408MOL0     C54983   1.062  -2.483   6.573  0.9271 -0.4909  0.0044
  408MOL0     C54984   1.091  -2.447   6.716  0.3163  1.1328 -0.1128
  408MOL0     C54985   1.220  -2.515   6.768  0.2351  0.1474 -0.4781
  408MOL0     C54986   1.216  -2.664   6.764 -0.7135  0.6039  0.7949
  408MOL0     C54987   1.311  -2.724   6.867  0.2825  0.2924 -0.1552
  408MOL0     C54988   1.335  -2.874   6.850  0.4381 -0.0627 -0.0942
  408MOL0     C54989   1.208  -2.959   6.874  1.0908 -0.4103  0.2653
  408MOL0    Cl54990   1.255  -3.137   6.831 -0.5497  0.2313  0.5164
  408MOL0     C54991   0.819  -2.066   6.560 -0.4780 -0.1417 -0.0578
  408MOL0     C54992   0.733  -1.972   6.509  1.1682  0.0013 -0.2118
  408MOL0     O54993   0.409  -2.055   6.320  0.1024  0.4989 -0.0644
  408MOL0     C54994   0.425  -1.713   6.245  0.5628  0.2308  0.0224
  408MOL0     C54995   0.347  -1.597   6.215 -0.1116  0.2576 -0.3259
  408MOL0     N54996   0.055  -1.173   6.512  0.3115  0.2829  0.6430
  408MOL0     N54997   0.102  -1.083   6.592  0.0825  0.7022 -0.0011
  408MOL0     C54998   0.455  -0.082   6.074  1.1853 -0.2940 -0.4120
  408MOL0     C54999   0.507   0.040   6.131 -0.8963  0.6037  0.0796
  408MOL0     C55000   0.692   0.347   6.417  0.2469  0.8245  0.4771
  408MOL0     C55001   0.600   0.367   6.520  0.1732 -0.1348 -0.1776
  408MOL0     C55002   0.592   0.489   6.597  0.6271 -0.3390  0.2137
  408MOL0     C55003   0.690   0.585   6.565 -0.4173 -1.4045  0.1672
  408MOL0     O55004   0.674   0.694   6.643 -0.0293  0.0187  0.0662
  408MOL0     C55005   0.745   0.811   6.609 -0.5003 -1.0938  0.8862
  408MOL0     C55006   0.684   0.874   6.479  0.5455 -0.0270 -0.6066
  408MOL0     C55007   0.767   0.982   6.404  0.7980  0.7230  0.0565
  408MOL0     C55008   0.723   1.010   6.261 -0.9423  0.6371  0.5326
  408MOL0     C55009   0.757   0.899   6.169  0.5391 -0.7618  0.2784
  408MOL0     C55010   0.769   0.818   6.081 -0.5374  0.1625 -0.2627
  408MOL0     C55011   0.774   0.572   6.449 -0.5030  0.6625  0.5798
  408MOL0     C55012   0.776   0.449   6.374  0.6568  0.2803  0.6953
  408MOL0     H55013   0.694  -0.099   6.380 -0.3326  0.4563  0.6839
  408MOL0     H55014   0.627  -0.303   6.266 -1.2994 -1.2793 -0.4136
  408MOL0     H55015   0.262  -0.287   6.141  0.9453  2.1788  0.1566
  408MOL0     H55016   0.296  -0.263   5.961  2.0708 -0.9239 -1.1985
  408MOL0     H55017   0.163  -0.464   6.002  1.0105 -0.1906 -4.1103
  408MOL0     H55018   0.318  -0.512   5.941 -0.3705  1.4751 -0.0572
  408MOL0     H55019   0.393  -0.591   6.137 -1.1872 -0.9479  0.3849
  408MOL0     H55020   0.294  -0.494   6.251  0.4405 -1.3334  1.2898
  408MOL0     H55021   0.115  -0.656   6.148  0.4329  2.1621  1.2186
  408MOL0     H55022   0.249  -0.746   6.092  2.7355  1.2598  1.2758
  408MOL0     H55023   0.198  -0.865   6.276 -2.4985  1.2342 -0.2301
  408MOL0     H55024   0.340  -0.776   6.319 -0.2137 -6.8498  2.0303
  408MOL0     H55025   0.216  -0.597   6.438  1.7128 -1.2621  0.9818
  408MOL0     H55026   0.060  -0.685   6.406  0.4181 -0.6573 -1.9815
  408MOL0     H55027   0.282  -0.851   6.535  2.2064  1.9248  0.4678
  408MOL0     H55028   0.246  -0.699   6.626 -2.1756  1.5740 -0.1154
  408MOL0     H55029   0.002  -0.771   6.626 -0.9333 -0.5141  1.7652
  408MOL0     H55030   0.118  -0.858   6.717  2.3925 -1.5067 -1.5986
  408MOL0     H55031  -0.081  -0.905   6.384 -3.2195 -0.0199  0.7333
  408MOL0     H55032  -0.077  -1.295   6.342  3.2324  2.9096  3.6248
  408MOL0     H55033  -0.178  -1.169   6.264  1.0813  2.5540 -1.0677
  408MOL0     H55034   0.004  -1.105   6.118 -0.6357  0.0621  0.9836
  408MOL0     H55035  -0.030  -1.278   6.099 -0.1633  0.2931  0.4594
  408MOL0     H55036   0.201  -1.141   6.235  0.4513  0.6311 -0.7217
  408MOL0     H55037   0.203  -1.228   6.091 -0.9414 -0.7734  0.5968
  408MOL0     H55038   0.147  -1.356   6.370 -0.5352 -1.0422 -0.2974
  408MOL0     H55039   0.300  -1.350   6.294 -0.0861  1.4761  0.6526
  408MOL0     H55040   0.044  -1.678   6.321 -0.6617  0.2632 -3.1412
  408MOL0     H55041   0.030  -1.921   6.360 -0.8374 -1.2425 -1.5324
  408MOL0     H55042   0.141  -2.016   6.284  1.7231 -0.2356 -0.6490
  408MOL0     H55043   0.173  -1.980   6.461  0.9690 -1.3637 -1.0101
  408MOL0     H55044   0.651  -2.139   6.230  4.4076  2.1064 -2.0014
  408MOL0     H55045   0.821  -2.282   6.289 -0.7461 -0.6155 -0.9891
  408MOL0     H55046   0.847  -2.430   6.584 -0.7203 -1.9364 -0.6449
  408MOL0     H55047   0.918  -2.425   6.421  1.3099  1.1523 -0.0188
  408MOL0     H55048   1.051  -2.590   6.554 -1.2380 -0.5994  1.5490
  408MOL0     H55049   1.146  -2.453   6.510 -0.5439 -0.1625 -1.9117
  408MOL0     H55050   0.998  -2.477   6.766  1.7058  0.0322  2.0137
  408MOL0     H55051   1.113  -2.341   6.725  1.3696  0.8485  0.9328
  408MOL0     H55052   1.314  -2.479   6.725 -0.1018 -0.0157 -1.3556
  408MOL0     H55053   1.222  -2.492   6.875 -1.0562 -2.3439  0.1445
  408MOL0     H55054   1.241  -2.704   6.665  0.6171 -0.3928  1.5026
  408MOL0     H55055   1.114  -2.693   6.791 -0.8091 -0.2889 -0.4344
  408MOL0     H55056   1.402  -2.663   6.867 -1.3068  2.8597 -2.6135
  408MOL0     H55057   1.279  -2.716   6.971  2.1139  0.3231  0.4554
  408MOL0     H55058   1.385  -2.907   6.941  1.7669  2.0078  0.0069
  408MOL0     H55059   1.393  -2.915   6.767  2.2618  1.3739  0.4011
  408MOL0     H55060   1.122  -2.933   6.812 -1.0082 -2.7328  1.9865
  408MOL0     H55061   1.173  -2.948   6.977 -2.2113 -1.1203 -0.6684
  408MOL0     H55062   0.857  -2.044   6.659 -1.0499 -1.9027  0.5932
  408MOL0     H55063   0.719  -1.879   6.563 -0.8754  0.2290 -1.0724
  408MOL0     H55064   0.531  -1.707   6.221  0.6729  4.2435  0.7723
  408MOL0     H55065   0.404  -1.521   6.162  2.3384 -2.7577 -2.3737
  408MOL0     H55066   0.382  -0.068   5.995 -0.5260 -2.4166  0.6964
  408MOL0     H55067   0.464   0.132   6.094  1.1378  2.8121  2.7856
  408MOL0     H55068   0.536   0.284   6.549  1.7277 -0.5167  2.4847
  408MOL0     H55069   0.525   0.504   6.681 -0.8283  0.6966 -1.0725
  408MOL0     H55070   0.736   0.893   6.682 -3.8274 -1.0917  0.6599
  408MOL0     H55071   0.851   0.794   6.589 -0.2938  1.3128 -0.4094
  408MOL0     H55072   0.594   0.927   6.513  1.1275  0.5081  0.1198
  408MOL0     H55073   0.649   0.791   6.417  0.2147 -2.9853  3.1669
  408MOL0     H55074   0.871   0.952   6.389  0.5833  0.2760 -0.6044
  408MOL0     H55075   0.755   1.071   6.466 -2.2923  0.2345  0.3367
  408MOL0     H55076   0.756   1.110   6.230 -0.7767  1.2947  2.6723
  408MOL0     H55077   0.615   1.024   6.272 -0.5812  2.1288  2.9401
  408MOL0     H55078   0.759   0.732   6.018  0.2703 -0.5527  0.5522
  408MOL0     H55079   0.832   0.659   6.420 -0.0125  0.0438 -0.3395
  408MOL0     H55080   0.852   0.441   6.296 -0.5418 -0.8979 -0.4055
  409MOL0     O55081  10.358   5.796   4.616  0.2520 -0.5596 -0.0634
  409MOL0     C55082  10.311   5.834   4.721  0.6447  0.6772  0.1548
  409MOL0     O55083  10.382   5.851   4.839 -0.0688 -0.8062 -1.8182
  409MOL0     C55084  10.472   5.759   4.887  1.3229 -0.9634 -0.2681
  409MOL0     C55085  10.591   5.800   4.956 -0.2181 -0.6039 -0.0995
  409MOL0     C55086  10.668   5.710   5.031 -0.1390 -0.4894  0.1860
  409MOL0     C55087  10.640   5.573   5.015  0.0909 -0.3443  0.8538
  409MOL0     O55088  10.728   5.481   5.080  0.2295  0.3400  0.6444
  409MOL0     C55089  10.729   5.339   5.047 -0.8061 -0.9957  0.5181
  409MOL0     C55090  10.838   5.335   4.935  0.0309  0.0819 -0.2504
  409MOL0     C55091  10.866   5.192   4.889  1.0248  0.9954  0.3159
  409MOL0     C55092  10.940   5.196   4.755 -0.5957 -0.1040 -0.3467
  409MOL0     C55093  10.974   5.046   4.709 -0.0967 -0.4517 -0.5539
  409MOL0     C55094  11.037   5.055   4.573 -0.0637  0.2905  0.8186
  409MOL0     C55095  11.061   4.908   4.519  0.1111  0.6807  0.5789
  409MOL0     C55096  11.102   4.899   4.375  1.6122 -0.9346 -0.8661
  409MOL0     N55097  10.983   4.931   4.287 -0.2505  0.3188 -0.2403
  409MOL0     C55098  10.862   4.858   4.281 -0.5056  0.1931  0.5254
  409MOL0     C55099  10.784   4.905   4.183  0.3284  0.6811 -0.0795
  409MOL0     C55100  10.649   4.864   4.154  0.9217 -0.2351  0.0128
  409MOL0     C55101  10.569   4.908   4.278 -0.5821  0.1750 -0.8277
  409MOL0     C55102  10.448   4.826   4.311  0.3850  0.0699 -0.9788
  409MOL0     C55103  10.470   4.695   4.375  0.5147  0.1197 -0.2200
  409MOL0     O55104  10.565   4.714   4.483 -0.9357  0.0704  0.3395
  409MOL0     C55105  10.588   4.603   4.563 -0.1754 -0.4400  0.6479
  409MOL0     C55106  10.559   4.471   4.520 -0.1229 -0.7646  0.3775
  409MOL0     C55107  10.575   4.356   4.596  0.6456 -0.7878 -0.5867
  409MOL0     C55108  10.515   4.231   4.545  0.5144 -0.5596 -0.3963
  409MOL0     C55109  10.644   4.369   4.715 -1.0120 -1.0997  0.0225
  409MOL0     C55110  10.682   4.244   4.789  0.3916  0.5939  0.2119
  409MOL0     O55111  10.748   4.141   4.727 -0.3193 -0.8618  0.1834
  409MOL0     C55112  10.726   4.014   4.769 -0.1296  0.1667 -0.8495
  409MOL0     C55113  10.605   3.969   4.824 -0.2685 -0.1327 -0.8691
  409MOL0     C55114  10.590   3.840   4.882  0.0735  0.4265 -0.4960
  409MOL0     C55115  10.692   3.743   4.870  0.4681 -0.5550  0.2091
  409MOL0     O55116  10.683   3.610   4.893  0.4843  0.6583 -0.1701
  409MOL0     C55117  10.766   3.561   5.002  0.2549  0.3144  0.1456
  409MOL0     C55118  10.712   3.431   5.038  0.2763  0.4316  0.1351
  409MOL0     C55119  10.798   3.341   5.122 -0.3503  0.1667 -1.2156
  409MOL0     C55120  10.885   3.239   5.037  0.4543 -0.4288  0.7873
  409MOL0     C55121  10.975   3.146   5.125  0.5028 -0.0511  0.4809
  409MOL0     C55122  10.905   3.029   5.190 -0.5729 -0.0879  0.3938
  409MOL0     C55123  10.953   2.983   5.330  1.1289  0.9429 -0.3636
  409MOL0     C55124  10.970   2.826   5.353 -0.3114 -0.9216  0.5549
  409MOL0    Cl55125  11.004   2.809   5.527 -0.2065 -0.0970 -0.0412
  409MOL0     C55126  10.802   3.788   4.794 -0.7843  0.7206 -0.0494
  409MOL0     C55127  10.826   3.919   4.752 -0.5957  0.7407 -0.7230
  409MOL0     O55128  10.644   4.243   4.907  0.2554 -0.0962  0.9380
  409MOL0     C55129  10.686   4.500   4.750  0.5046 -0.7450  0.4957
  409MOL0     C55130  10.661   4.618   4.675 -0.6972  1.0152  1.1822
  409MOL0     N55131  10.851   5.016   4.130  0.4557 -0.0081 -0.5443
  409MOL0     N55132  10.968   5.022   4.187 -0.0854 -0.3143 -0.1205
  409MOL0     C55133  10.527   5.538   4.946  0.2140  1.0927 -0.9608
  409MOL0     C55134  10.437   5.629   4.885  0.1647 -0.6727  0.4326
  409MOL0     C55135  10.170   5.878   4.714  0.5591  0.8902  0.0532
  409MOL0     C55136  10.094   5.847   4.603 -1.0950 -0.0304 -1.2047
  409MOL0     C55137   9.952   5.876   4.595 -0.2808  0.7787  0.9497
  409MOL0     C55138   9.888   5.948   4.694 -0.0231 -0.2043 -0.2290
  409MOL0     O55139   9.761   5.986   4.679  0.1156  0.3491 -0.0544
  409MOL0     C55140   9.682   5.877   4.746  0.0675 -0.5474 -0.0006
  409MOL0     C55141   9.526   5.903   4.738 -0.0672 -0.3853  0.0967
  409MOL0     C55142   9.488   6.045   4.803  0.5467 -0.2524 -0.2632
  409MOL0     C55143   9.341   6.050   4.838 -0.4258 -0.6682 -0.2504
  409MOL0     C55144   9.313   6.151   4.943 -0.7462 -0.8254  0.2258
  409MOL0     C55145   9.310   6.230   5.041  0.7285 -0.4753 -0.0184
  409MOL0     C55146   9.971   5.996   4.802  0.4502 -0.3811 -0.4322
  409MOL0     C55147  10.110   5.958   4.817 -0.2421  1.0234  0.4014
  409MOL0     H55148  10.604   5.907   4.967  2.4645 -1.0943  3.5580
  409MOL0     H55149  10.750   5.744   5.093 -0.4952 -0.2935  0.5500
  409MOL0     H55150  10.758   5.302   5.146  2.3452 -1.4423 -0.4800
  409MOL0     H55151  10.630   5.301   5.019 -0.7970  0.0338 -1.0060
  409MOL0     H55152  10.815   5.400   4.851 -1.6851  0.0371  0.1448
  409MOL0     H55153  10.936   5.360   4.975  0.5211 -2.0173  0.0128
  409MOL0     H55154  10.922   5.137   4.966  3.8189  3.9890  0.6487
  409MOL0     H55155  10.774   5.136   4.870  2.9694 -1.1570 -4.3145
  409MOL0     H55156  10.876   5.240   4.677 -0.1913  1.0481 -0.0349
  409MOL0     H55157  11.025   5.261   4.775 -1.6925  0.3826  3.6148
  409MOL0     H55158  11.049   5.002   4.774 -1.3731 -1.3384  0.3498
  409MOL0     H55159  10.889   4.978   4.718  0.7938 -1.5384 -0.2727
  409MOL0     H55160  10.967   5.112   4.511 -0.5555 -1.8206 -0.6815
  409MOL0     H55161  11.134   5.103   4.586  0.2754 -0.1587  0.0220
  409MOL0     H55162  11.149   4.868   4.571 -0.8309  2.0674  3.4686
  409MOL0     H55163  10.964   4.862   4.544 -1.0617  2.2349 -0.8731
  409MOL0     H55164  11.109   4.792   4.352 -1.2476 -1.7153  1.3800
  409MOL0     H55165  11.193   4.958   4.361  2.5256 -2.1982 -0.4057
  409MOL0     H55166  10.851   4.776   4.351 -2.7688  0.4445  0.5493
  409MOL0     H55167  10.624   4.933   4.072  1.9107 -0.9698 -0.9349
  409MOL0     H55168  10.634   4.757   4.134 -1.5743  0.5238 -3.0480
  409MOL0     H55169  10.545   5.013   4.262  1.0565  0.4647 -1.5576
  409MOL0     H55170  10.635   4.923   4.364 -0.3262  1.2315 -1.1923
  409MOL0     H55171  10.396   4.807   4.216  2.7386  2.3346 -2.8694
  409MOL0     H55172  10.386   4.878   4.384  0.2970 -2.5215  0.9448
  409MOL0     H55173  10.514   4.622   4.306  0.3212 -1.2552  1.0554
  409MOL0     H55174  10.376   4.655   4.415  0.8228  0.6937  1.1423
  409MOL0     H55175  10.507   4.446   4.428 -1.5255 -0.4629  1.0651
  409MOL0     H55176  10.433   4.255   4.476  0.8889  0.7568 -0.4104
  409MOL0     H55177  10.589   4.170   4.492  0.0059 -0.4841 -1.2109
  409MOL0     H55178  10.461   4.172   4.618 -4.6411  2.0683 -1.6341
  409MOL0     H55179  10.514   4.028   4.826 -0.4764 -0.4109  1.5965
  409MOL0     H55180  10.492   3.814   4.921  1.2215 -3.8509  0.0485
  409MOL0     H55181  10.865   3.545   4.957 -0.5044 -0.9690 -1.1582
  409MOL0     H55182  10.776   3.625   5.089 -0.6792  0.7136 -0.0310
  409MOL0     H55183  10.613   3.455   5.080  0.7931  1.6979  0.6821
  409MOL0     H55184  10.683   3.379   4.946 -0.6170 -2.2259  1.8121
  409MOL0     H55185  10.736   3.279   5.188 -0.8344 -0.3949 -2.1775
  409MOL0     H55186  10.855   3.403   5.191 -1.3539  0.0369 -0.2262
  409MOL0     H55187  10.804   3.187   4.984 -0.5852  1.6746  0.1942
  409MOL0     H55188  10.934   3.296   4.959 -0.0264 -0.4925  0.4306
  409MOL0     H55189  11.029   3.208   5.197  0.0655  0.4189  0.4085
  409MOL0     H55190  11.054   3.114   5.056  2.5453  1.7464  1.8606
  409MOL0     H55191  10.797   3.042   5.196 -1.0212 -2.7317 -0.4389
  409MOL0     H55192  10.920   2.949   5.117 -1.2950 -1.0190  1.2415
  409MOL0     H55193  10.883   3.018   5.407  0.3619 -2.8493  0.8842
  409MOL0     H55194  11.048   3.035   5.347  1.7372 -0.4826  0.7477
  409MOL0     H55195  11.051   2.787   5.291 -2.1813 -3.8439 -0.2615
  409MOL0     H55196  10.873   2.785   5.322 -0.9251 -1.3243  2.8196
  409MOL0     H55197  10.875   3.712   4.766 -1.0564  0.3764  0.1755
  409MOL0     H55198  10.921   3.952   4.711  0.5675 -0.8874  0.5263
  409MOL0     H55199  10.731   4.519   4.846  0.8040 -0.0268  0.2187
  409MOL0     H55200  10.701   4.712   4.712 -1.1103  2.1246 -1.0224
  409MOL0     H55201  10.512   5.431   4.940 -1.1720  0.8043  3.5641
  409MOL0     H55202  10.343   5.599   4.839  0.8335 -3.7250  0.8715
  409MOL0     H55203  10.133   5.800   4.514  0.4738  0.8267 -0.9955
  409MOL0     H55204   9.907   5.853   4.499  0.7060 -1.5324  0.9790
  409MOL0     H55205   9.716   5.780   4.708  3.2838 -1.6114  4.7241
  409MOL0     H55206   9.704   5.879   4.853 -0.0522  0.3761  0.0159
  409MOL0     H55207   9.472   5.822   4.788 -0.6217  0.5179  1.0194
  409MOL0     H55208   9.497   5.897   4.633 -0.3770  2.1515 -0.0177
  409MOL0     H55209   9.514   6.115   4.723 -0.3942  0.4236 -0.0069
  409MOL0     H55210   9.544   6.065   4.894  1.5761 -0.8176 -0.7563
  409MOL0     H55211   9.332   5.956   4.893 -2.4204 -1.7670 -2.2947
  409MOL0     H55212   9.281   6.057   4.747 -0.1856  0.2793 -0.3432
  409MOL0     H55213   9.316   6.300   5.122 -1.4086 -1.4092  1.0193
  409MOL0     H55214   9.920   6.046   4.884 -1.4544 -1.3016 -0.9990
  409MOL0     H55215  10.167   5.998   4.900  4.2473  0.4328 -2.0888
  410MOL0     O55216  10.940  11.369   2.540 -0.0049 -0.5445  0.4476
  410MOL0     C55217  10.980  11.453   2.620  0.0177  0.3636 -0.2989
  410MOL0     O55218  10.925  11.571   2.641 -0.2487  0.2512 -0.0550
  410MOL0     C55219  10.795  11.575   2.614 -0.4062 -0.3467 -0.8356
  410MOL0     C55220  10.755  11.619   2.490  0.4807  0.0290  0.4671
  410MOL0     C55221  10.620  11.654   2.464 -0.1294 -0.2124  0.7712
  410MOL0     C55222  10.532  11.655   2.572  0.4659 -0.4639 -0.0965
  410MOL0     O55223  10.395  11.688   2.560  0.5252  0.0332  0.1349
  410MOL0     C55224  10.290  11.588   2.588  0.4664  0.2760 -0.5865
  410MOL0     C55225  10.191  11.561   2.475  0.3400 -0.3947 -0.0122
  410MOL0     C55226  10.073  11.474   2.522 -0.0236 -0.0201 -0.5940
  410MOL0     C55227   9.961  11.456   2.427  1.0109  0.2428 -0.7800
  410MOL0     C55228   9.872  11.354   2.481  0.5945 -0.0790  0.0407
  410MOL0     C55229   9.758  11.315   2.380  0.4385  0.2250  0.0299
  410MOL0     C55230   9.687  11.188   2.403 -0.0219 -0.3757  0.4099
  410MOL0     C55231   9.588  11.203   2.518  0.3977  0.4572  0.5311
  410MOL0     N55232   9.505  11.083   2.549  1.3654 -0.3575  0.2558
  410MOL0     C55233   9.515  11.014   2.658  0.6307 -0.1227  0.1052
  410MOL0     C55234   9.441  10.896   2.631 -0.0441  0.3366  0.0738
  410MOL0     C55235   9.427  10.785   2.725  0.4884 -0.0174 -0.0882
  410MOL0     C55236   9.349  10.824   2.840  0.7513  0.7625 -0.0078
  410MOL0     C55237   9.315  10.710   2.940 -0.6093 -0.1419 -0.4872
  410MOL0     C55238   9.445  10.655   3.011  0.1455 -0.1082 -0.0010
  410MOL0     O55239   9.416  10.586   3.134 -0.6743 -0.0524  0.4140
  410MOL0     C55240   9.480  10.471   3.154  1.0488  0.1813 -0.4557
  410MOL0     C55241   9.601  10.446   3.108 -0.8803 -0.5677  0.4593
  410MOL0     C55242   9.672  10.334   3.160 -0.7146  1.0328  0.9174
  410MOL0     C55243   9.813  10.305   3.114  0.3705 -0.6470 -0.0417
  410MOL0     C55244   9.604  10.235   3.238  0.9199  0.6759  0.4110
  410MOL0     C55245   9.662  10.102   3.266  0.4087  0.2039 -0.2869
  410MOL0     O55246   9.757  10.052   3.187  0.0654 -0.2540  0.4446
  410MOL0     C55247   9.799   9.925   3.205  0.1618  0.7362 -0.6823
  410MOL0     C55248   9.906   9.902   3.293 -0.7295  0.6511  0.4255
  410MOL0     C55249   9.972   9.776   3.281 -0.6842 -0.5227 -0.9454
  410MOL0     C55250   9.929   9.663   3.211 -0.4020  0.5907  0.7280
  410MOL0     O55251   9.995   9.537   3.212 -1.0607  0.0656 -0.4890
  410MOL0     C55252   9.981   9.465   3.087  0.0801 -0.8321  0.3793
  410MOL0     C55253  10.115   9.390   3.046  0.2343  0.1768  0.0307
  410MOL0     C55254  10.224   9.491   2.997  0.2293 -0.1597  0.7926
  410MOL0     C55255  10.365   9.443   3.001 -0.9037  0.2242  0.1758
  410MOL0     C55256  10.429   9.425   3.144 -0.5435  0.3800  0.0230
  410MOL0     C55257  10.557   9.356   3.146 -1.4573  0.2041 -0.0264
  410MOL0     C55258  10.601   9.311   3.290  0.7551 -0.7082  0.0423
  410MOL0     C55259  10.752   9.301   3.278 -0.4098  0.1034 -0.8419
  410MOL0    Cl55260  10.780   9.132   3.207  0.1437  0.3834  0.0673
  410MOL0     C55261   9.817   9.694   3.126  0.0599  0.4893 -0.0352
  410MOL0     C55262   9.756   9.817   3.123 -0.4104 -0.0776 -0.1707
  410MOL0     O55263   9.629  10.054   3.378 -0.0712  0.5234 -0.4465
  410MOL0     C55264   9.479  10.267   3.291 -0.6906  0.2271  0.2710
  410MOL0     C55265   9.416  10.381   3.242  0.7342 -0.1179  0.3084
  410MOL0     N55266   9.366  10.914   2.517 -0.5145  0.1906  0.5085
  410MOL0     N55267   9.422  11.018   2.463  0.2320 -0.0751 -0.3220
  410MOL0     C55268  10.576  11.611   2.693  1.0599  0.0720  0.1652
  410MOL0     C55269  10.711  11.565   2.724 -0.7862 -0.5214  1.0129
  410MOL0     C55270  11.090  11.414   2.703 -0.0864  0.2023 -0.5460
  410MOL0     C55271  11.174  11.505   2.765 -0.0967 -0.7279 -0.1617
  410MOL0     C55272  11.298  11.471   2.831  1.1977 -0.1161  1.1776
  410MOL0     C55273  11.323  11.336   2.845 -0.4655 -0.1373 -0.2661
  410MOL0     O55274  11.437  11.314   2.919  1.1741 -0.2591 -0.1871
  410MOL0     C55275  11.462  11.184   2.965 -0.1457 -0.7400 -1.0892
  410MOL0     C55276  11.537  11.196   3.096  0.8101 -0.3033 -0.7523
  410MOL0     C55277  11.453  11.264   3.207 -0.0433  1.1051 -0.2628
  410MOL0     C55278  11.533  11.298   3.339  0.3642  1.1572  0.4992
  410MOL0     C55279  11.631  11.408   3.316 -0.8566  0.6315  0.4632
  410MOL0     C55280  11.724  11.482   3.297  0.5029  0.8832  0.2754
  410MOL0     C55281  11.246  11.237   2.774  0.1924 -0.2231 -0.9340
  410MOL0     C55282  11.133  11.282   2.706 -0.6395  1.5023 -0.0369
  410MOL0     H55283  10.818  11.632   2.403 -2.0472  2.6296 -1.1889
  410MOL0     H55284  10.590  11.675   2.361 -0.3747 -1.0591  0.6629
  410MOL0     H55285  10.337  11.496   2.624 -0.0062  0.6402  1.0439
  410MOL0     H55286  10.234  11.621   2.676  0.9597 -0.1908 -0.0919
  410MOL0     H55287  10.151  11.660   2.451  3.5394  0.4482 -2.5421
  410MOL0     H55288  10.244  11.520   2.389  3.6606  1.9266  0.7300
  410MOL0     H55289  10.123  11.379   2.545 -1.7042 -0.6203  0.8622
  410MOL0     H55290  10.028  11.512   2.615  1.7852 -0.2249  0.4185
  410MOL0     H55291   9.904  11.546   2.406  4.7662  3.0690 -0.0417
  410MOL0     H55292   9.995  11.409   2.334  1.5232 -1.6646  0.3190
  410MOL0     H55293   9.926  11.275   2.533  1.0781  1.0835  1.3607
  410MOL0     H55294   9.817  11.405   2.560 -1.5147 -2.9131  0.5733
  410MOL0     H55295   9.695  11.404   2.370  1.8449  1.1672 -0.8349
  410MOL0     H55296   9.798  11.297   2.280  1.7760 -2.1798  0.9147
  410MOL0     H55297   9.623  11.166   2.318 -1.0491 -0.5499  1.2128
  410MOL0     H55298   9.752  11.102   2.422 -0.0659 -0.2029  1.3788
  410MOL0     H55299   9.526  11.290   2.496  0.7109  1.0641  1.8998
  410MOL0     H55300   9.647  11.230   2.607  0.3285 -1.4024  1.1899
  410MOL0     H55301   9.575  11.034   2.746  2.5963 -0.0410 -1.1851
  410MOL0     H55302   9.362  10.711   2.679  1.0324  0.3471 -1.4858
  410MOL0     H55303   9.521  10.737   2.752  0.2062  0.3966  1.7754
  410MOL0     H55304   9.252  10.867   2.815  0.2156  0.3172  1.1880
  410MOL0     H55305   9.389  10.920   2.874 -2.3498  2.0926  0.1521
  410MOL0     H55306   9.254  10.633   2.891  0.2597 -0.6982 -0.7178
  410MOL0     H55307   9.249  10.753   3.016  0.3717 -2.3219  1.7218
  410MOL0     H55308   9.517  10.735   3.033 -0.6300 -0.2588  3.7689
  410MOL0     H55309   9.490  10.595   2.932 -0.0437 -1.5088  0.9193
  410MOL0     H55310   9.647  10.514   3.038  0.9964 -0.3700  1.8364
  410MOL0     H55311   9.822  10.237   3.029  1.3967  2.4776 -2.6604
  410MOL0     H55312   9.846  10.402   3.075  1.2273  0.2508  2.6699
  410MOL0     H55313   9.873  10.275   3.200 -1.4235 -0.0248  1.4949
  410MOL0     H55314   9.941   9.988   3.349  1.1992  0.8738 -0.9934
  410MOL0     H55315  10.063   9.752   3.334 -1.0302 -0.7737 -0.4600
  410MOL0     H55316   9.896   9.396   3.086 -1.2531  0.7483 -1.5055
  410MOL0     H55317   9.955   9.532   3.005 -2.3676 -0.3138  1.5170
  410MOL0     H55318  10.144   9.327   3.130 -0.1676 -0.3070 -0.1857
  410MOL0     H55319  10.101   9.315   2.967 -1.2757  1.0121 -0.5509
  410MOL0     H55320  10.233   9.582   3.057  2.8235 -0.3518  0.8392
  410MOL0     H55321  10.199   9.518   2.894 -1.1870 -2.9770  0.3083
  410MOL0     H55322  10.352   9.342   2.959 -1.4598  0.1283  0.5681
  410MOL0     H55323  10.434   9.504   2.942  1.2949 -1.3474  0.9598
  410MOL0     H55324  10.359   9.361   3.199  0.6250 -2.1814 -1.2813
  410MOL0     H55325  10.424   9.515   3.206 -2.4814 -0.7444  1.6389
  410MOL0     H55326  10.570   9.271   3.078 -2.2328  1.1827 -1.4430
  410MOL0     H55327  10.634   9.425   3.109  0.2773 -0.2992  2.4381
  410MOL0     H55328  10.555   9.214   3.312 -2.1984  0.4055 -0.6748
  410MOL0     H55329  10.574   9.390   3.361  2.8898  1.9307 -1.8970
  410MOL0     H55330  10.804   9.299   3.374  1.5378  0.2485 -1.8409
  410MOL0     H55331  10.800   9.390   3.236  0.6599 -0.0337  0.0347
  410MOL0     H55332   9.785   9.619   3.054  2.7243 -3.3475  2.4332
  410MOL0     H55333   9.684   9.842   3.046 -0.3983 -1.4895 -0.6719
  410MOL0     H55334   9.434  10.197   3.360 -0.7620 -0.1004 -0.1061
  410MOL0     H55335   9.310  10.397   3.262  0.6069 -2.0206  1.3751
  410MOL0     H55336  10.497  11.609   2.767 -0.3789  1.2706 -1.2533
  410MOL0     H55337  10.750  11.542   2.823  0.5123  3.4286  1.5932
  410MOL0     H55338  11.136  11.606   2.757 -1.4112 -1.2802 -1.5105
  410MOL0     H55339  11.352  11.554   2.877  2.8481  0.7266 -1.9730
  410MOL0     H55340  11.371  11.123   2.974 -0.0194 -1.2607 -3.0132
  410MOL0     H55341  11.523  11.131   2.892  1.3945 -0.1261 -0.3055
  410MOL0     H55342  11.630  11.254   3.090  1.3327 -0.6548  2.2593
  410MOL0     H55343  11.549  11.090   3.121  0.5637 -0.0387  0.6067
  410MOL0     H55344  11.365  11.208   3.240  1.6997 -1.0693  0.9906
  410MOL0     H55345  11.428  11.364   3.171 -2.1842 -0.1575 -2.5204
  410MOL0     H55346  11.584  11.207   3.372  0.4204  0.7571 -0.6524
  410MOL0     H55347  11.460  11.331   3.413 -3.0724  2.3045 -3.0425
  410MOL0     H55348  11.804  11.547   3.268 -2.2184  3.6308 -1.7403
  410MOL0     H55349  11.285  11.136   2.768 -1.0620 -0.8133  0.4082
  410MOL0     H55350  11.071  11.212   2.651 -1.9276 -0.8204  3.9936
  411MOL0     O55351   2.083   4.966   5.653  0.3319  0.1751  0.6330
  411MOL0     C55352   1.982   4.892   5.635 -1.2283  0.1072 -0.5247
  411MOL0     O55353   1.958   4.815   5.519 -0.3656  0.0988  0.5430
  411MOL0     C55354   2.032   4.834   5.411  0.7309  0.7684 -1.1549
  411MOL0     C55355   2.042   4.951   5.353 -0.7122 -1.1913  0.2037
  411MOL0     C55356   2.115   4.963   5.234  0.0214 -0.4130  0.3996
  411MOL0     C55357   2.157   4.846   5.170  0.6688 -0.2700  0.7950
  411MOL0     O55358   2.205   4.863   5.041  0.6615  0.6306  0.0664
  411MOL0     C55359   2.288   4.768   4.970 -0.5102 -0.6329 -0.2015
  411MOL0     C55360   2.331   4.803   4.831 -0.1069 -0.2154 -1.2022
  411MOL0     C55361   2.215   4.776   4.737  0.6391  0.1181  0.2708
  411MOL0     C55362   2.188   4.627   4.703 -0.5099  1.4990  1.0065
  411MOL0     C55363   2.061   4.603   4.606 -0.0911 -0.7572 -0.6632
  411MOL0     C55364   2.057   4.465   4.540 -0.5278  0.6281  0.2595
  411MOL0     C55365   1.926   4.425   4.462 -0.0949 -1.0011 -0.3749
  411MOL0     C55366   1.949   4.305   4.369  0.9673  0.3155 -0.7785
  411MOL0     N55367   1.815   4.288   4.310  0.1217 -0.3251  0.9096
  411MOL0     C55368   1.722   4.196   4.350  0.6527  0.2427 -0.3727
  411MOL0     C55369   1.626   4.202   4.259  0.6109  0.3663  0.1283
  411MOL0     C55370   1.505   4.111   4.236  0.1888 -0.6509 -0.1352
  411MOL0     C55371   1.366   4.173   4.204 -0.2091  0.3508 -0.5467
  411MOL0     C55372   1.313   4.103   4.064 -0.2684  0.6843 -0.0624
  411MOL0     C55373   1.280   3.955   4.070  0.1151  0.0106 -0.8145
  411MOL0     O55374   1.154   3.945   4.146 -0.3123 -0.0651 -0.0275
  411MOL0     C55375   1.117   3.814   4.198  0.1026 -0.6269 -0.1444
  411MOL0     C55376   1.160   3.691   4.165  1.3604 -0.1651  0.0087
  411MOL0     C55377   1.100   3.572   4.210 -0.4606  0.5975  0.4769
  411MOL0     C55378   1.165   3.448   4.151 -0.2092 -0.4931  0.1482
  411MOL0     C55379   0.994   3.575   4.295 -0.1012 -0.3497 -0.6482
  411MOL0     C55380   0.915   3.458   4.339 -1.2112 -0.0988  0.5944
  411MOL0     O55381   0.787   3.475   4.361  0.6006 -0.4882 -0.3714
  411MOL0     C55382   0.729   3.384   4.445 -0.2879 -0.1333  0.0522
  411MOL0     C55383   0.755   3.364   4.582  1.1146 -0.1493 -0.6391
  411MOL0     C55384   0.699   3.272   4.669 -0.1026  0.2195  0.1730
  411MOL0     C55385   0.600   3.197   4.615  0.4949  0.5632  0.4602
  411MOL0     O55386   0.548   3.094   4.689 -0.0733 -0.3295 -0.4075
  411MOL0     C55387   0.565   3.099   4.841  0.3112 -0.2208 -0.7244
  411MOL0     C55388   0.494   2.977   4.894  0.4727  1.2029 -0.2181
  411MOL0     C55389   0.564   2.900   5.000 -0.2974  0.2197  0.5199
  411MOL0     C55390   0.655   2.798   4.932 -0.6628  0.4059  0.0487
  411MOL0     C55391   0.718   2.706   5.043 -0.7669  0.7917 -0.1913
  411MOL0     C55392   0.817   2.603   4.983  0.0652  1.0437  0.5470
  411MOL0     C55393   0.890   2.516   5.090  0.4352  0.5856  0.7725
  411MOL0     C55394   0.961   2.596   5.203 -0.3208  0.6444 -0.0177
  411MOL0    Cl55395   1.089   2.498   5.299 -0.2038 -0.0563  0.2620
  411MOL0     C55396   0.554   3.208   4.481  0.4480 -0.2356  0.1344
  411MOL0     C55397   0.618   3.308   4.396  0.2132  0.3184 -0.4165
  411MOL0     O55398   0.976   3.353   4.348  0.1909  0.6506 -0.7433
  411MOL0     C55399   0.947   3.700   4.333  0.4019 -0.4766  0.1692
  411MOL0     C55400   1.007   3.818   4.285  0.0230 -0.2587  0.3261
  411MOL0     N55401   1.664   4.296   4.164  0.3896 -0.4938  0.6505
  411MOL0     N55402   1.780   4.349   4.200  0.1760 -0.6245  0.3097
  411MOL0     C55403   2.135   4.725   5.228 -0.4805  1.0596 -0.6223
  411MOL0     C55404   2.060   4.719   5.346 -0.6756  0.0488  0.9599
  411MOL0     C55405   1.896   4.890   5.754 -0.0004 -0.7798  1.2214
  411MOL0     C55406   1.849   5.008   5.816  0.3028  0.1161  0.2468
  411MOL0     C55407   1.731   5.004   5.890 -0.4863  0.0097 -0.8325
  411MOL0     C55408   1.661   4.881   5.913  0.0269  0.4415 -0.2582
  411MOL0     O55409   1.554   4.869   6.002 -0.7213  0.1643  0.0645
  411MOL0     C55410   1.471   4.974   6.036 -0.4249  0.2249 -0.2628
  411MOL0     C55411   1.379   4.932   6.149 -1.2237  0.3483  0.3438
  411MOL0     C55412   1.281   5.054   6.178  0.3668 -0.0995 -0.6690
  411MOL0     C55413   1.347   5.184   6.217 -0.1172 -0.1654 -1.0915
  411MOL0     C55414   1.446   5.169   6.319 -1.2223  0.3988 -0.1952
  411MOL0     C55415   1.514   5.143   6.421 -0.2411 -0.6942  0.1294
  411MOL0     C55416   1.705   4.766   5.846 -0.7314  0.7041  0.9370
  411MOL0     C55417   1.823   4.774   5.766  0.6111  1.1572  0.8271
  411MOL0     H55418   2.028   5.033   5.422 -0.0127 -1.0222  0.1488
  411MOL0     H55419   2.148   5.053   5.184  1.8845 -2.1630 -1.7921
  411MOL0     H55420   2.371   4.758   5.041  0.1351 -0.6535 -0.9394
  411MOL0     H55421   2.255   4.664   4.971  1.4808 -1.3597 -2.1245
  411MOL0     H55422   2.347   4.911   4.825 -6.6186  1.2397  0.2254
  411MOL0     H55423   2.415   4.743   4.794  0.4571 -0.3611  0.2425
  411MOL0     H55424   2.127   4.825   4.781  0.0433 -1.5031  0.9721
  411MOL0     H55425   2.249   4.829   4.648  1.7771 -0.0866  0.5592
  411MOL0     H55426   2.279   4.591   4.656  0.4554  2.2651  2.2168
  411MOL0     H55427   2.166   4.569   4.794 -0.0215  0.0569  0.2300
  411MOL0     H55428   1.972   4.617   4.666 -1.0167 -3.3942 -1.2623
  411MOL0     H55429   2.071   4.676   4.525 -0.7314 -1.1271 -1.0844
  411MOL0     H55430   2.125   4.476   4.455 -1.6376  0.7278 -0.6323
  411MOL0     H55431   2.094   4.385   4.604  0.0394 -0.7604 -1.7243
  411MOL0     H55432   1.854   4.386   4.535 -0.3975 -1.6701 -1.0148
  411MOL0     H55433   1.889   4.502   4.393  4.2445 -0.9089 -2.9586
  411MOL0     H55434   1.974   4.213   4.424 -1.3312 -2.5044 -4.0668
  411MOL0     H55435   2.025   4.302   4.290 -0.2155 -1.8679 -1.9386
  411MOL0     H55436   1.730   4.125   4.431 -1.9199 -0.0671 -0.3246
  411MOL0     H55437   1.540   4.052   4.151 -1.3038  0.1854 -1.3703
  411MOL0     H55438   1.497   4.038   4.317 -0.4088 -1.8082 -1.2135
  411MOL0     H55439   1.369   4.279   4.180 -0.5330 -0.1738 -3.2910
  411MOL0     H55440   1.295   4.165   4.287 -0.1509  3.8876 -0.0355
  411MOL0     H55441   1.389   4.118   3.986  0.6834 -0.6986  0.5649
  411MOL0     H55442   1.227   4.169   4.045 -2.9827 -1.7880  2.5575
  411MOL0     H55443   1.356   3.903   4.128  0.1057  0.4660 -0.3835
  411MOL0     H55444   1.267   3.911   3.971 -0.5769 -1.6616 -0.0241
  411MOL0     H55445   1.238   3.690   4.090 -0.0173  3.7644 -1.7673
  411MOL0     H55446   1.245   3.479   4.083  0.0594 -3.7806 -1.2172
  411MOL0     H55447   1.211   3.384   4.228  1.9511  0.7373 -0.0317
  411MOL0     H55448   1.092   3.388   4.095  0.1311  0.3341 -1.2135
  411MOL0     H55449   0.826   3.437   4.621 -1.5076  2.3897 -0.2287
  411MOL0     H55450   0.746   3.274   4.767  1.9276  0.1627 -0.7460
  411MOL0     H55451   0.672   3.097   4.861 -0.0714 -0.3281  1.6536
  411MOL0     H55452   0.519   3.191   4.878 -0.2845  0.8142 -3.7530
  411MOL0     H55453   0.397   2.999   4.939 -0.0995  0.9512 -1.2793
  411MOL0     H55454   0.460   2.910   4.815  1.6614 -1.1914  1.1914
  411MOL0     H55455   0.485   2.849   5.056 -1.0038 -1.1827 -1.6135
  411MOL0     H55456   0.618   2.969   5.065  0.3993  1.5330 -1.3779
  411MOL0     H55457   0.606   2.729   4.862  1.0417 -0.6179 -0.1916
  411MOL0     H55458   0.738   2.847   4.882 -1.0769  5.9728  3.8685
  411MOL0     H55459   0.642   2.643   5.090 -0.0115  0.1103  0.1401
  411MOL0     H55460   0.765   2.769   5.120 -1.6919  0.8552  0.3420
  411MOL0     H55461   0.768   2.535   4.913 -0.3791  1.8405  0.0698
  411MOL0     H55462   0.889   2.673   4.939 -0.5546  2.6228  1.9302
  411MOL0     H55463   0.963   2.449   5.044 -1.1324 -0.4001 -0.3666
  411MOL0     H55464   0.814   2.454   5.138 -0.9981 -0.9392 -3.0951
  411MOL0     H55465   0.878   2.625   5.267  0.0369 -1.4233  1.4989
  411MOL0     H55466   1.006   2.684   5.157  3.1522 -0.0364  1.7160
  411MOL0     H55467   0.469   3.148   4.449 -1.6340  1.9706  1.1708
  411MOL0     H55468   0.571   3.318   4.299 -1.1869  0.1089  0.2204
  411MOL0     H55469   0.864   3.705   4.404 -1.5041  1.2220 -2.0051
  411MOL0     H55470   0.971   3.918   4.304 -0.6087  0.9466 -5.4785
  411MOL0     H55471   2.157   4.630   5.179 -5.5157 -2.2247  2.5734
  411MOL0     H55472   2.039   4.619   5.383 -2.9255 -0.1369 -0.6280
  411MOL0     H55473   1.898   5.104   5.801  0.3269  0.0238 -0.2912
  411MOL0     H55474   1.691   5.098   5.928 -3.6585 -1.1400 -1.0384
  411MOL0     H55475   1.546   5.047   6.066  0.2298 -0.6017  0.1673
  411MOL0     H55476   1.420   5.009   5.946  1.0953 -3.2791 -2.7101
  411MOL0     H55477   1.447   4.920   6.234 -0.6525 -4.7700 -0.4820
  411MOL0     H55478   1.334   4.834   6.132  1.3957 -0.7927 -0.6971
  411MOL0     H55479   1.221   5.032   6.267  1.8969  0.1439  0.4531
  411MOL0     H55480   1.209   5.072   6.097  0.9910  1.8532 -0.8586
  411MOL0     H55481   1.261   5.237   6.259 -1.0467 -1.3871 -1.3802
  411MOL0     H55482   1.386   5.243   6.134 -0.2418  2.6528  0.7519
  411MOL0     H55483   1.558   5.117   6.515 -1.3389 -0.5000  0.7117
  411MOL0     H55484   1.661   4.669   5.868  2.9617 -1.0015  1.4392
  411MOL0     H55485   1.844   4.676   5.724 -4.2530  0.6595 -1.1285
  412MOL0     O55486   9.426   3.044   7.548 -0.6517  0.9282 -0.2654
  412MOL0     C55487   9.486   3.011   7.654 -0.1560  0.7430  0.2460
  412MOL0     O55488   9.431   2.932   7.752 -0.1949 -0.7799  0.2305
  412MOL0     C55489   9.291   2.917   7.740  0.8604 -0.6958 -0.5287
  412MOL0     C55490   9.227   2.800   7.761  0.2384 -0.2884  0.3342
  412MOL0     C55491   9.087   2.796   7.772 -0.8773 -0.2245  0.2288
  412MOL0     C55492   9.018   2.918   7.774 -0.4877 -0.0767 -0.5917
  412MOL0     O55493   8.885   2.914   7.806  0.5929 -0.8621  0.2283
  412MOL0     C55494   8.849   3.028   7.892 -0.4531 -0.0454  0.2670
  412MOL0     C55495   8.721   2.988   7.968  0.1154 -0.0299  0.0838
  412MOL0     C55496   8.605   2.979   7.874 -0.7882 -0.2007  0.6629
  412MOL0     C55497   8.490   2.955   7.954  0.5476 -0.2444 -0.3553
  412MOL0     C55498   8.357   2.912   7.879 -0.5390 -0.3476 -0.3478
  412MOL0     C55499   8.363   2.787   7.805  0.9359 -0.2347 -0.2709
  412MOL0     C55500   8.239   2.734   7.731  0.4055  0.2403 -0.8220
  412MOL0     C55501   8.191   2.830   7.620 -0.2543  0.8555  0.2216
  412MOL0     N55502   8.075   2.773   7.560 -0.3121 -0.3549  0.2288
  412MOL0     C55503   7.950   2.793   7.606 -0.6715  0.5157  0.3114
  412MOL0     C55504   7.863   2.735   7.515 -0.2049 -0.5421 -1.0369
  412MOL0     C55505   7.718   2.738   7.523 -0.1585  1.3657 -0.9058
  412MOL0     C55506   7.664   2.604   7.576 -0.1412  1.0440  0.4034
  412MOL0     C55507   7.689   2.580   7.721 -0.3964  0.5140 -0.2169
  412MOL0     C55508   7.654   2.434   7.766  0.1070  0.3201  0.8290
  412MOL0     O55509   7.681   2.422   7.907 -0.7034 -0.1328  0.1847
  412MOL0     C55510   7.621   2.332   7.990 -0.0006 -0.7392  0.1772
  412MOL0     C55511   7.559   2.222   7.946  0.0301  0.3941 -0.2197
  412MOL0     C55512   7.517   2.126   8.040  1.2342  0.5028 -0.5428
  412MOL0     C55513   7.444   2.004   7.985  0.5473  0.5602  0.6235
  412MOL0     C55514   7.539   2.138   8.171  0.2395  0.2022  0.3642
  412MOL0     C55515   7.504   2.032   8.265  0.3220  0.0405  0.1356
  412MOL0     O55516   7.604   1.950   8.310  0.2254 -0.0103  0.4941
  412MOL0     C55517   7.559   1.844   8.373 -0.1116 -0.1616  0.2397
  412MOL0     C55518   7.488   1.744   8.307  0.7540 -0.0086 -0.5594
  412MOL0     C55519   7.429   1.636   8.382 -1.1273  0.0401 -0.6635
  412MOL0     C55520   7.440   1.633   8.523 -0.4862 -0.4027 -0.3392
  412MOL0     O55521   7.360   1.573   8.603  0.1573 -0.1078  0.3685
  412MOL0     C55522   7.409   1.440   8.641  0.6897  0.3596 -0.4936
  412MOL0     C55523   7.504   1.462   8.762  0.4887 -0.6402 -0.3695
  412MOL0     C55524   7.540   1.353   8.863 -0.1310  0.0509 -0.2184
  412MOL0     C55525   7.579   1.222   8.786  0.4067 -0.3421  0.2694
  412MOL0     C55526   7.623   1.106   8.897 -0.4088  0.3467  0.5022
  412MOL0     C55527   7.736   1.016   8.840  0.1022  1.2342 -0.1844
  412MOL0     C55528   7.747   0.895   8.931 -0.8162  1.2484 -0.7629
  412MOL0     C55529   7.821   0.788   8.863 -1.7081 -0.2125  0.4753
  412MOL0    Cl55530   8.001   0.828   8.820 -0.7713  0.1728 -0.0936
  412MOL0     C55531   7.523   1.731   8.585 -0.3088 -0.4000 -0.2275
  412MOL0     C55532   7.586   1.836   8.510 -0.0470 -0.2891  0.2176
  412MOL0     O55533   7.388   2.021   8.301  0.2804 -1.1308 -0.6644
  412MOL0     C55534   7.613   2.253   8.219  0.2322 -0.1117 -1.1801
  412MOL0     C55535   7.642   2.350   8.126  0.2141 -0.5675 -0.0508
  412MOL0     N55536   7.945   2.680   7.420  0.4879 -0.2655  1.2402
  412MOL0     N55537   8.068   2.697   7.448 -0.4452 -0.7915 -0.0174
  412MOL0     C55538   9.091   3.039   7.756 -0.1678  0.7142  0.0578
  412MOL0     C55539   9.229   3.037   7.754  0.6622 -0.1552 -0.4237
  412MOL0     C55540   9.615   3.069   7.683 -1.1697  1.1893 -0.2025
  412MOL0     C55541   9.683   3.155   7.592 -0.1353  0.4623  0.1381
  412MOL0     C55542   9.807   3.198   7.605 -0.4334 -0.4160 -0.4659
  412MOL0     C55543   9.882   3.157   7.724  0.3639  0.1805  0.4298
  412MOL0     O55544  10.014   3.188   7.736 -0.2846 -0.5445  0.0433
  412MOL0     C55545  10.082   3.294   7.657 -0.5412  0.0350  0.0836
  412MOL0     C55546  10.234   3.278   7.679  0.1600 -0.0125 -0.4829
  412MOL0     C55547  10.297   3.152   7.621  0.5605  0.1011 -0.2267
  412MOL0     C55548  10.460   3.160   7.612  0.4850 -0.5368 -0.3404
  412MOL0     C55549  10.499   3.224   7.489  1.3358 -0.0345 -0.5106
  412MOL0     C55550  10.514   3.269   7.373  0.5074  0.6272  0.2039
  412MOL0     C55551   9.819   3.076   7.824 -0.5245 -0.3131 -0.0102
  412MOL0     C55552   9.687   3.035   7.802  0.3252  0.5898  1.0418
  412MOL0     H55553   9.285   2.711   7.780 -1.3983 -0.9258  2.8456
  412MOL0     H55554   9.028   2.706   7.790 -0.4261 -0.4847  0.4399
  412MOL0     H55555   8.925   3.054   7.966 -0.0692 -0.7361  0.1167
  412MOL0     H55556   8.831   3.122   7.837 -0.8705 -1.0111 -1.3240
  412MOL0     H55557   8.728   2.887   8.011 -0.9659 -0.6341 -1.0715
  412MOL0     H55558   8.693   3.051   8.052 -0.9615 -2.9777  2.1121
  412MOL0     H55559   8.607   3.065   7.806  2.6405 -1.2347 -0.7704
  412MOL0     H55560   8.629   2.901   7.800  4.2914  3.3060 -2.0217
  412MOL0     H55561   8.506   2.877   8.030 -0.9809  0.4727  0.7393
  412MOL0     H55562   8.473   3.054   7.997 -1.6618  0.2829 -2.2738
  412MOL0     H55563   8.272   2.907   7.948 -0.4501 -1.6660 -0.3186
  412MOL0     H55564   8.336   2.996   7.813  0.3400 -0.8328 -1.2601
  412MOL0     H55565   8.442   2.805   7.732  0.2836  1.5993 -0.5619
  412MOL0     H55566   8.401   2.719   7.882 -0.9488 -0.1872  0.7765
  412MOL0     H55567   8.274   2.636   7.697  2.2667  0.5710  0.0310
  412MOL0     H55568   8.163   2.738   7.810 -0.1068  2.5489 -1.3674
  412MOL0     H55569   8.270   2.826   7.544  1.2011  2.0138  1.5950
  412MOL0     H55570   8.169   2.930   7.661 -3.6008 -0.0147  0.8533
  412MOL0     H55571   7.927   2.845   7.698 -0.7045  0.6884  0.2055
  412MOL0     H55572   7.687   2.818   7.592 -0.0506  0.4571  0.2333
  412MOL0     H55573   7.668   2.767   7.430  1.9383  0.7320 -2.2871
  412MOL0     H55574   7.718   2.527   7.521 -0.2099 -0.6732  2.6308
  412MOL0     H55575   7.561   2.578   7.549  0.7160 -1.1512 -1.0569
  412MOL0     H55576   7.622   2.631   7.791 -1.7971 -3.6832  1.8676
  412MOL0     H55577   7.790   2.598   7.758 -1.2720  0.9299  2.1938
  412MOL0     H55578   7.722   2.363   7.717 -1.1798 -1.3744  1.4011
  412MOL0     H55579   7.556   2.397   7.735 -0.2164  2.0797 -0.3857
  412MOL0     H55580   7.529   2.200   7.844 -0.1155 -1.8105  0.2566
  412MOL0     H55581   7.340   2.026   8.011  0.6370  2.0287 -0.1240
  412MOL0     H55582   7.453   2.012   7.876  2.6599 -0.4292  0.6623
  412MOL0     H55583   7.484   1.913   8.030 -0.7626  1.1333  3.0988
  412MOL0     H55584   7.464   1.749   8.201 -1.0315 -0.5581 -0.2193
  412MOL0     H55585   7.374   1.555   8.334  0.6017 -1.4682 -0.2155
  412MOL0     H55586   7.324   1.382   8.677  0.5181  0.3121 -0.9670
  412MOL0     H55587   7.457   1.396   8.552  1.0139  2.7794 -1.6045
  412MOL0     H55588   7.592   1.509   8.716  0.3776 -0.1432 -0.0913
  412MOL0     H55589   7.467   1.540   8.829  0.9297 -0.2650 -0.5473
  412MOL0     H55590   7.451   1.335   8.924  0.1414 -1.6898 -0.2710
  412MOL0     H55591   7.615   1.380   8.937  1.8735 -3.7513 -0.5979
  412MOL0     H55592   7.496   1.174   8.734 -0.9429  1.5327  0.6134
  412MOL0     H55593   7.662   1.236   8.716  0.2333 -2.3116 -0.4075
  412MOL0     H55594   7.539   1.044   8.930 -0.4341 -0.5056 -1.0753
  412MOL0     H55595   7.655   1.156   8.989  2.4418  0.4184 -0.4452
  412MOL0     H55596   7.695   0.977   8.746 -3.4890  2.6256  0.6355
  412MOL0     H55597   7.823   1.079   8.822  0.4878  1.0368  0.9178
  412MOL0     H55598   7.650   0.845   8.945 -0.2223 -0.3643 -2.0253
  412MOL0     H55599   7.795   0.935   9.020  3.6459  0.6739 -2.6631
  412MOL0     H55600   7.767   0.768   8.770  1.5031  2.1534 -2.1578
  412MOL0     H55601   7.836   0.699   8.925  2.5440  0.2969  0.4365
  412MOL0     H55602   7.541   1.728   8.692  0.5051 -2.1763 -0.3715
  412MOL0     H55603   7.636   1.916   8.564  0.3857 -1.1791  1.1738
  412MOL0     H55604   7.634   2.260   8.325 -1.1318 -1.3572 -0.7905
  412MOL0     H55605   7.694   2.440   8.160 -0.2765  0.4422 -1.8370
  412MOL0     H55606   9.045   3.137   7.749 -1.6127 -0.0321 -1.3884
  412MOL0     H55607   9.277   3.134   7.755 -1.0963  0.8024  1.8254
  412MOL0     H55608   9.629   3.190   7.505  0.7943 -1.8502 -1.4626
  412MOL0     H55609   9.847   3.257   7.524  2.4786  0.1053  1.2231
  412MOL0     H55610  10.070   3.296   7.548  3.0496 -2.5671 -0.5622
  412MOL0     H55611  10.053   3.393   7.693  0.9728  0.6417 -0.2617
  412MOL0     H55612  10.249   3.283   7.787  0.2242  0.2718 -0.5053
  412MOL0     H55613  10.279   3.361   7.624 -0.0692 -0.4797 -1.3998
  412MOL0     H55614  10.247   3.135   7.525  1.1064 -2.1516 -0.1895
  412MOL0     H55615  10.281   3.083   7.704  0.8477  1.4548  0.9960
  412MOL0     H55616  10.514   3.065   7.612  1.5224  0.0089  1.3619
  412MOL0     H55617  10.509   3.212   7.694  0.4035  4.7554 -3.1950
  412MOL0     H55618  10.498   3.292   7.269 -2.2531 -1.5461  0.0313
  412MOL0     H55619   9.876   3.036   7.908 -0.8382 -0.2622  0.2292
  412MOL0     H55620   9.641   2.969   7.875 -1.7360 -0.8707 -1.4143
  413MOL0     O55621   4.367   1.788   4.948 -0.4756 -0.0109  0.3934
  413MOL0     C55622   4.396   1.786   5.068 -0.0476  0.0607 -1.0944
  413MOL0     O55623   4.340   1.700   5.160  0.3533 -0.3934  0.2282
  413MOL0     C55624   4.241   1.612   5.128  0.3776  0.5765 -1.3613
  413MOL0     C55625   4.126   1.597   5.210  0.1320  0.3431 -0.7094
  413MOL0     C55626   4.017   1.505   5.175  0.8345  0.0452 -0.1795
  413MOL0     C55627   4.031   1.428   5.063  0.1540 -0.3441 -0.1377
  413MOL0     O55628   3.928   1.337   5.037 -0.3427 -0.2434  0.1182
  413MOL0     C55629   3.951   1.221   4.951  0.8756  0.0190  0.2662
  413MOL0     C55630   3.996   1.101   5.025  0.0346 -0.2480 -0.2164
  413MOL0     C55631   4.144   1.097   5.072 -0.2980 -0.3547  0.3424
  413MOL0     C55632   4.239   1.075   4.949  0.5120 -0.3291 -0.0047
  413MOL0     C55633   4.388   1.059   4.970 -1.0041 -0.4558 -0.2431
  413MOL0     C55634   4.439   1.181   5.041 -0.1476 -0.3121 -0.3052
  413MOL0     C55635   4.583   1.172   5.068 -0.5826 -0.0996  0.0989
  413MOL0     C55636   4.614   1.081   5.186 -0.1837  0.2750 -0.4312
  413MOL0     N55637   4.752   1.085   5.227  0.3643 -0.0257  0.0428
  413MOL0     C55638   4.785   1.134   5.345 -0.5862 -0.4981 -0.1921
  413MOL0     C55639   4.923   1.127   5.344  0.5166  0.0184 -0.1545
  413MOL0     C55640   5.010   1.170   5.465 -0.2991  0.2436 -0.1228
  413MOL0     C55641   5.086   1.056   5.533 -0.7033  0.5266 -0.1758
  413MOL0     C55642   5.153   1.110   5.661  1.0141 -0.9615 -0.8255
  413MOL0     C55643   5.247   1.016   5.718  0.4558  0.2682 -0.0048
  413MOL0     O55644   5.357   0.971   5.637 -0.2373 -0.6758  0.2119
  413MOL0     C55645   5.479   1.034   5.639  0.4501  0.2546  0.2609
  413MOL0     C55646   5.587   0.972   5.573 -0.0799 -0.8544 -0.6879
  413MOL0     C55647   5.724   1.035   5.566  0.5344 -0.8775 -0.0567
  413MOL0     C55648   5.840   0.962   5.500 -1.0139 -0.1685  0.5006
  413MOL0     C55649   5.731   1.175   5.622  0.3955 -0.0988  0.4202
  413MOL0     C55650   5.849   1.266   5.603 -0.7601  0.9287  0.0974
  413MOL0     O55651   5.961   1.216   5.542 -0.7941  0.1972  0.0402
  413MOL0     C55652   6.064   1.298   5.504 -1.0395  0.2139 -0.1071
  413MOL0     C55653   6.175   1.223   5.471 -0.1700 -0.1445  1.3888
  413MOL0     C55654   6.295   1.282   5.409  1.3658  0.2419  0.0450
  413MOL0     C55655   6.297   1.426   5.399  0.0030  0.2294 -0.0718
  413MOL0     O55656   6.409   1.499   5.356  0.1646 -0.0431  0.2375
  413MOL0     C55657   6.523   1.433   5.305  0.5546  0.6733 -0.8775
  413MOL0     C55658   6.633   1.536   5.304 -0.6023  0.7154 -0.2787
  413MOL0     C55659   6.754   1.482   5.218  0.2500  0.2774  0.5033
  413MOL0     C55660   6.855   1.595   5.213  0.2687 -0.4269  0.1012
  413MOL0     C55661   6.993   1.548   5.173 -0.0604 -0.6360  0.2302
  413MOL0     C55662   7.011   1.545   5.020  0.3894  0.0501 -0.6994
  413MOL0     C55663   7.154   1.496   4.993  0.2078  0.4526  0.1822
  413MOL0     C55664   7.177   1.466   4.846 -0.0529 -0.0832  0.1151
  413MOL0    Cl55665   7.086   1.328   4.772  0.6075 -0.2572  0.1363
  413MOL0     C55666   6.186   1.496   5.431  1.4701  0.6256 -0.5886
  413MOL0     C55667   6.073   1.434   5.483  0.0955 -0.7643 -1.3425
  413MOL0     O55668   5.839   1.379   5.650 -0.1938  0.0653  0.2540
  413MOL0     C55669   5.624   1.226   5.692  0.5603  0.1446  0.1942
  413MOL0     C55670   5.500   1.161   5.690 -0.0395 -0.6679 -0.4245
  413MOL0     N55671   4.956   1.063   5.227  0.2343 -0.7524  0.3246
  413MOL0     N55672   4.857   1.035   5.163 -0.6070 -0.7516  0.0972
  413MOL0     C55673   4.154   1.432   4.996 -0.0570 -0.1716  0.2940
  413MOL0     C55674   4.261   1.521   5.029 -0.4743 -0.6483  1.0342
  413MOL0     C55675   4.486   1.880   5.137 -0.4401  0.3389 -0.3700
  413MOL0     C55676   4.492   1.899   5.277  0.5572  0.4235  0.5648
  413MOL0     C55677   4.588   1.972   5.331  0.3124 -0.0638 -0.3582
  413MOL0     C55678   4.676   2.046   5.261 -0.6213  0.1051  0.3733
  413MOL0     O55679   4.788   2.099   5.314 -0.4666  0.3964 -0.8131
  413MOL0     C55680   4.807   2.095   5.450 -0.4121 -0.3033  0.0892
  413MOL0     C55681   4.854   1.963   5.515  0.0825  0.5553  0.6869
  413MOL0     C55682   5.005   1.933   5.476 -0.3943  0.6785 -0.7651
  413MOL0     C55683   5.072   1.831   5.579 -0.5100 -0.7085 -0.7731
  413MOL0     C55684   4.990   1.723   5.631 -0.6080  0.2074 -0.1011
  413MOL0     C55685   4.930   1.635   5.689 -0.7181  0.3116  1.3463
  413MOL0     C55686   4.665   2.048   5.129 -0.1159  0.3702  1.3151
  413MOL0     C55687   4.580   1.962   5.063  0.9386  0.0461 -0.0227
  413MOL0     H55688   4.129   1.667   5.292  1.8254  0.4236 -0.7971
  413MOL0     H55689   3.933   1.513   5.243  1.4124  2.0013  0.3660
  413MOL0     H55690   3.851   1.186   4.922 -0.5500  1.0494  3.4985
  413MOL0     H55691   4.003   1.254   4.861 -2.8185  2.1971 -1.3007
  413MOL0     H55692   3.933   1.095   5.114 -2.1294  1.4032 -1.5601
  413MOL0     H55693   3.974   1.013   4.964 -1.1821 -1.8016  2.2950
  413MOL0     H55694   4.150   1.188   5.132  0.8830 -0.6985  0.7747
  413MOL0     H55695   4.167   1.012   5.138 -2.7429  0.4730  2.4227
  413MOL0     H55696   4.218   0.972   4.915 -0.6945 -0.6917  1.7116
  413MOL0     H55697   4.213   1.139   4.864 -0.2323 -1.9951 -1.0951
  413MOL0     H55698   4.396   0.965   5.025 -0.9497 -1.8944 -2.6054
  413MOL0     H55699   4.454   1.047   4.884  2.0732  0.1418  1.8700
  413MOL0     H55700   4.414   1.269   4.982  0.2263  1.4191  1.9570
  413MOL0     H55701   4.391   1.204   5.137 -0.9774 -2.6313 -0.1143
  413MOL0     H55702   4.633   1.143   4.974 -1.3379  0.1749 -0.3952
  413MOL0     H55703   4.633   1.268   5.080 -0.2749 -0.5161  2.5945
  413MOL0     H55704   4.596   0.980   5.148 -0.8565  1.3307 -3.1528
  413MOL0     H55705   4.549   1.105   5.270  0.1688  1.3520 -0.4517
  413MOL0     H55706   4.721   1.179   5.420  0.1430  0.6000 -0.2061
  413MOL0     H55707   5.081   1.248   5.436 -1.7042  1.7191  0.2580
  413MOL0     H55708   4.940   1.209   5.539 -0.0488 -2.6007  1.8044
  413MOL0     H55709   5.162   1.024   5.461  1.8244  2.9262  1.2301
  413MOL0     H55710   5.022   0.972   5.562  0.7442 -1.9631 -3.5136
  413MOL0     H55711   5.073   1.126   5.733 -0.4009 -1.4151 -2.2523
  413MOL0     H55712   5.194   1.209   5.639 -2.0879  0.3451 -1.1695
  413MOL0     H55713   5.193   0.923   5.736  1.2815 -0.5845 -1.6861
  413MOL0     H55714   5.284   1.048   5.815  0.4443 -3.7249  1.5108
  413MOL0     H55715   5.575   0.878   5.521 -0.9705  0.0570 -2.2300
  413MOL0     H55716   5.920   0.924   5.563  0.4957 -1.7455 -2.1661
  413MOL0     H55717   5.794   0.872   5.460 -0.4286 -0.2014 -0.1259
  413MOL0     H55718   5.880   1.026   5.420 -2.7091 -1.4212 -1.4448
  413MOL0     H55719   6.183   1.115   5.480 -2.2027 -0.4536  0.0542
  413MOL0     H55720   6.375   1.218   5.372  1.9945  0.6468  0.6830
  413MOL0     H55721   6.558   1.353   5.371  3.6936  1.3947 -1.5220
  413MOL0     H55722   6.501   1.394   5.206 -2.2221 -0.9178  0.2451
  413MOL0     H55723   6.585   1.610   5.240 -1.8480 -0.9046 -1.3150
  413MOL0     H55724   6.655   1.579   5.402 -2.2402  1.2963 -0.1513
  413MOL0     H55725   6.723   1.459   5.116  4.1416  3.6000 -1.7260
  413MOL0     H55726   6.798   1.391   5.260 -3.1162 -1.0293  1.5600
  413MOL0     H55727   6.826   1.677   5.146 -2.8117 -1.8560 -0.4833
  413MOL0     H55728   6.876   1.637   5.312  1.8517 -1.9752  0.4779
  413MOL0     H55729   7.006   1.451   5.222 -0.8999 -1.0660 -0.3628
  413MOL0     H55730   7.064   1.621   5.211 -0.5346  0.0446 -0.1763
  413MOL0     H55731   6.936   1.475   4.982 -3.3085  2.0406  2.1982
  413MOL0     H55732   6.990   1.650   5.000  0.9312  0.5196  1.0145
  413MOL0     H55733   7.176   1.407   5.053 -1.2563  2.1373  3.4871
  413MOL0     H55734   7.230   1.572   5.012  1.3685 -0.0477 -2.1317
  413MOL0     H55735   7.282   1.436   4.849 -0.0597 -0.1955 -0.6050
  413MOL0     H55736   7.169   1.553   4.780  0.2451 -1.7951 -2.3038
  413MOL0     H55737   6.187   1.602   5.405  2.3243  0.0890 -2.9671
  413MOL0     H55738   5.986   1.495   5.504  1.7390  0.9762  0.8410
  413MOL0     H55739   5.625   1.327   5.732  2.1336  1.4238 -2.7214
  413MOL0     H55740   5.414   1.205   5.740  1.2423  1.1294  0.3108
  413MOL0     H55741   4.174   1.365   4.913  0.5007 -0.6108  0.7722
  413MOL0     H55742   4.353   1.511   4.973 -0.8528  1.3533 -0.0328
  413MOL0     H55743   4.422   1.850   5.343  0.6776 -2.5912 -1.3796
  413MOL0     H55744   4.587   1.969   5.439 -3.7078  0.7121 -0.2049
  413MOL0     H55745   4.880   2.174   5.471 -0.1448  0.4335 -3.1646
  413MOL0     H55746   4.718   2.126   5.505  0.9989 -0.5825  2.7042
  413MOL0     H55747   4.783   1.881   5.495  1.3027 -0.5520  0.7469
  413MOL0     H55748   4.854   1.989   5.621  1.1233  0.2629  0.7745
  413MOL0     H55749   5.064   2.025   5.484 -0.1815  0.3773  4.1574
  413MOL0     H55750   5.000   1.887   5.377 -2.5494  1.8486 -1.2850
  413MOL0     H55751   5.101   1.881   5.672  0.2839 -3.9711  0.8825
  413MOL0     H55752   5.163   1.789   5.534 -0.9348 -0.5045 -1.8605
  413MOL0     H55753   4.872   1.562   5.743 -0.0921 -0.7746  0.6010
  413MOL0     H55754   4.735   2.102   5.066 -1.6565 -0.3262 -1.1498
  413MOL0     H55755   4.559   1.967   4.956 -2.6097 -3.2564  0.3021
  414MOL0     O55756   8.319   1.402   5.188 -0.6349  0.5600  0.3348
  414MOL0     C55757   8.237   1.491   5.167 -0.1929 -0.0179  1.1249
  414MOL0     O55758   8.117   1.499   5.223  0.3526 -0.1289 -0.5908
  414MOL0     C55759   8.082   1.403   5.318 -0.1314 -0.1926  0.6100
  414MOL0     C55760   8.043   1.461   5.437 -0.2052 -0.4303 -0.8571
  414MOL0     C55761   7.987   1.381   5.546  0.2927 -1.3909  0.3007
  414MOL0     C55762   7.972   1.243   5.529  0.5149  0.3558 -0.7160
  414MOL0     O55763   7.926   1.165   5.633  0.4121  0.5996  1.0874
  414MOL0     C55764   7.907   1.024   5.627 -0.3899  0.1140 -0.7731
  414MOL0     C55765   7.836   0.985   5.755  1.0526  0.4673  0.0825
  414MOL0     C55766   7.807   0.842   5.748 -0.1151  0.0572 -0.3189
  414MOL0     C55767   7.753   0.782   5.877  0.2773 -0.3841  0.1919
  414MOL0     C55768   7.827   0.835   6.008  0.3967 -1.2913 -1.0715
  414MOL0     C55769   7.804   0.728   6.121  1.3019  0.0198  1.4359
  414MOL0     C55770   7.652   0.719   6.154 -0.3761  0.9011 -0.2528
  414MOL0     C55771   7.622   0.631   6.286 -0.4658 -0.4325 -0.2200
  414MOL0     N55772   7.650   0.704   6.416 -0.0270 -0.0173  0.5170
  414MOL0     C55773   7.572   0.818   6.454 -1.4291  0.4462 -0.4542
  414MOL0     C55774   7.651   0.876   6.544  0.2453  1.2902  0.9855
  414MOL0     C55775   7.621   1.013   6.596 -0.9428 -0.2495 -0.1656
  414MOL0     C55776   7.638   1.121   6.485 -0.1812 -0.1296  0.4680
  414MOL0     C55777   7.766   1.122   6.397 -0.8864  0.2336 -0.0890
  414MOL0     C55778   7.903   1.115   6.475  1.0866 -0.7316 -0.4776
  414MOL0     O55779   8.014   1.139   6.396 -0.0680  0.5562 -0.4315
  414MOL0     C55780   8.070   1.043   6.311  1.0904 -0.3555  0.1223
  414MOL0     C55781   8.156   1.102   6.220 -1.2106  0.6141 -0.0701
  414MOL0     C55782   8.231   1.022   6.131 -0.6155  0.9443  0.3536
  414MOL0     C55783   8.344   1.093   6.065  0.0703 -0.0108 -0.1721
  414MOL0     C55784   8.208   0.885   6.116  0.1226 -0.2060 -0.8839
  414MOL0     C55785   8.244   0.811   5.998  0.2411 -0.6254  0.1829
  414MOL0     O55786   8.194   0.685   5.988  0.0927 -0.4398 -0.4975
  414MOL0     C55787   8.214   0.602   5.885  0.1175  0.2494 -0.1202
  414MOL0     C55788   8.342   0.553   5.867  1.2183  1.1346 -0.3038
  414MOL0     C55789   8.368   0.487   5.747 -1.2289  0.1133  0.7138
  414MOL0     C55790   8.267   0.461   5.654 -0.4259  0.0060  0.1222
  414MOL0     O55791   8.306   0.394   5.540 -1.0743  0.6314 -0.3194
  414MOL0     C55792   8.238   0.425   5.419  0.2758  0.9024  0.3924
  414MOL0     C55793   8.328   0.382   5.307 -0.8829  0.2078 -0.0243
  414MOL0     C55794   8.359   0.240   5.278 -0.4005  0.5657  0.2840
  414MOL0     C55795   8.228   0.172   5.234  0.8242  0.4914 -0.2718
  414MOL0     C55796   8.236   0.017   5.236  1.3492  0.0578  0.3337
  414MOL0     C55797   8.102  -0.050   5.202 -0.4655  0.7780 -0.4774
  414MOL0     C55798   8.129  -0.206   5.185  0.2631 -0.3519  0.4571
  414MOL0     C55799   8.003  -0.276   5.113  0.0462 -1.1817  0.0751
  414MOL0    Cl55800   8.027  -0.443   5.050  0.5519  0.2424  0.4281
  414MOL0     C55801   8.137   0.502   5.686 -0.1318 -0.5013  1.2909
  414MOL0     C55802   8.112   0.571   5.794 -0.3594  0.4336  0.0631
  414MOL0     O55803   8.331   0.854   5.914  0.1816 -0.0977 -0.1449
  414MOL0     C55804   8.121   0.831   6.213 -0.2955 -0.8358  0.5818
  414MOL0     C55805   8.050   0.902   6.312 -0.6860  0.6222 -0.5111
  414MOL0     N55806   7.766   0.791   6.566 -0.2017 -0.3433 -0.4644
  414MOL0     N55807   7.771   0.696   6.478  0.1068 -0.7450 -0.0939
  414MOL0     C55808   8.018   1.184   5.414 -0.4417  0.1271  0.5942
  414MOL0     C55809   8.064   1.264   5.306  0.7000  0.4644  0.4161
  414MOL0     C55810   8.285   1.594   5.069 -0.0121 -0.0479 -0.3285
  414MOL0     C55811   8.384   1.567   4.969  0.7407 -0.5704  0.0257
  414MOL0     C55812   8.425   1.660   4.874 -0.9360  0.2537 -0.4420
  414MOL0     C55813   8.365   1.789   4.878  0.2832  1.3041  0.1887
  414MOL0     O55814   8.401   1.881   4.780  0.1912 -0.5792 -0.8185
  414MOL0     C55815   8.323   1.994   4.747  0.2152  0.3430 -0.6802
  414MOL0     C55816   8.237   1.976   4.621  0.2630  0.0395  0.2177
  414MOL0     C55817   8.109   1.893   4.644 -0.6851 -0.4415  0.1366
  414MOL0     C55818   8.034   1.872   4.508 -0.0169 -0.4145  0.2041
  414MOL0     C55819   7.971   1.988   4.444  0.3913 -0.2418  1.5022
  414MOL0     C55820   7.936   2.087   4.377 -0.2539  0.0654  0.3373
  414MOL0     C55821   8.272   1.821   4.977  0.7230  0.9934 -0.5178
  414MOL0     C55822   8.245   1.728   5.086 -0.4546  0.5350 -0.4323
  414MOL0     H55823   8.066   1.564   5.461 -0.6364 -0.1961 -1.4410
  414MOL0     H55824   7.942   1.424   5.635 -0.5785  2.5319 -1.8473
  414MOL0     H55825   7.844   1.003   5.540 -3.3159  1.2123  0.9394
  414MOL0     H55826   8.005   0.976   5.616 -0.3582  0.5452 -2.7289
  414MOL0     H55827   7.897   1.010   5.842  0.5046 -0.6055  0.7772
  414MOL0     H55828   7.735   1.026   5.753 -0.9747 -3.9259  1.0430
  414MOL0     H55829   7.746   0.814   5.661 -2.6215  0.9420  1.0463
  414MOL0     H55830   7.909   0.801   5.746  0.1166  0.2294  3.0010
  414MOL0     H55831   7.645   0.790   5.890  0.3634  0.2529  0.5362
  414MOL0     H55832   7.769   0.674   5.869 -1.2621 -0.5788 -0.7157
  414MOL0     H55833   7.934   0.843   5.985  0.3767  0.7587 -0.6821
  414MOL0     H55834   7.784   0.929   6.044 -0.7562 -1.4677 -1.9533
  414MOL0     H55835   7.837   0.628   6.093 -0.5105  0.1288 -1.3807
  414MOL0     H55836   7.855   0.754   6.215 -0.5424  0.9080  2.2433
  414MOL0     H55837   7.603   0.815   6.172 -1.6829  0.4493 -1.2772
  414MOL0     H55838   7.590   0.682   6.072 -0.4271 -0.3256  0.3109
  414MOL0     H55839   7.693   0.548   6.286  2.7119  2.0895 -0.7255
  414MOL0     H55840   7.521   0.589   6.284  0.3111 -2.4281  0.2559
  414MOL0     H55841   7.479   0.859   6.416 -0.9635 -0.0277 -2.1915
  414MOL0     H55842   7.531   1.031   6.656  0.8345  1.5127  2.1977
  414MOL0     H55843   7.704   1.017   6.667  1.0164  0.9721 -2.3572
  414MOL0     H55844   7.616   1.217   6.532 -1.7142 -1.7661  3.4692
  414MOL0     H55845   7.552   1.115   6.418  2.2080  1.6506 -3.0613
  414MOL0     H55846   7.770   1.222   6.353  2.5998  0.4611  0.4574
  414MOL0     H55847   7.758   1.047   6.318 -2.1619 -1.1706  1.2952
  414MOL0     H55848   7.917   1.022   6.531 -2.1853 -0.4248  1.0993
  414MOL0     H55849   7.904   1.200   6.544 -2.6114 -1.0094  0.1199
  414MOL0     H55850   8.164   1.210   6.222 -4.2790  0.9180  1.8137
  414MOL0     H55851   8.323   1.140   5.969  1.1212  1.5894  0.3330
  414MOL0     H55852   8.367   1.177   6.131 -3.5474 -1.3137  3.1508
  414MOL0     H55853   8.436   1.034   6.061  0.5915  0.8868 -2.3189
  414MOL0     H55854   8.416   0.578   5.942 -0.5838 -1.5999  2.6821
  414MOL0     H55855   8.471   0.460   5.725 -1.0131  1.4157  0.0759
  414MOL0     H55856   8.140   0.376   5.424 -0.8083  3.0874  3.1512
  414MOL0     H55857   8.224   0.532   5.406 -1.8621  0.6127  0.0821
  414MOL0     H55858   8.285   0.420   5.214  1.1494  2.7161 -0.0685
  414MOL0     H55859   8.420   0.439   5.321 -1.3722  0.7636  1.1092
  414MOL0     H55860   8.422   0.194   5.355  0.0892  1.1043  0.2104
  414MOL0     H55861   8.422   0.247   5.190 -1.8000  0.3399 -0.7741
  414MOL0     H55862   8.159   0.195   5.316 -2.8628 -1.2821 -2.6177
  414MOL0     H55863   8.180   0.211   5.144  1.4637 -0.8272 -1.2224
  414MOL0     H55864   8.270  -0.032   5.328  1.3288  2.7554  1.8705
  414MOL0     H55865   8.317  -0.009   5.167  2.2269 -0.5424  1.5389
  414MOL0     H55866   8.023  -0.035   5.277 -1.1704  4.5922 -1.8115
  414MOL0     H55867   8.056  -0.021   5.108 -1.5242  1.1788  0.1431
  414MOL0     H55868   8.156  -0.251   5.281 -0.0592 -1.7426 -0.0857
  414MOL0     H55869   8.203  -0.219   5.105 -2.1230 -3.7913 -1.4457
  414MOL0     H55870   7.968  -0.218   5.026 -3.4963 -1.7468  0.9789
  414MOL0     H55871   7.913  -0.285   5.174 -1.3341 -0.9011 -1.8201
  414MOL0     H55872   8.063   0.478   5.610  0.7081 -0.0767  0.3045
  414MOL0     H55873   8.014   0.608   5.821 -1.3823 -1.0330 -1.4862
  414MOL0     H55874   8.106   0.725   6.197  1.9648 -1.4164  1.7573
  414MOL0     H55875   7.985   0.855   6.385 -1.3541  0.2191 -1.3520
  414MOL0     H55876   8.020   1.077   5.398 -0.5858  0.2420 -0.2690
  414MOL0     H55877   8.101   1.217   5.216 -2.2079  2.5996 -2.0869
  414MOL0     H55878   8.424   1.466   4.959  2.8013 -0.0785  2.3161
  414MOL0     H55879   8.494   1.637   4.793 -0.2356 -1.3427  0.5497
  414MOL0     H55880   8.253   2.033   4.822 -0.0953  0.1320 -0.8622
  414MOL0     H55881   8.398   2.073   4.732  1.4789 -0.6062  0.3834
  414MOL0     H55882   8.293   1.937   4.535 -0.0507  0.0733 -0.0046
  414MOL0     H55883   8.213   2.072   4.574  2.1840 -0.0406 -1.0799
  414MOL0     H55884   8.056   1.931   4.731  1.5519  0.4245  1.2030
  414MOL0     H55885   8.148   1.794   4.668  2.2137  1.1768  2.9039
  414MOL0     H55886   7.957   1.794   4.510  0.3858 -1.0174 -2.7633
  414MOL0     H55887   8.115   1.839   4.443  0.9458  2.0442  0.0476
  414MOL0     H55888   7.904   2.177   4.329 -3.9446 -0.1400  2.0556
  414MOL0     H55889   8.220   1.916   4.976  2.9592  2.3007 -0.0209
  414MOL0     H55890   8.182   1.759   5.169  0.4663 -0.6992  0.7505
  415MOL0     O55891  11.370   7.722   8.870  0.7218  0.5448  0.2022
  415MOL0     C55892  11.379   7.835   8.917 -0.4690 -0.0694  0.3501
  415MOL0     O55893  11.289   7.888   9.003 -0.1035  0.2976  0.1642
  415MOL0     C55894  11.208   7.817   9.083  0.8441 -1.3589 -0.1400
  415MOL0     C55895  11.118   7.900   9.146  0.2437 -0.5424  0.2944
  415MOL0     C55896  11.026   7.851   9.243 -0.8481  0.2102  0.4441
  415MOL0     C55897  11.005   7.712   9.246 -0.9207 -0.1053 -0.2699
  415MOL0     O55898  10.925   7.656   9.335 -0.2394  0.2902 -0.0269
  415MOL0     C55899  10.794   7.624   9.266 -1.0852  0.1343  0.6083
  415MOL0     C55900  10.689   7.593   9.361  0.3936  0.3666  0.4189
  415MOL0     C55901  10.722   7.485   9.464  0.2245 -0.4637 -0.2388
  415MOL0     C55902  10.754   7.349   9.397  0.5840 -0.4244  0.1309
  415MOL0     C55903  10.775   7.232   9.493 -0.2756  0.5802 -0.0583
  415MOL0     C55904  10.807   7.102   9.414 -0.1631 -0.6094  0.1656
  415MOL0     C55905  10.746   6.973   9.464 -0.4440 -0.2742  0.0459
  415MOL0     C55906  10.777   6.863   9.372 -0.1086 -0.3654 -0.4011
  415MOL0     N55907  10.695   6.880   9.252  0.0745 -0.4221  0.2475
  415MOL0     C55908  10.559   6.899   9.243  0.0310  0.2639 -0.6257
  415MOL0     C55909  10.529   6.890   9.114 -0.4469 -0.0744 -1.0874
  415MOL0     C55910  10.379   6.867   9.071  0.9606  0.6316  0.2808
  415MOL0     C55911  10.360   6.799   8.932  0.2127 -0.6329 -0.1228
  415MOL0     C55912  10.203   6.786   8.921 -0.1942  0.2826 -0.0768
  415MOL0     C55913  10.156   6.767   8.777  0.4914  0.0150 -0.9291
  415MOL0     O55914  10.248   6.726   8.677  0.2740  0.0573 -0.1043
  415MOL0     C55915  10.210   6.694   8.552  0.4632 -0.2422  0.3305
  415MOL0     C55916  10.122   6.764   8.478  0.5828 -0.5871  0.0987
  415MOL0     C55917  10.107   6.734   8.338 -0.2010 -0.3406 -0.0412
  415MOL0     C55918  10.013   6.830   8.262 -0.1034  0.7948  0.5224
  415MOL0     C55919  10.182   6.626   8.277  0.3795 -0.5452  0.3096
  415MOL0     C55920  10.161   6.569   8.149 -0.2008 -0.1034  1.4612
  415MOL0     O55921  10.281   6.533   8.084 -0.5717 -0.8507  0.5233
  415MOL0     C55922  10.265   6.507   7.957  0.5387  0.5044  0.1613
  415MOL0     C55923  10.237   6.373   7.923  0.5094  0.5129 -0.0143
  415MOL0     C55924  10.225   6.347   7.788  0.3372 -0.8497 -0.1135
  415MOL0     C55925  10.262   6.438   7.688  0.2167 -0.5950  0.2232
  415MOL0     O55926  10.249   6.391   7.564  0.0983  0.5892 -0.0917
  415MOL0     C55927  10.325   6.457   7.464  0.1056  0.4607 -0.2184
  415MOL0     C55928  10.292   6.409   7.331  0.0173  0.3376 -0.0402
  415MOL0     C55929  10.143   6.409   7.305  0.2497  0.4827  0.5736
  415MOL0     C55930  10.060   6.534   7.332  0.0152  0.5639  0.2646
  415MOL0     C55931   9.927   6.534   7.255  0.6476 -0.2620  0.0061
  415MOL0     C55932   9.849   6.665   7.259 -0.1880 -0.5039 -1.5124
  415MOL0     C55933   9.773   6.673   7.392 -0.1096  0.1499  0.4620
  415MOL0     C55934   9.672   6.786   7.395 -0.5286  0.8245 -0.3935
  415MOL0    Cl55935   9.505   6.715   7.437  0.0638  0.1501 -0.0091
  415MOL0     C55936  10.294   6.571   7.723 -0.4147  0.4815  0.1100
  415MOL0     C55937  10.297   6.601   7.863  0.1693  0.4510 -0.0312
  415MOL0     O55938  10.048   6.578   8.092 -0.4354 -1.0853  0.1247
  415MOL0     C55939  10.279   6.564   8.358 -0.2387  0.4768 -0.4909
  415MOL0     C55940  10.290   6.597   8.496  0.5878  1.0735  0.5248
  415MOL0     N55941  10.640   6.855   9.044 -0.2047 -0.1089 -0.6026
  415MOL0     N55942  10.739   6.850   9.125  0.6850 -0.1210 -1.2001
  415MOL0     C55943  11.097   7.629   9.174  0.3899 -0.0091 -0.4297
  415MOL0     C55944  11.205   7.678   9.099 -0.2163 -0.6013 -0.1535
  415MOL0     C55945  11.503   7.901   8.873 -0.3021 -0.2418  0.3938
  415MOL0     C55946  11.537   8.021   8.939  0.3809  0.3754  0.1761
  415MOL0     C55947  11.631   8.109   8.875  0.3323  0.3834 -0.9105
  415MOL0     C55948  11.705   8.065   8.773  0.1898  0.1423  0.5681
  415MOL0     O55949  11.818   8.145   8.740 -0.1178 -0.6117 -0.4699
  415MOL0     C55950  11.788   8.242   8.633 -0.3808  0.0743  0.8858
  415MOL0     C55951  11.921   8.324   8.608 -0.6859 -0.9151  0.4139
  415MOL0     C55952  11.894   8.457   8.534  0.7302  0.2858  0.3664
  415MOL0     C55953  12.008   8.555   8.546 -0.6471  0.8205 -0.0952
  415MOL0     C55954  11.968   8.660   8.457 -0.4698  0.7907  0.7602
  415MOL0     C55955  11.947   8.750   8.386 -0.2196  0.5913  0.2201
  415MOL0     C55956  11.692   7.939   8.723 -0.5411 -0.5437 -0.0000
  415MOL0     C55957  11.586   7.855   8.768 -0.0618 -0.7463 -0.0719
  415MOL0     H55958  11.134   8.008   9.145 -1.0822 -0.3136 -1.8042
  415MOL0     H55959  10.966   7.921   9.300  0.6665  0.1619  2.1944
  415MOL0     H55960  10.769   7.714   9.209  0.9150  0.7523  0.6408
  415MOL0     H55961  10.805   7.541   9.195  0.1805  0.3653  0.5138
  415MOL0     H55962  10.653   7.678   9.419  0.1223  0.2478  0.4316
  415MOL0     H55963  10.597   7.568   9.306  1.4447  2.4024 -2.5398
  415MOL0     H55964  10.811   7.519   9.519  1.0112 -1.8670 -0.6051
  415MOL0     H55965  10.644   7.470   9.538  0.7426 -0.7976  0.2513
  415MOL0     H55966  10.683   7.320   9.318  2.0784 -2.2121 -0.6364
  415MOL0     H55967  10.848   7.350   9.340  1.2710 -3.4028  1.0474
  415MOL0     H55968  10.840   7.267   9.574 -1.2751 -1.7063  1.8524
  415MOL0     H55969  10.680   7.211   9.544  2.4261 -0.3560  5.2769
  415MOL0     H55970  10.786   7.113   9.307 -1.4868 -4.1389 -0.0895
  415MOL0     H55971  10.914   7.082   9.412 -0.0967 -0.2184 -0.0906
  415MOL0     H55972  10.773   6.957   9.569 -1.8616  3.3080  1.1245
  415MOL0     H55973  10.639   6.988   9.478 -0.5683  0.8030 -1.7468
  415MOL0     H55974  10.735   6.779   9.429 -3.8872  3.1613  2.6122
  415MOL0     H55975  10.882   6.851   9.345  0.2267 -0.3024  0.8310
  415MOL0     H55976  10.487   6.893   9.324  1.5842  0.8741  0.8513
  415MOL0     H55977  10.339   6.797   9.144 -0.5967 -1.8480 -2.7265
  415MOL0     H55978  10.309   6.950   9.063  0.0162 -0.3244 -2.5369
  415MOL0     H55979  10.412   6.703   8.926  0.4243 -0.4387 -1.8998
  415MOL0     H55980  10.395   6.852   8.843 -1.1800  0.9478  0.2247
  415MOL0     H55981  10.154   6.873   8.965 -1.8284 -0.2432 -0.8011
  415MOL0     H55982  10.181   6.690   8.968  1.5774  1.0777  2.5595
  415MOL0     H55983  10.101   6.856   8.744  0.2869  0.4397  0.4796
  415MOL0     H55984  10.069   6.701   8.784 -0.8848  1.9373  1.8905
  415MOL0     H55985  10.083   6.857   8.518  0.4809  0.1115 -1.5196
  415MOL0     H55986  10.063   6.897   8.193 -2.9064  1.2007 -1.2776
  415MOL0     H55987   9.949   6.780   8.189 -1.0104  4.1511 -1.1507
  415MOL0     H55988   9.954   6.886   8.335  0.7393  1.3995  0.7475
  415MOL0     H55989  10.208   6.307   8.004  0.6595 -0.5490 -0.8131
  415MOL0     H55990  10.205   6.245   7.757  3.0734 -1.2987 -0.6784
  415MOL0     H55991  10.290   6.560   7.467 -3.7112 -0.6849  0.3468
  415MOL0     H55992  10.433   6.439   7.469 -0.3455 -2.5099  1.9407
  415MOL0     H55993  10.339   6.465   7.250 -1.8500  0.7542 -0.8876
  415MOL0     H55994  10.322   6.304   7.325  0.0426  0.4131 -2.1982
  415MOL0     H55995  10.090   6.336   7.367  1.1554 -0.2999  0.4631
  415MOL0     H55996  10.126   6.373   7.203  0.9151 -2.8578  1.5051
  415MOL0     H55997  10.034   6.545   7.438 -4.1366 -0.3850 -0.4780
  415MOL0     H55998  10.111   6.629   7.315  1.4535  0.3068  2.7382
  415MOL0     H55999   9.869   6.449   7.294  0.3772  0.4422  1.1760
  415MOL0     H56000   9.950   6.517   7.149 -1.8133  5.1265 -1.7134
  415MOL0     H56001   9.927   6.742   7.257  1.0787 -1.7499 -2.3148
  415MOL0     H56002   9.788   6.686   7.172 -1.1800  0.9229 -0.5109
  415MOL0     H56003   9.847   6.691   7.470 -1.2801  5.4924  0.7259
  415MOL0     H56004   9.715   6.581   7.405  1.2188 -0.7601  0.1865
  415MOL0     H56005   9.670   6.837   7.299 -2.9578 -0.2354 -0.9709
  415MOL0     H56006   9.699   6.855   7.476  0.7020 -1.1828  1.0178
  415MOL0     H56007  10.325   6.645   7.650  0.8644 -2.6216 -2.7683
  415MOL0     H56008  10.345   6.689   7.905  2.9944 -0.8926 -0.1869
  415MOL0     H56009  10.345   6.492   8.312 -0.7084 -0.0088 -0.4125
  415MOL0     H56010  10.361   6.543   8.556 -0.2110  1.3183  1.7278
  415MOL0     H56011  11.080   7.523   9.194  1.3695 -0.1688 -0.3858
  415MOL0     H56012  11.272   7.608   9.051  0.8284  1.1092 -1.3059
  415MOL0     H56013  11.490   8.055   9.030  0.3334 -2.5221  1.3560
  415MOL0     H56014  11.635   8.206   8.924 -1.5790 -0.0992  0.3175
  415MOL0     H56015  11.757   8.193   8.540  2.5503  2.5075 -1.6027
  415MOL0     H56016  11.704   8.302   8.668 -0.9983 -0.1163 -0.2306
  415MOL0     H56017  12.006   8.276   8.560  1.1989 -0.3761  2.9862
  415MOL0     H56018  11.965   8.352   8.704  3.0991  2.5052 -2.0401
  415MOL0     H56019  11.796   8.497   8.559 -0.4914 -0.0956 -3.1534
  415MOL0     H56020  11.885   8.423   8.430 -0.8964 -0.1730  0.6238
  415MOL0     H56021  12.101   8.511   8.509  0.1151  2.2454  0.0479
  415MOL0     H56022  12.024   8.600   8.645  0.7684  3.8017 -1.5513
  415MOL0     H56023  11.933   8.833   8.319  0.7612 -0.0343 -0.8029
  415MOL0     H56024  11.772   7.901   8.660  0.2870 -1.3136  1.4715
  415MOL0     H56025  11.579   7.758   8.719  1.1280 -0.4781 -0.8077
  416MOL0     O56026   1.795   7.716   3.921 -0.5632  0.2395 -0.4606
  416MOL0     C56027   1.872   7.659   4.003 -0.0244 -0.3824  0.1179
  416MOL0     O56028   1.893   7.518   4.003  0.2240  0.2445 -0.2963
  416MOL0     C56029   1.838   7.452   3.895  0.3569  1.1283  0.5071
  416MOL0     C56030   1.715   7.388   3.910 -0.5602  0.2169 -0.2347
  416MOL0     C56031   1.652   7.326   3.798 -0.1201 -0.6036 -0.2072
  416MOL0     C56032   1.710   7.321   3.670 -0.1465  0.5890  0.9750
  416MOL0     O56033   1.662   7.258   3.548  0.9600  0.6612 -0.1287
  416MOL0     C56034   1.579   7.139   3.569 -0.2122  0.1745 -0.2323
  416MOL0     C56035   1.522   7.103   3.434  0.8740  0.0324 -0.4412
  416MOL0     C56036   1.396   7.185   3.393  0.2019 -0.0833 -0.4875
  416MOL0     C56037   1.333   7.117   3.280 -0.5775  0.2519  0.5467
  416MOL0     C56038   1.207   7.177   3.222  0.0131  0.1914 -0.0335
  416MOL0     C56039   1.112   7.096   3.131 -0.2269 -0.1608  0.3394
  416MOL0     C56040   1.074   6.958   3.168  0.0758  1.2836 -0.6728
  416MOL0     C56041   1.143   6.845   3.098  0.7111  0.0161  0.4284
  416MOL0     N56042   1.076   6.720   3.126 -0.8441  0.1039 -0.0783
  416MOL0     C56043   1.078   6.667   3.249 -0.5442 -0.4260  0.1619
  416MOL0     C56044   0.996   6.552   3.244  0.0968  1.4590  0.4892
  416MOL0     C56045   0.976   6.451   3.357 -0.1717  0.0804 -0.0607
  416MOL0     C56046   0.912   6.523   3.481 -0.5694  0.4619  0.3395
  416MOL0     C56047   1.009   6.539   3.597  0.3498  0.2417  0.4614
  416MOL0     C56048   0.943   6.629   3.708 -0.2071 -0.1102  0.3915
  416MOL0     O56049   1.016   6.590   3.829  0.1148  0.6750  0.3583
  416MOL0     C56050   0.977   6.635   3.949  1.1931  0.7342  0.0880
  416MOL0     C56051   1.034   6.570   4.060 -0.2604  0.5758  0.6945
  416MOL0     C56052   1.011   6.620   4.185 -0.5030 -0.1056 -0.7111
  416MOL0     C56053   1.075   6.544   4.295 -0.2160 -0.5883  0.1100
  416MOL0     C56054   0.923   6.732   4.208  0.1495  0.3205 -0.5221
  416MOL0     C56055   0.876   6.786   4.344  0.4796 -0.5236 -0.3542
  416MOL0     O56056   0.761   6.858   4.341  0.5686  0.3670  0.0293
  416MOL0     C56057   0.717   6.934   4.444  0.4027 -0.8476 -0.4643
  416MOL0     C56058   0.739   6.899   4.576  0.0669 -0.5308  0.2774
  416MOL0     C56059   0.678   6.966   4.678 -0.9937 -0.8553  0.2147
  416MOL0     C56060   0.597   7.075   4.645  0.1974 -0.2218 -0.9608
  416MOL0     O56061   0.538   7.133   4.755 -0.2695 -1.3878 -0.6296
  416MOL0     C56062   0.397   7.155   4.763 -0.2408 -0.0957  0.5641
  416MOL0     C56063   0.381   7.287   4.846  0.3401  0.1514  0.0615
  416MOL0     C56064   0.449   7.283   4.986  0.7194  1.2053  0.3475
  416MOL0     C56065   0.383   7.162   5.074  1.3753 -0.2996 -0.4494
  416MOL0     C56066   0.435   7.142   5.217 -0.5087  0.4776 -0.1217
  416MOL0     C56067   0.349   7.059   5.316  0.2466  0.6407 -0.8632
  416MOL0     C56068   0.316   7.134   5.454  0.3827  0.4013  0.8141
  416MOL0     C56069   0.412   7.101   5.565  0.6879  1.1998  0.3060
  416MOL0    Cl56070   0.555   7.208   5.550  0.7994  0.2198  0.4116
  416MOL0     C56071   0.569   7.111   4.514 -0.6457  0.0093  0.7569
  416MOL0     C56072   0.633   7.040   4.411  0.5095  1.3192  0.3926
  416MOL0     O56073   0.960   6.779   4.431  0.5715 -0.0779 -0.0080
  416MOL0     C56074   0.875   6.793   4.098 -0.7066 -0.1841  0.5488
  416MOL0     C56075   0.904   6.749   3.973 -0.3582 -0.1285  0.3618
  416MOL0     N56076   0.958   6.537   3.110 -0.7242  1.1268 -0.3004
  416MOL0     N56077   1.023   6.629   3.041  0.4461  0.4548 -0.8975
  416MOL0     C56078   1.840   7.362   3.665  0.1650 -0.3269  0.8241
  416MOL0     C56079   1.900   7.440   3.769  0.3491 -0.5726  0.4122
  416MOL0     C56080   1.939   7.739   4.114 -0.0424  1.3531 -0.5162
  416MOL0     C56081   2.043   7.697   4.191 -0.8242  0.5092 -0.3902
  416MOL0     C56082   2.108   7.777   4.277  1.2381  0.1976 -0.9007
  416MOL0     C56083   2.073   7.910   4.301  0.0114  0.3228  0.6621
  416MOL0     O56084   2.128   8.014   4.372  0.0044  0.4258 -0.5617
  416MOL0     C56085   2.257   7.982   4.434  0.3066  0.6524  0.6717
  416MOL0     C56086   2.244   7.882   4.552 -0.8743  0.2571  0.8409
  416MOL0     C56087   2.393   7.846   4.599  1.0253 -0.6518 -1.0887
  416MOL0     C56088   2.400   7.836   4.749 -0.3008  0.1665 -0.6793
  416MOL0     C56089   2.544   7.811   4.785 -0.4094  0.3506  0.7257
  416MOL0     C56090   2.660   7.789   4.797 -1.0836  0.4166 -0.1634
  416MOL0     C56091   1.967   7.963   4.221  0.4064  0.2508  0.5290
  416MOL0     C56092   1.901   7.875   4.126 -0.5126 -0.9988  0.2665
  416MOL0     H56093   1.660   7.397   4.003 -2.1097 -0.8639 -1.0033
  416MOL0     H56094   1.551   7.291   3.818 -0.0296  0.3793  2.2729
  416MOL0     H56095   1.646   7.060   3.601  0.3194  0.2921 -1.0199
  416MOL0     H56096   1.497   7.151   3.641 -1.8742  1.6574 -2.2382
  416MOL0     H56097   1.595   7.109   3.353 -0.9405  3.4491 -2.0194
  416MOL0     H56098   1.498   6.997   3.430  0.7123  0.0069  0.8891
  416MOL0     H56099   1.330   7.188   3.480 -1.9987 -0.3859 -2.0655
  416MOL0     H56100   1.420   7.289   3.368  1.0201  0.2081  1.4017
  416MOL0     H56101   1.408   7.119   3.200 -1.9945  1.8534 -0.8155
  416MOL0     H56102   1.320   7.013   3.311 -0.4415  0.8683  2.8728
  416MOL0     H56103   1.139   7.191   3.307 -0.4743 -3.0268  0.2636
  416MOL0     H56104   1.232   7.272   3.174 -1.4788  0.0622 -1.1498
  416MOL0     H56105   1.017   7.151   3.125 -0.1031  0.0248  0.0632
  416MOL0     H56106   1.157   7.105   3.032  1.3336 -1.7795  0.8585
  416MOL0     H56107   1.078   6.941   3.276 -0.2238 -0.9647 -0.9710
  416MOL0     H56108   0.971   6.949   3.135 -0.0421 -0.2858  0.0563
  416MOL0     H56109   1.243   6.839   3.141  0.4079  2.5389  1.6560
  416MOL0     H56110   1.154   6.863   2.990 -0.0835 -0.2433  0.2905
  416MOL0     H56111   1.139   6.707   3.330 -3.3281  3.2656  0.6640
  416MOL0     H56112   0.912   6.365   3.337 -4.3395  2.3250  2.2032
  416MOL0     H56113   1.078   6.418   3.383  0.6893  2.2752 -0.4265
  416MOL0     H56114   0.829   6.457   3.507  0.6991 -2.0324 -1.5123
  416MOL0     H56115   0.872   6.619   3.446  5.7359  3.0374 -1.1491
  416MOL0     H56116   1.096   6.596   3.561 -0.7149 -0.6089 -4.1137
  416MOL0     H56117   1.050   6.444   3.633  0.1269  0.6112  1.7445
  416MOL0     H56118   0.834   6.614   3.706 -0.3640  0.7775 -2.1516
  416MOL0     H56119   0.956   6.735   3.686 -2.8718  0.0155 -0.9921
  416MOL0     H56120   1.084   6.479   4.030 -2.7408  0.2956 -3.2138
  416MOL0     H56121   1.183   6.556   4.285 -0.4860  1.0977 -1.3208
  416MOL0     H56122   1.049   6.560   4.400  2.7478 -0.1487  0.8627
  416MOL0     H56123   1.052   6.438   4.279  0.8625 -0.8516  0.2630
  416MOL0     H56124   0.795   6.812   4.609 -4.0009 -3.4957  0.0709
  416MOL0     H56125   0.690   6.920   4.775 -0.5321  2.5496  1.9112
  416MOL0     H56126   0.352   7.167   4.664 -1.7185 -0.8887  1.1028
  416MOL0     H56127   0.343   7.071   4.807  0.1940  0.1183  1.5395
  416MOL0     H56128   0.415   7.380   4.799  0.7105  0.7400  1.4266
  416MOL0     H56129   0.274   7.297   4.865 -0.4647 -3.4272 -1.7171
  416MOL0     H56130   0.430   7.376   5.041 -2.4905  2.0456 -1.8593
  416MOL0     H56131   0.557   7.271   4.972  0.7556  2.3830 -0.5305
  416MOL0     H56132   0.276   7.177   5.091  1.2523 -1.0465 -0.5184
  416MOL0     H56133   0.403   7.068   5.023 -1.3612 -0.3443 -1.6064
  416MOL0     H56134   0.458   7.240   5.260  1.2190 -0.1366  0.4577
  416MOL0     H56135   0.536   7.102   5.202 -0.5915  0.8598 -1.9378
  416MOL0     H56136   0.257   7.032   5.263  0.1726  0.6421 -0.7383
  416MOL0     H56137   0.396   6.964   5.343  1.2799  1.5841  0.8686
  416MOL0     H56138   0.211   7.109   5.474 -0.1989  1.0940 -1.0961
  416MOL0     H56139   0.306   7.243   5.450 -0.2086  0.3142 -0.2730
  416MOL0     H56140   0.443   6.996   5.557 -2.1590  0.3435 -0.7795
  416MOL0     H56141   0.360   7.114   5.660 -1.6910 -2.4305 -0.3061
  416MOL0     H56142   0.498   7.188   4.485 -2.1355 -1.5267  0.1718
  416MOL0     H56143   0.593   7.058   4.312 -1.9879  0.3362  1.1481
  416MOL0     H56144   0.827   6.887   4.120  0.1410 -0.2717  2.9893
  416MOL0     H56145   0.866   6.798   3.884 -1.2847 -4.7081 -2.0710
  416MOL0     H56146   1.901   7.353   3.575 -0.8111 -0.8948  0.2064
  416MOL0     H56147   1.986   7.505   3.757  0.2931 -0.8841 -2.6464
  416MOL0     H56148   2.081   7.596   4.180 -0.9389  0.6807 -2.9186
  416MOL0     H56149   2.198   7.732   4.319  1.1431  0.1854 -0.7074
  416MOL0     H56150   2.306   7.936   4.347 -1.4766 -1.1394  0.5452
  416MOL0     H56151   2.325   8.061   4.467  0.9815 -0.3477  1.7724
  416MOL0     H56152   2.184   7.794   4.528  3.0118 -2.7802  1.3276
  416MOL0     H56153   2.188   7.928   4.634 -1.6782 -1.1322  1.1066
  416MOL0     H56154   2.467   7.921   4.572 -1.3220  1.3396 -2.3797
  416MOL0     H56155   2.424   7.747   4.565 -0.1654 -1.6790  0.6336
  416MOL0     H56156   2.327   7.765   4.790 -1.0309  2.0209  1.4122
  416MOL0     H56157   2.357   7.925   4.794 -2.0629 -0.0827 -1.7791
  416MOL0     H56158   2.760   7.752   4.792 -0.7909  1.2282 -0.4442
  416MOL0     H56159   1.930   8.065   4.233  0.9040  0.5747 -0.5734
  416MOL0     H56160   1.816   7.915   4.072 -1.1430  0.6127  2.3284
  417MOL0     O56161   8.634   3.667   2.855 -0.0684  0.4543  0.4929
  417MOL0     C56162   8.736   3.681   2.920 -0.1563 -0.5520 -0.4131
  417MOL0     O56163   8.868   3.661   2.878 -0.3704 -0.8993  0.5753
  417MOL0     C56164   8.886   3.639   2.739  0.3849 -0.2212 -0.4745
  417MOL0     C56165   8.820   3.536   2.674  0.3541  0.1815  0.1547
  417MOL0     C56166   8.824   3.523   2.529  0.2354  1.0290  0.1615
  417MOL0     C56167   8.907   3.613   2.468 -1.0302 -0.2721  0.5116
  417MOL0     O56168   8.925   3.590   2.333  0.0985 -0.2729 -0.0153
  417MOL0     C56169   9.060   3.587   2.299 -0.1010 -0.2705 -0.2758
  417MOL0     C56170   9.067   3.555   2.162 -0.4870  0.2078  0.0741
  417MOL0     C56171   9.212   3.542   2.119 -0.7905  0.1799  0.5337
  417MOL0     C56172   9.207   3.522   1.969  0.0341  0.2945  0.5700
  417MOL0     C56173   9.333   3.510   1.898 -1.0058  0.0816 -0.2716
  417MOL0     C56174   9.403   3.375   1.910 -0.2160 -0.2140 -1.4267
  417MOL0     C56175   9.520   3.375   1.821  0.3499 -0.1023 -0.5461
  417MOL0     C56176   9.568   3.239   1.770  0.5442  0.0958  0.2473
  417MOL0     N56177   9.632   3.153   1.870  0.2607 -0.0961 -0.2822
  417MOL0     C56178   9.588   3.049   1.944  0.4713 -0.0594  0.4089
  417MOL0     C56179   9.685   3.002   2.021  0.2200 -1.1657 -0.1173
  417MOL0     C56180   9.690   2.889   2.114  0.3430  0.5104 -0.5159
  417MOL0     C56181   9.622   2.920   2.248 -0.3570 -0.3768  0.6778
  417MOL0     C56182   9.597   2.801   2.336 -0.7409 -0.8019 -0.3601
  417MOL0     C56183   9.593   2.847   2.480  0.0874  1.0137  0.0674
  417MOL0     O56184   9.475   2.924   2.511 -0.8973 -0.4130  0.8907
  417MOL0     C56185   9.426   2.902   2.636  0.5963 -0.5497 -0.2809
  417MOL0     C56186   9.503   2.941   2.752  0.7137  0.6048 -0.0429
  417MOL0     C56187   9.446   2.925   2.881 -0.0991 -1.5335  0.7267
  417MOL0     C56188   9.511   2.998   2.991 -0.0810 -0.5841  0.5620
  417MOL0     C56189   9.318   2.871   2.893  0.4282 -0.1631  0.2470
  417MOL0     C56190   9.243   2.879   3.017 -0.3564 -0.1617  0.7263
  417MOL0     O56191   9.193   2.766   3.069 -0.3220 -0.4365  0.4803
  417MOL0     C56192   9.084   2.758   3.149 -0.5373  0.1943 -0.8736
  417MOL0     C56193   9.065   2.638   3.216 -0.5138 -0.2024  0.3496
  417MOL0     C56194   8.961   2.622   3.307 -0.1938 -0.6727 -0.5415
  417MOL0     C56195   8.874   2.723   3.344  0.7696  0.0255  1.1157
  417MOL0     O56196   8.766   2.723   3.426  0.2750  0.0379  0.3247
  417MOL0     C56197   8.713   2.596   3.463  0.1968  0.6234  0.3282
  417MOL0     C56198   8.594   2.607   3.566  0.2883  0.0320  0.1615
  417MOL0     C56199   8.537   2.473   3.618 -0.0204  0.5076 -0.8058
  417MOL0     C56200   8.658   2.390   3.683 -0.1948  0.3372 -0.0631
  417MOL0     C56201   8.609   2.257   3.744 -0.2020  0.5374  0.0805
  417MOL0     C56202   8.544   2.283   3.878 -0.0905  0.0691 -0.1451
  417MOL0     C56203   8.504   2.167   3.970 -0.2459 -0.1481  0.8534
  417MOL0     C56204   8.613   2.079   4.024 -0.3578  0.9645 -0.1389
  417MOL0    Cl56205   8.579   1.955   4.140  0.3172 -0.3122 -0.1953
  417MOL0     C56206   8.899   2.850   3.294 -0.1902 -0.3334  1.1581
  417MOL0     C56207   9.000   2.864   3.190  0.0440 -0.8520 -0.9965
  417MOL0     O56208   9.233   2.993   3.069  0.1588  0.1468 -0.2535
  417MOL0     C56209   9.251   2.821   2.781  0.0450  0.8187 -0.2006
  417MOL0     C56210   9.296   2.838   2.657  0.2673  1.0555  0.4874
  417MOL0     N56211   9.797   3.072   1.982  0.3844 -0.6027  0.3184
  417MOL0     N56212   9.761   3.161   1.896  0.1589  0.0722 -0.6724
  417MOL0     C56213   8.973   3.717   2.525  0.5773  0.4386 -0.6695
  417MOL0     C56214   8.961   3.736   2.665 -0.7171  0.5624  0.5404
  417MOL0     C56215   8.724   3.749   3.052  0.0002  0.0517  0.1158
  417MOL0     C56216   8.599   3.797   3.097 -0.4447  0.9402  0.7093
  417MOL0     C56217   8.601   3.848   3.228  0.0544  0.0724  0.1498
  417MOL0     C56218   8.713   3.847   3.317  0.7130  0.8549 -0.2682
  417MOL0     O56219   8.706   3.893   3.441 -1.1728 -0.1977  0.7862
  417MOL0     C56220   8.594   3.976   3.471 -0.3766 -0.1847 -0.1344
  417MOL0     C56221   8.597   4.011   3.621  0.9434  0.0722 -0.0613
  417MOL0     C56222   8.465   4.089   3.662 -0.1458 -1.1043 -0.4190
  417MOL0     C56223   8.452   4.215   3.581 -0.4952  0.3008  0.2099
  417MOL0     C56224   8.353   4.305   3.636 -0.1897 -0.6355  0.1093
  417MOL0     C56225   8.282   4.384   3.688  0.5075 -0.2438 -0.5840
  417MOL0     C56226   8.832   3.811   3.249 -0.1675  0.3736 -0.3558
  417MOL0     C56227   8.841   3.748   3.135  0.0438 -0.3601 -0.0390
  417MOL0     H56228   8.784   3.449   2.728 -0.8875 -0.1957 -1.1939
  417MOL0     H56229   8.774   3.447   2.469  1.8120 -0.3625  0.5464
  417MOL0     H56230   9.103   3.687   2.304  0.7204 -0.5587 -1.4477
  417MOL0     H56231   9.116   3.527   2.371  0.8318  0.8938  0.0092
  417MOL0     H56232   9.018   3.457   2.152 -2.0775  1.0234 -0.4293
  417MOL0     H56233   9.020   3.634   2.103  0.0884  1.5648  1.3700
  417MOL0     H56234   9.284   3.622   2.140  0.7092 -1.6992  3.1444
  417MOL0     H56235   9.244   3.450   2.168 -2.4857 -0.6345  0.1984
  417MOL0     H56236   9.146   3.434   1.944  1.2640 -0.9625  1.8284
  417MOL0     H56237   9.159   3.610   1.925 -0.8939 -0.8888 -0.8786
  417MOL0     H56238   9.311   3.537   1.794 -1.8072 -1.2822 -0.4740
  417MOL0     H56239   9.400   3.578   1.951 -2.4862  1.3325  0.0731
  417MOL0     H56240   9.425   3.348   2.014  3.0685  0.9242 -1.7144
  417MOL0     H56241   9.338   3.297   1.869 -1.5476 -1.5926  2.7572
  417MOL0     H56242   9.487   3.420   1.727 -1.0883 -2.6747 -1.3733
  417MOL0     H56243   9.600   3.434   1.867 -0.4524  0.5343  0.0502
  417MOL0     H56244   9.641   3.274   1.697  0.0778 -1.3964 -0.9846
  417MOL0     H56245   9.491   3.177   1.723  1.1793 -1.4156  1.1413
  417MOL0     H56246   9.497   2.992   1.930 -0.7692  1.4584  1.8770
  417MOL0     H56247   9.640   2.803   2.068 -0.4992  0.1587  0.9629
  417MOL0     H56248   9.790   2.850   2.133  0.5630  0.7432 -1.1922
  417MOL0     H56249   9.526   2.973   2.239  0.0689 -0.0313 -3.5916
  417MOL0     H56250   9.690   2.990   2.298 -2.9491  2.6634  0.3175
  417MOL0     H56251   9.682   2.734   2.320  0.1418  0.2371 -0.1755
  417MOL0     H56252   9.500   2.756   2.313 -1.6135  0.9073 -0.1975
  417MOL0     H56253   9.683   2.904   2.506  1.2150 -0.8590  0.4264
  417MOL0     H56254   9.607   2.752   2.531  3.8059  1.8115  0.8180
  417MOL0     H56255   9.576   3.015   2.718 -1.7961  3.7001  0.7459
  417MOL0     H56256   9.501   3.106   2.981  1.1460 -0.6450 -2.6183
  417MOL0     H56257   9.478   2.966   3.090 -1.9562 -1.8451 -0.4191
  417MOL0     H56258   9.618   2.973   2.985  0.0842  0.3298 -0.8975
  417MOL0     H56259   9.148   2.568   3.219  1.4055  1.9775  1.1641
  417MOL0     H56260   8.961   2.537   3.375  0.2973 -2.1797 -2.3534
  417MOL0     H56261   8.685   2.542   3.372 -0.2313  1.2307  0.0909
  417MOL0     H56262   8.793   2.527   3.491  2.1850  1.3465 -2.9780
  417MOL0     H56263   8.619   2.683   3.641  2.2224  2.6580 -2.8882
  417MOL0     H56264   8.528   2.664   3.501  0.0529 -1.4410 -0.9233
  417MOL0     H56265   8.475   2.424   3.543  2.9475 -1.6084 -2.0645
  417MOL0     H56266   8.464   2.504   3.694  1.5570  0.1464  0.9185
  417MOL0     H56267   8.727   2.363   3.602 -0.8052  4.2471 -2.1511
  417MOL0     H56268   8.709   2.447   3.760  0.5127 -1.4003  0.8022
  417MOL0     H56269   8.699   2.198   3.765  0.7402  1.0010 -2.2542
  417MOL0     H56270   8.531   2.218   3.678 -1.2077  1.1556  0.8901
  417MOL0     H56271   8.597   2.356   3.940 -1.4721  1.2446 -0.2947
  417MOL0     H56272   8.461   2.349   3.854 -0.7907 -0.3775  0.9660
  417MOL0     H56273   8.420   2.114   3.924 -1.0722  0.7169  1.3087
  417MOL0     H56274   8.464   2.208   4.064  0.5941  0.4771  0.9527
  417MOL0     H56275   8.700   2.137   4.054 -0.2416  0.1071  1.2573
  417MOL0     H56276   8.645   2.034   3.929 -2.8001  1.7417 -1.4055
  417MOL0     H56277   8.828   2.918   3.340 -3.0715 -1.6510 -1.0104
  417MOL0     H56278   9.015   2.960   3.141  1.2320 -0.9336 -0.8266
  417MOL0     H56279   9.156   2.776   2.809 -0.9986  1.8316 -1.9749
  417MOL0     H56280   9.236   2.810   2.572  0.0266  1.5042  0.5044
  417MOL0     H56281   9.031   3.784   2.463  2.9636  0.6419  1.6054
  417MOL0     H56282   9.021   3.815   2.709  2.2756 -1.3932  0.2419
  417MOL0     H56283   8.510   3.773   3.039  1.1190 -2.0240 -0.7017
  417MOL0     H56284   8.510   3.889   3.269  0.3212  0.3602  0.4584
  417MOL0     H56285   8.596   4.065   3.407  1.0968 -1.2103 -1.5841
  417MOL0     H56286   8.494   3.943   3.441 -0.3940  0.5653 -0.9592
  417MOL0     H56287   8.680   4.071   3.658 -0.2037  2.5297 -1.2788
  417MOL0     H56288   8.587   3.914   3.671 -0.2136  0.8204  1.1995
  417MOL0     H56289   8.470   4.128   3.764  0.9637  0.5343 -1.0594
  417MOL0     H56290   8.370   4.036   3.665 -0.9327  0.2500 -0.6213
  417MOL0     H56291   8.418   4.197   3.479  1.3969 -1.6960 -0.1445
  417MOL0     H56292   8.547   4.268   3.583  0.0275 -0.6145  1.8151
  417MOL0     H56293   8.215   4.449   3.740  0.8019 -1.4169  1.3721
  417MOL0     H56294   8.925   3.825   3.302 -0.8223 -0.2751  1.0196
  417MOL0     H56295   8.937   3.709   3.102  0.8333  0.9184  0.6854
  418MOL0     O56296   0.783   6.454   8.359 -0.0501  0.1539 -0.1929
  418MOL0     C56297   0.666   6.486   8.383 -0.3339  0.6297  0.8926
  418MOL0     O56298   0.576   6.397   8.419 -0.4904  0.7726  0.1508
  418MOL0     C56299   0.581   6.265   8.366  0.9866  0.7056  0.3581
  418MOL0     C56300   0.607   6.170   8.453  0.2467 -0.6246 -0.4975
  418MOL0     C56301   0.629   6.040   8.412  1.1837 -0.1634  0.2555
  418MOL0     C56302   0.579   6.001   8.289  0.0807  0.3439  0.2079
  418MOL0     O56303   0.548   5.870   8.264 -0.0746 -0.4115  0.4800
  418MOL0     C56304   0.409   5.839   8.230 -0.0525  0.5139  0.7518
  418MOL0     C56305   0.368   5.702   8.278  0.5288 -0.6827  0.4587
  418MOL0     C56306   0.246   5.713   8.369 -0.1812 -0.7705  0.4735
  418MOL0     C56307   0.123   5.788   8.327  0.2795 -0.6725 -0.1447
  418MOL0     C56308   0.000   5.708   8.288 -0.0353 -0.5557  0.4604
  418MOL0     C56309   0.027   5.646   8.161  0.2774  0.4098  0.9362
  418MOL0     C56310  -0.093   5.589   8.085  0.1379  0.3829 -0.2044
  418MOL0     C56311  -0.044   5.533   7.945  0.8675 -0.3222  0.8218
  418MOL0     N56312  -0.015   5.633   7.845  0.4735  0.2588  0.3481
  418MOL0     C56313   0.049   5.596   7.731 -0.0144 -0.0277  0.3382
  418MOL0     C56314   0.081   5.713   7.672 -0.1889  0.9161  0.7002
  418MOL0     C56315   0.157   5.723   7.536  0.2614 -0.0673  0.2481
  418MOL0     C56316   0.270   5.828   7.538  0.6079  1.1408  0.1148
  418MOL0     C56317   0.305   5.875   7.390  0.3875  0.5973  0.7957
  418MOL0     C56318   0.413   5.995   7.390  0.4585 -0.3213  0.3404
  418MOL0     O56319   0.479   6.001   7.258  0.0699  0.0783  0.5813
  418MOL0     C56320   0.592   6.074   7.247 -0.5513  0.1948 -0.0320
  418MOL0     C56321   0.680   6.109   7.349  0.5130  0.3012 -0.7530
  418MOL0     C56322   0.807   6.177   7.329 -0.4647 -0.1259 -0.4019
  418MOL0     C56323   0.888   6.226   7.452 -0.3380 -0.3870  0.8149
  418MOL0     C56324   0.837   6.210   7.199 -0.0231  0.1749  0.2229
  418MOL0     C56325   0.965   6.287   7.172  0.5397 -0.4614 -0.3775
  418MOL0     O56326   1.083   6.242   7.221  0.2967  0.4313 -0.4060
  418MOL0     C56327   1.184   6.333   7.212  0.2858 -0.3807  0.2386
  418MOL0     C56328   1.253   6.351   7.090 -0.5173  0.2552 -0.5973
  418MOL0     C56329   1.369   6.424   7.085 -0.0962 -0.3968  0.5389
  418MOL0     C56330   1.426   6.478   7.206 -0.1973 -0.9978  0.4073
  418MOL0     O56331   1.540   6.550   7.198 -0.2303  0.2860  0.1970
  418MOL0     C56332   1.596   6.616   7.317 -0.2793  0.3292  0.8797
  418MOL0     C56333   1.711   6.698   7.259 -1.4847 -0.4843 -0.9488
  418MOL0     C56334   1.814   6.729   7.370 -1.1933 -0.1384  0.6977
  418MOL0     C56335   1.930   6.819   7.326 -0.0490 -0.0603 -0.1866
  418MOL0     C56336   2.016   6.871   7.449  0.5114 -0.1809 -0.5898
  418MOL0     C56337   2.121   6.975   7.387  0.0382  0.8015  0.3322
  418MOL0     C56338   2.258   6.915   7.363 -0.0120  0.5852 -0.2360
  418MOL0     C56339   2.343   7.016   7.271 -0.4217  0.5915 -0.2630
  418MOL0    Cl56340   2.371   7.155   7.376 -0.5356 -0.3472  0.1609
  418MOL0     C56341   1.357   6.454   7.326 -0.9720 -0.7322  0.3897
  418MOL0     C56342   1.240   6.387   7.323  0.1098  0.0877 -0.5986
  418MOL0     O56343   0.953   6.391   7.105 -0.2084 -0.3523  0.0832
  418MOL0     C56344   0.753   6.181   7.093  0.7938 -0.1432  0.2189
  418MOL0     C56345   0.632   6.107   7.116  0.1751 -0.4430 -0.1821
  418MOL0     N56346   0.037   5.812   7.751 -0.1917  0.0712 -0.0509
  418MOL0     N56347  -0.037   5.768   7.849  0.1820  0.0527  0.1878
  418MOL0     C56348   0.553   6.099   8.195 -0.0153 -0.4687 -0.1659
  418MOL0     C56349   0.567   6.235   8.223  0.8875  0.0092  0.5647
  418MOL0     C56350   0.613   6.621   8.383 -1.5249  0.2687  0.3064
  418MOL0     C56351   0.694   6.725   8.328 -0.0301  0.7741  0.3168
  418MOL0     C56352   0.651   6.851   8.310  0.0064  1.1002  0.1274
  418MOL0     C56353   0.518   6.888   8.346  0.9300 -0.2553  0.4786
  418MOL0     O56354   0.479   7.020   8.313 -0.3825 -0.2819 -0.5490
  418MOL0     C56355   0.485   7.098   8.437 -0.1659  0.2368 -0.2277
  418MOL0     C56356   0.603   7.198   8.429  0.3809  0.6813  0.0453
  418MOL0     C56357   0.629   7.290   8.306 -0.0611 -0.1082 -0.0649
  418MOL0     C56358   0.719   7.226   8.211 -0.0002 -0.0810  0.2789
  418MOL0     C56359   0.748   7.326   8.106 -0.0597  0.0718  1.0640
  418MOL0     C56360   0.791   7.402   8.015 -0.3292  0.3699 -0.5851
  418MOL0     C56361   0.440   6.792   8.406 -0.4367 -0.7573 -0.8027
  418MOL0     C56362   0.486   6.660   8.426 -0.5077 -0.7337  0.1995
  418MOL0     H56363   0.621   6.195   8.558  0.1717 -0.1170 -0.6069
  418MOL0     H56364   0.652   5.956   8.476  0.1137 -1.0973 -0.5528
  418MOL0     H56365   0.345   5.920   8.267 -2.7416 -1.9294  1.7699
  418MOL0     H56366   0.399   5.837   8.121  0.4610  1.1458  0.6838
  418MOL0     H56367   0.329   5.642   8.196 -0.7207 -0.2981  0.7464
  418MOL0     H56368   0.450   5.646   8.323 -1.4219 -2.2862  2.2827
  418MOL0     H56369   0.208   5.615   8.400 -2.1641 -0.4363 -0.6964
  418MOL0     H56370   0.278   5.758   8.463  1.0385 -1.4157  0.3900
  418MOL0     H56371   0.093   5.853   8.410 -1.3833 -0.1367 -1.1113
  418MOL0     H56372   0.151   5.856   8.246  2.6892 -0.4057  0.8087
  418MOL0     H56373  -0.045   5.647   8.367 -0.7105  0.6302  1.0232
  418MOL0     H56374  -0.076   5.783   8.263  0.3104 -1.0682 -2.5141
  418MOL0     H56375   0.073   5.723   8.098  2.7770 -1.4250  0.3498
  418MOL0     H56376   0.104   5.568   8.169 -1.5370 -1.7000 -0.8102
  418MOL0     H56377  -0.125   5.505   8.149  2.5536  0.9016  1.8400
  418MOL0     H56378  -0.166   5.669   8.069  2.0986  2.1742 -0.5625
  418MOL0     H56379  -0.115   5.463   7.900  0.9856 -0.0842  0.2555
  418MOL0     H56380   0.046   5.474   7.963  1.3974 -1.1415 -3.4485
  418MOL0     H56381   0.079   5.495   7.706 -0.0504  0.0218  0.0869
  418MOL0     H56382   0.202   5.628   7.507  2.7259  1.4066 -1.0513
  418MOL0     H56383   0.076   5.748   7.467  1.1723  1.6834 -0.2589
  418MOL0     H56384   0.358   5.787   7.588  0.0526 -2.2445 -1.3743
  418MOL0     H56385   0.245   5.915   7.599  0.2851 -0.6383  2.6734
  418MOL0     H56386   0.217   5.899   7.329  0.2840 -2.5216 -0.4733
  418MOL0     H56387   0.360   5.792   7.344 -0.1779 -0.6980  2.3756
  418MOL0     H56388   0.488   5.975   7.467  0.3814  0.6916  0.6970
  418MOL0     H56389   0.365   6.090   7.415  1.8007  0.6731 -0.7033
  418MOL0     H56390   0.650   6.074   7.448  1.0365 -1.0841 -1.0655
  418MOL0     H56391   0.824   6.210   7.539  0.1858 -1.6329  0.9953
  418MOL0     H56392   0.984   6.176   7.470  0.3767 -0.0058 -1.5970
  418MOL0     H56393   0.901   6.334   7.442 -0.0771 -0.5720 -1.2978
  418MOL0     H56394   1.223   6.314   6.993 -0.4762 -0.3747 -0.3773
  418MOL0     H56395   1.420   6.437   6.991 -1.0860  0.3989  0.0921
  418MOL0     H56396   1.523   6.687   7.358 -1.3409 -1.5722  2.4725
  418MOL0     H56397   1.622   6.537   7.388 -0.7618 -0.9774 -0.3503
  418MOL0     H56398   1.752   6.639   7.177  3.2580  0.5691  0.3889
  418MOL0     H56399   1.677   6.793   7.217 -0.5207  0.1991 -0.2184
  418MOL0     H56400   1.860   6.634   7.399 -2.5708 -0.6826  1.1745
  418MOL0     H56401   1.751   6.759   7.454 -0.4721  1.5237  0.6792
  418MOL0     H56402   1.981   6.747   7.262  1.7082  1.7450 -0.9246
  418MOL0     H56403   1.883   6.905   7.277 -1.4861 -0.3617  0.5873
  418MOL0     H56404   2.058   6.788   7.506  0.2267  2.2427  3.5173
  418MOL0     H56405   1.960   6.919   7.530  0.6614  0.4209 -0.8409
  418MOL0     H56406   2.082   7.016   7.294 -1.0119 -0.0139  0.4009
  418MOL0     H56407   2.129   7.058   7.457 -1.4295 -0.6091  2.2864
  418MOL0     H56408   2.242   6.817   7.318  4.9557 -0.1074 -1.1155
  418MOL0     H56409   2.311   6.884   7.454 -1.1071  1.7361  0.8360
  418MOL0     H56410   2.286   7.050   7.184  1.0784  3.2351 -0.3154
  418MOL0     H56411   2.441   6.979   7.240  0.4456  2.2751  0.3598
  418MOL0     H56412   1.394   6.498   7.418 -2.3393  0.3256  0.4679
  418MOL0     H56413   1.179   6.378   7.412  2.0197 -1.4355  0.6357
  418MOL0     H56414   0.762   6.212   6.989  0.1688  2.8436  0.9744
  418MOL0     H56415   0.563   6.086   7.035 -2.9371  1.4220  1.7667
  418MOL0     H56416   0.521   6.062   8.098 -4.4565  0.2408  0.8158
  418MOL0     H56417   0.544   6.307   8.145  1.6365  1.0737  1.2987
  418MOL0     H56418   0.795   6.688   8.322  0.2218  1.5847 -0.5251
  418MOL0     H56419   0.717   6.929   8.271  0.7764  0.1550 -0.5130
  418MOL0     H56420   0.386   7.144   8.447 -2.4110 -3.7226 -1.6672
  418MOL0     H56421   0.496   7.038   8.528 -0.2859  1.5131  0.6524
  418MOL0     H56422   0.701   7.155   8.451  0.4130  1.3315  1.2979
  418MOL0     H56423   0.573   7.263   8.512 -0.3312 -0.2211  0.5139
  418MOL0     H56424   0.670   7.383   8.345  0.7019  0.7772 -2.7798
  418MOL0     H56425   0.532   7.302   8.257 -0.2519 -1.4601 -0.0535
  418MOL0     H56426   0.669   7.142   8.162  0.0819 -0.5537  0.9774
  418MOL0     H56427   0.807   7.195   8.269 -0.6403  0.1131  1.4018
  418MOL0     H56428   0.844   7.462   7.944  0.9062 -0.7093 -0.6076
  418MOL0     H56429   0.334   6.805   8.427 -0.2547 -0.4250 -0.0500
  418MOL0     H56430   0.410   6.595   8.468 -0.1815 -1.1756  0.1137
  419MOL0     O56431   4.532   6.902   6.480 -0.5356  0.2183 -1.1385
  419MOL0     C56432   4.599   6.952   6.572 -0.3396  0.3593 -0.5802
  419MOL0     O56433   4.734   6.917   6.600 -0.3433 -0.2249 -0.7811
  419MOL0     C56434   4.809   6.836   6.526  1.0264 -0.3141  0.7721
  419MOL0     C56435   4.798   6.822   6.385 -0.1351 -0.2220 -0.5339
  419MOL0     C56436   4.884   6.736   6.318  0.3428  0.0001  0.0346
  419MOL0     C56437   4.982   6.662   6.389  0.0358 -0.4992 -0.2535
  419MOL0     O56438   5.070   6.574   6.328  0.6752 -0.1761 -0.4295
  419MOL0     C56439   5.027   6.512   6.205 -0.7780 -0.4274  0.3833
  419MOL0     C56440   5.123   6.393   6.179  0.5826 -1.0393 -0.6038
  419MOL0     C56441   5.079   6.311   6.051  0.3231 -1.2796 -0.0872
  419MOL0     C56442   5.196   6.214   5.998  0.4683 -0.4879  0.2249
  419MOL0     C56443   5.332   6.271   5.985 -0.4751  0.4592 -0.9598
  419MOL0     C56444   5.414   6.189   5.879  0.1522  1.2074  0.8935
  419MOL0     C56445   5.560   6.232   5.871 -0.5473 -1.5428 -0.2981
  419MOL0     C56446   5.591   6.369   5.805 -0.4652 -0.0279 -0.0760
  419MOL0     N56447   5.541   6.379   5.667 -0.6294  0.1085  0.7041
  419MOL0     C56448   5.573   6.290   5.563 -0.3842  0.2440 -0.1084
  419MOL0     C56449   5.523   6.347   5.451 -0.8020 -0.9551 -0.8238
  419MOL0     C56450   5.541   6.303   5.306 -0.3556  0.1141 -1.2122
  419MOL0     C56451   5.493   6.410   5.206 -0.3816  0.8693 -0.1737
  419MOL0     C56452   5.541   6.381   5.065  1.3067 -0.3897 -0.5695
  419MOL0     C56453   5.535   6.514   4.981  0.3034 -0.5868 -1.0999
  419MOL0     O56454   5.571   6.483   4.849 -0.7249  0.7267  0.4674
  419MOL0     C56455   5.596   6.584   4.760  0.3497 -0.4522  0.2029
  419MOL0     C56456   5.624   6.542   4.629 -0.3234  0.2938  0.1718
  419MOL0     C56457   5.634   6.632   4.521 -0.3492 -0.1512 -0.5137
  419MOL0     C56458   5.658   6.577   4.380  0.3662  1.0523 -0.3652
  419MOL0     C56459   5.630   6.769   4.547  0.3172  0.6195  0.8359
  419MOL0     C56460   5.628   6.883   4.451 -0.3121 -0.6671  0.5427
  419MOL0     O56461   5.739   6.917   4.378 -0.0181 -0.3257  0.2099
  419MOL0     C56462   5.719   7.020   4.289 -0.7741  0.0258  0.0234
  419MOL0     C56463   5.653   6.991   4.172  0.6255 -0.6863 -0.6390
  419MOL0     C56464   5.655   7.080   4.058  0.2157  0.3867 -0.6032
  419MOL0     C56465   5.730   7.200   4.070  1.0474  0.4441 -0.1599
  419MOL0     O56466   5.718   7.297   3.978 -0.0296 -0.7047 -0.8457
  419MOL0     C56467   5.837   7.328   3.906  0.2498  0.9116 -0.0211
  419MOL0     C56468   5.803   7.409   3.783  0.0226 -0.0618  0.2323
  419MOL0     C56469   5.717   7.334   3.675  0.2905 -0.4498  0.4152
  419MOL0     C56470   5.743   7.376   3.526 -0.3272  0.4534 -0.6368
  419MOL0     C56471   5.735   7.243   3.435 -0.0107 -0.1982 -0.4572
  419MOL0     C56472   5.785   7.266   3.291 -0.4407  0.0022  0.7270
  419MOL0     C56473   5.727   7.388   3.229 -0.0117 -1.0518  0.1819
  419MOL0     C56474   5.765   7.402   3.083  0.4470 -0.8568 -0.6974
  419MOL0    Cl56475   5.933   7.454   3.069  0.0323  0.2580  0.0800
  419MOL0     C56476   5.802   7.225   4.181 -0.3148 -0.5608  0.4196
  419MOL0     C56477   5.802   7.141   4.290  0.9891  1.2421 -0.7237
  419MOL0     O56478   5.511   6.924   4.422 -0.1375  0.0107  0.1393
  419MOL0     C56479   5.606   6.806   4.678 -0.2328  0.3135  0.0821
  419MOL0     C56480   5.591   6.725   4.787 -0.9941  0.1181  0.0512
  419MOL0     N56481   5.448   6.457   5.499  0.0292  0.5990  0.1761
  419MOL0     N56482   5.461   6.482   5.618 -0.2444 -0.5295 -0.2648
  419MOL0     C56483   4.995   6.684   6.530 -0.2425 -0.4719 -0.1839
  419MOL0     C56484   4.904   6.763   6.592 -1.0981 -0.1051  0.0123
  419MOL0     C56485   4.531   7.050   6.648 -0.3857 -0.9504 -0.3472
  419MOL0     C56486   4.583   7.091   6.778 -0.4056  0.3848 -0.0073
  419MOL0     C56487   4.506   7.167   6.861 -1.0621  0.9437  0.9006
  419MOL0     C56488   4.391   7.226   6.815  0.3186 -0.2739  0.5230
  419MOL0     O56489   4.305   7.296   6.893  0.6504  0.0570  0.0166
  419MOL0     C56490   4.342   7.324   7.033 -0.2356 -0.5813 -0.0061
  419MOL0     C56491   4.245   7.433   7.079 -0.0146  0.5066 -0.7508
  419MOL0     C56492   4.223   7.562   6.996 -0.7219 -0.0443 -0.2605
  419MOL0     C56493   4.353   7.636   6.947 -0.3324  0.6006 -0.9210
  419MOL0     C56494   4.428   7.659   7.078  0.4964 -0.9739 -0.7259
  419MOL0     C56495   4.490   7.694   7.177 -0.6497  0.2888 -0.4866
  419MOL0     C56496   4.348   7.206   6.683  0.1444 -0.7065 -0.0421
  419MOL0     C56497   4.425   7.126   6.600 -0.3483 -0.3050  0.0924
  419MOL0     H56498   4.709   6.855   6.334  0.1362 -1.6726 -2.0425
  419MOL0     H56499   4.865   6.737   6.211 -2.3504  2.3883  0.4106
  419MOL0     H56500   4.923   6.480   6.215 -1.0550  0.2631 -0.1481
  419MOL0     H56501   5.037   6.597   6.136 -0.3221 -2.3089 -1.9966
  419MOL0     H56502   5.225   6.430   6.166  0.6811 -0.5675  1.2877
  419MOL0     H56503   5.119   6.322   6.262 -0.0726 -0.2473  0.0596
  419MOL0     H56504   4.992   6.248   6.073 -0.9674  0.5260  0.2198
  419MOL0     H56505   5.051   6.379   5.970  1.1012 -4.1042 -2.9341
  419MOL0     H56506   5.210   6.158   6.091  0.6163 -1.0076 -0.1058
  419MOL0     H56507   5.173   6.147   5.915 -0.7695 -2.0311  1.7258
  419MOL0     H56508   5.338   6.378   5.962  1.0007  0.8293  0.8454
  419MOL0     H56509   5.384   6.276   6.081 -2.3129 -0.7214  0.1607
  419MOL0     H56510   5.420   6.081   5.896  1.3129  0.5181 -2.8621
  419MOL0     H56511   5.383   6.198   5.774  0.3555  3.6148  0.9966
  419MOL0     H56512   5.604   6.229   5.971 -2.5023  3.6309  1.0191
  419MOL0     H56513   5.617   6.154   5.819 -0.3015 -1.8954  0.4925
  419MOL0     H56514   5.700   6.381   5.814 -0.4403  0.1237 -0.5626
  419MOL0     H56515   5.552   6.450   5.867  2.3900  0.7844  0.8079
  419MOL0     H56516   5.637   6.202   5.573  0.5596  1.0738  1.6611
  419MOL0     H56517   5.648   6.293   5.284 -0.7735 -0.5029 -3.1731
  419MOL0     H56518   5.496   6.204   5.299  0.8186 -0.5675  0.2455
  419MOL0     H56519   5.525   6.512   5.229 -0.8958  0.9903  0.0402
  419MOL0     H56520   5.383   6.414   5.203 -0.4220 -0.0874 -0.1655
  419MOL0     H56521   5.478   6.304   5.019  2.2863 -1.3146 -0.3964
  419MOL0     H56522   5.642   6.339   5.065  0.8663 -1.4954 -0.7804
  419MOL0     H56523   5.606   6.584   5.025 -1.9400  2.0259 -1.3389
  419MOL0     H56524   5.432   6.552   4.977  0.3057 -0.6216 -1.5544
  419MOL0     H56525   5.629   6.434   4.624 -1.0067 -0.0089  3.6102
  419MOL0     H56526   5.700   6.650   4.310  2.5136  1.1162  0.9165
  419MOL0     H56527   5.733   6.500   4.366  2.0819  2.9780 -2.6242
  419MOL0     H56528   5.566   6.539   4.333  1.1610 -0.2811 -0.8844
  419MOL0     H56529   5.586   6.906   4.166  0.7835 -0.7020 -2.8718
  419MOL0     H56530   5.610   7.071   3.960  3.0131 -0.0981 -1.9236
  419MOL0     H56531   5.916   7.371   3.968  3.0638 -3.1598 -0.3875
  419MOL0     H56532   5.864   7.228   3.872  0.8636  0.1586  2.4741
  419MOL0     H56533   5.760   7.506   3.811 -2.0814 -1.6419  2.9576
  419MOL0     H56534   5.902   7.431   3.742 -0.9744  0.9237 -1.7802
  419MOL0     H56535   5.613   7.359   3.699  0.1108  0.3378 -1.0777
  419MOL0     H56536   5.734   7.226   3.674  0.7205 -0.3878  0.6413
  419MOL0     H56537   5.662   7.447   3.504 -2.9447 -1.6623  1.5329
  419MOL0     H56538   5.838   7.428   3.516  0.9888 -1.8776 -0.8177
  419MOL0     H56539   5.638   7.194   3.441  0.4039 -0.8724  2.7536
  419MOL0     H56540   5.799   7.168   3.483 -0.5984  1.1128  2.5614
  419MOL0     H56541   5.892   7.269   3.270 -1.0916  1.6418 -3.3498
  419MOL0     H56542   5.750   7.188   3.222 -1.9153 -0.7894  2.2998
  419MOL0     H56543   5.756   7.478   3.284  2.7621 -1.9089  0.2718
  419MOL0     H56544   5.619   7.375   3.224 -0.2990  1.3064 -3.4140
  419MOL0     H56545   5.692   7.467   3.033 -0.6808 -1.8489 -0.3824
  419MOL0     H56546   5.751   7.305   3.034  2.6923 -1.2151 -0.7386
  419MOL0     H56547   5.855   7.319   4.188 -2.1747  0.5367  0.4968
  419MOL0     H56548   5.872   7.159   4.371  0.4016  0.7124 -0.0886
  419MOL0     H56549   5.596   6.913   4.697  0.0918  0.3227  0.2203
  419MOL0     H56550   5.558   6.759   4.884 -0.5029 -0.8737  0.5838
  419MOL0     H56551   5.066   6.638   6.598  1.6068  2.4190  0.0483
  419MOL0     H56552   4.910   6.795   6.696 -2.2495  1.5671 -0.4097
  419MOL0     H56553   4.668   7.031   6.811  0.2498 -0.4719 -2.9290
  419MOL0     H56554   4.540   7.184   6.963  0.7902  1.8869  0.1705
  419MOL0     H56555   4.327   7.242   7.104  1.6989  1.4160  2.9515
  419MOL0     H56556   4.444   7.362   7.036  0.8462 -2.6515 -3.9395
  419MOL0     H56557   4.263   7.443   7.187 -1.3009 -0.4250 -0.4331
  419MOL0     H56558   4.146   7.388   7.074 -1.1346  2.5830  0.8759
  419MOL0     H56559   4.170   7.630   7.063 -0.2467 -0.6656  0.7749
  419MOL0     H56560   4.166   7.534   6.907 -0.5925 -2.7149  0.4049
  419MOL0     H56561   4.341   7.736   6.903  2.7712  2.6210  2.2710
  419MOL0     H56562   4.408   7.569   6.880  1.4116  0.2388  0.7695
  419MOL0     H56563   4.528   7.717   7.275 -0.9408  0.8166 -0.4913
  419MOL0     H56564   4.249   7.242   6.655  0.8852  0.3944 -1.3394
  419MOL0     H56565   4.390   7.104   6.500  3.5498  0.5136 -1.6735
  420MOL0     O56566   1.550  10.740   5.429  0.3712  0.1558  0.5645
  420MOL0     C56567   1.499  10.850   5.407  1.0281 -0.1691  0.5322
  420MOL0     O56568   1.366  10.885   5.404 -0.2535  0.1259  0.7757
  420MOL0     C56569   1.266  10.802   5.452 -0.5165  0.2730  0.6825
  420MOL0     C56570   1.134  10.868   5.449 -0.6660 -0.0893 -0.3340
  420MOL0     C56571   1.021  10.797   5.491  0.7550 -0.1596 -0.2071
  420MOL0     C56572   1.028  10.657   5.524  0.3933 -0.6804  0.1846
  420MOL0     O56573   0.919  10.593   5.572 -0.3099  0.1079 -0.6719
  420MOL0     C56574   0.941  10.508   5.684 -0.4362 -0.0386  0.1011
  420MOL0     C56575   0.810  10.511   5.754 -0.3356 -0.0055 -0.9481
  420MOL0     C56576   0.777  10.650   5.802 -0.0779 -0.0203 -0.6676
  420MOL0     C56577   0.667  10.654   5.909 -1.1469  0.2133  0.4484
  420MOL0     C56578   0.679  10.787   5.990  0.3295  0.0645  0.4459
  420MOL0     C56579   0.575  10.886   5.943 -1.0357 -0.3452 -0.5426
  420MOL0     C56580   0.627  10.952   5.806  0.0009 -0.1452 -0.3128
  420MOL0     C56581   0.586  11.096   5.790  0.2990  0.3478  0.0957
  420MOL0     N56582   0.628  11.167   5.661 -0.0021  0.2817  0.3220
  420MOL0     C56583   0.751  11.195   5.613 -0.1489  0.7394  0.3025
  420MOL0     C56584   0.730  11.257   5.494  0.3017 -0.0663  0.8397
  420MOL0     C56585   0.824  11.306   5.396  0.3681 -0.7768  0.2473
  420MOL0     C56586   0.915  11.197   5.343  0.4379 -0.5386  0.3400
  420MOL0     C56587   1.025  11.253   5.232 -0.0571 -0.5151 -0.2366
  420MOL0     C56588   1.146  11.328   5.306 -0.7016  0.5833 -0.3367
  420MOL0     O56589   1.189  11.267   5.426  0.2906  0.7305 -1.0440
  420MOL0     C56590   1.290  11.318   5.506  0.1308  0.2555 -0.6011
  420MOL0     C56591   1.317  11.451   5.535  0.1483 -0.0841 -0.6705
  420MOL0     C56592   1.417  11.490   5.625 -0.9355 -0.5228 -0.7920
  420MOL0     C56593   1.448  11.637   5.644  0.8548  0.4400  1.0256
  420MOL0     C56594   1.489  11.389   5.692  0.1760  0.3872  0.6878
  420MOL0     C56595   1.596  11.418   5.793 -0.1247  0.7190  0.5734
  420MOL0     O56596   1.616  11.332   5.898  0.2305  0.1373 -0.2713
  420MOL0     C56597   1.724  11.362   5.970  0.1209 -0.4534 -0.3928
  420MOL0     C56598   1.710  11.387   6.107  0.3585 -0.5159  0.1883
  420MOL0     C56599   1.812  11.416   6.188  0.1407 -0.3177  0.3016
  420MOL0     C56600   1.935  11.417   6.149 -0.6188 -0.0095  0.5572
  420MOL0     O56601   2.027  11.454   6.240  0.0223  0.3980  0.1510
  420MOL0     C56602   2.148  11.371   6.242 -0.3153  0.0322  0.1894
  420MOL0     C56603   2.216  11.406   6.374  0.1316  0.0703 -0.6842
  420MOL0     C56604   2.345  11.327   6.377 -0.5621  0.6888 -0.3817
  420MOL0     C56605   2.430  11.343   6.511  0.5977  0.6253  0.8219
  420MOL0     C56606   2.556  11.251   6.508  0.1790 -0.3497 -0.2094
  420MOL0     C56607   2.643  11.279   6.641  0.5013 -0.2133  0.2323
  420MOL0     C56608   2.797  11.253   6.632  0.2260 -0.1521 -0.2196
  420MOL0     C56609   2.819  11.103   6.638 -0.0894  0.6397  1.3246
  420MOL0    Cl56610   2.807  11.043   6.459 -0.2917 -0.3951 -0.2046
  420MOL0     C56611   1.967  11.382   6.019 -0.4126 -0.4069  0.6138
  420MOL0     C56612   1.861  11.360   5.929 -0.4337 -0.9339  1.2654
  420MOL0     O56613   1.674  11.503   5.759  0.7337  0.2389 -0.7981
  420MOL0     C56614   1.447  11.255   5.679  0.4963 -0.2683 -0.3293
  420MOL0     C56615   1.347  11.220   5.584 -1.0845  0.6506  0.1113
  420MOL0     N56616   0.597  11.272   5.480  0.4895 -0.5346  0.0683
  420MOL0     N56617   0.537  11.222   5.581 -0.0828 -0.1738 -0.3972
  420MOL0     C56618   1.152  10.596   5.508  0.3454 -0.0482  0.3091
  420MOL0     C56619   1.263  10.665   5.478 -0.0921 -0.3057  0.8695
  420MOL0     C56620   1.595  10.955   5.351 -0.0314  0.6427 -0.3555
  420MOL0     C56621   1.732  10.928   5.328  0.4138  0.7216 -1.5069
  420MOL0     C56622   1.818  11.031   5.286 -0.6610 -0.6976 -0.6491
  420MOL0     C56623   1.774  11.165   5.272 -0.6952 -0.0353 -0.1636
  420MOL0     O56624   1.865  11.252   5.226  0.3546  0.0207 -0.8712
  420MOL0     C56625   1.834  11.387   5.215 -0.3937  0.1754 -0.4292
  420MOL0     C56626   1.911  11.465   5.325 -0.6732  0.1921 -0.1385
  420MOL0     C56627   2.064  11.474   5.303  0.1077  0.4943  0.1806
  420MOL0     C56628   2.145  11.334   5.300 -0.0712 -0.7453  0.4220
  420MOL0     C56629   2.131  11.262   5.428 -1.0719  0.0104 -0.3614
  420MOL0     C56630   2.120  11.207   5.541  0.1006 -1.0553 -0.7847
  420MOL0     C56631   1.640  11.184   5.281  0.2514  0.0165 -0.2185
  420MOL0     C56632   1.553  11.081   5.319 -0.4008  0.6172 -0.3262
  420MOL0     H56633   1.116  10.972   5.424 -1.8377  0.7375  3.3110
  420MOL0     H56634   0.930  10.855   5.493  2.6945  3.0927 -0.2100
  420MOL0     H56635   0.963  10.408   5.644  2.2630 -0.7982  3.0434
  420MOL0     H56636   1.026  10.541   5.744 -0.5211  4.2743 -1.7871
  420MOL0     H56637   0.726  10.485   5.688  1.8794 -2.2290 -3.1555
  420MOL0     H56638   0.818  10.437   5.835  1.2476 -1.7353 -2.5851
  420MOL0     H56639   0.865  10.696   5.848 -0.2475 -1.9717  1.7892
  420MOL0     H56640   0.736  10.702   5.714  0.0875 -2.8714 -2.5863
  420MOL0     H56641   0.568  10.643   5.866 -0.2971  2.7569 -2.5114
  420MOL0     H56642   0.679  10.566   5.974  0.3479  2.7738  3.9755
  420MOL0     H56643   0.628  10.762   6.084 -3.2289  1.9579 -0.7800
  420MOL0     H56644   0.776  10.838   5.995 -1.2852  3.3654  3.5179
  420MOL0     H56645   0.473  10.847   5.943 -0.5955 -1.5360  0.1283
  420MOL0     H56646   0.573  10.963   6.021  0.4431  1.4227 -2.1276
  420MOL0     H56647   0.735  10.967   5.815 -0.2769  0.5968  3.5839
  420MOL0     H56648   0.594  10.899   5.717 -5.6472  2.6804 -0.3243
  420MOL0     H56649   0.625  11.153   5.874  1.3869 -0.1587 -0.0529
  420MOL0     H56650   0.478  11.115   5.791  0.0806 -0.8387  0.2437
  420MOL0     H56651   0.846  11.163   5.654  0.1233  2.3899  1.0276
  420MOL0     H56652   0.783  11.365   5.313 -0.1138  1.1820  1.7931
  420MOL0     H56653   0.892  11.383   5.435  1.1934 -2.3930  2.1660
  420MOL0     H56654   0.850  11.135   5.281  0.2613 -0.3766  0.3630
  420MOL0     H56655   0.953  11.126   5.417 -0.7752 -2.3960 -0.7622
  420MOL0     H56656   0.976  11.314   5.157  1.8925  3.9608  1.7502
  420MOL0     H56657   1.073  11.162   5.194 -1.7352 -1.9110  0.8056
  420MOL0     H56658   1.113  11.429   5.332 -1.3719  0.5005 -0.8273
  420MOL0     H56659   1.236  11.320   5.244  0.7874 -1.9067  1.9204
  420MOL0     H56660   1.249  11.522   5.489 -0.1839 -0.7239 -1.1861
  420MOL0     H56661   1.482  11.668   5.744  2.9606  0.8294  0.2414
  420MOL0     H56662   1.532  11.664   5.580  2.0710 -1.4378  1.7420
  420MOL0     H56663   1.356  11.694   5.625 -1.2484 -2.5972  1.4856
  420MOL0     H56664   1.606  11.397   6.134  0.5596 -0.9948  1.1613
  420MOL0     H56665   1.778  11.464   6.279 -3.0359  2.0446 -1.8635
  420MOL0     H56666   2.118  11.266   6.234  3.5986 -1.1884 -0.5287
  420MOL0     H56667   2.217  11.383   6.159  3.1989 -0.7765  2.7662
  420MOL0     H56668   2.253  11.508   6.389  3.6504 -0.9599 -1.5085
  420MOL0     H56669   2.161  11.382   6.465  1.2546  2.2628  0.6706
  420MOL0     H56670   2.397  11.350   6.283  0.5059  0.4332  0.1308
  420MOL0     H56671   2.332  11.218   6.371  0.5224  0.6374 -3.5514
  420MOL0     H56672   2.474  11.443   6.510  1.0809  0.4780 -2.1704
  420MOL0     H56673   2.371  11.317   6.599 -1.6665  1.9878 -0.2057
  420MOL0     H56674   2.612  11.284   6.421 -0.3614  2.4743  0.4151
  420MOL0     H56675   2.543  11.142   6.507 -0.2472 -0.4548  3.0507
  420MOL0     H56676   2.635  11.386   6.660 -1.1271 -0.9131  4.7521
  420MOL0     H56677   2.606  11.228   6.731  1.2836  1.5315  1.6167
  420MOL0     H56678   2.846  11.294   6.721  0.7516 -1.0715 -0.0770
  420MOL0     H56679   2.835  11.313   6.549 -0.3049  0.7586  0.1759
  420MOL0     H56680   2.743  11.052   6.698 -0.5647  1.7029  1.6551
  420MOL0     H56681   2.921  11.090   6.675  0.8070  0.9400 -0.9215
  420MOL0     H56682   2.070  11.385   5.985  0.2415  2.6874  2.4324
  420MOL0     H56683   1.885  11.342   5.824 -1.6559 -1.4132  1.0483
  420MOL0     H56684   1.491  11.180   5.743 -1.9593  0.0507  1.8813
  420MOL0     H56685   1.339  11.115   5.556  1.6235  1.4674 -4.8651
  420MOL0     H56686   1.173  10.491   5.527 -1.5646 -0.3253  1.2295
  420MOL0     H56687   1.359  10.616   5.488  1.4234  0.9673 -4.0950
  420MOL0     H56688   1.784  10.834   5.345 -1.5016 -0.2430 -0.7113
  420MOL0     H56689   1.921  10.998   5.276  0.4822  2.7859 -1.7881
  420MOL0     H56690   1.857  11.417   5.112 -2.4567 -1.0925 -1.3299
  420MOL0     H56691   1.730  11.412   5.234 -0.9337  1.0421 -3.8477
  420MOL0     H56692   1.897  11.429   5.427  2.3369 -0.1161  0.2620
  420MOL0     H56693   1.877  11.569   5.332 -0.8013  0.0400  2.5911
  420MOL0     H56694   2.106  11.545   5.374  0.0837  0.7837 -0.0927
  420MOL0     H56695   2.080  11.500   5.198 -1.3367  0.2930 -0.1104
  420MOL0     H56696   2.247  11.366   5.278  0.5671 -3.6381 -1.4031
  420MOL0     H56697   2.127  11.268   5.215 -0.3286 -0.8214  0.5354
  420MOL0     H56698   2.120  11.161   5.638 -2.1565 -1.4777 -0.9431
  420MOL0     H56699   1.592  11.279   5.262 -2.6193 -1.2611  0.1095
  420MOL0     H56700   1.446  11.091   5.332 -0.4408 -0.2261  0.0140
  421MOL0     O56701   2.172   7.909   6.308  0.0273  0.4448  0.2318
  421MOL0     C56702   2.083   8.000   6.295 -0.2892  0.5573  0.1618
  421MOL0     O56703   2.004   8.012   6.190  0.5000 -0.2046 -0.2255
  421MOL0     C56704   1.973   7.906   6.107  0.0826  0.2890 -0.2532
  421MOL0     C56705   1.953   7.937   5.965 -0.9529 -0.2967 -1.2294
  421MOL0     C56706   1.947   7.833   5.872  1.2932  0.4876 -0.5789
  421MOL0     C56707   1.957   7.696   5.911 -0.3494 -0.2063  0.0226
  421MOL0     O56708   1.952   7.607   5.813 -0.6232 -0.4044 -0.0230
  421MOL0     C56709   1.911   7.477   5.846 -1.3498 -0.1030  0.7539
  421MOL0     C56710   1.764   7.481   5.901  0.4448  0.3601  0.4290
  421MOL0     C56711   1.638   7.469   5.815  0.7672  0.5420  0.1532
  421MOL0     C56712   1.593   7.604   5.761  0.1065 -0.2286  0.3029
  421MOL0     C56713   1.443   7.619   5.740 -0.5795 -0.2956 -0.5042
  421MOL0     C56714   1.393   7.759   5.691  0.3965 -0.3761  0.1713
  421MOL0     C56715   1.400   7.787   5.530 -0.1364  0.0627 -0.1772
  421MOL0     C56716   1.332   7.921   5.487 -0.0659 -0.0303  0.1268
  421MOL0     N56717   1.368   8.037   5.552  0.5794 -0.3658 -0.3097
  421MOL0     C56718   1.484   8.119   5.532  0.0696  0.3583  0.7081
  421MOL0     C56719   1.488   8.201   5.639 -0.2715  0.1551  0.0327
  421MOL0     C56720   1.601   8.302   5.661  0.4007 -0.0732 -0.0711
  421MOL0     C56721   1.600   8.409   5.542 -0.4627  0.8431 -0.1711
  421MOL0     C56722   1.737   8.472   5.526 -1.0596  0.5291 -0.4096
  421MOL0     C56723   1.792   8.524   5.658  0.4519  0.4016 -0.2152
  421MOL0     O56724   1.871   8.424   5.720  0.4958  0.3021 -0.9178
  421MOL0     C56725   1.993   8.452   5.778 -0.5637 -0.4742 -0.3021
  421MOL0     C56726   2.070   8.337   5.826  0.9661 -0.4347  0.0759
  421MOL0     C56727   2.196   8.352   5.876 -0.3828  0.0268 -0.5565
  421MOL0     C56728   2.262   8.214   5.912 -0.0215  0.3120  0.1740
  421MOL0     C56729   2.251   8.480   5.897  0.0716 -0.2529  0.1784
  421MOL0     C56730   2.380   8.505   5.969 -0.3165 -0.4446 -0.8827
  421MOL0     O56731   2.440   8.399   6.036  0.1153  0.3694 -0.1321
  421MOL0     C56732   2.558   8.425   6.102  0.6374  0.3125 -0.5519
  421MOL0     C56733   2.581   8.517   6.207  0.3930 -0.0710 -0.3729
  421MOL0     C56734   2.705   8.513   6.275  0.0486 -0.6001 -0.1518
  421MOL0     C56735   2.801   8.422   6.244 -0.8147  0.1566  0.2631
  421MOL0     O56736   2.914   8.443   6.311 -0.1356 -0.0853 -0.3460
  421MOL0     C56737   2.991   8.323   6.335  0.2285  0.1768  0.3232
  421MOL0     C56738   3.103   8.318   6.231 -0.0247  0.3152  0.7277
  421MOL0     C56739   3.229   8.352   6.307 -0.2232 -0.5092  0.4024
  421MOL0     C56740   3.345   8.334   6.227  0.3768 -0.1678 -0.7196
  421MOL0     C56741   3.476   8.367   6.300 -0.6489 -0.8659 -0.2015
  421MOL0     C56742   3.593   8.331   6.194  0.4235  0.5273  0.6569
  421MOL0     C56743   3.729   8.379   6.254 -0.9573  0.5131 -0.0345
  421MOL0     C56744   3.784   8.267   6.346 -0.2859  0.4669 -0.2588
  421MOL0    Cl56745   3.959   8.299   6.388  0.0207 -0.4932 -0.4043
  421MOL0     C56746   2.772   8.326   6.152  0.4759  0.0405  0.1093
  421MOL0     C56747   2.654   8.325   6.073 -0.2324 -0.3962 -0.8390
  421MOL0     O56748   2.428   8.617   5.951  0.1718  0.5425  0.0809
  421MOL0     C56749   2.176   8.588   5.849  0.0422 -0.6804 -0.3025
  421MOL0     C56750   2.047   8.580   5.794 -1.4403  0.6668  0.2690
  421MOL0     N56751   1.380   8.179   5.717  0.1455  0.8470  0.3412
  421MOL0     N56752   1.315   8.078   5.667  0.7563  1.0020 -0.1759
  421MOL0     C56753   1.972   7.664   6.050 -0.3950 -0.2739 -0.5903
  421MOL0     C56754   1.984   7.770   6.143 -0.8276 -0.8470  0.3641
  421MOL0     C56755   2.060   8.089   6.415 -0.2423  0.0633  0.3526
  421MOL0     C56756   1.956   8.183   6.402 -0.1061 -0.7777  0.8189
  421MOL0     C56757   1.940   8.275   6.503 -0.9045  0.2883 -0.8063
  421MOL0     C56758   2.025   8.287   6.615 -0.8505  0.3652 -1.0968
  421MOL0     O56759   2.005   8.380   6.714 -0.5028  0.6676  0.2362
  421MOL0     C56760   2.077   8.500   6.683  0.4405  0.0336  0.4962
  421MOL0     C56761   2.017   8.615   6.768  0.3541 -0.4233  0.6621
  421MOL0     C56762   1.876   8.637   6.731 -0.0960 -0.0403  0.1570
  421MOL0     C56763   1.809   8.766   6.790 -0.1094  0.4767 -0.4962
  421MOL0     C56764   1.878   8.882   6.738 -0.0809  0.1022  1.1159
  421MOL0     C56765   1.947   8.972   6.681 -0.7660  0.4985  0.2742
  421MOL0     C56766   2.122   8.196   6.630  0.1580 -0.0479 -1.1281
  421MOL0     C56767   2.146   8.092   6.529 -0.3041  0.2639  0.9077
  421MOL0     H56768   1.951   8.041   5.935 -1.3194 -0.0304 -0.3067
  421MOL0     H56769   1.934   7.859   5.768  1.0674 -1.8120 -1.1887
  421MOL0     H56770   1.913   7.409   5.760  0.8341 -2.3211  2.4006
  421MOL0     H56771   1.985   7.428   5.910 -0.6662 -2.4747 -1.6473
  421MOL0     H56772   1.767   7.384   5.952 -1.0564 -1.1334 -2.1001
  421MOL0     H56773   1.746   7.563   5.970 -1.3951  0.6612 -0.3571
  421MOL0     H56774   1.666   7.409   5.729  2.5344  1.9050 -0.2733
  421MOL0     H56775   1.554   7.432   5.875 -1.1581  1.3500 -1.8993
  421MOL0     H56776   1.632   7.683   5.825 -0.0224 -0.7650  1.0534
  421MOL0     H56777   1.648   7.622   5.668  1.1645  0.4316  1.0299
  421MOL0     H56778   1.401   7.540   5.677 -2.3251 -0.9547  1.4069
  421MOL0     H56779   1.396   7.610   5.838  3.1334  1.1418  1.6479
  421MOL0     H56780   1.288   7.776   5.716  0.0802 -0.3673 -1.1029
  421MOL0     H56781   1.457   7.841   5.726  0.1667  1.3126 -3.0039
  421MOL0     H56782   1.508   7.795   5.518 -0.2075  1.1194 -0.2172
  421MOL0     H56783   1.362   7.708   5.466  2.0369  0.1205 -1.6392
  421MOL0     H56784   1.223   7.909   5.490 -0.1793  1.1267  0.9849
  421MOL0     H56785   1.351   7.947   5.383 -1.4622  2.3697  0.3932
  421MOL0     H56786   1.566   8.119   5.462 -0.2983 -2.2439  0.1903
  421MOL0     H56787   1.585   8.354   5.755  2.1524  1.2201 -0.4545
  421MOL0     H56788   1.696   8.248   5.674  2.4223  3.0023 -1.0465
  421MOL0     H56789   1.528   8.488   5.562 -2.6647 -1.6545  2.9788
  421MOL0     H56790   1.587   8.356   5.447 -0.7703 -0.6077  0.6380
  421MOL0     H56791   1.722   8.560   5.462 -3.0966  0.3674 -0.2384
  421MOL0     H56792   1.812   8.400   5.492  0.3790  0.3977  2.7198
  421MOL0     H56793   1.712   8.554   5.726  3.2063  1.6131  2.7610
  421MOL0     H56794   1.837   8.620   5.630 -1.6059  1.6296  0.4302
  421MOL0     H56795   2.008   8.249   5.811 -3.0811  2.0417  0.5759
  421MOL0     H56796   2.255   8.194   6.019 -0.0999 -2.0995 -0.2224
  421MOL0     H56797   2.217   8.141   5.844 -1.4309  1.1733  0.1201
  421MOL0     H56798   2.368   8.212   5.887  0.2111  1.8815  0.9149
  421MOL0     H56799   2.504   8.591   6.226  3.2519  3.6012 -1.8959
  421MOL0     H56800   2.712   8.596   6.345  1.0929  0.1094 -1.0613
  421MOL0     H56801   3.034   8.320   6.435 -0.8159 -0.2916  0.7783
  421MOL0     H56802   2.930   8.232   6.337 -0.6971  0.7873  0.5880
  421MOL0     H56803   3.119   8.224   6.178  2.5514  2.2390 -2.2246
  421MOL0     H56804   3.096   8.392   6.152 -0.3724 -1.6818 -1.2006
  421MOL0     H56805   3.225   8.283   6.392  0.5873 -3.3238 -1.6887
  421MOL0     H56806   3.227   8.451   6.353 -0.7218 -0.8786  1.1887
  421MOL0     H56807   3.328   8.231   6.193 -5.7453  0.0453  0.5283
  421MOL0     H56808   3.346   8.402   6.141  3.7683  0.8607 -0.0316
  421MOL0     H56809   3.489   8.328   6.401  1.4125  1.6821  0.6377
  421MOL0     H56810   3.483   8.476   6.311  0.5582 -0.9242 -0.2693
  421MOL0     H56811   3.599   8.224   6.172 -0.5118  0.5762  0.1227
  421MOL0     H56812   3.577   8.371   6.094  1.1728 -1.4990 -0.3247
  421MOL0     H56813   3.737   8.474   6.306  3.1844 -0.4417  1.4590
  421MOL0     H56814   3.802   8.389   6.173 -0.5649 -1.8086 -0.0610
  421MOL0     H56815   3.783   8.167   6.303  2.2897  0.0111  0.5480
  421MOL0     H56816   3.728   8.264   6.439 -1.4375 -0.8161 -0.9725
  421MOL0     H56817   2.843   8.253   6.117 -0.7267 -1.7255  1.1988
  421MOL0     H56818   2.630   8.252   5.996 -0.8815 -0.5051 -0.5460
  421MOL0     H56819   2.220   8.686   5.864 -0.0486 -0.6315 -0.3536
  421MOL0     H56820   1.982   8.662   5.764 -5.4473 -1.5095  2.3298
  421MOL0     H56821   1.968   7.559   6.077 -1.8668  0.3863  2.1322
  421MOL0     H56822   1.986   7.759   6.251  0.4012  1.4918  0.6341
  421MOL0     H56823   1.889   8.193   6.318  0.3298  2.6521  0.7282
  421MOL0     H56824   1.865   8.354   6.497 -0.1795  1.2336  1.3712
  421MOL0     H56825   2.183   8.480   6.700  0.5480  1.2087  1.2586
  421MOL0     H56826   2.081   8.520   6.576  1.2652 -0.8551  0.3467
  421MOL0     H56827   2.077   8.704   6.751  1.2116 -1.3461 -1.4465
  421MOL0     H56828   2.030   8.580   6.871  0.1581  0.9852  1.1840
  421MOL0     H56829   1.823   8.547   6.764 -2.7236  0.8824 -1.1965
  421MOL0     H56830   1.855   8.632   6.624  0.6245 -1.7290  0.0636
  421MOL0     H56831   1.800   8.760   6.899  2.6844 -2.0419 -0.2857
  421MOL0     H56832   1.716   8.783   6.735  1.0579  0.1260 -2.6669
  421MOL0     H56833   2.008   9.043   6.628 -2.4655  2.0565  0.2905
  421MOL0     H56834   2.184   8.219   6.716  0.3379 -2.0271 -0.6619
  421MOL0     H56835   2.216   8.014   6.557 -0.4825 -0.5509 -0.8331
  422MOL0     O56836   3.087  10.184  10.005  0.0889  0.0818 -1.0645
  422MOL0     C56837   3.176  10.103  10.029  0.9808 -0.2916  0.0134
  422MOL0     O56838   3.288  10.132  10.110  0.0599  0.4488 -0.4289
  422MOL0     C56839   3.311  10.257  10.159  0.4091 -0.1819  0.3167
  422MOL0     C56840   3.398  10.331  10.082  0.4437  0.7139 -0.2362
  422MOL0     C56841   3.425  10.469  10.107  0.4047 -0.1333 -0.3269
  422MOL0     C56842   3.376  10.526  10.222  0.1035 -1.2368 -0.1260
  422MOL0     O56843   3.403  10.658  10.253 -0.4800 -0.3538  0.3279
  422MOL0     C56844   3.526  10.716  10.198  0.5085  1.8684  2.1660
  422MOL0     C56845   3.552  10.847  10.266  0.3291 -0.6414  0.1401
  422MOL0     C56846   3.610  10.832  10.406 -0.2381  0.5148 -0.6724
  422MOL0     C56847   3.504  10.817  10.521  0.6248 -0.2727 -0.2309
  422MOL0     C56848   3.422  10.948  10.545 -0.4679 -0.0608 -0.6177
  422MOL0     C56849   3.307  10.930  10.639 -0.7560 -0.3498  1.5073
  422MOL0     C56850   3.352  10.949  10.788 -0.4619 -0.7150 -0.5942
  422MOL0     C56851   3.227  10.927  10.880  0.1449  0.4068  0.5159
  422MOL0     N56852   3.212  10.782  10.924  0.1725  0.0400 -0.3384
  422MOL0     C56853   3.180  10.671  10.843 -0.0330  1.0424 -0.5146
  422MOL0     C56854   3.168  10.568  10.930  0.4507 -0.1224 -0.0474
  422MOL0     C56855   3.128  10.427  10.890  0.2839 -1.1362  0.2723
  422MOL0     C56856   3.222  10.369  10.783  0.1556 -0.9195 -0.4142
  422MOL0     C56857   3.193  10.221  10.743 -0.1238 -0.1270 -0.1175
  422MOL0     C56858   3.273  10.140  10.836  0.2264  1.0798 -0.6601
  422MOL0     O56859   3.239  10.002  10.818 -0.6598  0.2525 -0.1727
  422MOL0     C56860   3.302   9.931  10.718 -0.8233 -0.6931  0.7179
  422MOL0     C56861   3.270   9.945  10.582  0.2851  0.3584 -0.9258
  422MOL0     C56862   3.331   9.862  10.484  0.7444 -0.2593  0.2789
  422MOL0     C56863   3.286   9.896  10.341  0.4520  0.5953 -0.9500
  422MOL0     C56864   3.409   9.757  10.517  0.0353 -0.0368 -0.4458
  422MOL0     C56865   3.452   9.644  10.430 -0.4394 -0.0771  0.3015
  422MOL0     O56866   3.505   9.528  10.484  0.2958 -0.1688  0.3870
  422MOL0     C56867   3.553   9.430  10.399 -0.2647  0.4838  0.2514
  422MOL0     C56868   3.473   9.367  10.297  0.9073 -0.7043  1.3186
  422MOL0     C56869   3.512   9.243  10.253  0.0021  0.5043 -0.6389
  422MOL0     C56870   3.634   9.180  10.295  0.3753 -0.5682  0.1773
  422MOL0     O56871   3.692   9.058  10.250  0.4873 -0.9077 -0.2600
  422MOL0     C56872   3.668   9.031  10.114 -0.2730 -1.3373  0.8709
  422MOL0     C56873   3.743   9.120  10.017 -0.1142  0.0435  0.4057
  422MOL0     C56874   3.779   9.038   9.891  0.9296 -0.7790 -0.1422
  422MOL0     C56875   3.895   9.103   9.805  0.3866 -0.6227 -0.5188
  422MOL0     C56876   4.025   9.127   9.885 -0.9517  1.0985  0.8103
  422MOL0     C56877   4.103   8.994   9.908 -0.5496  0.2645  0.2249
  422MOL0     C56878   4.236   9.019   9.973  0.6498  0.3333 -0.5529
  422MOL0     C56879   4.289   8.880  10.018 -0.5259 -0.7443 -1.7940
  422MOL0    Cl56880   4.334   8.773   9.869 -0.1766 -0.4654 -0.1302
  422MOL0     C56881   3.713   9.251  10.384 -0.7737 -0.4834 -0.4936
  422MOL0     C56882   3.666   9.365  10.443  0.6122  0.5791  0.0304
  422MOL0     O56883   3.424   9.650  10.309 -0.0990  0.4892  0.1677
  422MOL0     C56884   3.439   9.743  10.649 -0.6543 -0.3512 -0.3545
  422MOL0     C56885   3.387   9.818  10.754  0.6618  0.2773  0.6101
  422MOL0     N56886   3.193  10.613  11.059 -0.3301  0.4856 -1.1388
  422MOL0     N56887   3.229  10.733  11.044 -0.2257  0.2944 -0.0220
  422MOL0     C56888   3.299  10.452  10.312  0.0141 -0.6238 -0.0805
  422MOL0     C56889   3.267  10.315  10.278  0.0556  0.0329  0.0607
  422MOL0     C56890   3.157   9.963   9.987 -0.5853 -0.0786  0.5199
  422MOL0     C56891   3.254   9.864  10.003 -0.4612 -0.0982 -0.1930
  422MOL0     C56892   3.229   9.733   9.963  0.0649  1.1371  0.3829
  422MOL0     C56893   3.106   9.697   9.916 -0.4954  0.8008 -0.5290
  422MOL0     O56894   3.092   9.565   9.875 -0.0105 -0.3101 -0.5127
  422MOL0     C56895   2.954   9.522   9.869  0.0164  0.5242  0.4504
  422MOL0     C56896   2.950   9.374   9.840 -0.6614 -0.0391 -0.1297
  422MOL0     C56897   3.008   9.287   9.953  0.6642 -0.9141  0.2745
  422MOL0     C56898   2.979   9.140   9.936  0.7723 -0.1117 -0.1549
  422MOL0     C56899   3.041   9.098   9.815 -0.9754  0.7250  1.3144
  422MOL0     C56900   3.095   9.063   9.714  0.0293  0.5670  0.5011
  422MOL0     C56901   3.011   9.798   9.897  0.0177 -0.0168  0.9791
  422MOL0     C56902   3.040   9.927   9.925 -0.6628  0.7723 -0.9831
  422MOL0     H56903   3.428  10.295   9.984 -1.6596 -0.5317 -0.4750
  422MOL0     H56904   3.493  10.520  10.039  3.1581 -3.6253 -0.5228
  422MOL0     H56905   3.605  10.640  10.195 -3.4531 -2.7209 -1.5338
  422MOL0     H56906   3.514  10.748  10.094 -2.8261 -0.9477  1.4912
  422MOL0     H56907   3.622  10.902  10.203  1.8460 -1.1856  1.3124
  422MOL0     H56908   3.457  10.903  10.272  0.2010 -0.7173 -0.9047
  422MOL0     H56909   3.669  10.740  10.396  0.1799  0.8781 -1.5991
  422MOL0     H56910   3.684  10.908  10.431 -1.1104  0.6406  1.9212
  422MOL0     H56911   3.442  10.730  10.497  0.6794 -0.6258  0.8411
  422MOL0     H56912   3.562  10.796  10.611 -1.3352 -1.0082  0.9310
  422MOL0     H56913   3.481  11.029  10.589 -2.8537  1.6199 -0.2977
  422MOL0     H56914   3.387  10.981  10.446  1.0768 -5.2605 -3.2490
  422MOL0     H56915   3.239  11.011  10.611  0.1060 -0.5791 -1.6121
  422MOL0     H56916   3.251  10.836  10.626  1.8622 -1.7153 -1.2452
  422MOL0     H56917   3.439  10.887  10.813  0.6862  0.1151 -2.3079
  422MOL0     H56918   3.374  11.056  10.793 -1.2711 -0.5841  0.3018
  422MOL0     H56919   3.135  10.966  10.836  0.6063  1.4034  0.4180
  422MOL0     H56920   3.247  10.976  10.976 -2.5360  1.9738  0.3591
  422MOL0     H56921   3.169  10.671  10.735 -0.4053 -0.5552 -0.4898
  422MOL0     H56922   3.124  10.364  10.980 -2.5139 -1.7060 -0.1542
  422MOL0     H56923   3.026  10.424  10.852  1.2877  0.9464 -3.0089
  422MOL0     H56924   3.323  10.389  10.820 -1.0070  1.3156  1.9398
  422MOL0     H56925   3.208  10.432  10.695 -0.7736  0.0975  0.4263
  422MOL0     H56926   3.217  10.209  10.637 -1.5496  0.8907 -0.6031
  422MOL0     H56927   3.085  10.208  10.760 -0.1377  0.2311  0.0764
  422MOL0     H56928   3.246  10.154  10.941  0.2282  1.4693 -0.7097
  422MOL0     H56929   3.382  10.145  10.842  0.1800  0.4269  1.3239
  422MOL0     H56930   3.196  10.021  10.557 -0.5032  2.1230  5.1276
  422MOL0     H56931   3.375   9.919  10.282  1.8765 -1.8949  0.0585
  422MOL0     H56932   3.233   9.806  10.309  1.7273 -0.6746  0.3529
  422MOL0     H56933   3.209   9.973  10.350  0.7706  0.9960 -1.6044
  422MOL0     H56934   3.377   9.412  10.273  2.2689  1.4424 -0.5296
  422MOL0     H56935   3.441   9.194  10.188 -0.3252 -1.1274  0.8815
  422MOL0     H56936   3.702   8.927  10.105  0.6759 -1.0003  0.4591
  422MOL0     H56937   3.561   9.035  10.091 -0.9519  4.2669  3.3466
  422MOL0     H56938   3.690   9.208   9.981  1.1108  1.6941  2.4100
  422MOL0     H56939   3.825   9.169  10.071  0.2843 -0.2878  0.1125
  422MOL0     H56940   3.696   9.043   9.820  1.3396  4.1118 -0.5985
  422MOL0     H56941   3.822   8.942   9.920  3.3549  0.4101  0.4125
  422MOL0     H56942   3.918   9.037   9.721 -1.0674 -2.1702  0.2288
  422MOL0     H56943   3.861   9.201   9.771 -1.4772 -1.1083 -0.1475
  422MOL0     H56944   4.017   9.176   9.983 -2.4743  3.0665 -0.2180
  422MOL0     H56945   4.094   9.194   9.832 -1.7231  0.6992 -0.7382
  422MOL0     H56946   4.042   8.921   9.962 -1.6091  1.0389  0.1044
  422MOL0     H56947   4.118   8.945   9.811  1.3664  0.5413  0.3391
  422MOL0     H56948   4.231   9.081  10.063  1.6792 -0.0560 -0.2057
  422MOL0     H56949   4.299   9.071   9.901  0.1434  0.2614 -1.0495
  422MOL0     H56950   4.210   8.841  10.084  0.2434 -2.4243 -1.8169
  422MOL0     H56951   4.368   8.887  10.093 -1.3824  1.8197 -1.0149
  422MOL0     H56952   3.803   9.200  10.417  0.5238  0.4943 -2.3807
  422MOL0     H56953   3.722   9.400  10.529  5.2417 -3.3844 -0.8895
  422MOL0     H56954   3.498   9.660  10.685 -0.4492 -0.7563 -1.5932
  422MOL0     H56955   3.394   9.792  10.859 -0.4528 -3.8885 -0.1481
  422MOL0     H56956   3.268  10.500  10.404 -1.0873  1.9217 -1.6540
  422MOL0     H56957   3.205  10.262  10.350 -0.4103  1.4268  0.7116
  422MOL0     H56958   3.350   9.892  10.045 -1.0164 -0.7789  1.6153
  422MOL0     H56959   3.306   9.658   9.979 -0.8676  0.1775  0.4861
  422MOL0     H56960   2.910   9.553   9.964 -0.6381  3.6583 -0.7237
  422MOL0     H56961   2.893   9.561   9.786  1.6386  1.8607 -0.1699
  422MOL0     H56962   3.012   9.355   9.752 -0.5830 -3.7622  0.5611
  422MOL0     H56963   2.849   9.350   9.803 -1.2523  3.4372 -1.1937
  422MOL0     H56964   2.976   9.316  10.053 -3.5071 -0.0883 -1.0913
  422MOL0     H56965   3.116   9.307   9.959  0.4612 -0.2611  2.1714
  422MOL0     H56966   2.871   9.124   9.938  0.6064  1.0303  1.2027
  422MOL0     H56967   3.022   9.085  10.020  0.7791 -0.9362 -0.6822
  422MOL0     H56968   3.138   9.014   9.629  0.0212 -2.5619  2.1685
  422MOL0     H56969   2.917   9.768   9.852  1.6568 -3.4361 -0.5236
  422MOL0     H56970   2.968  10.006   9.905 -1.6846 -0.6643 -3.2986
  423MOL0     O56971   9.720   8.024   4.401 -0.0904 -0.9045 -0.7235
  423MOL0     C56972   9.835   8.008   4.447 -0.6136 -0.6849  0.6098
  423MOL0     O56973   9.941   8.091   4.441  0.0157  0.6471  0.1311
  423MOL0     C56974   9.933   8.219   4.405 -1.1858 -0.2949  0.0290
  423MOL0     C56975   9.998   8.264   4.295  0.9233  0.6142  0.4310
  423MOL0     C56976   9.994   8.394   4.259  0.0562  0.6550  0.8121
  423MOL0     C56977   9.921   8.484   4.335  0.2916  0.1327  0.3662
  423MOL0     O56978   9.892   8.603   4.272 -0.4486 -0.6514  0.0900
  423MOL0     C56979  10.007   8.688   4.240 -0.0375 -0.3232 -0.0039
  423MOL0     C56980   9.982   8.844   4.256 -0.2742  1.2107  0.9586
  423MOL0     C56981  10.116   8.920   4.281  0.1119  0.0809  0.1333
  423MOL0     C56982  10.186   8.925   4.137  0.0335  0.0073 -1.2486
  423MOL0     C56983  10.296   9.034   4.146  0.2375  0.0740  0.3450
  423MOL0     C56984  10.324   9.096   4.014 -0.0685  0.0594 -0.0811
  423MOL0     C56985  10.428   9.217   4.022 -0.0969 -0.4045 -0.7697
  423MOL0     C56986  10.571   9.189   4.071  0.4231 -0.4602  0.6777
  423MOL0     N56987  10.637   9.091   3.983 -0.2243 -0.6086 -0.6518
  423MOL0     C56988  10.702   9.138   3.866 -0.2337 -0.4367  0.5454
  423MOL0     C56989  10.726   9.017   3.803  0.1145 -0.1197 -0.6184
  423MOL0     C56990  10.764   9.006   3.665  0.8558  0.2856 -0.3657
  423MOL0     C56991  10.663   9.075   3.566 -0.1289  0.2633 -0.3028
  423MOL0     C56992  10.514   9.045   3.599  0.8519 -0.4919 -0.4740
  423MOL0     C56993  10.455   9.183   3.637  0.3296 -0.6647 -0.5802
  423MOL0     O56994  10.321   9.171   3.681 -0.3348  0.1410 -0.4788
  423MOL0     C56995  10.233   9.115   3.596  0.6322  0.6232  0.1505
  423MOL0     C56996  10.177   8.988   3.617 -0.1106 -0.3748  0.3910
  423MOL0     C56997  10.092   8.930   3.514 -0.1561 -0.1825 -0.1928
  423MOL0     C56998  10.074   8.770   3.531  1.0960 -0.7623  0.1014
  423MOL0     C56999  10.031   9.018   3.423 -0.1738 -1.1915  0.3689
  423MOL0     C57000   9.914   8.976   3.332 -1.3694  0.2398 -0.7926
  423MOL0     O57001   9.869   8.845   3.330 -0.3712 -0.1389  0.8966
  423MOL0     C57002   9.754   8.794   3.282  0.4971  0.3328  0.1885
  423MOL0     C57003   9.746   8.650   3.277 -0.2985  0.8874  0.6677
  423MOL0     C57004   9.626   8.588   3.236  0.0150 -1.2808 -0.6907
  423MOL0     C57005   9.513   8.658   3.210  0.7081 -0.1535 -0.3468
  423MOL0     O57006   9.391   8.591   3.170 -1.0033  0.3671  0.5504
  423MOL0     C57007   9.402   8.451   3.147  0.4522  0.6401 -0.2064
  423MOL0     C57008   9.264   8.399   3.123 -0.3054 -0.3165 -0.0184
  423MOL0     C57009   9.171   8.413   3.242 -0.4513  0.7348  0.4024
  423MOL0     C57010   9.045   8.347   3.215  1.1766  0.5728 -0.6459
  423MOL0     C57011   8.943   8.391   3.318  1.0269 -0.0237  0.1701
  423MOL0     C57012   8.977   8.322   3.454  0.3247 -0.6366  0.1209
  423MOL0     C57013   8.854   8.279   3.543  0.3436  0.0822 -0.6931
  423MOL0     C57014   8.771   8.398   3.587 -0.1190 -0.2638 -0.4434
  423MOL0    Cl57015   8.865   8.465   3.725  0.6023 -0.1535 -0.0627
  423MOL0     C57016   9.515   8.797   3.214  0.3520 -0.1606 -0.2958
  423MOL0     C57017   9.632   8.862   3.263 -0.0856 -1.2387  0.0247
  423MOL0     O57018   9.876   9.068   3.260 -0.3330  0.1428  0.3937
  423MOL0     C57019  10.078   9.150   3.416 -0.6151 -0.2369  0.0471
  423MOL0     C57020  10.175   9.201   3.504  0.6132  0.5464 -0.3711
  423MOL0     N57021  10.685   8.911   3.878  0.3461  0.1350  0.3580
  423MOL0     N57022  10.629   8.958   3.994 -0.1612 -0.3588  0.1054
  423MOL0     C57023   9.859   8.449   4.455  0.7010  0.4646 -0.6628
  423MOL0     C57024   9.845   8.312   4.477 -0.3955  0.9426  0.0318
  423MOL0     C57025   9.857   7.869   4.507  0.0887  0.3098  0.9807
  423MOL0     C57026   9.992   7.816   4.529 -0.2562  0.4372 -0.4741
  423MOL0     C57027  10.012   7.691   4.579 -0.8873  0.7200  0.2596
  423MOL0     C57028   9.900   7.611   4.617  0.0017 -0.4192  0.8144
  423MOL0     O57029   9.936   7.484   4.665  0.6885  0.2765  0.0610
  423MOL0     C57030   9.841   7.397   4.733 -0.3850 -0.3492  0.3842
  423MOL0     C57031   9.901   7.259   4.769  0.4115  0.0293  0.0062
  423MOL0     C57032   9.806   7.148   4.822  0.2137 -0.3781 -0.3909
  423MOL0     C57033   9.742   7.072   4.701 -0.3364  0.7213  0.0409
  423MOL0     C57034   9.639   7.155   4.642  0.6711 -0.6831 -0.3368
  423MOL0     C57035   9.564   7.238   4.598  0.3509  0.0109  0.2898
  423MOL0     C57036   9.770   7.659   4.606 -0.3390  0.5634  0.1622
  423MOL0     C57037   9.747   7.792   4.554  0.8241  1.1401 -0.2516
  423MOL0     H57038  10.058   8.206   4.225 -0.2933 -2.1582  1.5556
  423MOL0     H57039  10.049   8.423   4.170  0.2994  2.7566  1.5860
  423MOL0     H57040  10.092   8.655   4.301 -2.3347 -0.4220  3.4409
  423MOL0     H57041  10.030   8.672   4.134  0.2419  3.8673 -0.7447
  423MOL0     H57042   9.915   8.876   4.176  0.6377 -1.9072 -1.2277
  423MOL0     H57043   9.924   8.855   4.348 -1.7565  0.4687  0.1534
  423MOL0     H57044  10.087   9.020   4.314  3.2293  0.9853  0.4976
  423MOL0     H57045  10.171   8.879   4.367  1.2821  2.9446  0.8774
  423MOL0     H57046  10.239   8.833   4.111  0.7750  0.9316 -3.1962
  423MOL0     H57047  10.122   8.947   4.051 -1.1495 -0.3127 -0.4756
  423MOL0     H57048  10.269   9.106   4.225 -0.8787  1.2256 -1.0330
  423MOL0     H57049  10.379   8.975   4.185  0.9150 -0.8658 -2.3626
  423MOL0     H57050  10.369   9.019   3.950  2.8771 -0.2797  2.1587
  423MOL0     H57051  10.235   9.142   3.971 -0.4699  1.5226  2.1730
  423MOL0     H57052  10.428   9.273   3.928 -2.0237  1.9750  0.5306
  423MOL0     H57053  10.375   9.291   4.083 -1.9237 -1.5564 -0.8738
  423MOL0     H57054  10.583   9.171   4.178 -0.5927 -3.4000  0.3950
  423MOL0     H57055  10.624   9.284   4.060 -0.2608  0.0620  1.8028
  423MOL0     H57056  10.722   9.234   3.819 -0.2693 -1.4027 -1.5520
  423MOL0     H57057  10.860   9.058   3.656  0.6964  0.7716  0.5706
  423MOL0     H57058  10.778   8.901   3.639  1.7567 -0.1059  1.4918
  423MOL0     H57059  10.683   9.015   3.477  1.8611 -1.3335  1.1306
  423MOL0     H57060  10.693   9.178   3.545  0.5976  0.4881  1.6951
  423MOL0     H57061  10.509   8.980   3.687  2.0278  2.8310  2.2734
  423MOL0     H57062  10.467   9.010   3.506  0.7021  2.9192 -1.8118
  423MOL0     H57063  10.456   9.248   3.549  2.2299 -0.7309 -0.6320
  423MOL0     H57064  10.504   9.236   3.719 -0.9004 -1.4382  0.6996
  423MOL0     H57065  10.214   8.927   3.699 -0.5501 -1.3811 -0.1447
  423MOL0     H57066   9.974   8.730   3.549  2.0847 -3.3006  0.2413
  423MOL0     H57067  10.089   8.729   3.431 -4.1940  2.4804 -2.5149
  423MOL0     H57068  10.137   8.715   3.601 -2.7146 -4.4517  1.0769
  423MOL0     H57069   9.832   8.589   3.304  1.9633  2.8077 -1.6775
  423MOL0     H57070   9.634   8.480   3.243  2.5302 -1.0377  2.1816
  423MOL0     H57071   9.468   8.428   3.063 -1.4398 -0.7755 -1.4012
  423MOL0     H57072   9.446   8.390   3.226 -0.5411  0.1146 -0.0407
  423MOL0     H57073   9.223   8.448   3.034  0.6308  1.0430  0.2770
  423MOL0     H57074   9.284   8.293   3.101  0.6776 -0.3958  1.1635
  423MOL0     H57075   9.146   8.519   3.258  1.5545  1.2177  0.6469
  423MOL0     H57076   9.221   8.371   3.329 -1.2267  1.2355  1.1025
  423MOL0     H57077   9.005   8.379   3.118  0.0752 -2.5361 -1.3501
  423MOL0     H57078   9.051   8.238   3.222  1.9126  0.6643  0.4047
  423MOL0     H57079   8.848   8.349   3.283  1.2415 -0.6382  0.3179
  423MOL0     H57080   8.943   8.501   3.324 -0.7800  0.0229 -0.0506
  423MOL0     H57081   9.024   8.226   3.431 -0.7382 -1.1508  0.0268
  423MOL0     H57082   9.058   8.381   3.498  1.7301 -2.7412  0.5055
  423MOL0     H57083   8.889   8.220   3.629 -0.0832 -0.9483 -1.2058
  423MOL0     H57084   8.786   8.213   3.487 -0.3975 -0.3135  0.6235
  423MOL0     H57085   8.672   8.356   3.610  0.2438 -0.7895  0.2008
  423MOL0     H57086   8.771   8.462   3.499 -1.8534 -0.3712 -0.5639
  423MOL0     H57087   9.423   8.849   3.187  1.4819  1.6323 -0.9097
  423MOL0     H57088   9.620   8.969   3.271  1.2286 -0.9532 -1.3238
  423MOL0     H57089  10.052   9.213   3.331 -1.4366 -0.0610  0.4138
  423MOL0     H57090  10.217   9.300   3.493  0.6790  0.3269 -2.7652
  423MOL0     H57091   9.789   8.518   4.502  1.8209  2.8644 -2.3091
  423MOL0     H57092   9.775   8.278   4.552  0.3055 -1.7683 -0.4116
  423MOL0     H57093  10.086   7.865   4.507 -0.1246 -0.5182 -2.2284
  423MOL0     H57094  10.113   7.650   4.588 -1.6624 -1.1642  1.1073
  423MOL0     H57095   9.800   7.450   4.819  2.8182 -0.7198  2.3009
  423MOL0     H57096   9.756   7.398   4.664  1.0149  1.9336 -1.4435
  423MOL0     H57097   9.981   7.269   4.843  1.9818 -2.3517 -1.2446
  423MOL0     H57098   9.949   7.223   4.678  4.2871  0.7235  1.5568
  423MOL0     H57099   9.737   7.188   4.896  3.0239 -0.1019  2.2704
  423MOL0     H57100   9.860   7.066   4.870  2.2935  0.2427 -1.5525
  423MOL0     H57101   9.701   6.975   4.729 -1.7421  0.4494 -2.6845
  423MOL0     H57102   9.816   7.040   4.627 -2.1776 -2.0549 -0.7190
  423MOL0     H57103   9.501   7.308   4.546 -0.7226  0.7195  2.4218
  423MOL0     H57104   9.686   7.593   4.626 -0.2011  0.4242  0.2926
  423MOL0     H57105   9.646   7.829   4.546  1.0200  1.8830  0.6646
  424MOL0     O57106   8.854   8.610   6.929  0.4299  0.0646 -0.3916
  424MOL0     C57107   8.730   8.593   6.928  0.7167  0.1232 -0.3356
  424MOL0     O57108   8.672   8.483   6.866  0.8946 -0.6576  0.2166
  424MOL0     C57109   8.732   8.362   6.849 -0.4658  0.5086  0.4679
  424MOL0     C57110   8.825   8.306   6.932 -0.0186 -0.7986 -1.0034
  424MOL0     C57111   8.870   8.175   6.901 -0.9899 -0.6660  1.0722
  424MOL0     C57112   8.813   8.094   6.801 -0.5747 -0.6793 -0.0390
  424MOL0     O57113   8.849   7.965   6.798 -0.9046 -0.3357 -0.3937
  424MOL0     C57114   8.766   7.868   6.739 -0.7930 -0.5463  0.0185
  424MOL0     C57115   8.808   7.730   6.785  0.0998  0.2166  0.1505
  424MOL0     C57116   8.761   7.715   6.924  0.5029  0.2866 -0.3800
  424MOL0     C57117   8.727   7.567   6.963  0.7370  0.1355 -0.0508
  424MOL0     C57118   8.602   7.510   6.885  0.3057 -0.7148 -0.1147
  424MOL0     C57119   8.483   7.598   6.912 -0.1292 -0.3067 -0.2908
  424MOL0     C57120   8.353   7.545   6.846  0.3747  1.1401  0.5543
  424MOL0     C57121   8.344   7.534   6.696  0.5440 -1.3839 -0.2443
  424MOL0     N57122   8.373   7.664   6.627  1.2884 -0.4290 -0.5405
  424MOL0     C57123   8.281   7.772   6.609  0.4064 -0.4948 -0.5585
  424MOL0     C57124   8.353   7.860   6.530 -0.4504  0.4382  1.1118
  424MOL0     C57125   8.301   7.993   6.470  0.9853  0.0382 -0.5280
  424MOL0     C57126   8.160   8.037   6.516 -0.0153 -0.7438  0.1797
  424MOL0     C57127   8.135   8.193   6.484 -0.2834  0.1910 -0.3600
  424MOL0     C57128   8.120   8.217   6.336  1.0540  0.7628  0.5648
  424MOL0     O57129   8.064   8.351   6.304 -0.4734 -0.9995  0.8390
  424MOL0     C57130   8.147   8.463   6.324 -0.4070 -0.0637 -0.2439
  424MOL0     C57131   8.283   8.458   6.323 -0.1573  0.2195  0.0289
  424MOL0     C57132   8.360   8.567   6.377 -1.2756 -0.4650  0.1892
  424MOL0     C57133   8.508   8.549   6.394 -0.3464  0.2975 -0.5435
  424MOL0     C57134   8.290   8.693   6.402  0.0246  0.8973 -0.1574
  424MOL0     C57135   8.356   8.819   6.448  0.2394 -0.6110 -0.6547
  424MOL0     O57136   8.276   8.920   6.482 -0.3944  0.0091  0.1410
  424MOL0     C57137   8.327   9.029   6.552 -0.5881 -0.7411  0.0663
  424MOL0     C57138   8.303   9.158   6.503  0.2169 -0.3414 -0.2145
  424MOL0     C57139   8.340   9.276   6.573 -0.0239  0.0283 -0.2520
  424MOL0     C57140   8.422   9.260   6.687  0.5758  1.1472 -0.1908
  424MOL0     O57141   8.466   9.376   6.743  0.2934 -0.0110 -0.7618
  424MOL0     C57142   8.602   9.384   6.700  1.1025 -0.2314  0.2906
  424MOL0     C57143   8.666   9.521   6.680 -0.5089 -0.3115  0.1750
  424MOL0     C57144   8.582   9.611   6.599  0.1822 -0.6451 -0.0454
  424MOL0     C57145   8.630   9.756   6.627  0.0927  0.3697 -0.7376
  424MOL0     C57146   8.768   9.802   6.568  0.0673 -1.1186  0.4952
  424MOL0     C57147   8.814   9.948   6.619  0.7789  0.0018 -0.9099
  424MOL0     C57148   8.952   9.984   6.578 -0.0632  0.0072  0.4696
  424MOL0     C57149   9.009  10.116   6.638 -0.7834  0.3779  0.3376
  424MOL0    Cl57150   8.972  10.258   6.544  0.0751  0.1351 -0.2159
  424MOL0     C57151   8.451   9.128   6.736 -0.4609 -0.8679 -0.1684
  424MOL0     C57152   8.405   9.019   6.665  1.4335 -0.6498 -0.2784
  424MOL0     O57153   8.474   8.829   6.440 -0.0847  0.6683  0.3871
  424MOL0     C57154   8.152   8.696   6.375  0.1342  0.4676 -0.0642
  424MOL0     C57155   8.081   8.581   6.342  0.8687 -0.6231  0.6929
  424MOL0     N57156   8.481   7.809   6.496  0.6331 -0.5463 -0.1492
  424MOL0     N57157   8.489   7.696   6.564 -0.7439  0.2737 -0.7898
  424MOL0     C57158   8.723   8.159   6.718  1.3971  0.3354  0.7065
  424MOL0     C57159   8.679   8.295   6.737 -0.6098 -0.3912  1.1311
  424MOL0     C57160   8.624   8.696   6.960 -0.5031 -0.7975 -0.0574
  424MOL0     C57161   8.654   8.814   7.038 -0.5497 -0.0737 -0.5999
  424MOL0     C57162   8.559   8.919   7.055  0.2814 -1.1858  0.3234
  424MOL0     C57163   8.431   8.896   7.010 -0.2625 -0.4823 -0.1322
  424MOL0     O57164   8.336   8.988   7.043  0.4829 -0.0538 -0.6269
  424MOL0     C57165   8.198   8.956   7.041  1.0961 -0.7935  0.0487
  424MOL0     C57166   8.150   9.035   6.913 -0.3481  0.1390  0.2813
  424MOL0     C57167   7.999   9.075   6.927 -0.4488  0.0811  0.1942
  424MOL0     C57168   7.941   9.107   6.780  0.1674  0.8941 -0.6744
  424MOL0     C57169   7.954   9.250   6.745 -1.0256 -0.1227  0.1057
  424MOL0     C57170   7.956   9.364   6.717 -0.2341 -0.6384  0.8117
  424MOL0     C57171   8.405   8.788   6.934 -0.4598 -0.1692  0.0184
  424MOL0     C57172   8.500   8.687   6.915  0.0824  0.5655 -0.1670
  424MOL0     H57173   8.864   8.363   7.015 -0.5510 -3.0487  0.9077
  424MOL0     H57174   8.941   8.135   6.973 -1.1849 -0.5856  1.3100
  424MOL0     H57175   8.663   7.898   6.760  0.0651  2.2139  0.7415
  424MOL0     H57176   8.781   7.871   6.630 -1.7311  0.1258 -0.1030
  424MOL0     H57177   8.771   7.653   6.716 -0.1881  0.3801  0.1190
  424MOL0     H57178   8.916   7.717   6.779  0.1187  0.8923 -4.0308
  424MOL0     H57179   8.844   7.754   6.984  1.0663 -2.4322  0.7743
  424MOL0     H57180   8.676   7.778   6.952 -0.4766 -0.8573 -0.7105
  424MOL0     H57181   8.804   7.496   6.930  1.2622  2.0601 -3.3916
  424MOL0     H57182   8.716   7.562   7.071  4.4783  1.5012  0.5468
  424MOL0     H57183   8.637   7.513   6.781 -0.2481  4.1588 -0.4275
  424MOL0     H57184   8.581   7.410   6.922  1.6639 -0.8578  0.3398
  424MOL0     H57185   8.464   7.597   7.020  0.5192  3.0068 -0.0283
  424MOL0     H57186   8.506   7.698   6.874 -1.5464 -0.0626 -0.5682
  424MOL0     H57187   8.335   7.450   6.899 -2.2101  0.6171 -1.1100
  424MOL0     H57188   8.263   7.603   6.868  0.5524  0.8487  2.2218
  424MOL0     H57189   8.238   7.525   6.673  0.2760  1.5412 -0.5095
  424MOL0     H57190   8.412   7.455   6.663  1.0840 -1.3145  0.6720
  424MOL0     H57191   8.178   7.785   6.640  0.9397  1.1889  0.6626
  424MOL0     H57192   8.362   8.079   6.500 -4.7022  3.7750  2.0130
  424MOL0     H57193   8.305   7.986   6.361 -2.5915 -1.8511 -0.6764
  424MOL0     H57194   8.146   8.027   6.625  2.2090  0.7739  0.6660
  424MOL0     H57195   8.084   7.972   6.471 -1.6396 -1.1660  3.2124
  424MOL0     H57196   8.218   8.254   6.522 -0.5696  1.2732 -1.4116
  424MOL0     H57197   8.047   8.237   6.531  0.6563  1.0280  0.6575
  424MOL0     H57198   8.059   8.140   6.288  1.7710  0.8161 -0.4666
  424MOL0     H57199   8.212   8.203   6.279  0.5095  1.0024 -0.4077
  424MOL0     H57200   8.329   8.361   6.304 -1.1744 -0.3284  0.2997
  424MOL0     H57201   8.532   8.448   6.358 -1.3938  0.3129 -1.3348
  424MOL0     H57202   8.570   8.610   6.329 -0.7080  1.5191  0.2360
  424MOL0     H57203   8.542   8.557   6.498 -2.2355 -2.8442  0.4741
  424MOL0     H57204   8.260   9.169   6.404 -0.5828  3.9996  0.4081
  424MOL0     H57205   8.328   9.373   6.526  2.1939  1.3839  1.7450
  424MOL0     H57206   8.655   9.333   6.781 -1.6979 -0.8948  1.8595
  424MOL0     H57207   8.622   9.329   6.608  1.0994  1.3472 -0.7038
  424MOL0     H57208   8.688   9.562   6.779  2.8981 -2.7169  0.5461
  424MOL0     H57209   8.762   9.500   6.632  0.1910 -1.0535  1.8440
  424MOL0     H57210   8.479   9.598   6.631  0.9167 -2.0944  1.9456
  424MOL0     H57211   8.582   9.585   6.493  1.1062 -1.1620  0.0643
  424MOL0     H57212   8.557   9.830   6.592  0.5436  1.1012 -0.1609
  424MOL0     H57213   8.631   9.772   6.735 -3.7951 -1.8712 -0.1723
  424MOL0     H57214   8.768   9.795   6.459 -0.1145  1.9815  0.2146
  424MOL0     H57215   8.851   9.739   6.602  1.1852  0.6909  1.2935
  424MOL0     H57216   8.747  10.031   6.594 -1.1895 -0.3320  2.6648
  424MOL0     H57217   8.816   9.942   6.728 -1.1982 -1.0861 -0.8855
  424MOL0     H57218   8.958  10.001   6.470  2.5463  0.2290  0.5712
  424MOL0     H57219   9.024   9.906   6.604 -2.7808 -3.4681 -1.5919
  424MOL0     H57220   9.118  10.109   6.650 -0.8997 -1.4878  0.6992
  424MOL0     H57221   8.964  10.126   6.737 -2.1986 -0.4784 -0.1904
  424MOL0     H57222   8.510   9.135   6.826 -1.0192  0.4723  0.1108
  424MOL0     H57223   8.423   8.921   6.706  0.6613 -0.1542  1.3139
  424MOL0     H57224   8.095   8.787   6.389 -2.7370 -1.1799 -0.2597
  424MOL0     H57225   7.974   8.576   6.324  1.0165  0.0312 -0.5250
  424MOL0     H57226   8.662   8.101   6.650  0.6363 -0.6529  2.1671
  424MOL0     H57227   8.604   8.347   6.679  1.9484  3.4448  0.8945
  424MOL0     H57228   8.753   8.829   7.079  1.2204 -3.7873 -3.0412
  424MOL0     H57229   8.590   9.014   7.098 -0.2925  1.3413 -4.1667
  424MOL0     H57230   8.168   8.853   7.021 -3.4848  0.2958  0.1143
  424MOL0     H57231   8.148   8.996   7.130  1.8174 -0.9527  0.5291
  424MOL0     H57232   8.159   8.979   6.819  2.4954 -0.9980  1.1433
  424MOL0     H57233   8.215   9.122   6.902  2.4721 -1.5973  2.1429
  424MOL0     H57234   7.988   9.169   6.981  3.0495  0.6093  0.2012
  424MOL0     H57235   7.944   8.996   6.978  1.5247 -3.1286 -2.2350
  424MOL0     H57236   7.839   9.069   6.772  1.1154 -3.3139  3.1661
  424MOL0     H57237   7.988   9.041   6.707 -2.6074 -1.1874 -0.7403
  424MOL0     H57238   7.966   9.464   6.679 -1.7050 -0.5290  0.6601
  424MOL0     H57239   8.302   8.764   6.907 -1.3113 -1.3816  3.7802
  424MOL0     H57240   8.458   8.597   6.870 -0.5094 -1.0416  3.2737
  425MOL0     O57241   0.350   7.662   6.343  0.0851  0.0053 -0.3606
  425MOL0     C57242   0.282   7.767   6.337  0.2792  0.5323 -0.2726
  425MOL0     O57243   0.207   7.822   6.440  0.5827 -0.5314  0.1610
  425MOL0     C57244   0.199   7.735   6.543  0.5227 -1.1327 -0.0220
  425MOL0     C57245   0.309   7.702   6.626 -0.8585 -0.5834  0.1643
  425MOL0     C57246   0.297   7.615   6.729  0.4651  0.7622 -0.6302
  425MOL0     C57247   0.164   7.571   6.769  0.0389  0.3545 -0.4287
  425MOL0     O57248   0.144   7.497   6.880 -0.1235 -0.5617 -0.3084
  425MOL0     C57249   0.148   7.573   7.001 -0.0666 -0.7875 -0.4173
  425MOL0     C57250   0.112   7.475   7.113  1.2010 -0.5596 -0.5099
  425MOL0     C57251  -0.029   7.501   7.156 -0.4199 -0.5292 -0.5178
  425MOL0     C57252  -0.077   7.390   7.246  0.1948  0.4695 -0.5443
  425MOL0     C57253  -0.224   7.382   7.249 -0.5693 -0.3839  0.0106
  425MOL0     C57254  -0.283   7.504   7.313  0.0836 -0.3630  0.1639
  425MOL0     C57255  -0.414   7.475   7.390 -0.9874 -0.4830  0.9251
  425MOL0     C57256  -0.467   7.588   7.468  0.2472 -0.5359  0.3425
  425MOL0     N57257  -0.596   7.567   7.535 -0.2481 -0.4178  0.1074
  425MOL0     C57258  -0.719   7.611   7.496  0.4161 -0.2197 -1.0596
  425MOL0     C57259  -0.802   7.568   7.601 -0.3179  0.8056 -0.2204
  425MOL0     C57260  -0.943   7.588   7.611  0.0269 -0.2603 -0.4031
  425MOL0     C57261  -0.996   7.736   7.573  0.0904 -0.2714  0.4898
  425MOL0     C57262  -0.917   7.846   7.635  0.1565  0.2139 -0.2949
  425MOL0     C57263  -0.994   7.975   7.656 -0.0520  0.2587 -0.4063
  425MOL0     O57264  -0.976   8.036   7.527 -0.1156  0.0342  0.2324
  425MOL0     C57265  -0.964   8.179   7.531 -1.0766 -0.4402  0.0044
  425MOL0     C57266  -1.026   8.274   7.615 -0.0279  0.9269 -0.0483
  425MOL0     C57267  -0.996   8.413   7.622 -1.3743 -0.7073  0.3737
  425MOL0     C57268  -1.102   8.488   7.695  0.3327  1.2147  0.3339
  425MOL0     C57269  -0.896   8.457   7.541 -0.1756  0.2045  0.1606
  425MOL0     C57270  -0.850   8.602   7.537  0.3299  0.4972 -0.0459
  425MOL0     O57271  -0.771   8.630   7.430 -0.1886  1.2501 -0.2145
  425MOL0     C57272  -0.752   8.761   7.397 -0.3116  0.5923  0.0414
  425MOL0     C57273  -0.705   8.859   7.490  0.4337  0.9462  0.4178
  425MOL0     C57274  -0.700   9.003   7.463 -1.0728  0.0741 -0.6926
  425MOL0     C57275  -0.719   9.028   7.329 -0.4792 -1.1060 -0.3094
  425MOL0     O57276  -0.697   9.154   7.280  0.2486 -0.2927 -0.5655
  425MOL0     C57277  -0.573   9.219   7.327 -0.4587  0.4104  0.1773
  425MOL0     C57278  -0.532   9.326   7.230 -1.1574 -0.4689 -0.2434
  425MOL0     C57279  -0.622   9.446   7.259 -0.2606  0.3463 -0.4299
  425MOL0     C57280  -0.555   9.571   7.202 -0.7847 -0.3768  0.1841
  425MOL0     C57281  -0.590   9.601   7.051  0.0716  0.8533  0.0358
  425MOL0     C57282  -0.522   9.738   7.033  0.2314  0.7661  0.1977
  425MOL0     C57283  -0.544   9.768   6.878  0.5669 -0.7553 -0.1482
  425MOL0     C57284  -0.470   9.892   6.832 -0.1715  0.0836 -0.0965
  425MOL0    Cl57285  -0.534   9.951   6.668 -0.0438 -0.1217 -0.0767
  425MOL0     C57286  -0.768   8.935   7.233  0.4508 -0.3556 -0.1587
  425MOL0     C57287  -0.782   8.807   7.274 -0.1571  0.1075 -0.4624
  425MOL0     O57288  -0.874   8.680   7.622 -0.2090  0.1456 -0.1702
  425MOL0     C57289  -0.817   8.367   7.461  1.0606 -0.8402 -0.4608
  425MOL0     C57290  -0.861   8.236   7.457 -1.5019  0.2181  0.1503
  425MOL0     N57291  -0.725   7.491   7.691  0.0160  0.0807  0.1750
  425MOL0     N57292  -0.607   7.489   7.651  0.4700  0.0875  0.2631
  425MOL0     C57293   0.057   7.602   6.695  0.1448 -0.1847 -0.6916
  425MOL0     C57294   0.074   7.698   6.584 -0.2455  0.1322  0.4143
  425MOL0     C57295   0.291   7.843   6.204 -0.3665 -0.3062 -0.7960
  425MOL0     C57296   0.239   7.974   6.191 -0.2142  0.3939 -0.6688
  425MOL0     C57297   0.261   8.050   6.077 -0.1321  0.1079  0.5729
  425MOL0     C57298   0.329   7.986   5.968 -0.2075 -0.6285  0.3727
  425MOL0     O57299   0.352   8.053   5.850 -0.4327 -0.2678 -0.0429
  425MOL0     C57300   0.382   7.991   5.729 -0.4398  0.5186  0.7314
  425MOL0     C57301   0.385   8.090   5.627  0.4034 -0.4131  0.3460
  425MOL0     C57302   0.422   8.027   5.493  0.1214 -0.1828 -0.1938
  425MOL0     C57303   0.457   8.130   5.375  0.2709 -0.2364 -0.3578
  425MOL0     C57304   0.337   8.199   5.325 -0.1058  0.9392  1.1828
  425MOL0     C57305   0.248   8.280   5.301 -0.2018  0.5597  0.2054
  425MOL0     C57306   0.371   7.855   5.978  0.2246  0.2264  0.0038
  425MOL0     C57307   0.353   7.783   6.096 -0.6813 -0.8392 -0.6289
  425MOL0     H57308   0.405   7.752   6.614 -0.2433 -1.4690  1.2182
  425MOL0     H57309   0.393   7.605   6.778  0.9476 -2.5807 -1.9476
  425MOL0     H57310   0.251   7.609   7.008  0.0237 -0.7687 -1.7117
  425MOL0     H57311   0.074   7.651   6.983  0.6138 -0.5305 -2.2853
  425MOL0     H57312   0.140   7.370   7.101 -1.4131 -1.7526  2.4568
  425MOL0     H57313   0.164   7.502   7.205 -2.1887  2.5790  0.7154
  425MOL0     H57314  -0.032   7.595   7.210  1.9465 -0.9417  0.4481
  425MOL0     H57315  -0.082   7.515   7.061  1.2530 -1.3761 -1.6268
  425MOL0     H57316  -0.046   7.289   7.217 -2.8968 -0.4734 -0.9387
  425MOL0     H57317  -0.037   7.401   7.348 -0.4426 -0.2737 -0.2015
  425MOL0     H57318  -0.263   7.368   7.148  1.1292 -0.5838 -0.6465
  425MOL0     H57319  -0.251   7.290   7.302  1.4200 -1.2144 -0.3392
  425MOL0     H57320  -0.218   7.551   7.388  0.0819 -0.6477  0.3445
  425MOL0     H57321  -0.300   7.587   7.244  1.5781  1.6594  2.0940
  425MOL0     H57322  -0.485   7.446   7.312  0.7357 -1.2340 -0.4263
  425MOL0     H57323  -0.399   7.385   7.449  1.1989 -3.4281 -3.5325
  425MOL0     H57324  -0.474   7.664   7.389 -2.9600 -1.7469 -0.6819
  425MOL0     H57325  -0.386   7.613   7.538  2.2278 -3.4691 -0.6965
  425MOL0     H57326  -0.756   7.677   7.418 -2.3710  3.7927  3.1315
  425MOL0     H57327  -1.002   7.532   7.538  0.7577 -2.2704  0.4700
  425MOL0     H57328  -0.976   7.567   7.713  3.1264  2.5354  1.4057
  425MOL0     H57329  -1.102   7.743   7.598 -0.4759  0.8365 -1.9859
  425MOL0     H57330  -0.990   7.750   7.465  0.3195  0.3621  0.5773
  425MOL0     H57331  -0.823   7.854   7.579  0.8089  0.1492  0.7694
  425MOL0     H57332  -0.894   7.810   7.735  1.3688  1.0445 -0.2482
  425MOL0     H57333  -0.950   8.032   7.739 -0.2657 -0.3090  0.1088
  425MOL0     H57334  -1.099   7.957   7.682 -0.1263 -0.5017 -1.2022
  425MOL0     H57335  -1.103   8.222   7.670  0.7514 -1.2073 -0.8934
  425MOL0     H57336  -1.127   8.424   7.780 -0.2610 -3.4671 -2.9646
  425MOL0     H57337  -1.083   8.591   7.726 -3.7717  1.4892  2.6929
  425MOL0     H57338  -1.187   8.489   7.625  1.7614  2.3100 -1.4667
  425MOL0     H57339  -0.685   8.819   7.588 -2.5702 -2.3450 -0.1266
  425MOL0     H57340  -0.670   9.083   7.529 -1.8933  0.7442 -1.1128
  425MOL0     H57341  -0.578   9.258   7.429  1.1523  1.1099  0.0128
  425MOL0     H57342  -0.496   9.142   7.332  0.1677  0.6152 -3.5050
  425MOL0     H57343  -0.426   9.352   7.230 -1.4764  1.1607 -2.4488
  425MOL0     H57344  -0.541   9.279   7.131 -2.3098 -1.0345  0.1054
  425MOL0     H57345  -0.637   9.440   7.367  0.9043 -1.9050 -0.3201
  425MOL0     H57346  -0.717   9.413   7.213  0.6999 -0.6058 -1.8150
  425MOL0     H57347  -0.599   9.660   7.248  0.2975 -0.0667  0.6635
  425MOL0     H57348  -0.447   9.575   7.220 -0.5305  1.0443 -1.3763
  425MOL0     H57349  -0.699   9.610   7.047  0.0380  0.8046  0.7271
  425MOL0     H57350  -0.552   9.524   6.983 -0.3460  0.1911  0.5344
  425MOL0     H57351  -0.570   9.808   7.102 -0.2359  0.9171 -0.2813
  425MOL0     H57352  -0.414   9.718   7.036  0.7280  2.1346 -3.5084
  425MOL0     H57353  -0.652   9.786   6.868 -0.1176 -2.5688  2.8944
  425MOL0     H57354  -0.512   9.681   6.821  2.1163 -0.1535 -0.2430
  425MOL0     H57355  -0.363   9.874   6.818 -0.5456 -0.4180 -2.9662
  425MOL0     H57356  -0.484   9.969   6.908  0.4658 -1.6028  1.8457
  425MOL0     H57357  -0.788   8.966   7.131  0.0684 -0.8853 -0.2446
  425MOL0     H57358  -0.829   8.736   7.206  0.8368  0.6549 -1.7812
  425MOL0     H57359  -0.725   8.394   7.410  0.5719 -0.2218 -1.0503
  425MOL0     H57360  -0.800   8.165   7.402 -2.2609 -1.4712  1.3724
  425MOL0     H57361  -0.044   7.565   6.714 -0.2505 -0.2989 -2.7485
  425MOL0     H57362  -0.014   7.733   6.530  0.5575 -0.8136 -1.6100
  425MOL0     H57363   0.176   8.013   6.271 -0.4554 -1.2491 -0.0117
  425MOL0     H57364   0.216   8.148   6.064 -1.2209 -0.6797 -2.6180
  425MOL0     H57365   0.475   7.933   5.732 -1.8017 -1.7936  0.2568
  425MOL0     H57366   0.303   7.919   5.710  1.4916 -1.9322  1.4749
  425MOL0     H57367   0.459   8.169   5.645 -0.3075  0.5486 -0.7927
  425MOL0     H57368   0.286   8.136   5.633 -0.7191 -2.7710  1.3298
  425MOL0     H57369   0.335   7.976   5.450  0.1896 -0.6623  0.2378
  425MOL0     H57370   0.514   7.970   5.507  1.2912  1.4529 -0.8869
  425MOL0     H57371   0.501   8.079   5.289  0.8011 -0.4750  0.0441
  425MOL0     H57372   0.523   8.206   5.419 -0.5299  1.6535 -2.2566
  425MOL0     H57373   0.170   8.342   5.261 -0.1538 -1.9195 -4.4851
  425MOL0     H57374   0.429   7.802   5.904  0.2378 -1.1552  0.9602
  425MOL0     H57375   0.385   7.680   6.102 -0.4944 -0.7109  1.0655
  426MOL0     O57376   3.550   1.228   7.128 -0.5008 -0.1046 -0.3277
  426MOL0     C57377   3.647   1.311   7.136 -0.4858  1.2359 -0.7129
  426MOL0     O57378   3.645   1.444   7.113  0.0742 -1.0703  0.2076
  426MOL0     C57379   3.554   1.527   7.042 -0.3889  2.1195 -1.5875
  426MOL0     C57380   3.607   1.637   6.975  0.2398 -0.6725  0.2652
  426MOL0     C57381   3.524   1.716   6.897  1.1905  0.1994  0.2628
  426MOL0     C57382   3.388   1.668   6.876 -0.0834  1.4514 -0.1897
  426MOL0     O57383   3.285   1.723   6.804 -0.1641 -0.3271  0.4318
  426MOL0     C57384   3.330   1.850   6.758 -0.6045  0.9759  0.4600
  426MOL0     C57385   3.229   1.933   6.688  0.1604  0.4148  0.1494
  426MOL0     C57386   3.090   1.935   6.759 -0.8674  0.4378 -0.2412
  426MOL0     C57387   3.018   2.063   6.733  0.1669  0.0523 -0.4867
  426MOL0     C57388   2.878   2.067   6.793 -0.3658 -0.6684 -0.3836
  426MOL0     C57389   2.778   2.166   6.722 -0.0912 -0.4867  0.7454
  426MOL0     C57390   2.654   2.195   6.811  0.1940 -1.5343  0.3023
  426MOL0     C57391   2.550   2.085   6.799  0.6395  0.2721  0.2443
  426MOL0     N57392   2.428   2.112   6.863 -0.5986  0.9226 -0.7861
  426MOL0     C57393   2.307   2.055   6.829  0.5447 -0.3721 -0.0247
  426MOL0     C57394   2.231   2.122   6.915 -0.4601  0.1989 -0.1988
  426MOL0     C57395   2.078   2.106   6.909 -0.5666 -0.4252  0.9206
  426MOL0     C57396   2.010   2.045   7.027  0.1400 -0.0949  0.2848
  426MOL0     C57397   2.035   1.897   7.036  0.6926  0.8268  0.1609
  426MOL0     C57398   1.910   1.833   7.115 -0.1617 -0.8697 -0.1678
  426MOL0     O57399   1.801   1.830   7.022 -0.2562 -0.6807  0.1303
  426MOL0     C57400   1.695   1.748   7.060 -0.9730  0.0699  0.6435
  426MOL0     C57401   1.692   1.611   7.084 -0.1948  0.7672 -0.3210
  426MOL0     C57402   1.590   1.532   7.132  0.0868 -0.9245  1.1437
  426MOL0     C57403   1.615   1.382   7.153 -0.2935  0.3949 -0.5656
  426MOL0     C57404   1.470   1.608   7.158  0.6624 -0.6172  0.3146
  426MOL0     C57405   1.342   1.548   7.202 -0.5608  0.5097  0.4378
  426MOL0     O57406   1.251   1.641   7.261 -0.1587  0.2773 -0.8726
  426MOL0     C57407   1.132   1.586   7.299 -0.6581 -0.3575  0.5483
  426MOL0     C57408   1.103   1.508   7.411 -0.4577  0.0767 -1.3022
  426MOL0     C57409   0.970   1.461   7.435 -0.4642 -0.2126 -0.0542
  426MOL0     C57410   0.873   1.486   7.340 -0.4729  0.2707 -1.5864
  426MOL0     O57411   0.745   1.447   7.348  0.1625  0.7913  0.1026
  426MOL0     C57412   0.710   1.339   7.426 -0.9809  0.4793  0.4011
  426MOL0     C57413   0.565   1.322   7.419  0.4216  0.1307 -0.4901
  426MOL0     C57414   0.519   1.187   7.464  0.1549 -0.0212  0.6700
  426MOL0     C57415   0.556   1.157   7.618  0.3633  0.7340 -0.2703
  426MOL0     C57416   0.554   1.002   7.630  0.5176  0.0885 -0.0816
  426MOL0     C57417   0.420   0.929   7.596 -0.1124  0.8472  0.4187
  426MOL0     C57418   0.449   0.771   7.589  0.1421 -0.2799  0.5877
  426MOL0     C57419   0.515   0.744   7.456  0.1705  0.5409 -0.3743
  426MOL0    Cl57420   0.391   0.755   7.330  0.1613 -0.0066 -0.1056
  426MOL0     C57421   0.901   1.565   7.232 -0.3356 -0.2346  0.2235
  426MOL0     C57422   1.024   1.616   7.211 -0.1957  0.3447 -0.5123
  426MOL0     O57423   1.316   1.431   7.187 -0.2738 -0.0880 -0.1800
  426MOL0     C57424   1.460   1.739   7.126 -1.6124 -0.6356  0.6813
  426MOL0     C57425   1.573   1.813   7.081 -0.6170 -0.4020  0.7442
  426MOL0     N57426   2.301   2.193   7.003  1.1676  0.4460 -0.4055
  426MOL0     N57427   2.421   2.181   6.980 -0.9008 -0.1786  0.0895
  426MOL0     C57428   3.338   1.556   6.949 -0.2000 -0.6755 -0.0482
  426MOL0     C57429   3.420   1.495   7.041 -0.5682  0.5424 -0.0271
  426MOL0     C57430   3.775   1.251   7.201 -0.1943  0.1648  0.6786
  426MOL0     C57431   3.798   1.110   7.225  0.1127  0.5365 -0.1894
  426MOL0     C57432   3.915   1.064   7.275  0.2324 -0.0417  0.0791
  426MOL0     C57433   4.022   1.156   7.315  0.9939 -0.5388  0.9352
  426MOL0     O57434   4.142   1.105   7.364  0.4030  0.3230  0.1569
  426MOL0     C57435   4.234   1.196   7.422  0.1704  0.1635  0.1169
  426MOL0     C57436   4.361   1.117   7.437 -0.6723  0.0935  0.6833
  426MOL0     C57437   4.434   1.081   7.305 -1.1310 -0.3696 -0.2498
  426MOL0     C57438   4.547   0.982   7.324  0.0740 -0.2327 -0.6231
  426MOL0     C57439   4.494   0.856   7.274 -0.2270 -0.4686 -0.1424
  426MOL0     C57440   4.424   0.774   7.220 -0.6512 -0.4633  0.5646
  426MOL0     C57441   4.001   1.293   7.285  0.1238 -0.1854 -0.1060
  426MOL0     C57442   3.883   1.339   7.233  0.5642 -0.4663  0.4464
  426MOL0     H57443   3.712   1.661   6.978 -0.5004  3.1358  3.2782
  426MOL0     H57444   3.568   1.794   6.835  0.6738  1.7402  1.7434
  426MOL0     H57445   3.366   1.916   6.839 -3.8512  2.7208  0.6676
  426MOL0     H57446   3.418   1.821   6.701 -2.5972  0.1042 -2.3678
  426MOL0     H57447   3.272   2.034   6.697 -0.8704  0.6898  3.6864
  426MOL0     H57448   3.223   1.896   6.586 -2.0736  0.4336  0.2374
  426MOL0     H57449   3.028   1.861   6.708  0.0298  0.1350 -0.8990
  426MOL0     H57450   3.084   1.904   6.864  0.0635  0.4336 -0.1807
  426MOL0     H57451   3.067   2.149   6.779  0.3255  2.3911 -4.6230
  426MOL0     H57452   3.009   2.085   6.626 -1.7618  1.7741 -0.0419
  426MOL0     H57453   2.830   1.968   6.794  1.1690 -1.4337  0.3096
  426MOL0     H57454   2.890   2.087   6.900  0.3577  0.7468 -0.7118
  426MOL0     H57455   2.830   2.256   6.689 -1.6323  0.5571  1.0390
  426MOL0     H57456   2.752   2.116   6.628  1.3812 -0.4307  0.2933
  426MOL0     H57457   2.689   2.205   6.914 -0.2153 -2.2950  0.5202
  426MOL0     H57458   2.609   2.294   6.801  3.1743 -0.0359  0.3503
  426MOL0     H57459   2.583   1.991   6.844  1.9913 -1.3138 -3.6414
  426MOL0     H57460   2.541   2.063   6.692  1.5903 -0.9467  0.3925
  426MOL0     H57461   2.278   1.992   6.745 -0.1264 -1.3440  0.9153
  426MOL0     H57462   2.035   2.206   6.898 -0.4795 -0.3909  0.8919
  426MOL0     H57463   2.052   2.050   6.819 -0.5997  2.7145 -1.1682
  426MOL0     H57464   1.902   2.056   7.013  0.4659  2.8628 -0.5662
  426MOL0     H57465   2.042   2.103   7.114 -0.4972 -0.6313  0.8826
  426MOL0     H57466   2.121   1.888   7.102  0.7636  2.0293  0.2420
  426MOL0     H57467   2.045   1.843   6.941  1.7854 -3.0342  2.2465
  426MOL0     H57468   1.891   1.895   7.203  0.3116 -1.2187  0.1897
  426MOL0     H57469   1.929   1.728   7.140 -0.5310 -0.9555 -0.2380
  426MOL0     H57470   1.784   1.562   7.054  1.4344  2.7541  1.1562
  426MOL0     H57471   1.722   1.358   7.156 -0.7071 -1.6009 -0.0992
  426MOL0     H57472   1.569   1.353   7.248 -2.3560  0.0184 -1.6302
  426MOL0     H57473   1.571   1.313   7.080  1.5870 -1.6896  0.1446
  426MOL0     H57474   1.191   1.477   7.466 -0.6471 -2.8470 -2.4877
  426MOL0     H57475   0.946   1.399   7.520  1.1983 -0.4305  0.2979
  426MOL0     H57476   0.772   1.255   7.394  1.6393  0.6876  4.2077
  426MOL0     H57477   0.736   1.360   7.530  1.9278  0.4017 -0.2476
  426MOL0     H57478   0.526   1.405   7.479  2.0918  2.9444 -2.9727
  426MOL0     H57479   0.531   1.336   7.316  1.0662 -1.8672 -1.0224
  426MOL0     H57480   0.575   1.115   7.405  3.5922  4.6757 -2.4584
  426MOL0     H57481   0.416   1.183   7.428  1.5376  2.6952 -4.4643
  426MOL0     H57482   0.650   1.202   7.652  0.3747  1.0233 -0.6822
  426MOL0     H57483   0.476   1.200   7.678  0.4353  0.7687 -0.1989
  426MOL0     H57484   0.554   0.975   7.736 -3.5536  1.3745  0.4237
  426MOL0     H57485   0.648   0.968   7.586  2.1161  3.0928  0.7275
  426MOL0     H57486   0.350   0.947   7.678  0.2837  1.4474  0.6343
  426MOL0     H57487   0.361   0.961   7.510 -0.4496 -0.4997  0.1206
  426MOL0     H57488   0.360   0.709   7.604  0.1867  0.1348  3.1285
  426MOL0     H57489   0.513   0.740   7.673  1.3241  0.4464 -0.0158
  426MOL0     H57490   0.542   0.638   7.460 -0.0730  0.4833 -0.2894
  426MOL0     H57491   0.607   0.803   7.446  1.5338 -1.0646  1.6972
  426MOL0     H57492   0.817   1.586   7.167  1.5761  4.6367 -1.1365
  426MOL0     H57493   1.028   1.683   7.126  0.5215 -0.1871 -0.9025
  426MOL0     H57494   1.362   1.784   7.126 -1.0886  0.6852 -1.8342
  426MOL0     H57495   1.569   1.915   7.045  1.0474 -0.9910 -1.2783
  426MOL0     H57496   3.240   1.509   6.947 -0.6907 -0.1675  3.9647
  426MOL0     H57497   3.386   1.413   7.103  0.9598  1.0066  1.4631
  426MOL0     H57498   3.722   1.037   7.197  0.0939  1.8545 -4.3566
  426MOL0     H57499   3.941   0.959   7.285  1.3488  0.1542 -0.6046
  426MOL0     H57500   4.251   1.267   7.341  0.6590 -2.2622 -2.0189
  426MOL0     H57501   4.200   1.233   7.519  0.5204  1.9834 -0.4068
  426MOL0     H57502   4.334   1.019   7.478 -0.8694 -1.8331 -3.5534
  426MOL0     H57503   4.417   1.170   7.515 -3.4324  1.6314  1.7993
  426MOL0     H57504   4.476   1.171   7.257 -1.2825 -1.2589 -2.1635
  426MOL0     H57505   4.362   1.057   7.227 -2.1612 -1.2035  0.9286
  426MOL0     H57506   4.579   0.978   7.428 -2.8036  2.8880  0.5516
  426MOL0     H57507   4.632   1.011   7.260 -1.6235  4.1005 -1.2558
  426MOL0     H57508   4.358   0.714   7.160 -1.1992  1.3039 -0.6862
  426MOL0     H57509   4.074   1.370   7.308  2.9564 -2.1160 -1.9234
  426MOL0     H57510   3.868   1.445   7.216 -0.6867 -0.6945  0.0802
  427MOL0     O57511   0.508   2.359   5.476 -0.2495 -0.0862 -0.6248
  427MOL0     C57512   0.498   2.341   5.360 -0.5443 -0.4969 -0.2791
  427MOL0     O57513   0.553   2.232   5.287  0.2107 -0.8321 -0.2609
  427MOL0     C57514   0.589   2.118   5.356  0.9071  0.0006 -0.4955
  427MOL0     C57515   0.694   2.117   5.448  0.0703  0.1964 -0.4268
  427MOL0     C57516   0.734   1.999   5.521  0.2501 -0.5063 -0.6102
  427MOL0     C57517   0.662   1.876   5.508 -0.3496  0.4742 -0.7848
  427MOL0     O57518   0.724   1.772   5.579  0.1631 -1.3145  0.6577
  427MOL0     C57519   0.719   1.645   5.512 -0.3904  0.6051  0.1056
  427MOL0     C57520   0.816   1.553   5.575  0.1026  0.2228  0.1687
  427MOL0     C57521   0.793   1.547   5.727  0.4593  0.3511 -0.2415
  427MOL0     C57522   0.904   1.453   5.779 -0.2182  0.0980  1.0036
  427MOL0     C57523   0.913   1.432   5.933 -0.2019  0.4199  0.3945
  427MOL0     C57524   1.008   1.308   5.966  0.3955 -0.3201 -0.1069
  427MOL0     C57525   0.956   1.241   6.093  0.6198 -0.1674 -0.6476
  427MOL0     C57526   1.053   1.158   6.183  0.4542 -1.1343 -0.0337
  427MOL0     N57527   1.131   1.051   6.115 -0.5917 -0.0701  0.3926
  427MOL0     C57528   1.113   0.923   6.151 -0.6610  0.6483 -0.5896
  427MOL0     C57529   1.185   0.843   6.067  1.1465  0.5107 -0.3995
  427MOL0     C57530   1.218   0.698   6.081 -0.5531  0.7002 -0.5133
  427MOL0     C57531   1.104   0.609   6.028  0.6548 -0.4091 -0.0323
  427MOL0     C57532   1.063   0.625   5.882  0.1125  0.9066  0.5054
  427MOL0     C57533   1.160   0.580   5.773 -0.4722  0.6340 -0.0593
  427MOL0     O57534   1.249   0.690   5.745  0.5100  0.2082 -0.1975
  427MOL0     C57535   1.233   0.777   5.642  0.2521  0.2615 -0.4777
  427MOL0     C57536   1.269   0.901   5.650 -0.3043 -0.3652 -0.4720
  427MOL0     C57537   1.242   0.995   5.555 -0.0283  0.9031  0.3094
  427MOL0     C57538   1.296   1.135   5.563 -0.6753  0.3826  0.1130
  427MOL0     C57539   1.180   0.952   5.437  0.3569 -1.1835 -0.2551
  427MOL0     C57540   1.159   1.033   5.316  0.2128  0.4037 -0.1623
  427MOL0     O57541   1.270   1.078   5.252 -0.3540 -0.1216  0.7460
  427MOL0     C57542   1.263   1.165   5.145 -0.3193 -0.1826 -0.1766
  427MOL0     C57543   1.378   1.147   5.065  0.3391 -0.1243 -0.3015
  427MOL0     C57544   1.386   1.215   4.945 -0.0449 -0.1860  0.1393
  427MOL0     C57545   1.286   1.301   4.898  0.1061  0.5667 -0.3733
  427MOL0     O57546   1.302   1.374   4.780 -0.3212  0.3505 -0.6180
  427MOL0     C57547   1.371   1.315   4.673 -0.7879  0.3775  0.4280
  427MOL0     C57548   1.333   1.384   4.534 -0.4470 -0.3430 -0.4627
  427MOL0     C57549   1.389   1.526   4.524 -0.7501  0.2907 -0.3479
  427MOL0     C57550   1.539   1.543   4.481  0.4510  0.7883 -0.1967
  427MOL0     C57551   1.552   1.555   4.328 -0.2523  0.5849  0.2484
  427MOL0     C57552   1.704   1.572   4.290  0.3042  0.5400 -0.2297
  427MOL0     C57553   1.750   1.709   4.333 -0.3513  0.3720  0.0247
  427MOL0     C57554   1.852   1.766   4.233 -0.9278  0.9333 -0.0124
  427MOL0    Cl57555   1.774   1.797   4.080  0.4258  0.1366  0.0958
  427MOL0     C57556   1.170   1.313   4.973  0.1772 -0.4709  0.0299
  427MOL0     C57557   1.161   1.247   5.101 -0.1224 -0.6249  0.3068
  427MOL0     O57558   1.042   1.047   5.280  0.4902  0.2480  0.1560
  427MOL0     C57559   1.143   0.812   5.418 -0.9305  0.8585  0.0097
  427MOL0     C57560   1.173   0.722   5.529  0.0697 -0.3446 -0.6419
  427MOL0     N57561   1.249   0.930   5.979 -0.1296 -0.7228 -0.3346
  427MOL0     N57562   1.219   1.054   6.012 -0.1152 -0.2135 -0.8822
  427MOL0     C57563   0.551   1.874   5.419 -0.8228  1.1399 -0.0157
  427MOL0     C57564   0.521   1.991   5.345 -0.2833  0.6978  0.1568
  427MOL0     C57565   0.426   2.435   5.279 -0.8195  0.5619  0.8451
  427MOL0     C57566   0.395   2.412   5.149 -0.2066  0.5679 -1.0776
  427MOL0     C57567   0.324   2.510   5.075 -1.0108 -0.6076  0.7420
  427MOL0     C57568   0.295   2.636   5.125  0.3096 -0.1182  0.3124
  427MOL0     O57569   0.237   2.722   5.039 -0.2438  0.8726  0.3032
  427MOL0     C57570   0.092   2.720   5.042 -0.9223  0.0396  0.1879
  427MOL0     C57571   0.045   2.720   4.899 -0.8228 -0.4377  0.5301
  427MOL0     C57572   0.069   2.857   4.832 -0.1377  0.6680  0.5673
  427MOL0     C57573   0.083   2.857   4.685 -0.0084  0.3097  0.3824
  427MOL0     C57574  -0.039   2.808   4.621  0.3130  0.5464 -0.8727
  427MOL0     C57575  -0.135   2.772   4.557  0.3113 -0.3841 -0.2914
  427MOL0     C57576   0.320   2.662   5.261 -0.5745  0.4284 -0.8534
  427MOL0     C57577   0.393   2.559   5.331 -0.3977 -1.0557  0.1274
  427MOL0     H57578   0.745   2.213   5.447 -0.0307  0.2844  1.0713
  427MOL0     H57579   0.829   2.007   5.573 -0.5577  2.1193  0.6482
  427MOL0     H57580   0.621   1.598   5.512  0.1115 -0.5434  1.6641
  427MOL0     H57581   0.747   1.652   5.407  3.0124  2.9989  1.0016
  427MOL0     H57582   0.790   1.456   5.532 -0.3746  0.6211 -0.4468
  427MOL0     H57583   0.916   1.586   5.544  1.2779 -4.1002 -1.3990
  427MOL0     H57584   0.815   1.643   5.776  4.8752 -0.5476 -0.0484
  427MOL0     H57585   0.696   1.505   5.757  0.9437  0.9218  2.4187
  427MOL0     H57586   0.874   1.361   5.729  0.7522 -0.5057  1.5052
  427MOL0     H57587   1.003   1.476   5.739 -0.2988 -3.3630 -1.5823
  427MOL0     H57588   0.954   1.515   5.991 -0.4702  1.8728 -1.4056
  427MOL0     H57589   0.807   1.410   5.953 -0.7435 -0.2097 -2.6537
  427MOL0     H57590   1.000   1.239   5.881 -2.1656 -0.4849  0.2131
  427MOL0     H57591   1.108   1.352   5.971  0.7184 -0.8462 -1.3091
  427MOL0     H57592   0.923   1.327   6.152  2.0366  0.6569 -1.0019
  427MOL0     H57593   0.876   1.169   6.073 -1.7379  2.3590 -0.8858
  427MOL0     H57594   0.997   1.114   6.267  0.3387 -0.5182  0.2154
  427MOL0     H57595   1.133   1.221   6.223 -1.0554  0.8161  0.0883
  427MOL0     H57596   1.054   0.879   6.231 -2.7948 -2.2565 -3.4842
  427MOL0     H57597   1.315   0.669   6.039 -0.1193  1.1513  0.1512
  427MOL0     H57598   1.239   0.680   6.187  2.5071 -2.6575 -1.4731
  427MOL0     H57599   1.016   0.618   6.092  0.2722  0.2331 -0.6358
  427MOL0     H57600   1.135   0.506   6.044 -1.7063 -1.0780  0.7153
  427MOL0     H57601   1.055   0.733   5.861 -0.9748  1.1126  1.8003
  427MOL0     H57602   0.965   0.578   5.866  0.0505  1.4511 -0.9394
  427MOL0     H57603   1.103   0.549   5.685  0.1751  1.9308 -0.9657
  427MOL0     H57604   1.221   0.494   5.801 -0.8270  0.0982 -0.8950
  427MOL0     H57605   1.319   0.935   5.740 -5.0974  0.1171  2.3512
  427MOL0     H57606   1.320   1.182   5.659  0.4953  2.2384 -1.0130
  427MOL0     H57607   1.392   1.125   5.510 -0.7800 -0.4789  0.0775
  427MOL0     H57608   1.232   1.212   5.518 -0.0124  3.5862  4.0124
  427MOL0     H57609   1.464   1.084   5.090  0.2055 -0.6505 -1.1161
  427MOL0     H57610   1.482   1.211   4.895  1.8203 -0.7446  3.4732
  427MOL0     H57611   1.475   1.331   4.701 -1.8266  0.7555  4.7618
  427MOL0     H57612   1.358   1.207   4.661 -4.1464  0.6149  0.9395
  427MOL0     H57613   1.387   1.321   4.462  0.0384  0.1656 -0.5487
  427MOL0     H57614   1.225   1.375   4.518 -0.5645 -2.3079  1.0974
  427MOL0     H57615   1.388   1.567   4.625  2.6920 -1.7603  0.7094
  427MOL0     H57616   1.332   1.589   4.454 -1.1916 -0.7748 -0.9811
  427MOL0     H57617   1.581   1.634   4.525 -0.2220  1.6251 -1.2334
  427MOL0     H57618   1.603   1.458   4.509 -1.0958 -0.9139 -1.5364
  427MOL0     H57619   1.478   1.621   4.282  0.8727  2.5809  1.2131
  427MOL0     H57620   1.532   1.453   4.292  0.4864 -0.3097  2.2049
  427MOL0     H57621   1.756   1.490   4.340 -0.4273  1.8530  2.9553
  427MOL0     H57622   1.702   1.560   4.182  1.7762  0.8840 -0.3187
  427MOL0     H57623   1.812   1.701   4.422  3.8655 -1.3098 -2.7119
  427MOL0     H57624   1.675   1.780   4.367  0.1393  0.3650  1.1667
  427MOL0     H57625   1.934   1.694   4.228  0.2573  2.2397 -0.0794
  427MOL0     H57626   1.903   1.859   4.258 -0.6710  0.2802  2.0960
  427MOL0     H57627   1.082   1.364   4.935  1.5408  2.9394  1.0779
  427MOL0     H57628   1.076   1.268   5.165 -2.2735  2.3942 -3.1295
  427MOL0     H57629   1.111   0.768   5.324 -1.3898  0.6434  0.2663
  427MOL0     H57630   1.125   0.626   5.514  0.8530 -0.3940 -3.2426
  427MOL0     H57631   0.497   1.784   5.391  2.5845 -0.0722 -3.5962
  427MOL0     H57632   0.440   1.997   5.273  0.3016  0.5951 -0.5158
  427MOL0     H57633   0.412   2.312   5.109 -3.2926  0.4241 -2.3321
  427MOL0     H57634   0.294   2.487   4.974 -3.2434  0.0129  1.2069
  427MOL0     H57635   0.052   2.631   5.092 -2.5902  0.9235  0.5044
  427MOL0     H57636   0.068   2.812   5.096  1.4775  0.6777  0.2504
  427MOL0     H57637  -0.058   2.685   4.882 -0.6796 -0.0430 -1.3578
  427MOL0     H57638   0.107   2.645   4.849  0.5547  1.4291 -0.6696
  427MOL0     H57639   0.168   2.891   4.864  2.0098 -0.7229 -3.7428
  427MOL0     H57640   0.001   2.930   4.876 -2.3806 -1.1104  0.2890
  427MOL0     H57641   0.164   2.791   4.653 -1.9206 -1.9129 -0.1034
  427MOL0     H57642   0.095   2.960   4.651 -0.8698  0.3739  0.2625
  427MOL0     H57643  -0.214   2.755   4.487 -0.9035  0.7934  0.7229
  427MOL0     H57644   0.281   2.754   5.305  0.8705  0.6353  0.0684
  427MOL0     H57645   0.413   2.577   5.436 -4.1012 -3.1868  1.3916
  428MOL0     O57646   5.634   7.938   5.491 -0.0591 -0.4040 -0.1968
  428MOL0     C57647   5.623   7.888   5.383  0.2832  0.7312 -0.1745
  428MOL0     O57648   5.713   7.799   5.327 -0.2767 -1.1312  0.4059
  428MOL0     C57649   5.832   7.782   5.391  0.3719 -0.1922 -0.1498
  428MOL0     C57650   5.861   7.768   5.527 -0.1211 -0.0618  0.2034
  428MOL0     C57651   5.996   7.741   5.574  0.2628  0.1598  0.0609
  428MOL0     C57652   6.093   7.714   5.475  0.4844  0.6320  0.6320
  428MOL0     O57653   6.224   7.675   5.489  0.2506  0.7612 -0.1884
  428MOL0     C57654   6.255   7.615   5.616  0.0931 -0.0891 -0.1635
  428MOL0     C57655   6.397   7.559   5.621 -0.0211 -0.0795 -0.8292
  428MOL0     C57656   6.413   7.421   5.542  0.8342  0.5682 -0.0184
  428MOL0     C57657   6.433   7.444   5.386  0.5288 -0.2241 -0.0285
  428MOL0     C57658   6.461   7.319   5.311  0.1059  0.8511  0.5949
  428MOL0     C57659   6.508   7.362   5.175  0.3448 -1.1736  0.3682
  428MOL0     C57660   6.517   7.245   5.070 -0.4486  0.7828  0.3611
  428MOL0     C57661   6.425   7.257   4.955  0.0134  0.3257  0.0318
  428MOL0     N57662   6.486   7.354   4.865 -0.1517 -0.2045  0.9994
  428MOL0     C57663   6.495   7.352   4.729  0.0284 -0.8878  0.4425
  428MOL0     C57664   6.503   7.483   4.689  0.0269 -0.5215  0.1617
  428MOL0     C57665   6.478   7.534   4.549  0.4556 -1.1106 -0.0452
  428MOL0     C57666   6.599   7.620   4.504 -0.4278 -0.1429  0.8464
  428MOL0     C57667   6.601   7.763   4.569  0.1808  0.0092 -0.4676
  428MOL0     C57668   6.486   7.867   4.517 -0.2761  1.1678 -0.9867
  428MOL0     O57669   6.516   7.989   4.598  0.9922 -0.2567 -0.3270
  428MOL0     C57670   6.407   8.078   4.607 -0.1919  0.0087 -0.0146
  428MOL0     C57671   6.421   8.174   4.701 -0.1938 -0.1713  0.2036
  428MOL0     C57672   6.335   8.281   4.704 -0.1923 -0.1228  1.6647
  428MOL0     C57673   6.365   8.375   4.819  0.6717  0.0510 -0.2753
  428MOL0     C57674   6.231   8.292   4.599 -0.3988  0.4572  0.3889
  428MOL0     C57675   6.130   8.393   4.595  0.5762 -0.0815 -0.5672
  428MOL0     O57676   6.052   8.381   4.484 -0.0126 -0.9656 -1.3417
  428MOL0     C57677   5.963   8.481   4.452  0.7296 -0.5238  0.6378
  428MOL0     C57678   5.941   8.501   4.316  1.1029  0.0640 -0.5446
  428MOL0     C57679   5.830   8.584   4.270 -0.1877  0.8605 -0.9571
  428MOL0     C57680   5.742   8.644   4.358 -0.7091  0.2641  0.6093
  428MOL0     O57681   5.622   8.711   4.321  0.7382  0.0521  0.3517
  428MOL0     C57682   5.527   8.642   4.233 -0.4731  0.6487  0.7665
  428MOL0     C57683   5.499   8.723   4.108 -0.9077 -0.2354 -0.4802
  428MOL0     C57684   5.472   8.869   4.121 -0.4898 -0.1971  0.3604
  428MOL0     C57685   5.430   8.922   3.983 -1.0669 -0.2883 -0.4634
  428MOL0     C57686   5.395   9.071   3.968  0.0242  1.1446 -0.7129
  428MOL0     C57687   5.276   9.109   4.048  0.6241  0.0621 -0.6042
  428MOL0     C57688   5.131   9.057   4.008 -0.1658 -0.4401 -0.2800
  428MOL0     C57689   5.015   9.130   4.092 -0.5431 -0.0973  0.4540
  428MOL0    Cl57690   4.857   9.059   4.074 -0.1202 -0.6327  0.0122
  428MOL0     C57691   5.777   8.627   4.498 -0.7624 -0.4199 -0.1173
  428MOL0     C57692   5.875   8.546   4.544 -0.2545  0.2093  0.1715
  428MOL0     O57693   6.127   8.487   4.674  0.0968  0.0658 -0.0842
  428MOL0     C57694   6.220   8.194   4.506 -0.0309 -0.7601 -0.2345
  428MOL0     C57695   6.302   8.082   4.516  0.3593 -0.3305  0.4154
  428MOL0     N57696   6.508   7.561   4.799 -0.6591 -0.5121 -0.0976
  428MOL0     N57697   6.496   7.485   4.901 -1.0753 -0.3892 -0.3281
  428MOL0     C57698   6.065   7.731   5.340 -0.4989 -0.2305  0.3939
  428MOL0     C57699   5.937   7.764   5.300 -0.4044  0.3042 -0.0204
  428MOL0     C57700   5.528   7.941   5.284 -0.4573  0.1753  0.3701
  428MOL0     C57701   5.525   7.880   5.155 -0.0828  0.0146  0.5385
  428MOL0     C57702   5.442   7.928   5.056 -1.2936  1.0270 -0.0121
  428MOL0     C57703   5.354   8.024   5.087 -0.0454  0.5400  0.8657
  428MOL0     O57704   5.267   8.058   4.991  0.5691 -0.5454 -0.6519
  428MOL0     C57705   5.128   8.053   5.040 -0.6320  0.5093 -0.3454
  428MOL0     C57706   5.006   8.051   4.944 -0.4382  1.0425  0.1472
  428MOL0     C57707   4.966   8.197   4.910 -0.7894  0.8859  0.5106
  428MOL0     C57708   4.826   8.218   4.851 -0.2760  0.0812 -0.0107
  428MOL0     C57709   4.815   8.166   4.719  0.1847 -0.0089 -0.2374
  428MOL0     C57710   4.768   8.094   4.631 -0.5831  0.0234  0.7489
  428MOL0     C57711   5.353   8.086   5.211  0.4242  0.4076 -0.5420
  428MOL0     C57712   5.441   8.046   5.309 -0.6129 -1.0377 -0.3445
  428MOL0     H57713   5.787   7.789   5.603 -2.4409 -0.4057 -1.8425
  428MOL0     H57714   6.016   7.744   5.681  2.8828  2.8770 -0.3527
  428MOL0     H57715   6.247   7.687   5.697 -1.8569 -0.9684  0.4895
  428MOL0     H57716   6.180   7.544   5.652 -1.2825  1.1807 -0.4745
  428MOL0     H57717   6.476   7.626   5.586  1.3672 -0.8434  0.7228
  428MOL0     H57718   6.432   7.547   5.723  0.1257 -1.7987 -1.0537
  428MOL0     H57719   6.497   7.362   5.578 -0.5266 -1.2655  0.2775
  428MOL0     H57720   6.333   7.350   5.563  2.0216  0.1643  3.9416
  428MOL0     H57721   6.349   7.494   5.338 -0.1836 -1.1989  0.1676
  428MOL0     H57722   6.530   7.494   5.381  1.0808 -0.9691  1.9714
  428MOL0     H57723   6.538   7.254   5.353 -0.7211 -0.5278  0.0603
  428MOL0     H57724   6.368   7.264   5.291  1.1169 -1.3626  1.7073
  428MOL0     H57725   6.457   7.455   5.149  1.0193 -0.5012  1.3661
  428MOL0     H57726   6.608   7.407   5.183 -0.1391 -0.0496  0.2109
  428MOL0     H57727   6.622   7.230   5.044  0.7032  1.5259  3.9781
  428MOL0     H57728   6.493   7.158   5.132 -1.1562  1.8672  1.6536
  428MOL0     H57729   6.324   7.288   4.981 -0.1803 -0.1082 -0.1956
  428MOL0     H57730   6.417   7.159   4.906  0.7555  0.3872 -0.2389
  428MOL0     H57731   6.453   7.288   4.652  1.4321  1.0928 -2.1733
  428MOL0     H57732   6.475   7.454   4.475  3.3147 -3.5031  2.1511
  428MOL0     H57733   6.381   7.586   4.545 -0.7966 -3.4226 -2.3068
  428MOL0     H57734   6.602   7.634   4.396 -0.0978  0.7460  0.9566
  428MOL0     H57735   6.698   7.577   4.518 -0.6935 -1.7962 -1.7554
  428MOL0     H57736   6.698   7.804   4.540  0.0915  0.4906 -0.0977
  428MOL0     H57737   6.613   7.749   4.677  0.0362  0.9146 -0.3268
  428MOL0     H57738   6.383   7.833   4.528  0.8073 -1.6539  2.5584
  428MOL0     H57739   6.489   7.889   4.410 -1.9928  1.8838 -0.9115
  428MOL0     H57740   6.507   8.165   4.767 -0.5066  0.1534  0.6543
  428MOL0     H57741   6.290   8.360   4.898  0.8056  1.8366  0.2331
  428MOL0     H57742   6.460   8.360   4.870  1.3193 -0.0116 -1.4670
  428MOL0     H57743   6.375   8.481   4.793  3.6398 -0.4015 -1.3473
  428MOL0     H57744   6.006   8.455   4.242  2.2149 -0.6865  0.8320
  428MOL0     H57745   5.826   8.609   4.165  1.0063  1.2194 -0.9328
  428MOL0     H57746   5.562   8.546   4.193 -0.7123  1.6833 -2.1656
  428MOL0     H57747   5.432   8.617   4.282  0.2550 -4.0609  0.2197
  428MOL0     H57748   5.579   8.699   4.038  1.4645 -1.1941  2.3164
  428MOL0     H57749   5.405   8.686   4.066 -1.6081  1.3951 -0.4463
  428MOL0     H57750   5.570   8.916   4.137 -0.5928 -0.1795  0.9368
  428MOL0     H57751   5.403   8.898   4.201 -1.5229  1.9817 -1.2030
  428MOL0     H57752   5.504   8.900   3.906 -0.9932  1.9486 -1.0801
  428MOL0     H57753   5.335   8.880   3.950 -1.6695  2.0031 -1.8527
  428MOL0     H57754   5.376   9.104   3.865 -3.1162 -2.0318 -1.3725
  428MOL0     H57755   5.488   9.113   4.005 -0.8680  2.3667  0.2325
  428MOL0     H57756   5.279   9.105   4.157 -2.5121  0.2865 -0.4076
  428MOL0     H57757   5.280   9.215   4.020 -2.1078  1.0081  2.0146
  428MOL0     H57758   5.128   8.950   4.030 -0.3113 -0.6189 -1.1615
  428MOL0     H57759   5.110   9.063   3.901 -1.5408  1.4071  0.0446
  428MOL0     H57760   5.019   9.229   4.046  4.1103 -0.3941 -0.3343
  428MOL0     H57761   5.047   9.126   4.197  0.9878 -1.3514 -0.0143
  428MOL0     H57762   5.716   8.671   4.577  1.7543 -1.0742  2.3230
  428MOL0     H57763   5.881   8.529   4.651 -1.6322 -0.2155  0.2046
  428MOL0     H57764   6.151   8.192   4.423  1.4525  1.7239 -1.6464
  428MOL0     H57765   6.312   8.020   4.427 -0.0378  0.2703 -0.0611
  428MOL0     H57766   6.133   7.695   5.264  1.0272  1.7885  0.7224
  428MOL0     H57767   5.914   7.770   5.195 -0.8851  1.5597  0.1347
  428MOL0     H57768   5.583   7.790   5.137 -1.9253 -2.3320  4.6297
  428MOL0     H57769   5.443   7.874   4.962 -0.2629  2.5386 -0.9041
  428MOL0     H57770   5.110   7.970   5.108  1.4957  1.3615  1.3815
  428MOL0     H57771   5.118   8.138   5.108  3.8686 -1.5151  3.3473
  428MOL0     H57772   4.926   8.024   5.014  0.4132  2.2821  1.6496
  428MOL0     H57773   5.003   7.977   4.863  1.0350  0.0237  0.9799
  428MOL0     H57774   5.048   8.240   4.853  0.7910 -2.7949 -0.3088
  428MOL0     H57775   4.965   8.253   5.004  1.1895 -0.4767  1.4148
  428MOL0     H57776   4.794   8.322   4.842 -0.7745  0.1667  2.1455
  428MOL0     H57777   4.751   8.169   4.914  1.0799  1.6795  3.0422
  428MOL0     H57778   4.749   8.026   4.551  0.3834 -2.6487  2.6158
  428MOL0     H57779   5.270   8.151   5.237 -3.7150 -4.7269  0.9511
  428MOL0     H57780   5.443   8.089   5.408  2.2583 -1.5848 -0.0541
  429MOL0     O57781   5.647   6.639   6.060 -0.2356  0.1036 -0.3092
  429MOL0     C57782   5.760   6.608   6.087 -0.9712  0.2576 -0.4193
  429MOL0     O57783   5.868   6.680   6.076 -0.5758 -0.1542  0.1304
  429MOL0     C57784   5.870   6.806   6.022 -0.8086  0.6600  1.6616
  429MOL0     C57785   5.991   6.876   6.043 -0.1231  0.1374  0.4613
  429MOL0     C57786   6.019   7.001   5.987  0.1281  0.1293 -0.2899
  429MOL0     C57787   5.920   7.060   5.915  0.6387  0.3597  0.5042
  429MOL0     O57788   5.951   7.175   5.849  0.0484 -0.7718  0.1038
  429MOL0     C57789   5.948   7.192   5.703 -0.3308  0.8026 -0.6020
  429MOL0     C57790   6.024   7.296   5.647 -0.0563 -0.7232 -0.2749
  429MOL0     C57791   6.012   7.306   5.490 -0.2239 -0.0044  0.0789
  429MOL0     C57792   5.878   7.368   5.439  0.6873 -0.2849  0.3099
  429MOL0     C57793   5.867   7.407   5.296  0.9712 -0.0272  0.7815
  429MOL0     C57794   5.725   7.442   5.237  0.5908 -0.4891  0.7836
  429MOL0     C57795   5.734   7.454   5.085  0.3194 -0.4605  0.6407
  429MOL0     C57796   5.589   7.494   5.030 -0.6265  0.1010  0.1460
  429MOL0     N57797   5.621   7.558   4.896 -0.4109  0.0853 -0.5907
  429MOL0     C57798   5.655   7.505   4.777  0.0349  0.0943 -0.5712
  429MOL0     C57799   5.700   7.603   4.695  1.0668 -0.3524  0.2350
  429MOL0     C57800   5.754   7.570   4.554 -0.1624 -0.5417  0.8278
  429MOL0     C57801   5.662   7.633   4.441 -0.1622 -0.0554  0.6630
  429MOL0     C57802   5.719   7.596   4.307 -0.4966 -0.1670  0.4631
  429MOL0     C57803   5.663   7.672   4.181 -0.2823 -0.5969 -0.2404
  429MOL0     O57804   5.514   7.667   4.180 -0.2843 -0.0057  0.8323
  429MOL0     C57805   5.466   7.619   4.062  0.3795 -0.4583 -0.5248
  429MOL0     C57806   5.443   7.484   4.050 -0.0528  0.6037 -1.8641
  429MOL0     C57807   5.413   7.425   3.930 -0.3522 -0.3838  0.4490
  429MOL0     C57808   5.422   7.278   3.924  0.4684 -0.0626 -0.4455
  429MOL0     C57809   5.375   7.512   3.820 -0.3711 -0.2591 -0.6346
  429MOL0     C57810   5.314   7.459   3.687  0.8062  0.3904 -0.5190
  429MOL0     O57811   5.260   7.551   3.604 -0.1133  0.2656  0.1112
  429MOL0     C57812   5.204   7.501   3.489 -0.5032  1.3995 -0.0816
  429MOL0     C57813   5.288   7.473   3.383  1.1609 -0.1707  0.6180
  429MOL0     C57814   5.221   7.413   3.273  0.3166 -0.0019  0.3119
  429MOL0     C57815   5.091   7.377   3.271  0.0497 -0.6398  1.1718
  429MOL0     O57816   5.050   7.341   3.147  0.3686  0.3785  0.4120
  429MOL0     C57817   4.912   7.316   3.128  0.9211  0.8323  0.0117
  429MOL0     C57818   4.874   7.264   2.986 -0.7153 -0.3378  0.8623
  429MOL0     C57819   4.949   7.141   2.936  0.2796  0.6629 -1.3782
  429MOL0     C57820   5.006   7.039   3.036  0.5700 -0.5095  0.2483
  429MOL0     C57821   5.056   6.912   2.962  0.2973  0.0339  0.4445
  429MOL0     C57822   5.123   6.802   3.061 -0.2008 -0.6600 -0.4358
  429MOL0     C57823   5.025   6.731   3.157  0.0936 -0.9521 -0.4794
  429MOL0     C57824   5.017   6.802   3.297 -0.7002  1.2329  0.1980
  429MOL0    Cl57825   4.911   6.699   3.399  0.1126 -0.2546  0.5599
  429MOL0     C57826   5.007   7.407   3.382  0.0288 -0.1818  0.6472
  429MOL0     C57827   5.062   7.483   3.483 -0.3526  0.4022 -0.4211
  429MOL0     O57828   5.326   7.338   3.667 -0.0049  0.2388 -0.5848
  429MOL0     C57829   5.404   7.646   3.831 -0.3141  0.3002  0.2758
  429MOL0     C57830   5.453   7.705   3.949  0.2571  1.4959  0.0117
  429MOL0     N57831   5.690   7.721   4.768 -0.1184  0.8643 -0.0395
  429MOL0     N57832   5.644   7.696   4.887  0.6872  0.1645  0.5606
  429MOL0     C57833   5.796   6.998   5.898 -0.3962  1.0703  0.1301
  429MOL0     C57834   5.768   6.864   5.944 -0.1886 -0.8842 -1.1371
  429MOL0     C57835   5.780   6.489   6.168 -0.3633  0.6699 -0.2552
  429MOL0     C57836   5.906   6.460   6.234  0.0407  0.4106 -0.4502
  429MOL0     C57837   5.918   6.342   6.310  0.0570  0.2424  0.0350
  429MOL0     C57838   5.807   6.256   6.341 -0.3128 -0.6403 -0.5194
  429MOL0     O57839   5.844   6.149   6.418 -0.2396 -0.3198  0.1194
  429MOL0     C57840   5.755   6.092   6.500 -0.0833 -0.0820  0.5959
  429MOL0     C57841   5.704   5.970   6.427 -0.2413  0.7031 -0.2212
  429MOL0     C57842   5.543   5.938   6.438 -0.4095 -0.7274  0.1034
  429MOL0     C57843   5.492   5.922   6.584 -0.7862  0.1398 -0.9998
  429MOL0     C57844   5.531   5.782   6.627 -0.7141 -0.5927  0.0659
  429MOL0     C57845   5.572   5.667   6.650 -1.2376 -0.1971  0.1175
  429MOL0     C57846   5.685   6.295   6.275 -0.1840  0.3768 -0.7844
  429MOL0     C57847   5.667   6.408   6.200 -0.6240 -0.2831 -0.1115
  429MOL0     H57848   6.070   6.829   6.101  0.3356 -3.1231 -2.4414
  429MOL0     H57849   6.116   7.050   5.989  1.3931 -2.2293  2.3698
  429MOL0     H57850   5.982   7.100   5.655  3.7484  2.7372 -1.9410
  429MOL0     H57851   5.846   7.221   5.677 -0.6738  1.7365  1.5749
  429MOL0     H57852   6.002   7.391   5.698  1.6690 -0.8439  0.7750
  429MOL0     H57853   6.129   7.279   5.674  0.2584 -0.1065 -1.0803
  429MOL0     H57854   6.094   7.366   5.449 -2.8005  2.9157 -1.2114
  429MOL0     H57855   6.031   7.213   5.436  1.2753  1.5541 -2.2592
  429MOL0     H57856   5.796   7.302   5.470 -2.3433  1.7599 -2.6830
  429MOL0     H57857   5.853   7.453   5.504  3.3444 -0.7146  2.0473
  429MOL0     H57858   5.941   7.487   5.283  1.7483 -1.0074 -1.4408
  429MOL0     H57859   5.891   7.321   5.233  0.8619  0.0744  0.5987
  429MOL0     H57860   5.655   7.361   5.260 -1.2319  1.4183  2.4621
  429MOL0     H57861   5.693   7.538   5.280  1.1556  0.1340 -0.1627
  429MOL0     H57862   5.788   7.543   5.053  0.9777 -1.0470  0.0756
  429MOL0     H57863   5.769   7.365   5.031 -0.5761  0.5034 -1.6717
  429MOL0     H57864   5.542   7.566   5.097  2.1721  3.4715 -1.1964
  429MOL0     H57865   5.527   7.404   5.031 -0.1717 -0.2120  1.0417
  429MOL0     H57866   5.648   7.401   4.749 -2.1244 -0.4064  1.5280
  429MOL0     H57867   5.852   7.618   4.547 -0.9124  0.7810 -1.3338
  429MOL0     H57868   5.759   7.462   4.540 -1.6146 -0.6427  0.9942
  429MOL0     H57869   5.657   7.742   4.455  1.7529 -0.2600  4.1256
  429MOL0     H57870   5.565   7.586   4.456 -0.7165  0.4566 -1.1295
  429MOL0     H57871   5.703   7.488   4.310 -1.6334  0.0003  1.1750
  429MOL0     H57872   5.826   7.617   4.311 -0.4261  0.3924 -2.1485
  429MOL0     H57873   5.714   7.640   4.090  3.9081  1.8172  0.9818
  429MOL0     H57874   5.693   7.775   4.203 -0.6602  0.1067 -2.7225
  429MOL0     H57875   5.441   7.433   4.145 -4.5166  0.5003 -1.8001
  429MOL0     H57876   5.325   7.238   3.893  1.0185  0.8212 -3.6800
  429MOL0     H57877   5.503   7.234   3.866  0.7949 -1.4407  0.9933
  429MOL0     H57878   5.455   7.245   4.023  2.2569 -0.3745 -1.1256
  429MOL0     H57879   5.392   7.498   3.369  0.5606  2.7043  0.6480
  429MOL0     H57880   5.284   7.385   3.189 -1.6451 -0.1404 -1.1839
  429MOL0     H57881   4.874   7.241   3.199  2.5477  1.4450  1.5995
  429MOL0     H57882   4.857   7.409   3.144 -0.1896  0.0410  1.0233
  429MOL0     H57883   4.767   7.237   2.985 -0.6002 -1.1251 -2.1089
  429MOL0     H57884   4.889   7.349   2.919  0.4841 -1.2082 -0.0387
  429MOL0     H57885   5.032   7.171   2.871 -0.4088  2.8396 -1.3387
  429MOL0     H57886   4.877   7.080   2.881 -0.5390 -0.2920  0.6370
  429MOL0     H57887   5.084   7.086   3.097 -0.4803  1.8783 -0.1286
  429MOL0     H57888   4.924   7.006   3.100  0.2225 -0.9409 -0.4085
  429MOL0     H57889   5.121   6.950   2.883 -2.0946  1.1942 -1.0914
  429MOL0     H57890   4.973   6.870   2.904  1.3319  1.0040 -1.8975
  429MOL0     H57891   5.177   6.735   2.995  1.7840  0.1004  0.3583
  429MOL0     H57892   5.199   6.845   3.127 -1.5319  1.3109 -0.0762
  429MOL0     H57893   5.065   6.630   3.171  0.4786 -0.8243 -0.6415
  429MOL0     H57894   4.923   6.731   3.118 -1.4053 -1.8165  3.0673
  429MOL0     H57895   4.989   6.904   3.271  1.7780  0.9987 -4.3689
  429MOL0     H57896   5.114   6.809   3.347 -0.9204 -0.0102  0.8534
  429MOL0     H57897   4.901   7.386   3.372 -0.2227  1.7284 -1.9048
  429MOL0     H57898   5.006   7.520   3.568  2.8543  0.0898  2.0403
  429MOL0     H57899   5.386   7.704   3.741  0.7203  0.0494 -0.1154
  429MOL0     H57900   5.463   7.812   3.963  1.1209  1.2697  1.2590
  429MOL0     H57901   5.725   7.044   5.831 -1.2822 -2.8674 -1.9403
  429MOL0     H57902   5.670   6.820   5.927  0.0681 -1.4127 -1.2703
  429MOL0     H57903   6.001   6.513   6.232  1.2481 -1.5890  0.4281
  429MOL0     H57904   6.012   6.312   6.355 -0.4756 -0.9662  0.3984
  429MOL0     H57905   5.815   6.081   6.590  2.7363 -1.0526 -1.2873
  429MOL0     H57906   5.671   6.156   6.531 -1.7822 -0.9780 -1.8309
  429MOL0     H57907   5.759   5.883   6.465  1.4023  0.8590 -2.1176
  429MOL0     H57908   5.727   5.967   6.320 -0.8987 -1.8953 -0.3724
  429MOL0     H57909   5.515   5.861   6.365  3.5327 -0.4455 -1.9507
  429MOL0     H57910   5.484   6.027   6.414 -0.5031 -0.2329  1.9806
  429MOL0     H57911   5.384   5.913   6.570 -0.7293 -3.0628 -0.3099
  429MOL0     H57912   5.531   5.994   6.657  0.1424 -1.7435  0.4665
  429MOL0     H57913   5.597   5.566   6.676 -0.3032 -0.3110 -1.1062
  429MOL0     H57914   5.603   6.227   6.295 -0.0065  0.4195  0.0903
  429MOL0     H57915   5.571   6.428   6.153  0.6001 -1.6394 -3.4899
  430MOL0     O57916   2.776   5.523   3.902  0.8647 -0.4779 -0.3722
  430MOL0     C57917   2.689   5.602   3.895  0.3034 -0.3094  0.3056
  430MOL0     O57918   2.697   5.730   3.839 -0.4376 -0.3519  0.0984
  430MOL0     C57919   2.812   5.767   3.775  0.0823  0.3061 -0.2573
  430MOL0     C57920   2.808   5.753   3.635  0.1909  1.0334 -0.4553
  430MOL0     C57921   2.917   5.778   3.552 -0.1211  0.3031 -1.3559
  430MOL0     C57922   3.030   5.830   3.623 -0.4786  0.3355  0.2327
  430MOL0     O57923   3.133   5.884   3.544  0.5485  0.1725  0.2266
  430MOL0     C57924   3.217   5.981   3.598 -0.2850 -0.3082  0.1919
  430MOL0     C57925   3.296   6.058   3.492 -0.0869  0.8710 -0.6925
  430MOL0     C57926   3.346   6.184   3.559 -0.9225 -0.9133 -0.2621
  430MOL0     C57927   3.484   6.187   3.622 -0.1951 -0.0815  1.2421
  430MOL0     C57928   3.593   6.137   3.519  0.5346 -0.2161  0.1398
  430MOL0     C57929   3.730   6.184   3.566 -0.1830 -0.5653 -0.3063
  430MOL0     C57930   3.781   6.096   3.677 -0.8014 -0.4195 -0.7606
  430MOL0     C57931   3.929   6.122   3.710  0.8462  0.3047  0.2145
  430MOL0     N57932   4.019   6.139   3.601 -0.8520 -0.0190  0.0330
  430MOL0     C57933   4.078   6.254   3.551  0.2849 -0.3493 -1.0838
  430MOL0     C57934   4.180   6.221   3.470 -0.3511 -0.3349  0.1876
  430MOL0     C57935   4.256   6.308   3.384  0.7021  0.1135 -0.3682
  430MOL0     C57936   4.304   6.250   3.241 -0.6710  0.9016 -0.6292
  430MOL0     C57937   4.431   6.320   3.205  0.0737 -0.0377 -1.3068
  430MOL0     C57938   4.487   6.267   3.081 -0.2628 -0.1976  0.7905
  430MOL0     O57939   4.626   6.287   3.054 -0.1984 -0.7089  0.2380
  430MOL0     C57940   4.654   6.396   2.966 -0.1840 -0.5835 -0.1606
  430MOL0     C57941   4.616   6.537   2.989  0.5264  0.7310 -1.1420
  430MOL0     C57942   4.641   6.635   2.897  0.3865  0.2643 -1.0347
  430MOL0     C57943   4.584   6.779   2.934 -0.0857 -0.4846 -0.6045
  430MOL0     C57944   4.702   6.598   2.777  0.4539  0.6191 -0.7292
  430MOL0     C57945   4.727   6.689   2.668 -0.2459 -1.2490 -0.1333
  430MOL0     O57946   4.839   6.663   2.598  0.5001  0.0852  0.1061
  430MOL0     C57947   4.904   6.753   2.515 -0.6696 -0.0361  0.0371
  430MOL0     C57948   5.002   6.690   2.430 -0.3831 -0.3531 -0.2147
  430MOL0     C57949   5.096   6.772   2.355  0.3252 -0.7004 -0.6172
  430MOL0     C57950   5.094   6.912   2.379 -0.0573 -1.0860  0.3180
  430MOL0     O57951   5.177   7.007   2.321  0.1236 -0.3861  0.4859
  430MOL0     C57952   5.305   6.968   2.272  0.8522  0.6727  0.9448
  430MOL0     C57953   5.290   6.917   2.123  0.3882 -0.1054 -0.5520
  430MOL0     C57954   5.417   6.944   2.046 -0.1600  0.8073  0.7925
  430MOL0     C57955   5.434   6.850   1.919  0.5173 -0.4226  0.4585
  430MOL0     C57956   5.435   6.934   1.794 -0.1050 -0.7523  0.8668
  430MOL0     C57957   5.449   6.852   1.667  0.5404  0.0273 -0.5917
  430MOL0     C57958   5.400   6.938   1.550  0.4652  1.0210  0.0844
  430MOL0     C57959   5.433   6.913   1.410 -0.4797  0.2995  0.7572
  430MOL0    Cl57960   5.456   6.738   1.382 -0.2127  0.5942 -0.5600
  430MOL0     C57961   4.998   6.975   2.459 -0.1955  0.0247  0.2202
  430MOL0     C57962   4.903   6.901   2.527 -0.2143  0.8257  0.2204
  430MOL0     O57963   4.647   6.780   2.640  0.3043 -0.4926 -0.3438
  430MOL0     C57964   4.759   6.474   2.769 -0.3289  0.4158  0.0715
  430MOL0     C57965   4.728   6.367   2.858 -0.5106  0.4819  0.7254
  430MOL0     N57966   4.173   6.078   3.460  0.7177 -0.3771 -0.0096
  430MOL0     N57967   4.069   6.037   3.529 -0.5342  0.3405 -0.1762
  430MOL0     C57968   3.025   5.855   3.764 -0.0681 -0.0287 -0.0714
  430MOL0     C57969   2.919   5.817   3.840 -0.1265 -0.3385 -0.1592
  430MOL0     C57970   2.556   5.550   3.943  0.3219 -0.3375 -0.3459
  430MOL0     C57971   2.434   5.604   3.901  1.3057 -0.0565  0.4839
  430MOL0     C57972   2.306   5.554   3.953  1.0421  0.2991  0.2155
  430MOL0     C57973   2.295   5.444   4.038 -0.7078 -0.2696  0.2945
  430MOL0     O57974   2.170   5.427   4.088  0.3516  0.5937 -1.3072
  430MOL0     C57975   2.156   5.310   4.174 -0.1794 -0.1515  0.1667
  430MOL0     C57976   2.002   5.283   4.192  0.8776 -0.5489 -0.6447
  430MOL0     C57977   1.956   5.152   4.131  1.2703 -0.0856  0.4557
  430MOL0     C57978   2.018   5.019   4.183  0.6313  0.1715 -0.0371
  430MOL0     C57979   2.015   5.013   4.331 -0.3458  0.4669 -1.6110
  430MOL0     C57980   1.996   5.015   4.456 -0.3852 -1.5507  0.3476
  430MOL0     C57981   2.419   5.389   4.074  0.5004 -0.3244 -0.2610
  430MOL0     C57982   2.541   5.440   4.026 -0.1763  0.7111 -0.5924
  430MOL0     H57983   2.719   5.717   3.584  1.4109 -0.1571 -1.8139
  430MOL0     H57984   2.906   5.769   3.444 -0.0205  1.5003 -1.4768
  430MOL0     H57985   3.153   6.053   3.649 -2.4571 -0.6757 -1.8438
  430MOL0     H57986   3.285   5.931   3.668  0.8446 -2.3191 -2.1672
  430MOL0     H57987   3.372   5.985   3.463  2.4157  2.7766  0.6303
  430MOL0     H57988   3.228   6.080   3.409 -1.4685  1.1633  0.4741
  430MOL0     H57989   3.348   6.264   3.485 -1.4404 -2.7283 -2.3437
  430MOL0     H57990   3.286   6.217   3.644 -0.3848 -2.1973  0.6508
  430MOL0     H57991   3.497   6.295   3.634  1.5691  0.7897 -5.0088
  430MOL0     H57992   3.495   6.132   3.716  4.0138 -1.1627  0.3337
  430MOL0     H57993   3.592   6.029   3.503 -1.8423  0.0713 -2.5539
  430MOL0     H57994   3.566   6.194   3.430 -1.1000 -1.2228 -0.0594
  430MOL0     H57995   3.800   6.188   3.482 -2.6363  2.1322 -2.4385
  430MOL0     H57996   3.722   6.288   3.598 -0.5933 -0.3975 -0.9306
  430MOL0     H57997   3.731   6.119   3.772 -0.2708  1.4299 -0.8783
  430MOL0     H57998   3.761   5.993   3.648 -1.9953  0.0781 -1.8342
  430MOL0     H57999   3.979   6.060   3.784 -1.5276  0.2382  1.8654
  430MOL0     H58000   3.928   6.219   3.761 -0.2096 -0.2264  1.2486
  430MOL0     H58001   4.025   6.346   3.573 -1.4471 -1.1231 -1.7529
  430MOL0     H58002   4.203   6.403   3.370  0.1717  0.3430  2.4730
  430MOL0     H58003   4.339   6.353   3.441 -1.6401  1.5608  2.1722
  430MOL0     H58004   4.240   6.271   3.155 -0.4748 -3.4409 -2.0546
  430MOL0     H58005   4.319   6.142   3.247  0.9569  1.0569 -1.2556
  430MOL0     H58006   4.509   6.300   3.279  0.5095  0.1806 -1.6989
  430MOL0     H58007   4.400   6.425   3.204 -3.9178 -0.6405  5.0963
  430MOL0     H58008   4.429   6.286   2.990 -0.2311 -2.0697  0.3540
  430MOL0     H58009   4.469   6.159   3.083  0.7781 -0.4328 -0.7227
  430MOL0     H58010   4.557   6.557   3.078  1.2172  1.0398 -0.7377
  430MOL0     H58011   4.648   6.858   2.894  2.5070 -1.9390  0.4553
  430MOL0     H58012   4.480   6.783   2.900 -0.2203  0.5506 -0.1094
  430MOL0     H58013   4.571   6.812   3.037 -1.7048  0.5153 -1.0892
  430MOL0     H58014   5.016   6.583   2.438  2.4935  0.0368  1.2033
  430MOL0     H58015   5.172   6.722   2.296  1.0364 -1.0852  0.6026
  430MOL0     H58016   5.367   7.058   2.281  0.6945  0.6389  2.9243
  430MOL0     H58017   5.358   6.891   2.328 -2.2648 -2.7216 -0.3739
  430MOL0     H58018   5.268   6.810   2.131 -1.4587  0.2567 -0.4722
  430MOL0     H58019   5.209   6.961   2.066  1.7003  1.5213 -1.2576
  430MOL0     H58020   5.512   6.939   2.101  0.2090 -0.8432  0.0788
  430MOL0     H58021   5.411   7.047   2.012 -3.2447  0.7078  0.7669
  430MOL0     H58022   5.528   6.796   1.933  0.0397 -1.1280  1.0528
  430MOL0     H58023   5.353   6.777   1.901  0.2529  0.5397 -2.7971
  430MOL0     H58024   5.523   6.998   1.803  1.4049 -2.4404 -1.2107
  430MOL0     H58025   5.346   6.998   1.789  1.2938  1.2599  0.4539
  430MOL0     H58026   5.555   6.823   1.661  0.6614  0.0519  1.1082
  430MOL0     H58027   5.385   6.764   1.676  1.3022 -0.3416  1.8981
  430MOL0     H58028   5.433   7.042   1.560  1.4494  0.9228 -1.6466
  430MOL0     H58029   5.293   6.953   1.560  0.3004  0.1787 -0.3466
  430MOL0     H58030   5.526   6.967   1.389 -0.2376  0.2651  1.6911
  430MOL0     H58031   5.348   6.942   1.349 -1.5072 -1.5149  1.2497
  430MOL0     H58032   5.014   7.081   2.473  0.9834 -0.3174  1.6785
  430MOL0     H58033   4.830   6.945   2.595 -1.1135 -1.3415  0.7429
  430MOL0     H58034   4.819   6.459   2.680 -2.5643 -0.0727 -1.4368
  430MOL0     H58035   4.757   6.266   2.831 -1.4035 -0.2733  2.4567
  430MOL0     H58036   3.109   5.905   3.811  1.1005 -2.3116  0.4054
  430MOL0     H58037   2.921   5.841   3.946 -0.7207 -1.0127  0.0105
  430MOL0     H58038   2.426   5.696   3.844  2.3864  0.5916  1.3467
  430MOL0     H58039   2.207   5.598   3.941 -0.7806 -2.2139  3.9717
  430MOL0     H58040   2.210   5.234   4.116 -0.5553  0.5965 -1.2098
  430MOL0     H58041   2.208   5.329   4.268  1.7871  1.5969 -1.1821
  430MOL0     H58042   1.939   5.364   4.153  0.2945 -0.1021  1.1176
  430MOL0     H58043   1.985   5.275   4.300  3.3749 -0.6173 -0.2060
  430MOL0     H58044   1.978   5.149   4.024 -0.7134 -3.4459  0.0298
  430MOL0     H58045   1.847   5.152   4.129  1.0699 -2.6828 -5.0629
  430MOL0     H58046   2.123   5.009   4.152  0.9996  3.0357  0.0048
  430MOL0     H58047   1.952   4.935   4.158 -0.1988  0.4917  1.0118
  430MOL0     H58048   2.010   5.006   4.562  4.7622 -0.1106  0.0824
  430MOL0     H58049   2.431   5.311   4.148 -0.4266  1.7985  2.2747
  430MOL0     H58050   2.625   5.381   4.061 -2.9883 -3.4164  0.0172
  431MOL0     O58051   9.614   8.762  10.812  0.0420  0.2792  0.1764
  431MOL0     C58052   9.531   8.831  10.879  0.6622  0.2015  0.5712
  431MOL0     O58053   9.421   8.908  10.824 -0.3688  0.0832 -0.7608
  431MOL0     C58054   9.378   8.889  10.696  0.9079  0.2746 -0.3323
  431MOL0     C58055   9.415   8.794  10.592 -0.3330  1.1136  0.0019
  431MOL0     C58056   9.365   8.781  10.467 -0.4570  0.4091 -0.2255
  431MOL0     C58057   9.270   8.879  10.423  0.1118 -0.4861 -0.2981
  431MOL0     O58058   9.203   8.868  10.308  0.1820  0.9370  0.3729
  431MOL0     C58059   9.150   8.732  10.271 -0.1445 -0.6230  0.1186
  431MOL0     C58060   9.036   8.747  10.175 -0.9767 -0.3555  0.3436
  431MOL0     C58061   8.936   8.832  10.254 -0.0746  0.0189  0.7841
  431MOL0     C58062   8.801   8.834  10.182 -0.5885 -0.2470  0.4734
  431MOL0     C58063   8.705   8.934  10.248 -0.0995  0.0774 -0.0100
  431MOL0     C58064   8.640   8.891  10.379 -0.4245  0.4612  0.5480
  431MOL0     C58065   8.528   8.986  10.432 -0.6648  0.7112 -0.4947
  431MOL0     C58066   8.559   9.121  10.492 -0.3765 -0.4530 -0.4362
  431MOL0     N58067   8.438   9.168  10.575  0.0741  0.5109  0.1289
  431MOL0     C58068   8.423   9.281  10.632  0.4715 -1.1087  0.7451
  431MOL0     C58069   8.305   9.281  10.698 -0.6313 -0.0867  0.1563
  431MOL0     C58070   8.224   9.391  10.751 -0.6150  0.6477  0.7864
  431MOL0     C58071   8.290   9.454  10.867 -0.4878  0.8463 -0.0898
  431MOL0     C58072   8.202   9.566  10.944  0.2750  0.2919 -0.3144
  431MOL0     C58073   8.285   9.637  11.053  0.3645  0.5026  1.2804
  431MOL0     O58074   8.235   9.769  11.090  0.4261 -0.0301  0.1561
  431MOL0     C58075   8.234   9.869  11.002  0.6219 -0.1711  0.5018
  431MOL0     C58076   8.158   9.985  11.023  0.8707 -0.5136  0.2791
  431MOL0     C58077   8.172  10.102  10.956 -0.3259 -0.4809 -0.2505
  431MOL0     C58078   8.077  10.213  10.988 -0.5664  1.7599 -0.1477
  431MOL0     C58079   8.277  10.108  10.860  0.0696  0.2967  0.0501
  431MOL0     C58080   8.306  10.229  10.792  0.1292  0.5915  0.6094
  431MOL0     O58081   8.211  10.282  10.709 -0.3009 -0.1214 -0.4795
  431MOL0     C58082   8.217  10.405  10.645  0.0628 -0.2439  0.2151
  431MOL0     C58083   8.315  10.499  10.647 -0.4594  0.1592  0.2204
  431MOL0     C58084   8.305  10.628  10.606  0.6666 -0.4399  0.5258
  431MOL0     C58085   8.182  10.672  10.557 -0.2330  0.5409  0.1136
  431MOL0     O58086   8.161  10.805  10.503 -0.0977  0.5085  0.0005
  431MOL0     C58087   8.256  10.912  10.518 -0.1075  0.0508  0.1419
  431MOL0     C58088   8.221  11.022  10.418  0.0224  0.0312 -0.1589
  431MOL0     C58089   8.224  10.971  10.268 -0.3314 -0.1739  0.6294
  431MOL0     C58090   8.183  11.086  10.169  0.2248  0.0417  0.0869
  431MOL0     C58091   8.201  11.038  10.016  0.1748 -0.7593 -0.9876
  431MOL0     C58092   8.207  11.168   9.935  0.1047 -0.3065 -0.0571
  431MOL0     C58093   8.187  11.147   9.780  0.0603  0.0402  0.0104
  431MOL0     C58094   8.051  11.108   9.749 -0.1398 -1.0104  1.0238
  431MOL0    Cl58095   7.956  11.260   9.783 -0.2970  0.1617  0.0285
  431MOL0     C58096   8.077  10.586  10.548  0.4275  0.6694  0.1596
  431MOL0     C58097   8.092  10.455  10.598  0.7182 -0.4032 -0.2067
  431MOL0     O58098   8.419  10.260  10.786 -0.6266  0.6171  0.0890
  431MOL0     C58099   8.356   9.999  10.838 -0.8267  0.1148 -0.9117
  431MOL0     C58100   8.336   9.881  10.905 -0.1567 -0.2507  0.2823
  431MOL0     N58101   8.254   9.155  10.689 -0.2794  0.5306  0.8533
  431MOL0     N58102   8.336   9.089  10.616  0.0166  0.3142  0.2907
  431MOL0     C58103   9.227   8.976  10.512 -0.5367 -0.6928 -1.1839
  431MOL0     C58104   9.287   8.982  10.643 -0.1248 -0.0474 -0.3331
  431MOL0     C58105   9.565   8.850  11.028 -0.0169  0.9698  1.2403
  431MOL0     C58106   9.649   8.755  11.097  0.3333  0.2440  0.2921
  431MOL0     C58107   9.674   8.769  11.233 -0.0451 -0.6422  0.6607
  431MOL0     C58108   9.646   8.895  11.300 -0.0690  0.3388  0.1770
  431MOL0     O58109   9.710   8.904  11.423 -0.1143  0.8942  0.5309
  431MOL0     C58110   9.714   9.030  11.474  0.5487 -0.4613 -0.2080
  431MOL0     C58111   9.804   9.040  11.601  0.4683  0.3965 -0.2264
  431MOL0     C58112   9.738   8.977  11.729  0.1659  0.4184  0.2872
  431MOL0     C58113   9.821   8.998  11.868  0.8865  0.1836  0.3494
  431MOL0     C58114   9.860   9.130  11.908  0.3990  0.8836 -0.5300
  431MOL0     C58115   9.922   9.231  11.930 -0.4276 -0.2167 -0.1584
  431MOL0     C58116   9.570   8.984  11.224 -0.6837  0.1255  0.8469
  431MOL0     C58117   9.533   8.966  11.094  0.5135  0.2154  0.1555
  431MOL0     H58118   9.472   8.710  10.630 -2.0790 -0.1010  0.0648
  431MOL0     H58119   9.393   8.702  10.398 -2.8056  0.1890 -1.0051
  431MOL0     H58120   9.234   8.677  10.227 -0.0183 -1.0278  0.8430
  431MOL0     H58121   9.126   8.678  10.364  0.7719 -2.4287 -0.6432
  431MOL0     H58122   9.070   8.787  10.079 -0.1229 -0.2599  0.6705
  431MOL0     H58123   8.994   8.647  10.162 -0.6784 -0.5357  0.7497
  431MOL0     H58124   8.929   8.804  10.359 -1.6965  1.0561  0.9955
  431MOL0     H58125   8.978   8.932  10.244  2.4829 -1.2292 -3.4129
  431MOL0     H58126   8.811   8.880  10.083  3.0174  4.0824  2.5192
  431MOL0     H58127   8.750   8.737  10.180 -1.4591  0.1936  0.4252
  431MOL0     H58128   8.739   9.036  10.264  0.2083  0.2468 -1.5847
  431MOL0     H58129   8.621   8.945  10.179 -1.2426 -0.5228  1.2259
  431MOL0     H58130   8.586   8.800  10.352  0.1969  0.2922 -0.1540
  431MOL0     H58131   8.721   8.874  10.451  0.8559  1.3888 -0.6159
  431MOL0     H58132   8.447   9.000  10.359 -3.0721  4.9395  2.5428
  431MOL0     H58133   8.495   8.921  10.513  0.8383 -1.8619 -1.8165
  431MOL0     H58134   8.577   9.186  10.406  1.1174  2.3386  1.8141
  431MOL0     H58135   8.643   9.124  10.562  0.6642 -0.1851 -1.6616
  431MOL0     H58136   8.491   9.365  10.619 -1.1439  0.7309  3.2815
  431MOL0     H58137   8.229   9.463  10.668  1.2177 -0.8429 -0.5155
  431MOL0     H58138   8.128   9.345  10.776 -1.2300  1.2906 -0.3161
  431MOL0     H58139   8.374   9.504  10.820 -1.7209  2.6403 -0.4733
  431MOL0     H58140   8.323   9.376  10.937  1.3898  0.0191 -1.7893
  431MOL0     H58141   8.125   9.507  10.995 -1.4770  1.1379 -1.8304
  431MOL0     H58142   8.143   9.639  10.887 -2.2641 -2.9850 -2.3332
  431MOL0     H58143   8.386   9.653  11.015  0.1765  1.2966  1.0950
  431MOL0     H58144   8.288   9.581  11.146  3.9781  1.9833  2.2313
  431MOL0     H58145   8.099   9.979  11.114 -1.0313  0.5377 -0.8218
  431MOL0     H58146   8.039  10.260  10.897 -1.8726 -0.5391 -0.8814
  431MOL0     H58147   7.982  10.180  11.032 -1.8972  5.1607 -0.1729
  431MOL0     H58148   8.138  10.277  11.052  1.0756  0.1362 -0.0365
  431MOL0     H58149   8.413  10.460  10.675 -0.6603 -1.2078 -0.8503
  431MOL0     H58150   8.390  10.694  10.610 -0.2304  1.1578 -3.0250
  431MOL0     H58151   8.248  10.943  10.623 -2.3137  0.5430 -0.1160
  431MOL0     H58152   8.362  10.888  10.505 -0.3165 -2.0382  1.7864
  431MOL0     H58153   8.115  11.047  10.427 -0.4680 -1.0110 -2.3275
  431MOL0     H58154   8.282  11.111  10.433  2.2525 -1.0600 -2.0542
  431MOL0     H58155   8.159  10.885  10.246 -1.8008  0.9989  0.2034
  431MOL0     H58156   8.330  10.950  10.254 -0.6541 -1.2813 -0.3099
  431MOL0     H58157   8.084  11.132  10.185  1.0793  3.1723 -2.5506
  431MOL0     H58158   8.251  11.167  10.198  0.6714 -0.4963  0.5691
  431MOL0     H58159   8.110  10.983   9.991 -2.3734  1.8793  1.6776
  431MOL0     H58160   8.289  10.975  10.011 -1.7540 -3.6361 -1.0390
  431MOL0     H58161   8.132  11.242   9.965 -1.3115 -2.0997  1.1281
  431MOL0     H58162   8.309  11.200   9.955  0.3152 -0.3841 -0.9609
  431MOL0     H58163   8.262  11.081   9.735 -1.3175 -2.5684  1.3113
  431MOL0     H58164   8.211  11.249   9.749 -0.4954  1.0931  2.8043
  431MOL0     H58165   8.021  11.024   9.812  2.7675 -0.1136  3.8877
  431MOL0     H58166   8.039  11.072   9.646  2.7019 -0.0381  0.2572
  431MOL0     H58167   7.982  10.613  10.503  0.4832  0.5618 -0.0244
  431MOL0     H58168   8.004  10.391  10.608  1.2178 -1.2654 -1.1465
  431MOL0     H58169   8.445  10.013  10.778 -1.0644 -0.0453 -1.3117
  431MOL0     H58170   8.406   9.798  10.899 -0.5574 -1.1780  4.7223
  431MOL0     H58171   9.170   9.062  10.480 -0.2295  0.7686  1.8183
  431MOL0     H58172   9.246   9.060  10.706 -1.5340 -2.6325  2.2164
  431MOL0     H58173   9.699   8.667  11.057 -0.8143 -1.0721  1.6309
  431MOL0     H58174   9.725   8.689  11.286 -1.6213  0.9956  5.1038
  431MOL0     H58175   9.765   9.101  11.408  0.8350  0.3173  0.8288
  431MOL0     H58176   9.614   9.068  11.500  0.9644  0.1666  0.5152
  431MOL0     H58177   9.841   9.139  11.629  0.9625  0.9453 -2.5923
  431MOL0     H58178   9.893   8.982  11.574 -1.6753 -3.8810  0.8573
  431MOL0     H58179   9.719   8.871  11.709 -2.8850  1.0209 -0.5000
  431MOL0     H58180   9.637   9.015  11.745  0.2703  0.4510  0.8871
  431MOL0     H58181   9.904   8.926  11.861 -0.7925 -1.6861 -1.5280
  431MOL0     H58182   9.745   8.962  11.939 -0.4991  2.7485  0.2727
  431MOL0     H58183   9.963   9.329  11.946 -0.6468  0.1856 -1.9131
  431MOL0     H58184   9.544   9.082  11.262 -0.8081  1.8517 -3.2175
  431MOL0     H58185   9.473   9.037  11.038 -3.2222 -1.0278  2.2362
  432MOL0     O58186  11.019   3.459   3.059 -0.4376 -0.6764 -1.1106
  432MOL0     C58187  10.989   3.359   2.995  0.0456  0.0156 -0.3852
  432MOL0     O58188  10.903   3.359   2.890 -0.0129 -0.3925  0.3934
  432MOL0     C58189  10.857   3.471   2.819 -0.1026 -0.6905  0.1115
  432MOL0     C58190  10.838   3.450   2.685  0.1036  0.1638  0.2569
  432MOL0     C58191  10.816   3.556   2.600 -0.0152  0.0661  0.8138
  432MOL0     C58192  10.813   3.695   2.645  0.3250  1.3250 -0.0812
  432MOL0     O58193  10.794   3.806   2.565 -0.4639  0.1853  0.2922
  432MOL0     C58194  10.810   3.778   2.418 -0.3669  0.5638 -0.4468
  432MOL0     C58195  10.954   3.735   2.379 -0.5237 -0.4754 -0.9190
  432MOL0     C58196  10.991   3.797   2.241 -0.3013 -0.0646  0.1323
  432MOL0     C58197  11.135   3.787   2.195 -0.2561 -0.4553  0.4519
  432MOL0     C58198  11.185   3.894   2.101  0.8406 -0.0546 -0.3288
  432MOL0     C58199  11.231   4.026   2.176 -0.1095 -0.1904 -0.2123
  432MOL0     C58200  11.238   4.155   2.088  0.2924 -0.6023  0.2456
  432MOL0     C58201  11.297   4.266   2.177 -0.3750 -0.3104 -0.8926
  432MOL0     N58202  11.306   4.388   2.095 -0.2852  0.1781  0.0222
  432MOL0     C58203  11.410   4.418   2.022 -0.3394  0.1920 -0.0684
  432MOL0     C58204  11.387   4.536   1.971  0.3802  0.3547 -0.0159
  432MOL0     C58205  11.482   4.614   1.886  0.6135 -0.5741  0.2581
  432MOL0     C58206  11.596   4.669   1.973  0.0246 -0.7481 -0.1856
  432MOL0     C58207  11.561   4.798   2.040 -0.3746  0.2438 -0.1489
  432MOL0     C58208  11.683   4.868   2.098  0.1098 -1.2540 -0.5932
  432MOL0     O58209  11.635   4.982   2.178  0.5865 -0.4676  0.3002
  432MOL0     C58210  11.744   5.059   2.211  0.0728 -0.6867  1.1296
  432MOL0     C58211  11.807   5.054   2.330  0.6372  0.3781 -0.1592
  432MOL0     C58212  11.907   5.146   2.372 -0.0980  0.1721  0.1426
  432MOL0     C58213  11.964   5.127   2.503  0.1925  0.5023  0.8165
  432MOL0     C58214  11.946   5.258   2.283 -0.4277 -0.1802  0.1121
  432MOL0     C58215  12.060   5.353   2.308 -0.9633 -0.1275  0.3132
  432MOL0     O58216  12.068   5.464   2.226  0.5636  0.4686  0.1284
  432MOL0     C58217  12.167   5.553   2.252 -0.0431  0.7498  0.9484
  432MOL0     C58218  12.301   5.517   2.252 -0.0782  0.2637  0.7029
  432MOL0     C58219  12.404   5.614   2.262 -0.0064  0.0277  1.4380
  432MOL0     C58220  12.370   5.754   2.258 -0.4087  0.4330  0.6049
  432MOL0     O58221  12.477   5.843   2.271  0.3185 -1.8907  0.2553
  432MOL0     C58222  12.460   5.983   2.314 -0.4161  1.0303  0.2628
  432MOL0     C58223  12.595   6.045   2.306 -0.3267 -0.1591  1.1252
  432MOL0     C58224  12.678   6.030   2.428  0.9225 -0.1480  0.1217
  432MOL0     C58225  12.801   6.121   2.410 -0.1515 -0.3214 -0.4550
  432MOL0     C58226  12.871   6.128   2.551  0.7196 -0.0906  0.4538
  432MOL0     C58227  12.969   6.246   2.572  0.3124  0.4737  0.0565
  432MOL0     C58228  13.035   6.295   2.439  0.3836 -0.0973 -0.1196
  432MOL0     C58229  13.148   6.380   2.489 -0.4550  0.7174 -0.8021
  432MOL0    Cl58230  13.202   6.489   2.366 -0.4130  0.3668  0.2812
  432MOL0     C58231  12.235   5.791   2.233  0.3600 -0.2445 -0.0243
  432MOL0     C58232  12.141   5.689   2.236  0.0264 -0.0697  0.4242
  432MOL0     O58233  12.132   5.339   2.400 -1.2053  0.6322 -0.4020
  432MOL0     C58234  11.863   5.275   2.162 -0.1954  0.1929 -0.6252
  432MOL0     C58235  11.764   5.177   2.133  0.6809  0.2835 -0.3557
  432MOL0     N58236  11.257   4.574   2.001  0.1422 -0.0190 -0.3415
  432MOL0     N58237  11.206   4.487   2.087 -0.1073 -0.3551  0.2508
  432MOL0     C58238  10.826   3.715   2.783  0.1119 -0.6314  0.4253
  432MOL0     C58239  10.852   3.608   2.876  0.0712  0.5782 -0.6197
  432MOL0     C58240  11.040   3.233   3.052 -0.2866 -0.1077 -0.3067
  432MOL0     C58241  11.039   3.116   2.978  0.3838  0.0604  0.0900
  432MOL0     C58242  11.084   2.992   3.028  0.0199 -1.1623 -0.6009
  432MOL0     C58243  11.135   2.992   3.161  0.1486  0.6177  0.3645
  432MOL0     O58244  11.196   2.890   3.219 -0.9397 -0.8089  0.5817
  432MOL0     C58245  11.338   2.890   3.224  0.2864 -1.1798  0.4578
  432MOL0     C58246  11.403   2.800   3.109 -0.0993  0.3825 -0.2869
  432MOL0     C58247  11.353   2.659   3.097 -0.6003  1.0681 -0.1960
  432MOL0     C58248  11.428   2.578   2.995  0.2109  0.5834  0.5703
  432MOL0     C58249  11.344   2.455   2.972 -0.3710 -0.8398 -0.0366
  432MOL0     C58250  11.280   2.361   2.925 -1.3515  0.2064  0.5906
  432MOL0     C58251  11.137   3.106   3.235 -0.3919 -0.7072  0.2714
  432MOL0     C58252  11.092   3.229   3.177  1.3799  1.0748  0.8870
  432MOL0     H58253  10.862   3.354   2.639  1.7027  0.0184  1.3169
  432MOL0     H58254  10.781   3.535   2.499 -1.6980  0.6909  1.2340
  432MOL0     H58255  10.733   3.712   2.375  0.2273 -0.5449  0.1545
  432MOL0     H58256  10.799   3.876   2.372 -1.3400  0.6898  0.0231
  432MOL0     H58257  11.009   3.778   2.462 -0.2188  0.6257 -1.6671
  432MOL0     H58258  10.955   3.626   2.384 -1.1693 -0.4572 -0.1918
  432MOL0     H58259  10.937   3.752   2.157  0.9056  0.2251 -0.8164
  432MOL0     H58260  10.958   3.901   2.250 -2.3649 -0.4369 -2.1526
  432MOL0     H58261  11.196   3.798   2.285  0.7157 -0.4420 -0.1991
  432MOL0     H58262  11.164   3.684   2.174  1.5931  0.1931 -0.3871
  432MOL0     H58263  11.271   3.858   2.045 -0.6955  0.0756 -2.9416
  432MOL0     H58264  11.107   3.928   2.033 -1.4669 -2.2082  1.0657
  432MOL0     H58265  11.162   4.055   2.256  0.2432  1.1983 -0.3825
  432MOL0     H58266  11.329   4.001   2.217 -0.0163 -0.0505 -0.3488
  432MOL0     H58267  11.284   4.147   1.989  0.8662  1.0384  0.3550
  432MOL0     H58268  11.138   4.180   2.052  0.9062  0.0521 -1.0870
  432MOL0     H58269  11.396   4.234   2.210 -0.4592 -0.9176 -1.2094
  432MOL0     H58270  11.234   4.286   2.264  0.3777  1.3875 -0.6957
  432MOL0     H58271  11.491   4.350   1.998 -2.9515 -2.8623 -0.9588
  432MOL0     H58272  11.517   4.536   1.818 -4.0831 -3.7463  1.0494
  432MOL0     H58273  11.438   4.693   1.823  1.7044  2.3298  2.8721
  432MOL0     H58274  11.681   4.690   1.908 -0.1504 -0.4050 -0.3074
  432MOL0     H58275  11.628   4.594   2.046 -0.4310  2.4946  3.6844
  432MOL0     H58276  11.481   4.782   2.112  0.4018  0.4286  0.7768
  432MOL0     H58277  11.534   4.869   1.961  1.0545 -2.1796 -3.0042
  432MOL0     H58278  11.747   4.898   2.015 -2.6272 -1.4428 -2.9440
  432MOL0     H58279  11.730   4.794   2.163 -2.6287  1.1634  4.9075
  432MOL0     H58280  11.782   4.967   2.390  0.0713 -1.7803 -3.2869
  432MOL0     H58281  11.891   5.074   2.565 -3.4452  1.1667 -2.5405
  432MOL0     H58282  12.056   5.072   2.481  1.2938  1.5827  2.4833
  432MOL0     H58283  11.982   5.219   2.561  2.1287  0.3740  0.4836
  432MOL0     H58284  12.322   5.411   2.236 -0.2019  0.4102 -0.5757
  432MOL0     H58285  12.506   5.581   2.247 -0.4932 -1.1297  0.4766
  432MOL0     H58286  12.384   6.036   2.256 -0.0248 -0.0494 -1.3095
  432MOL0     H58287  12.426   5.983   2.418  0.1686  3.1828  0.5036
  432MOL0     H58288  12.650   6.006   2.219 -2.6944 -0.6107 -0.2634
  432MOL0     H58289  12.573   6.150   2.283 -4.9176 -0.7446  1.9314
  432MOL0     H58290  12.705   5.930   2.463  1.5954 -0.0245 -0.0473
  432MOL0     H58291  12.610   6.059   2.509  2.0643  1.4698  0.5565
  432MOL0     H58292  12.867   6.077   2.335 -0.7414 -0.2009 -1.0593
  432MOL0     H58293  12.776   6.222   2.376  0.9077 -0.1276 -0.6855
  432MOL0     H58294  12.924   6.032   2.551 -1.5021 -1.4516 -1.5427
  432MOL0     H58295  12.797   6.130   2.631 -0.2792 -0.6251 -0.4148
  432MOL0     H58296  12.916   6.336   2.603 -2.0031 -1.3660  1.8986
  432MOL0     H58297  13.034   6.220   2.656  1.7081 -1.0116 -1.4113
  432MOL0     H58298  12.969   6.359   2.380 -0.3558 -0.4948  0.2625
  432MOL0     H58299  13.068   6.210   2.378 -3.5621 -1.1955 -0.9672
  432MOL0     H58300  13.235   6.323   2.521 -0.3336  0.9418 -0.7260
  432MOL0     H58301  13.112   6.445   2.570  1.2422 -0.6184  1.1261
  432MOL0     H58302  12.212   5.896   2.223 -0.3159 -0.4955 -1.3486
  432MOL0     H58303  12.035   5.709   2.224 -0.1532  1.1102  3.3049
  432MOL0     H58304  11.890   5.347   2.086 -0.9556  0.2996 -0.7976
  432MOL0     H58305  11.707   5.183   2.041  0.1179 -2.3691 -0.2454
  432MOL0     H58306  10.804   3.813   2.823  1.0321 -0.0199 -0.5445
  432MOL0     H58307  10.887   3.619   2.978  0.0480 -1.6115 -0.3240
  432MOL0     H58308  10.996   3.114   2.879  0.0690 -0.3775  0.2316
  432MOL0     H58309  11.076   2.900   2.971 -2.7232 -1.3035 -0.1402
  432MOL0     H58310  11.370   2.994   3.207 -1.4490 -0.7548 -0.3843
  432MOL0     H58311  11.351   2.853   3.327 -2.2770 -2.2056  0.4943
  432MOL0     H58312  11.512   2.800   3.122  0.3678  1.9425 -3.3292
  432MOL0     H58313  11.389   2.860   3.019 -0.9942  2.1433  0.9501
  432MOL0     H58314  11.245   2.651   3.082 -0.1723 -1.7825 -2.8245
  432MOL0     H58315  11.377   2.621   3.197 -0.3502 -0.2672 -0.7469
  432MOL0     H58316  11.521   2.537   3.036  0.8020 -2.1342 -2.9580
  432MOL0     H58317  11.452   2.633   2.903  0.3744  0.7172  0.6928
  432MOL0     H58318  11.213   2.293   2.878 -2.1938  2.9472 -2.5694
  432MOL0     H58319  11.171   3.114   3.338 -2.7130  1.0493  0.9899
  432MOL0     H58320  11.094   3.313   3.246 -0.0894 -0.5288  3.0040
  433MOL0     O58321   8.139   8.828   2.418  0.7108 -0.3383  0.3125
  433MOL0     C58322   8.114   8.921   2.496  0.4521 -0.3940 -0.5846
  433MOL0     O58323   8.002   8.923   2.573 -1.1389 -0.1382  0.2650
  433MOL0     C58324   7.904   8.834   2.548 -0.6125  0.2608  0.6561
  433MOL0     C58325   7.804   8.863   2.451  0.0930 -0.8029 -0.0071
  433MOL0     C58326   7.689   8.780   2.443  0.0584 -0.4737 -0.6930
  433MOL0     C58327   7.667   8.679   2.538  0.6535  0.5236 -0.2980
  433MOL0     O58328   7.553   8.593   2.541  0.4556 -0.0218 -0.7471
  433MOL0     C58329   7.482   8.588   2.419 -1.0262 -0.2657  0.4785
  433MOL0     C58330   7.366   8.482   2.438 -1.1035 -0.0896  0.8475
  433MOL0     C58331   7.422   8.334   2.453  0.2382  0.7748  0.1905
  433MOL0     C58332   7.421   8.274   2.589 -0.0176 -0.0602 -0.5305
  433MOL0     C58333   7.463   8.132   2.597  0.4752  0.2478  1.3953
  433MOL0     C58334   7.408   8.060   2.730 -0.4127  0.0134  0.1653
  433MOL0     C58335   7.260   8.045   2.726  0.1445  0.1215  0.1192
  433MOL0     C58336   7.198   7.954   2.850 -0.5347  0.0800  0.6433
  433MOL0     N58337   7.167   8.035   2.969 -0.1171  0.0333 -0.1141
  433MOL0     C58338   7.253   8.046   3.071 -0.0288 -0.5508  0.1409
  433MOL0     C58339   7.198   8.121   3.170 -0.4041 -0.3263  0.0428
  433MOL0     C58340   7.252   8.168   3.304  0.3402 -0.0906  0.0989
  433MOL0     C58341   7.315   8.297   3.289  0.1482  0.0923 -0.4848
  433MOL0     C58342   7.231   8.417   3.312  1.2188 -0.5350  0.0127
  433MOL0     C58343   7.232   8.453   3.460 -0.1483  0.1097 -0.4477
  433MOL0     O58344   7.121   8.534   3.487 -0.3590  0.0370  0.5256
  433MOL0     C58345   7.145   8.626   3.586  0.5590 -0.4074 -1.6970
  433MOL0     C58346   7.064   8.743   3.600 -0.3303 -0.2616 -0.3268
  433MOL0     C58347   7.079   8.830   3.705  0.9955 -0.1470 -0.8211
  433MOL0     C58348   6.996   8.956   3.686 -0.2210  0.3925  0.4496
  433MOL0     C58349   7.167   8.806   3.812  0.9201  0.2922 -0.1280
  433MOL0     C58350   7.196   8.904   3.919 -0.3124  0.3809  0.2559
  433MOL0     O58351   7.142   8.882   4.047 -0.1042 -0.4714  0.7398
  433MOL0     C58352   7.178   8.977   4.140  0.2460  0.7084 -0.8364
  433MOL0     C58353   7.305   8.989   4.204  0.2004 -0.0436  1.1628
  433MOL0     C58354   7.318   9.076   4.313  0.4178  0.8195  0.4412
  433MOL0     C58355   7.210   9.158   4.351 -0.1911 -0.4685 -0.4816
  433MOL0     O58356   7.237   9.245   4.449  0.3047  0.3975  0.4133
  433MOL0     C58357   7.152   9.357   4.475  0.0813 -0.7591  0.1203
  433MOL0     C58358   7.221   9.468   4.559 -0.9144 -0.9766 -1.1591
  433MOL0     C58359   7.290   9.429   4.691 -0.2137 -0.0292  0.3399
  433MOL0     C58360   7.214   9.327   4.769  0.1771 -0.0282  0.1585
  433MOL0     C58361   7.241   9.315   4.914  0.3455 -0.3890  0.6509
  433MOL0     C58362   7.387   9.297   4.942 -0.6823 -1.1127  0.4374
  433MOL0     C58363   7.445   9.336   5.074 -0.0157 -0.3557  0.1255
  433MOL0     C58364   7.405   9.477   5.125  0.1976 -0.1335  0.5669
  433MOL0    Cl58365   7.437   9.488   5.310 -0.0310 -0.4661  0.0222
  433MOL0     C58366   7.088   9.141   4.292  0.2134  0.0005  0.3144
  433MOL0     C58367   7.064   9.047   4.195 -1.0573 -0.5249 -0.0302
  433MOL0     O58368   7.274   8.994   3.884 -0.3586  0.0390  0.4622
  433MOL0     C58369   7.253   8.688   3.795  0.4947  0.1160  0.2671
  433MOL0     C58370   7.238   8.598   3.693  0.5526  0.1962 -0.1539
  433MOL0     N58371   7.063   8.131   3.131 -0.4764  0.4084  0.2868
  433MOL0     N58372   7.044   8.086   3.009 -0.6301  0.5645 -0.2768
  433MOL0     C58373   7.763   8.650   2.632  0.8157  0.4783  0.5659
  433MOL0     C58374   7.884   8.726   2.637  0.3199 -0.0549 -0.2690
  433MOL0     C58375   8.220   9.022   2.519 -0.6480 -0.2937 -0.7253
  433MOL0     C58376   8.242   9.068   2.651 -1.1707 -0.7073  0.2711
  433MOL0     C58377   8.360   9.141   2.689  0.0798 -0.0951  0.9362
  433MOL0     C58378   8.451   9.182   2.585 -0.4392 -0.0253  0.2162
  433MOL0     O58379   8.570   9.262   2.605  0.6415 -0.0728  0.2662
  433MOL0     C58380   8.633   9.256   2.731  0.2439  1.0540  0.5604
  433MOL0     C58381   8.683   9.111   2.766 -0.3512  0.6634  0.4232
  433MOL0     C58382   8.761   9.041   2.655 -0.0744  0.4970 -0.4019
  433MOL0     C58383   8.723   8.890   2.632  0.5639 -0.9455 -0.4812
  433MOL0     C58384   8.811   8.817   2.552  1.0180 -0.2017 -0.7812
  433MOL0     C58385   8.890   8.746   2.497  0.3282 -0.2896  0.7482
  433MOL0     C58386   8.417   9.145   2.454  0.7028  0.1736 -0.1055
  433MOL0     C58387   8.309   9.063   2.417  1.0801 -0.0051 -0.1016
  433MOL0     H58388   7.810   8.954   2.392  0.5629 -0.5118  0.4751
  433MOL0     H58389   7.610   8.806   2.375 -0.4269 -0.4311 -0.1248
  433MOL0     H58390   7.433   8.684   2.405  0.8385  0.9084  1.5849
  433MOL0     H58391   7.551   8.572   2.336  2.4083 -1.5007  3.2822
  433MOL0     H58392   7.317   8.510   2.531 -1.1160 -0.4180  0.9388
  433MOL0     H58393   7.309   8.496   2.345  2.9811  1.9437 -1.6562
  433MOL0     H58394   7.362   8.273   2.385 -1.3343  0.5298  1.7433
  433MOL0     H58395   7.520   8.329   2.404 -1.3256 -1.4266 -3.0418
  433MOL0     H58396   7.494   8.331   2.646  2.0200 -1.3564 -1.7326
  433MOL0     H58397   7.318   8.279   2.625 -0.6838 -2.7315 -1.7810
  433MOL0     H58398   7.426   8.071   2.515  0.5681  0.4142  1.2301
  433MOL0     H58399   7.571   8.136   2.579 -0.1300  1.6214 -3.1778
  433MOL0     H58400   7.448   7.959   2.736 -0.3951  0.0938  1.7258
  433MOL0     H58401   7.431   8.118   2.820  4.6413  0.3087 -0.9938
  433MOL0     H58402   7.209   8.141   2.721  1.2603  0.7632  0.6037
  433MOL0     H58403   7.241   7.995   2.630 -0.9936  2.6420 -1.0563
  433MOL0     H58404   7.275   7.879   2.872 -0.7578 -1.7801 -3.7432
  433MOL0     H58405   7.107   7.899   2.821  0.8336 -1.2289 -1.4476
  433MOL0     H58406   7.353   8.005   3.068  1.7755  3.0740 -5.0986
  433MOL0     H58407   7.171   8.188   3.375  0.6451 -1.5971  0.9039
  433MOL0     H58408   7.303   8.088   3.358 -0.2192 -2.2114 -2.3087
  433MOL0     H58409   7.343   8.301   3.183  2.3908  1.3549  0.0893
  433MOL0     H58410   7.408   8.306   3.346 -0.7924  2.5121  0.8343
  433MOL0     H58411   7.127   8.393   3.287  1.1676 -1.3878  0.9889
  433MOL0     H58412   7.274   8.507   3.268  2.1127 -0.7799  0.3670
  433MOL0     H58413   7.327   8.501   3.487 -0.5417  1.8972 -2.0657
  433MOL0     H58414   7.219   8.363   3.521  0.0781  0.1852 -0.2852
  433MOL0     H58415   6.983   8.758   3.530 -1.1052  2.5780  1.0180
  433MOL0     H58416   6.894   8.918   3.688 -0.9427  1.5390 -4.2349
  433MOL0     H58417   7.003   9.019   3.776 -0.4826 -1.4104  1.7904
  433MOL0     H58418   7.016   9.004   3.590  2.7529 -1.7864 -0.1878
  433MOL0     H58419   7.394   8.927   4.192  0.5987  0.3034  2.1693
  433MOL0     H58420   7.402   9.079   4.381  0.3801  3.6420  0.4788
  433MOL0     H58421   7.115   9.405   4.384 -4.1176  0.0477  2.0289
  433MOL0     H58422   7.060   9.329   4.528 -0.7522 -1.5164 -1.6582
  433MOL0     H58423   7.305   9.512   4.504  0.7493 -1.9210  0.5337
  433MOL0     H58424   7.143   9.540   4.582 -0.2420 -1.0976  1.8225
  433MOL0     H58425   7.326   9.517   4.745 -0.2604  0.9145 -1.1089
  433MOL0     H58426   7.384   9.384   4.659 -0.9506  0.1614 -2.3836
  433MOL0     H58427   7.105   9.335   4.759 -0.2309 -1.6402  2.4899
  433MOL0     H58428   7.241   9.237   4.713  3.4586  1.3610 -0.7203
  433MOL0     H58429   7.194   9.239   4.976  1.2697  1.1133  3.3781
  433MOL0     H58430   7.197   9.408   4.951  0.7483  0.0772 -0.0143
  433MOL0     H58431   7.417   9.193   4.924 -1.8376 -2.0056  3.1864
  433MOL0     H58432   7.441   9.356   4.867 -3.7082  1.0558 -0.2180
  433MOL0     H58433   7.555   9.343   5.078  0.1294 -1.9794 -0.3649
  433MOL0     H58434   7.404   9.262   5.143 -3.8320  1.1441 -0.2906
  433MOL0     H58435   7.300   9.497   5.101  0.9699  0.4757 -2.9614
  433MOL0     H58436   7.464   9.558   5.080  2.0589 -1.0709  1.2063
  433MOL0     H58437   7.006   9.200   4.330  1.4710  1.6472  0.5784
  433MOL0     H58438   6.972   9.036   4.137 -0.7206 -0.4139 -0.5954
  433MOL0     H58439   7.324   8.663   3.873 -0.4351  1.2121  1.5200
  433MOL0     H58440   7.307   8.514   3.698  1.3034  0.8257  0.3505
  433MOL0     H58441   7.754   8.563   2.696  4.4808  0.0569  0.7124
  433MOL0     H58442   7.964   8.696   2.705 -1.0989 -1.2695  0.9531
  433MOL0     H58443   8.165   9.047   2.725 -2.6045 -2.2609 -1.5647
  433MOL0     H58444   8.368   9.168   2.794  0.2838  0.1162  0.8671
  433MOL0     H58445   8.728   9.310   2.725  2.1485 -1.7696  2.7709
  433MOL0     H58446   8.573   9.294   2.815 -0.2113  2.3730 -0.3215
  433MOL0     H58447   8.606   9.036   2.785  0.9397 -1.8634 -3.2845
  433MOL0     H58448   8.742   9.118   2.858  1.8686 -0.6137 -0.8315
  433MOL0     H58449   8.867   9.039   2.681  0.5884 -3.3829 -2.6654
  433MOL0     H58450   8.747   9.085   2.556 -0.3624 -0.5474 -0.8354
  433MOL0     H58451   8.622   8.888   2.588  0.9904  1.1948 -1.7154
  433MOL0     H58452   8.710   8.844   2.730  1.3639  2.6380  1.4842
  433MOL0     H58453   8.970   8.689   2.454 -1.9021 -3.5113  0.5395
  433MOL0     H58454   8.491   9.167   2.379 -1.1707  0.0159 -2.0991
  433MOL0     H58455   8.283   9.036   2.315  0.0726 -2.2217  0.6748
  434MOL0     O58456   3.775   8.377   5.142  0.7445  0.1916  0.2776
  434MOL0     C58457   3.815   8.257   5.144 -0.2112 -0.8083  1.3836
  434MOL0     O58458   3.929   8.205   5.201 -0.2370 -0.1513 -0.1098
  434MOL0     C58459   4.018   8.296   5.257  0.4870  0.9167 -0.0827
  434MOL0     C58460   4.087   8.269   5.377 -0.3155 -0.1921  0.5172
  434MOL0     C58461   4.193   8.351   5.418 -0.2959  0.3123 -0.5278
  434MOL0     C58462   4.211   8.474   5.357  0.2767 -0.0625  0.5997
  434MOL0     O58463   4.321   8.557   5.399 -0.9998 -0.0801  0.1144
  434MOL0     C58464   4.272   8.696   5.396 -0.3155 -0.1165  0.0598
  434MOL0     C58465   4.364   8.787   5.478 -0.4530  0.2535  0.4498
  434MOL0     C58466   4.486   8.839   5.389  0.4385 -0.0900 -0.1022
  434MOL0     C58467   4.589   8.913   5.479  0.3725  0.5690 -0.5877
  434MOL0     C58468   4.720   8.937   5.411 -1.2045  0.5277  0.1584
  434MOL0     C58469   4.826   8.992   5.498  0.0284 -0.3271 -0.2382
  434MOL0     C58470   4.958   8.908   5.493  0.6113 -0.1991  0.4872
  434MOL0     C58471   5.028   8.909   5.627  0.2540 -0.3549 -0.0597
  434MOL0     N58472   5.156   8.984   5.605 -0.2360 -0.4207 -0.1764
  434MOL0     C58473   5.178   9.114   5.578 -0.6291 -0.9681  0.4306
  434MOL0     C58474   5.308   9.139   5.574  0.1764  0.6967 -0.0353
  434MOL0     C58475   5.371   9.268   5.549  0.9464 -0.9725  0.5575
  434MOL0     C58476   5.337   9.315   5.405 -0.1023  0.8913  0.5205
  434MOL0     C58477   5.390   9.469   5.381 -0.8255 -0.2483 -0.7562
  434MOL0     C58478   5.540   9.478   5.381  1.0094 -0.4108 -0.3772
  434MOL0     O58479   5.591   9.423   5.267  0.5378 -0.5265 -0.1382
  434MOL0     C58480   5.725   9.410   5.251 -1.0832 -0.1554 -0.4839
  434MOL0     C58481   5.817   9.469   5.329 -0.1195 -0.7189  0.8503
  434MOL0     C58482   5.955   9.444   5.316  0.0473 -1.1968  0.0790
  434MOL0     C58483   6.043   9.532   5.405 -0.3614  0.3646 -0.1003
  434MOL0     C58484   5.998   9.337   5.237 -0.3046  1.7550 -0.0228
  434MOL0     C58485   6.144   9.297   5.212 -1.1746 -0.4998 -0.3633
  434MOL0     O58486   6.171   9.200   5.119 -0.1796  0.8399 -0.3838
  434MOL0     C58487   6.291   9.146   5.094 -0.5463 -0.4159 -0.0952
  434MOL0     C58488   6.386   9.213   5.021 -1.0280 -0.2059 -0.4392
  434MOL0     C58489   6.511   9.146   5.006  0.8847  0.1410 -0.8511
  434MOL0     C58490   6.545   9.016   5.066  0.5901 -0.2615 -0.4448
  434MOL0     O58491   6.663   8.953   5.066 -0.1476  0.3002  0.4276
  434MOL0     C58492   6.777   8.992   4.980 -0.6548  0.5208 -0.0459
  434MOL0     C58493   6.899   8.924   5.039 -0.7886 -0.4767  0.7232
  434MOL0     C58494   7.030   8.966   4.960  0.2905 -0.2214  0.3233
  434MOL0     C58495   7.034   8.886   4.818 -0.3478 -0.3846 -0.6572
  434MOL0     C58496   7.160   8.935   4.738  0.6470 -0.3512  0.0146
  434MOL0     C58497   7.152   8.885   4.588 -0.6676 -0.1859  0.0747
  434MOL0     C58498   7.198   8.744   4.580  0.6503 -0.4658  0.9091
  434MOL0     C58499   7.189   8.700   4.437  0.5140  0.8056 -0.2479
  434MOL0    Cl58500   7.037   8.627   4.400 -0.3315  0.0689  0.0169
  434MOL0     C58501   6.442   8.958   5.142  0.1587  0.0752  1.1107
  434MOL0     C58502   6.322   9.022   5.153 -0.4208  0.7361  0.1062
  434MOL0     O58503   6.233   9.357   5.276  0.2468 -0.3110 -1.0808
  434MOL0     C58504   5.901   9.265   5.162 -0.1177  0.3013 -0.4136
  434MOL0     C58505   5.769   9.299   5.178  0.3241  0.4011  0.0855
  434MOL0     N58506   5.372   9.025   5.617  0.3765 -0.4036  0.0995
  434MOL0     N58507   5.283   8.929   5.622  0.0173 -0.3215 -0.6623
  434MOL0     C58508   4.145   8.503   5.240  0.5706 -1.2375 -1.3416
  434MOL0     C58509   4.054   8.408   5.182 -1.2378  0.0683 -0.5462
  434MOL0     C58510   3.714   8.172   5.074  0.8064  0.2934  0.5242
  434MOL0     C58511   3.698   8.035   5.110 -0.0424  0.5066  1.2627
  434MOL0     C58512   3.609   7.952   5.037  0.0480 -1.2524 -0.8557
  434MOL0     C58513   3.549   8.006   4.918 -1.2481  0.0823  0.6543
  434MOL0     O58514   3.464   7.922   4.843  0.1320 -0.3030 -0.3506
  434MOL0     C58515   3.326   7.964   4.823 -0.2314  0.3333  0.2565
  434MOL0     C58516   3.298   7.963   4.671 -0.1244  0.0894  0.2608
  434MOL0     C58517   3.168   8.015   4.616  0.6032 -0.4549 -1.2787
  434MOL0     C58518   3.043   7.919   4.643 -0.3142  0.8019  0.0271
  434MOL0     C58519   2.999   7.925   4.777 -1.2271 -0.2129 -0.2252
  434MOL0     C58520   2.975   7.955   4.891  0.2205  0.3021  0.3612
  434MOL0     C58521   3.581   8.143   4.881 -0.2433  0.5564  0.6426
  434MOL0     C58522   3.644   8.230   4.969  0.3440 -0.3290  0.4469
  434MOL0     H58523   4.061   8.180   5.433 -1.5701  0.6260  1.2892
  434MOL0     H58524   4.257   8.329   5.503 -0.9545  0.1808 -0.0532
  434MOL0     H58525   4.281   8.738   5.295 -0.1898  0.5542  0.3483
  434MOL0     H58526   4.176   8.701   5.448 -0.2880  0.8444  0.0312
  434MOL0     H58527   4.299   8.874   5.488 -2.7641 -1.4848  1.5805
  434MOL0     H58528   4.388   8.735   5.571 -0.1564  1.4748  1.0687
  434MOL0     H58529   4.532   8.755   5.336 -3.2786 -2.4814  0.1174
  434MOL0     H58530   4.441   8.918   5.328 -0.9520 -1.0552 -0.3455
  434MOL0     H58531   4.552   9.009   5.516 -0.3402 -0.0228  0.2610
  434MOL0     H58532   4.612   8.856   5.569 -1.5658  3.0914  1.6864
  434MOL0     H58533   4.744   8.836   5.376  0.4549  1.0680 -0.3724
  434MOL0     H58534   4.710   9.009   5.329  2.2684  2.3701  1.1562
  434MOL0     H58535   4.861   9.089   5.460  2.8995 -1.0783  0.2704
  434MOL0     H58536   4.786   8.998   5.599 -0.1492  1.8969 -0.3978
  434MOL0     H58537   4.942   8.800   5.487  1.9874 -0.3868 -4.1106
  434MOL0     H58538   5.024   8.942   5.413 -0.8659 -0.0259 -0.7111
  434MOL0     H58539   5.057   8.808   5.659 -0.6159 -0.8073 -0.6639
  434MOL0     H58540   4.963   8.955   5.702  0.7654  2.1886 -1.0593
  434MOL0     H58541   5.110   9.196   5.554  0.6142 -0.0426 -0.0531
  434MOL0     H58542   5.339   9.349   5.615 -2.7647  1.3491 -3.5203
  434MOL0     H58543   5.479   9.251   5.550  0.9978 -3.3456 -5.2645
  434MOL0     H58544   5.228   9.317   5.393 -0.0414 -0.7837 -0.7125
  434MOL0     H58545   5.373   9.240   5.333 -0.7146  1.0394  0.0576
  434MOL0     H58546   5.349   9.539   5.454  1.0556  0.8874 -0.7318
  434MOL0     H58547   5.352   9.511   5.287 -1.0224 -0.7134 -0.8899
  434MOL0     H58548   5.582   9.433   5.471  0.2282 -1.9581 -0.7432
  434MOL0     H58549   5.556   9.586   5.384 -3.1731  0.3829  2.3131
  434MOL0     H58550   5.786   9.553   5.390 -0.4227 -0.1231 -0.1097
  434MOL0     H58551   6.107   9.579   5.330  2.6109  1.9538  3.1365
  434MOL0     H58552   5.980   9.607   5.453  1.6025  0.3197  2.8771
  434MOL0     H58553   6.103   9.473   5.475  2.0332 -0.9931 -3.0519
  434MOL0     H58554   6.370   9.308   4.970  0.2557 -0.6758 -1.7920
  434MOL0     H58555   6.590   9.195   4.951  1.9987 -1.9405 -1.2217
  434MOL0     H58556   6.751   8.975   4.875  1.2609  1.3042 -0.6934
  434MOL0     H58557   6.788   9.100   4.993 -0.8841  0.7449 -1.5433
  434MOL0     H58558   6.911   8.970   5.138 -0.2952 -0.6472  0.7449
  434MOL0     H58559   6.901   8.815   5.032  2.3875 -0.4214 -2.4700
  434MOL0     H58560   7.123   8.939   5.010  1.6324  1.1021 -1.3040
  434MOL0     H58561   7.026   9.070   4.925  0.9557 -0.4433 -0.4459
  434MOL0     H58562   7.046   8.785   4.859  0.7225  0.5294  1.4745
  434MOL0     H58563   6.945   8.888   4.755 -0.9940 -0.5525  0.2348
  434MOL0     H58564   7.253   8.913   4.791  1.2650 -1.7463 -1.5527
  434MOL0     H58565   7.173   9.044   4.735  1.8721 -0.3302  3.0937
  434MOL0     H58566   7.052   8.888   4.544  1.5265  0.5865 -5.6213
  434MOL0     H58567   7.214   8.956   4.532 -0.1655  0.0232  0.8749
  434MOL0     H58568   7.128   8.686   4.640 -0.0997  0.6944  1.1881
  434MOL0     H58569   7.300   8.724   4.615  0.3920  0.2783  2.1467
  434MOL0     H58570   7.267   8.623   4.432  0.7108  1.0506 -3.6790
  434MOL0     H58571   7.215   8.784   4.372  0.7323  1.2015  0.3480
  434MOL0     H58572   6.468   8.860   5.182 -0.7329 -1.2532 -1.3276
  434MOL0     H58573   6.242   8.975   5.210  0.5450 -0.4609  0.5120
  434MOL0     H58574   5.924   9.196   5.082  1.8536  2.7395 -2.0976
  434MOL0     H58575   5.696   9.241   5.123  0.2827  1.7439 -1.3522
  434MOL0     H58576   4.176   8.592   5.187 -1.5000 -0.2054 -0.8882
  434MOL0     H58577   4.013   8.434   5.085 -1.6765  1.6149  0.0269
  434MOL0     H58578   3.765   7.998   5.187  2.6107  1.1719 -0.5879
  434MOL0     H58579   3.581   7.853   5.070 -1.1594 -1.5436 -2.6058
  434MOL0     H58580   3.258   7.894   4.873 -1.8428 -1.0126 -3.4338
  434MOL0     H58581   3.309   8.063   4.865  0.4064 -0.1241  1.6296
  434MOL0     H58582   3.313   7.865   4.624  0.2705  0.3993 -0.2765
  434MOL0     H58583   3.369   8.029   4.621 -0.6848 -2.3098 -4.2267
  434MOL0     H58584   3.175   8.035   4.509  0.3191 -1.0697 -1.4169
  434MOL0     H58585   3.137   8.107   4.666 -2.9131 -2.5586  0.8626
  434MOL0     H58586   3.069   7.815   4.622  0.3756  1.5179 -3.1313
  434MOL0     H58587   2.963   7.949   4.575  1.9218  2.8546 -1.8920
  434MOL0     H58588   2.955   7.978   4.994  2.4274 -0.8229  1.1103
  434MOL0     H58589   3.552   8.186   4.786 -1.0551 -2.3600 -0.5350
  434MOL0     H58590   3.655   8.335   4.941 -0.5936 -0.7245 -1.6274
  435MOL0     O58591   5.278   6.789   7.634 -0.0400 -0.7024  0.3606
  435MOL0     C58592   5.380   6.761   7.586 -0.1310 -0.6005 -0.5523
  435MOL0     O58593   5.487   6.708   7.657 -0.2193  0.4671  0.5441
  435MOL0     C58594   5.487   6.695   7.795  0.0739 -0.9587  0.4729
  435MOL0     C58595   5.516   6.572   7.844  0.0299  0.2614 -0.8818
  435MOL0     C58596   5.534   6.559   7.983 -0.5203  0.2067 -0.1197
  435MOL0     C58597   5.518   6.663   8.068 -0.7627 -0.4445  0.3392
  435MOL0     O58598   5.528   6.668   8.202  0.3736  0.1279  0.1003
  435MOL0     C58599   5.623   6.576   8.254 -0.0163  0.3036 -1.2636
  435MOL0     C58600   5.657   6.597   8.409  0.6469  0.7277 -1.2178
  435MOL0     C58601   5.724   6.731   8.428  0.3059 -0.1835  1.2060
  435MOL0     C58602   5.782   6.742   8.572  0.3356  0.2514  0.2076
  435MOL0     C58603   5.678   6.771   8.677  0.6416  1.1160 -0.2778
  435MOL0     C58604   5.608   6.900   8.665 -0.9351  0.6278  0.0476
  435MOL0     C58605   5.560   6.948   8.802  0.4374  0.7310 -0.3409
  435MOL0     C58606   5.434   6.875   8.857 -0.2748 -0.4384  0.1394
  435MOL0     N58607   5.441   6.728   8.866  0.0684 -0.0137  0.3660
  435MOL0     C58608   5.386   6.640   8.779 -0.1998 -0.4985 -0.6811
  435MOL0     C58609   5.435   6.525   8.809  0.3694 -0.7996  0.2000
  435MOL0     C58610   5.397   6.387   8.758  0.1216  0.4187  0.0792
  435MOL0     C58611   5.291   6.313   8.846  0.2672 -0.2795 -0.0868
  435MOL0     C58612   5.331   6.283   8.988  0.5708  0.1007 -0.1528
  435MOL0     C58613   5.447   6.188   9.000 -0.2739  0.5061  0.3403
  435MOL0     O58614   5.460   6.186   9.143 -0.6012  0.5343  0.6412
  435MOL0     C58615   5.558   6.104   9.187 -0.0351  0.0861 -0.3889
  435MOL0     C58616   5.692   6.141   9.187 -0.7542  0.4630 -0.2563
  435MOL0     C58617   5.780   6.052   9.243 -0.7715  0.7420  0.2402
  435MOL0     C58618   5.919   6.102   9.252 -0.9776 -0.7026 -0.3583
  435MOL0     C58619   5.737   5.934   9.296 -0.0385  1.5217 -0.4717
  435MOL0     C58620   5.827   5.836   9.370  0.2828 -0.9257  0.0470
  435MOL0     O58621   5.757   5.765   9.469 -0.1655  0.0990 -0.0282
  435MOL0     C58622   5.827   5.673   9.550  0.7562 -1.2330  0.6821
  435MOL0     C58623   5.929   5.580   9.501  0.1835 -0.9085 -0.4727
  435MOL0     C58624   5.978   5.477   9.577 -0.2626  1.6446  0.1305
  435MOL0     C58625   5.937   5.476   9.714 -0.7675 -0.6181 -0.1482
  435MOL0     O58626   5.967   5.375   9.788  0.5035  0.3215  0.6509
  435MOL0     C58627   5.932   5.244   9.738  0.3745 -0.2115  0.8518
  435MOL0     C58628   5.786   5.224   9.688  0.2435  0.8516  0.4812
  435MOL0     C58629   5.729   5.097   9.755  0.5894 -0.0543  0.8934
  435MOL0     C58630   5.582   5.079   9.696  0.8456  1.3347 -0.6098
  435MOL0     C58631   5.491   4.978   9.779  0.2853  0.1844 -0.1821
  435MOL0     C58632   5.333   4.994   9.762 -0.9554 -0.1788 -0.1176
  435MOL0     C58633   5.292   5.010   9.616  0.0620  0.3782  0.2112
  435MOL0     C58634   5.137   5.024   9.605 -0.4316 -0.0434  0.2418
  435MOL0    Cl58635   5.080   5.175   9.698 -0.0419 -0.7772  0.3280
  435MOL0     C58636   5.866   5.587   9.767  0.2296  0.8183  0.0849
  435MOL0     C58637   5.803   5.679   9.687  0.2978  0.2668  0.6110
  435MOL0     O58638   5.938   5.814   9.336 -0.2733 -0.8779 -0.1191
  435MOL0     C58639   5.605   5.893   9.272 -0.8378  0.1060 -1.7235
  435MOL0     C58640   5.510   5.975   9.222 -0.6277  0.0455 -0.2175
  435MOL0     N58641   5.535   6.547   8.904 -0.4392 -0.2292  0.2244
  435MOL0     N58642   5.535   6.670   8.938  1.2497  0.4822  0.5580
  435MOL0     C58643   5.502   6.789   8.022  0.3201 -0.5560 -0.3678
  435MOL0     C58644   5.482   6.805   7.882  0.1590 -0.3399 -0.8877
  435MOL0     C58645   5.398   6.781   7.443  0.6289  0.4577  0.4574
  435MOL0     C58646   5.485   6.687   7.377  0.3158 -0.7285 -0.4293
  435MOL0     C58647   5.509   6.693   7.239  0.3725  0.0745  0.4460
  435MOL0     C58648   5.435   6.782   7.156  0.3598 -0.0045  0.5407
  435MOL0     O58649   5.437   6.784   7.014 -0.2751  0.1539 -1.1928
  435MOL0     C58650   5.520   6.689   6.939 -0.1034 -1.2870  0.2956
  435MOL0     C58651   5.625   6.781   6.866 -0.6482  0.5697 -0.7863
  435MOL0     C58652   5.723   6.857   6.950 -0.1470 -0.2145 -1.1548
  435MOL0     C58653   5.792   6.982   6.886 -0.2191 -0.1223  0.3141
  435MOL0     C58654   5.707   7.056   6.795 -0.2264 -0.2908  0.3212
  435MOL0     C58655   5.655   7.115   6.701 -0.3152 -0.3134 -0.2364
  435MOL0     C58656   5.338   6.858   7.218  0.1594  0.2764 -0.1886
  435MOL0     C58657   5.319   6.858   7.354  0.2591 -0.0453  0.4519
  435MOL0     H58658   5.542   6.479   7.796  3.1526  0.6955 -0.2513
  435MOL0     H58659   5.558   6.465   8.031  0.4847  2.3315  3.9904
  435MOL0     H58660   5.580   6.475   8.253 -0.4090  0.4132  0.7793
  435MOL0     H58661   5.721   6.560   8.207  0.2792 -1.5953 -0.1018
  435MOL0     H58662   5.568   6.585   8.472  2.1319  0.9151  1.0632
  435MOL0     H58663   5.730   6.523   8.444  1.1487  0.9119 -1.8610
  435MOL0     H58664   5.793   6.744   8.344 -1.0699 -1.3623 -0.1567
  435MOL0     H58665   5.648   6.810   8.417  1.3056  0.5493 -1.3277
  435MOL0     H58666   5.828   6.644   8.590 -0.7985 -0.9539 -2.8688
  435MOL0     H58667   5.859   6.818   8.585  0.9272 -0.2551 -0.2818
  435MOL0     H58668   5.618   6.681   8.664  3.8389 -1.1291 -0.6802
  435MOL0     H58669   5.731   6.756   8.771 -0.1644  1.1885  0.1952
  435MOL0     H58670   5.678   6.974   8.626  0.5924 -0.4442  0.6373
  435MOL0     H58671   5.530   6.903   8.589 -1.6551  7.1953  0.4534
  435MOL0     H58672   5.651   6.937   8.862  1.2794  1.2077 -1.4852
  435MOL0     H58673   5.533   7.054   8.807  0.8513  0.8044  2.9465
  435MOL0     H58674   5.355   6.902   8.786  3.5585 -1.2361 -4.9974
  435MOL0     H58675   5.409   6.911   8.957 -0.9023  0.2941 -0.2611
  435MOL0     H58676   5.308   6.671   8.710 -0.2126  1.2478  0.0725
  435MOL0     H58677   5.341   6.406   8.667 -2.7835 -3.3923  0.8429
  435MOL0     H58678   5.488   6.328   8.741 -0.3797  0.1442 -1.8965
  435MOL0     H58679   5.272   6.216   8.799 -3.9131  1.1054 -1.7422
  435MOL0     H58680   5.192   6.359   8.841 -1.1766 -3.1605 -0.6043
  435MOL0     H58681   5.248   6.233   9.039  2.2792 -2.1638  0.6302
  435MOL0     H58682   5.350   6.380   9.036  0.2515 -0.4399  1.1218
  435MOL0     H58683   5.530   6.231   8.942 -0.1887  1.1671  0.9267
  435MOL0     H58684   5.419   6.091   8.960 -2.7962  0.1620  2.6417
  435MOL0     H58685   5.717   6.239   9.150  2.2785 -0.1026  0.0032
  435MOL0     H58686   5.990   6.025   9.219 -1.0669 -0.9238 -0.0395
  435MOL0     H58687   5.935   6.185   9.182 -0.3114 -1.3193 -0.9544
  435MOL0     H58688   5.950   6.131   9.353 -0.1877 -1.2520 -0.4324
  435MOL0     H58689   5.956   5.586   9.396  1.3319  1.4262 -0.1105
  435MOL0     H58690   6.037   5.392   9.543 -3.7901 -0.7562 -0.5676
  435MOL0     H58691   5.990   5.211   9.652  1.1060  1.0688  0.8281
  435MOL0     H58692   5.950   5.184   9.827 -0.7516 -0.3276  1.0150
  435MOL0     H58693   5.723   5.306   9.723  1.1948  1.7816  0.0648
  435MOL0     H58694   5.784   5.209   9.580 -0.2361  1.5432  0.3962
  435MOL0     H58695   5.715   5.114   9.862  0.7098 -1.0144  1.0745
  435MOL0     H58696   5.791   5.009   9.735 -0.9915 -1.1134  0.4393
  435MOL0     H58697   5.523   5.171   9.704 -2.3545 -0.7620  1.8076
  435MOL0     H58698   5.590   5.038   9.595 -0.1911 -5.2272  1.5083
  435MOL0     H58699   5.505   5.010   9.883 -0.9977 -1.6430  0.6223
  435MOL0     H58700   5.510   4.873   9.755 -1.1173 -0.6700  2.0547
  435MOL0     H58701   5.295   4.902   9.808 -2.3450 -0.1836 -1.2135
  435MOL0     H58702   5.290   5.077   9.819  1.4960  1.5999 -0.6827
  435MOL0     H58703   5.310   4.914   9.566 -1.5631 -0.8180  1.7817
  435MOL0     H58704   5.355   5.086   9.570  1.2067  0.3172  1.6114
  435MOL0     H58705   5.083   4.939   9.649 -2.9740  3.7584  5.5307
  435MOL0     H58706   5.112   5.023   9.499  0.3539  4.6026 -0.1965
  435MOL0     H58707   5.829   5.568   9.868 -1.2932 -2.6947 -0.9609
  435MOL0     H58708   5.727   5.748   9.721  0.1125  1.0409 -1.2662
  435MOL0     H58709   5.564   5.797   9.300 -2.2029  1.2230  0.4761
  435MOL0     H58710   5.405   5.953   9.205 -1.5066  5.2632 -3.6943
  435MOL0     H58711   5.487   6.872   8.090  1.3625  0.2070 -1.0393
  435MOL0     H58712   5.464   6.904   7.841  0.2166  0.3818  0.7582
  435MOL0     H58713   5.539   6.613   7.435 -0.6671  0.1259  1.6765
  435MOL0     H58714   5.581   6.618   7.208 -0.0377  0.4254 -1.4533
  435MOL0     H58715   5.560   6.596   6.982  1.6344 -1.8821 -2.3290
  435MOL0     H58716   5.456   6.660   6.855 -1.2891 -0.7335  0.9808
  435MOL0     H58717   5.566   6.849   6.803 -1.2340  0.6143 -0.2054
  435MOL0     H58718   5.683   6.710   6.807 -2.2810 -0.0087 -1.7741
  435MOL0     H58719   5.793   6.778   6.982  0.7600  1.0915  0.2119
  435MOL0     H58720   5.679   6.899   7.041  1.2027  0.2587 -0.6957
  435MOL0     H58721   5.878   6.950   6.827 -2.1549 -0.1395 -2.6788
  435MOL0     H58722   5.826   7.048   6.967  1.6631 -0.7442  0.0784
  435MOL0     H58723   5.611   7.161   6.615 -0.2605 -0.5589 -0.3939
  435MOL0     H58724   5.276   6.923   7.158  0.5910  0.8890  0.0095
  435MOL0     H58725   5.241   6.915   7.404 -2.0284 -2.3337 -0.3307
  436MOL0     O58726   7.954   5.869   7.943 -0.0788 -0.3327  0.1056
  436MOL0     C58727   7.934   5.984   7.976  0.0679 -0.2622  0.6708
  436MOL0     O58728   7.957   6.102   7.904 -0.1981 -0.2407  0.1388
  436MOL0     C58729   7.974   6.093   7.771  0.2353  0.8013  0.0913
  436MOL0     C58730   7.870   6.036   7.696 -0.8184  0.3164 -0.7587
  436MOL0     C58731   7.864   6.042   7.555 -0.0182 -0.4928  0.2468
  436MOL0     C58732   7.976   6.091   7.488  0.2130 -0.9457 -0.6963
  436MOL0     O58733   7.978   6.104   7.352 -0.4194 -0.9144  0.2020
  436MOL0     C58734   7.994   5.981   7.288  0.3308  0.4154  0.3036
  436MOL0     C58735   7.930   5.959   7.153 -0.0569  0.6908  0.1404
  436MOL0     C58736   7.950   5.823   7.085  0.0673  0.3370 -0.1195
  436MOL0     C58737   7.860   5.730   7.161 -0.5247 -0.3005 -0.3685
  436MOL0     C58738   7.864   5.590   7.102  0.4264 -0.3982  1.1065
  436MOL0     C58739   7.991   5.526   7.104 -0.1891  0.5735 -0.4315
  436MOL0     C58740   7.978   5.385   7.029 -0.2291  0.1122 -0.3575
  436MOL0     C58741   7.966   5.380   6.875  0.5313 -0.5139 -0.3530
  436MOL0     N58742   8.080   5.442   6.805 -0.1044  0.2426  0.1706
  436MOL0     C58743   8.065   5.564   6.751  0.6337  0.2435 -0.2862
  436MOL0     C58744   8.173   5.581   6.683 -0.0667  0.3560 -0.1827
  436MOL0     C58745   8.212   5.717   6.627 -0.2129  0.7723  0.0316
  436MOL0     C58746   8.358   5.752   6.615  0.3331 -0.5283 -1.3885
  436MOL0     C58747   8.442   5.756   6.752  0.2308  0.1693 -0.6452
  436MOL0     C58748   8.378   5.826   6.874  0.0639 -0.2567  0.4278
  436MOL0     O58749   8.343   5.963   6.844  0.1126 -0.5007 -0.0917
  436MOL0     C58750   8.430   6.047   6.774  0.5944  0.0176  0.2332
  436MOL0     C58751   8.561   6.076   6.801 -0.2223  0.6824  0.6656
  436MOL0     C58752   8.630   6.167   6.720 -0.7879 -0.0545  0.0416
  436MOL0     C58753   8.775   6.202   6.764  0.8660  0.8607  0.1537
  436MOL0     C58754   8.564   6.231   6.615  0.3540 -0.4243  1.5887
  436MOL0     C58755   8.635   6.324   6.520 -0.2434  0.0888  0.5914
  436MOL0     O58756   8.755   6.384   6.560 -0.4260 -0.4069  0.2248
  436MOL0     C58757   8.806   6.486   6.481 -0.3027  0.2705 -0.9606
  436MOL0     C58758   8.844   6.473   6.349 -0.8466  0.7241  0.0067
  436MOL0     C58759   8.894   6.585   6.284  0.1186 -0.0782 -0.1958
  436MOL0     C58760   8.923   6.706   6.348 -0.5129  0.7265  0.5137
  436MOL0     O58761   8.963   6.814   6.273  0.3450 -0.0156 -0.6752
  436MOL0     C58762   8.948   6.942   6.343 -0.0798 -0.4218  1.2095
  436MOL0     C58763   8.992   7.051   6.260  0.1256  0.1964  0.2097
  436MOL0     C58764   8.905   7.182   6.299  1.3466  0.0498  0.2507
  436MOL0     C58765   8.940   7.222   6.443  0.4245 -1.3019  0.6893
  436MOL0     C58766   8.834   7.285   6.535 -0.3229  0.1090 -1.1037
  436MOL0     C58767   8.756   7.175   6.596  0.0406  0.5143  0.2924
  436MOL0     C58768   8.624   7.216   6.659 -0.3987 -1.0889 -0.1956
  436MOL0     C58769   8.535   7.101   6.683  0.3183  0.6524  0.9883
  436MOL0    Cl58770   8.392   7.127   6.790  0.2539  0.2679 -0.1888
  436MOL0     C58771   8.894   6.710   6.487 -0.3496 -0.3510 -0.2131
  436MOL0     C58772   8.829   6.605   6.552  0.0725  0.8985 -0.4604
  436MOL0     O58773   8.582   6.330   6.407 -0.4750  0.0995 -0.3652
  436MOL0     C58774   8.419   6.210   6.600 -0.4320 -0.0046 -0.3791
  436MOL0     C58775   8.353   6.120   6.677 -0.5332 -0.0167 -0.1377
  436MOL0     N58776   8.251   5.472   6.691 -0.4633 -1.7770 -0.2835
  436MOL0     N58777   8.194   5.379   6.756  0.1617  0.1413 -0.1876
  436MOL0     C58778   8.075   6.151   7.560 -1.2090 -0.1121 -0.9816
  436MOL0     C58779   8.077   6.150   7.703  0.2488  0.8467 -0.5798
  436MOL0     C58780   7.878   5.990   8.116  0.2370 -0.5189  0.5815
  436MOL0     C58781   7.882   5.885   8.204  0.4212  0.5679  0.4897
  436MOL0     C58782   7.825   5.899   8.328  0.2896  1.0033 -0.5534
  436MOL0     C58783   7.779   6.017   8.379 -0.7523 -0.0051  0.5189
  436MOL0     O58784   7.731   6.023   8.514 -0.1081 -0.2029  0.0529
  436MOL0     C58785   7.590   6.030   8.528 -0.3025 -0.5180  0.5033
  436MOL0     C58786   7.524   5.920   8.611 -0.1704  0.0761 -0.6904
  436MOL0     C58787   7.521   5.944   8.764 -0.3678 -1.4109  0.2646
  436MOL0     C58788   7.470   5.820   8.835 -0.5213 -0.5315 -1.0127
  436MOL0     C58789   7.549   5.707   8.817 -0.2669 -0.7653  0.2501
  436MOL0     C58790   7.607   5.605   8.801 -0.8659  0.6552 -0.4861
  436MOL0     C58791   7.776   6.125   8.291  0.0609 -0.0148 -0.7512
  436MOL0     C58792   7.823   6.114   8.165  0.0985 -0.8003  0.5116
  436MOL0     H58793   7.797   5.976   7.749  1.0623  0.2289  1.9361
  436MOL0     H58794   7.781   6.006   7.495  1.4794 -0.8209 -1.7308
  436MOL0     H58795   8.100   5.962   7.267  0.0655  0.1708 -0.8744
  436MOL0     H58796   7.976   5.896   7.354  1.7302 -0.6488 -0.6369
  436MOL0     H58797   7.821   5.964   7.160  0.0855  2.3049  1.8721
  436MOL0     H58798   7.965   6.030   7.078 -3.6607  3.3258  0.7241
  436MOL0     H58799   7.920   5.830   6.980  1.0940  0.2241 -0.4286
  436MOL0     H58800   8.056   5.796   7.086 -0.3576 -1.4447  1.8302
  436MOL0     H58801   7.898   5.738   7.263  0.7987  3.1328 -1.0332
  436MOL0     H58802   7.753   5.751   7.169 -0.7091 -1.5207  0.9023
  436MOL0     H58803   7.796   5.527   7.159  1.2502 -1.6926  0.7131
  436MOL0     H58804   7.821   5.602   7.002 -2.0130  1.8953  2.3257
  436MOL0     H58805   8.068   5.586   7.054 -2.3194  2.5797 -1.5172
  436MOL0     H58806   8.013   5.507   7.210 -3.5933  2.8642  0.8735
  436MOL0     H58807   8.070   5.329   7.051 -0.1701  0.1014 -0.6311
  436MOL0     H58808   7.903   5.325   7.080  2.3549 -2.7256  0.4110
  436MOL0     H58809   7.869   5.422   6.847 -0.7760 -1.9264  1.8149
  436MOL0     H58810   7.962   5.273   6.850 -0.6013 -0.8245  1.0336
  436MOL0     H58811   7.981   5.632   6.760 -0.6325 -1.3016  0.0523
  436MOL0     H58812   8.179   5.718   6.523 -2.5981 -1.3133  0.6820
  436MOL0     H58813   8.167   5.801   6.681  3.3751  1.1611  2.7883
  436MOL0     H58814   8.365   5.847   6.562  0.7603  0.3244  0.1335
  436MOL0     H58815   8.411   5.669   6.567 -1.6120 -3.9188  1.7757
  436MOL0     H58816   8.546   5.786   6.739  0.0865  0.8788 -0.2669
  436MOL0     H58817   8.444   5.652   6.785 -1.8702 -0.7177 -2.9534
  436MOL0     H58818   8.451   5.840   6.955  0.7476 -0.2393 -0.1831
  436MOL0     H58819   8.291   5.771   6.911 -0.1076 -0.1217  0.2235
  436MOL0     H58820   8.614   6.021   6.879  0.9703 -0.2866 -0.7729
  436MOL0     H58821   8.806   6.132   6.843 -1.2694 -0.9898 -0.5347
  436MOL0     H58822   8.832   6.189   6.672 -3.1464  0.6922 -2.5351
  436MOL0     H58823   8.784   6.306   6.798 -3.3207  1.8493 -1.2644
  436MOL0     H58824   8.809   6.386   6.295 -3.6178  1.2151  0.8631
  436MOL0     H58825   8.904   6.604   6.178  0.1926  1.4992  0.0670
  436MOL0     H58826   8.841   6.959   6.351 -0.1486 -0.1771 -0.1194
  436MOL0     H58827   8.999   6.941   6.440 -0.9047 -1.1156  1.6462
  436MOL0     H58828   9.099   7.062   6.281 -0.0038  0.6243  0.6880
  436MOL0     H58829   8.986   7.030   6.153  0.6226  4.3826 -0.8232
  436MOL0     H58830   8.798   7.160   6.300  0.6758  2.8431 -0.3484
  436MOL0     H58831   8.914   7.268   6.232 -3.2371  1.3257  0.9450
  436MOL0     H58832   8.982   7.139   6.500 -0.5291 -1.5620  1.0425
  436MOL0     H58833   9.025   7.289   6.438  0.0101 -0.7982  0.2910
  436MOL0     H58834   8.774   7.363   6.487 -3.3162  0.5830  2.8969
  436MOL0     H58835   8.897   7.330   6.612 -0.1482  0.8932 -1.6870
  436MOL0     H58836   8.722   7.107   6.517  0.3258  0.9128 -0.1804
  436MOL0     H58837   8.815   7.116   6.667 -0.6888 -2.6508 -1.5072
  436MOL0     H58838   8.566   7.283   6.594 -2.1284 -2.1598  0.1859
  436MOL0     H58839   8.643   7.263   6.756  1.6206  0.9077 -1.4286
  436MOL0     H58840   8.600   7.027   6.728  2.2440  1.8245  0.2795
  436MOL0     H58841   8.510   7.052   6.588  4.5295  1.8664 -0.9932
  436MOL0     H58842   8.894   6.797   6.552 -0.5698  0.3608 -1.1461
  436MOL0     H58843   8.791   6.620   6.652  1.2858  1.5970 -0.0816
  436MOL0     H58844   8.361   6.258   6.522 -0.1742 -4.6547 -3.8842
  436MOL0     H58845   8.246   6.102   6.672 -0.8212  1.6854 -0.6701
  436MOL0     H58846   8.160   6.198   7.511 -2.8013  2.9015 -1.1054
  436MOL0     H58847   8.163   6.180   7.763  1.1673  1.0923 -1.9787
  436MOL0     H58848   7.929   5.791   8.177  0.2262 -0.2911  2.8830
  436MOL0     H58849   7.822   5.823   8.405 -0.3863  0.3187 -1.2419
  436MOL0     H58850   7.563   6.130   8.561  0.1825 -0.3112  0.2861
  436MOL0     H58851   7.557   6.013   8.425  4.2773  0.1552 -1.3253
  436MOL0     H58852   7.582   5.831   8.583 -0.8333 -0.2492 -1.0495
  436MOL0     H58853   7.419   5.911   8.582 -0.9988  1.9211  1.4334
  436MOL0     H58854   7.473   6.042   8.773 -0.0657 -1.4022  2.1493
  436MOL0     H58855   7.618   5.973   8.806  0.4817 -1.2291 -1.7156
  436MOL0     H58856   7.368   5.806   8.800 -0.8832  0.5034 -0.4191
  436MOL0     H58857   7.459   5.845   8.941 -1.6524  1.1938 -1.5082
  436MOL0     H58858   7.667   5.517   8.814 -3.9221 -1.1088  3.7584
  436MOL0     H58859   7.725   6.213   8.329 -0.5915 -0.9792  0.6792
  436MOL0     H58860   7.814   6.205   8.107  1.3062 -0.4188  0.8993
  437MOL0     O58861   8.880   2.240   8.419  0.4757  0.0987 -0.3255
  437MOL0     C58862   8.832   2.251   8.532  0.1873  0.2506  0.9769
  437MOL0     O58863   8.831   2.371   8.606  0.0284 -0.0752 -0.8804
  437MOL0     C58864   8.904   2.481   8.579  0.0016  0.3313 -0.4635
  437MOL0     C58865   9.018   2.496   8.511 -1.1060 -1.6461  0.6953
  437MOL0     C58866   9.081   2.626   8.500 -0.8191  0.4070 -0.1880
  437MOL0     C58867   9.033   2.730   8.581 -0.0337  0.1118  0.2789
  437MOL0     O58868   9.108   2.842   8.561 -0.6953 -0.4810 -0.6019
  437MOL0     C58869   9.052   2.965   8.625  0.5528 -0.2952  0.6684
  437MOL0     C58870   9.130   3.080   8.571  0.3881  0.7751  0.0613
  437MOL0     C58871   9.045   3.208   8.586 -0.2676 -0.1015  0.7369
  437MOL0     C58872   9.116   3.332   8.530 -1.1594 -0.8322  0.8337
  437MOL0     C58873   9.230   3.383   8.613 -0.0472 -0.1339 -0.4554
  437MOL0     C58874   9.284   3.514   8.554  0.3587 -0.2966  0.1522
  437MOL0     C58875   9.404   3.558   8.638 -0.1781  1.1062  0.0402
  437MOL0     C58876   9.457   3.695   8.608  0.1967 -0.5490  0.6173
  437MOL0     N58877   9.544   3.688   8.485 -0.5314 -0.5177  0.4550
  437MOL0     C58878   9.682   3.686   8.481  0.0975  0.4587  1.0857
  437MOL0     C58879   9.707   3.683   8.349 -0.1096 -0.6854 -0.4412
  437MOL0     C58880   9.847   3.690   8.292  0.0663  0.5056 -0.0850
  437MOL0     C58881   9.909   3.550   8.293 -0.5140  0.0416 -0.4685
  437MOL0     C58882   9.820   3.423   8.257 -0.0809  0.0793  0.3213
  437MOL0     C58883   9.792   3.417   8.102 -0.1010 -0.8317  0.3145
  437MOL0     O58884   9.724   3.306   8.066  0.7803 -0.3457  0.8418
  437MOL0     C58885   9.587   3.315   8.091  0.0345  0.2069 -0.2782
  437MOL0     C58886   9.534   3.184   8.099  0.8132  0.2492  0.5236
  437MOL0     C58887   9.396   3.168   8.124 -0.0516 -0.6855  0.1277
  437MOL0     C58888   9.338   3.033   8.129  0.8995 -0.4499 -0.3783
  437MOL0     C58889   9.306   3.279   8.142 -0.8247 -0.5674 -0.1004
  437MOL0     C58890   9.160   3.270   8.159  0.7958  0.1328  0.3993
  437MOL0     O58891   9.100   3.154   8.209 -0.1765 -0.3140  0.3235
  437MOL0     C58892   8.969   3.149   8.250 -0.1655  0.1417  0.3135
  437MOL0     C58893   8.926   3.022   8.286 -0.0213  1.0989 -0.7449
  437MOL0     C58894   8.797   3.006   8.337 -0.0905  0.5603  0.6770
  437MOL0     C58895   8.698   3.103   8.342 -0.3700 -0.0050 -0.3170
  437MOL0     O58896   8.579   3.087   8.398  0.8864  0.0776 -0.3513
  437MOL0     C58897   8.540   2.954   8.448 -0.6328  0.6726 -1.0465
  437MOL0     C58898   8.420   2.947   8.541  0.1865 -0.0334 -0.2263
  437MOL0     C58899   8.284   2.959   8.454 -0.9308  0.7154  0.7009
  437MOL0     C58900   8.262   3.110   8.428 -0.3040  0.0649 -0.3981
  437MOL0     C58901   8.128   3.132   8.352 -0.0230 -0.3697 -0.3486
  437MOL0     C58902   8.097   3.273   8.305  0.6389 -0.1296  0.5875
  437MOL0     C58903   7.974   3.251   8.216  1.3741 -0.4385 -0.2599
  437MOL0     C58904   7.922   3.385   8.161  1.2879  0.4219  0.2644
  437MOL0    Cl58905   8.018   3.434   8.027 -0.2238 -0.7342 -0.1764
  437MOL0     C58906   8.745   3.234   8.307  0.0692 -0.4204 -0.9397
  437MOL0     C58907   8.872   3.253   8.262  0.0588 -0.3912  0.1987
  437MOL0     O58908   9.096   3.374   8.132 -0.8304  0.3075  0.1689
  437MOL0     C58909   9.375   3.411   8.134  0.1005  0.1005  0.4027
  437MOL0     C58910   9.506   3.422   8.112  0.0765 -0.5161  0.1622
  437MOL0     N58911   9.588   3.705   8.278 -1.0961 -0.4701 -0.6694
  437MOL0     N58912   9.486   3.697   8.360 -1.3382  0.0643 -0.4623
  437MOL0     C58913   8.919   2.719   8.651 -0.9363 -0.1844  0.6184
  437MOL0     C58914   8.869   2.590   8.654 -0.5519 -0.0332  0.3808
  437MOL0     C58915   8.745   2.140   8.572 -0.1300 -0.1471 -0.6709
  437MOL0     C58916   8.715   2.131   8.711 -0.8560 -0.1135  0.3576
  437MOL0     C58917   8.647   2.022   8.762 -0.1964  1.0970  0.0849
  437MOL0     C58918   8.603   1.916   8.682 -0.3506 -0.5867 -0.3523
  437MOL0     O58919   8.540   1.802   8.722  0.5108 -0.3802 -0.2800
  437MOL0     C58920   8.507   1.700   8.620  0.4357 -0.4542 -0.0788
  437MOL0     C58921   8.445   1.588   8.710  0.2834 -0.1044 -0.5680
  437MOL0     C58922   8.560   1.512   8.782 -0.0382 -0.4391  0.3623
  437MOL0     C58923   8.633   1.384   8.713  0.8621 -0.2523  0.4703
  437MOL0     C58924   8.712   1.417   8.586  0.9073 -0.4711 -0.6752
  437MOL0     C58925   8.764   1.460   8.494 -0.7345  1.6345  0.3656
  437MOL0     C58926   8.645   1.922   8.543  0.6123  0.8292 -0.0486
  437MOL0     C58927   8.699   2.032   8.493 -0.3128 -1.0790 -0.2214
  437MOL0     H58928   9.060   2.419   8.448  1.8372  3.2556 -4.1588
  437MOL0     H58929   9.167   2.645   8.436  1.0077 -1.6049  1.5309
  437MOL0     H58930   8.945   2.979   8.605  0.1340  1.1445  3.4303
  437MOL0     H58931   9.065   2.959   8.733  0.5385  1.9044  0.8369
  437MOL0     H58932   9.222   3.079   8.631  1.5952  0.8648 -1.7008
  437MOL0     H58933   9.169   3.065   8.470  3.4134 -0.9504  1.3105
  437MOL0     H58934   8.950   3.202   8.532  0.1943 -0.7003 -0.0335
  437MOL0     H58935   9.021   3.217   8.692 -4.3265 -2.1510  0.1976
  437MOL0     H58936   9.143   3.320   8.425  2.2181 -0.2509  1.5293
  437MOL0     H58937   9.041   3.412   8.532  1.1050  1.5574 -1.6732
  437MOL0     H58938   9.182   3.405   8.709 -0.7440  3.2814 -1.4306
  437MOL0     H58939   9.300   3.300   8.615 -1.5921 -1.5665 -2.0384
  437MOL0     H58940   9.310   3.492   8.450 -4.4167  0.6388 -1.5242
  437MOL0     H58941   9.210   3.594   8.546  0.5880 -0.0710  0.2681
  437MOL0     H58942   9.385   3.554   8.745  0.7311  3.4983  0.3520
  437MOL0     H58943   9.484   3.484   8.628 -2.2022 -1.2238  0.1847
  437MOL0     H58944   9.521   3.738   8.685 -0.3243  3.1734 -0.8075
  437MOL0     H58945   9.375   3.763   8.583  0.5331  0.0383  1.0877
  437MOL0     H58946   9.743   3.689   8.571 -1.9657  4.4220  2.5853
  437MOL0     H58947   9.839   3.728   8.190 -1.9859 -2.2110 -1.0548
  437MOL0     H58948   9.910   3.755   8.353 -0.3806 -1.0894  2.1944
  437MOL0     H58949   9.945   3.536   8.396 -2.4672 -0.8289  0.1562
  437MOL0     H58950   9.996   3.557   8.228  1.2364 -0.0719  1.7238
  437MOL0     H58951   9.725   3.408   8.309  0.3472 -0.1292  1.0600
  437MOL0     H58952   9.871   3.331   8.287  0.3380 -0.1263 -0.9513
  437MOL0     H58953   9.884   3.411   8.044  0.1353 -0.7675  0.6756
  437MOL0     H58954   9.751   3.509   8.061  0.2522 -0.3530  1.0194
  437MOL0     H58955   9.598   3.097   8.096  0.2040 -0.1699 -1.2599
  437MOL0     H58956   9.290   3.003   8.222  0.8531  2.2320  0.5526
  437MOL0     H58957   9.273   3.020   8.041  0.4934 -0.5486 -0.0684
  437MOL0     H58958   9.420   2.966   8.105  2.9752  0.9877  2.2315
  437MOL0     H58959   8.988   2.933   8.277 -1.6791 -0.1010 -0.9126
  437MOL0     H58960   8.763   2.904   8.353 -0.7338 -0.0904 -3.7896
  437MOL0     H58961   8.519   2.884   8.366 -1.0495  0.9002 -1.1373
  437MOL0     H58962   8.618   2.908   8.509 -3.0169 -3.1821 -0.5096
  437MOL0     H58963   8.415   2.842   8.571  1.6136 -0.1428 -0.3264
  437MOL0     H58964   8.431   3.021   8.621  0.1677 -1.6426  1.3452
  437MOL0     H58965   8.210   2.912   8.519 -0.0914  2.2812  2.9258
  437MOL0     H58966   8.304   2.914   8.357  3.4606  0.2081  1.6015
  437MOL0     H58967   8.257   3.145   8.531 -0.5265 -0.0695 -0.3612
  437MOL0     H58968   8.336   3.170   8.375  1.3015  0.5765  2.2517
  437MOL0     H58969   8.061   3.097   8.431  2.9212 -2.7707  1.3035
  437MOL0     H58970   8.131   3.067   8.264  1.4506 -0.6659 -0.1097
  437MOL0     H58971   8.057   3.337   8.383  2.4420 -0.1568  1.5734
  437MOL0     H58972   8.189   3.319   8.267  1.4922 -2.0153  0.2300
  437MOL0     H58973   7.888   3.215   8.274 -1.2085  1.0922 -2.8774
  437MOL0     H58974   7.986   3.176   8.137  0.3816 -3.4479  2.2115
  437MOL0     H58975   7.922   3.471   8.229  2.2422  1.7693 -1.3597
  437MOL0     H58976   7.820   3.376   8.121  1.7699  2.4468 -1.6157
  437MOL0     H58977   8.680   3.317   8.333  1.7689  0.3505  1.0326
  437MOL0     H58978   8.903   3.355   8.242  1.1277 -0.7716 -0.1573
  437MOL0     H58979   9.325   3.507   8.143 -0.9150 -0.4620  0.9787
  437MOL0     H58980   9.545   3.522   8.094 -3.0256  0.8839  0.6775
  437MOL0     H58981   8.879   2.792   8.721 -1.2167 -0.6949  0.9967
  437MOL0     H58982   8.777   2.589   8.711 -1.2798 -2.7462 -0.6829
  437MOL0     H58983   8.766   2.207   8.770 -1.4358  0.2262  0.4244
  437MOL0     H58984   8.616   2.030   8.866 -3.0505 -2.5962 -0.2741
  437MOL0     H58985   8.429   1.725   8.547 -1.3655 -3.8886  0.4818
  437MOL0     H58986   8.598   1.665   8.572  0.3915 -3.0003  1.5276
  437MOL0     H58987   8.394   1.520   8.642  0.2145 -0.0447 -0.5774
  437MOL0     H58988   8.372   1.613   8.788  1.6115 -3.6594  2.0995
  437MOL0     H58989   8.517   1.462   8.869  0.8323 -1.5415  0.1831
  437MOL0     H58990   8.629   1.587   8.822  1.7439 -0.8860 -1.7147
  437MOL0     H58991   8.560   1.302   8.706  1.0108 -0.2893 -0.9792
  437MOL0     H58992   8.697   1.350   8.795 -0.0158 -1.0719  0.8320
  437MOL0     H58993   8.797   1.515   8.408 -1.4039  2.7551  0.8031
  437MOL0     H58994   8.616   1.848   8.469 -1.1947 -0.6508  2.0181
  437MOL0     H58995   8.735   2.039   8.391 -1.1019 -3.5690 -0.7370
  438MOL0     O58996   4.576   8.030   7.083 -0.2983 -0.7384  0.3117
  438MOL0     C58997   4.465   8.018   7.028 -0.4430  0.0444 -0.8826
  438MOL0     O58998   4.348   8.038   7.098 -1.3150 -0.2346 -0.2383
  438MOL0     C58999   4.326   8.047   7.233  0.4986  0.9351 -0.1750
  438MOL0     C59000   4.419   8.058   7.338  0.7149 -0.0096 -0.3057
  438MOL0     C59001   4.377   8.051   7.473 -0.2216 -0.2713 -0.0914
  438MOL0     C59002   4.243   8.028   7.507 -0.3860 -0.5497 -1.0192
  438MOL0     O59003   4.199   8.016   7.638  0.3326 -0.5584 -0.0620
  438MOL0     C59004   4.195   8.134   7.721 -0.7260  0.1458 -0.4255
  438MOL0     C59005   4.179   8.099   7.872 -0.4294  0.7007  0.8402
  438MOL0     C59006   4.226   8.210   7.965 -0.4146  0.4952  0.3957
  438MOL0     C59007   4.229   8.161   8.114  0.6873  0.2461  0.7068
  438MOL0     C59008   4.101   8.081   8.175 -0.0133  0.4339  0.1659
  438MOL0     C59009   4.101   8.056   8.323  0.2736 -0.2459 -1.3799
  438MOL0     C59010   4.231   8.001   8.389  0.5741  0.6409  0.7967
  438MOL0     C59011   4.260   7.842   8.358 -0.1229 -0.0994  0.2957
  438MOL0     N59012   4.263   7.756   8.475 -0.4122 -1.0746  0.3487
  438MOL0     C59013   4.373   7.752   8.560  0.3023 -0.4179  0.3675
  438MOL0     C59014   4.325   7.686   8.665  0.4203 -0.1717 -0.6539
  438MOL0     C59015   4.415   7.622   8.771 -0.6311  0.1263  0.1439
  438MOL0     C59016   4.360   7.479   8.811 -0.3518 -0.4182  0.4776
  438MOL0     C59017   4.451   7.407   8.905 -0.8248 -0.3964  0.4041
  438MOL0     C59018   4.530   7.301   8.825 -0.3644  0.7399  0.7871
  438MOL0     O59019   4.609   7.354   8.713  0.0767  0.5026  0.3362
  438MOL0     C59020   4.740   7.315   8.705 -0.0026 -1.3205  1.1501
  438MOL0     C59021   4.791   7.186   8.740 -0.0002 -0.3363 -0.8184
  438MOL0     C59022   4.926   7.150   8.745 -0.0036  0.4003 -0.1411
  438MOL0     C59023   4.964   7.007   8.760  0.2704  0.5260  0.9635
  438MOL0     C59024   5.024   7.252   8.719 -0.3695  0.5197  0.2636
  438MOL0     C59025   5.176   7.234   8.725  0.2537 -0.2139  1.1278
  438MOL0     O59026   5.251   7.346   8.670 -0.2393  0.0707 -0.2148
  438MOL0     C59027   5.383   7.327   8.640 -0.6216  0.5339 -0.2975
  438MOL0     C59028   5.418   7.296   8.513  0.0578  0.4343 -0.3428
  438MOL0     C59029   5.555   7.274   8.485 -1.1106  0.5972 -0.7237
  438MOL0     C59030   5.661   7.286   8.576  0.3081 -0.8252 -0.3243
  438MOL0     O59031   5.789   7.241   8.542  0.5090 -0.3341 -0.0275
  438MOL0     C59032   5.839   7.295   8.415 -0.6085 -0.2776 -0.2209
  438MOL0     C59033   5.851   7.191   8.304 -0.2702 -0.1379  0.0070
  438MOL0     C59034   5.902   7.051   8.350  0.2236 -0.4476  0.3794
  438MOL0     C59035   6.036   7.039   8.424  0.7546 -0.4339 -0.5460
  438MOL0     C59036   6.099   6.902   8.409  0.2507  0.8915 -0.8310
  438MOL0     C59037   6.247   6.901   8.443  0.4526  0.5162 -0.3427
  438MOL0     C59038   6.322   6.965   8.320 -0.1982 -0.2382 -0.1638
  438MOL0     C59039   6.474   6.968   8.342 -0.1201 -0.1716  0.2607
  438MOL0    Cl59040   6.552   7.030   8.204  0.0033  0.0715  0.0526
  438MOL0     C59041   5.618   7.324   8.704 -0.5544  0.2316  0.0511
  438MOL0     C59042   5.487   7.338   8.733  0.1572 -0.6262 -0.5761
  438MOL0     O59043   5.229   7.130   8.760 -0.3859  0.1540  0.2562
  438MOL0     C59044   4.969   7.374   8.676  0.1077 -0.1529  0.5167
  438MOL0     C59045   4.837   7.405   8.665  0.5590  0.0933 -0.1197
  438MOL0     N59046   4.187   7.664   8.649 -0.0500  0.0592  0.3011
  438MOL0     N59047   4.152   7.712   8.537 -0.8285 -0.6283 -0.0948
  438MOL0     C59048   4.157   8.001   7.399 -0.0158 -0.3967 -0.6931
  438MOL0     C59049   4.197   8.029   7.272  0.0857  0.5795  0.0744
  438MOL0     C59050   4.463   7.995   6.884  0.4871  0.5389  0.2907
  438MOL0     C59051   4.566   7.926   6.827 -0.0403  0.3735 -0.3407
  438MOL0     C59052   4.579   7.920   6.685 -0.1833  0.4896  0.0979
  438MOL0     C59053   4.479   7.956   6.600 -0.1985 -0.0458  0.1741
  438MOL0     O59054   4.505   7.939   6.470 -0.0185 -0.2368  0.1837
  438MOL0     C59055   4.401   7.987   6.373 -0.3428  0.5026 -0.6996
  438MOL0     C59056   4.434   7.943   6.230  0.3752 -0.1814 -0.3226
  438MOL0     C59057   4.345   8.024   6.128  0.0728 -0.0496 -0.5738
  438MOL0     C59058   4.193   8.023   6.161  0.0758  0.1107  0.0454
  438MOL0     C59059   4.128   7.890   6.168 -0.4820  0.0474 -0.5923
  438MOL0     C59060   4.070   7.779   6.191  0.0749 -0.7925  0.3059
  438MOL0     C59061   4.367   8.024   6.659  0.5510  0.2123  0.6826
  438MOL0     C59062   4.353   8.028   6.797  0.8482 -0.1918 -0.3744
  438MOL0     H59063   4.527   8.061   7.329  0.7195  0.1071 -0.2167
  438MOL0     H59064   4.440   8.067   7.560  1.1772  1.2270 -1.3261
  438MOL0     H59065   4.283   8.198   7.710 -1.4884  0.7544 -4.0166
  438MOL0     H59066   4.106   8.184   7.683  0.6264  1.1070 -2.4601
  438MOL0     H59067   4.072   8.085   7.891 -0.4080 -0.2365  0.3402
  438MOL0     H59068   4.239   8.012   7.901 -0.3543  1.3492  2.7654
  438MOL0     H59069   4.329   8.231   7.935  0.1382 -3.7059 -1.3560
  438MOL0     H59070   4.152   8.291   7.962 -2.2336 -1.0997 -1.2131
  438MOL0     H59071   4.311   8.091   8.132 -1.2727 -2.2639  0.4499
  438MOL0     H59072   4.270   8.244   8.172  0.8856 -0.2264  1.2519
  438MOL0     H59073   4.010   8.138   8.153  0.0431  2.3659  4.0624
  438MOL0     H59074   4.107   7.984   8.126  0.0222 -0.2559  1.4902
  438MOL0     H59075   4.066   8.147   8.373  0.1448 -0.2102 -1.5334
  438MOL0     H59076   4.028   7.976   8.341  3.9413 -3.4484  0.8007
  438MOL0     H59077   4.317   8.065   8.367  0.3696  0.4928 -0.5112
  438MOL0     H59078   4.207   8.010   8.496 -3.3380  1.6731 -0.0120
  438MOL0     H59079   4.337   7.840   8.280 -1.2630  3.5452 -1.1548
  438MOL0     H59080   4.170   7.812   8.302  2.4589 -1.6358 -3.4546
  438MOL0     H59081   4.476   7.786   8.553 -0.0248  1.5029  3.0547
  438MOL0     H59082   4.514   7.607   8.728 -1.5652 -1.7427 -1.5204
  438MOL0     H59083   4.421   7.681   8.863 -0.1539  2.0229 -1.0496
  438MOL0     H59084   4.344   7.412   8.726  3.9286 -0.2853 -0.6936
  438MOL0     H59085   4.262   7.500   8.854 -1.7281 -2.3077 -1.5161
  438MOL0     H59086   4.394   7.350   8.979 -2.3498  0.3643 -0.1337
  438MOL0     H59087   4.530   7.457   8.961  0.0438 -2.0788  0.7571
  438MOL0     H59088   4.467   7.230   8.770  1.1173  0.2038 -0.2757
  438MOL0     H59089   4.595   7.253   8.898 -0.0891 -1.7097 -0.9532
  438MOL0     H59090   4.721   7.108   8.764  2.3484 -2.1836  0.5198
  438MOL0     H59091   5.041   7.004   8.838  0.3600  2.7899  1.0186
  438MOL0     H59092   4.883   6.951   8.807  0.3021  0.7328  1.2673
  438MOL0     H59093   4.997   6.965   8.664  1.0796  1.7246  0.6835
  438MOL0     H59094   5.341   7.285   8.437  0.2787 -2.8322 -0.2240
  438MOL0     H59095   5.592   7.233   8.391 -0.9298  0.0266 -0.4100
  438MOL0     H59096   5.766   7.367   8.376 -0.2663 -0.1202 -0.5713
  438MOL0     H59097   5.937   7.341   8.429  0.9298 -3.2070 -0.5479
  438MOL0     H59098   5.762   7.182   8.242 -0.8098 -3.0532  1.0681
  438MOL0     H59099   5.927   7.226   8.233  2.5619 -0.8159  2.4629
  438MOL0     H59100   5.910   6.982   8.266 -3.0126 -0.1101 -0.3404
  438MOL0     H59101   5.830   7.011   8.421 -0.6032  2.1999  1.1419
  438MOL0     H59102   6.106   7.118   8.394  2.8438 -1.6470  0.8377
  438MOL0     H59103   6.025   7.063   8.530  5.4917  1.2031 -0.1579
  438MOL0     H59104   6.065   6.865   8.312  0.2589 -0.4990 -0.3324
  438MOL0     H59105   6.047   6.833   8.477  0.3639  0.9683 -0.6641
  438MOL0     H59106   6.276   6.949   8.537  1.6748 -3.0024  1.2561
  438MOL0     H59107   6.286   6.799   8.447  3.6131  1.5033 -2.2153
  438MOL0     H59108   6.287   7.068   8.309  1.8254  1.1421  4.0148
  438MOL0     H59109   6.290   6.903   8.236 -2.0209  1.8630 -1.1058
  438MOL0     H59110   6.512   6.865   8.346 -2.2300 -1.3415 -3.9845
  438MOL0     H59111   6.509   7.028   8.426  2.3975  0.1270 -0.8878
  438MOL0     H59112   5.692   7.317   8.783 -0.9225 -0.8310  0.3186
  438MOL0     H59113   5.467   7.370   8.835  1.2325 -0.1412 -0.4960
  438MOL0     H59114   5.033   7.459   8.653 -1.6237  1.3506  1.0309
  438MOL0     H59115   4.817   7.505   8.627 -1.0643 -0.5314 -1.0092
  438MOL0     H59116   4.051   7.983   7.414 -0.8443 -0.9159 -5.5274
  438MOL0     H59117   4.133   8.016   7.186  0.8071  0.6457 -0.4858
  438MOL0     H59118   4.648   7.895   6.891  0.1297  1.2075 -0.1414
  438MOL0     H59119   4.663   7.868   6.640 -1.1755 -1.9346  0.8749
  438MOL0     H59120   4.299   7.950   6.387 -1.3427  2.7654 -1.5722
  438MOL0     H59121   4.390   8.096   6.380 -2.8008  0.2267  2.9595
  438MOL0     H59122   4.412   7.837   6.214 -2.5567  0.1799  0.6097
  438MOL0     H59123   4.536   7.962   6.197 -0.5886  0.0584 -3.4926
  438MOL0     H59124   4.351   7.979   6.028 -1.0108  1.9428 -1.5805
  438MOL0     H59125   4.372   8.130   6.132 -0.5287  0.0780  0.3889
  438MOL0     H59126   4.146   8.085   6.083  1.5337 -0.7107 -1.5456
  438MOL0     H59127   4.179   8.074   6.257  1.3266  1.5678 -0.5012
  438MOL0     H59128   4.020   7.688   6.220  0.7172 -0.4732  2.6513
  438MOL0     H59129   4.284   8.066   6.604  0.3696 -1.1232 -0.0888
  438MOL0     H59130   4.259   8.072   6.830 -0.6061 -4.6123  2.2204
  439MOL0     O59131   8.419   5.921   3.767 -0.1376  0.0203 -0.2707
  439MOL0     C59132   8.406   5.842   3.674  0.0542 -0.3604 -0.7556
  439MOL0     O59133   8.465   5.850   3.557  0.2571 -0.6564  0.4678
  439MOL0     C59134   8.553   5.953   3.542  0.8085 -0.0761 -0.5007
  439MOL0     C59135   8.509   6.073   3.482 -0.1063 -0.9061 -0.4836
  439MOL0     C59136   8.603   6.180   3.452  1.1841 -0.1038 -0.3939
  439MOL0     C59137   8.732   6.174   3.505  0.4526 -0.2741  0.2588
  439MOL0     O59138   8.834   6.268   3.527  0.2814 -0.3786  0.1299
  439MOL0     C59139   8.787   6.403   3.520 -0.4923 -0.5645 -0.4068
  439MOL0     C59140   8.794   6.456   3.378 -0.2436 -0.5510 -0.0929
  439MOL0     C59141   8.932   6.481   3.311 -0.1189  0.1791 -0.0961
  439MOL0     C59142   8.929   6.533   3.180  0.6596 -0.1403  1.0067
  439MOL0     C59143   9.067   6.535   3.111  0.1214  0.2317  0.2691
  439MOL0     C59144   9.051   6.554   2.952  0.1231 -0.2975  0.0248
  439MOL0     C59145   9.189   6.554   2.882 -0.1990 -0.4499 -0.9019
  439MOL0     C59146   9.158   6.500   2.743 -0.5990 -0.2894 -0.0999
  439MOL0     N59147   9.124   6.360   2.738  0.6703  0.7106 -0.3072
  439MOL0     C59148   9.001   6.306   2.730  0.6174 -0.5949 -0.8072
  439MOL0     C59149   9.034   6.176   2.706  1.3706  0.9368 -0.2759
  439MOL0     C59150   8.922   6.072   2.725 -0.2306 -0.4051  0.2174
  439MOL0     C59151   8.916   5.972   2.617 -0.4679  0.3974  0.4675
  439MOL0     C59152   8.826   5.856   2.671 -0.2833 -0.3598 -0.3019
  439MOL0     C59153   8.775   5.756   2.566 -0.1214 -0.1261  0.4512
  439MOL0     O59154   8.660   5.685   2.604  0.1183  0.2667 -0.5262
  439MOL0     C59155   8.671   5.586   2.691 -0.4951  0.9017 -1.1299
  439MOL0     C59156   8.791   5.538   2.746 -0.0157  1.1641  0.8796
  439MOL0     C59157   8.785   5.444   2.856 -0.0826 -0.0367 -0.3309
  439MOL0     C59158   8.918   5.406   2.921 -0.0846 -0.7202  0.8660
  439MOL0     C59159   8.661   5.384   2.897  0.5797  0.0270 -0.2384
  439MOL0     C59160   8.648   5.280   3.003  0.2087  0.2381  0.2411
  439MOL0     O59161   8.757   5.194   3.026 -0.2740 -0.5167  0.3017
  439MOL0     C59162   8.735   5.083   3.101  0.2686  1.1617 -0.3389
  439MOL0     C59163   8.632   5.056   3.202 -0.0206 -0.5880  0.6283
  439MOL0     C59164   8.606   4.928   3.260 -0.5089  0.1068 -0.4557
  439MOL0     C59165   8.700   4.827   3.235  0.1065 -0.1214 -0.5197
  439MOL0     O59166   8.685   4.704   3.286 -0.3586  0.2260 -0.1009
  439MOL0     C59167   8.560   4.640   3.248 -0.3465 -0.2628 -0.0990
  439MOL0     C59168   8.557   4.488   3.287 -0.5652 -0.2398 -0.6503
  439MOL0     C59169   8.551   4.397   3.155  0.8144  0.0919  0.2008
  439MOL0     C59170   8.572   4.245   3.181  1.1804 -0.3995  0.6158
  439MOL0     C59171   8.678   4.184   3.097 -0.8018 -0.3153 -0.5405
  439MOL0     C59172   8.646   4.182   2.946  0.8977  0.3208  0.5967
  439MOL0     C59173   8.762   4.108   2.858  0.1160  0.0729 -0.6034
  439MOL0     C59174   8.705   4.019   2.744  0.1395 -0.8640  0.6934
  439MOL0    Cl59175   8.624   4.121   2.619 -0.2211  0.1290 -0.3536
  439MOL0     C59176   8.812   4.848   3.148  0.3948 -0.4115 -0.5237
  439MOL0     C59177   8.831   4.979   3.079  0.2393  0.4438  1.3204
  439MOL0     O59178   8.535   5.262   3.055  0.6221  0.1776  0.5221
  439MOL0     C59179   8.543   5.438   2.848 -0.2925  1.1324  0.1756
  439MOL0     C59180   8.551   5.538   2.743  1.4061  0.3317 -0.1961
  439MOL0     N59181   9.166   6.146   2.717  0.2224 -0.2149  0.7112
  439MOL0     N59182   9.209   6.262   2.731 -0.5675  0.0542 -0.1798
  439MOL0     C59183   8.771   6.053   3.563  0.3345  0.1775 -0.0575
  439MOL0     C59184   8.684   5.942   3.581  0.2032 -0.0708 -0.2444
  439MOL0     C59185   8.330   5.721   3.701 -0.0679  0.0539 -0.1650
  439MOL0     C59186   8.262   5.652   3.601  0.0444  0.1048  0.6295
  439MOL0     C59187   8.170   5.547   3.645 -1.5609 -0.2234  0.2327
  439MOL0     C59188   8.141   5.519   3.777  0.5768 -0.6518  0.5315
  439MOL0     O59189   8.040   5.442   3.833 -0.9850  0.0076  1.0124
  439MOL0     C59190   7.951   5.374   3.745  0.2509  0.9745 -1.0347
  439MOL0     C59191   7.900   5.245   3.815 -0.0137 -0.0470  0.5912
  439MOL0     C59192   7.785   5.270   3.917 -0.1823 -0.5501  1.1266
  439MOL0     C59193   7.741   5.153   4.001  0.6696 -0.1635 -0.0589
  439MOL0     C59194   7.861   5.084   4.060  0.0418  0.5540  0.0671
  439MOL0     C59195   7.950   5.005   4.080  0.2548  0.0121 -0.2665
  439MOL0     C59196   8.228   5.573   3.867 -0.2324 -0.4946 -0.3099
  439MOL0     C59197   8.317   5.671   3.840 -0.3932 -1.2550 -0.2837
  439MOL0     H59198   8.404   6.081   3.456  0.0663  0.0891 -0.9045
  439MOL0     H59199   8.561   6.265   3.400 -0.0153 -1.4352 -1.7064
  439MOL0     H59200   8.691   6.397   3.571  1.9759 -1.5712  4.7618
  439MOL0     H59201   8.857   6.471   3.570 -2.1257  2.2270 -1.7281
  439MOL0     H59202   8.729   6.386   3.323 -0.6534 -1.1690  1.1460
  439MOL0     H59203   8.740   6.550   3.366  0.0038 -0.5118 -1.0183
  439MOL0     H59204   8.975   6.556   3.379 -4.6975  1.7824  1.3976
  439MOL0     H59205   8.987   6.388   3.326 -2.1184 -1.0148  0.1756
  439MOL0     H59206   8.863   6.464   3.126 -0.2519  0.7424  0.9687
  439MOL0     H59207   8.886   6.633   3.175  0.1892 -0.2599 -4.7277
  439MOL0     H59208   9.135   6.602   3.163  0.7537 -1.3487  1.5756
  439MOL0     H59209   9.118   6.439   3.121  1.5546  1.1076  1.7506
  439MOL0     H59210   8.972   6.488   2.915 -2.5495  2.8185 -0.2658
  439MOL0     H59211   9.016   6.657   2.938  0.1159 -0.1619  1.0218
  439MOL0     H59212   9.217   6.660   2.877  1.5932 -0.9276 -1.8735
  439MOL0     H59213   9.266   6.492   2.927  0.5566 -0.5565 -2.2674
  439MOL0     H59214   9.248   6.523   2.684 -0.0300 -2.0040  0.0344
  439MOL0     H59215   9.082   6.559   2.691  2.0034  2.7987 -0.7949
  439MOL0     H59216   8.910   6.365   2.731  1.3976  0.6493 -1.0664
  439MOL0     H59217   8.945   6.033   2.825  2.5814 -2.4211 -1.0763
  439MOL0     H59218   8.824   6.119   2.740 -0.8504 -2.0452  1.6871
  439MOL0     H59219   9.016   5.937   2.591 -1.9235 -4.3682  0.3542
  439MOL0     H59220   8.864   6.022   2.535  0.9316  2.2229  0.6257
  439MOL0     H59221   8.738   5.900   2.717  0.8302 -1.1153  2.8084
  439MOL0     H59222   8.892   5.789   2.728  1.8721  1.2356 -0.7636
  439MOL0     H59223   8.859   5.694   2.531 -0.8822 -0.5017 -0.7715
  439MOL0     H59224   8.739   5.810   2.478 -2.3679  1.7319  2.3849
  439MOL0     H59225   8.885   5.583   2.717  0.3931 -0.4615 -0.5150
  439MOL0     H59226   8.959   5.315   2.877 -0.8784 -1.8426  2.3561
  439MOL0     H59227   8.979   5.496   2.908 -2.1805  0.3527 -3.1097
  439MOL0     H59228   8.905   5.389   3.028  1.1207 -1.8308  0.8546
  439MOL0     H59229   8.576   5.141   3.238 -0.5528  0.0674 -1.5818
  439MOL0     H59230   8.527   4.919   3.333  0.4885 -1.6571  0.4604
  439MOL0     H59231   8.477   4.698   3.290  1.2074  0.1229  2.7247
  439MOL0     H59232   8.553   4.650   3.140  1.7553  1.2920 -0.1613
  439MOL0     H59233   8.644   4.463   3.348 -1.5888  2.0622  1.9985
  439MOL0     H59234   8.465   4.472   3.343 -0.0283  2.1785  1.1259
  439MOL0     H59235   8.626   4.431   3.082 -1.3011  0.4123 -1.9287
  439MOL0     H59236   8.457   4.392   3.101  2.1045  0.5731 -2.2353
  439MOL0     H59237   8.599   4.234   3.286  1.3214 -3.5666  0.3461
  439MOL0     H59238   8.482   4.184   3.172 -0.0801  1.3986  0.7381
  439MOL0     H59239   8.693   4.082   3.134 -0.1625  1.1049  3.6465
  439MOL0     H59240   8.771   4.240   3.107  0.8750 -3.0159 -0.0593
  439MOL0     H59241   8.544   4.145   2.940 -0.3978  3.1190  2.7637
  439MOL0     H59242   8.639   4.282   2.902 -1.1667  0.9592  2.2275
  439MOL0     H59243   8.820   4.042   2.924  0.7790  1.7425  0.5614
  439MOL0     H59244   8.826   4.184   2.812  0.9115 -0.1805  0.0571
  439MOL0     H59245   8.630   3.944   2.771  2.5081 -2.8211  2.2439
  439MOL0     H59246   8.789   3.969   2.696 -0.0283 -1.4387  1.0017
  439MOL0     H59247   8.875   4.762   3.125 -0.3427 -0.9101 -0.7339
  439MOL0     H59248   8.906   5.011   3.007  0.0267  1.7996  1.6699
  439MOL0     H59249   8.448   5.394   2.878 -0.6498  1.2892 -0.7090
  439MOL0     H59250   8.447   5.559   2.719  0.1475 -4.8280 -0.4864
  439MOL0     H59251   8.867   6.027   3.606  0.5450  2.8267  1.3300
  439MOL0     H59252   8.727   5.856   3.631  0.5347 -0.9833 -2.0283
  439MOL0     H59253   8.272   5.684   3.497  1.6373  0.1039  0.7626
  439MOL0     H59254   8.112   5.497   3.568 -1.1130 -2.8859  1.4965
  439MOL0     H59255   7.872   5.445   3.719 -2.6760 -1.2729  1.0838
  439MOL0     H59256   8.001   5.351   3.650 -1.1704 -0.3453 -1.5030
  439MOL0     H59257   7.983   5.198   3.870  0.4571  2.5968  2.3317
  439MOL0     H59258   7.865   5.179   3.735  3.8214  0.4559 -1.7490
  439MOL0     H59259   7.690   5.302   3.872  0.2662  0.0094  0.5527
  439MOL0     H59260   7.808   5.362   3.971 -1.9179  1.1289 -0.7785
  439MOL0     H59261   7.700   5.075   3.936 -0.3406  0.4766 -0.2130
  439MOL0     H59262   7.676   5.188   4.081  1.1451  5.7998 -1.8053
  439MOL0     H59263   8.011   4.925   4.117 -0.7739 -2.3978 -3.4600
  439MOL0     H59264   8.212   5.525   3.963 -2.1633  0.5388 -0.0562
  439MOL0     H59265   8.380   5.713   3.917 -3.5749  1.2650  1.1342
  440MOL0     O59266   9.761   2.906   6.500 -0.0456  0.4015 -0.4005
  440MOL0     C59267   9.790   2.804   6.564  0.1396  0.5416  0.4463
  440MOL0     O59268   9.898   2.802   6.648  0.6896  0.9471  0.4664
  440MOL0     C59269   9.972   2.910   6.668 -0.6210  0.9765  0.1778
  440MOL0     C59270   9.948   2.983   6.785 -0.1335  0.3773 -0.4798
  440MOL0     C59271  10.017   3.098   6.816  0.0432  0.5716 -0.2862
  440MOL0     C59272  10.123   3.132   6.734  0.2129  0.2328 -0.7363
  440MOL0     O59273  10.213   3.236   6.769  0.0190  0.0692  0.2953
  440MOL0     C59274  10.148   3.365   6.723 -0.4786  0.4911 -0.6963
  440MOL0     C59275  10.224   3.485   6.748 -0.4357 -0.0748  0.7249
  440MOL0     C59276  10.255   3.512   6.891  0.1544  0.4914 -0.0392
  440MOL0     C59277  10.263   3.667   6.930  0.4303  0.3573  0.4967
  440MOL0     C59278  10.125   3.728   6.928 -0.8327  0.2737  0.5030
  440MOL0     C59279  10.149   3.880   6.944 -0.2729  1.0667 -0.2366
  440MOL0     C59280  10.021   3.948   6.978  0.1933  0.9554 -0.1087
  440MOL0     C59281  10.046   4.093   6.984  0.4456 -0.5438  0.2713
  440MOL0     N59282   9.928   4.181   7.007  0.5826  0.3032 -0.2606
  440MOL0     C59283   9.808   4.185   6.948 -1.4065 -0.0112  0.3321
  440MOL0     C59284   9.744   4.293   6.999 -0.2997  0.0263  1.2877
  440MOL0     C59285   9.604   4.333   6.967 -0.2144 -0.2880  0.4940
  440MOL0     C59286   9.512   4.240   6.881 -0.0901  0.2315  0.0992
  440MOL0     C59287   9.378   4.303   6.846  0.1414 -0.6737 -0.2982
  440MOL0     C59288   9.381   4.442   6.791  0.1355  0.1144  0.3553
  440MOL0     O59289   9.399   4.546   6.895  0.0315  0.4114  0.0721
  440MOL0     C59290   9.439   4.671   6.866 -0.5537 -0.5996  0.0698
  440MOL0     C59291   9.472   4.765   6.967  0.7694 -0.6518 -0.5264
  440MOL0     C59292   9.519   4.896   6.942  1.1116  0.3690  1.1479
  440MOL0     C59293   9.543   4.977   7.066  0.4452  0.3450  0.1109
  440MOL0     C59294   9.515   4.955   6.805 -0.4802  1.2944 -1.2667
  440MOL0     C59295   9.555   5.090   6.758  0.4539 -0.2104  0.2737
  440MOL0     O59296   9.557   5.108   6.616 -0.0866 -0.3784  0.4498
  440MOL0     C59297   9.645   5.200   6.551 -0.0342 -0.1846 -0.5974
  440MOL0     C59298   9.614   5.213   6.420  0.5063  0.4629  0.2367
  440MOL0     C59299   9.676   5.295   6.325  0.3846 -0.7442 -0.6805
  440MOL0     C59300   9.792   5.366   6.372 -0.2427  0.2287 -0.4695
  440MOL0     O59301   9.860   5.458   6.298  0.5772  0.8270  0.2162
  440MOL0     C59302   9.792   5.500   6.176  0.4690 -0.3094  0.1751
  440MOL0     C59303   9.859   5.617   6.103  0.1788  0.0936  0.6143
  440MOL0     C59304   9.816   5.619   5.953 -0.3691  0.8424  0.3525
  440MOL0     C59305   9.877   5.508   5.874 -0.5188 -0.4523 -0.1260
  440MOL0     C59306   9.824   5.519   5.730  0.5853 -0.3287  0.3586
  440MOL0     C59307   9.893   5.415   5.644 -0.1474 -0.5707 -0.4548
  440MOL0     C59308   9.832   5.373   5.512  0.2385  0.1890  0.3087
  440MOL0     C59309   9.934   5.305   5.421 -0.2895  0.6387 -0.1199
  440MOL0    Cl59310   9.989   5.139   5.476 -0.0848 -0.5940  0.0689
  440MOL0     C59311   9.828   5.358   6.510  0.6494  0.4053  0.9646
  440MOL0     C59312   9.761   5.270   6.596  0.7118 -0.1300  0.3021
  440MOL0     O59313   9.592   5.174   6.839  0.0836 -0.1762  0.5797
  440MOL0     C59314   9.468   4.862   6.710 -0.6374  0.9177  0.4919
  440MOL0     C59315   9.433   4.733   6.743  0.2252 -0.2008  0.2810
  440MOL0     N59316   9.834   4.360   7.090 -0.3222 -0.1859  0.4472
  440MOL0     N59317   9.940   4.287   7.098 -0.1767 -0.1831 -0.2020
  440MOL0     C59318  10.141   3.064   6.612 -0.1415  1.0105 -0.4249
  440MOL0     C59319  10.080   2.942   6.586 -0.2140  0.3735 -0.1091
  440MOL0     C59320   9.715   2.678   6.527 -0.7078  0.3790  0.4753
  440MOL0     C59321   9.742   2.566   6.607 -0.2346  0.8562 -0.5095
  440MOL0     C59322   9.690   2.436   6.569  0.4267 -0.3147 -0.9581
  440MOL0     C59323   9.592   2.422   6.469 -0.6532 -0.6168 -0.2214
  440MOL0     O59324   9.552   2.294   6.449  0.0120 -0.6019  0.1332
  440MOL0     C59325   9.445   2.273   6.345 -0.3989 -1.0350  0.6099
  440MOL0     C59326   9.498   2.244   6.207 -0.1876 -0.2242  0.6990
  440MOL0     C59327   9.395   2.247   6.102  0.8455  0.3118  1.0325
  440MOL0     C59328   9.446   2.310   5.972 -0.5237  0.1278  0.1727
  440MOL0     C59329   9.548   2.226   5.900  0.9595 -0.4454  0.6660
  440MOL0     C59330   9.638   2.155   5.857 -0.5370 -0.0138  0.5993
  440MOL0     C59331   9.556   2.546   6.395  0.1393 -0.4899 -0.6351
  440MOL0     C59332   9.617   2.676   6.423 -0.8809 -0.8443  0.0524
  440MOL0     H59333   9.868   2.947   6.849  0.9218 -0.1066  0.6273
  440MOL0     H59334  10.004   3.163   6.902  1.6751 -1.1750  1.3793
  440MOL0     H59335  10.138   3.344   6.616 -0.4887 -1.7931 -0.2935
  440MOL0     H59336  10.050   3.380   6.768 -0.7665 -3.0724  0.1674
  440MOL0     H59337  10.321   3.478   6.697 -0.4465 -0.6569  0.7704
  440MOL0     H59338  10.166   3.566   6.704  0.1029 -1.2919 -2.5240
  440MOL0     H59339  10.176   3.469   6.954  0.4190 -3.0149 -1.8574
  440MOL0     H59340  10.352   3.469   6.919 -0.0095  0.0804 -0.0973
  440MOL0     H59341  10.324   3.673   7.020 -0.3941 -0.0357  1.0914
  440MOL0     H59342  10.323   3.711   6.849  1.2719 -3.1286 -0.9778
  440MOL0     H59343  10.080   3.722   6.828  0.8347  0.5788 -0.2976
  440MOL0     H59344  10.064   3.681   7.006 -2.8004 -0.7340 -1.5297
  440MOL0     H59345  10.211   3.897   7.032 -2.0264 -0.5908  1.4285
  440MOL0     H59346  10.200   3.909   6.852  0.0818 -1.1409 -0.7980
  440MOL0     H59347   9.946   3.928   6.901  0.7397 -2.5199  0.0673
  440MOL0     H59348  10.003   3.919   7.082  0.9241  1.2475  0.1088
  440MOL0     H59349  10.076   4.109   6.880  1.2100 -1.3573  0.3616
  440MOL0     H59350  10.115   4.126   7.063  0.9076 -2.7846  0.8662
  440MOL0     H59351   9.777   4.123   6.864  1.4557  1.0396 -1.6611
  440MOL0     H59352   9.538   4.363   7.049 -3.1783 -1.7529 -1.1831
  440MOL0     H59353   9.617   4.422   6.905 -1.8748  0.7519  1.5589
  440MOL0     H59354   9.498   4.145   6.933  0.8623 -1.2992 -2.2737
  440MOL0     H59355   9.550   4.220   6.781  2.0703  2.4667  0.3614
  440MOL0     H59356   9.307   4.298   6.928  0.7462 -1.7491  0.1747
  440MOL0     H59357   9.326   4.249   6.766  0.8744 -1.5874 -0.1802
  440MOL0     H59358   9.288   4.470   6.741  0.1347 -0.0346  0.2729
  440MOL0     H59359   9.465   4.449   6.721 -0.9326 -1.9091 -1.2260
  440MOL0     H59360   9.470   4.733   7.070  0.9109  3.4689  0.9424
  440MOL0     H59361   9.651   4.995   7.076  0.8145  0.1493 -2.7012
  440MOL0     H59362   9.507   5.081   7.060 -0.4736  0.0054 -0.5785
  440MOL0     H59363   9.503   4.932   7.157 -0.1171  0.2305 -0.1870
  440MOL0     H59364   9.522   5.164   6.390  2.6525 -2.9603 -1.3525
  440MOL0     H59365   9.631   5.295   6.227  0.0268 -0.1300 -0.5255
  440MOL0     H59366   9.775   5.417   6.107  2.0133 -0.3297 -0.2201
  440MOL0     H59367   9.696   5.545   6.203 -0.8218 -2.2109 -1.0693
  440MOL0     H59368   9.847   5.713   6.154  1.3089 -0.3163  1.7013
  440MOL0     H59369   9.968   5.612   6.114  0.1237  1.3482  2.1710
  440MOL0     H59370   9.839   5.712   5.900 -1.6109 -0.0904 -1.9835
  440MOL0     H59371   9.706   5.614   5.949 -0.2970 -2.4034  0.1281
  440MOL0     H59372   9.986   5.498   5.884 -0.8880 -2.7723  4.5634
  440MOL0     H59373   9.843   5.411   5.913 -0.8363 -0.1215  0.4160
  440MOL0     H59374   9.870   5.613   5.696 -2.3103  2.3748  3.2374
  440MOL0     H59375   9.715   5.516   5.735  0.3829 -2.7058 -2.6578
  440MOL0     H59376   9.995   5.449   5.625 -0.5093  1.5088  1.0859
  440MOL0     H59377   9.901   5.324   5.705 -0.1695  0.3919  1.0320
  440MOL0     H59378   9.802   5.459   5.452 -2.2686 -0.4789  0.4834
  440MOL0     H59379   9.744   5.310   5.526 -0.2291  0.7016 -0.2647
  440MOL0     H59380  10.015   5.378   5.420  2.6302 -2.3085  0.8589
  440MOL0     H59381   9.885   5.300   5.324  0.6742  1.6382 -0.6767
  440MOL0     H59382   9.913   5.417   6.543  3.8481 -1.3273 -3.2045
  440MOL0     H59383   9.797   5.270   6.699  1.0947  0.3936  0.1786
  440MOL0     H59384   9.470   4.889   6.605  0.8051 -1.0967 -0.0573
  440MOL0     H59385   9.387   4.674   6.664 -0.8931 -0.8162  1.3484
  440MOL0     H59386  10.229   3.080   6.551 -0.0495 -1.7962 -1.1882
  440MOL0     H59387  10.113   2.891   6.496 -2.0540 -1.2596  0.0668
  440MOL0     H59388   9.805   2.581   6.694  0.9141  1.9425 -1.4685
  440MOL0     H59389   9.715   2.348   6.627  1.7102  0.2029 -0.6965
  440MOL0     H59390   9.379   2.189   6.369 -0.3055 -1.6073 -1.0066
  440MOL0     H59391   9.388   2.366   6.344  0.1525 -0.6392 -2.5119
  440MOL0     H59392   9.545   2.146   6.208 -1.9770 -1.2082 -1.7964
  440MOL0     H59393   9.581   2.314   6.191  0.8962 -1.6787 -0.3360
  440MOL0     H59394   9.303   2.300   6.131  1.3846  1.1737  1.1872
  440MOL0     H59395   9.371   2.145   6.072  4.6154 -0.0838 -1.2560
  440MOL0     H59396   9.486   2.408   5.997  2.0911 -0.1061 -2.5102
  440MOL0     H59397   9.360   2.328   5.908 -1.5194  1.3452  1.7751
  440MOL0     H59398   9.716   2.099   5.811 -0.0445  1.0832  0.0441
  440MOL0     H59399   9.483   2.532   6.316 -0.5267 -1.6431  0.1691
  440MOL0     H59400   9.584   2.765   6.370 -0.9705 -2.1464 -2.2286
  441MOL0     O59401  11.094   4.502   8.137 -0.1117 -0.7316  0.1929
  441MOL0     C59402  10.984   4.459   8.096 -0.4973 -0.1905  0.6595
  441MOL0     O59403  10.871   4.441   8.173 -0.5483 -0.1475 -0.1670
  441MOL0     C59404  10.860   4.464   8.308  0.3511 -0.9980  0.0618
  441MOL0     C59405  10.963   4.439   8.395 -0.4240  0.0760  0.0271
  441MOL0     C59406  10.949   4.458   8.529  0.7162  0.2469 -0.3034
  441MOL0     C59407  10.829   4.507   8.582  0.2254 -0.3333 -0.2318
  441MOL0     O59408  10.833   4.537   8.721 -0.3182 -0.7547  0.1075
  441MOL0     C59409  10.708   4.575   8.794 -0.9358  0.9088 -0.0999
  441MOL0     C59410  10.693   4.478   8.920 -0.1789 -0.9812  1.1236
  441MOL0     C59411  10.606   4.525   9.034  0.0989 -0.1670 -0.9324
  441MOL0     C59412  10.461   4.555   8.985 -0.6080  1.7586 -0.2613
  441MOL0     C59413  10.372   4.573   9.100 -0.1800 -0.6274  0.1360
  441MOL0     C59414  10.250   4.667   9.071 -0.9248  0.7941 -0.1755
  441MOL0     C59415  10.180   4.701   9.208 -0.2121 -0.0614 -1.0613
  441MOL0     C59416  10.043   4.773   9.179 -0.1291 -0.2115  0.7963
  441MOL0     N59417  10.070   4.923   9.170 -0.5941  0.2842 -0.0090
  441MOL0     C59418  10.028   4.988   9.057 -0.4042  0.3544  0.1129
  441MOL0     C59419  10.052   5.119   9.091  0.3022 -0.5281 -0.0816
  441MOL0     C59420  10.031   5.220   8.991 -0.5197 -0.8455  0.1149
  441MOL0     C59421  10.134   5.245   8.880 -0.6506 -0.2707 -0.9728
  441MOL0     C59422  10.260   5.322   8.935  0.8958  0.1023 -0.8966
  441MOL0     C59423  10.353   5.251   9.034 -0.1060 -0.4742 -0.1834
  441MOL0     O59424  10.364   5.109   9.019  0.2372  0.4714  0.4010
  441MOL0     C59425  10.480   5.061   9.083  0.6748 -0.6945  0.4742
  441MOL0     C59426  10.499   5.026   9.215 -0.4113 -0.3485 -0.3467
  441MOL0     C59427  10.617   4.958   9.256 -0.4513  0.4486  0.0862
  441MOL0     C59428  10.645   4.918   9.398  0.6020 -0.6373  0.4511
  441MOL0     C59429  10.711   4.912   9.154  0.1335  0.4855  1.1530
  441MOL0     C59430  10.840   4.846   9.183  0.0306 -0.8575 -0.6545
  441MOL0     O59431  10.964   4.897   9.128 -0.5500 -0.0411 -0.1049
  441MOL0     C59432  11.076   4.819   9.152 -0.0450  1.1853  0.5473
  441MOL0     C59433  11.110   4.712   9.061 -0.2136  0.0937  0.2814
  441MOL0     C59434  11.224   4.633   9.072 -0.5339 -0.6540  0.6925
  441MOL0     C59435  11.319   4.677   9.161  0.3261  0.0630  0.6866
  441MOL0     O59436  11.432   4.607   9.158 -0.2877  0.1717  0.5238
  441MOL0     C59437  11.530   4.601   9.271  0.3964  0.8549 -0.4517
  441MOL0     C59438  11.480   4.532   9.402  0.5245 -0.1927  0.5998
  441MOL0     C59439  11.603   4.528   9.494  0.1639 -0.4169 -1.0520
  441MOL0     C59440  11.575   4.440   9.620 -0.1164  0.3847 -0.2036
  441MOL0     C59441  11.691   4.455   9.716 -0.0614 -0.6426  0.5018
  441MOL0     C59442  11.668   4.395   9.855  0.1205  0.1501 -0.9345
  441MOL0     C59443  11.759   4.462   9.955 -0.1915 -0.5546 -0.7001
  441MOL0     C59444  11.771   4.387  10.092 -0.0582  0.1851 -0.0003
  441MOL0    Cl59445  11.616   4.349  10.154  0.0901 -0.0768 -0.3198
  441MOL0     C59446  11.300   4.789   9.237 -0.8202  0.3313 -1.0184
  441MOL0     C59447  11.177   4.859   9.239 -0.9664  0.5734  0.0757
  441MOL0     O59448  10.837   4.743   9.249  1.2259 -0.7091  1.1076
  441MOL0     C59449  10.693   4.954   9.021  0.0285  0.4509 -0.1749
  441MOL0     C59450  10.580   5.024   8.986 -0.7284 -0.6407  0.7433
  441MOL0     N59451  10.098   5.133   9.217 -0.5714  0.0053 -0.8534
  441MOL0     N59452  10.098   5.019   9.270  0.5533  0.9038 -0.7364
  441MOL0     C59453  10.713   4.508   8.493 -0.1488 -1.5219  0.2036
  441MOL0     C59454  10.736   4.499   8.351  0.0528 -0.4892  0.5922
  441MOL0     C59455  10.973   4.463   7.950  0.3457  0.3491  0.3759
  441MOL0     C59456  11.089   4.455   7.875 -0.2175  0.0547  0.1080
  441MOL0     C59457  11.080   4.466   7.733 -0.8172 -0.2875 -0.2954
  441MOL0     C59458  10.967   4.474   7.670 -0.3905 -0.7664  0.6067
  441MOL0     O59459  10.956   4.485   7.529  0.4664 -0.4088  0.2076
  441MOL0     C59460  10.824   4.498   7.462  0.5648  0.3619 -0.0734
  441MOL0     C59461  10.814   4.530   7.315  0.0546  0.4423  0.2171
  441MOL0     C59462  10.860   4.674   7.282 -0.1421 -0.0890 -0.6379
  441MOL0     C59463  10.791   4.796   7.341 -0.4811 -0.7209 -0.4014
  441MOL0     C59464  10.647   4.788   7.316  0.2039  0.0738 -0.0716
  441MOL0     C59465  10.532   4.800   7.279 -0.1601  0.1610 -0.4922
  441MOL0     C59466  10.847   4.489   7.746 -0.2994 -0.1749 -0.3213
  441MOL0     C59467  10.852   4.484   7.882  0.7084  0.7740 -0.7347
  441MOL0     H59468  11.048   4.389   8.352  0.8021  2.6896 -0.7706
  441MOL0     H59469  11.018   4.439   8.612 -0.4277 -4.0544 -0.1161
  441MOL0     H59470  10.715   4.677   8.832 -0.5593  1.7719 -2.3422
  441MOL0     H59471  10.622   4.580   8.727  0.2356  2.8432 -1.5458
  441MOL0     H59472  10.656   4.386   8.873 -0.5944  1.3986 -3.8151
  441MOL0     H59473  10.795   4.456   8.951  0.0019 -1.0224  0.5088
  441MOL0     H59474  10.597   4.450   9.114 -0.1904  2.5170  1.7184
  441MOL0     H59475  10.650   4.613   9.083 -1.2899 -0.8588  1.7850
  441MOL0     H59476  10.466   4.649   8.929  0.3742  1.4552 -0.7142
  441MOL0     H59477  10.421   4.485   8.912  3.7352  0.5468 -1.7965
  441MOL0     H59478  10.327   4.481   9.138  1.6658 -1.6776 -0.1454
  441MOL0     H59479  10.430   4.627   9.176 -0.9958  1.8326 -0.8987
  441MOL0     H59480  10.290   4.757   9.024 -0.7546  0.6718 -0.2638
  441MOL0     H59481  10.174   4.619   9.008  1.4770 -1.2556 -1.7141
  441MOL0     H59482  10.169   4.612   9.271  0.0965  3.1572  4.1656
  441MOL0     H59483  10.243   4.767   9.269  0.5347 -1.1325 -0.6469
  441MOL0     H59484   9.983   4.752   9.268  1.4372 -4.9001  1.0023
  441MOL0     H59485   9.991   4.743   9.087  0.0790  1.2719  0.1556
  441MOL0     H59486   9.998   4.941   8.964  2.4877  1.4825 -1.5312
  441MOL0     H59487   9.935   5.202   8.942  1.2800  0.4298 -4.4165
  441MOL0     H59488  10.032   5.308   9.056  1.1450 -0.2547 -0.6664
  441MOL0     H59489  10.079   5.307   8.808 -0.5330  0.9770 -0.0070
  441MOL0     H59490  10.173   5.149   8.843  0.5394  0.0045 -0.4712
  441MOL0     H59491  10.234   5.422   8.972  1.0074 -1.1755  3.1223
  441MOL0     H59492  10.325   5.333   8.848  2.5341 -0.5393  0.1832
  441MOL0     H59493  10.306   5.266   9.132  1.8282 -0.0574  0.7238
  441MOL0     H59494  10.449   5.302   9.033 -1.8093  3.0638 -0.5240
  441MOL0     H59495  10.416   5.064   9.274  1.1780  1.6014  0.7360
  441MOL0     H59496  10.752   4.923   9.422  0.9298 -2.5111 -0.3963
  441MOL0     H59497  10.575   4.978   9.456 -4.9822 -4.7227 -1.1978
  441MOL0     H59498  10.615   4.812   9.400 -2.0187 -0.0200 -1.2748
  441MOL0     H59499  11.039   4.677   8.987 -1.0017  1.1068  0.5374
  441MOL0     H59500  11.239   4.544   9.013  2.0726  0.4099 -0.4388
  441MOL0     H59501  11.610   4.541   9.227 -0.5471  0.3996 -1.6029
  441MOL0     H59502  11.573   4.698   9.299 -2.5149  1.5731  2.1855
  441MOL0     H59503  11.393   4.591   9.435 -0.0134 -1.1181  0.8524
  441MOL0     H59504  11.445   4.434   9.370 -2.2386  1.0934 -0.7120
  441MOL0     H59505  11.625   4.633   9.515  0.2222 -0.4770 -0.8150
  441MOL0     H59506  11.686   4.490   9.435 -0.8452 -1.5331 -1.8047
  441MOL0     H59507  11.486   4.471   9.675 -0.6732 -1.5708  0.0712
  441MOL0     H59508  11.559   4.335   9.593  3.7511 -0.8233  1.4680
  441MOL0     H59509  11.716   4.561   9.725  2.1804 -1.0137 -0.5555
  441MOL0     H59510  11.784   4.416   9.675  0.6153  0.7809  0.6051
  441MOL0     H59511  11.565   4.398   9.894 -0.1523 -1.2328 -1.4885
  441MOL0     H59512  11.684   4.287   9.851  0.0411  0.1743 -2.4129
  441MOL0     H59513  11.716   4.555   9.992  0.4652  0.0740 -1.4824
  441MOL0     H59514  11.853   4.472   9.900 -2.1876 -3.2153 -5.1190
  441MOL0     H59515  11.825   4.442  10.169  1.9819  1.1243 -1.9650
  441MOL0     H59516  11.820   4.289  10.092 -1.7104 -0.9035 -4.2813
  441MOL0     H59517  11.371   4.828   9.310 -3.5669  0.8051  1.6039
  441MOL0     H59518  11.165   4.939   9.311  0.9895  0.5488  0.4792
  441MOL0     H59519  10.770   4.934   8.947 -2.9042 -2.3030 -2.8363
  441MOL0     H59520  10.562   5.058   8.885  3.0376  0.5009  0.2978
  441MOL0     H59521  10.615   4.547   8.521  1.0251  1.3365  0.6048
  441MOL0     H59522  10.657   4.501   8.276  0.6413 -1.8057 -0.1040
  441MOL0     H59523  11.191   4.448   7.913  0.6545 -2.7945 -2.3476
  441MOL0     H59524  11.166   4.456   7.667 -0.5912  1.4260 -0.3122
  441MOL0     H59525  10.761   4.410   7.473 -0.7986  1.4367  1.0864
  441MOL0     H59526  10.776   4.581   7.514  0.1538 -0.0520  0.2159
  441MOL0     H59527  10.708   4.515   7.295 -0.9369 -0.5764  4.9900
  441MOL0     H59528  10.876   4.452   7.270 -1.5336 -2.1695  2.2857
  441MOL0     H59529  10.854   4.668   7.173 -0.0564 -3.7924 -0.5592
  441MOL0     H59530  10.963   4.685   7.316 -1.0541  2.0028  1.7394
  441MOL0     H59531  10.846   4.885   7.309 -0.8306 -0.0790  0.6893
  441MOL0     H59532  10.815   4.794   7.448 -0.3898  1.0629 -0.3499
  441MOL0     H59533  10.429   4.817   7.254 -0.4088 -0.4849  0.0818
  441MOL0     H59534  10.752   4.513   7.700 -0.4190 -2.4211 -1.3447
  441MOL0     H59535  10.761   4.509   7.937  0.7747  2.7984 -1.4420
  442MOL0     O59536   7.826   6.361   9.279  0.6308  1.0544 -0.1617
  442MOL0     C59537   7.793   6.266   9.211  0.4762 -0.2322  0.6351
  442MOL0     O59538   7.682   6.187   9.237  0.3380  0.3318 -0.2318
  442MOL0     C59539   7.598   6.234   9.337 -0.1576  0.4614  0.8400
  442MOL0     C59540   7.553   6.157   9.451 -0.5067 -0.7474  0.4848
  442MOL0     C59541   7.461   6.205   9.540 -0.4594  0.0956  0.2326
  442MOL0     C59542   7.401   6.333   9.516 -0.0855 -0.4897 -0.0285
  442MOL0     O59543   7.318   6.393   9.601 -0.6425  0.1015  0.3850
  442MOL0     C59544   7.295   6.333   9.737 -0.2116  0.9996 -0.6099
  442MOL0     C59545   7.175   6.407   9.791 -0.0334  0.3095  0.5735
  442MOL0     C59546   7.067   6.445   9.685  0.3636 -0.6348 -0.7184
  442MOL0     C59547   7.036   6.603   9.678 -0.8981  0.8317  0.1555
  442MOL0     C59548   6.892   6.621   9.630  0.1178  0.5053  0.7307
  442MOL0     C59549   6.888   6.765   9.574  0.0150  1.2712  0.1975
  442MOL0     C59550   6.747   6.811   9.526  0.6416  0.3330  0.4486
  442MOL0     C59551   6.628   6.783   9.625  0.7126 -0.4265 -0.2868
  442MOL0     N59552   6.499   6.808   9.570 -0.0954  0.6160 -0.0636
  442MOL0     C59553   6.406   6.862   9.656 -0.3370 -0.5353  1.0086
  442MOL0     C59554   6.297   6.794   9.622  0.3112 -0.5116  0.2489
  442MOL0     C59555   6.163   6.804   9.687  0.7092 -0.3447  0.9533
  442MOL0     C59556   6.057   6.854   9.595  0.7869  0.0493 -0.0969
  442MOL0     C59557   6.084   6.988   9.512  0.6855  0.1290 -0.2975
  442MOL0     C59558   5.973   7.043   9.422  0.0534  0.5129  0.2235
  442MOL0     O59559   5.873   7.096   9.510  0.0006  0.2643 -0.3322
  442MOL0     C59560   5.754   7.142   9.453 -0.1462 -0.0726 -0.8888
  442MOL0     C59561   5.722   7.143   9.313  0.1117  1.0971 -0.3784
  442MOL0     C59562   5.604   7.194   9.265 -0.3509 -1.4174 -0.0523
  442MOL0     C59563   5.589   7.212   9.114 -0.0424 -0.2970 -0.1779
  442MOL0     C59564   5.507   7.249   9.356 -0.8243  0.1979 -0.5739
  442MOL0     C59565   5.375   7.301   9.310 -0.1011 -0.7715  0.3152
  442MOL0     O59566   5.358   7.357   9.189 -0.4880 -0.1393  0.8514
  442MOL0     C59567   5.240   7.404   9.137  0.9187  0.1686 -0.1926
  442MOL0     C59568   5.250   7.493   9.036  0.2694 -0.4596  0.8603
  442MOL0     C59569   5.138   7.550   8.976 -1.1096  0.0637 -1.1999
  442MOL0     C59570   5.010   7.513   9.014 -0.1013 -1.0107  0.1774
  442MOL0     O59571   4.910   7.581   8.944 -1.0042  0.2137 -0.0992
  442MOL0     C59572   4.798   7.601   9.026  0.4255 -0.2501 -0.3029
  442MOL0     C59573   4.702   7.703   8.958 -0.3050  0.6487 -0.7278
  442MOL0     C59574   4.745   7.853   8.979  0.0087 -0.8169 -0.0361
  442MOL0     C59575   4.621   7.938   8.954  0.5462  0.5224 -0.2158
  442MOL0     C59576   4.664   8.093   8.954  0.1941  1.8299 -0.6551
  442MOL0     C59577   4.538   8.170   8.974  0.4251  0.7365  0.1757
  442MOL0     C59578   4.553   8.326   8.996 -0.1250  1.0885 -0.3955
  442MOL0     C59579   4.426   8.407   9.026  0.0805  0.3177 -0.3293
  442MOL0    Cl59580   4.413   8.446   9.204 -0.1656  0.4020 -0.0947
  442MOL0     C59581   5.001   7.423   9.118  0.6389 -0.4104  0.6287
  442MOL0     C59582   5.109   7.366   9.176  0.1593  0.5082  0.5830
  442MOL0     O59583   5.300   7.318   9.403  0.2007  0.4871  0.7921
  442MOL0     C59584   5.539   7.239   9.494 -0.3031 -0.6599 -0.4269
  442MOL0     C59585   5.661   7.192   9.537 -0.8737 -1.2442  0.1127
  442MOL0     N59586   6.327   6.709   9.516 -0.8485 -0.2860  0.0289
  442MOL0     N59587   6.446   6.721   9.477 -0.5401 -0.1093 -0.6787
  442MOL0     C59588   7.448   6.409   9.406  1.6030  0.3965  0.7905
  442MOL0     C59589   7.543   6.365   9.315  0.6891 -0.6607  0.4369
  442MOL0     C59590   7.863   6.257   9.080 -0.4445  0.4462  0.3410
  442MOL0     C59591   7.780   6.261   8.969  0.9945  0.4956  0.1219
  442MOL0     C59592   7.836   6.285   8.848 -0.3284 -0.0379 -0.1573
  442MOL0     C59593   7.977   6.299   8.831 -0.7560 -1.1118  0.1911
  442MOL0     O59594   8.038   6.315   8.711 -0.5869 -0.4390  0.4957
  442MOL0     C59595   7.962   6.355   8.596 -0.1736 -0.8378 -0.1600
  442MOL0     C59596   7.894   6.486   8.608 -0.2834 -0.5484  0.4850
  442MOL0     C59597   7.797   6.498   8.485 -0.0655 -0.4162  0.2324
  442MOL0     C59598   7.858   6.490   8.341  0.7110 -0.7900  0.1740
  442MOL0     C59599   7.947   6.599   8.304  0.0905  0.3373  1.3508
  442MOL0     C59600   8.016   6.695   8.280 -0.7145 -0.3073 -0.1187
  442MOL0     C59601   8.062   6.304   8.940  0.5511 -0.1413 -0.5984
  442MOL0     C59602   8.000   6.284   9.061  0.0767  0.5828 -0.8129
  442MOL0     H59603   7.589   6.058   9.475 -0.7109 -0.2818  3.0004
  442MOL0     H59604   7.441   6.153   9.633  1.9191  1.2024  1.4557
  442MOL0     H59605   7.255   6.231   9.727 -0.9495  1.0411  1.4468
  442MOL0     H59606   7.378   6.342   9.808  0.6513 -1.1552 -1.2515
  442MOL0     H59607   7.128   6.345   9.868  2.4039 -1.6460  0.6209
  442MOL0     H59608   7.205   6.501   9.838 -0.9860  1.3937 -0.9309
  442MOL0     H59609   7.089   6.408   9.585 -0.6868  0.0385 -1.2162
  442MOL0     H59610   6.974   6.387   9.699 -2.7104  3.1244 -3.3335
  442MOL0     H59611   7.030   6.648   9.777 -1.7442  0.9908  0.0419
  442MOL0     H59612   7.107   6.650   9.609 -0.4162  0.5915  0.4886
  442MOL0     H59613   6.880   6.553   9.545  3.7612  2.0277 -1.2030
  442MOL0     H59614   6.810   6.597   9.699 -2.0151 -2.1509 -2.4124
  442MOL0     H59615   6.890   6.824   9.666 -0.7621  0.7643  0.5544
  442MOL0     H59616   6.972   6.791   9.509  1.0248  4.5191  2.5546
  442MOL0     H59617   6.737   6.920   9.528 -1.4969  0.3095 -2.7938
  442MOL0     H59618   6.728   6.777   9.424  1.2462  0.5428  0.2578
  442MOL0     H59619   6.642   6.850   9.709 -1.0477  0.7146 -0.8442
  442MOL0     H59620   6.621   6.676   9.648  4.9964 -0.6732  0.6900
  442MOL0     H59621   6.422   6.925   9.743  0.6473 -2.8334  2.5905
  442MOL0     H59622   6.136   6.708   9.731 -0.7130 -0.6030 -0.3980
  442MOL0     H59623   6.173   6.875   9.769  2.9508  0.9467 -0.3420
  442MOL0     H59624   5.958   6.884   9.632  1.5569  2.5919  0.0598
  442MOL0     H59625   6.042   6.771   9.525 -0.4670  1.6669 -1.8524
  442MOL0     H59626   6.177   6.965   9.458 -0.2138 -1.1468 -1.4023
  442MOL0     H59627   6.107   7.071   9.579  1.7813  1.9552 -2.7557
  442MOL0     H59628   5.935   6.971   9.350 -1.4721  0.2592  1.2433
  442MOL0     H59629   6.028   7.122   9.370  1.1573  0.1405  0.7753
  442MOL0     H59630   5.794   7.115   9.237 -1.5863  0.2672 -1.7616
  442MOL0     H59631   5.573   7.315   9.080 -2.8514 -0.1491  1.3132
  442MOL0     H59632   5.671   7.160   9.064 -0.5000 -1.7516  0.5146
  442MOL0     H59633   5.504   7.153   9.077  0.9428 -0.4433 -2.3985
  442MOL0     H59634   5.343   7.527   8.992 -1.4047  1.8202 -1.1882
  442MOL0     H59635   5.157   7.624   8.898  3.2126  1.0231  0.5152
  442MOL0     H59636   4.748   7.506   9.046  0.5845 -0.2072  0.3327
  442MOL0     H59637   4.834   7.640   9.122 -3.6979  0.1004  1.2871
  442MOL0     H59638   4.705   7.686   8.850 -3.0690 -0.1043 -0.7630
  442MOL0     H59639   4.597   7.692   8.986 -0.6073  1.4546 -1.5009
  442MOL0     H59640   4.829   7.876   8.914 -0.3179 -4.6529 -2.0821
  442MOL0     H59641   4.776   7.850   9.084 -0.4480 -0.4722  0.1110
  442MOL0     H59642   4.582   7.907   8.857  1.8469 -1.7128 -0.1087
  442MOL0     H59643   4.548   7.920   9.034 -0.3487 -0.7177 -1.2758
  442MOL0     H59644   4.729   8.117   8.869  0.7144 -2.2398 -1.6202
  442MOL0     H59645   4.718   8.099   9.049 -1.3598  0.1744  0.3834
  442MOL0     H59646   4.458   8.153   8.901  0.7972  0.2828 -0.1274
  442MOL0     H59647   4.496   8.141   9.071 -1.0935  0.2045 -0.6036
  442MOL0     H59648   4.604   8.365   8.907 -2.1810 -0.7523 -2.5043
  442MOL0     H59649   4.618   8.349   9.081  2.1412  1.6744 -2.1792
  442MOL0     H59650   4.334   8.355   8.999 -0.3221 -0.5993  2.5210
  442MOL0     H59651   4.431   8.508   8.985 -1.9868  1.5404  2.1658
  442MOL0     H59652   4.917   7.359   9.145  2.2670 -2.1752  1.7735
  442MOL0     H59653   5.086   7.297   9.257 -1.8616  0.1959 -0.2124
  442MOL0     H59654   5.462   7.265   9.566 -0.8357 -1.2734 -0.7601
  442MOL0     H59655   5.689   7.198   9.642  0.1465  0.5609 -0.2023
  442MOL0     H59656   7.410   6.511   9.407 -1.2711 -0.5273 -1.5297
  442MOL0     H59657   7.570   6.429   9.232 -2.0760  1.7149  1.2321
  442MOL0     H59658   7.672   6.253   8.979  1.2764 -0.5125  5.4323
  442MOL0     H59659   7.777   6.286   8.757  1.4445  0.3435 -1.3530
  442MOL0     H59660   8.035   6.349   8.515  0.2785  1.9299 -0.0570
  442MOL0     H59661   7.884   6.281   8.578 -0.0395 -1.4407  1.5681
  442MOL0     H59662   7.968   6.566   8.615 -0.9330  0.1341 -0.2689
  442MOL0     H59663   7.842   6.486   8.704  0.4473 -1.2310  0.8998
  442MOL0     H59664   7.759   6.600   8.492  2.9513  0.7773  0.8093
  442MOL0     H59665   7.716   6.426   8.491  0.2944 -0.8566 -0.1162
  442MOL0     H59666   7.769   6.486   8.276  1.1622 -0.2130 -0.5016
  442MOL0     H59667   7.905   6.394   8.318 -1.3721 -1.3079 -2.5051
  442MOL0     H59668   8.086   6.768   8.246 -1.2692 -0.5258 -1.8388
  442MOL0     H59669   8.168   6.326   8.934  0.6650 -0.2964  0.5088
  442MOL0     H59670   8.052   6.297   9.155  0.9926 -0.0348 -1.2184
  443MOL0     O59671  10.041   9.436   4.438 -0.3683 -0.0460 -0.0047
  443MOL0     C59672  10.146   9.437   4.377  0.7956  0.3242 -0.2214
  443MOL0     O59673  10.157   9.415   4.243 -0.1207 -0.1132 -1.0965
  443MOL0     C59674  10.050   9.397   4.158  0.3413  0.4041 -0.2440
  443MOL0     C59675  10.031   9.469   4.048  0.2104  0.7036  0.0298
  443MOL0     C59676   9.922   9.443   3.959  0.5636 -0.0161 -1.0385
  443MOL0     C59677   9.828   9.341   3.984 -0.1443 -0.2947 -0.0249
  443MOL0     O59678   9.722   9.306   3.904  0.1712 -0.3542  0.1225
  443MOL0     C59679   9.731   9.267   3.775  0.0309  0.2764  0.6591
  443MOL0     C59680   9.824   9.143   3.760 -0.0392  0.0843 -0.0302
  443MOL0     C59681   9.780   9.014   3.846  0.3964 -0.6212 -0.0140
  443MOL0     C59682   9.895   8.910   3.816  0.8655  0.6508 -0.3378
  443MOL0     C59683   9.873   8.785   3.897  0.0433  0.6649  0.5265
  443MOL0     C59684   9.773   8.685   3.833  0.6774 -1.1603  0.3648
  443MOL0     C59685   9.799   8.549   3.892 -0.3250  0.5431  0.1017
  443MOL0     C59686   9.705   8.445   3.825 -0.6670  1.3045 -0.0238
  443MOL0     N59687   9.764   8.385   3.705  0.0480  0.1043  1.0126
  443MOL0     C59688   9.869   8.292   3.718  0.0247 -0.6413  0.1331
  443MOL0     C59689   9.914   8.259   3.593  0.1597 -0.3250 -0.2816
  443MOL0     C59690  10.034   8.166   3.559 -0.8483 -0.4007 -0.4142
  443MOL0     C59691  10.157   8.256   3.554 -0.1526 -0.4373  0.8018
  443MOL0     C59692  10.277   8.189   3.469  0.8872 -0.1528 -0.5714
  443MOL0     C59693  10.331   8.063   3.540  0.7499 -0.0849 -0.5949
  443MOL0     O59694  10.427   8.090   3.642  1.2933 -0.2332  0.3012
  443MOL0     C59695  10.564   8.090   3.620  0.2339  1.2774 -0.6690
  443MOL0     C59696  10.616   8.109   3.493 -0.9005  0.5849 -0.6100
  443MOL0     C59697  10.754   8.133   3.469  0.7428 -0.7038  0.8590
  443MOL0     C59698  10.793   8.145   3.321 -0.3877  0.5341 -0.3626
  443MOL0     C59699  10.842   8.149   3.574 -0.2938 -0.6325  0.2703
  443MOL0     C59700  10.978   8.201   3.560 -0.5228 -1.0084 -0.0230
  443MOL0     O59701  11.050   8.203   3.680  0.0700 -0.9549 -0.5314
  443MOL0     C59702  11.177   8.254   3.665  0.1734 -0.3384 -0.6939
  443MOL0     C59703  11.275   8.165   3.679  0.3196 -0.6287 -0.1097
  443MOL0     C59704  11.404   8.208   3.652 -0.9624 -0.3998  0.9743
  443MOL0     C59705  11.429   8.342   3.628  0.1705 -0.7415 -0.2839
  443MOL0     O59706  11.563   8.367   3.601  0.6381 -0.4804 -0.1400
  443MOL0     C59707  11.599   8.510   3.592  0.4230  0.1722  0.3845
  443MOL0     C59708  11.755   8.510   3.601 -0.0822 -0.1557 -0.0896
  443MOL0     C59709  11.806   8.462   3.745  0.2597 -0.3350 -0.2046
  443MOL0     C59710  11.958   8.483   3.751 -0.1921 -1.3926 -0.3538
  443MOL0     C59711  12.007   8.600   3.839 -0.9066  0.5962 -0.8687
  443MOL0     C59712  12.056   8.551   3.977 -0.0078  0.0983  0.7903
  443MOL0     C59713  11.954   8.476   4.059 -0.3713  0.7710 -0.5110
  443MOL0     C59714  11.919   8.525   4.205  0.0524 -0.2030 -0.6793
  443MOL0    Cl59715  12.048   8.484   4.315 -0.1975  0.0627  0.0949
  443MOL0     C59716  11.328   8.439   3.611  0.4638  0.2891 -0.8745
  443MOL0     C59717  11.191   8.391   3.633 -0.5574 -0.4187 -0.2789
  443MOL0     O59718  11.018   8.244   3.448  0.6312 -0.3652 -1.2184
  443MOL0     C59719  10.792   8.125   3.701  0.3808  0.6562  0.6592
  443MOL0     C59720  10.649   8.105   3.722 -0.2646  0.3366  0.1856
  443MOL0     N59721   9.847   8.340   3.501 -0.1196  0.3581 -0.2714
  443MOL0     N59722   9.756   8.407   3.569  0.0573 -0.1947 -0.1606
  443MOL0     C59723   9.839   9.282   4.110  0.5216  0.2846  0.1415
  443MOL0     C59724   9.956   9.294   4.188 -0.6045  0.0561  0.4849
  443MOL0     C59725  10.268   9.421   4.454  0.5395 -0.8497 -0.7497
  443MOL0     C59726  10.383   9.350   4.411 -0.0198 -0.6977 -0.2356
  443MOL0     C59727  10.499   9.347   4.488 -0.8367 -0.9063 -0.4366
  443MOL0     C59728  10.506   9.397   4.619 -0.1909 -1.2517  0.3789
  443MOL0     O59729  10.613   9.390   4.711 -0.4618 -0.3286  0.8237
  443MOL0     C59730  10.733   9.310   4.667 -0.4814 -0.0205  0.3258
  443MOL0     C59731  10.828   9.280   4.791 -0.6447  0.7548 -0.8671
  443MOL0     C59732  10.747   9.200   4.898  0.2543  0.4025  0.7553
  443MOL0     C59733  10.725   9.050   4.863  0.2555 -0.3435 -0.1951
  443MOL0     C59734  10.840   8.962   4.891  1.8204 -0.6754  0.3508
  443MOL0     C59735  10.927   8.887   4.888 -0.2585 -0.3301 -0.1639
  443MOL0     C59736  10.389   9.451   4.671 -0.0703  0.4921 -0.6186
  443MOL0     C59737  10.277   9.474   4.585  0.3076  0.1424  0.3557
  443MOL0     H59738  10.105   9.547   4.034  0.6400  0.5428  1.3034
  443MOL0     H59739   9.904   9.504   3.871 -0.0500  2.0122  0.4109
  443MOL0     H59740   9.631   9.234   3.745  1.0112 -1.1596 -1.1838
  443MOL0     H59741   9.780   9.346   3.717  0.9349 -1.5506 -1.1851
  443MOL0     H59742   9.837   9.121   3.653  2.7410  1.6524 -0.0814
  443MOL0     H59743   9.925   9.160   3.796 -0.2399 -1.8131  1.5691
  443MOL0     H59744   9.763   9.041   3.950 -2.4405  4.8756 -1.5077
  443MOL0     H59745   9.685   8.970   3.813  0.1990 -1.1444  1.2096
  443MOL0     H59746   9.902   8.908   3.707  2.8313  3.2889 -0.3641
  443MOL0     H59747   9.995   8.937   3.854  1.8634 -2.1432 -0.7238
  443MOL0     H59748   9.969   8.732   3.896  0.1016  0.7570  1.2405
  443MOL0     H59749   9.835   8.810   3.996 -4.5048  1.1512 -1.0883
  443MOL0     H59750   9.678   8.728   3.866  0.8046 -0.8071  0.2764
  443MOL0     H59751   9.773   8.678   3.723 -3.1820 -4.4045  0.3269
  443MOL0     H59752   9.903   8.515   3.887 -1.5676 -3.8542  0.1080
  443MOL0     H59753   9.769   8.559   3.997 -1.3993  0.1153 -0.1557
  443MOL0     H59754   9.607   8.492   3.808 -1.4257 -0.5617 -1.2068
  443MOL0     H59755   9.695   8.360   3.893  0.3656  1.3577  0.2070
  443MOL0     H59756   9.911   8.254   3.810  1.2750 -0.9772 -0.5544
  443MOL0     H59757  10.044   8.085   3.631  3.6397 -0.3914 -0.7834
  443MOL0     H59758  10.005   8.124   3.462 -0.4208 -0.3620 -0.5605
  443MOL0     H59759  10.197   8.280   3.653  1.5092  1.2812 -0.2159
  443MOL0     H59760  10.145   8.359   3.519  2.2665 -0.3192  0.1007
  443MOL0     H59761  10.366   8.252   3.470  0.8506 -0.0657  1.6927
  443MOL0     H59762  10.243   8.163   3.368 -0.1171  3.1932 -1.2425
  443MOL0     H59763  10.386   7.992   3.477  1.8753 -1.1758  1.4684
  443MOL0     H59764  10.247   8.009   3.584 -1.6202  2.8544 -1.2467
  443MOL0     H59765  10.542   8.112   3.414 -2.7034  0.4914  0.9742
  443MOL0     H59766  10.826   8.247   3.301  3.1327 -0.6433 -1.3523
  443MOL0     H59767  10.876   8.076   3.301  1.2185  1.3599  2.8527
  443MOL0     H59768  10.706   8.123   3.258  0.4656  2.3995 -2.3453
  443MOL0     H59769  11.238   8.069   3.714 -0.7986 -0.0630  0.3074
  443MOL0     H59770  11.495   8.148   3.654  1.0741  2.4094  0.0702
  443MOL0     H59771  11.566   8.558   3.500 -1.9160  0.8804  1.5171
  443MOL0     H59772  11.557   8.562   3.679 -3.9220 -3.0166  0.5354
  443MOL0     H59773  11.806   8.454   3.523 -3.3502 -1.5363 -1.4379
  443MOL0     H59774  11.783   8.615   3.593  1.7116 -0.6296 -0.5239
  443MOL0     H59775  11.787   8.354   3.754 -1.7223 -0.4497 -3.7127
  443MOL0     H59776  11.749   8.517   3.821  2.3336 -1.1003  2.0437
  443MOL0     H59777  12.007   8.390   3.781  0.7548 -0.7099  0.2763
  443MOL0     H59778  11.990   8.512   3.651 -2.9172  0.3810 -0.8447
  443MOL0     H59779  11.928   8.675   3.848 -1.3028  0.1133 -0.2983
  443MOL0     H59780  12.096   8.649   3.797 -0.4324  0.8253  0.3426
  443MOL0     H59781  12.142   8.488   3.951 -1.2484 -1.0279 -0.8258
  443MOL0     H59782  12.097   8.638   4.030 -0.7659 -0.1133  1.7607
  443MOL0     H59783  11.989   8.373   4.064  2.4795  1.6961  2.1546
  443MOL0     H59784  11.861   8.473   4.001  1.0731 -0.0843 -2.9663
  443MOL0     H59785  11.831   8.473   4.245 -1.5345  0.6168 -2.8541
  443MOL0     H59786  11.891   8.631   4.203  0.6567  0.0797  2.1409
  443MOL0     H59787  11.354   8.541   3.585 -0.9691  0.7347 -0.6318
  443MOL0     H59788  11.120   8.470   3.614  1.8797  1.5971 -1.5905
  443MOL0     H59789  10.855   8.143   3.788 -1.2103 -0.7077  2.1560
  443MOL0     H59790  10.598   8.106   3.818 -2.3662  0.7455 -0.8711
  443MOL0     H59791   9.766   9.209   4.145 -2.2909  2.2117 -1.3022
  443MOL0     H59792   9.975   9.234   4.276 -3.9534  1.9038  2.7116
  443MOL0     H59793  10.393   9.298   4.316  0.7143 -0.4435 -0.3089
  443MOL0     H59794  10.586   9.307   4.437  0.1575 -1.7620  1.7928
  443MOL0     H59795  10.697   9.220   4.617  2.1367 -1.0863  0.2040
  443MOL0     H59796  10.797   9.367   4.599 -1.4400 -1.4273 -1.8412
  443MOL0     H59797  10.860   9.374   4.836 -3.4441  1.0353  0.7339
  443MOL0     H59798  10.920   9.225   4.767 -2.2132 -1.5283 -2.1405
  443MOL0     H59799  10.649   9.246   4.911 -0.3250 -0.0722 -1.5481
  443MOL0     H59800  10.806   9.215   4.989 -0.1817  1.5559  0.8549
  443MOL0     H59801  10.691   9.046   4.759  0.1813  1.9725 -0.3188
  443MOL0     H59802  10.639   9.006   4.915  0.9921 -1.1696  0.3565
  443MOL0     H59803  11.021   8.836   4.887  0.4862  0.9362 -2.4644
  443MOL0     H59804  10.379   9.496   4.769  1.9409  0.5776 -0.4178
  443MOL0     H59805  10.198   9.534   4.629  2.2816  1.5066  2.2802
  444MOL0     O59806   1.273   7.626   8.383  0.0995  0.1644 -0.6452
  444MOL0     C59807   1.292   7.504   8.350 -0.3445 -0.4585  0.4957
  444MOL0     O59808   1.282   7.462   8.211  0.0592  0.3326 -1.0168
  444MOL0     C59809   1.258   7.556   8.121  0.7602  0.1150  0.0018
  444MOL0     C59810   1.124   7.575   8.075  0.5140  0.2142 -0.2804
  444MOL0     C59811   1.091   7.652   7.966  0.1932 -0.5557 -0.4421
  444MOL0     C59812   1.184   7.732   7.902 -0.1152  0.5420  0.2393
  444MOL0     O59813   1.156   7.801   7.793 -0.0564  0.1341 -0.5494
  444MOL0     C59814   1.082   7.922   7.821  0.3561 -0.9971 -0.1117
  444MOL0     C59815   1.061   7.999   7.697 -0.3301  0.2849  0.6234
  444MOL0     C59816   1.197   8.060   7.658 -0.2269 -0.0282  0.1217
  444MOL0     C59817   1.200   8.138   7.520 -0.3552  0.0574 -0.9070
  444MOL0     C59818   1.338   8.148   7.465  0.3451  0.0204  0.0176
  444MOL0     C59819   1.373   8.297   7.419  0.8033  0.5785  0.0897
  444MOL0     C59820   1.288   8.348   7.301  0.4311  0.7825 -0.3038
  444MOL0     C59821   1.371   8.343   7.169 -0.2610  0.6781 -1.0568
  444MOL0     N59822   1.455   8.222   7.137 -0.8073  0.0527  0.7872
  444MOL0     C59823   1.412   8.116   7.073  1.1470  0.1446  0.1518
  444MOL0     C59824   1.520   8.040   7.051  0.6831  0.6054 -0.3114
  444MOL0     C59825   1.517   7.890   7.037 -0.5670  0.7635 -0.9068
  444MOL0     C59826   1.492   7.833   7.174  1.3262  0.0702 -0.0393
  444MOL0     C59827   1.574   7.872   7.294 -0.3680  0.9575  0.0903
  444MOL0     C59828   1.550   7.772   7.403 -0.3505 -0.0245  0.2336
  444MOL0     O59829   1.629   7.813   7.519 -0.5939 -0.1126  0.7623
  444MOL0     C59830   1.646   7.722   7.617  0.5985  0.5459  0.6323
  444MOL0     C59831   1.767   7.713   7.683  0.6433  1.1597 -0.0659
  444MOL0     C59832   1.791   7.617   7.779 -0.7842 -0.4014 -0.6379
  444MOL0     C59833   1.928   7.621   7.833 -0.3203 -0.6895 -0.0937
  444MOL0     C59834   1.682   7.529   7.815  0.2642  0.1220 -0.2832
  444MOL0     C59835   1.701   7.408   7.896 -1.6232  0.8550 -0.5091
  444MOL0     O59836   1.598   7.372   7.980  0.3164  0.6809  0.2824
  444MOL0     C59837   1.610   7.261   8.053  0.0544 -1.2224 -0.8903
  444MOL0     C59838   1.560   7.140   8.020 -0.4724  0.0328 -0.0298
  444MOL0     C59839   1.567   7.028   8.105  1.4018  0.1340  0.8894
  444MOL0     C59840   1.633   7.040   8.224  0.4064 -0.6937  0.2543
  444MOL0     O59841   1.647   6.927   8.292 -0.0182 -0.5161 -0.3179
  444MOL0     C59842   1.767   6.892   8.356 -0.6811 -0.1323  0.7359
  444MOL0     C59843   1.749   6.933   8.501 -0.7656  0.6115 -0.6929
  444MOL0     C59844   1.854   6.888   8.597  0.0815  0.4126  0.5898
  444MOL0     C59845   1.882   6.737   8.599  0.4810 -1.3146  0.8979
  444MOL0     C59846   2.004   6.701   8.669  0.6715  0.2778 -0.8542
  444MOL0     C59847   2.041   6.554   8.660 -0.1641  0.1002  0.6819
  444MOL0     C59848   2.141   6.517   8.776  0.3621  0.1828  0.6399
  444MOL0     C59849   2.224   6.391   8.752  0.4777  0.0893  0.3706
  444MOL0    Cl59850   2.344   6.416   8.618  0.4607  0.1311  0.0270
  444MOL0     C59851   1.675   7.171   8.269 -0.5519 -0.6477  0.4803
  444MOL0     C59852   1.660   7.281   8.187  0.9853 -0.4484 -0.0715
  444MOL0     O59853   1.817   7.354   7.906  0.6140 -0.5172  0.4612
  444MOL0     C59854   1.553   7.557   7.765  0.6620  1.1476  0.0154
  444MOL0     C59855   1.533   7.647   7.662 -0.6908  0.7155  0.3050
  444MOL0     N59856   1.619   8.114   7.102 -0.6021  0.3182 -1.1013
  444MOL0     N59857   1.595   8.220   7.162 -0.6459  0.2853 -0.3330
  444MOL0     C59858   1.322   7.716   7.947  0.2648  0.7397  0.1992
  444MOL0     C59859   1.356   7.617   8.042 -0.4186  0.0523 -0.5572
  444MOL0     C59860   1.331   7.398   8.448  0.1505 -0.3048  1.4585
  444MOL0     C59861   1.363   7.266   8.406  0.2935 -0.5270 -0.5983
  444MOL0     C59862   1.391   7.167   8.501  0.1697  0.7806  0.1106
  444MOL0     C59863   1.387   7.200   8.636  0.2519 -0.0794 -0.4210
  444MOL0     O59864   1.396   7.104   8.727 -0.2207 -0.2180  0.1106
  444MOL0     C59865   1.375   6.973   8.697 -0.6610  0.1470 -0.1980
  444MOL0     C59866   1.381   6.903   8.830  0.1392  0.0416 -0.4128
  444MOL0     C59867   1.371   6.753   8.803  0.0102  0.3030 -0.1013
  444MOL0     C59868   1.421   6.663   8.918 -0.9339  0.7342  0.0963
  444MOL0     C59869   1.370   6.670   9.045 -0.5827 -0.2196  1.1788
  444MOL0     C59870   1.321   6.654   9.148  0.4043  0.5499 -0.3899
  444MOL0     C59871   1.366   7.335   8.677 -0.2722  1.2974  0.2383
  444MOL0     C59872   1.329   7.431   8.581 -0.4885 -0.6708  0.5647
  444MOL0     H59873   1.051   7.524   8.136 -0.1075  0.4263 -0.8384
  444MOL0     H59874   0.989   7.649   7.928  0.1083 -2.7808 -0.1358
  444MOL0     H59875   0.985   7.907   7.869  0.8774 -0.4288  1.1808
  444MOL0     H59876   1.134   7.978   7.899 -2.8650  1.2895  0.6011
  444MOL0     H59877   1.019   7.944   7.612 -2.8231  2.4140  0.3503
  444MOL0     H59878   0.993   8.083   7.711 -0.8601 -0.1649  0.8330
  444MOL0     H59879   1.234   8.123   7.740  1.6123  2.3713 -2.3573
  444MOL0     H59880   1.268   7.978   7.646 -0.2238 -0.0501  0.2840
  444MOL0     H59881   1.133   8.087   7.451 -1.9910 -0.4670  0.9795
  444MOL0     H59882   1.161   8.239   7.535 -3.1148 -1.1408  1.0223
  444MOL0     H59883   1.416   8.101   7.525 -0.1828 -0.2555  0.4973
  444MOL0     H59884   1.344   8.080   7.379  1.8337  0.2334 -0.0669
  444MOL0     H59885   1.357   8.378   7.490  3.1756  3.5576 -2.4714
  444MOL0     H59886   1.476   8.300   7.382  0.6284 -0.8570 -0.6097
  444MOL0     H59887   1.206   8.277   7.289  1.4914 -1.0206  2.3501
  444MOL0     H59888   1.241   8.446   7.311 -1.1194  0.1702 -1.1129
  444MOL0     H59889   1.434   8.432   7.166 -1.4736  1.5941 -0.6196
  444MOL0     H59890   1.297   8.359   7.090 -0.4193  1.4077 -0.7693
  444MOL0     H59891   1.306   8.095   7.063  1.2488 -0.6969  0.7602
  444MOL0     H59892   1.431   7.862   6.976 -1.0927  1.2930 -0.4179
  444MOL0     H59893   1.606   7.849   6.989 -0.1560 -0.8952  1.0885
  444MOL0     H59894   1.496   7.724   7.163  0.4940  0.2515 -2.6873
  444MOL0     H59895   1.390   7.865   7.196  1.9898  0.5654  2.7772
  444MOL0     H59896   1.539   7.969   7.330  2.2126  1.1002  2.5825
  444MOL0     H59897   1.678   7.870   7.260 -0.5071  0.7431 -0.3286
  444MOL0     H59898   1.580   7.673   7.369 -0.8491  0.1139 -0.6292
  444MOL0     H59899   1.444   7.760   7.427 -0.7352 -2.8887 -2.3048
  444MOL0     H59900   1.846   7.778   7.647  1.2584  1.7994  2.2663
  444MOL0     H59901   1.984   7.713   7.814 -0.2018 -0.2791  2.0597
  444MOL0     H59902   1.918   7.596   7.939 -2.7951 -1.7468 -0.5095
  444MOL0     H59903   1.983   7.538   7.787  1.8146  1.6106 -1.9613
  444MOL0     H59904   1.497   7.133   7.932 -2.0159  0.6369  0.9658
  444MOL0     H59905   1.530   6.933   8.065 -1.7591  1.6718 -0.2124
  444MOL0     H59906   1.776   6.784   8.346  5.0645  0.2775 -2.8054
  444MOL0     H59907   1.861   6.925   8.311 -1.8190  1.2019 -0.8159
  444MOL0     H59908   1.731   7.041   8.498 -0.8695  0.5928 -0.7676
  444MOL0     H59909   1.659   6.890   8.545 -0.5784  0.6496 -0.2702
  444MOL0     H59910   1.827   6.902   8.702  2.8449  2.1421  1.1776
  444MOL0     H59911   1.947   6.941   8.577  2.4573 -2.9693  1.7117
  444MOL0     H59912   1.792   6.690   8.638 -1.7633  0.8719 -1.2827
  444MOL0     H59913   1.887   6.691   8.500 -3.3307 -2.5472  1.1170
  444MOL0     H59914   1.992   6.723   8.775 -1.7771 -0.9567 -0.8043
  444MOL0     H59915   2.093   6.756   8.634  2.1981 -1.0599  0.7529
  444MOL0     H59916   1.947   6.500   8.671  0.0510 -1.3294 -3.0073
  444MOL0     H59917   2.082   6.535   8.560 -3.2963  1.5700 -1.0401
  444MOL0     H59918   2.081   6.499   8.866  2.2400  1.1672  2.1789
  444MOL0     H59919   2.204   6.600   8.808 -0.6562  1.3198 -0.2220
  444MOL0     H59920   2.161   6.302   8.735 -1.6366  1.5591  0.1199
  444MOL0     H59921   2.285   6.373   8.841  1.1722 -0.6890 -0.2418
  444MOL0     H59922   1.715   7.192   8.368  1.0618 -1.8089  0.1077
  444MOL0     H59923   1.670   7.374   8.242 -0.1007 -1.1295  1.3097
  444MOL0     H59924   1.471   7.491   7.791  0.0605  1.6733 -0.5089
  444MOL0     H59925   1.437   7.670   7.616 -0.5806  4.1891  1.5665
  444MOL0     H59926   1.401   7.758   7.885 -0.8398  1.2979 -0.9012
  444MOL0     H59927   1.461   7.595   8.059 -0.5144 -1.7877 -1.9630
  444MOL0     H59928   1.361   7.231   8.303  0.2087 -3.2814  0.2626
  444MOL0     H59929   1.426   7.071   8.465  0.1623 -1.0545  4.4090
  444MOL0     H59930   1.279   6.966   8.645  0.0076  0.6348 -1.5513
  444MOL0     H59931   1.453   6.943   8.627 -2.5627  0.0265 -2.3655
  444MOL0     H59932   1.299   6.930   8.898 -1.1681 -0.4697 -1.7231
  444MOL0     H59933   1.476   6.928   8.877  0.6717  0.9447 -1.9087
  444MOL0     H59934   1.419   6.730   8.708  2.7455 -0.2009  1.2995
  444MOL0     H59935   1.264   6.732   8.799 -0.0931  0.9520 -2.5436
  444MOL0     H59936   1.528   6.679   8.930 -0.6866 -0.6856 -0.0711
  444MOL0     H59937   1.415   6.556   8.895 -1.3811  0.9442 -0.8239
  444MOL0     H59938   1.271   6.647   9.243 -0.7233 -1.4308 -1.0764
  444MOL0     H59939   1.364   7.362   8.782 -0.0609  1.2697  0.2485
  444MOL0     H59940   1.291   7.525   8.621  0.7161 -0.7688  2.0421
  445MOL0     O59941   4.406   2.777   0.408 -0.2109 -0.1638  0.4563
  445MOL0     C59942   4.474   2.716   0.324  0.9305  0.6120 -0.2817
  445MOL0     O59943   4.467   2.583   0.298 -0.5322 -0.9838  0.2483
  445MOL0     C59944   4.357   2.508   0.330 -0.5823  0.1813  0.2310
  445MOL0     C59945   4.226   2.555   0.357 -0.1382  0.1826 -0.3038
  445MOL0     C59946   4.120   2.469   0.387 -0.3126 -0.2641  0.8953
  445MOL0     C59947   4.138   2.337   0.383 -0.9062  0.0492 -0.5095
  445MOL0     O59948   4.042   2.254   0.442  0.0908  1.0167  1.1322
  445MOL0     C59949   4.024   2.123   0.377  0.5489 -0.5161 -0.2748
  445MOL0     C59950   3.977   2.148   0.238 -0.6896 -0.3616  1.2135
  445MOL0     C59951   3.831   2.114   0.206 -0.5806  1.0115  1.0745
  445MOL0     C59952   3.739   2.206   0.285 -0.1243 -0.8349  0.5961
  445MOL0     C59953   3.587   2.171   0.262  0.2672 -0.5104  0.1319
  445MOL0     C59954   3.501   2.282   0.334 -0.0365  0.5729 -0.7027
  445MOL0     C59955   3.357   2.291   0.289  0.8043 -1.0060 -0.5116
  445MOL0     C59956   3.249   2.184   0.340 -0.3234  0.9611 -0.6516
  445MOL0     N59957   3.225   2.088   0.238  0.3612 -1.0816  0.0750
  445MOL0     C59958   3.308   1.989   0.213 -0.6650  0.8889 -0.0277
  445MOL0     C59959   3.265   1.934   0.098  0.8976  0.2198  0.0257
  445MOL0     C59960   3.325   1.822   0.018  0.9046 -0.0847  0.2966
  445MOL0     C59961   3.482   1.810   0.018 -0.2154  0.4684  0.3165
  445MOL0     C59962   3.537   1.712  -0.090 -0.8512  0.0691  0.5200
  445MOL0     C59963   3.459   1.574  -0.077 -0.7045 -0.0540 -0.2122
  445MOL0     O59964   3.530   1.472  -0.132  0.7983  0.2233 -0.2595
  445MOL0     C59965   3.545   1.475  -0.269  0.2491  0.3789  0.6968
  445MOL0     C59966   3.670   1.517  -0.323  0.2637 -0.8609  0.6419
  445MOL0     C59967   3.694   1.516  -0.464 -0.4274 -0.7385 -0.7192
  445MOL0     C59968   3.845   1.553  -0.508  0.8527  0.6930 -0.2592
  445MOL0     C59969   3.593   1.479  -0.556  0.0842  0.1414 -1.0398
  445MOL0     C59970   3.613   1.462  -0.698 -0.1785 -0.2038 -0.1146
  445MOL0     O59971   3.531   1.380  -0.766  0.9355  0.5540 -0.3247
  445MOL0     C59972   3.526   1.386  -0.900  1.1008  0.2980  0.1895
  445MOL0     C59973   3.394   1.390  -0.954 -0.0077  0.4308 -0.5901
  445MOL0     C59974   3.380   1.399  -1.088  1.0907 -0.4331 -0.0980
  445MOL0     C59975   3.487   1.391  -1.182 -0.3497 -0.1689 -0.1855
  445MOL0     O59976   3.476   1.393  -1.318  0.5084 -0.3558  0.1507
  445MOL0     C59977   3.340   1.379  -1.372 -0.0265 -0.7029 -0.7194
  445MOL0     C59978   3.255   1.504  -1.392 -0.4602 -0.1005  0.1226
  445MOL0     C59979   3.121   1.476  -1.471 -0.5086 -0.5876  0.2452
  445MOL0     C59980   3.114   1.540  -1.606 -0.1106  0.0207  0.5257
  445MOL0     C59981   3.020   1.452  -1.693  0.0034 -1.0432  0.3407
  445MOL0     C59982   2.981   1.511  -1.827  0.4209 -0.8691  0.6385
  445MOL0     C59983   3.073   1.511  -1.949  0.0651 -0.0947 -0.0218
  445MOL0     C59984   3.140   1.639  -1.985  0.7401  1.0538  0.9608
  445MOL0    Cl59985   3.031   1.740  -2.078  0.0944 -0.2562  0.3906
  445MOL0     C59986   3.616   1.389  -1.122  0.1128  0.5695  0.6423
  445MOL0     C59987   3.638   1.376  -0.984 -0.1327  0.0311  0.1619
  445MOL0     O59988   3.705   1.522  -0.756 -0.3927  0.1659 -0.4719
  445MOL0     C59989   3.468   1.451  -0.496 -0.4321  0.1313  0.9695
  445MOL0     C59990   3.435   1.451  -0.359  0.0961  1.1366 -0.4067
  445MOL0     N59991   3.147   2.007   0.059  0.0882 -0.1384 -0.3619
  445MOL0     N59992   3.124   2.085   0.151 -0.5528 -0.2701 -0.0653
  445MOL0     C59993   4.260   2.283   0.347  0.0317  0.2416  0.8009
  445MOL0     C59994   4.368   2.371   0.323 -0.3933  0.2972 -0.1884
  445MOL0     C59995   4.585   2.785   0.252  0.7711  0.2054  0.7472
  445MOL0     C59996   4.612   2.922   0.273 -1.2711 -0.2086  0.4628
  445MOL0     C59997   4.731   2.983   0.220 -0.0834  0.3856  0.3066
  445MOL0     C59998   4.831   2.907   0.154  0.0685  0.9532 -0.0674
  445MOL0     O59999   4.951   2.954   0.109  0.4353 -0.6250  0.0846
  445MOL0     C60000   4.980   3.102   0.105 -0.4107 -0.2827 -0.7344
  445MOL0     C60001   5.126   3.118   0.050  0.5820  0.2249  0.2090
  445MOL0     C60002   5.218   3.212   0.120  0.8998 -0.2254  0.3027
  445MOL0     C60003   5.153   3.356   0.106 -0.4448  0.5088 -0.7269
  445MOL0     C60004   5.255   3.462   0.122  0.1107 -0.8897  0.5710
  445MOL0     C60005   5.339   3.552   0.136 -0.0555  0.1799  0.5981
  445MOL0     C60006   4.804   2.769   0.133 -0.4317 -0.8016 -0.0794
  445MOL0     C60007   4.688   2.710   0.177 -0.7198 -0.8671  0.9032
  445MOL0     H60008   4.202   2.661   0.363  0.1904  0.2105  0.8073
  445MOL0     H60009   4.025   2.507   0.423 -0.3905  2.1127 -1.4543
  445MOL0     H60010   4.112   2.058   0.381 -0.3095 -1.6717  3.0941
  445MOL0     H60011   3.940   2.079   0.430  1.5258 -0.5974  1.2679
  445MOL0     H60012   3.993   2.253   0.213 -0.3667 -0.3823  1.3361
  445MOL0     H60013   4.045   2.091   0.175  0.5338  0.2342  1.9684
  445MOL0     H60014   3.812   2.119   0.098  2.3463 -1.1019  0.3271
  445MOL0     H60015   3.803   2.011   0.231 -1.0865  0.7310 -0.4980
  445MOL0     H60016   3.771   2.184   0.387  2.2151  0.1810  0.1486
  445MOL0     H60017   3.780   2.296   0.239  0.8287 -1.1385  0.8196
  445MOL0     H60018   3.566   2.178   0.155  0.2982 -0.5605  0.1229
  445MOL0     H60019   3.558   2.072   0.298 -2.3344 -0.4792 -1.6143
  445MOL0     H60020   3.509   2.283   0.443  6.0694 -1.1250 -0.7587
  445MOL0     H60021   3.540   2.380   0.304  1.9376 -0.1861 -0.7381
  445MOL0     H60022   3.324   2.389   0.324  0.5164 -1.2378 -0.1282
  445MOL0     H60023   3.361   2.294   0.179  1.8671 -3.6171 -0.6036
  445MOL0     H60024   3.156   2.241   0.353 -3.3516 -3.4917 -0.6993
  445MOL0     H60025   3.279   2.137   0.433  2.6148  2.1212 -0.9174
  445MOL0     H60026   3.381   1.936   0.274 -0.2962 -2.0230 -2.7529
  445MOL0     H60027   3.270   1.730   0.042 -2.2056  1.7609  0.7283
  445MOL0     H60028   3.295   1.861  -0.080 -0.9586 -0.4287  0.7053
  445MOL0     H60029   3.521   1.779   0.116 -4.0852 -1.5089  1.4465
  445MOL0     H60030   3.530   1.906  -0.003  0.9186 -0.7027 -2.9071
  445MOL0     H60031   3.642   1.695  -0.066 -0.6886 -1.2848 -0.9661
  445MOL0     H60032   3.522   1.746  -0.193  1.7039  1.8714  0.6433
  445MOL0     H60033   3.358   1.582  -0.118  0.3470  0.9943 -2.8075
  445MOL0     H60034   3.446   1.541   0.026 -1.9456  0.1301 -0.2932
  445MOL0     H60035   3.749   1.536  -0.252  1.2801  2.2187 -1.0972
  445MOL0     H60036   3.897   1.578  -0.415 -2.7499  1.7269  1.6849
  445MOL0     H60037   3.883   1.455  -0.534  2.4696  1.7947 -2.2943
  445MOL0     H60038   3.861   1.622  -0.592  2.7076 -0.2035 -0.6799
  445MOL0     H60039   3.311   1.393  -0.884  0.3921 -3.9777  0.3468
  445MOL0     H60040   3.279   1.423  -1.120  1.1916  1.2326  0.7451
  445MOL0     H60041   3.357   1.331  -1.469  1.0744 -0.1068 -0.8449
  445MOL0     H60042   3.275   1.301  -1.331 -1.2659 -3.0938 -6.3480
  445MOL0     H60043   3.230   1.542  -1.292  0.7742  1.4285 -0.0999
  445MOL0     H60044   3.326   1.577  -1.434  1.2433 -3.0482 -2.5695
  445MOL0     H60045   3.040   1.495  -1.400  0.7003  1.5666  1.1339
  445MOL0     H60046   3.119   1.366  -1.479  0.0253 -0.4976 -1.3484
  445MOL0     H60047   3.075   1.642  -1.602 -0.2058 -0.0182  4.0248
  445MOL0     H60048   3.211   1.539  -1.658  0.1799 -0.5105  1.0706
  445MOL0     H60049   2.931   1.442  -1.629 -0.2564 -1.8110 -0.1266
  445MOL0     H60050   3.066   1.356  -1.719  0.0303 -1.0799  0.5160
  445MOL0     H60051   2.889   1.459  -1.855 -0.5717  2.4961 -3.3664
  445MOL0     H60052   2.970   1.619  -1.815  4.6985  0.1968 -2.5686
  445MOL0     H60053   3.024   1.477  -2.041  1.5972 -0.9118 -0.5822
  445MOL0     H60054   3.156   1.444  -1.925 -1.1689 -0.2389  4.7315
  445MOL0     H60055   3.222   1.606  -2.049  1.4244 -1.2838  2.8998
  445MOL0     H60056   3.185   1.690  -1.899 -3.3822 -0.7966  4.6030
  445MOL0     H60057   3.709   1.388  -1.177 -0.1281  2.1940  0.1700
  445MOL0     H60058   3.739   1.364  -0.948 -0.1332 -0.9432 -0.1472
  445MOL0     H60059   3.390   1.399  -0.550 -1.5687  0.2924  2.3783
  445MOL0     H60060   3.335   1.428  -0.323  0.1449 -1.3805 -1.6575
  445MOL0     H60061   4.271   2.176   0.357 -2.8664 -0.0274  2.3711
  445MOL0     H60062   4.464   2.321   0.313 -1.1963 -1.2006 -0.6956
  445MOL0     H60063   4.536   2.981   0.324 -0.2761  0.6230  1.0219
  445MOL0     H60064   4.752   3.090   0.228 -1.6233  0.5946  2.6018
  445MOL0     H60065   4.904   3.148   0.041 -2.4224  0.6532  2.1525
  445MOL0     H60066   4.977   3.139   0.208 -3.3828  0.6922 -1.0861
  445MOL0     H60067   5.117   3.148  -0.055 -2.8951  0.1464  0.3699
  445MOL0     H60068   5.177   3.021   0.052 -1.7652 -1.0915  0.0963
  445MOL0     H60069   5.318   3.198   0.078  0.6973  0.7771 -0.5470
  445MOL0     H60070   5.218   3.173   0.222  3.0149 -1.2880 -0.0331
  445MOL0     H60071   5.072   3.362   0.179  1.7600  0.5664  1.8820
  445MOL0     H60072   5.110   3.377   0.008 -3.3345 -1.5048  0.0070
  445MOL0     H60073   5.419   3.622   0.150 -0.6919  1.0122  0.1465
  445MOL0     H60074   4.891   2.723   0.088  0.1753  1.5645 -1.4775
  445MOL0     H60075   4.678   2.607   0.144  2.8267 -1.1850  0.4510
  446MOL0     O60076   3.748   0.853   4.380 -0.8265 -0.2853  0.5583
  446MOL0     C60077   3.687   0.898   4.280  0.1768  0.5689 -0.2804
  446MOL0     O60078   3.576   0.961   4.285 -0.4407  0.5007 -0.4504
  446MOL0     C60079   3.486   0.938   4.386  0.7920  0.7998 -0.1653
  446MOL0     C60080   3.389   1.030   4.409  1.0298 -0.1353  0.1631
  446MOL0     C60081   3.279   1.015   4.493 -1.1613  0.3453  0.3569
  446MOL0     C60082   3.263   0.883   4.543 -0.0659  0.0241 -0.0041
  446MOL0     O60083   3.148   0.849   4.620  1.1667 -0.1589  0.6512
  446MOL0     C60084   3.018   0.892   4.573 -0.9197  0.2971  0.0343
  446MOL0     C60085   2.959   0.775   4.490 -1.2880 -0.4181  0.8908
  446MOL0     C60086   2.820   0.823   4.448  0.6444  0.5077 -0.2159
  446MOL0     C60087   2.764   0.759   4.312 -0.4723 -0.4404 -1.6447
  446MOL0     C60088   2.760   0.607   4.308 -0.0614  0.2191  0.6324
  446MOL0     C60089   2.622   0.565   4.372  0.1698  0.5228 -0.6301
  446MOL0     C60090   2.609   0.418   4.419 -0.1763 -0.4078 -0.0551
  446MOL0     C60091   2.553   0.319   4.317 -0.8325 -0.7547  0.4485
  446MOL0     N60092   2.641   0.326   4.193 -0.4698 -0.1083  0.0534
  446MOL0     C60093   2.601   0.384   4.074 -0.3013  0.0667  0.0867
  446MOL0     C60094   2.712   0.369   3.998  0.0385 -1.3305 -0.1909
  446MOL0     C60095   2.728   0.423   3.865 -2.0398 -0.4627 -0.1531
  446MOL0     C60096   2.816   0.552   3.863  0.3045 -0.0055 -0.0685
  446MOL0     C60097   2.957   0.509   3.905  0.2047 -0.0793 -0.1031
  446MOL0     C60098   3.057   0.626   3.883  0.9823 -0.2817  0.3711
  446MOL0     O60099   3.025   0.729   3.975  0.5017  0.1150  0.0060
  446MOL0     C60100   3.104   0.835   3.984 -0.5163  0.3021 -0.2357
  446MOL0     C60101   3.060   0.941   4.062  0.8164 -0.3916 -0.2177
  446MOL0     C60102   3.122   1.066   4.070 -0.9914  0.3820  0.4950
  446MOL0     C60103   3.068   1.164   4.163  0.0290 -0.1396  0.1546
  446MOL0     C60104   3.254   1.077   4.000 -0.8372 -0.0913 -0.2204
  446MOL0     C60105   3.338   1.206   4.003 -0.0794 -0.2999 -0.1963
  446MOL0     O60106   3.462   1.208   3.934  0.4227 -0.4114 -0.3334
  446MOL0     C60107   3.533   1.318   3.981  0.5816  1.2289  0.4348
  446MOL0     C60108   3.610   1.311   4.095 -0.2139  0.1426  0.9639
  446MOL0     C60109   3.666   1.428   4.139 -0.2951  0.7929  0.5649
  446MOL0     C60110   3.661   1.551   4.065 -1.2040 -0.1404  0.3679
  446MOL0     O60111   3.727   1.658   4.106  0.2554 -0.3005 -0.7971
  446MOL0     C60112   3.695   1.791   4.056 -0.3128 -0.1582 -0.4689
  446MOL0     C60113   3.574   1.840   4.130  0.6610  0.0234  0.1016
  446MOL0     C60114   3.528   1.974   4.065  0.8184 -0.0044  0.0393
  446MOL0     C60115   3.384   1.989   4.108  0.8285 -0.3232  0.2108
  446MOL0     C60116   3.328   2.122   4.063 -0.8752  0.3369 -0.3276
  446MOL0     C60117   3.177   2.144   4.081  1.1654  0.2051 -0.6990
  446MOL0     C60118   3.079   2.055   4.000 -0.5416 -0.1616 -0.1159
  446MOL0     C60119   3.013   1.951   4.097  0.6763  0.5650  0.2358
  446MOL0    Cl60120   2.912   2.029   4.218 -0.6367 -0.3303  0.5919
  446MOL0     C60121   3.596   1.545   3.936 -0.2705  0.6833 -0.6397
  446MOL0     C60122   3.526   1.437   3.902  1.0824 -0.2626 -0.0299
  446MOL0     O60123   3.284   1.310   4.049  0.1014  0.0259 -0.1186
  446MOL0     C60124   3.305   0.966   3.929  1.3479 -0.0734  0.2248
  446MOL0     C60125   3.234   0.852   3.915 -0.4438  0.1553 -0.2596
  446MOL0     N60126   2.792   0.268   4.065  0.1944 -0.2869  0.5066
  446MOL0     N60127   2.753   0.252   4.181  1.0494 -0.3189 -0.7303
  446MOL0     C60128   3.362   0.772   4.509 -0.4294 -1.3686 -0.5055
  446MOL0     C60129   3.475   0.809   4.439 -0.5858  0.3480 -0.5873
  446MOL0     C60130   3.753   0.871   4.160  0.4517 -1.3404 -0.1376
  446MOL0     C60131   3.702   0.912   4.038 -0.7047 -0.7184  0.0546
  446MOL0     C60132   3.760   0.879   3.916  0.4224  0.6583 -0.2840
  446MOL0     C60133   3.871   0.804   3.912  0.2263  0.4204  0.2728
  446MOL0     O60134   3.917   0.762   3.790  0.4624 -0.1688  0.0957
  446MOL0     C60135   4.045   0.805   3.764  0.1300 -0.0966  0.0965
  446MOL0     C60136   4.076   0.771   3.620  0.0212  0.0785 -0.2314
  446MOL0     C60137   4.217   0.825   3.581  0.4831 -0.4303 -0.9582
  446MOL0     C60138   4.220   0.956   3.506  0.1790 -0.0437  0.6167
  446MOL0     C60139   4.310   1.064   3.550  0.7125  0.1796  0.1580
  446MOL0     C60140   4.392   1.151   3.588 -0.3864  1.4155  0.0704
  446MOL0     C60141   3.937   0.770   4.035  0.7927  0.8106 -1.1856
  446MOL0     C60142   3.870   0.800   4.155 -0.0944 -0.1073  0.2820
  446MOL0     H60143   3.408   1.122   4.356 -0.4381 -1.8258 -3.6872
  446MOL0     H60144   3.209   1.094   4.516 -1.5087  0.1981 -0.1668
  446MOL0     H60145   2.954   0.925   4.655 -1.1134  1.8084 -0.6879
  446MOL0     H60146   3.018   0.986   4.518 -0.1527 -1.7894 -3.8996
  446MOL0     H60147   3.012   0.771   4.395  0.9087  0.9076  1.9923
  446MOL0     H60148   2.971   0.675   4.534 -0.5618  0.2694  2.3263
  446MOL0     H60149   2.753   0.797   4.531  3.4007 -0.2775  1.9057
  446MOL0     H60150   2.815   0.932   4.447 -0.2638  0.4786  0.2315
  446MOL0     H60151   2.661   0.793   4.298 -0.8034 -0.1729  0.8630
  446MOL0     H60152   2.824   0.801   4.230 -0.8993 -1.6854 -2.6256
  446MOL0     H60153   2.755   0.593   4.200 -1.5643  2.4710  0.3309
  446MOL0     H60154   2.847   0.559   4.353  1.3964  0.4629 -1.7545
  446MOL0     H60155   2.620   0.639   4.453  0.6664 -0.2976  0.1558
  446MOL0     H60156   2.535   0.596   4.313 -1.2042  1.1233  1.5875
  446MOL0     H60157   2.708   0.379   4.446  2.0174  3.0959 -2.2905
  446MOL0     H60158   2.544   0.421   4.507  1.0234 -0.1500  0.8629
  446MOL0     H60159   2.450   0.337   4.283 -0.0356  1.1171 -1.1617
  446MOL0     H60160   2.555   0.213   4.341  2.0097 -0.0307  4.3175
  446MOL0     H60161   2.506   0.434   4.062 -0.0977  1.0192  1.9868
  446MOL0     H60162   2.772   0.348   3.798 -0.5584  0.5869 -0.4300
  446MOL0     H60163   2.626   0.447   3.836 -1.8501  2.5502  1.2522
  446MOL0     H60164   2.780   0.637   3.922  2.7030  0.2296  1.1830
  446MOL0     H60165   2.812   0.596   3.763 -4.7390  1.8182  0.6458
  446MOL0     H60166   2.998   0.435   3.836  2.7011 -1.0172  2.2474
  446MOL0     H60167   2.955   0.476   4.009 -1.2601  0.1078 -0.0523
  446MOL0     H60168   3.036   0.663   3.782 -1.5428 -4.9211 -1.0817
  446MOL0     H60169   3.159   0.586   3.884  1.6710  0.8893 -3.8850
  446MOL0     H60170   2.961   0.921   4.101 -0.3525  0.7870 -2.3787
  446MOL0     H60171   3.026   1.246   4.103 -0.6244 -1.9852 -2.0277
  446MOL0     H60172   2.983   1.119   4.215  0.8769 -2.0649 -0.0431
  446MOL0     H60173   3.145   1.206   4.229  0.3598 -0.2839 -0.1348
  446MOL0     H60174   3.611   1.222   4.156  1.4466  0.5262  1.5539
  446MOL0     H60175   3.717   1.437   4.235 -0.6340 -2.1324  1.1019
  446MOL0     H60176   3.774   1.866   4.062 -0.7482  0.2219  1.1981
  446MOL0     H60177   3.670   1.795   3.950 -1.3566  1.0321 -0.2078
  446MOL0     H60178   3.492   1.767   4.127 -0.1412  0.7998  1.8149
  446MOL0     H60179   3.594   1.865   4.235  1.3197 -0.0123 -0.0157
  446MOL0     H60180   3.543   1.976   3.957 -0.5528 -0.3380 -0.1680
  446MOL0     H60181   3.581   2.064   4.097 -1.1923  2.4564 -3.0183
  446MOL0     H60182   3.317   1.906   4.084 -0.4634 -1.6093  6.4467
  446MOL0     H60183   3.384   1.979   4.217  1.4348  0.6219  0.3096
  446MOL0     H60184   3.353   2.159   3.963 -0.5979  1.9114  0.2956
  446MOL0     H60185   3.359   2.201   4.133 -1.6204  0.4077 -0.0702
  446MOL0     H60186   3.147   2.113   4.182  0.4019  1.2328 -0.5971
  446MOL0     H60187   3.146   2.249   4.075 -1.0347 -0.0008  3.3931
  446MOL0     H60188   3.133   2.008   3.917 -3.7246 -0.8171 -1.9979
  446MOL0     H60189   2.999   2.116   3.957  0.8009  1.1138 -0.9274
  446MOL0     H60190   3.095   1.891   4.136  0.4475 -0.4155 -0.7475
  446MOL0     H60191   2.958   1.888   4.027  1.2103  1.0724 -0.6621
  446MOL0     H60192   3.598   1.629   3.866 -0.5533  1.6107  0.4273
  446MOL0     H60193   3.456   1.429   3.820 -1.8070  1.9856  1.9721
  446MOL0     H60194   3.395   0.974   3.868  0.4610  0.2762 -1.0722
  446MOL0     H60195   3.282   0.775   3.856 -0.4085 -0.7107  0.8650
  446MOL0     H60196   3.352   0.676   4.560  0.1836 -1.5220 -0.6649
  446MOL0     H60197   3.543   0.727   4.416  1.4230  1.0435  2.2605
  446MOL0     H60198   3.607   0.963   4.024  1.5308  3.1305 -2.9010
  446MOL0     H60199   3.735   0.913   3.816 -0.7379  1.3795  0.2397
  446MOL0     H60200   4.054   0.914   3.758  2.1962 -0.2334 -0.3787
  446MOL0     H60201   4.122   0.769   3.833  0.0335 -0.2758  0.1105
  446MOL0     H60202   4.001   0.804   3.549 -0.3865 -3.7222 -1.8067
  446MOL0     H60203   4.061   0.663   3.614 -1.6691  0.2083  0.8653
  446MOL0     H60204   4.270   0.743   3.531  2.7807 -0.0053  0.6716
  446MOL0     H60205   4.272   0.844   3.673 -3.3160  1.8408  1.0731
  446MOL0     H60206   4.117   0.990   3.493  0.2486  0.1576  0.5785
  446MOL0     H60207   4.232   0.942   3.399  0.3496  1.5231  0.4033
  446MOL0     H60208   4.481   1.210   3.596 -0.8327  2.4432 -1.8485
  446MOL0     H60209   4.029   0.713   4.047 -0.4925 -1.2821 -0.8072
  446MOL0     H60210   3.931   0.763   4.237  1.1403  0.1545 -0.4845
  447MOL0     O60211   2.542   7.349   0.883 -0.0463 -0.4426 -0.0609
  447MOL0     C60212   2.563   7.472   0.883  0.8207 -0.7578  0.8173
  447MOL0     O60213   2.617   7.545   0.780  0.1859  0.1964 -0.0340
  447MOL0     C60214   2.618   7.496   0.655 -0.0739  0.2983  0.2495
  447MOL0     C60215   2.736   7.461   0.592  0.6263 -0.1925 -0.0789
  447MOL0     C60216   2.719   7.422   0.453  0.2236  0.6039  0.0036
  447MOL0     C60217   2.594   7.426   0.387  0.4663 -0.1279 -1.1550
  447MOL0     O60218   2.571   7.372   0.266 -1.0507  0.9108 -0.0398
  447MOL0     C60219   2.678   7.365   0.163  0.5861  0.1995  0.1028
  447MOL0     C60220   2.600   7.287   0.053 -0.8768  0.1912  0.4270
  447MOL0     C60221   2.705   7.270  -0.067 -1.1427  0.1900 -0.0990
  447MOL0     C60222   2.665   7.148  -0.157  0.9085 -1.7034 -0.2323
  447MOL0     C60223   2.770   7.141  -0.270 -0.0152  0.4465 -0.2873
  447MOL0     C60224   2.708   7.097  -0.408  0.7566  0.6061 -0.3077
  447MOL0     C60225   2.810   7.091  -0.518  0.7228 -0.0882  0.1705
  447MOL0     C60226   2.914   6.982  -0.501  0.0354  0.8582 -0.8588
  447MOL0     N60227   2.952   6.904  -0.619 -0.2554  0.2701  0.1749
  447MOL0     C60228   3.044   6.954  -0.705 -0.4748 -0.4317 -0.4990
  447MOL0     C60229   3.043   6.861  -0.800 -0.9416  0.4034 -0.1283
  447MOL0     C60230   3.127   6.854  -0.931  0.3958 -1.0680  0.4460
  447MOL0     C60231   3.252   6.770  -0.913 -1.6560 -1.3077  0.4866
  447MOL0     C60232   3.332   6.728  -1.042  0.8229  0.0190 -0.2503
  447MOL0     C60233   3.392   6.853  -1.117 -0.3632  0.3976  0.7810
  447MOL0     O60234   3.285   6.902  -1.203  0.4703  0.1161 -0.4445
  447MOL0     C60235   3.311   6.916  -1.340  0.0916  0.5518  0.5809
  447MOL0     C60236   3.248   7.012  -1.422  1.4350 -0.4930 -0.6398
  447MOL0     C60237   3.279   7.037  -1.553 -0.0209  0.0893  0.9534
  447MOL0     C60238   3.205   7.154  -1.616 -0.6389  0.2310  0.1444
  447MOL0     C60239   3.376   6.951  -1.623 -0.2923 -0.1180 -1.0638
  447MOL0     C60240   3.421   6.970  -1.763  0.5858  0.9629 -0.2419
  447MOL0     O60241   3.339   7.026  -1.852  0.5315 -0.5572  0.5883
  447MOL0     C60242   3.364   7.059  -1.982 -0.5364 -0.0283  0.1638
  447MOL0     C60243   3.264   7.136  -2.037 -0.4851  0.6070  0.3837
  447MOL0     C60244   3.261   7.183  -2.163 -0.3945 -0.5429  0.9560
  447MOL0     C60245   3.372   7.153  -2.248 -0.8228  0.6474 -0.2445
  447MOL0     O60246   3.374   7.204  -2.369  0.0588  0.0701 -0.0019
  447MOL0     C60247   3.261   7.251  -2.436  0.4224  0.1350  0.0233
  447MOL0     C60248   3.305   7.272  -2.583 -0.9247  0.0499 -0.3126
  447MOL0     C60249   3.319   7.142  -2.655 -0.5318  0.3689  1.2730
  447MOL0     C60250   3.354   7.178  -2.813  0.3328 -0.2334  0.2259
  447MOL0     C60251   3.503   7.181  -2.829  0.9786 -0.1407  0.4489
  447MOL0     C60252   3.520   7.190  -2.979  0.3756 -1.4261 -0.6156
  447MOL0     C60253   3.667   7.223  -3.020 -0.1799  0.4762  0.5607
  447MOL0     C60254   3.685   7.196  -3.167 -0.4730  0.4328  0.2748
  447MOL0    Cl60255   3.648   7.018  -3.203  0.4308  0.2416 -0.3275
  447MOL0     C60256   3.479   7.075  -2.196 -0.0841  0.6523  0.2480
  447MOL0     C60257   3.481   7.035  -2.059 -0.2739 -0.2891 -0.2221
  447MOL0     O60258   3.528   6.921  -1.789 -0.4711  0.5602  1.2932
  447MOL0     C60259   3.429   6.850  -1.544 -0.3503  0.2167  0.1068
  447MOL0     C60260   3.404   6.836  -1.410  0.5976  1.3125 -0.6934
  447MOL0     N60261   2.947   6.763  -0.777  0.7363 -0.7086 -0.4442
  447MOL0     N60262   2.891   6.789  -0.665 -1.2583  0.2583  0.2952
  447MOL0     C60263   2.483   7.464   0.465  0.4007  0.6828  0.5084
  447MOL0     C60264   2.494   7.498   0.600 -0.8842 -0.9616  0.6040
  447MOL0     C60265   2.536   7.526   1.019  0.3956  0.5513  1.0210
  447MOL0     C60266   2.461   7.451   1.112  0.1987 -0.1620  0.9040
  447MOL0     C60267   2.436   7.513   1.230  0.2117  0.5623 -0.7881
  447MOL0     C60268   2.476   7.651   1.263  0.1912 -0.7897  0.9290
  447MOL0     O60269   2.449   7.705   1.391  0.3010 -0.7551 -0.9715
  447MOL0     C60270   2.451   7.846   1.417  0.2243 -1.2880 -0.2033
  447MOL0     C60271   2.335   7.937   1.366  0.5114 -0.2390 -0.1739
  447MOL0     C60272   2.343   7.976   1.220  0.4173 -0.4440  0.2734
  447MOL0     C60273   2.240   8.088   1.177 -0.3120  0.2092 -0.2255
  447MOL0     C60274   2.301   8.213   1.218  0.7374  0.4012 -0.5356
  447MOL0     C60275   2.352   8.319   1.247  0.0251  0.3694 -0.3020
  447MOL0     C60276   2.545   7.722   1.161 -0.4637  0.4139  0.2920
  447MOL0     C60277   2.586   7.654   1.045  0.3046  0.4177 -0.8337
  447MOL0     H60278   2.834   7.446   0.637 -0.7116 -1.6926  2.5790
  447MOL0     H60279   2.808   7.392   0.398  0.7769 -0.9046  1.6000
  447MOL0     H60280   2.720   7.460   0.127 -2.3515  1.0814 -1.3824
  447MOL0     H60281   2.766   7.311   0.199 -0.3908 -0.2352  1.9489
  447MOL0     H60282   2.586   7.188   0.097 -1.3116  0.3781  0.7167
  447MOL0     H60283   2.509   7.339   0.021  1.1467  2.5092 -2.1325
  447MOL0     H60284   2.737   7.361  -0.118  0.6058  0.5581  1.5552
  447MOL0     H60285   2.802   7.239  -0.029 -0.4571  1.4483 -0.7650
  447MOL0     H60286   2.658   7.054  -0.101 -1.1998 -0.7480  1.2576
  447MOL0     H60287   2.566   7.168  -0.199  1.2229 -0.7510 -0.5288
  447MOL0     H60288   2.816   7.239  -0.288  2.0788 -0.2005  1.2036
  447MOL0     H60289   2.849   7.073  -0.236 -2.5917 -2.6098  0.0203
  447MOL0     H60290   2.672   6.994  -0.402  2.1812  0.0639 -0.5929
  447MOL0     H60291   2.631   7.167  -0.442  0.5055 -0.9379 -3.2517
  447MOL0     H60292   2.745   7.062  -0.601 -0.0806  2.2403 -0.1112
  447MOL0     H60293   2.855   7.190  -0.532 -1.1916  0.7224 -0.6677
  447MOL0     H60294   2.870   6.902  -0.442  2.8537 -1.3770 -1.5662
  447MOL0     H60295   3.004   7.022  -0.453  0.7592  0.9002 -2.1702
  447MOL0     H60296   3.099   7.047  -0.706  2.1237 -1.8858 -0.9605
  447MOL0     H60297   3.071   6.798  -1.006  3.1837 -0.2109 -2.5447
  447MOL0     H60298   3.146   6.955  -0.968  1.7803 -3.0190 -5.3294
  447MOL0     H60299   3.237   6.678  -0.856  0.2366  0.2907  3.9251
  447MOL0     H60300   3.325   6.829  -0.856 -0.8557 -0.6158 -1.1947
  447MOL0     H60301   3.270   6.664  -1.105 -3.2699  0.6483  2.7546
  447MOL0     H60302   3.424   6.671  -1.026  0.4633 -0.5695 -0.2725
  447MOL0     H60303   3.475   6.819  -1.180 -0.8613  1.1849 -0.3457
  447MOL0     H60304   3.421   6.933  -1.048  2.3706 -3.1678  4.1140
  447MOL0     H60305   3.177   7.073  -1.367  1.1717 -0.0922 -1.4156
  447MOL0     H60306   3.276   7.205  -1.682  1.5620 -1.1782  1.2824
  447MOL0     H60307   3.115   7.128  -1.672  0.3331  0.1325 -1.4480
  447MOL0     H60308   3.182   7.221  -1.534 -0.8040  0.7354 -0.3113
  447MOL0     H60309   3.172   7.146  -1.982 -0.6933  0.0537  0.1442
  447MOL0     H60310   3.179   7.248  -2.191 -0.4304 -0.7363  0.5944
  447MOL0     H60311   3.180   7.178  -2.446  0.9872 -0.6371  0.9452
  447MOL0     H60312   3.238   7.352  -2.399  4.2548  1.4452 -0.7170
  447MOL0     H60313   3.233   7.332  -2.640 -0.7718 -0.8394 -1.4787
  447MOL0     H60314   3.397   7.332  -2.576 -1.5720  0.8744  3.3087
  447MOL0     H60315   3.233   7.075  -2.640 -0.4341 -0.4897 -1.4317
  447MOL0     H60316   3.409   7.092  -2.616  2.1586  2.2071 -2.0350
  447MOL0     H60317   3.312   7.103  -2.880 -0.0803  0.3345 -0.1540
  447MOL0     H60318   3.305   7.270  -2.843  0.5064  0.9809  3.2706
  447MOL0     H60319   3.557   7.092  -2.795  1.7608 -0.4655 -1.5186
  447MOL0     H60320   3.539   7.266  -2.771 -2.9497  2.1654 -0.1843
  447MOL0     H60321   3.484   7.098  -3.027 -0.0613 -1.0503 -1.0263
  447MOL0     H60322   3.455   7.265  -3.026  1.4847 -0.4038 -0.5564
  447MOL0     H60323   3.738   7.168  -2.957  1.0166 -1.4202 -2.2081
  447MOL0     H60324   3.688   7.329  -3.000  0.3378  0.9377 -2.0531
  447MOL0     H60325   3.788   7.221  -3.194 -1.2407  2.2335 -1.2103
  447MOL0     H60326   3.610   7.251  -3.225  0.2633  0.9607 -0.1913
  447MOL0     H60327   3.555   7.032  -2.261 -3.0129 -3.3384 -0.9752
  447MOL0     H60328   3.562   6.971  -2.024 -1.5584 -0.3026  3.1064
  447MOL0     H60329   3.507   6.781  -1.576 -0.7520 -0.6803  1.0169
  447MOL0     H60330   3.457   6.759  -1.355 -2.7460  2.2422  4.4918
  447MOL0     H60331   2.382   7.460   0.427  0.2632 -0.1384  0.9325
  447MOL0     H60332   2.409   7.522   0.664  1.0960  0.6169  2.8102
  447MOL0     H60333   2.422   7.359   1.069  1.4919  0.2401 -1.2890
  447MOL0     H60334   2.399   7.450   1.311  2.5637  0.0579 -0.0123
  447MOL0     H60335   2.471   7.852   1.525  2.8909  0.0955 -0.6984
  447MOL0     H60336   2.534   7.890   1.362 -2.2975 -2.3133 -5.5271
  447MOL0     H60337   2.348   8.029   1.423  0.7154  0.3193 -1.1011
  447MOL0     H60338   2.243   7.886   1.395  0.9228 -1.0862 -0.3271
  447MOL0     H60339   2.331   7.892   1.150  0.3045  0.9872 -1.5095
  447MOL0     H60340   2.448   8.005   1.203 -0.1125  0.9654 -0.8240
  447MOL0     H60341   2.144   8.086   1.229 -1.1712  0.3922 -1.7486
  447MOL0     H60342   2.218   8.086   1.070 -1.6313  2.9560 -0.0846
  447MOL0     H60343   2.399   8.411   1.274 -3.4602  1.9489  1.0716
  447MOL0     H60344   2.587   7.814   1.200 -0.9971  1.8606 -2.3157
  447MOL0     H60345   2.661   7.704   0.985  0.3828 -1.0748 -2.0448
  448MOL0     O60346   2.685  10.295   8.903 -0.5360 -1.0368  1.5311
  448MOL0     C60347   2.594  10.236   8.837 -0.4429  0.0496  0.6425
  448MOL0     O60348   2.617  10.181   8.716  0.6247 -0.5489  0.3457
  448MOL0     C60349   2.739  10.188   8.644  0.0059 -0.5041 -1.1603
  448MOL0     C60350   2.822  10.301   8.637 -0.3803 -0.7764 -0.1233
  448MOL0     C60351   2.943  10.305   8.567 -0.7760 -0.0568 -0.1229
  448MOL0     C60352   2.981  10.184   8.509 -0.4558  0.6590  0.0226
  448MOL0     O60353   3.093  10.173   8.428  0.8585  0.4425  0.7618
  448MOL0     C60354   3.141  10.286   8.358 -0.6265  0.2854 -0.2156
  448MOL0     C60355   3.268  10.236   8.278 -0.9380 -0.6869  0.6257
  448MOL0     C60356   3.377  10.174   8.363 -0.9283 -0.3235 -0.1508
  448MOL0     C60357   3.504  10.152   8.279  0.4448 -0.6017 -1.3619
  448MOL0     C60358   3.571  10.276   8.234 -0.7458  0.2152  0.0078
  448MOL0     C60359   3.630  10.370   8.335 -0.1206  0.2461 -1.2341
  448MOL0     C60360   3.756  10.311   8.396 -0.9355  0.1742  0.6923
  448MOL0     C60361   3.771  10.357   8.551 -0.4815 -0.6626 -0.6889
  448MOL0     N60362   3.681  10.289   8.655 -0.1611  1.4020  0.1317
  448MOL0     C60363   3.652  10.152   8.666 -0.4302  0.2297 -0.4680
  448MOL0     C60364   3.569  10.143   8.770  0.5318  0.2925 -0.0718
  448MOL0     C60365   3.518  10.015   8.827  0.3350  0.4823 -0.4491
  448MOL0     C60366   3.398   9.961   8.753 -0.0282  0.3139 -0.6007
  448MOL0     C60367   3.360   9.827   8.802 -0.2439 -0.0577 -0.4027
  448MOL0     C60368   3.235   9.757   8.752 -0.2554 -0.3924  0.3002
  448MOL0     O60369   3.202   9.633   8.817 -0.1525 -0.2010  0.0723
  448MOL0     C60370   3.099   9.561   8.786 -0.0943 -0.0658  0.8643
  448MOL0     C60371   2.995   9.604   8.701 -0.1365  0.5217 -0.5266
  448MOL0     C60372   2.898   9.507   8.662  0.3447 -0.1333 -0.2531
  448MOL0     C60373   2.796   9.572   8.569 -0.7161 -0.2404 -0.5257
  448MOL0     C60374   2.892   9.377   8.711 -0.4920  1.1884 -0.0583
  448MOL0     C60375   2.789   9.276   8.684 -0.0605  0.2738  0.6523
  448MOL0     O60376   2.779   9.183   8.771 -0.0945  0.7095 -0.7293
  448MOL0     C60377   2.662   9.106   8.781  0.0613  0.5698 -0.1928
  448MOL0     C60378   2.539   9.130   8.708  0.9825  0.0075  0.5714
  448MOL0     C60379   2.428   9.047   8.732  0.0572 -0.0642  0.2167
  448MOL0     C60380   2.437   8.942   8.823 -0.0684  0.7480  0.1349
  448MOL0     O60381   2.326   8.869   8.845 -0.4515  0.3144  0.3635
  448MOL0     C60382   2.315   8.736   8.782  0.6038 -1.0841 -0.2441
  448MOL0     C60383   2.184   8.735   8.703  0.9151  0.5328 -0.5247
  448MOL0     C60384   2.181   8.811   8.575 -0.0268  1.0876  0.3074
  448MOL0     C60385   2.289   8.768   8.469 -0.8372  0.0270 -0.0441
  448MOL0     C60386   2.285   8.860   8.343  0.0608  0.2149  0.2578
  448MOL0     C60387   2.360   8.985   8.370 -0.3485  0.1736 -0.0144
  448MOL0     C60388   2.517   8.965   8.369  0.9615  0.4512  0.8088
  448MOL0     C60389   2.596   9.091   8.348  0.2984 -0.0449  0.5391
  448MOL0    Cl60390   2.635   9.107   8.172  0.1565 -0.1693  0.3774
  448MOL0     C60391   2.553   8.918   8.899 -0.3457  0.7312 -0.2463
  448MOL0     C60392   2.665   9.000   8.878  0.4479  0.0107 -0.8264
  448MOL0     O60393   2.727   9.280   8.576  0.1822  0.1099  0.5726
  448MOL0     C60394   2.994   9.345   8.804 -0.0905 -1.2684 -0.2823
  448MOL0     C60395   3.099   9.434   8.833 -0.7653 -0.2497 -0.0404
  448MOL0     N60396   3.537  10.266   8.821 -0.9813  0.5171  0.3744
  448MOL0     N60397   3.602  10.351   8.741 -0.5981 -0.0477 -0.4930
  448MOL0     C60398   2.911  10.065   8.528  2.0015  0.5259 -1.1729
  448MOL0     C60399   2.784  10.065   8.601  0.2237 -0.1119  0.4770
  448MOL0     C60400   2.455  10.235   8.891 -0.2924  0.5247  0.1223
  448MOL0     C60401   2.382  10.125   8.844  0.6632  0.5325 -0.6262
  448MOL0     C60402   2.245  10.113   8.871 -0.5005  0.0747  0.7121
  448MOL0     C60403   2.188  10.204   8.967  0.1176 -0.6003  0.2837
  448MOL0     O60404   2.055  10.200   9.011 -0.2258  0.5016  0.6591
  448MOL0     C60405   1.972  10.089   8.970 -0.5466 -0.1064 -0.1553
  448MOL0     C60406   1.832  10.116   9.013 -0.5009  0.3552  0.7110
  448MOL0     C60407   1.743   9.995   8.982 -0.4448  0.0689  0.3240
  448MOL0     C60408   1.595  10.017   9.016 -0.9457  0.1581 -1.1696
  448MOL0     C60409   1.546  10.142   8.954  1.3748 -0.2727  0.6119
  448MOL0     C60410   1.537  10.259   8.904  1.0536  0.4811 -0.3752
  448MOL0     C60411   2.269  10.305   9.020  0.3923  0.0962  0.7064
  448MOL0     C60412   2.393  10.323   8.974 -0.7201 -0.4379 -0.1451
  448MOL0     H60413   2.778  10.397   8.662  3.8785  0.8190  2.4403
  448MOL0     H60414   3.009  10.391   8.558 -1.2363  0.1835 -1.6268
  448MOL0     H60415   3.066  10.323   8.287 -1.7411 -0.9776  0.2574
  448MOL0     H60416   3.191  10.368   8.410 -3.0710  1.7873 -0.0808
  448MOL0     H60417   3.245  10.157   8.206  2.1918  0.9848 -2.5386
  448MOL0     H60418   3.311  10.315   8.216 -0.8387 -2.8947 -2.3536
  448MOL0     H60419   3.407  10.245   8.440  1.8980 -2.5768  0.9945
  448MOL0     H60420   3.343  10.083   8.412 -0.3975  0.8854  2.6248
  448MOL0     H60421   3.569  10.087   8.340 -2.3401 -1.3551  1.0066
  448MOL0     H60422   3.475  10.086   8.197 -0.8323 -1.9662  0.1039
  448MOL0     H60423   3.649  10.247   8.163 -2.3314 -3.1499 -0.5273
  448MOL0     H60424   3.510  10.338   8.168  1.0364 -1.3569 -3.3961
  448MOL0     H60425   3.650  10.473   8.302 -0.0113  0.7089  0.1870
  448MOL0     H60426   3.561  10.370   8.419  2.9005 -3.9693  1.6504
  448MOL0     H60427   3.757  10.203   8.379  0.5106  0.6834 -3.8835
  448MOL0     H60428   3.837  10.359   8.340 -0.3586 -0.3400  1.0839
  448MOL0     H60429   3.760  10.465   8.558 -3.0602 -0.9084  0.3996
  448MOL0     H60430   3.874  10.343   8.585 -0.6127  1.6323  0.8438
  448MOL0     H60431   3.711  10.071   8.626  1.3056  0.8098  0.7919
  448MOL0     H60432   3.595   9.937   8.825 -0.5736 -0.4537 -0.3405
  448MOL0     H60433   3.499  10.018   8.935  1.1962 -1.9419 -0.1662
  448MOL0     H60434   3.419   9.952   8.646  1.8571 -0.8240 -0.1805
  448MOL0     H60435   3.317  10.034   8.753 -0.6072 -0.0782 -4.8862
  448MOL0     H60436   3.350   9.840   8.910  1.4732  1.5021 -0.3726
  448MOL0     H60437   3.443   9.758   8.786  0.8526  1.4918 -1.8147
  448MOL0     H60438   3.262   9.726   8.651  0.9377  2.2414 -0.2743
  448MOL0     H60439   3.148   9.823   8.759 -3.4649 -4.0178 -1.6343
  448MOL0     H60440   2.999   9.710   8.675  0.0225  0.9570  1.1814
  448MOL0     H60441   2.817   9.679   8.555  0.6250  0.0645  2.8557
  448MOL0     H60442   2.793   9.513   8.477 -2.6352  0.7711 -1.1671
  448MOL0     H60443   2.697   9.572   8.617  0.5421  1.4291  2.3100
  448MOL0     H60444   2.519   9.217   8.647  1.9558  0.4385  0.8385
  448MOL0     H60445   2.337   9.061   8.675  0.7721  1.6240 -0.5627
  448MOL0     H60446   2.410   8.716   8.730 -1.2382 -0.2191 -4.4283
  448MOL0     H60447   2.313   8.667   8.866  0.6246 -0.6079  0.1507
  448MOL0     H60448   2.167   8.635   8.663  0.7404  0.6110 -0.6475
  448MOL0     H60449   2.098   8.761   8.766  2.1017 -1.1463  1.9419
  448MOL0     H60450   2.176   8.918   8.596  1.9894  0.9238  2.1095
  448MOL0     H60451   2.076   8.788   8.557 -1.0784  4.7668  0.9686
  448MOL0     H60452   2.391   8.768   8.509 -1.6908  2.5680  2.4942
  448MOL0     H60453   2.250   8.670   8.442  0.6957 -0.1618 -1.7718
  448MOL0     H60454   2.187   8.875   8.298 -0.2215 -3.2488 -0.5152
  448MOL0     H60455   2.333   8.813   8.256 -0.3641 -1.1446  0.7450
  448MOL0     H60456   2.338   9.050   8.285 -0.2654  0.9844  0.5748
  448MOL0     H60457   2.329   9.024   8.467  3.6611  0.4781  1.3408
  448MOL0     H60458   2.530   8.918   8.271 -0.8514  2.5979 -0.5359
  448MOL0     H60459   2.557   8.895   8.444 -2.9098 -1.8273  1.0135
  448MOL0     H60460   2.690   9.089   8.404 -0.0048 -1.6478  1.0677
  448MOL0     H60461   2.538   9.181   8.370  1.2037  0.5091  0.6933
  448MOL0     H60462   2.564   8.839   8.972  1.9488 -1.5928 -2.8873
  448MOL0     H60463   2.764   8.973   8.915 -0.8047 -1.1892  1.9500
  448MOL0     H60464   2.997   9.245   8.845  2.9717 -0.7457  1.0569
  448MOL0     H60465   3.171   9.404   8.908  0.5685  3.3762  0.3365
  448MOL0     H60466   2.959   9.972   8.501  0.4152 -0.1602 -1.7070
  448MOL0     H60467   2.727   9.974   8.615 -1.0799  0.5437 -0.3263
  448MOL0     H60468   2.431  10.048   8.786  0.9790 -0.7504  1.2529
  448MOL0     H60469   2.193  10.029   8.825 -0.3783  0.2768  0.1933
  448MOL0     H60470   1.979  10.075   8.861  0.2390  2.7922 -0.5486
  448MOL0     H60471   2.000   9.995   9.017  3.8818  0.0734 -2.0047
  448MOL0     H60472   1.806  10.210   8.964 -0.0613 -1.1637 -2.7225
  448MOL0     H60473   1.850  10.134   9.120 -3.0218  5.6299  0.5735
  448MOL0     H60474   1.784   9.903   9.026 -0.7137  0.5522  1.6240
  448MOL0     H60475   1.740   9.974   8.875  1.1672  0.6786  0.1235
  448MOL0     H60476   1.588  10.014   9.126  1.8661  0.8292 -0.9159
  448MOL0     H60477   1.538   9.931   8.978 -0.2735 -0.5948 -0.5237
  448MOL0     H60478   1.527  10.349   8.847  0.3636  0.0099 -1.0141
  448MOL0     H60479   2.228  10.372   9.095  3.9792 -1.4514  4.3526
  448MOL0     H60480   2.461  10.395   9.016 -0.5508 -0.6407 -0.0717
  449MOL0     O60481   6.057   9.032   5.977  0.2942 -0.4704  0.1829
  449MOL0     C60482   6.132   9.065   6.067  0.2646 -1.0245  1.1707
  449MOL0     O60483   6.270   9.104   6.054  1.0252 -0.2739  0.2002
  449MOL0     C60484   6.315   9.130   5.926  0.4302 -0.2400 -0.2835
  449MOL0     C60485   6.439   9.071   5.899  0.0669 -0.0358 -0.1011
  449MOL0     C60486   6.500   9.084   5.781 -0.0683  0.3903  0.5593
  449MOL0     C60487   6.441   9.156   5.679  0.1444 -0.2915 -0.5924
  449MOL0     O60488   6.505   9.168   5.565  0.1770 -0.6365  0.4540
  449MOL0     C60489   6.476   9.290   5.489  0.2110  0.8167  0.2323
  449MOL0     C60490   6.566   9.301   5.366  0.4995 -0.2056 -0.4606
  449MOL0     C60491   6.712   9.320   5.409  0.2676 -0.9392 -0.9636
  449MOL0     C60492   6.791   9.383   5.297  0.1230  0.0964  0.1828
  449MOL0     C60493   6.940   9.396   5.324 -1.3308 -0.4936 -0.7116
  449MOL0     C60494   7.015   9.504   5.238  0.5095  0.6952  0.6005
  449MOL0     C60495   6.990   9.648   5.295  0.5365  0.8384  0.4597
  449MOL0     C60496   6.947   9.752   5.200 -0.0165  0.2732  0.3872
  449MOL0     N60497   7.056   9.789   5.110  0.3258 -0.0787 -0.6577
  449MOL0     C60498   7.180   9.845   5.127 -0.5877  0.2330 -0.7745
  449MOL0     C60499   7.251   9.841   5.014  0.3084  0.0281  0.0692
  449MOL0     C60500   7.397   9.884   4.992 -0.4603 -0.1505  0.1500
  449MOL0     C60501   7.424  10.014   4.917  0.4614 -0.2067 -0.1072
  449MOL0     C60502   7.357  10.029   4.785 -0.6047  0.6577  0.3099
  449MOL0     C60503   7.410  10.158   4.720 -1.5453 -0.2423 -0.1882
  449MOL0     O60504   7.394  10.152   4.572 -0.3328  0.5873  0.2087
  449MOL0     C60505   7.404  10.272   4.508 -0.2703  0.3634 -0.8592
  449MOL0     C60506   7.318  10.293   4.402  0.4503 -0.5533  0.3762
  449MOL0     C60507   7.341  10.395   4.319  1.0708 -0.3153  0.2394
  449MOL0     C60508   7.239  10.396   4.206 -0.2770 -0.8839  0.0686
  449MOL0     C60509   7.445  10.492   4.334 -0.6837 -0.2140 -0.0934
  449MOL0     C60510   7.456  10.614   4.255  0.1889  0.0600 -0.5445
  449MOL0     O60511   7.578  10.646   4.201 -0.4691  0.0882 -0.0859
  449MOL0     C60512   7.578  10.756   4.121 -0.4401  0.0916  0.0231
  449MOL0     C60513   7.540  10.733   3.984  0.0903 -1.2121  1.2520
  449MOL0     C60514   7.544  10.838   3.894  1.8482  0.4007  0.0178
  449MOL0     C60515   7.590  10.963   3.938 -0.3286  0.4435 -0.3700
  449MOL0     O60516   7.573  11.065   3.848 -0.5327 -0.0879 -0.7092
  449MOL0     C60517   7.687  11.138   3.820  0.0430  0.5448  0.5484
  449MOL0     C60518   7.641  11.183   3.680  0.6525 -0.4913 -0.1541
  449MOL0     C60519   7.744  11.278   3.615 -0.6744 -0.0585 -0.3591
  449MOL0     C60520   7.724  11.303   3.460  0.2583  0.0955  0.2796
  449MOL0     C60521   7.578  11.332   3.416 -0.4866  0.1882 -0.6138
  449MOL0     C60522   7.536  11.466   3.481 -0.8222  0.5978  0.3182
  449MOL0     C60523   7.410  11.519   3.422 -0.0949  0.0680 -0.2227
  449MOL0     C60524   7.393  11.669   3.460 -0.8728  0.7533  0.0923
  449MOL0    Cl60525   7.499  11.760   3.361  0.2478  0.1863  0.0443
  449MOL0     C60526   7.642  10.975   4.069 -0.8259  0.0753 -0.0768
  449MOL0     C60527   7.633  10.873   4.171 -0.7857  0.5893  0.1172
  449MOL0     O60528   7.351  10.670   4.229  0.1883  0.3720  0.5310
  449MOL0     C60529   7.537  10.467   4.442  0.1304  1.0793  0.9370
  449MOL0     C60530   7.518  10.356   4.528 -0.4244  0.6518 -0.0836
  449MOL0     N60531   7.164   9.777   4.918 -0.4605 -0.4632 -0.1816
  449MOL0     N60532   7.057   9.741   4.983  0.0774  0.2496  0.2939
  449MOL0     C60533   6.316   9.216   5.706  0.7326 -0.1040 -0.0804
  449MOL0     C60534   6.257   9.201   5.827  0.1094 -0.2888 -0.1980
  449MOL0     C60535   6.080   9.056   6.205 -0.4241 -0.6877 -0.6035
  449MOL0     C60536   6.159   9.066   6.318 -1.0476 -0.2186  0.3656
  449MOL0     C60537   6.097   9.056   6.450 -0.3092 -0.3468  0.9704
  449MOL0     C60538   5.958   9.037   6.466 -0.3705  0.0119 -0.2761
  449MOL0     O60539   5.902   9.010   6.590 -0.1395 -0.4052  0.1061
  449MOL0     C60540   5.794   8.912   6.604  0.2561 -0.6424  0.6084
  449MOL0     C60541   5.761   8.854   6.741 -0.2611  1.0326  0.3109
  449MOL0     C60542   5.696   8.950   6.841  0.7089 -0.1909  0.2429
  449MOL0     C60543   5.791   9.036   6.928 -0.5944  0.3472 -0.2617
  449MOL0     C60544   5.878   8.959   7.022 -0.0807  0.7883  0.1632
  449MOL0     C60545   5.950   8.893   7.096  1.4254  1.0338  0.0741
  449MOL0     C60546   5.874   9.019   6.351  0.4843 -1.5755  0.0840
  449MOL0     C60547   5.942   9.026   6.229  0.1708  0.4470 -0.1034
  449MOL0     H60548   6.496   9.026   5.981 -0.6610  0.4182  0.6681
  449MOL0     H60549   6.595   9.032   5.770 -0.0996  0.2256  1.0771
  449MOL0     H60550   6.376   9.285   5.446 -0.8364 -1.0804  2.6328
  449MOL0     H60551   6.485   9.385   5.543  2.7009  0.7965 -0.0373
  449MOL0     H60552   6.556   9.207   5.311  2.5355 -1.4888  1.1667
  449MOL0     H60553   6.536   9.381   5.299  1.4083  0.4151 -0.1451
  449MOL0     H60554   6.720   9.385   5.497 -2.3939 -0.7613 -0.7709
  449MOL0     H60555   6.755   9.225   5.442 -0.3627 -0.2395  2.1864
  449MOL0     H60556   6.786   9.325   5.204 -2.0170 -2.2657  1.6329
  449MOL0     H60557   6.753   9.484   5.280 -1.0021  0.0381  2.0920
  449MOL0     H60558   6.947   9.444   5.422  3.1319 -0.3589 -0.9070
  449MOL0     H60559   6.996   9.304   5.340  1.0412  0.9220 -0.3578
  449MOL0     H60560   7.122   9.483   5.248  0.6652  2.4827  4.7747
  449MOL0     H60561   6.992   9.491   5.132 -0.0742 -3.4059  1.0860
  449MOL0     H60562   6.907   9.653   5.366  0.9937  4.1943  0.9265
  449MOL0     H60563   7.078   9.673   5.354  1.6241  0.4924 -0.9800
  449MOL0     H60564   6.914   9.837   5.261  1.6446  2.2830 -1.3550
  449MOL0     H60565   6.870   9.708   5.136  2.4554 -0.5612 -2.2466
  449MOL0     H60566   7.223   9.883   5.219 -1.0209 -4.2677  1.5642
  449MOL0     H60567   7.442   9.893   5.091 -1.1757 -0.5339  0.5121
  449MOL0     H60568   7.457   9.816   4.929 -0.2507  1.0123 -0.9544
  449MOL0     H60569   7.532  10.013   4.898  0.8366 -0.4587  1.8155
  449MOL0     H60570   7.393  10.104   4.970  0.7911  0.2193 -0.6276
  449MOL0     H60571   7.249  10.029   4.802 -0.8152 -2.4140 -0.4972
  449MOL0     H60572   7.379   9.941   4.723  2.9348  1.3463  0.3378
  449MOL0     H60573   7.515  10.163   4.747 -1.1737 -0.5836 -1.4964
  449MOL0     H60574   7.361  10.243   4.768 -0.0200  0.7448 -0.3311
  449MOL0     H60575   7.231  10.229   4.395 -2.4637  2.8728  1.7168
  449MOL0     H60576   7.278  10.442   4.114 -4.6717 -2.8432 -3.0958
  449MOL0     H60577   7.204  10.295   4.185  0.9444 -1.4401  0.5984
  449MOL0     H60578   7.152  10.453   4.238 -1.1501 -0.9184 -2.1057
  449MOL0     H60579   7.503  10.642   3.937  1.2558  0.1342 -2.6888
  449MOL0     H60580   7.523  10.830   3.788  1.5479 -2.6808  0.2192
  449MOL0     H60581   7.697  11.233   3.873  0.3045  2.4264 -2.6194
  449MOL0     H60582   7.777  11.075   3.823  1.5403  2.6056  1.9073
  449MOL0     H60583   7.631  11.086   3.630  1.0259  0.1957 -1.6000
  449MOL0     H60584   7.550  11.244   3.678  0.9465 -0.0700 -1.0374
  449MOL0     H60585   7.844  11.236   3.622  0.5598  2.9239  3.5440
  449MOL0     H60586   7.738  11.377   3.661 -2.5312  0.2410 -1.1713
  449MOL0     H60587   7.789  11.382   3.421  0.8868 -1.4791 -2.0641
  449MOL0     H60588   7.756  11.221   3.396  0.2104 -0.0620  0.4559
  449MOL0     H60589   7.508  11.258   3.456  0.4959  0.5697  2.0306
  449MOL0     H60590   7.576  11.318   3.308 -4.2134 -3.6065 -0.3139
  449MOL0     H60591   7.536  11.452   3.589  2.4804 -0.8702  0.2360
  449MOL0     H60592   7.616  11.537   3.458 -1.9852  1.2089 -2.2266
  449MOL0     H60593   7.330  11.464   3.470 -0.2688 -0.0440 -0.6324
  449MOL0     H60594   7.402  11.505   3.313 -0.8420 -1.8830  0.0479
  449MOL0     H60595   7.426  11.666   3.565  2.9331 -1.9801 -0.9860
  449MOL0     H60596   7.289  11.705   3.460 -1.0647  0.2165 -0.2378
  449MOL0     H60597   7.681  11.071   4.100  0.7190 -0.1957 -1.0517
  449MOL0     H60598   7.673  10.886   4.271  2.6187  2.9403 -1.3776
  449MOL0     H60599   7.632  10.520   4.447 -0.6273  2.3684  2.6998
  449MOL0     H60600   7.594  10.341   4.604 -0.0435  1.6336 -0.2509
  449MOL0     H60601   6.265   9.273   5.628 -0.6299  0.4707  1.1786
  449MOL0     H60602   6.164   9.253   5.850  0.1566  0.1452 -0.9437
  449MOL0     H60603   6.266   9.079   6.305 -1.0751 -0.8473 -0.5923
  449MOL0     H60604   6.167   9.053   6.533  3.4111  1.8170 -1.7548
  449MOL0     H60605   5.696   8.936   6.561  0.2108 -2.8135 -0.6625
  449MOL0     H60606   5.829   8.819   6.558 -0.1590 -1.0696  1.1489
  449MOL0     H60607   5.859   8.811   6.767  0.6378  1.9320 -1.3715
  449MOL0     H60608   5.688   8.776   6.720  1.1738 -0.6807  1.3308
  449MOL0     H60609   5.628   8.882   6.895 -2.1040  1.7410 -0.6463
  449MOL0     H60610   5.624   9.019   6.796 -1.4545 -2.7932 -0.6371
  449MOL0     H60611   5.729   9.111   6.977 -1.9508 -0.6163 -0.4525
  449MOL0     H60612   5.848   9.093   6.854  1.4842 -0.8599  0.3455
  449MOL0     H60613   6.028   8.847   7.154  1.9141  0.6067 -0.9106
  449MOL0     H60614   5.766   9.006   6.350  0.0020  1.6616 -0.5278
  449MOL0     H60615   5.885   9.001   6.141 -0.4393 -1.7569  0.8556
  450MOL0     O60616   3.742   9.350   4.101 -0.0360  0.7066 -0.6202
  450MOL0     C60617   3.712   9.388   4.211  0.6815  0.5058  0.7307
  450MOL0     O60618   3.637   9.490   4.246  0.0052  0.5227 -0.1317
  450MOL0     C60619   3.563   9.551   4.155  0.6039 -0.3157 -0.4827
  450MOL0     C60620   3.455   9.622   4.208 -0.1488 -0.1136  0.6131
  450MOL0     C60621   3.392   9.715   4.128 -0.7175 -0.1530  0.2636
  450MOL0     C60622   3.445   9.752   4.001  0.5195  0.1315 -0.7217
  450MOL0     O60623   3.377   9.823   3.904  0.2244  0.0092 -0.1013
  450MOL0     C60624   3.243   9.780   3.868  1.1798 -0.8586 -0.3434
  450MOL0     C60625   3.189   9.825   3.729  0.0283 -0.0665 -0.7430
  450MOL0     C60626   3.152   9.974   3.755 -0.8017 -0.7720  0.1882
  450MOL0     C60627   3.215  10.067   3.646 -0.2900 -0.0322 -0.3382
  450MOL0     C60628   3.146  10.047   3.512 -0.8821  0.2321 -0.1701
  450MOL0     C60629   3.190  10.142   3.401 -0.2298 -0.5390 -0.6471
  450MOL0     C60630   3.349  10.150   3.377  0.6565 -0.3914  0.3759
  450MOL0     C60631   3.407  10.013   3.346  0.3581 -0.4175  0.3132
  450MOL0     N60632   3.547  10.015   3.327 -0.3202  0.4225  0.3827
  450MOL0     C60633   3.599  10.092   3.223  0.6010  0.6303  0.0096
  450MOL0     C60634   3.728  10.109   3.245  0.4756  0.9553 -0.9188
  450MOL0     C60635   3.826  10.195   3.172 -0.0112 -0.6126 -0.1221
  450MOL0     C60636   3.840  10.335   3.237 -0.4489  0.7569  1.0242
  450MOL0     C60637   3.949  10.408   3.152  0.4894 -0.3397 -0.2269
  450MOL0     C60638   4.084  10.364   3.200  0.6386  0.1656  0.1826
  450MOL0     O60639   4.178  10.371   3.088  1.0631 -0.0186 -0.2280
  450MOL0     C60640   4.251  10.480   3.078 -0.5472 -0.2038  0.3110
  450MOL0     C60641   4.186  10.610   3.073 -0.2515  1.0045  0.4487
  450MOL0     C60642   4.250  10.735   3.070 -0.9803  0.2878 -0.3143
  450MOL0     C60643   4.166  10.860   3.081  1.1009  1.0038  0.4884
  450MOL0     C60644   4.392  10.730   3.057  0.3762  0.3359 -0.6291
  450MOL0     C60645   4.485  10.848   3.056  0.4730  0.6236  0.8646
  450MOL0     O60646   4.427  10.963   3.035  0.4968  0.2081 -1.1039
  450MOL0     C60647   4.479  11.050   2.945  0.4226 -0.5709 -0.5269
  450MOL0     C60648   4.598  11.047   2.875  0.1522  0.1065  0.8962
  450MOL0     C60649   4.631  11.149   2.787  0.4790  0.1246 -0.6520
  450MOL0     C60650   4.541  11.260   2.763 -0.1990  0.3870  0.3166
  450MOL0     O60651   4.575  11.363   2.675  0.1882  0.0561 -0.2619
  450MOL0     C60652   4.495  11.484   2.660 -0.6894  0.0333  0.0914
  450MOL0     C60653   4.574  11.600   2.592  0.0940  0.7184  0.7899
  450MOL0     C60654   4.637  11.552   2.454  0.4726 -0.5290 -0.1196
  450MOL0     C60655   4.682  11.668   2.369 -0.5318 -0.4755  0.2727
  450MOL0     C60656   4.736  11.615   2.233 -0.5045 -0.3454 -0.3058
  450MOL0     C60657   4.632  11.572   2.131  1.1003 -0.0535 -0.6079
  450MOL0     C60658   4.686  11.550   1.991 -0.4234 -0.0491  0.3587
  450MOL0     C60659   4.590  11.617   1.893 -0.3371  1.2432 -0.0641
  450MOL0    Cl60660   4.628  11.593   1.713 -0.1032 -0.1969 -0.2853
  450MOL0     C60661   4.420  11.247   2.822  0.8657  1.0456  0.6954
  450MOL0     C60662   4.384  11.143   2.911 -0.3874 -0.7548 -0.3961
  450MOL0     O60663   4.609  10.823   3.041  0.1218 -0.2450  0.2896
  450MOL0     C60664   4.452  10.599   3.065  0.4743  0.2020  0.0776
  450MOL0     C60665   4.386  10.482   3.088 -0.3379 -0.4258 -0.8576
  450MOL0     N60666   3.754  10.061   3.371  0.1289 -0.9254 -0.2019
  450MOL0     N60667   3.652   9.998   3.417  1.0212  0.5143 -0.1238
  450MOL0     C60668   3.545   9.678   3.950  0.2922  0.2236  0.8302
  450MOL0     C60669   3.609   9.578   4.019 -0.4931 -0.8470  0.9051
  450MOL0     C60670   3.780   9.311   4.314  0.1992 -0.3380 -1.0311
  450MOL0     C60671   3.730   9.326   4.438 -0.3661 -0.1701  0.2043
  450MOL0     C60672   3.794   9.253   4.543  0.0499  0.6074 -0.4386
  450MOL0     C60673   3.917   9.189   4.520 -0.2633  1.1310  0.4887
  450MOL0     O60674   4.004   9.163   4.618  0.1031  1.0023  0.3973
  450MOL0     C60675   3.959   9.040   4.690 -0.2687 -0.3700 -0.1728
  450MOL0     C60676   4.026   8.920   4.614 -0.4366  0.2180 -0.7334
  450MOL0     C60677   4.174   8.900   4.641  0.0509 -0.4753  0.3758
  450MOL0     C60678   4.226   8.758   4.624  0.4021  0.4126  0.1516
  450MOL0     C60679   4.237   8.707   4.486  0.2774  0.0173 -0.3535
  450MOL0     C60680   4.246   8.669   4.369 -1.1490 -1.4123  0.0902
  450MOL0     C60681   3.975   9.188   4.385  0.8562  1.2678 -0.0186
  450MOL0     C60682   3.891   9.236   4.286 -0.3898 -0.2278 -0.7127
  450MOL0     H60683   3.432   9.612   4.313  1.5986  1.5654  1.2170
  450MOL0     H60684   3.293   9.747   4.159  0.6046  1.3364  3.4190
  450MOL0     H60685   3.241   9.671   3.859 -2.0107 -0.8762 -0.4760
  450MOL0     H60686   3.171   9.822   3.939  0.7243 -0.1449 -1.2088
  450MOL0     H60687   3.261   9.816   3.647  2.7523 -1.5445  1.6002
  450MOL0     H60688   3.094   9.772   3.722 -0.2691 -0.8296  4.7990
  450MOL0     H60689   3.043   9.976   3.748 -0.9915  0.3366  2.4857
  450MOL0     H60690   3.170  10.008   3.857  2.0022 -2.4108  0.3588
  450MOL0     H60691   3.188  10.172   3.664 -0.6445 -0.3631  1.2301
  450MOL0     H60692   3.321  10.045   3.630 -0.7966 -3.4589  0.2089
  450MOL0     H60693   3.165   9.946   3.473 -0.4891 -0.2156  1.1195
  450MOL0     H60694   3.038  10.063   3.524 -0.6393  1.5447  0.3430
  450MOL0     H60695   3.137  10.123   3.308 -3.2376 -0.6555  0.9722
  450MOL0     H60696   3.141  10.235   3.429  0.7402  0.1601 -1.2321
  450MOL0     H60697   3.372  10.214   3.291  1.5447  0.2200  1.0593
  450MOL0     H60698   3.398  10.190   3.466  1.0793 -0.1110  0.0198
  450MOL0     H60699   3.361   9.973   3.255 -0.8886 -2.8649  1.9281
  450MOL0     H60700   3.374   9.943   3.422 -0.8480  1.3911  1.5344
  450MOL0     H60701   3.539  10.122   3.138 -0.9933 -3.1125 -0.3526
  450MOL0     H60702   3.918  10.136   3.160  0.6619  0.4909 -0.5409
  450MOL0     H60703   3.781  10.210   3.074  0.2456 -0.9838 -0.2984
  450MOL0     H60704   3.868  10.326   3.342  1.2545 -2.0976  0.4428
  450MOL0     H60705   3.738  10.375   3.230  0.1118  2.1861  0.6646
  450MOL0     H60706   3.923  10.512   3.172 -1.6494 -1.0018  0.7468
  450MOL0     H60707   3.938  10.380   3.047  2.3772  1.1800 -0.8944
  450MOL0     H60708   4.078  10.261   3.237 -0.5327 -0.4821 -1.7071
  450MOL0     H60709   4.115  10.423   3.287 -0.5108 -1.5889  1.8592
  450MOL0     H60710   4.079  10.624   3.063 -0.6740  0.6713  3.4193
  450MOL0     H60711   4.137  10.901   2.984  1.6885 -1.3477 -0.7424
  450MOL0     H60712   4.083  10.830   3.146  2.9488 -1.2884  1.9719
  450MOL0     H60713   4.217  10.941   3.136  0.1560  2.6661 -0.9769
  450MOL0     H60714   4.670  10.966   2.874  0.5175  0.4014 -1.0145
  450MOL0     H60715   4.727  11.150   2.736  0.7261  5.1650 -0.5825
  450MOL0     H60716   4.411  11.445   2.602  0.1705  0.5984 -1.5780
  450MOL0     H60717   4.468  11.530   2.756 -1.7280 -1.0950  0.3648
  450MOL0     H60718   4.506  11.683   2.573  0.4711  1.0133  0.7248
  450MOL0     H60719   4.656  11.636   2.655 -0.8276 -0.6333  2.8908
  450MOL0     H60720   4.560  11.491   2.406 -2.2892 -0.9432  4.2745
  450MOL0     H60721   4.716  11.480   2.475  2.5633  2.0658  1.5772
  450MOL0     H60722   4.602  11.740   2.346  0.1618  0.0179 -0.6310
  450MOL0     H60723   4.760  11.732   2.410 -1.6223  0.3553  1.0978
  450MOL0     H60724   4.806  11.535   2.258 -2.2672 -1.8773 -0.1097
  450MOL0     H60725   4.792  11.697   2.185  0.6878 -1.0770 -0.2122
  450MOL0     H60726   4.589  11.476   2.162  2.3148 -0.9234 -1.5072
  450MOL0     H60727   4.553  11.648   2.136  0.3974 -0.7733 -0.6618
  450MOL0     H60728   4.700  11.445   1.966  6.1469  1.3783 -4.7097
  450MOL0     H60729   4.786  11.595   1.986 -0.5090  0.1191 -4.4992
  450MOL0     H60730   4.582  11.724   1.914  3.0678  1.7628 -0.7866
  450MOL0     H60731   4.489  11.577   1.898 -0.6071  1.6495 -1.6524
  450MOL0     H60732   4.344  11.323   2.805  0.6694  0.3211 -2.0490
  450MOL0     H60733   4.288  11.142   2.961 -0.6560 -1.4967 -0.9130
  450MOL0     H60734   4.560  10.594   3.068  0.4191 -1.1078  0.5466
  450MOL0     H60735   4.436  10.388   3.108 -1.1543 -0.2006  2.9093
  450MOL0     H60736   3.573   9.700   3.848  0.8821  2.8904  1.4701
  450MOL0     H60737   3.680   9.515   3.966 -3.9032 -1.5407 -3.4257
  450MOL0     H60738   3.652   9.398   4.461  1.3201  1.6510  0.6002
  450MOL0     H60739   3.745   9.270   4.638 -2.8422  0.1047 -1.7447
  450MOL0     H60740   4.002   9.043   4.790  0.6037 -1.3721 -0.5063
  450MOL0     H60741   3.853   9.019   4.706  0.3385 -3.5973  0.3421
  450MOL0     H60742   3.999   8.929   4.508  0.7109  1.5677 -0.9266
  450MOL0     H60743   3.971   8.832   4.651 -0.1963 -0.3520 -1.6941
  450MOL0     H60744   4.190   8.936   4.743 -4.0330 -0.2881  1.1238
  450MOL0     H60745   4.221   8.975   4.577  1.7326 -1.2002  0.7126
  450MOL0     H60746   4.173   8.688   4.689  2.3152 -0.6128  0.6964
  450MOL0     H60747   4.328   8.756   4.663  0.8160 -0.7954 -0.8924
  450MOL0     H60748   4.269   8.648   4.266  0.0887  1.9191 -0.4442
  450MOL0     H60749   4.068   9.138   4.361  0.2348  1.4250 -3.0969
  450MOL0     H60750   3.929   9.220   4.186  1.8386  0.5936 -0.0478
  451MOL0     O60751   7.599  10.154   0.254  0.9314  0.4732  0.0770
  451MOL0     C60752   7.475  10.135   0.234  0.6012  0.2459  0.3809
  451MOL0     O60753   7.371  10.148   0.319  0.0464  0.0188  0.6774
  451MOL0     C60754   7.404  10.204   0.444 -0.3187 -0.0063 -0.2487
  451MOL0     C60755   7.413  10.125   0.557 -0.0544 -0.7205  0.4617
  451MOL0     C60756   7.434  10.188   0.681  0.5744  0.4183  0.8270
  451MOL0     C60757   7.451  10.325   0.700 -0.5215 -0.5447 -0.6181
  451MOL0     O60758   7.472  10.395   0.815  0.5935 -0.2530 -0.3543
  451MOL0     C60759   7.471  10.326   0.942 -0.8730  0.1760  1.1345
  451MOL0     C60760   7.330  10.326   1.005 -0.4594  0.4956 -0.0834
  451MOL0     C60761   7.293  10.465   1.038  0.4213 -0.4927  0.0863
  451MOL0     C60762   7.136  10.484   1.045  0.0353 -0.2884  0.1263
  451MOL0     C60763   7.085  10.634   1.037 -0.1833  0.3160  0.3651
  451MOL0     C60764   6.953  10.653   1.097 -0.4646 -0.2117 -1.1760
  451MOL0     C60765   6.935  10.798   1.150 -0.4748 -0.1218  0.1172
  451MOL0     C60766   6.918  10.909   1.046 -0.5442  0.0692 -0.0489
  451MOL0     N60767   6.870  11.036   1.111  0.0271 -0.1295  0.2477
  451MOL0     C60768   6.866  11.069   1.243  0.5744  1.1509  0.1926
  451MOL0     C60769   6.813  11.198   1.251  0.5152  0.2071  0.0427
  451MOL0     C60770   6.788  11.275   1.380 -0.6924 -0.2993 -0.2458
  451MOL0     C60771   6.654  11.330   1.406 -0.3429  0.9605  0.1158
  451MOL0     C60772   6.633  11.410   1.544  0.8893 -0.0070 -0.3607
  451MOL0     C60773   6.745  11.507   1.573 -0.3670  0.3988 -0.1009
  451MOL0     O60774   6.708  11.576   1.691  0.7229  0.0199 -0.1996
  451MOL0     C60775   6.753  11.702   1.694 -0.4114 -0.6905  0.1504
  451MOL0     C60776   6.677  11.798   1.628 -0.9066  0.0984 -0.3851
  451MOL0     C60777   6.715  11.931   1.640  0.6260  0.5249 -0.0239
  451MOL0     C60778   6.613  12.028   1.588  0.7425 -0.2599 -0.1398
  451MOL0     C60779   6.834  11.966   1.707  0.7174 -0.1140 -0.5642
  451MOL0     C60780   6.888  12.098   1.711 -1.0257 -0.6510  0.0775
  451MOL0     O60781   6.879  12.164   1.589  0.2889  0.6474 -0.7752
  451MOL0     C60782   6.948  12.283   1.568  0.9407 -1.0686 -0.3327
  451MOL0     C60783   6.878  12.408   1.571 -0.2279  0.3078 -0.3363
  451MOL0     C60784   6.947  12.524   1.543  1.0958  0.1241  0.9896
  451MOL0     C60785   7.088  12.526   1.514  0.5093  0.0493 -0.0529
  451MOL0     O60786   7.144  12.651   1.507  0.3150  0.5242 -0.0519
  451MOL0     C60787   7.198  12.674   1.370 -0.0223  0.2483 -1.2140
  451MOL0     C60788   7.331  12.754   1.372  0.5855 -0.1223 -0.0910
  451MOL0     C60789   7.306  12.889   1.437  0.1165  0.1863  0.2207
  451MOL0     C60790   7.411  12.985   1.392 -0.8488 -0.0068 -0.1645
  451MOL0     C60791   7.444  13.075   1.517  0.0767  0.1564  1.1605
  451MOL0     C60792   7.382  13.214   1.522 -0.0199  0.0213  0.6510
  451MOL0     C60793   7.422  13.316   1.412 -0.8583 -0.0959  0.1930
  451MOL0     C60794   7.566  13.363   1.435  0.2235 -0.2757  1.0533
  451MOL0    Cl60795   7.584  13.428   1.593 -0.1865 -0.1635 -0.0779
  451MOL0     C60796   7.157  12.401   1.501 -0.6865 -1.7715 -0.1547
  451MOL0     C60797   7.088  12.285   1.532 -0.1093 -0.5110  0.9409
  451MOL0     O60798   6.944  12.141   1.819  0.3741 -0.3220  0.5440
  451MOL0     C60799   6.921  11.865   1.758  0.3338  0.3603  0.1093
  451MOL0     C60800   6.872  11.741   1.767 -0.1495 -0.1237  0.7808
  451MOL0     N60801   6.795  11.230   1.117  0.2520 -0.6485 -0.1980
  451MOL0     N60802   6.823  11.135   1.030  0.6435  0.0534  0.8825
  451MOL0     C60803   7.458  10.407   0.581  0.4905  0.7818 -0.2051
  451MOL0     C60804   7.426  10.347   0.456 -0.4495  0.0720 -0.3603
  451MOL0     C60805   7.441  10.070   0.109  0.8160  0.7804  0.7392
  451MOL0     C60806   7.532  10.002   0.032  0.4763 -0.3221 -0.5264
  451MOL0     C60807   7.493   9.942  -0.086  0.6398 -0.5009  0.6004
  451MOL0     C60808   7.361   9.922  -0.122 -0.2271  0.3627 -0.5016
  451MOL0     O60809   7.339   9.865  -0.238  0.1246  0.5109  0.4627
  451MOL0     C60810   7.215   9.811  -0.278 -0.0384  0.0611 -0.4623
  451MOL0     C60811   7.199   9.680  -0.209 -0.1553 -0.4645 -0.3902
  451MOL0     C60812   7.049   9.645  -0.210  0.6497  0.1385 -0.2514
  451MOL0     C60813   7.031   9.514  -0.133  0.2136 -0.4441  0.5972
  451MOL0     C60814   6.901   9.485  -0.089 -0.6022 -0.3135 -0.1499
  451MOL0     C60815   6.794   9.464  -0.057  0.1587  0.3223  0.4418
  451MOL0     C60816   7.265   9.981  -0.042  0.3521  0.6346  0.6331
  451MOL0     C60817   7.303  10.067   0.069  0.2612 -0.1175  0.7177
  451MOL0     H60818   7.402  10.021   0.531  0.2225 -0.2574 -1.7305
  451MOL0     H60819   7.430  10.137   0.777  0.4201 -0.3167  0.4369
  451MOL0     H60820   7.506  10.222   0.938  2.7318  1.2040  2.0228
  451MOL0     H60821   7.546  10.374   1.007 -1.6510  1.5819  1.0270
  451MOL0     H60822   7.263  10.281   0.932 -1.9555  0.1634  1.4149
  451MOL0     H60823   7.315  10.260   1.092  1.8382 -2.2513 -1.6013
  451MOL0     H60824   7.326  10.470   1.142 -1.6583 -3.0732  0.9819
  451MOL0     H60825   7.344  10.528   0.964  1.7508 -2.5937 -0.8790
  451MOL0     H60826   7.088  10.428   0.965 -0.2040 -0.2609  0.2503
  451MOL0     H60827   7.098  10.431   1.133  0.8938 -0.8108  0.1954
  451MOL0     H60828   7.159  10.700   1.082  1.3020 -1.2989  0.3932
  451MOL0     H60829   7.077  10.666   0.933 -1.2234 -0.8357  0.0706
  451MOL0     H60830   6.869  10.609   1.042 -0.6870 -1.0134 -0.2252
  451MOL0     H60831   6.954  10.586   1.184 -4.9757 -1.3226 -1.7202
  451MOL0     H60832   6.852  10.791   1.220 -0.7017 -2.6309 -0.2917
  451MOL0     H60833   7.015  10.831   1.217 -1.1867 -1.2787  1.6052
  451MOL0     H60834   6.836  10.891   0.976 -0.6069  1.5309 -0.3814
  451MOL0     H60835   7.002  10.930   0.980 -0.3361  0.6188  0.3816
  451MOL0     H60836   6.908  11.014   1.327  3.1645  0.8476 -1.2158
  451MOL0     H60837   6.824  11.207   1.459 -0.5878 -1.5395 -1.3356
  451MOL0     H60838   6.836  11.373   1.372 -0.9654 -0.3354 -2.9792
  451MOL0     H60839   6.585  11.246   1.419 -0.5419  0.9729 -0.8143
  451MOL0     H60840   6.629  11.393   1.320  3.8004  3.8195  0.7053
  451MOL0     H60841   6.623  11.340   1.628 -0.2128  2.6219  1.8414
  451MOL0     H60842   6.537  11.461   1.541  1.9921  2.3693  1.2715
  451MOL0     H60843   6.785  11.572   1.495 -0.5958 -0.4824 -0.9783
  451MOL0     H60844   6.832  11.443   1.591  0.5087  1.7960  0.7619
  451MOL0     H60845   6.579  11.787   1.581  0.1767  2.5891 -3.6132
  451MOL0     H60846   6.640  12.133   1.573 -2.1078  0.2366 -2.7796
  451MOL0     H60847   6.577  11.984   1.494 -1.5955  0.0536  0.5622
  451MOL0     H60848   6.533  12.031   1.662 -1.2112  0.2279 -2.1687
  451MOL0     H60849   6.775  12.419   1.602 -0.5593 -0.3566 -1.1598
  451MOL0     H60850   6.891  12.617   1.549  0.2622  0.1455 -3.7911
  451MOL0     H60851   7.211  12.581   1.314  1.8244 -0.2679 -0.0310
  451MOL0     H60852   7.126  12.734   1.314  0.3248 -2.6643 -5.2425
  451MOL0     H60853   7.408  12.698   1.426  1.9928  0.7116 -1.1561
  451MOL0     H60854   7.367  12.771   1.271 -0.8691  1.2436 -0.4206
  451MOL0     H60855   7.292  12.869   1.543 -1.5803 -2.6496 -0.4231
  451MOL0     H60856   7.208  12.921   1.400 -0.4616 -1.4863  0.2229
  451MOL0     H60857   7.493  12.920   1.360 -1.4990 -0.9725  0.0770
  451MOL0     H60858   7.399  13.038   1.297  3.8751 -2.8378 -2.7738
  451MOL0     H60859   7.552  13.091   1.517  0.0722  0.2164  0.3621
  451MOL0     H60860   7.415  13.025   1.610  1.3982  0.5968  1.8384
  451MOL0     H60861   7.273  13.208   1.514 -0.3123  4.4293 -1.4792
  451MOL0     H60862   7.403  13.254   1.621 -0.7562  2.5444 -0.1452
  451MOL0     H60863   7.357  13.404   1.413 -0.3106  0.3652 -1.3150
  451MOL0     H60864   7.419  13.262   1.317  1.9355  1.8124 -1.1201
  451MOL0     H60865   7.572  13.429   1.348  0.1437  0.7058  1.7815
  451MOL0     H60866   7.638  13.284   1.412 -1.3702 -0.6720 -3.8906
  451MOL0     H60867   7.261  12.406   1.473 -0.8990  1.0654 -0.8239
  451MOL0     H60868   7.131  12.186   1.521 -0.2601 -0.2509 -3.5529
  451MOL0     H60869   7.018  11.890   1.801  1.3466 -0.6993 -1.4452
  451MOL0     H60870   6.934  11.661   1.806 -0.3349 -0.9327 -0.5095
  451MOL0     H60871   7.484  10.512   0.590  2.7484  0.5604 -2.7835
  451MOL0     H60872   7.436  10.404   0.365 -0.1914 -1.1910 -1.1472
  451MOL0     H60873   7.636   9.994   0.060  1.7329  1.8037 -3.9073
  451MOL0     H60874   7.567   9.901  -0.155 -0.1851 -1.7369  0.4192
  451MOL0     H60875   7.141   9.888  -0.253  0.5714  0.1196  1.2889
  451MOL0     H60876   7.198   9.780  -0.382 -0.0817 -2.6015  0.2601
  451MOL0     H60877   7.214   9.694  -0.102 -2.2902  1.6848 -0.2875
  451MOL0     H60878   7.256   9.592  -0.241  0.4156 -0.9378  1.7919
  451MOL0     H60879   7.025   9.627  -0.315 -2.2154 -0.2116  0.3979
  451MOL0     H60880   6.972   9.717  -0.180  0.1117 -0.4814 -0.1321
  451MOL0     H60881   7.096   9.513  -0.045  1.3332 -1.5551 -0.2231
  451MOL0     H60882   7.047   9.423  -0.192  0.3928  0.3400 -0.5819
  451MOL0     H60883   6.698   9.436  -0.019  0.8100 -1.9229  0.5502
  451MOL0     H60884   7.166   9.988  -0.085 -0.0580 -2.2558  0.9166
  451MOL0     H60885   7.216  10.115   0.113 -1.2026 -2.4628  0.5315
  452MOL0     O60886   5.681   3.765   6.584  0.2991  0.8561 -0.6410
  452MOL0     C60887   5.641   3.851   6.665  1.0386  0.5420  0.0467
  452MOL0     O60888   5.553   3.832   6.767 -0.1574 -0.1240 -0.9764
  452MOL0     C60889   5.485   3.720   6.806 -0.4866  0.0805 -0.4403
  452MOL0     C60890   5.439   3.628   6.712 -0.2235 -1.2304 -0.3211
  452MOL0     C60891   5.356   3.525   6.745  0.4176 -0.4512  0.0572
  452MOL0     C60892   5.318   3.505   6.878 -1.1140  0.5358 -0.2544
  452MOL0     O60893   5.230   3.406   6.914  0.3935 -0.8044  1.0442
  452MOL0     C60894   5.125   3.372   6.818  0.7238  0.3559 -0.1359
  452MOL0     C60895   5.021   3.292   6.899 -1.1064 -0.1802 -1.2227
  452MOL0     C60896   4.971   3.366   7.022  0.1999  0.1927  0.5043
  452MOL0     C60897   5.065   3.334   7.146  0.1546 -0.8531 -0.9182
  452MOL0     C60898   5.010   3.404   7.271 -0.8698 -0.6657 -0.4152
  452MOL0     C60899   5.047   3.335   7.403 -0.1590 -0.1932 -0.2513
  452MOL0     C60900   4.993   3.428   7.521 -0.3431 -0.3895  0.7789
  452MOL0     C60901   4.967   3.380   7.661 -0.8517 -0.1304 -0.3471
  452MOL0     N60902   4.829   3.344   7.707  0.3588 -0.7788 -0.7429
  452MOL0     C60903   4.718   3.353   7.624 -0.2029 -1.4769 -0.2735
  452MOL0     C60904   4.620   3.301   7.692 -0.1903 -0.0938  0.1342
  452MOL0     C60905   4.476   3.278   7.659 -0.4382  0.8937  0.4795
  452MOL0     C60906   4.401   3.364   7.546 -1.3542  1.5820 -0.4348
  452MOL0     C60907   4.255   3.328   7.552 -0.4210 -0.8132 -0.1276
  452MOL0     C60908   4.176   3.416   7.455  0.5152  0.2310 -0.7090
  452MOL0     O60909   4.246   3.409   7.324  0.1082  0.6679  0.2103
  452MOL0     C60910   4.216   3.489   7.217 -0.0937 -0.0709 -0.6582
  452MOL0     C60911   4.259   3.457   7.087  0.1899  0.2408 -0.4060
  452MOL0     C60912   4.213   3.514   6.967  1.1381  0.2806  0.3006
  452MOL0     C60913   4.272   3.482   6.832  0.3766  0.1009 -0.9842
  452MOL0     C60914   4.119   3.623   6.978  0.2649 -0.5395  0.3869
  452MOL0     C60915   4.054   3.700   6.860 -0.2025 -0.2717 -0.7335
  452MOL0     O60916   3.992   3.815   6.896  0.0394 -0.4800 -0.0197
  452MOL0     C60917   3.970   3.919   6.810  0.3883 -0.0014  0.6918
  452MOL0     C60918   4.065   3.995   6.741  0.3376 -0.3758  0.3913
  452MOL0     C60919   4.028   4.103   6.667  0.7670  0.3332 -0.3807
  452MOL0     C60920   3.888   4.127   6.649  0.7242  0.7818 -0.2409
  452MOL0     O60921   3.848   4.213   6.550  0.3244 -0.6081 -0.2698
  452MOL0     C60922   3.945   4.236   6.442 -0.5148  0.4191 -0.2306
  452MOL0     C60923   3.887   4.276   6.307  0.5889 -0.6266 -1.0720
  452MOL0     C60924   3.971   4.245   6.186 -0.8561 -0.4596  0.5504
  452MOL0     C60925   4.121   4.277   6.202  0.0279  0.1517 -0.9730
  452MOL0     C60926   4.199   4.293   6.072 -0.6902  0.5075 -0.1175
  452MOL0     C60927   4.206   4.181   5.965  0.5399  0.5459  0.6840
  452MOL0     C60928   4.330   4.187   5.861  0.6825  0.3541  0.4836
  452MOL0     C60929   4.397   4.054   5.843 -0.6870  0.7618  0.6228
  452MOL0    Cl60930   4.517   4.065   5.704  0.3175  0.1669 -0.1450
  452MOL0     C60931   3.793   4.046   6.713  0.1597 -0.1619  0.6933
  452MOL0     C60932   3.834   3.951   6.805  0.8922  0.2928 -0.0568
  452MOL0     O60933   4.086   3.669   6.743  0.6638 -0.2173 -0.6458
  452MOL0     C60934   4.095   3.668   7.115  0.7918 -0.6639 -0.3873
  452MOL0     C60935   4.126   3.601   7.234  0.9112 -0.7899  0.3213
  452MOL0     N60936   4.666   3.221   7.792  0.3301  0.1254  0.4854
  452MOL0     N60937   4.792   3.259   7.808 -0.3074  0.1105 -0.2599
  452MOL0     C60938   5.370   3.591   6.976  0.4878  0.4772  0.0861
  452MOL0     C60939   5.459   3.693   6.940 -0.5118 -0.0253 -0.7740
  452MOL0     C60940   5.695   3.989   6.643  0.5600 -1.2121  0.5803
  452MOL0     C60941   5.646   4.101   6.716 -0.2315  0.6779 -0.7540
  452MOL0     C60942   5.709   4.222   6.708  1.0614  0.0462 -0.5354
  452MOL0     C60943   5.822   4.243   6.617  0.2976  0.1679 -0.6282
  452MOL0     O60944   5.885   4.361   6.598  0.2181 -0.4152  0.5584
  452MOL0     C60945   5.995   4.372   6.691 -0.1251  0.5930  0.7041
  452MOL0     C60946   5.940   4.406   6.829 -0.2058  0.9854 -0.1963
  452MOL0     C60947   6.065   4.425   6.922  0.3695 -0.5448 -0.3572
  452MOL0     C60948   6.047   4.471   7.062 -0.7023 -0.0347  0.0461
  452MOL0     C60949   5.995   4.365   7.145 -1.1429 -0.4204 -0.2426
  452MOL0     C60950   5.951   4.289   7.230 -1.1835 -0.6644  0.2682
  452MOL0     C60951   5.857   4.132   6.537  0.7407 -0.3364 -0.2173
  452MOL0     C60952   5.797   4.007   6.544  0.1070 -0.9092 -0.4903
  452MOL0     H60953   5.463   3.641   6.607 -2.4179  0.3862 -0.6925
  452MOL0     H60954   5.331   3.458   6.664  1.8561  2.2419 -2.8338
  452MOL0     H60955   5.076   3.467   6.792  1.1166  0.9416  1.2123
  452MOL0     H60956   5.164   3.322   6.729 -2.5019  1.7626 -2.5416
  452MOL0     H60957   4.947   3.273   6.821  0.9043  3.4121 -4.3878
  452MOL0     H60958   5.060   3.192   6.919  0.0569  0.1124 -1.9461
  452MOL0     H60959   4.961   3.473   7.004  0.9043  0.0197 -1.1071
  452MOL0     H60960   4.872   3.328   7.048 -0.3934  0.3730 -1.3558
  452MOL0     H60961   5.069   3.227   7.169  0.0608 -0.1415  2.9927
  452MOL0     H60962   5.172   3.355   7.134  0.4197 -0.6333  1.4408
  452MOL0     H60963   5.038   3.509   7.285  1.4517 -1.3005  0.2158
  452MOL0     H60964   4.901   3.397   7.268 -0.9546  0.5704 -0.7627
  452MOL0     H60965   5.001   3.236   7.408 -3.1876  1.0283 -1.3869
  452MOL0     H60966   5.155   3.320   7.405 -0.3831 -2.0484 -0.0796
  452MOL0     H60967   5.071   3.505   7.518  1.4305 -1.7893 -5.6201
  452MOL0     H60968   4.901   3.474   7.482 -0.5003 -2.9259 -2.2682
  452MOL0     H60969   5.014   3.460   7.719 -2.4149  0.4664  0.1213
  452MOL0     H60970   5.030   3.291   7.674 -0.7221 -0.2301 -1.4789
  452MOL0     H60971   4.725   3.413   7.534 -0.5969  1.4067  1.4903
  452MOL0     H60972   4.470   3.171   7.636 -2.8669  1.2778 -0.9530
  452MOL0     H60973   4.419   3.285   7.752 -2.4037 -1.0962 -0.4838
  452MOL0     H60974   4.448   3.339   7.450 -3.2966 -0.3354 -0.9738
  452MOL0     H60975   4.410   3.472   7.558 -0.8711  1.7606 -2.1428
  452MOL0     H60976   4.226   3.346   7.656  4.3812  0.8783  1.1929
  452MOL0     H60977   4.238   3.224   7.526 -4.1274 -0.2139 -0.6803
  452MOL0     H60978   4.171   3.512   7.508  0.6551 -1.5714  2.8057
  452MOL0     H60979   4.072   3.383   7.466  1.1263 -1.1999  1.2864
  452MOL0     H60980   4.325   3.370   7.080  0.7201  0.4667  1.2983
  452MOL0     H60981   4.329   3.388   6.837 -0.4886 -0.3901  0.5880
  452MOL0     H60982   4.202   3.467   6.750 -1.8180 -1.0785  0.9861
  452MOL0     H60983   4.333   3.566   6.798  0.6728 -0.8383 -2.9428
  452MOL0     H60984   4.171   3.971   6.737  1.2044  2.9927  0.5666
  452MOL0     H60985   4.103   4.154   6.608  2.2427 -1.1670  0.1260
  452MOL0     H60986   4.027   4.306   6.459 -1.4178  1.7072 -0.9298
  452MOL0     H60987   3.994   4.141   6.424 -0.3841  0.4589 -0.0861
  452MOL0     H60988   3.784   4.241   6.301 -0.0930  1.4090 -2.2796
  452MOL0     H60989   3.872   4.384   6.315  0.8846 -0.5802 -1.1329
  452MOL0     H60990   3.923   4.312   6.115  1.0862 -0.0486 -0.4534
  452MOL0     H60991   3.954   4.142   6.153  1.9414 -0.6251 -0.6406
  452MOL0     H60992   4.121   4.374   6.252  3.0257 -0.4871  0.4376
  452MOL0     H60993   4.159   4.191   6.258 -3.6302 -1.4556 -0.6523
  452MOL0     H60994   4.303   4.307   6.101 -0.8914  0.6113  0.5636
  452MOL0     H60995   4.162   4.384   6.024  0.6445  2.2698  2.0064
  452MOL0     H60996   4.218   4.089   6.023  0.8181  0.5088  0.5685
  452MOL0     H60997   4.115   4.189   5.904  3.0618 -5.1708 -5.0523
  452MOL0     H60998   4.411   4.257   5.886  2.4599 -0.5693 -2.2227
  452MOL0     H60999   4.304   4.228   5.763  1.9893  0.1709  0.0389
  452MOL0     H61000   4.320   3.983   5.812 -2.4123  1.4443  3.0414
  452MOL0     H61001   4.448   3.998   5.922 -0.5287 -3.2851 -2.0712
  452MOL0     H61002   3.690   4.045   6.677  0.4253  1.8542 -0.2756
  452MOL0     H61003   3.755   3.907   6.865  1.1555  1.7384  1.4227
  452MOL0     H61004   4.044   3.763   7.125  2.2645  0.1859 -0.7188
  452MOL0     H61005   4.077   3.631   7.326  0.7777 -3.2458  1.1304
  452MOL0     H61006   5.349   3.571   7.080 -0.2325 -0.7040 -0.2596
  452MOL0     H61007   5.501   3.745   7.025 -3.8177 -1.0000  1.6793
  452MOL0     H61008   5.571   4.089   6.794  0.0622 -0.7176 -0.6579
  452MOL0     H61009   5.684   4.315   6.758  2.6980  0.6841 -0.8302
  452MOL0     H61010   6.068   4.291   6.692  2.1982  2.5758  1.2443
  452MOL0     H61011   6.050   4.462   6.662 -0.7630  0.6118 -0.4820
  452MOL0     H61012   5.879   4.319   6.858  1.3890 -0.0786  0.0917
  452MOL0     H61013   5.875   4.493   6.825 -0.7978  0.5131 -2.7844
  452MOL0     H61014   6.118   4.511   6.879 -0.7202  0.9080  1.0978
  452MOL0     H61015   6.137   4.342   6.926  0.7705 -0.3945 -2.9596
  452MOL0     H61016   5.988   4.563   7.067  0.1921  0.6080 -0.8149
  452MOL0     H61017   6.143   4.502   7.106 -1.5885 -0.3157  2.3197
  452MOL0     H61018   5.918   4.210   7.295  1.9921 -1.0020  1.6657
  452MOL0     H61019   5.921   4.169   6.458 -0.2907  2.6811  0.2172
  452MOL0     H61020   5.830   3.927   6.478  0.2197 -0.8701 -0.4821
  453MOL0     O61021   0.977   7.455  11.090 -0.0854 -0.2882 -0.2746
  453MOL0     C61022   1.034   7.343  11.108  1.0917  0.0237 -0.4520
  453MOL0     O61023   1.162   7.321  11.161  0.6086  0.1565 -0.1464
  453MOL0     C61024   1.222   7.435  11.204 -0.0545 -0.6858  0.5978
  453MOL0     C61025   1.221   7.466  11.340 -0.2441  0.8387  0.5329
  453MOL0     C61026   1.294   7.576  11.380 -0.5478  1.2775 -0.6673
  453MOL0     C61027   1.382   7.647  11.297 -0.6104  0.1135  0.0472
  453MOL0     O61028   1.470   7.749  11.339 -0.6320  0.3850 -0.4799
  453MOL0     C61029   1.607   7.696  11.357 -0.1102  0.0711  0.0476
  453MOL0     C61030   1.699   7.806  11.389 -0.6485 -0.5641  0.2418
  453MOL0     C61031   1.668   7.869  11.531 -0.3319  0.2171 -0.5269
  453MOL0     C61032   1.778   7.829  11.631 -0.3190 -0.2232 -0.6985
  453MOL0     C61033   1.936   7.854  11.600 -0.9785  1.0482 -0.6592
  453MOL0     C61034   1.961   8.006  11.618 -0.1315 -0.6200  0.1699
  453MOL0     C61035   2.110   8.045  11.607  0.9096  0.0722 -0.5654
  453MOL0     C61036   2.131   8.200  11.625  0.0907  0.7416  0.5394
  453MOL0     N61037   2.058   8.243  11.751 -0.0244  0.1249  0.2261
  453MOL0     C61038   1.944   8.309  11.743 -0.2410  0.0370  0.1546
  453MOL0     C61039   1.905   8.322  11.877 -0.9467 -0.4136  0.3000
  453MOL0     C61040   1.773   8.383  11.923  0.1347  0.8295  0.4045
  453MOL0     C61041   1.653   8.276  11.903  0.5827  0.7014 -0.1589
  453MOL0     C61042   1.627   8.215  11.756  0.0179 -0.5836 -0.0584
  453MOL0     C61043   1.507   8.128  11.757 -0.5589  0.0821  1.0815
  453MOL0     O61044   1.477   8.087  11.623  0.6656 -0.3903 -0.0594
  453MOL0     C61045   1.374   8.149  11.549 -0.0146 -0.5173 -0.3842
  453MOL0     C61046   1.342   8.088  11.431 -0.8701  0.3113 -1.1645
  453MOL0     C61047   1.249   8.139  11.347 -0.1296  0.0548 -0.5520
  453MOL0     C61048   1.229   8.060  11.223  0.5437  0.3527  0.3512
  453MOL0     C61049   1.191   8.262  11.374  0.2578  0.8633 -0.1812
  453MOL0     C61050   1.094   8.328  11.290 -0.1975 -0.4980 -0.0395
  453MOL0     O61051   1.062   8.270  11.165  0.2143  1.2919 -0.3867
  453MOL0     C61052   0.958   8.327  11.097  0.4423 -0.3133 -0.8487
  453MOL0     C61053   0.827   8.270  11.084  0.2564  0.2730 -0.5153
  453MOL0     C61054   0.728   8.345  11.023  0.5327  0.8996 -0.4762
  453MOL0     C61055   0.747   8.460  10.968  0.3928 -0.0093  0.5247
  453MOL0     O61056   0.654   8.526  10.898  0.2276 -0.5916 -0.5251
  453MOL0     C61057   0.655   8.475  10.763 -0.1501  0.7689  0.0282
  453MOL0     C61058   0.567   8.563  10.673 -0.1140  1.3090  0.3424
  453MOL0     C61059   0.420   8.545  10.715  0.2636 -0.4067 -0.0228
  453MOL0     C61060   0.328   8.628  10.608  0.3654  1.0660  1.0672
  453MOL0     C61061   0.389   8.761  10.565 -1.3896 -0.4428 -0.4377
  453MOL0     C61062   0.286   8.862  10.526  0.0518 -0.1426 -0.1530
  453MOL0     C61063   0.345   8.947  10.413  0.1495  0.3591  0.1855
  453MOL0     C61064   0.274   9.080  10.411  0.2719  0.0845 -0.2589
  453MOL0    Cl61065   0.090   9.080  10.433 -0.4383 -0.4765 -0.3368
  453MOL0     C61066   0.874   8.514  10.967  0.5205  0.3818  0.1125
  453MOL0     C61067   0.973   8.449  11.034 -0.0727 -1.0334  0.1252
  453MOL0     O61068   1.043   8.436  11.325 -0.1843  1.2249  0.6070
  453MOL0     C61069   1.223   8.327  11.495 -0.6782 -0.4873 -0.3802
  453MOL0     C61070   1.316   8.274  11.581  0.0612 -0.6309 -0.4013
  453MOL0     N61071   1.996   8.257  11.962 -0.5661  0.8504 -0.1676
  453MOL0     N61072   2.089   8.211  11.881  0.0621  0.8971  0.8200
  453MOL0     C61073   1.391   7.600  11.160 -0.5331  0.1468 -0.2008
  453MOL0     C61074   1.312   7.498  11.114  0.6781  0.5539  0.0905
  453MOL0     C61075   0.965   7.219  11.054  1.0604 -0.5644 -0.7707
  453MOL0     C61076   1.009   7.085  11.079 -0.1967 -0.4342 -0.0038
  453MOL0     C61077   0.928   6.976  11.043  0.4245  1.0008  0.1402
  453MOL0     C61078   0.813   6.992  10.965 -0.8167 -0.8861 -0.4741
  453MOL0     O61079   0.727   6.893  10.950  0.0204 -0.8030 -0.0843
  453MOL0     C61080   0.704   6.804  11.058  0.4436  0.4182  0.7836
  453MOL0     C61081   0.632   6.682  10.995  0.4196  0.0839  0.0900
  453MOL0     C61082   0.479   6.704  10.982  1.3555 -0.2819 -0.0424
  453MOL0     C61083   0.409   6.575  10.934 -0.9012  0.0746  0.1188
  453MOL0     C61084   0.273   6.616  10.888  0.0617  0.1457 -0.2408
  453MOL0     C61085   0.174   6.670  10.835 -0.5556 -0.2175 -0.9795
  453MOL0     C61086   0.787   7.115  10.927  0.2186 -0.4551 -0.5604
  453MOL0     C61087   0.844   7.235  10.971  0.4017 -0.5481  0.4329
  453MOL0     H61088   1.178   7.399  11.414  4.1147  2.1666  4.8946
  453MOL0     H61089   1.302   7.607  11.484 -0.5215 -2.3354  0.5463
  453MOL0     H61090   1.605   7.607  11.422  0.0811 -1.9952 -2.5829
  453MOL0     H61091   1.634   7.650  11.261 -2.7352  0.6564 -1.0744
  453MOL0     H61092   1.803   7.772  11.387 -1.4387 -3.2866  0.9416
  453MOL0     H61093   1.693   7.888  11.317  1.8191  0.1026  0.6809
  453MOL0     H61094   1.669   7.976  11.512  0.5556  0.3398  0.1427
  453MOL0     H61095   1.574   7.826  11.569 -3.7301  3.3132 -4.4659
  453MOL0     H61096   1.750   7.878  11.725 -0.2024 -1.6821  0.1294
  453MOL0     H61097   1.773   7.722  11.650 -0.5947  0.1164  1.3570
  453MOL0     H61098   1.995   7.799  11.674 -0.9554 -5.1635 -4.4913
  453MOL0     H61099   1.970   7.808  11.506 -0.1309 -1.6155  0.8617
  453MOL0     H61100   1.892   8.066  11.558  1.3327  4.2659  2.8016
  453MOL0     H61101   1.939   8.016  11.725  0.8908 -1.0008  0.4296
  453MOL0     H61102   2.171   7.999  11.685  2.5493  1.0629 -1.2113
  453MOL0     H61103   2.141   8.011  11.508 -0.2210  1.7503 -1.5511
  453MOL0     H61104   2.105   8.259  11.537 -0.3967 -2.7907 -1.9014
  453MOL0     H61105   2.238   8.221  11.632 -0.1654  1.6195  2.8283
  453MOL0     H61106   1.885   8.340  11.657 -4.0982 -1.1587  2.1149
  453MOL0     H61107   1.787   8.399  12.030 -0.5548 -0.7240  0.7563
  453MOL0     H61108   1.761   8.480  11.875  1.7031  1.2479  0.8081
  453MOL0     H61109   1.558   8.309  11.946 -0.6810 -3.0546  0.2364
  453MOL0     H61110   1.667   8.181  11.955 -0.2237 -1.0414 -2.9030
  453MOL0     H61111   1.705   8.149  11.718 -0.6168 -1.5565  0.3142
  453MOL0     H61112   1.609   8.291  11.679 -3.1373 -0.3338  0.7816
  453MOL0     H61113   1.428   8.181  11.811  1.3689 -1.9653  6.5922
  453MOL0     H61114   1.540   8.039  11.811 -1.5421 -0.0264  1.5253
  453MOL0     H61115   1.390   7.992  11.415  1.2552  0.5182  2.6730
  453MOL0     H61116   1.123   8.033  11.214  0.5595 -0.6634  2.5983
  453MOL0     H61117   1.283   8.100  11.137 -0.0754 -0.5693 -0.4921
  453MOL0     H61118   1.265   7.957  11.235 -1.4605 -0.4254  0.1488
  453MOL0     H61119   0.795   8.183  11.140 -4.3341 -0.7700 -4.1667
  453MOL0     H61120   0.629   8.301  11.027  1.0694 -0.2644  1.7629
  453MOL0     H61121   0.757   8.464  10.725  0.7534  4.0973  1.1283
  453MOL0     H61122   0.625   8.370  10.760  3.0858 -0.2840  0.0827
  453MOL0     H61123   0.605   8.665  10.686 -1.7770  1.9480  0.4844
  453MOL0     H61124   0.574   8.538  10.567 -0.8378  3.1097 -0.1732
  453MOL0     H61125   0.403   8.579  10.818  1.9877 -0.5901  0.3665
  453MOL0     H61126   0.377   8.445  10.714 -0.9892  0.1112  0.0522
  453MOL0     H61127   0.300   8.573  10.517 -2.8439  2.5652  0.9983
  453MOL0     H61128   0.230   8.643  10.654  0.0673  0.4411  0.6524
  453MOL0     H61129   0.467   8.739  10.492 -1.6705  2.6908 -1.8443
  453MOL0     H61130   0.451   8.801  10.646 -0.0577  0.2187 -1.7439
  453MOL0     H61131   0.194   8.813  10.492 -0.9374  1.4167  0.1344
  453MOL0     H61132   0.250   8.924  10.610  0.0402 -0.6537  0.2235
  453MOL0     H61133   0.336   8.906  10.312  3.3764  1.7437 -0.8035
  453MOL0     H61134   0.452   8.969  10.413  0.1129  1.1400 -3.3059
  453MOL0     H61135   0.308   9.142  10.328  0.4763 -0.7415 -0.8003
  453MOL0     H61136   0.304   9.143  10.496 -1.3830  2.4893 -1.3584
  453MOL0     H61137   0.877   8.606  10.909 -0.5708 -0.4009 -1.2361
  453MOL0     H61138   1.068   8.501  11.041 -1.9017  2.3125  2.7173
  453MOL0     H61139   1.179   8.425  11.513 -1.9965 -0.3027 -3.9322
  453MOL0     H61140   1.346   8.342  11.659 -2.1496  2.9962 -2.4402
  453MOL0     H61141   1.463   7.660  11.107  1.9851 -1.8815  0.7015
  453MOL0     H61142   1.309   7.458  11.013  0.7452  1.5729 -0.3230
  453MOL0     H61143   1.099   7.083  11.138  1.2801 -1.7984 -2.1718
  453MOL0     H61144   0.964   6.884  11.089  0.5526  0.5367 -0.8670
  453MOL0     H61145   0.805   6.776  11.092  2.0607  3.1904 -1.3488
  453MOL0     H61146   0.648   6.852  11.138 -2.3111  0.2712 -0.9091
  453MOL0     H61147   0.645   6.591  11.055 -1.9189 -2.7014 -3.2104
  453MOL0     H61148   0.655   6.644  10.896 -0.8319 -4.0261  1.1621
  453MOL0     H61149   0.463   6.784  10.909  2.9236  0.2199  0.1440
  453MOL0     H61150   0.433   6.745  11.073 -0.9192  0.5534 -1.4804
  453MOL0     H61151   0.412   6.504  11.017 -2.6763  3.6820  3.6284
  453MOL0     H61152   0.456   6.524  10.849 -1.2098 -0.0880  0.0434
  453MOL0     H61153   0.089   6.706  10.780 -0.0525  2.8351  0.0134
  453MOL0     H61154   0.705   7.131  10.857  3.1090  3.5292 -3.4698
  453MOL0     H61155   0.804   7.329  10.935 -0.0254 -0.7997  0.2373
  454MOL0     O61156   1.975   7.904   4.783  0.2802 -0.0543 -0.7880
  454MOL0     C61157   1.984   7.859   4.899  0.9200  0.4842 -0.0471
  454MOL0     O61158   1.980   7.721   4.932 -0.7170 -0.5647 -0.4880
  454MOL0     C61159   1.952   7.636   4.838 -0.2334  0.3313  0.1533
  454MOL0     C61160   2.018   7.627   4.719  0.5110 -0.0608 -0.1886
  454MOL0     C61161   1.970   7.541   4.614 -0.3827 -0.8167  0.3745
  454MOL0     C61162   1.847   7.477   4.616 -0.0098 -0.7364 -0.3821
  454MOL0     O61163   1.795   7.388   4.527 -0.9501 -0.2481 -0.2722
  454MOL0     C61164   1.823   7.408   4.392  0.2061 -0.1639 -0.7618
  454MOL0     C61165   1.785   7.302   4.292 -0.5980  0.5955  0.5437
  454MOL0     C61166   1.651   7.244   4.307  0.5524  0.0261  0.0709
  454MOL0     C61167   1.619   7.119   4.222 -0.7861 -0.6979  0.5118
  454MOL0     C61168   1.477   7.051   4.241  0.7103  0.0956 -0.7848
  454MOL0     C61169   1.464   6.932   4.142 -0.9397  0.2581 -1.1489
  454MOL0     C61170   1.327   6.847   4.130 -1.0897  0.0281  0.3126
  454MOL0     C61171   1.225   6.924   4.046 -0.3050  0.2666 -0.0522
  454MOL0     N61172   1.268   6.910   3.906  0.3154  1.0978  0.2487
  454MOL0     C61173   1.275   6.791   3.841 -0.5545  1.5369  1.2165
  454MOL0     C61174   1.323   6.833   3.717  0.7245 -0.4378  1.0177
  454MOL0     C61175   1.371   6.743   3.613  0.2057 -0.1185  1.2435
  454MOL0     C61176   1.525   6.740   3.593 -0.4731  0.0626 -0.2554
  454MOL0     C61177   1.596   6.710   3.715 -0.0830 -0.4639  0.5920
  454MOL0     C61178   1.659   6.835   3.781  0.5870  0.0334  0.2018
  454MOL0     O61179   1.680   6.812   3.926 -0.4825 -0.0269 -0.2688
  454MOL0     C61180   1.788   6.889   3.975 -0.3694  0.1250  0.5250
  454MOL0     C61181   1.899   6.814   4.031  0.8590 -1.1003 -1.0305
  454MOL0     C61182   2.010   6.888   4.068 -1.0767  0.0851 -0.7281
  454MOL0     C61183   2.131   6.814   4.121 -0.0329  0.9668  0.3648
  454MOL0     C61184   2.016   7.034   4.054  0.1545  0.0024  0.2227
  454MOL0     C61185   2.136   7.121   4.081  0.9375  0.0452  0.4496
  454MOL0     O61186   2.113   7.246   4.127  0.1837 -0.7958  0.0752
  454MOL0     C61187   2.222   7.325   4.149 -1.0616 -0.0578  0.1507
  454MOL0     C61188   2.269   7.414   4.049 -0.2057  0.7955  0.1406
  454MOL0     C61189   2.401   7.468   4.070 -0.8846  0.2892  0.3180
  454MOL0     C61190   2.481   7.442   4.179  0.3557  0.8763 -0.8300
  454MOL0     O61191   2.604   7.502   4.193 -0.3698 -0.2711  0.5116
  454MOL0     C61192   2.633   7.544   4.326  0.0518 -0.3174  0.4556
  454MOL0     C61193   2.726   7.664   4.317  1.2155  0.9387  0.4863
  454MOL0     C61194   2.854   7.630   4.246  0.7615 -0.7187  0.5313
  454MOL0     C61195   2.965   7.732   4.278 -0.0053  0.2814  0.0374
  454MOL0     C61196   3.098   7.680   4.229 -0.0767 -0.0549  1.0373
  454MOL0     C61197   3.221   7.763   4.271 -0.2144 -0.3076  0.3292
  454MOL0     C61198   3.351   7.714   4.203  0.4864  0.9226  0.8117
  454MOL0     C61199   3.341   7.741   4.048 -0.0492  0.1835  0.4032
  454MOL0    Cl61200   3.499   7.730   3.991  0.7247  0.3881 -0.0014
  454MOL0     C61201   2.433   7.351   4.271  0.5765  0.9277 -0.4867
  454MOL0     C61202   2.308   7.291   4.255 -0.8000 -0.7184 -0.8897
  454MOL0     O61203   2.243   7.063   4.077  0.8577  0.3857  0.1944
  454MOL0     C61204   1.901   7.099   4.017  0.0232 -0.6961 -0.5605
  454MOL0     C61205   1.796   7.029   3.960 -0.5232 -0.0299  0.7182
  454MOL0     N61206   1.314   6.973   3.702 -0.0849  0.2850 -0.3479
  454MOL0     N61207   1.283   7.016   3.823 -0.3452  0.2152  1.2811
  454MOL0     C61208   1.773   7.493   4.738 -0.0871  0.5131 -0.2080
  454MOL0     C61209   1.829   7.561   4.849  0.1240 -0.1545  0.1423
  454MOL0     C61210   1.988   7.957   5.008  0.0778  0.5272 -0.3345
  454MOL0     C61211   1.959   7.930   5.148 -0.1223  0.7201  0.7081
  454MOL0     C61212   1.965   8.031   5.247 -0.3653  0.5562 -1.1983
  454MOL0     C61213   2.020   8.155   5.222 -0.5409  0.2721 -0.5002
  454MOL0     O61214   2.039   8.257   5.313 -1.0163 -0.7209  0.1519
  454MOL0     C61215   2.053   8.222   5.445  0.2485  0.5249 -0.5100
  454MOL0     C61216   2.187   8.166   5.487  0.2597  0.1343  0.1996
  454MOL0     C61217   2.302   8.260   5.453  0.0230  0.2547  0.5507
  454MOL0     C61218   2.431   8.210   5.523 -0.4294  0.7267 -0.7255
  454MOL0     C61219   2.513   8.315   5.584  0.2664  0.9721 -0.6652
  454MOL0     C61220   2.579   8.394   5.652  1.7272 -1.1575  0.0438
  454MOL0     C61221   2.062   8.178   5.093 -0.1710 -0.1411 -0.2307
  454MOL0     C61222   2.051   8.081   4.986  0.3684 -0.0397  0.1521
  454MOL0     H61223   2.115   7.672   4.703  0.8231 -1.4802 -2.9445
  454MOL0     H61224   2.023   7.520   4.522  0.5569 -2.0454  1.1673
  454MOL0     H61225   1.759   7.494   4.371 -3.1979 -2.0766  1.0441
  454MOL0     H61226   1.931   7.426   4.381  0.6089 -0.1376  2.3730
  454MOL0     H61227   1.796   7.340   4.190 -0.8425 -1.3717 -0.2587
  454MOL0     H61228   1.853   7.216   4.296 -0.8486  0.4142  0.9276
  454MOL0     H61229   1.631   7.216   4.411 -2.6371  0.3652 -0.3386
  454MOL0     H61230   1.569   7.313   4.285 -0.3801 -1.2265 -0.5651
  454MOL0     H61231   1.629   7.143   4.116 -1.8850  0.7406  0.7050
  454MOL0     H61232   1.697   7.045   4.241  1.1567  0.8601 -1.0255
  454MOL0     H61233   1.481   7.014   4.344 -1.8313 -0.3341 -0.7607
  454MOL0     H61234   1.397   7.124   4.226  0.6845 -0.0528 -1.3886
  454MOL0     H61235   1.497   6.961   4.042 -3.0711  2.1650 -1.3829
  454MOL0     H61236   1.545   6.869   4.181 -0.4764 -0.3471 -3.0067
  454MOL0     H61237   1.357   6.750   4.092 -0.8477  1.0829 -2.3827
  454MOL0     H61238   1.284   6.831   4.229  0.8174 -0.7854  1.0478
  454MOL0     H61239   1.229   7.027   4.085  3.6663 -0.3038  1.5916
  454MOL0     H61240   1.129   6.873   4.054  0.2858 -1.0670 -1.0302
  454MOL0     H61241   1.270   6.692   3.884  4.7186  1.0585  1.3168
  454MOL0     H61242   1.331   6.644   3.639 -1.1812  0.5405  1.7110
  454MOL0     H61243   1.310   6.770   3.526 -1.2465 -1.1591  1.8899
  454MOL0     H61244   1.572   6.830   3.553 -0.4398  0.0263 -0.2975
  454MOL0     H61245   1.536   6.659   3.521 -0.4873 -0.3167  0.1655
  454MOL0     H61246   1.678   6.642   3.691  0.7184 -0.0685  2.1324
  454MOL0     H61247   1.538   6.639   3.775 -0.6933 -2.4297 -2.1055
  454MOL0     H61248   1.594   6.923   3.778  0.1592 -0.0816  2.9749
  454MOL0     H61249   1.751   6.856   3.727  0.1712 -0.2069 -0.6191
  454MOL0     H61250   1.908   6.707   4.048  1.5906 -1.3755 -2.8960
  454MOL0     H61251   2.118   6.710   4.153  4.5946  0.7161  2.2054
  454MOL0     H61252   2.214   6.805   4.051  2.4020 -3.6510  3.3590
  454MOL0     H61253   2.176   6.865   4.207 -0.9641 -1.7484  2.6110
  454MOL0     H61254   2.210   7.449   3.964 -0.8346 -2.6436 -0.9870
  454MOL0     H61255   2.442   7.530   3.992 -4.1144 -1.0530 -2.7364
  454MOL0     H61256   2.551   7.577   4.390  0.6073  0.4582  0.7778
  454MOL0     H61257   2.668   7.456   4.382  0.7589  0.5879  1.4785
  454MOL0     H61258   2.665   7.732   4.256  3.5977  0.2844 -2.9024
  454MOL0     H61259   2.741   7.705   4.418  1.1827  2.3400 -0.0532
  454MOL0     H61260   2.838   7.613   4.139 -2.0368 -3.5816  1.2360
  454MOL0     H61261   2.880   7.528   4.277 -0.2270 -0.5546  1.9720
  454MOL0     H61262   2.942   7.836   4.255 -3.0750  0.9638  4.8332
  454MOL0     H61263   2.978   7.733   4.387  0.8356  3.0200 -0.0276
  454MOL0     H61264   3.089   7.670   4.120 -1.6737 -1.8867  1.2704
  454MOL0     H61265   3.110   7.577   4.263 -0.7124  0.3443  2.5326
  454MOL0     H61266   3.217   7.872   4.265 -0.5886 -0.3758 -1.1965
  454MOL0     H61267   3.239   7.739   4.376  3.2649  0.2159 -0.0515
  454MOL0     H61268   3.353   7.607   4.227 -3.5763  0.8031  1.3299
  454MOL0     H61269   3.436   7.768   4.245  1.5785  2.2916 -2.7712
  454MOL0     H61270   3.303   7.843   4.033 -1.7253 -0.1120  2.1305
  454MOL0     H61271   3.274   7.663   4.011  3.0056 -3.0921  1.2389
  454MOL0     H61272   2.490   7.316   4.357 -2.9195  2.2805  2.6363
  454MOL0     H61273   2.271   7.223   4.331 -5.7096  2.6394  0.2649
  454MOL0     H61274   1.900   7.207   4.017 -1.2604 -0.6901 -1.4379
  454MOL0     H61275   1.713   7.082   3.914  0.0736 -0.6229 -1.1413
  454MOL0     H61276   1.673   7.453   4.729  0.5005 -0.8400 -1.0310
  454MOL0     H61277   1.772   7.549   4.940  0.3846 -1.7914  0.1312
  454MOL0     H61278   1.909   7.839   5.180 -1.7694  1.9769  1.8730
  454MOL0     H61279   1.929   8.007   5.347  1.8387  0.5223 -0.3465
  454MOL0     H61280   2.046   8.324   5.484 -0.5436  0.8839 -1.5242
  454MOL0     H61281   1.967   8.177   5.496  0.9516 -0.6884 -0.3789
  454MOL0     H61282   2.200   8.079   5.423 -1.7737 -0.7582  0.9430
  454MOL0     H61283   2.186   8.139   5.593 -0.1772 -0.8653 -0.0513
  454MOL0     H61284   2.279   8.357   5.499 -1.1205  0.5259 -0.5201
  454MOL0     H61285   2.326   8.265   5.346 -3.0718 -0.3883 -0.2711
  454MOL0     H61286   2.486   8.152   5.448  0.1278 -2.5432  1.9464
  454MOL0     H61287   2.419   8.132   5.600  2.2476  0.9015 -0.0225
  454MOL0     H61288   2.594   8.479   5.716 -2.6704 -0.8666  0.9557
  454MOL0     H61289   2.114   8.271   5.072  1.4088 -0.6903  1.0365
  454MOL0     H61290   2.094   8.111   4.891 -2.3786  1.9232 -0.5984
  455MOL0     O61291   5.063   6.207   6.501 -0.3984  0.8590  0.2593
  455MOL0     C61292   4.983   6.140   6.433 -0.5952  0.7588 -0.9075
  455MOL0     O61293   4.843   6.141   6.447 -0.7527 -0.4908 -0.3303
  455MOL0     C61294   4.782   6.230   6.528 -0.2955  0.2389 -0.0012
  455MOL0     C61295   4.799   6.363   6.509  0.1491 -1.1054 -0.1915
  455MOL0     C61296   4.732   6.464   6.587  0.1948 -1.2809  0.1377
  455MOL0     C61297   4.669   6.423   6.701 -0.0344  0.0328 -0.1715
  455MOL0     O61298   4.636   6.521   6.801 -0.2445  0.4246 -0.8355
  455MOL0     C61299   4.662   6.477   6.938 -0.6601  0.1758  0.0068
  455MOL0     C61300   4.697   6.588   7.039 -0.5704  0.4199  0.1713
  455MOL0     C61301   4.570   6.675   7.085  0.1818  0.1108  0.6216
  455MOL0     C61302   4.534   6.789   6.987  0.1443  0.4785  0.0811
  455MOL0     C61303   4.400   6.855   7.036  0.2402  0.3884 -0.1459
  455MOL0     C61304   4.287   6.797   6.955 -0.8903 -0.0923 -0.3338
  455MOL0     C61305   4.267   6.875   6.821 -0.1823  0.3999 -0.1695
  455MOL0     C61306   4.121   6.858   6.771 -0.3148 -0.4754 -0.6938
  455MOL0     N61307   4.104   6.866   6.628  0.3951  0.4264 -0.0818
  455MOL0     C61308   4.032   6.776   6.547 -0.2417  0.4852  1.0810
  455MOL0     C61309   4.034   6.806   6.411 -1.2877  0.1475 -0.1058
  455MOL0     C61310   3.989   6.730   6.289  1.2959 -0.1375 -0.1088
  455MOL0     C61311   4.026   6.581   6.298  0.2364 -0.4480  0.0525
  455MOL0     C61312   3.970   6.498   6.190  0.5134 -1.0511  0.6600
  455MOL0     C61313   4.028   6.532   6.048 -0.4652  0.0399 -1.5979
  455MOL0     O61314   3.951   6.470   5.947  0.5347  0.1341 -0.1273
  455MOL0     C61315   4.025   6.419   5.847 -0.0933  0.2252  1.3646
  455MOL0     C61316   4.111   6.492   5.777 -0.5646 -0.0907  0.0813
  455MOL0     C61317   4.198   6.436   5.675  0.8943 -0.0272 -0.1600
  455MOL0     C61318   4.270   6.548   5.601  0.0550  0.2625  0.4092
  455MOL0     C61319   4.176   6.302   5.637 -0.7674  0.9465 -0.2275
  455MOL0     C61320   4.269   6.225   5.547 -1.1944 -0.1728  0.3627
  455MOL0     O61321   4.235   6.099   5.512  0.0870  0.6642 -0.2578
  455MOL0     C61322   4.292   6.023   5.418  0.1512 -0.3925  0.3762
  455MOL0     C61323   4.200   5.954   5.334  0.3112 -0.3387 -0.1701
  455MOL0     C61324   4.249   5.865   5.237 -0.3874  0.8692  0.2933
  455MOL0     C61325   4.378   5.825   5.245 -0.0362 -0.0594 -0.3768
  455MOL0     O61326   4.430   5.726   5.168  0.2471  0.3542  0.5604
  455MOL0     C61327   4.442   5.601   5.236  0.5805  0.7731  0.1834
  455MOL0     C61328   4.515   5.509   5.135 -0.1495 -0.4683  0.3434
  455MOL0     C61329   4.660   5.542   5.134  0.5778 -0.7779  0.4123
  455MOL0     C61330   4.739   5.455   5.232 -0.2080  0.2399 -0.1431
  455MOL0     C61331   4.887   5.484   5.247 -0.4553  0.2939  0.3375
  455MOL0     C61332   4.912   5.637   5.269 -0.7025 -0.4650  0.3574
  455MOL0     C61333   5.057   5.690   5.288  0.8371  0.9501 -0.9333
  455MOL0     C61334   5.099   5.774   5.174  0.3808 -0.1753 -0.4807
  455MOL0    Cl61335   5.280   5.787   5.153  0.5833 -0.3097  0.2574
  455MOL0     C61336   4.466   5.888   5.333 -0.5865  0.7441 -0.0893
  455MOL0     C61337   4.425   5.984   5.417  0.4489  0.0490 -0.4982
  455MOL0     O61338   4.368   6.289   5.506 -0.3994  0.6019 -0.0479
  455MOL0     C61339   4.084   6.224   5.700 -0.4273 -0.6405 -0.4070
  455MOL0     C61340   4.021   6.279   5.812  0.4361  0.0258 -0.6643
  455MOL0     N61341   4.120   6.919   6.410 -0.3901  0.1275 -0.3130
  455MOL0     N61342   4.165   6.952   6.529  0.4132  0.5698  0.6165
  455MOL0     C61343   4.657   6.287   6.726 -0.4100  0.5109  0.4454
  455MOL0     C61344   4.701   6.194   6.632  0.4285 -0.1868 -0.1830
  455MOL0     C61345   5.037   6.047   6.331  0.3419 -0.4909 -0.0517
  455MOL0     C61346   4.958   5.971   6.235 -0.0604  0.0876 -0.0922
  455MOL0     C61347   5.020   5.887   6.134 -0.2943 -0.1358  0.0801
  455MOL0     C61348   5.156   5.873   6.128 -0.1890 -0.3419 -0.2788
  455MOL0     O61349   5.196   5.786   6.028 -0.2571  0.6636 -0.1187
  455MOL0     C61350   5.335   5.755   5.997  0.4751 -0.2211 -0.0219
  455MOL0     C61351   5.340   5.680   5.859  0.6620 -0.4386  0.7815
  455MOL0     C61352   5.312   5.535   5.890 -0.2577  1.7192 -0.3566
  455MOL0     C61353   5.370   5.438   5.786  0.1138 -0.1285  0.1501
  455MOL0     C61354   5.511   5.424   5.776 -0.2096 -0.5241 -0.7200
  455MOL0     C61355   5.635   5.430   5.763  0.2427  1.0760 -0.3240
  455MOL0     C61356   5.232   5.935   6.232  0.6426 -0.7763  0.7784
  455MOL0     C61357   5.175   6.008   6.339  0.8243  0.0720  0.1297
  455MOL0     H61358   4.856   6.413   6.431  0.5328 -1.9163 -0.4382
  455MOL0     H61359   4.761   6.568   6.575  3.6814 -2.1305  0.0855
  455MOL0     H61360   4.573   6.423   6.972 -0.8735 -0.0979 -0.9640
  455MOL0     H61361   4.751   6.413   6.927 -0.2376  1.0573 -2.3321
  455MOL0     H61362   4.748   6.550   7.127  1.5044  2.5375 -0.0265
  455MOL0     H61363   4.756   6.667   6.992  0.4519 -1.1834 -1.3627
  455MOL0     H61364   4.481   6.611   7.088 -2.1830  3.2270  2.3682
  455MOL0     H61365   4.601   6.707   7.185  0.9485 -0.3761  0.5497
  455MOL0     H61366   4.614   6.862   6.973  5.8653 -4.8827  0.5358
  455MOL0     H61367   4.521   6.741   6.889 -1.6891  0.5312  0.2598
  455MOL0     H61368   4.377   6.822   7.138 -4.6004 -1.4960 -1.5530
  455MOL0     H61369   4.403   6.964   7.024 -0.3923  0.2848 -1.4292
  455MOL0     H61370   4.296   6.690   6.935 -1.0758 -0.4605  1.3952
  455MOL0     H61371   4.196   6.826   7.009 -1.8444  1.3793 -2.5996
  455MOL0     H61372   4.307   6.976   6.835  3.7539 -1.1105  0.8207
  455MOL0     H61373   4.330   6.822   6.750  1.0396  2.3143 -0.5897
  455MOL0     H61374   4.056   6.918   6.836  1.1344 -1.6802  2.0648
  455MOL0     H61375   4.102   6.754   6.797 -1.6694 -0.0875 -0.0310
  455MOL0     H61376   3.987   6.681   6.574  0.9298 -0.0192  1.2822
  455MOL0     H61377   3.880   6.720   6.289  1.2744  0.0907 -0.2197
  455MOL0     H61378   4.018   6.776   6.194 -3.9353 -0.0070 -1.9655
  455MOL0     H61379   3.990   6.537   6.392 -1.3602  0.1137 -0.2612
  455MOL0     H61380   4.134   6.568   6.290  0.0865 -1.4750 -0.5585
  455MOL0     H61381   3.861   6.502   6.201  0.1820  0.2336 -2.2637
  455MOL0     H61382   4.003   6.394   6.198  0.2115 -1.3543 -1.5292
  455MOL0     H61383   4.135   6.510   6.045  0.0743  2.3081 -1.1434
  455MOL0     H61384   4.019   6.641   6.043  2.0941  0.4282  0.3723
  455MOL0     H61385   4.136   6.593   5.808  2.7940 -0.6010 -0.6450
  455MOL0     H61386   4.225   6.646   5.618  0.4533  0.9667 -2.1568
  455MOL0     H61387   4.376   6.548   5.630 -0.0893 -3.1891  1.3730
  455MOL0     H61388   4.260   6.518   5.496 -1.3433 -2.4763  1.2446
  455MOL0     H61389   4.094   5.963   5.353  0.1235  1.1685 -1.6879
  455MOL0     H61390   4.182   5.817   5.166  1.4511 -1.2851 -0.0721
  455MOL0     H61391   4.502   5.611   5.327 -0.5125  0.5559  0.9449
  455MOL0     H61392   4.339   5.568   5.253  0.1928  0.5734 -2.1353
  455MOL0     H61393   4.512   5.400   5.146  0.6715 -0.5434 -0.1765
  455MOL0     H61394   4.472   5.539   5.039 -1.9437 -0.1708  1.1767
  455MOL0     H61395   4.672   5.647   5.160  1.6430 -0.6650 -0.4668
  455MOL0     H61396   4.696   5.532   5.031  0.1883  0.1774  0.1740
  455MOL0     H61397   4.699   5.468   5.333 -0.6671 -0.3879 -0.2381
  455MOL0     H61398   4.735   5.352   5.195  0.6974  0.2626 -0.3247
  455MOL0     H61399   4.927   5.447   5.152  1.3298  3.6776 -0.3983
  455MOL0     H61400   4.935   5.426   5.326 -0.3703  1.3508  1.0833
  455MOL0     H61401   4.873   5.690   5.181 -2.7611 -2.5601 -0.0989
  455MOL0     H61402   4.869   5.679   5.360  1.7605  1.3615  0.7950
  455MOL0     H61403   5.118   5.599   5.293  0.4368  0.7212  0.4445
  455MOL0     H61404   5.070   5.737   5.386 -2.0346 -1.1618  0.6268
  455MOL0     H61405   5.048   5.869   5.192 -2.4086 -1.8522  1.2264
  455MOL0     H61406   5.065   5.725   5.082  2.1124 -2.6939  0.1298
  455MOL0     H61407   4.567   5.852   5.344 -1.2089 -0.3794  2.7869
  455MOL0     H61408   4.493   6.035   5.485  1.2774 -1.5306 -0.0980
  455MOL0     H61409   4.080   6.119   5.671 -0.0638 -0.0599 -2.8232
  455MOL0     H61410   3.945   6.221   5.864  0.1580  2.1967  1.5070
  455MOL0     H61411   4.614   6.247   6.817 -0.7563  1.2197  0.5974
  455MOL0     H61412   4.685   6.088   6.645 -1.2891  0.2036  1.2423
  455MOL0     H61413   4.849   5.974   6.234 -0.4754  0.1261  6.0655
  455MOL0     H61414   4.957   5.832   6.064  1.2224  0.8949 -2.2381
  455MOL0     H61415   5.408   5.837   5.996  0.5448 -0.2171  1.7073
  455MOL0     H61416   5.369   5.698   6.084  0.4260  0.8709  0.7353
  455MOL0     H61417   5.439   5.692   5.816  0.9362 -0.6006  1.3550
  455MOL0     H61418   5.262   5.725   5.796 -1.2707  1.0384  3.9604
  455MOL0     H61419   5.206   5.513   5.907  0.0658  1.1698  1.1132
  455MOL0     H61420   5.361   5.511   5.985 -0.6206 -2.5080 -1.0210
  455MOL0     H61421   5.337   5.477   5.689  2.8241  0.0577 -0.7867
  455MOL0     H61422   5.331   5.336   5.799 -1.3208  0.0339 -2.3335
  455MOL0     H61423   5.742   5.442   5.765  0.0866  3.5154 -1.6642
  455MOL0     H61424   5.340   5.928   6.233  0.6905 -0.3009  2.4677
  455MOL0     H61425   5.227   6.044   6.427 -1.0404 -2.4071  2.4017
  456MOL0     O61426  11.063   4.004   7.127  0.0123 -0.0714 -0.3993
  456MOL0     C61427  10.990   4.082   7.186 -0.9880  0.2858 -0.1775
  456MOL0     O61428  10.943   4.195   7.133  0.3415  0.0861 -0.4208
  456MOL0     C61429  10.903   4.195   6.997  0.2715 -0.8402 -0.7446
  456MOL0     C61430  10.890   4.332   6.948  0.1307  1.4707 -0.2217
  456MOL0     C61431  10.876   4.351   6.805  0.5523  0.8131 -0.3486
  456MOL0     C61432  10.856   4.244   6.720 -1.3021  0.1221  0.5972
  456MOL0     O61433  10.823   4.258   6.592 -0.2234  0.2727  0.3935
  456MOL0     C61434  10.838   4.383   6.514 -0.0596  0.7551  0.7896
  456MOL0     C61435  10.700   4.462   6.519 -0.5569 -0.1820 -0.3609
  456MOL0     C61436  10.707   4.596   6.456  0.3720 -0.5437 -0.6544
  456MOL0     C61437  10.784   4.706   6.526 -0.2056 -1.0728 -0.1681
  456MOL0     C61438  10.925   4.747   6.475 -0.5082 -0.1953 -0.2005
  456MOL0     C61439  11.043   4.732   6.584 -0.2677  0.1707  0.0492
  456MOL0     C61440  11.026   4.836   6.697 -0.7659 -0.2819  0.1070
  456MOL0     C61441  11.155   4.846   6.774 -0.0547 -0.6210 -0.0748
  456MOL0     N61442  11.141   4.764   6.895 -0.3992  0.6932  0.8145
  456MOL0     C61443  11.165   4.631   6.897 -0.3159 -0.7355 -0.3406
  456MOL0     C61444  11.172   4.592   7.020  0.6109  1.0327 -0.2916
  456MOL0     C61445  11.220   4.458   7.078 -0.0856  0.0137  0.1829
  456MOL0     C61446  11.342   4.490   7.159 -0.3856  0.3178 -0.4399
  456MOL0     C61447  11.303   4.508   7.309 -0.0527 -0.0045  0.1076
  456MOL0     C61448  11.412   4.559   7.408 -0.0546  0.6356  0.5116
  456MOL0     O61449  11.498   4.439   7.430 -0.4789 -0.5012 -0.4738
  456MOL0     C61450  11.479   4.358   7.544  0.5236  0.1170 -0.4234
  456MOL0     C61451  11.398   4.245   7.540  0.8414  0.1446 -0.0147
  456MOL0     C61452  11.377   4.168   7.661 -0.4742 -0.4693 -0.2347
  456MOL0     C61453  11.277   4.050   7.641  0.1116  0.5292  0.0284
  456MOL0     C61454  11.432   4.212   7.784  0.3135  0.6109  0.2607
  456MOL0     C61455  11.425   4.123   7.907 -0.4554  0.0516 -0.5970
  456MOL0     O61456  11.404   4.195   8.021  0.2532 -0.3372  0.3447
  456MOL0     C61457  11.386   4.139   8.141  0.6251  0.2888  0.6750
  456MOL0     C61458  11.477   4.054   8.200  0.6462  0.3220  0.4055
  456MOL0     C61459  11.448   3.997   8.329 -0.6959  0.8887 -0.9637
  456MOL0     C61460  11.323   4.015   8.389 -0.6324 -0.0639 -0.5703
  456MOL0     O61461  11.286   3.954   8.504 -0.3348 -0.2640  0.0191
  456MOL0     C61462  11.221   3.832   8.470  0.7640 -1.0628 -1.3369
  456MOL0     C61463  11.160   3.762   8.595 -1.3496  0.0452 -0.2608
  456MOL0     C61464  11.269   3.738   8.700  0.3609 -0.1819  0.2398
  456MOL0     C61465  11.380   3.651   8.652  0.8168 -1.0996  0.7913
  456MOL0     C61466  11.483   3.619   8.761 -0.0885 -0.8242 -1.4288
  456MOL0     C61467  11.581   3.509   8.732 -0.4452  0.3070  0.5609
  456MOL0     C61468  11.671   3.519   8.608  0.1547  0.0393  0.5053
  456MOL0     C61469  11.790   3.618   8.635  0.4484  0.2910 -0.6683
  456MOL0    Cl61470  11.872   3.566   8.785 -0.3725  0.3566  0.0422
  456MOL0     C61471  11.246   4.120   8.336 -0.4131 -0.4048 -0.8183
  456MOL0     C61472  11.278   4.188   8.221 -0.3041  0.4712  0.5559
  456MOL0     O61473  11.426   3.998   7.902  0.4474 -0.2216 -0.6499
  456MOL0     C61474  11.514   4.335   7.790  0.4270  1.3346 -0.5070
  456MOL0     C61475  11.538   4.407   7.665 -0.2437  0.2388  0.2327
  456MOL0     N61476  11.139   4.707   7.093  0.9471 -0.3614 -0.1704
  456MOL0     N61477  11.100   4.803   7.014 -1.5242 -0.0810 -1.0337
  456MOL0     C61478  10.861   4.116   6.783  0.3526  0.2130  0.4193
  456MOL0     C61479  10.884   4.087   6.917 -0.2149 -1.1605  0.2907
  456MOL0     C61480  10.955   4.038   7.322  0.1725  0.2357  0.7282
  456MOL0     C61481  10.854   4.103   7.396  0.2771  0.4859 -0.9171
  456MOL0     C61482  10.826   4.062   7.533 -0.7527  0.0772  0.4183
  456MOL0     C61483  10.892   3.959   7.600 -0.2284 -0.3166  0.2565
  456MOL0     O61484  10.857   3.937   7.731 -0.1351  0.2734  0.1355
  456MOL0     C61485  10.934   3.871   7.826 -0.0445 -0.0243  0.5926
  456MOL0     C61486  10.902   3.918   7.970 -0.4729  0.0179  0.7543
  456MOL0     C61487  10.993   4.032   8.010  0.1767  0.0440 -1.2294
  456MOL0     C61488  10.912   4.117   8.115 -0.2803  0.2159  0.4018
  456MOL0     C61489  10.887   4.029   8.229 -1.2169 -0.8063  0.5992
  456MOL0     C61490  10.875   3.952   8.317 -0.0461 -0.2455  0.4318
  456MOL0     C61491  10.988   3.899   7.524 -0.6236 -0.2137 -0.0466
  456MOL0     C61492  11.017   3.929   7.384  0.2608  0.3384  0.0551
  456MOL0     H61493  10.905   4.411   7.020  2.9902 -2.1825  3.7306
  456MOL0     H61494  10.859   4.451   6.764  4.2105  0.8280 -2.2986
  456MOL0     H61495  10.921   4.436   6.562  0.1987 -0.3186  1.5699
  456MOL0     H61496  10.870   4.355   6.414 -1.3183  0.3163  0.4988
  456MOL0     H61497  10.626   4.407   6.461  0.4174 -3.2203  1.0822
  456MOL0     H61498  10.652   4.473   6.616  0.7320 -2.5444  0.6242
  456MOL0     H61499  10.743   4.581   6.353 -0.4347 -1.4273 -0.8200
  456MOL0     H61500  10.606   4.637   6.451  0.7830  0.4492 -1.3847
  456MOL0     H61501  10.709   4.786   6.531 -1.2634 -2.0906  1.7368
  456MOL0     H61502  10.806   4.679   6.630  1.4059  4.0492  1.1111
  456MOL0     H61503  10.943   4.680   6.391  0.2499 -1.5690  1.0221
  456MOL0     H61504  10.925   4.854   6.451 -0.1410  0.2690  1.6910
  456MOL0     H61505  11.039   4.630   6.625  2.7801 -0.4508 -0.9503
  456MOL0     H61506  11.145   4.731   6.543  1.1725 -0.7412  3.3014
  456MOL0     H61507  11.012   4.937   6.657 -0.4175  0.6224  2.1230
  456MOL0     H61508  10.940   4.812   6.760 -0.4427  2.2136  1.6403
  456MOL0     H61509  11.167   4.949   6.809 -1.0732 -0.5282  0.0447
  456MOL0     H61510  11.239   4.823   6.707 -0.0791  1.5436 -0.9533
  456MOL0     H61511  11.190   4.569   6.811 -2.0987 -0.6089 -0.9765
  456MOL0     H61512  11.138   4.421   7.139  1.9808 -1.5540  2.1688
  456MOL0     H61513  11.260   4.383   7.009  1.6325  2.1226 -1.2445
  456MOL0     H61514  11.399   4.576   7.123  0.9029 -0.0024  0.7086
  456MOL0     H61515  11.408   4.403   7.165 -0.6330  0.2047  1.0141
  456MOL0     H61516  11.261   4.416   7.351  1.2851 -0.9807 -0.6085
  456MOL0     H61517  11.229   4.587   7.326 -0.7654 -0.0949 -2.1895
  456MOL0     H61518  11.362   4.590   7.499  1.9060  0.5049  1.6993
  456MOL0     H61519  11.462   4.645   7.362 -1.3764  0.7406 -0.8109
  456MOL0     H61520  11.355   4.216   7.445  0.5542  3.1683 -0.9286
  456MOL0     H61521  11.201   4.104   7.585 -0.0598  0.0900 -0.1727
  456MOL0     H61522  11.309   3.965   7.580 -0.8526  0.3857 -0.3025
  456MOL0     H61523  11.238   4.012   7.736 -0.0449  2.1130  0.6200
  456MOL0     H61524  11.563   4.028   8.140 -0.2794 -0.7250 -0.5152
  456MOL0     H61525  11.521   3.928   8.370 -2.4393 -0.9949 -0.8472
  456MOL0     H61526  11.139   3.844   8.399  1.8253  0.9227 -2.3165
  456MOL0     H61527  11.283   3.768   8.407  1.3545  1.6379 -3.6843
  456MOL0     H61528  11.082   3.828   8.635 -5.1563 -3.1931 -1.6058
  456MOL0     H61529  11.096   3.674   8.582 -0.8100 -0.7739  2.1271
  456MOL0     H61530  11.215   3.682   8.777  1.6064 -5.5252 -2.2763
  456MOL0     H61531  11.307   3.834   8.736  0.3992 -0.8794  2.1716
  456MOL0     H61532  11.335   3.552   8.637 -0.5487 -0.2229 -1.3429
  456MOL0     H61533  11.436   3.698   8.571  0.8368 -0.1638  1.3297
  456MOL0     H61534  11.430   3.598   8.855 -2.9570  0.2674 -2.7193
  456MOL0     H61535  11.536   3.712   8.785  2.0768 -2.4385  0.6384
  456MOL0     H61536  11.638   3.483   8.822  0.1033  0.9688  0.4077
  456MOL0     H61537  11.520   3.421   8.711 -0.8801  0.7282  0.0126
  456MOL0     H61538  11.602   3.551   8.529 -0.1809 -0.6841  0.4970
  456MOL0     H61539  11.709   3.418   8.593 -2.7858 -1.1383  0.2287
  456MOL0     H61540  11.748   3.713   8.670 -0.7964 -0.9923  1.5704
  456MOL0     H61541  11.861   3.626   8.552  0.9877  0.6166 -0.1799
  456MOL0     H61542  11.150   4.147   8.379 -1.0968 -0.6931 -2.1293
  456MOL0     H61543  11.217   4.270   8.184 -0.8615 -0.6078 -1.0281
  456MOL0     H61544  11.571   4.372   7.875 -0.7154  2.4567 -0.1930
  456MOL0     H61545  11.609   4.489   7.667  0.2713 -0.2075  0.5410
  456MOL0     H61546  10.843   4.028   6.721  0.5793  1.6264 -1.7432
  456MOL0     H61547  10.889   3.985   6.952 -1.1970 -1.3161  0.0032
  456MOL0     H61548  10.784   4.177   7.356  4.1269  4.4002 -1.1994
  456MOL0     H61549  10.752   4.117   7.592 -0.5443 -0.9171  1.6586
  456MOL0     H61550  10.901   3.766   7.822  2.3876 -0.9270  2.0846
  456MOL0     H61551  11.040   3.883   7.801 -0.9642  3.3870 -2.4294
  456MOL0     H61552  10.924   3.828   8.027 -0.5550 -0.2808  0.3163
  456MOL0     H61553  10.800   3.957   7.971 -0.0515  1.2199 -0.2092
  456MOL0     H61554  11.026   4.088   7.922  0.7475  1.2484 -0.2857
  456MOL0     H61555  11.084   3.998   8.060 -0.0848  4.3584  2.8465
  456MOL0     H61556  10.823   4.168   8.076 -0.0999  1.3178  1.4094
  456MOL0     H61557  10.973   4.202   8.147 -1.9895  0.8093  2.2725
  456MOL0     H61558  10.860   3.872   8.386 -1.0904 -1.8471 -1.5640
  456MOL0     H61559  11.056   3.824   7.564  0.3320  0.8486  0.3682
  456MOL0     H61560  11.099   3.864   7.356 -2.1680 -2.5837 -0.8464
  457MOL0     O61561   4.544   1.563   3.048  0.2162 -0.9915 -0.8438
  457MOL0     C61562   4.532   1.583   2.931  0.9546 -0.0204  0.0497
  457MOL0     O61563   4.591   1.517   2.824 -0.7189 -0.0274 -0.3198
  457MOL0     C61564   4.700   1.434   2.844  1.1966  0.2658 -0.5043
  457MOL0     C61565   4.710   1.332   2.755  0.4265 -0.2212 -0.7141
  457MOL0     C61566   4.809   1.230   2.780  0.1978 -0.4530  0.6954
  457MOL0     C61567   4.919   1.252   2.868  0.7448  0.0758 -0.6307
  457MOL0     O61568   5.027   1.172   2.876  0.4004  0.6015  0.2781
  457MOL0     C61569   5.016   1.032   2.821  0.2176  0.4077 -0.9469
  457MOL0     C61570   5.132   0.938   2.868  1.1880 -1.3602 -0.4960
  457MOL0     C61571   5.113   0.794   2.818 -0.5506 -0.6449  1.4035
  457MOL0     C61572   5.035   0.703   2.917  0.1826 -0.2515 -0.3341
  457MOL0     C61573   5.017   0.552   2.884  1.2048 -0.2023 -0.0012
  457MOL0     C61574   5.143   0.499   2.804 -0.1220 -0.3000  0.5502
  457MOL0     C61575   5.285   0.510   2.867  0.2829  0.2216  0.5680
  457MOL0     C61576   5.393   0.508   2.763  0.8573 -0.2784 -1.2004
  457MOL0     N61577   5.396   0.380   2.698 -0.1366 -1.0667  0.0968
  457MOL0     C61578   5.480   0.284   2.720 -0.7343  0.2273 -0.4634
  457MOL0     C61579   5.458   0.191   2.627  0.4797  0.4434 -0.0916
  457MOL0     C61580   5.528   0.055   2.608  0.2240  0.0126  0.1489
  457MOL0     C61581   5.591  -0.004   2.740  0.1416  1.2371 -0.5860
  457MOL0     C61582   5.717   0.062   2.804  0.3069 -0.5931 -1.0746
  457MOL0     C61583   5.828   0.088   2.695 -0.8007  0.0354 -0.4421
  457MOL0     O61584   5.965   0.073   2.730  0.2556 -0.3600 -0.2249
  457MOL0     C61585   6.040  -0.043   2.746 -0.0520  0.2618 -0.1251
  457MOL0     C61586   6.156  -0.035   2.819 -0.3648  0.4632 -0.3956
  457MOL0     C61587   6.231  -0.156   2.855 -0.6594 -0.5677  0.7702
  457MOL0     C61588   6.339  -0.142   2.948  0.5424  0.1987 -0.8814
  457MOL0     C61589   6.177  -0.272   2.803  0.2136  0.4221 -0.1451
  457MOL0     C61590   6.240  -0.403   2.818  0.6364  0.4567  0.8789
  457MOL0     O61591   6.209  -0.498   2.714  0.1623  1.2505  0.0001
  457MOL0     C61592   6.268  -0.627   2.746 -0.6103 -0.1051  0.0396
  457MOL0     C61593   6.390  -0.656   2.692 -0.6533  0.6163  0.3958
  457MOL0     C61594   6.455  -0.770   2.730  1.7069  0.5566  0.1578
  457MOL0     C61595   6.393  -0.857   2.820 -0.5330  0.7257 -0.4172
  457MOL0     O61596   6.468  -0.962   2.874 -0.3152  0.0070 -1.6133
  457MOL0     C61597   6.497  -1.064   2.788 -0.5785 -0.6381 -0.4177
  457MOL0     C61598   6.574  -1.173   2.872  0.5264  0.1411 -1.4130
  457MOL0     C61599   6.483  -1.272   2.953 -0.5474  1.1656  0.1835
  457MOL0     C61600   6.403  -1.201   3.061 -0.4534  0.3407  0.0805
  457MOL0     C61601   6.281  -1.289   3.101  0.1294  0.4283 -0.1418
  457MOL0     C61602   6.323  -1.427   3.178  0.0665 -0.0806  1.2618
  457MOL0     C61603   6.204  -1.489   3.243  0.8927 -0.3394 -0.9760
  457MOL0     C61604   6.227  -1.632   3.287  1.0754  1.0974  0.7005
  457MOL0    Cl61605   6.391  -1.671   3.348  0.2905  0.0119  0.0956
  457MOL0     C61606   6.269  -0.835   2.871 -0.4855  0.2291  0.5071
  457MOL0     C61607   6.208  -0.715   2.836 -0.3095  0.2980 -0.6163
  457MOL0     O61608   6.305  -0.425   2.916  0.1827 -0.6269 -0.2030
  457MOL0     C61609   6.065  -0.268   2.730 -0.0893  0.7281 -0.2698
  457MOL0     C61610   5.991  -0.157   2.696  0.8345 -0.2402 -0.8336
  457MOL0     N61611   5.366   0.240   2.546  1.0329  0.1125  0.0257
  457MOL0     N61612   5.323   0.357   2.589  0.2393  0.4095  0.2814
  457MOL0     C61613   4.918   1.374   2.931 -1.0247 -0.1205 -1.2316
  457MOL0     C61614   4.809   1.459   2.935  0.5303  0.0455 -0.3391
  457MOL0     C61615   4.432   1.684   2.888  0.5850 -0.0869 -0.5181
  457MOL0     C61616   4.451   1.741   2.766  0.3482 -0.1897  0.8288
  457MOL0     C61617   4.359   1.828   2.712  0.2159 -0.3182 -0.7546
  457MOL0     C61618   4.239   1.860   2.775  0.4942 -0.1493 -0.4690
  457MOL0     O61619   4.146   1.944   2.716 -0.3409 -0.1825 -0.0849
  457MOL0     C61620   4.185   2.044   2.622 -0.5405 -0.5367 -0.5129
  457MOL0     C61621   4.087   2.165   2.648  0.8540 -0.3696 -0.4502
  457MOL0     C61622   3.931   2.155   2.595 -0.5343  0.8212 -0.0578
  457MOL0     C61623   3.871   2.025   2.653 -0.7924  0.5204 -0.6261
  457MOL0     C61624   3.725   2.038   2.639  0.0293 -0.3905 -0.4928
  457MOL0     C61625   3.610   2.048   2.608  0.3432 -1.1044  0.1241
  457MOL0     C61626   4.215   1.798   2.898 -0.6726 -0.1379 -1.0061
  457MOL0     C61627   4.313   1.714   2.954  0.5875  0.8895  0.5053
  457MOL0     H61628   4.637   1.309   2.678  2.1088 -0.3789 -2.3276
  457MOL0     H61629   4.795   1.139   2.724 -1.5497  1.4192 -2.1963
  457MOL0     H61630   4.926   0.981   2.857 -1.1686  2.1281 -1.8159
  457MOL0     H61631   5.022   1.030   2.712 -2.2305 -0.0969 -1.1114
  457MOL0     H61632   5.226   0.976   2.826  0.9577 -1.4894 -1.1409
  457MOL0     H61633   5.131   0.938   2.977  0.0714 -1.5996 -0.4940
  457MOL0     H61634   5.062   0.778   2.722  0.1045  2.4642  0.4081
  457MOL0     H61635   5.214   0.756   2.798  0.3788  2.3865 -0.4876
  457MOL0     H61636   5.062   0.698   3.023 -1.3930  0.4622  0.1229
  457MOL0     H61637   4.938   0.753   2.927  1.3202  2.7594 -2.5946
  457MOL0     H61638   4.998   0.500   2.978  0.2401  1.2560  0.6482
  457MOL0     H61639   4.927   0.541   2.822  0.7445  1.6454  0.2701
  457MOL0     H61640   5.130   0.396   2.770 -0.0826 -0.2596  0.4126
  457MOL0     H61641   5.139   0.558   2.712 -1.3603  0.1796  0.8935
  457MOL0     H61642   5.299   0.601   2.926  1.8638 -1.4477  2.9324
  457MOL0     H61643   5.300   0.426   2.935 -1.6696 -0.2381  0.5065
  457MOL0     H61644   5.485   0.528   2.819  0.3532  0.0034 -0.4615
  457MOL0     H61645   5.371   0.590   2.693  1.6738  1.4480  0.4695
  457MOL0     H61646   5.559   0.270   2.794 -0.4420 -2.2401 -1.1492
  457MOL0     H61647   5.468  -0.031   2.575 -1.9681 -0.1016  3.8923
  457MOL0     H61648   5.605   0.072   2.532  0.4819 -1.5742  0.0371
  457MOL0     H61649   5.625  -0.107   2.721 -2.3050 -0.1724  1.9109
  457MOL0     H61650   5.511  -0.002   2.814  0.7452  0.3330  0.1225
  457MOL0     H61651   5.762  -0.005   2.878  2.5815  3.0728  1.2384
  457MOL0     H61652   5.706   0.156   2.861  2.1619 -1.4640  0.9022
  457MOL0     H61653   5.817   0.195   2.675 -0.6057  0.5124  1.7715
  457MOL0     H61654   5.806   0.041   2.599  0.7371 -2.2006  0.2201
  457MOL0     H61655   6.189   0.055   2.869 -1.6808  0.9176 -0.3229
  457MOL0     H61656   6.427  -0.199   2.916 -0.8480 -3.2441  0.9180
  457MOL0     H61657   6.373  -0.039   2.943  0.7454  0.0899 -1.9762
  457MOL0     H61658   6.306  -0.178   3.046  1.5612  0.4614 -0.4286
  457MOL0     H61659   6.445  -0.590   2.624  0.8947 -1.2936 -0.3011
  457MOL0     H61660   6.558  -0.783   2.699  2.3072  2.6003  1.0928
  457MOL0     H61661   6.409  -1.115   2.747  0.2175  1.0727 -4.7558
  457MOL0     H61662   6.565  -1.032   2.709  2.8971 -1.9875  1.7648
  457MOL0     H61663   6.632  -1.237   2.805 -0.9794 -2.5537 -0.3172
  457MOL0     H61664   6.639  -1.114   2.938  0.8152 -3.2381  1.6242
  457MOL0     H61665   6.544  -1.356   2.988 -0.9894 -0.3623 -2.4390
  457MOL0     H61666   6.419  -1.313   2.874 -2.0108  1.5132  1.1581
  457MOL0     H61667   6.470  -1.178   3.144  0.6729  2.2518 -1.2659
  457MOL0     H61668   6.359  -1.105   3.032 -1.6444  0.9073  3.3592
  457MOL0     H61669   6.233  -1.321   3.008  5.1542 -3.0262 -2.0418
  457MOL0     H61670   6.214  -1.230   3.163 -1.9272  1.2583 -2.9906
  457MOL0     H61671   6.349  -1.506   3.107 -0.6202  1.8779 -1.3462
  457MOL0     H61672   6.407  -1.408   3.246  0.8004 -0.1626  0.3954
  457MOL0     H61673   6.125  -1.476   3.169  1.0987  0.8551 -1.0129
  457MOL0     H61674   6.172  -1.432   3.331 -0.6179  2.2922 -3.0793
  457MOL0     H61675   6.203  -1.697   3.203 -0.4052  0.5073  1.5463
  457MOL0     H61676   6.143  -1.647   3.355 -1.0997  1.8350 -1.6496
  457MOL0     H61677   6.216  -0.899   2.941 -1.7306  2.3346  1.5580
  457MOL0     H61678   6.116  -0.693   2.889  0.8218  0.6514  1.3193
  457MOL0     H61679   6.035  -0.359   2.679  3.7757 -1.7913  1.4292
  457MOL0     H61680   5.898  -0.164   2.639 -1.8100 -2.2247  3.2092
  457MOL0     H61681   5.012   1.407   2.976  1.8002 -4.8275 -2.9825
  457MOL0     H61682   4.805   1.551   2.994  0.6573  1.7244 -2.8141
  457MOL0     H61683   4.535   1.726   2.698  0.0453 -0.9193  0.6161
  457MOL0     H61684   4.372   1.877   2.616 -1.2102  3.9687  1.0362
  457MOL0     H61685   4.284   2.081   2.650 -0.6597 -0.7385  0.1965
  457MOL0     H61686   4.174   2.013   2.518 -1.7446  1.7188 -1.1210
  457MOL0     H61687   4.125   2.249   2.590 -1.4055  2.4459  1.8392
  457MOL0     H61688   4.080   2.190   2.754 -2.3201 -0.1424 -0.6286
  457MOL0     H61689   3.922   2.149   2.486  0.4554 -2.1899 -0.0769
  457MOL0     H61690   3.874   2.244   2.622  0.4503  1.4539 -0.0187
  457MOL0     H61691   3.907   2.023   2.757 -1.7210 -2.8587 -0.2640
  457MOL0     H61692   3.918   1.939   2.605  3.4561  0.8714  2.2782
  457MOL0     H61693   3.504   2.048   2.592 -0.3097  4.2926  2.3209
  457MOL0     H61694   4.125   1.811   2.956 -1.0515 -2.4306 -0.9916
  457MOL0     H61695   4.298   1.664   3.049  0.3561  0.1687  0.0955
  458MOL0     O61696   3.157   1.327   6.702 -0.1619 -0.1032  0.1395
  458MOL0     C61697   3.041   1.298   6.716  0.0573  0.5120 -0.9870
  458MOL0     O61698   3.001   1.179   6.673 -0.4703  0.4274 -0.2596
  458MOL0     C61699   3.087   1.075   6.671 -0.4982 -0.0640 -0.6999
  458MOL0     C61700   3.115   1.010   6.554  0.9344 -0.0398 -0.3735
  458MOL0     C61701   3.205   0.906   6.540 -0.1244  0.3957 -0.1922
  458MOL0     C61702   3.272   0.871   6.655 -0.1688  0.7310 -0.4907
  458MOL0     O61703   3.376   0.778   6.646  1.0041 -0.0754 -0.0916
  458MOL0     C61704   3.478   0.804   6.551 -1.1482 -0.9585 -0.4500
  458MOL0     C61705   3.615   0.752   6.601 -0.5382 -0.3300 -0.3429
  458MOL0     C61706   3.715   0.757   6.476 -0.1981  0.5661  0.4592
  458MOL0     C61707   3.863   0.744   6.508  0.6795 -0.4322 -0.8308
  458MOL0     C61708   3.904   0.593   6.551  0.3448 -0.1777  0.2473
  458MOL0     C61709   4.059   0.584   6.566  0.1401  0.6921 -0.4789
  458MOL0     C61710   4.087   0.445   6.644 -0.7730 -0.1963 -0.3730
  458MOL0     C61711   4.231   0.393   6.637  0.4047 -0.6961  0.0083
  458MOL0     N61712   4.231   0.247   6.665  0.9983  0.5008 -0.4613
  458MOL0     C61713   4.180   0.195   6.778  0.6008  0.0686 -0.0830
  458MOL0     C61714   4.178   0.063   6.751  0.8197 -0.0294  0.5375
  458MOL0     C61715   4.097  -0.042   6.829  0.4506  0.7670 -0.0248
  458MOL0     C61716   4.176  -0.181   6.862 -0.4306 -0.3675 -0.2498
  458MOL0     C61717   4.111  -0.285   6.954  0.5337 -0.5344  0.5773
  458MOL0     C61718   3.963  -0.314   6.922  0.2118  0.0876  0.1841
  458MOL0     O61719   3.892  -0.225   7.001  0.0902 -0.3221 -0.4771
  458MOL0     C61720   3.751  -0.230   7.006  0.2036 -0.1076 -0.6291
  458MOL0     C61721   3.680  -0.119   7.055 -0.0183  0.4916 -0.0537
  458MOL0     C61722   3.536  -0.103   7.056 -0.5216  0.6864  0.0989
  458MOL0     C61723   3.488   0.030   7.098  1.2799  0.1380 -0.3218
  458MOL0     C61724   3.466  -0.207   7.012  0.5241  0.0563 -0.7537
  458MOL0     C61725   3.309  -0.217   7.022 -0.5477  0.5355  0.0099
  458MOL0     O61726   3.263  -0.351   6.994 -0.3059 -0.6982 -0.2264
  458MOL0     C61727   3.129  -0.380   6.991 -0.1934  0.7152 -0.4521
  458MOL0     C61728   3.109  -0.515   6.952 -0.1693 -0.8858 -0.3266
  458MOL0     C61729   2.974  -0.569   6.958 -0.6907 -0.3738  0.2766
  458MOL0     C61730   2.867  -0.488   6.988  0.2818  0.1637 -0.5443
  458MOL0     O61731   2.741  -0.558   6.974 -0.3318  0.6907  0.7782
  458MOL0     C61732   2.625  -0.507   7.035 -0.2177 -0.2937 -0.6664
  458MOL0     C61733   2.640  -0.549   7.186  0.4172  0.0424 -0.3032
  458MOL0     C61734   2.612  -0.698   7.221  0.0088 -0.3484  0.7500
  458MOL0     C61735   2.558  -0.730   7.354 -0.0446  0.0801 -0.3646
  458MOL0     C61736   2.683  -0.737   7.448  0.2544  0.8202  0.0776
  458MOL0     C61737   2.650  -0.782   7.590 -0.1642 -0.3105 -0.2058
  458MOL0     C61738   2.559  -0.695   7.677  0.7070  0.2876  0.8864
  458MOL0     C61739   2.436  -0.756   7.741  0.4791 -0.0381 -0.8565
  458MOL0    Cl61740   2.315  -0.829   7.629  0.3136 -0.4780 -0.4875
  458MOL0     C61741   2.879  -0.354   7.008  0.9263  0.3240  1.1127
  458MOL0     C61742   3.013  -0.305   7.005 -0.5078  0.0228  0.5012
  458MOL0     O61743   3.244  -0.117   7.047  0.9975 -1.0128 -0.4356
  458MOL0     C61744   3.527  -0.314   6.953  1.0495 -0.4520  1.5230
  458MOL0     C61745   3.670  -0.327   6.948  0.3413  0.5169  0.2567
  458MOL0     N61746   4.243   0.036   6.633  1.0052  0.1402 -0.5158
  458MOL0     N61747   4.278   0.147   6.583 -0.5282 -0.0940  0.3935
  458MOL0     C61748   3.248   0.934   6.779  0.6308  0.5987  0.1001
  458MOL0     C61749   3.146   1.025   6.791  0.7473 -0.2030 -1.0450
  458MOL0     C61750   2.959   1.385   6.800 -0.1467  0.1750  0.2444
  458MOL0     C61751   2.845   1.326   6.863  0.1996 -0.4286  1.4386
  458MOL0     C61752   2.761   1.415   6.944  0.3789  0.9185  0.1306
  458MOL0     C61753   2.785   1.551   6.962 -1.3725  1.0343 -0.3357
  458MOL0     O61754   2.708   1.623   7.046  0.2639  0.0745  0.2022
  458MOL0     C61755   2.685   1.756   7.011 -0.0458 -0.2010  0.2995
  458MOL0     C61756   2.581   1.836   7.089 -0.2475  0.6119 -0.8298
  458MOL0     C61757   2.447   1.778   7.086 -0.6326 -0.5885  0.4155
  458MOL0     C61758   2.412   1.664   7.174  0.0761 -0.5285  0.4696
  458MOL0     C61759   2.279   1.612   7.133  0.2216 -0.7426  0.3048
  458MOL0     C61760   2.169   1.585   7.095  0.4748 -0.9078 -0.3694
  458MOL0     C61761   2.897   1.603   6.885  1.1171 -1.0937 -0.4360
  458MOL0     C61762   2.978   1.530   6.808  0.1494  0.5922  0.9524
  458MOL0     H61763   3.059   1.038   6.465 -2.3136 -0.5103  1.3487
  458MOL0     H61764   3.215   0.847   6.449  1.0793  0.1890  0.0521
  458MOL0     H61765   3.455   0.752   6.457 -1.0838 -1.7404 -0.0424
  458MOL0     H61766   3.494   0.912   6.544 -5.2856 -0.0261  1.2399
  458MOL0     H61767   3.646   0.812   6.687 -1.6278  0.3947 -0.4310
  458MOL0     H61768   3.608   0.648   6.633 -2.6176  0.2029  1.0842
  458MOL0     H61769   3.693   0.674   6.409 -0.8623  0.9663  0.1760
  458MOL0     H61770   3.701   0.850   6.421 -2.0898 -0.5570 -1.0915
  458MOL0     H61771   3.927   0.762   6.422 -0.3448  1.8188 -1.1896
  458MOL0     H61772   3.891   0.817   6.585 -0.0644 -0.0258 -0.9389
  458MOL0     H61773   3.851   0.557   6.639  0.0862  0.6001  0.4192
  458MOL0     H61774   3.873   0.529   6.468 -0.2361  2.1499 -1.4718
  458MOL0     H61775   4.120   0.600   6.477  0.8157  1.1610  0.0504
  458MOL0     H61776   4.083   0.668   6.632 -1.7595  0.7425  0.1999
  458MOL0     H61777   4.071   0.468   6.750  0.0795 -1.2832  0.0014
  458MOL0     H61778   4.016   0.369   6.610 -1.1461  0.3204 -0.7655
  458MOL0     H61779   4.286   0.447   6.715 -0.3954  0.5822 -0.2965
  458MOL0     H61780   4.278   0.402   6.538 -1.6468  1.7588 -0.8673
  458MOL0     H61781   4.146   0.255   6.863  3.7238  0.3277  1.1118
  458MOL0     H61782   4.074   0.010   6.923 -1.3637 -0.1723  0.1037
  458MOL0     H61783   3.997  -0.063   6.791  0.2850  1.0827  0.2290
  458MOL0     H61784   4.273  -0.166   6.910 -0.3781  2.3564 -1.0648
  458MOL0     H61785   4.181  -0.231   6.765 -2.2911  1.3692 -1.3225
  458MOL0     H61786   4.120  -0.254   7.059 -1.0297  0.5566  0.4289
  458MOL0     H61787   4.163  -0.379   6.935  0.6404 -0.6829  1.5626
  458MOL0     H61788   3.940  -0.413   6.962 -1.0444  0.6949  1.0346
  458MOL0     H61789   3.935  -0.310   6.816 -0.3422  1.1753  0.3520
  458MOL0     H61790   3.724  -0.030   7.098 -2.3065  1.2319  0.9088
  458MOL0     H61791   3.427   0.026   7.189 -0.1012  1.0177 -1.1746
  458MOL0     H61792   3.565   0.106   7.117 -0.1180  1.7270 -0.7340
  458MOL0     H61793   3.426   0.079   7.022  0.3073  0.0831  0.4124
  458MOL0     H61794   3.202  -0.569   6.937  0.3598 -0.1407  0.1876
  458MOL0     H61795   2.957  -0.675   6.943  0.2731 -0.2136 -2.5847
  458MOL0     H61796   2.605  -0.399   7.025 -0.3378  0.1849  3.2892
  458MOL0     H61797   2.533  -0.558   7.003 -0.7776  0.8420 -0.9493
  458MOL0     H61798   2.737  -0.521   7.226  0.8259 -0.4597 -0.9263
  458MOL0     H61799   2.561  -0.503   7.246 -2.3166 -6.0298  1.5575
  458MOL0     H61800   2.702  -0.752   7.190 -1.4873 -0.5274 -4.1533
  458MOL0     H61801   2.532  -0.731   7.155  1.3197 -2.7827  0.2789
  458MOL0     H61802   2.490  -0.653   7.391  0.0697 -0.7467  1.7335
  458MOL0     H61803   2.509  -0.828   7.355 -0.4585  0.2662 -1.4787
  458MOL0     H61804   2.741  -0.644   7.454  0.5832  0.7043 -1.0474
  458MOL0     H61805   2.754  -0.811   7.409  0.3270  0.3128  1.1426
  458MOL0     H61806   2.629  -0.889   7.585  2.9929 -1.0343  0.2562
  458MOL0     H61807   2.748  -0.777   7.637  0.7713 -0.0157 -2.1078
  458MOL0     H61808   2.512  -0.625   7.607 -0.6259  2.4801  3.7416
  458MOL0     H61809   2.617  -0.635   7.749  1.6086 -1.9140  2.1002
  458MOL0     H61810   2.369  -0.676   7.776 -1.1077 -2.0957  1.2037
  458MOL0     H61811   2.449  -0.821   7.828 -1.8660  0.0943 -0.3269
  458MOL0     H61812   2.796  -0.289   7.037 -0.0203 -2.3538  5.2416
  458MOL0     H61813   3.037  -0.201   7.024 -0.5134 -0.2850  2.3049
  458MOL0     H61814   3.479  -0.402   6.912 -1.3635 -0.6345  4.4003
  458MOL0     H61815   3.708  -0.424   6.918  1.3073  1.5788 -2.1755
  458MOL0     H61816   3.320   0.921   6.860  3.0682 -0.1964 -2.0519
  458MOL0     H61817   3.121   1.060   6.891 -2.4978 -4.8311  0.1182
  458MOL0     H61818   2.815   1.222   6.853 -1.6475  0.0060  1.9794
  458MOL0     H61819   2.678   1.359   6.985  1.0636 -1.5760 -1.6163
  458MOL0     H61820   2.780   1.808   7.027  0.1959 -0.7277  0.5835
  458MOL0     H61821   2.660   1.760   6.904  1.1225  1.3066  0.0359
  458MOL0     H61822   2.565   1.942   7.069  1.2830  1.6740  2.7240
  458MOL0     H61823   2.615   1.837   7.193 -0.5110 -0.0729 -0.7279
  458MOL0     H61824   2.432   1.741   6.984 -1.3412 -0.1292  0.3466
  458MOL0     H61825   2.378   1.862   7.103 -0.1827  0.4869 -2.5310
  458MOL0     H61826   2.395   1.700   7.275 -3.4666  2.4746 -0.9546
  458MOL0     H61827   2.491   1.590   7.156  2.3432  1.7854  0.3372
  458MOL0     H61828   2.064   1.575   7.072  0.5323  0.1346 -1.1563
  458MOL0     H61829   2.908   1.711   6.881  1.7057 -1.1434 -0.2725
  458MOL0     H61830   3.049   1.570   6.736  0.5184 -0.9359  0.4458
  459MOL0     O61831   4.328   5.383   3.732 -0.7609  0.4048  0.4052
  459MOL0     C61832   4.321   5.281   3.663 -0.4622 -0.9186  0.0858
  459MOL0     O61833   4.412   5.247   3.564 -0.7339 -0.2871  0.4844
  459MOL0     C61834   4.522   5.325   3.549 -0.1900  0.7888 -0.1428
  459MOL0     C61835   4.640   5.266   3.567 -0.8300 -0.0218  0.3795
  459MOL0     C61836   4.753   5.345   3.585  0.6724 -0.2236 -0.2171
  459MOL0     C61837   4.748   5.479   3.565 -1.3146  0.0310  1.0035
  459MOL0     O61838   4.866   5.545   3.591  0.3272 -0.8025 -0.3954
  459MOL0     C61839   4.941   5.589   3.474 -0.8673  0.5417 -0.5516
  459MOL0     C61840   5.055   5.492   3.425  0.1152 -0.2031  0.4665
  459MOL0     C61841   5.152   5.555   3.314  0.1427  0.5305  0.8928
  459MOL0     C61842   5.077   5.636   3.205  0.4771 -0.3176 -0.0547
  459MOL0     C61843   4.985   5.545   3.119 -0.6987  0.7923 -0.8741
  459MOL0     C61844   4.969   5.598   2.981  0.0383 -0.7305  0.6023
  459MOL0     C61845   5.096   5.636   2.908 -0.5247  0.6347  0.6924
  459MOL0     C61846   5.068   5.620   2.761  0.5154  0.3869 -0.8392
  459MOL0     N61847   5.187   5.660   2.682 -0.6957  0.4227 -0.4263
  459MOL0     C61848   5.174   5.727   2.561 -0.7022  0.5741 -0.8796
  459MOL0     C61849   5.296   5.715   2.499  0.0742 -0.2143  0.2927
  459MOL0     C61850   5.315   5.763   2.356 -0.4970 -0.4700 -0.7757
  459MOL0     C61851   5.427   5.866   2.336 -1.1242 -1.0915 -0.4568
  459MOL0     C61852   5.561   5.800   2.346 -1.0417 -0.1168  0.3105
  459MOL0     C61853   5.610   5.721   2.223  0.1887 -0.3265  0.2559
  459MOL0     O61854   5.695   5.799   2.144 -0.8736 -0.2052  0.2669
  459MOL0     C61855   5.684   5.783   2.005 -0.3173 -0.5658 -1.2395
  459MOL0     C61856   5.736   5.878   1.922  0.4688 -0.3575 -0.3671
  459MOL0     C61857   5.739   5.861   1.779 -0.3137 -0.2175  0.2312
  459MOL0     C61858   5.783   5.977   1.691 -0.3811  0.2726 -0.0291
  459MOL0     C61859   5.683   5.743   1.718 -0.2199 -0.0080  0.2805
  459MOL0     C61860   5.646   5.721   1.578  0.3112  0.2999 -0.1035
  459MOL0     O61861   5.643   5.591   1.545 -0.4909 -0.5195  0.6419
  459MOL0     C61862   5.634   5.540   1.422  0.2935  0.6791  1.0002
  459MOL0     C61863   5.548   5.596   1.326  0.4324  0.3339 -0.8494
  459MOL0     C61864   5.544   5.544   1.194  0.4970  0.2002  0.0066
  459MOL0     C61865   5.629   5.437   1.152  0.4782  0.6877  0.4592
  459MOL0     O61866   5.640   5.397   1.024 -0.1969 -0.7983 -0.3263
  459MOL0     C61867   5.637   5.264   0.985  0.3199  0.1066 -0.1647
  459MOL0     C61868   5.520   5.231   0.890  0.9582  0.1001  0.1681
  459MOL0     C61869   5.486   5.078   0.886  0.2196 -0.0694  0.1100
  459MOL0     C61870   5.542   5.008   0.767  0.4149  0.0224  1.1290
  459MOL0     C61871   5.444   5.024   0.656 -0.3313  0.0784 -0.3797
  459MOL0     C61872   5.503   4.959   0.530  0.9846  0.3670  0.1077
  459MOL0     C61873   5.398   4.984   0.416  1.1751 -0.2843  0.1267
  459MOL0     C61874   5.435   4.908   0.293  0.0990 -0.0113  0.3158
  459MOL0    Cl61875   5.604   4.934   0.221  0.3192  0.2490 -0.1817
  459MOL0     C61876   5.716   5.390   1.251  0.0244  0.8537 -0.3280
  459MOL0     C61877   5.725   5.437   1.378  0.4685 -0.8542 -0.1880
  459MOL0     O61878   5.611   5.812   1.506  0.2158 -0.5519 -0.4347
  459MOL0     C61879   5.671   5.636   1.809  0.5286  0.1355  1.0132
  459MOL0     C61880   5.664   5.657   1.941 -0.2846 -0.2801 -0.9648
  459MOL0     N61881   5.370   5.649   2.586  0.0566  0.0464  0.0416
  459MOL0     N61882   5.312   5.609   2.694  0.3755 -0.2575 -1.4340
  459MOL0     C61883   4.623   5.541   3.538 -0.7777  0.3095  0.6955
  459MOL0     C61884   4.514   5.459   3.519 -0.0480 -0.9224 -0.5584
  459MOL0     C61885   4.211   5.179   3.692 -0.0385 -0.3535 -0.0888
  459MOL0     C61886   4.110   5.223   3.783 -0.0966  0.5580  0.5314
  459MOL0     C61887   4.000   5.139   3.800 -1.0301 -0.5528  0.1041
  459MOL0     C61888   3.983   5.024   3.726 -0.4779 -0.0784  0.2207
  459MOL0     O61889   3.859   4.956   3.732  0.0331  0.4850 -0.2483
  459MOL0     C61890   3.789   4.912   3.619  0.3681  0.2704 -0.7425
  459MOL0     C61891   3.740   4.767   3.643 -0.0864  0.5646  0.5434
  459MOL0     C61892   3.618   4.752   3.552 -0.8709  0.1880  0.3022
  459MOL0     C61893   3.492   4.832   3.603 -0.3542 -0.0814  0.4484
  459MOL0     C61894   3.374   4.810   3.515 -0.7736  0.0360 -1.0230
  459MOL0     C61895   3.270   4.794   3.459 -0.4859 -0.6875  0.1981
  459MOL0     C61896   4.095   4.972   3.649  0.4436 -0.5646 -0.3130
  459MOL0     C61897   4.206   5.058   3.623  0.5437  0.1453  0.2289
  459MOL0     H61898   4.643   5.158   3.564 -4.5719 -0.2553 -2.4748
  459MOL0     H61899   4.847   5.293   3.602  0.3532  0.0788  3.1208
  459MOL0     H61900   4.869   5.602   3.392 -0.0172 -0.4270 -1.4758
  459MOL0     H61901   4.970   5.693   3.492 -0.7298  0.3853  0.1706
  459MOL0     H61902   5.111   5.463   3.514 -0.7206 -2.5267  0.3013
  459MOL0     H61903   5.018   5.402   3.375  0.0485  0.0400  0.0691
  459MOL0     H61904   5.229   5.616   3.361 -1.4130  2.5775  0.9393
  459MOL0     H61905   5.209   5.479   3.259 -0.0074 -1.5199  3.3697
  459MOL0     H61906   5.013   5.717   3.240  1.1571 -0.5202  1.7938
  459MOL0     H61907   5.151   5.676   3.135  1.6173 -1.6516  0.3284
  459MOL0     H61908   5.033   5.448   3.107 -1.5647  0.6678 -4.4153
  459MOL0     H61909   4.888   5.526   3.167 -2.3289  1.7732 -3.5656
  459MOL0     H61910   4.906   5.525   2.929 -1.6231 -0.6547  2.4126
  459MOL0     H61911   4.903   5.685   2.968  0.0511 -0.8767 -0.5913
  459MOL0     H61912   5.112   5.743   2.925 -3.5569  1.2996 -0.0272
  459MOL0     H61913   5.175   5.566   2.939  0.2951  2.1065  2.0704
  459MOL0     H61914   4.974   5.664   2.728 -0.9615 -0.0097  2.4501
  459MOL0     H61915   5.056   5.514   2.736  0.3120  0.1367  0.2746
  459MOL0     H61916   5.096   5.791   2.521 -0.9359  0.0297 -1.3047
  459MOL0     H61917   5.344   5.671   2.303 -0.3360 -0.1710 -1.2109
  459MOL0     H61918   5.219   5.801   2.320 -1.9212 -0.5141  2.6014
  459MOL0     H61919   5.430   5.949   2.407 -1.0106 -2.3512  1.0765
  459MOL0     H61920   5.432   5.913   2.238  0.3872  0.2871  0.2307
  459MOL0     H61921   5.558   5.734   2.433 -0.4406  3.3802  3.2718
  459MOL0     H61922   5.646   5.868   2.362  0.1370 -0.8832 -2.1019
  459MOL0     H61923   5.523   5.681   2.170 -0.0808  3.6699 -2.8254
  459MOL0     H61924   5.656   5.640   2.280 -1.4162 -1.2316  0.3364
  459MOL0     H61925   5.747   5.974   1.970  1.4169  0.6735 -2.5438
  459MOL0     H61926   5.781   5.948   1.586  2.4993 -2.4074  0.5120
  459MOL0     H61927   5.724   6.066   1.715 -1.0583 -0.6374  1.9144
  459MOL0     H61928   5.888   6.001   1.705 -0.3584  1.7121 -2.1707
  459MOL0     H61929   5.480   5.669   1.370  1.8774 -0.6593  3.6193
  459MOL0     H61930   5.464   5.566   1.123 -1.5788 -0.8631  1.8828
  459MOL0     H61931   5.731   5.250   0.932 -0.0703  0.9643 -1.1331
  459MOL0     H61932   5.648   5.197   1.070  0.6311 -0.5440 -0.7111
  459MOL0     H61933   5.437   5.291   0.929  1.0412 -0.2159  0.8476
  459MOL0     H61934   5.540   5.276   0.793 -0.2117  1.8308  0.6716
  459MOL0     H61935   5.379   5.064   0.906  0.1108  1.1558  0.4548
  459MOL0     H61936   5.524   5.020   0.970  0.9616  1.1650  0.6522
  459MOL0     H61937   5.646   5.032   0.743 -0.5518  1.3945 -2.2452
  459MOL0     H61938   5.552   4.904   0.798  2.3237 -0.1473  0.0730
  459MOL0     H61939   5.434   5.133   0.654  2.4691  0.5073 -3.9215
  459MOL0     H61940   5.350   4.977   0.684 -0.2779  1.1978  1.9186
  459MOL0     H61941   5.593   5.013   0.500 -0.4283  1.0531 -3.4224
  459MOL0     H61942   5.531   4.854   0.540  2.8053  0.4760 -2.8320
  459MOL0     H61943   5.395   5.087   0.381 -0.2166  0.1879  1.5462
  459MOL0     H61944   5.299   4.949   0.445  0.5924 -0.2270 -1.6621
  459MOL0     H61945   5.364   4.915   0.210 -0.6698 -2.0513  0.7519
  459MOL0     H61946   5.424   4.803   0.320 -1.5216  0.5665  2.1467
  459MOL0     H61947   5.798   5.321   1.233  0.5397  2.0435 -3.0874
  459MOL0     H61948   5.803   5.403   1.445 -1.4864 -0.0699  2.6580
  459MOL0     H61949   5.656   5.533   1.777  1.9210  0.5636 -1.2410
  459MOL0     H61950   5.638   5.571   2.003 -4.6020  2.5586  1.6607
  459MOL0     H61951   4.629   5.646   3.512 -2.0074  0.5123  1.1350
  459MOL0     H61952   4.423   5.516   3.504  0.0028 -0.1948  1.5690
  459MOL0     H61953   4.101   5.317   3.837 -0.4016  1.4466 -1.0062
  459MOL0     H61954   3.924   5.162   3.873 -1.0238  1.8604 -0.5792
  459MOL0     H61955   3.715   4.993   3.620  1.1675  1.0424  1.0438
  459MOL0     H61956   3.853   4.921   3.530  2.6141  1.5225  0.9133
  459MOL0     H61957   3.702   4.745   3.743  2.8452 -2.0859  1.2286
  459MOL0     H61958   3.800   4.680   3.615 -2.2029 -0.7270 -0.2210
  459MOL0     H61959   3.593   4.645   3.548  0.9066 -0.5211  4.0171
  459MOL0     H61960   3.650   4.761   3.448  2.6403 -1.2405  1.1192
  459MOL0     H61961   3.522   4.937   3.598  0.9144 -0.4991 -3.2283
  459MOL0     H61962   3.461   4.813   3.706 -0.1744 -0.6415  0.4038
  459MOL0     H61963   3.186   4.786   3.392  1.2910 -4.0498 -1.9077
  459MOL0     H61964   4.073   4.885   3.587  3.4596 -1.5317 -0.1752
  459MOL0     H61965   4.273   5.032   3.542  1.8525  3.2723  0.1371
  460MOL0     O61966   4.682   8.583   3.987 -0.2325  0.5780  0.5428
  460MOL0     C61967   4.767   8.600   3.904 -0.0195 -0.3228 -0.6991
  460MOL0     O61968   4.889   8.637   3.940  0.2812  0.3727  0.2390
  460MOL0     C61969   4.933   8.598   4.061  0.3637  0.4474  0.4203
  460MOL0     C61970   4.987   8.476   4.067  0.4025 -0.9315 -0.0546
  460MOL0     C61971   5.062   8.432   4.181 -0.2161 -0.7577 -1.2446
  460MOL0     C61972   5.060   8.523   4.297 -0.2749  0.3652  0.7750
  460MOL0     O61973   5.109   8.502   4.417  0.0428  0.6344  0.5561
  460MOL0     C61974   5.105   8.363   4.460  0.6460 -0.1559 -0.0196
  460MOL0     C61975   5.152   8.355   4.602  0.0949  0.5765  0.2352
  460MOL0     C61976   5.231   8.229   4.631 -0.7245 -0.1350  0.4923
  460MOL0     C61977   5.379   8.236   4.573 -0.6389  0.5883  0.8044
  460MOL0     C61978   5.468   8.123   4.613  0.1161 -0.1297 -0.0557
  460MOL0     C61979   5.602   8.142   4.537  0.5072  0.3127 -1.0566
  460MOL0     C61980   5.718   8.075   4.613 -0.0182  0.1502  0.2099
  460MOL0     C61981   5.839   8.054   4.521 -0.8839 -0.2850 -0.0887
  460MOL0     N61982   5.945   7.984   4.586 -0.8355 -0.4401  0.0923
  460MOL0     C61983   5.982   8.000   4.715  0.3657  0.2384 -0.6351
  460MOL0     C61984   6.078   7.907   4.737 -0.3133  0.8713  0.4536
  460MOL0     C61985   6.121   7.858   4.871  0.9516 -0.6032  0.1293
  460MOL0     C61986   6.171   7.718   4.871 -0.0402 -0.1429  0.7270
  460MOL0     C61987   6.043   7.634   4.856  0.3842  0.7729  0.3341
  460MOL0     C61988   6.065   7.487   4.895 -0.7248  0.9169  0.3979
  460MOL0     O61989   5.980   7.384   4.834 -0.5051  0.0558 -0.6038
  460MOL0     C61990   5.985   7.253   4.877 -0.1968  0.6032  0.2496
  460MOL0     C61991   6.060   7.212   4.986 -0.4981 -0.2491  0.5942
  460MOL0     C61992   6.079   7.076   5.025  0.1504  0.2336  0.5771
  460MOL0     C61993   6.159   7.059   5.150  0.0754 -0.3926 -0.8698
  460MOL0     C61994   6.023   6.971   4.950  0.2156 -0.0681  1.1518
  460MOL0     C61995   6.030   6.831   4.971  0.6686  0.5727  0.6932
  460MOL0     O61996   5.928   6.750   4.932 -0.2285  0.7995  0.2279
  460MOL0     C61997   5.922   6.628   4.996  0.0782  0.0807 -0.2523
  460MOL0     C61998   5.867   6.628   5.128  0.1478  0.7733 -0.8208
  460MOL0     C61999   5.851   6.499   5.197 -0.4704  0.2464  0.3763
  460MOL0     C62000   5.894   6.383   5.139  0.2376  0.3372  0.5980
  460MOL0     O62001   5.896   6.272   5.220 -0.4932 -0.0014 -1.0846
  460MOL0     C62002   6.005   6.175   5.211  0.0243 -0.4936  0.4310
  460MOL0     C62003   5.995   6.054   5.310  0.1979  0.5078  0.9067
  460MOL0     C62004   6.082   5.937   5.249 -0.2775 -0.2504 -0.0544
  460MOL0     C62005   6.086   5.836   5.363  0.0712 -0.0537 -0.0351
  460MOL0     C62006   6.177   5.725   5.310  0.4839  0.1525 -0.0361
  460MOL0     C62007   6.227   5.637   5.424  0.1401 -0.1127  0.6167
  460MOL0     C62008   6.275   5.499   5.375 -0.5840  0.5718  0.5184
  460MOL0     C62009   6.298   5.403   5.487 -0.3583 -0.0944  0.6021
  460MOL0    Cl62010   6.358   5.254   5.418  0.0336 -0.7152  0.0695
  460MOL0     C62011   5.934   6.378   5.002 -0.9645 -0.7750 -0.0796
  460MOL0     C62012   5.945   6.501   4.935  0.0213 -0.1493  0.5047
  460MOL0     O62013   6.129   6.793   5.038 -0.5399 -1.0442 -0.0853
  460MOL0     C62014   5.953   7.012   4.832  0.3067 -1.3127  0.6169
  460MOL0     C62015   5.929   7.148   4.799 -0.3203 -0.0760  1.2826
  460MOL0     N62016   6.113   7.847   4.618  0.0580  0.1702  0.3337
  460MOL0     N62017   6.033   7.897   4.529  0.2177  0.5853 -0.0797
  460MOL0     C62018   4.992   8.642   4.291 -0.6858 -1.1129  0.3033
  460MOL0     C62019   4.936   8.688   4.173 -0.1902 -0.3528  0.4430
  460MOL0     C62020   4.731   8.623   3.765  0.5837  0.3052  0.2005
  460MOL0     C62021   4.636   8.537   3.708  0.5918 -0.8117 -0.4149
  460MOL0     C62022   4.608   8.539   3.570  0.7857 -1.1401  0.7942
  460MOL0     C62023   4.658   8.644   3.494 -0.4326 -0.4959  0.1217
  460MOL0     O62024   4.628   8.630   3.360 -0.6835  0.4272 -0.3025
  460MOL0     C62025   4.690   8.715   3.267  0.4048 -0.1224 -0.4771
  460MOL0     C62026   4.626   8.854   3.257  0.0223 -0.6882  0.2486
  460MOL0     C62027   4.587   8.873   3.106  0.7685  0.4410  0.7050
  460MOL0     C62028   4.481   8.975   3.072  0.2974 -0.1193 -1.0701
  460MOL0     C62029   4.485   9.105   3.149 -0.6528 -0.4871 -0.5955
  460MOL0     C62030   4.469   9.213   3.208 -0.0597  0.4585 -0.4765
  460MOL0     C62031   4.735   8.740   3.553 -0.5247 -1.0272  0.2968
  460MOL0     C62032   4.776   8.729   3.690  0.5611  0.2613 -0.0014
  460MOL0     H62033   4.982   8.410   3.981 -2.3472  2.5948 -2.8900
  460MOL0     H62034   5.105   8.332   4.174  0.9926 -0.6799  2.5494
  460MOL0     H62035   5.005   8.319   4.450  0.0970  1.2384 -0.9592
  460MOL0     H62036   5.166   8.303   4.391  0.0253 -0.1975 -0.5475
  460MOL0     H62037   5.205   8.450   4.615  1.0289 -0.0683  1.4175
  460MOL0     H62038   5.063   8.353   4.665  0.9261  0.8056  1.4485
  460MOL0     H62039   5.236   8.205   4.738  1.4174 -1.6913  0.1061
  460MOL0     H62040   5.183   8.144   4.582 -1.2989  0.9383 -0.8716
  460MOL0     H62041   5.366   8.247   4.466 -2.8017  2.4532  1.1984
  460MOL0     H62042   5.422   8.331   4.607 -0.2028  1.5502 -2.2028
  460MOL0     H62043   5.482   8.144   4.719 -0.6110 -0.6568  0.1545
  460MOL0     H62044   5.425   8.023   4.603 -0.5172  0.0734  0.5463
  460MOL0     H62045   5.597   8.094   4.439 -2.0972 -3.6426  0.7583
  460MOL0     H62046   5.626   8.244   4.504  1.0352  1.4801  2.4745
  460MOL0     H62047   5.740   8.144   4.695 -0.3885 -0.8246  1.1573
  460MOL0     H62048   5.692   7.971   4.633 -1.5358  0.1548 -1.4833
  460MOL0     H62049   5.882   8.149   4.490 -0.2751 -0.4882  0.1152
  460MOL0     H62050   5.822   7.997   4.429 -1.2197 -0.6707  0.2085
  460MOL0     H62051   5.936   8.071   4.783 -1.3396 -1.4522  0.0612
  460MOL0     H62052   6.198   7.928   4.904 -2.0253  3.2207 -0.3275
  460MOL0     H62053   6.040   7.872   4.942 -0.8766 -1.2017 -1.7349
  460MOL0     H62054   6.215   7.699   4.970 -2.7283 -2.7503  1.5829
  460MOL0     H62055   6.241   7.711   4.787 -0.8100 -0.1046  0.0670
  460MOL0     H62056   6.020   7.651   4.750  0.4626  2.8740  0.6191
  460MOL0     H62057   5.953   7.678   4.899 -1.0900 -0.7012 -1.0811
  460MOL0     H62058   6.046   7.477   5.002 -3.8592  0.2259 -0.1284
  460MOL0     H62059   6.172   7.471   4.877 -0.0673  1.3553  3.4618
  460MOL0     H62060   6.105   7.280   5.057 -3.0783  0.0513  2.0695
  460MOL0     H62061   6.121   6.975   5.209 -3.1618  2.1693  0.9452
  460MOL0     H62062   6.263   7.036   5.123 -0.2151 -0.8131 -1.6880
  460MOL0     H62063   6.167   7.150   5.210 -0.0637 -0.2683 -1.0377
  460MOL0     H62064   5.817   6.716   5.167  0.0555  0.7630 -0.9142
  460MOL0     H62065   5.821   6.500   5.301  1.4083 -0.5193  0.9893
  460MOL0     H62066   5.994   6.137   5.109  1.3889 -1.1798  0.5143
  460MOL0     H62067   6.104   6.222   5.216 -0.7702  1.2293  1.0604
  460MOL0     H62068   6.025   6.091   5.408 -1.1998 -0.6861  1.8226
  460MOL0     H62069   5.895   6.013   5.323  0.7677 -0.9255  1.0157
  460MOL0     H62070   6.179   5.969   5.211 -0.1208 -2.4044 -1.5944
  460MOL0     H62071   6.025   5.893   5.167 -1.9393  1.9529 -0.1641
  460MOL0     H62072   6.138   5.878   5.450  2.0849 -1.5602 -0.4487
  460MOL0     H62073   5.989   5.799   5.396 -0.0977  0.4477  0.0496
  460MOL0     H62074   6.262   5.775   5.263  0.9008  0.0411  0.5838
  460MOL0     H62075   6.129   5.654   5.242 -1.6918  0.1366  1.3998
  460MOL0     H62076   6.307   5.695   5.470 -0.0024  0.3701  0.2674
  460MOL0     H62077   6.139   5.624   5.487 -0.7300 -2.6761 -0.9721
  460MOL0     H62078   6.371   5.500   5.322 -2.3670 -2.5698 -3.3138
  460MOL0     H62079   6.220   5.447   5.296  2.4106 -2.4004  0.1459
  460MOL0     H62080   6.198   5.387   5.530 -1.2792  2.1123 -0.5263
  460MOL0     H62081   6.353   5.453   5.568 -2.0145 -1.4142  2.6420
  460MOL0     H62082   5.962   6.288   4.948  1.4106 -0.9201  1.2546
  460MOL0     H62083   5.969   6.484   4.830 -0.3171 -0.0143  0.4048
  460MOL0     H62084   5.924   6.935   4.761 -1.2853 -2.2775  2.2365
  460MOL0     H62085   5.896   7.176   4.699 -0.9330 -1.4902  1.0645
  460MOL0     H62086   4.983   8.706   4.378  0.1950 -1.0108  0.3236
  460MOL0     H62087   4.901   8.791   4.169  0.8264  0.0585  1.4667
  460MOL0     H62088   4.591   8.454   3.760 -3.0308  3.4892  4.2978
  460MOL0     H62089   4.549   8.453   3.541 -1.1669  0.5215 -0.4761
  460MOL0     H62090   4.798   8.719   3.284  0.3334  0.2957 -0.1111
  460MOL0     H62091   4.702   8.659   3.174  1.4166  1.2552 -1.2019
  460MOL0     H62092   4.711   8.923   3.268  0.7295 -1.1557 -1.8119
  460MOL0     H62093   4.550   8.873   3.334  0.4213 -0.1871  0.5288
  460MOL0     H62094   4.552   8.778   3.062  3.4758 -0.9864  1.4202
  460MOL0     H62095   4.682   8.899   3.058  1.6341  1.5522  2.9003
  460MOL0     H62096   4.391   8.918   3.096 -1.4471  2.2411 -1.5911
  460MOL0     H62097   4.481   8.998   2.965 -1.3261  4.5335 -0.2974
  460MOL0     H62098   4.461   9.310   3.253 -2.2362  0.0302  0.1534
  460MOL0     H62099   4.764   8.821   3.486 -1.0385 -2.4690 -1.7714
  460MOL0     H62100   4.846   8.804   3.726 -0.2696  0.5180  1.1207
  461MOL0     O62101  10.618   1.432  10.079 -0.0863 -0.4533 -0.3052
  461MOL0     C62102  10.732   1.475  10.092 -0.4815 -0.2482  0.7490
  461MOL0     O62103  10.803   1.546   9.990  1.1126  0.2194 -0.2428
  461MOL0     C62104  10.745   1.585   9.870  0.7533 -0.5505 -0.4965
  461MOL0     C62105  10.841   1.591   9.768  0.1756  0.1082  0.1454
  461MOL0     C62106  10.810   1.639   9.641 -0.2130 -0.2080  0.8789
  461MOL0     C62107  10.684   1.687   9.621  0.0565 -0.3049 -0.3513
  461MOL0     O62108  10.642   1.732   9.499 -0.3373  0.2180  0.7278
  461MOL0     C62109  10.621   1.624   9.408 -1.0634 -0.4820  1.1555
  461MOL0     C62110  10.559   1.658   9.268  0.5158 -0.1568 -0.1250
  461MOL0     C62111  10.594   1.789   9.201 -0.0286 -0.2353  0.5058
  461MOL0     C62112  10.754   1.798   9.178 -0.2712 -0.3542  0.5150
  461MOL0     C62113  10.795   1.941   9.137 -0.2769  0.3704  1.4022
  461MOL0     C62114  10.948   1.947   9.100  0.2536 -0.4053 -0.3014
  461MOL0     C62115  11.046   1.855   9.163 -0.1780  1.4402 -0.8232
  461MOL0     C62116  11.183   1.874   9.108 -0.1739  0.0156  0.5961
  461MOL0     N62117  11.267   1.958   9.201  0.0558  0.0253 -0.1588
  461MOL0     C62118  11.228   2.074   9.266  1.4195  0.8142  0.3854
  461MOL0     C62119  11.322   2.104   9.350  1.0843  0.4653 -0.1719
  461MOL0     C62120  11.305   2.209   9.463 -0.5593 -0.4130  0.1105
  461MOL0     C62121  11.383   2.185   9.599 -0.5558 -0.0187  0.4195
  461MOL0     C62122  11.521   2.237   9.594  0.2380  0.2654  0.5951
  461MOL0     C62123  11.532   2.385   9.650 -0.1650 -0.6372  0.3203
  461MOL0     O62124  11.470   2.399   9.777  0.0553  0.2819 -0.1348
  461MOL0     C62125  11.440   2.526   9.818 -0.2247 -0.6068  0.2164
  461MOL0     C62126  11.345   2.540   9.922 -0.4151 -0.7000 -0.0028
  461MOL0     C62127  11.323   2.671   9.974  0.0538 -0.0006  0.2789
  461MOL0     C62128  11.211   2.670  10.078 -0.8118 -0.9720 -0.1811
  461MOL0     C62129  11.380   2.792   9.926  1.1172 -0.4448  0.0723
  461MOL0     C62130  11.365   2.932   9.989  0.2035 -0.4224 -0.2412
  461MOL0     O62131  11.299   2.950  10.114  0.5439  0.5072 -0.1628
  461MOL0     C62132  11.301   3.068  10.183  0.6631 -0.1001  0.3374
  461MOL0     C62133  11.176   3.117  10.229 -0.3582  0.7852  0.2547
  461MOL0     C62134  11.165   3.223  10.311  0.2323 -0.1662  0.9001
  461MOL0     C62135  11.274   3.291  10.363 -0.0462  0.5914  0.2601
  461MOL0     O62136  11.265   3.408  10.438  0.2479 -0.0693 -0.1835
  461MOL0     C62137  11.148   3.418  10.527  0.2095  1.1171  0.7087
  461MOL0     C62138  11.173   3.537  10.619  0.3144 -0.4725  0.0179
  461MOL0     C62139  11.065   3.537  10.734 -0.6933  0.0207 -0.5406
  461MOL0     C62140  11.117   3.610  10.851 -0.4629 -0.0401 -0.5530
  461MOL0     C62141  11.027   3.590  10.972  0.7933 -0.0619 -0.2368
  461MOL0     C62142  11.036   3.716  11.061 -0.3294 -0.7188  0.7642
  461MOL0     C62143  10.898   3.748  11.116  0.3310  0.2902 -0.3758
  461MOL0     C62144  10.896   3.896  11.135  1.5480 -0.6218  0.4703
  461MOL0    Cl62145  11.018   3.962  11.260  0.1654  0.3591  0.3369
  461MOL0     C62146  11.402   3.243  10.321  0.6869 -0.5764  0.7148
  461MOL0     C62147  11.408   3.135  10.236 -0.9892 -0.9386  0.4940
  461MOL0     O62148  11.413   3.023   9.914  0.5743 -0.1680 -0.0971
  461MOL0     C62149  11.473   2.765   9.819 -0.5767 -0.0384 -0.8700
  461MOL0     C62150  11.510   2.638   9.769 -0.1925 -0.1287 -0.3275
  461MOL0     N62151  11.426   2.018   9.334 -0.3121  0.3351  0.6802
  461MOL0     N62152  11.398   1.931   9.241  1.3416  0.1910  0.0851
  461MOL0     C62153  10.586   1.681   9.719 -0.4583  0.2016  0.2172
  461MOL0     C62154  10.608   1.628   9.840 -0.2621 -0.6233 -0.3107
  461MOL0     C62155  10.815   1.429  10.208  0.0356 -0.5170 -0.0155
  461MOL0     C62156  10.948   1.468  10.216 -0.2162 -0.0599  0.4001
  461MOL0     C62157  11.026   1.410  10.322 -0.4260  0.5284  0.7194
  461MOL0     C62158  10.979   1.314  10.411  0.9317 -0.1621  0.0654
  461MOL0     O62159  11.059   1.256  10.502  0.5696 -0.3078 -0.0809
  461MOL0     C62160  11.112   1.344  10.604  0.5865 -0.1198 -0.1060
  461MOL0     C62161  11.086   1.281  10.742  0.6114 -0.4964  0.8158
  461MOL0     C62162  10.949   1.223  10.777 -0.6533 -0.2000  0.7419
  461MOL0     C62163  10.830   1.314  10.779  0.6061 -0.5563  0.3414
  461MOL0     C62164  10.794   1.345  10.922  1.1462  0.0326  0.6428
  461MOL0     C62165  10.737   1.371  11.025 -0.3628  0.0136  0.4403
  461MOL0     C62166  10.842   1.299  10.405 -0.4651 -0.3461  0.3849
  461MOL0     C62167  10.765   1.345  10.310  1.8183 -0.4559 -0.7174
  461MOL0     H62168  10.941   1.556   9.790  0.2996 -1.9710 -3.0367
  461MOL0     H62169  10.878   1.639   9.557 -1.8693 -0.6496 -0.5389
  461MOL0     H62170  10.725   1.601   9.383 -0.5955  2.2737  0.2623
  461MOL0     H62171  10.572   1.543   9.464 -1.0559 -2.4299 -1.4770
  461MOL0     H62172  10.579   1.575   9.201 -2.0398 -1.1816  0.2629
  461MOL0     H62173  10.451   1.650   9.284  0.2600  1.5637 -0.7608
  461MOL0     H62174  10.547   1.801   9.103  2.4752  2.8526 -0.4870
  461MOL0     H62175  10.555   1.871   9.262 -0.7680  0.5833 -0.9884
  461MOL0     H62176  10.806   1.755   9.265 -1.8990 -1.1574  1.1186
  461MOL0     H62177  10.791   1.738   9.094  0.8830  1.5383 -0.4010
  461MOL0     H62178  10.728   1.992   9.068 -0.4596 -1.3719  0.2336
  461MOL0     H62179  10.777   2.002   9.227 -0.8750  0.4415  1.2369
  461MOL0     H62180  10.954   1.932   8.992  0.3275  2.2945 -0.7346
  461MOL0     H62181  10.978   2.048   9.129 -0.0523  0.3319 -2.4051
  461MOL0     H62182  11.032   1.857   9.272  2.5490  0.4598 -0.3659
  461MOL0     H62183  11.027   1.752   9.132  2.5360  0.9619 -1.1217
  461MOL0     H62184  11.172   1.952   9.033  0.4338  4.2362  4.4189
  461MOL0     H62185  11.244   1.791   9.071  0.4730  0.0576  1.5267
  461MOL0     H62186  11.135   2.130   9.259  2.0148  1.7072 -0.7226
  461MOL0     H62187  11.323   2.311   9.426  0.6529  0.0681  1.8543
  461MOL0     H62188  11.203   2.207   9.501 -0.8916  2.4239 -0.4120
  461MOL0     H62189  11.384   2.077   9.617  2.3869  0.0336  1.2337
  461MOL0     H62190  11.334   2.225   9.688 -2.4308 -1.8344  0.2764
  461MOL0     H62191  11.557   2.246   9.491 -1.4094 -1.2081 -0.1548
  461MOL0     H62192  11.597   2.175   9.643  0.9428 -0.1308 -0.9243
  461MOL0     H62193  11.486   2.456   9.581 -0.1413 -1.7429 -0.8788
  461MOL0     H62194  11.638   2.410   9.664  0.1835 -0.0191 -2.6390
  461MOL0     H62195  11.306   2.448   9.963  0.6136 -0.0383  2.7539
  461MOL0     H62196  11.174   2.570  10.100  1.0689 -1.4603  1.0718
  461MOL0     H62197  11.256   2.706  10.171 -0.5831 -0.4562 -0.4881
  461MOL0     H62198  11.130   2.733  10.040 -3.8959 -5.1427 -1.1258
  461MOL0     H62199  11.085   3.069  10.195  1.2129 -0.6316 -2.2756
  461MOL0     H62200  11.065   3.249  10.342 -1.3612 -2.1706 -2.0843
  461MOL0     H62201  11.053   3.438  10.478 -0.1482 -1.1015  0.3652
  461MOL0     H62202  11.130   3.329  10.589 -1.8364 -0.0277 -1.4004
  461MOL0     H62203  11.274   3.527  10.660  0.0741  2.5824  1.6255
  461MOL0     H62204  11.167   3.630  10.561  1.8928 -1.6462 -2.2110
  461MOL0     H62205  11.043   3.431  10.748  3.7464 -1.0507 -0.2419
  461MOL0     H62206  10.974   3.594  10.713 -2.2541 -1.8855  0.7335
  461MOL0     H62207  11.218   3.569  10.861  0.0739  0.8877 -1.9550
  461MOL0     H62208  11.123   3.719  10.849 -2.0795  0.1907  2.0997
  461MOL0     H62209  11.056   3.505  11.036 -2.3691  1.1695  3.2231
  461MOL0     H62210  10.926   3.558  10.944  0.7764 -2.0290  1.7715
  461MOL0     H62211  11.098   3.703  11.150 -0.4268 -2.7279  0.5907
  461MOL0     H62212  11.065   3.808  11.011 -3.6806 -0.1605 -0.4400
  461MOL0     H62213  10.872   3.705  11.213 -0.2523 -0.8764 -1.0256
  461MOL0     H62214  10.817   3.727  11.045  2.0156  1.2454 -2.7400
  461MOL0     H62215  10.798   3.926  11.172  2.7253  1.6655  1.9832
  461MOL0     H62216  10.902   3.937  11.033 -4.1690 -0.1938 -0.0116
  461MOL0     H62217  11.496   3.289  10.348  0.4770  0.0072  0.4711
  461MOL0     H62218  11.512   3.113  10.214 -0.4894  1.6809 -0.1075
  461MOL0     H62219  11.527   2.847   9.772 -3.8806  2.2308 -1.0588
  461MOL0     H62220  11.586   2.653   9.692 -0.0648  2.3818  0.1871
  461MOL0     H62221  10.488   1.715   9.689 -0.8731  0.1574  1.4791
  461MOL0     H62222  10.534   1.618   9.918  0.2359 -1.4038  0.0715
  461MOL0     H62223  10.999   1.534  10.147  1.8622 -0.3300  1.6060
  461MOL0     H62224  11.127   1.449  10.316 -1.0889  2.0954 -1.8089
  461MOL0     H62225  11.221   1.356  10.608  0.6557 -0.2421 -1.2296
  461MOL0     H62226  11.075   1.446  10.588  2.0519  0.0878 -2.6965
  461MOL0     H62227  11.115   1.353  10.819 -1.0759  0.4969  0.5575
  461MOL0     H62228  11.148   1.191  10.736 -0.8396 -1.4544 -3.1797
  461MOL0     H62229  10.950   1.162  10.868 -1.2724 -2.9304 -0.9460
  461MOL0     H62230  10.926   1.145  10.703 -3.3905  1.3446 -0.1957
  461MOL0     H62231  10.751   1.253  10.735  0.8027  0.1246 -0.9947
  461MOL0     H62232  10.842   1.402  10.716 -3.1241 -0.3771 -0.3140
  461MOL0     H62233  10.685   1.389  11.117 -1.3984 -4.3837  0.9695
  461MOL0     H62234  10.796   1.240  10.484  0.4282  0.3186  1.4457
  461MOL0     H62235  10.665   1.305  10.306  0.3311  2.8540  0.1401
  462MOL0     O62236   7.611   0.216  10.929 -0.3497  0.4510  0.2730
  462MOL0     C62237   7.645   0.304  10.848  0.3257  0.5313 -0.4565
  462MOL0     O62238   7.570   0.410  10.814  0.8078 -0.1380 -0.0090
  462MOL0     C62239   7.438   0.398  10.778 -0.1812  0.6458  0.0515
  462MOL0     C62240   7.343   0.303  10.829  0.1963 -0.1031 -0.2904
  462MOL0     C62241   7.204   0.310  10.797 -0.0845  0.8690 -1.0318
  462MOL0     C62242   7.153   0.412  10.715  0.1969 -0.0303  0.7456
  462MOL0     O62243   7.033   0.407  10.659  0.9200  0.1069  0.6423
  462MOL0     C62244   6.938   0.497  10.703 -0.3465 -0.8981 -0.4153
  462MOL0     C62245   6.809   0.421  10.736 -0.2659 -0.6174 -0.1543
  462MOL0     C62246   6.833   0.340  10.866 -0.4253 -1.3314 -0.3868
  462MOL0     C62247   6.698   0.301  10.896  0.1177  0.2956 -0.0855
  462MOL0     C62248   6.691   0.212  11.017  0.3714 -0.5848  0.1805
  462MOL0     C62249   6.668   0.300  11.146  0.9160  0.4607  0.3223
  462MOL0     C62250   6.717   0.224  11.272  0.6460 -0.4066 -0.2848
  462MOL0     C62251   6.699   0.311  11.393  0.0664  0.2274 -0.6761
  462MOL0     N62252   6.707   0.242  11.523 -0.3440 -0.3232  0.2818
  462MOL0     C62253   6.817   0.166  11.565  0.6104  0.3419 -0.0711
  462MOL0     C62254   6.783   0.137  11.691  0.3283 -0.3899  0.3019
  462MOL0     C62255   6.861   0.036  11.767  0.3175 -0.2814 -0.7268
  462MOL0     C62256   6.949   0.074  11.882  0.1060  0.6011  0.4678
  462MOL0     C62257   7.000   0.225  11.876 -0.3184  0.1495  0.3264
  462MOL0     C62258   7.112   0.242  11.776  0.1292 -0.3533 -0.5553
  462MOL0     O62259   7.124   0.384  11.753 -0.2287  0.0999 -0.0583
  462MOL0     C62260   7.241   0.444  11.785  0.6139  0.5555 -1.0546
  462MOL0     C62261   7.354   0.469  11.705 -0.0067  0.6779 -0.4145
  462MOL0     C62262   7.466   0.542  11.747 -0.0226 -0.1096 -1.3480
  462MOL0     C62263   7.571   0.564  11.647  0.3849 -0.7349 -0.0127
  462MOL0     C62264   7.476   0.594  11.881  0.7924  0.2101  0.2288
  462MOL0     C62265   7.586   0.667  11.927  0.2635 -0.3127 -0.5508
  462MOL0     O62266   7.563   0.757  12.015 -0.3008  0.3138 -0.1440
  462MOL0     C62267   7.639   0.879  12.009 -0.1826  1.3263 -0.3145
  462MOL0     C62268   7.656   0.950  12.129 -0.2157 -0.5422 -0.0624
  462MOL0     C62269   7.726   1.065  12.137  0.3679  1.1826  0.5716
  462MOL0     C62270   7.793   1.113  12.020  0.3022 -0.3778 -0.1277
  462MOL0     O62271   7.867   1.228  12.039  0.9365 -0.6969 -0.1869
  462MOL0     C62272   7.939   1.277  11.929 -0.4042 -0.3530 -0.3954
  462MOL0     C62273   8.002   1.406  11.966 -0.3471 -0.9534  0.0576
  462MOL0     C62274   7.929   1.527  11.905  0.2710 -0.4961 -0.0281
  462MOL0     C62275   7.989   1.661  11.947 -0.3471 -0.6937  0.4172
  462MOL0     C62276   7.934   1.781  11.872 -0.1698  0.1688  0.3232
  462MOL0     C62277   8.007   1.895  11.932  0.5126  0.0637  0.0098
  462MOL0     C62278   7.971   2.018  11.851 -0.3991  0.3679  0.1855
  462MOL0     C62279   8.018   2.137  11.933 -0.5467  0.0934 -0.0573
  462MOL0    Cl62280   7.900   2.170  12.068  0.1404  0.1911 -0.3694
  462MOL0     C62281   7.786   1.036  11.899 -0.9021  0.2983 -0.6084
  462MOL0     C62282   7.702   0.926  11.891  0.0749 -0.2408 -0.0604
  462MOL0     O62283   7.697   0.620  11.897 -0.1697 -0.4657  0.0742
  462MOL0     C62284   7.364   0.573  11.959 -0.4585 -0.4560 -0.4882
  462MOL0     C62285   7.252   0.489  11.917 -0.7137  0.2469 -0.3520
  462MOL0     N62286   6.655   0.196  11.729 -1.0744  0.3163  0.8668
  462MOL0     N62287   6.614   0.252  11.620  0.0833  0.4973  0.3972
  462MOL0     C62288   7.249   0.502  10.661 -0.4287 -0.7219  0.0193
  462MOL0     C62289   7.387   0.501  10.703  0.4769  0.7402  0.1773
  462MOL0     C62290   7.780   0.293  10.790  0.2307 -0.0834  0.1897
  462MOL0     C62291   7.830   0.390  10.706  0.6493 -0.3146  0.1208
  462MOL0     C62292   7.957   0.376  10.654 -0.3847  0.1088  0.0229
  462MOL0     C62293   8.033   0.257  10.668 -0.0031 -0.8514 -0.4930
  462MOL0     O62294   8.164   0.248  10.620  0.1235  0.6263  0.3681
  462MOL0     C62295   8.267   0.189  10.703  0.8178 -1.1818  0.3455
  462MOL0     C62296   8.297   0.272  10.830 -0.5305 -0.8613  0.2920
  462MOL0     C62297   8.346   0.420  10.814  0.5538  0.6846  0.4261
  462MOL0     C62298   8.432   0.470  10.929  0.3032  0.2141  0.2226
  462MOL0     C62299   8.373   0.464  11.062 -0.2131  1.1113 -0.9035
  462MOL0     C62300   8.339   0.463  11.179 -1.2795 -0.3841  0.0916
  462MOL0     C62301   7.987   0.157  10.753  0.3917 -0.9415 -0.4387
  462MOL0     C62302   7.854   0.175  10.795  0.1244  0.1960  0.1686
  462MOL0     H62303   7.368   0.218  10.892 -0.9609  1.2493  2.1567
  462MOL0     H62304   7.144   0.236  10.848  2.2962  0.5509  1.5658
  462MOL0     H62305   6.976   0.551  10.790  1.3724  0.8298 -2.1397
  462MOL0     H62306   6.930   0.578  10.629  2.5208  1.5253  1.6728
  462MOL0     H62307   6.730   0.495  10.753 -0.2326  0.2361 -3.1821
  462MOL0     H62308   6.772   0.351  10.661 -2.0779  1.8159 -1.7061
  462MOL0     H62309   6.900   0.254  10.852  0.9298 -0.0829 -1.9419
  462MOL0     H62310   6.849   0.415  10.943 -3.9723  1.2425 -1.8707
  462MOL0     H62311   6.643   0.391  10.924  0.7075 -0.0772  2.5747
  462MOL0     H62312   6.647   0.247  10.816 -1.6969 -0.4682  1.5018
  462MOL0     H62313   6.616   0.133  11.003  3.9029 -3.6771 -3.9216
  462MOL0     H62314   6.786   0.162  11.032 -0.1178 -0.6801  3.8605
  462MOL0     H62315   6.731   0.389  11.154  0.9793  0.3049  1.7982
  462MOL0     H62316   6.562   0.327  11.146  1.5156  2.9998  0.5109
  462MOL0     H62317   6.654   0.136  11.284  1.9723 -1.0540  3.1675
  462MOL0     H62318   6.820   0.190  11.256  1.4904  1.6680  0.3939
  462MOL0     H62319   6.599   0.356  11.387  0.0267  0.1959 -0.3114
  462MOL0     H62320   6.766   0.397  11.392  0.0004  0.3010  0.3007
  462MOL0     H62321   6.898   0.120  11.510  0.4245  1.1502 -1.0456
  462MOL0     H62322   6.789  -0.043  11.793  0.9845  0.1952  3.1306
  462MOL0     H62323   6.927  -0.024  11.703  2.5940 -0.3597  1.5277
  462MOL0     H62324   7.031   0.003  11.892  0.8318  1.4769  0.8918
  462MOL0     H62325   6.895   0.065  11.977 -1.3662 -3.0319 -0.5378
  462MOL0     H62326   7.036   0.251  11.977  0.1221  0.6657  0.0430
  462MOL0     H62327   6.916   0.288  11.846  0.3428  1.1466  0.5166
  462MOL0     H62328   7.081   0.195  11.682 -1.0897 -0.2549 -0.2246
  462MOL0     H62329   7.211   0.212  11.810 -1.4228 -2.1644  2.8434
  462MOL0     H62330   7.365   0.432  11.603  3.1220  1.5506 -0.4829
  462MOL0     H62331   7.602   0.669  11.639  0.6719 -0.8531 -0.4882
  462MOL0     H62332   7.655   0.493  11.650  1.0240 -0.0654 -1.1976
  462MOL0     H62333   7.530   0.548  11.547 -0.0205 -1.4373  0.2577
  462MOL0     H62334   7.596   0.905  12.208 -1.0343  0.6731  0.0307
  462MOL0     H62335   7.742   1.112  12.233 -0.2266  1.5089  0.5150
  462MOL0     H62336   8.019   1.208  11.899 -1.0108 -0.3424 -2.1047
  462MOL0     H62337   7.885   1.290  11.835  0.5520 -1.3351 -1.1126
  462MOL0     H62338   8.018   1.415  12.074  0.4818 -0.0920 -0.1216
  462MOL0     H62339   8.093   1.410  11.907 -1.4538  0.2833 -1.6661
  462MOL0     H62340   7.825   1.528  11.939 -0.6398  3.3849 -2.2769
  462MOL0     H62341   7.925   1.515  11.797  2.4231 -0.6295 -0.1314
  462MOL0     H62342   7.987   1.667  12.056 -3.7115  2.6033  0.3555
  462MOL0     H62343   8.092   1.651  11.911 -1.2422 -2.5393 -1.9097
  462MOL0     H62344   7.827   1.794  11.886  0.4143  5.5871  1.9639
  462MOL0     H62345   7.961   1.767  11.767 -0.7494 -3.2981  0.5108
  462MOL0     H62346   7.963   1.896  12.032  0.0421 -4.0698 -0.0010
  462MOL0     H62347   8.115   1.885  11.939  0.5176 -0.5729 -0.7845
  462MOL0     H62348   7.863   2.020  11.834 -0.5057 -2.7641  0.0707
  462MOL0     H62349   8.022   2.002  11.755  0.7195 -3.4440  1.2465
  462MOL0     H62350   8.021   2.235  11.884  1.2898  0.5254  0.8027
  462MOL0     H62351   8.120   2.119  11.969 -0.2617  0.1986 -0.8061
  462MOL0     H62352   7.838   1.064  11.808 -2.3454 -0.3940 -1.6701
  462MOL0     H62353   7.688   0.881  11.793  1.8640  2.1690 -1.5333
  462MOL0     H62354   7.354   0.619  12.057  0.1894 -0.5301 -0.3816
  462MOL0     H62355   7.174   0.485  11.992  0.4625  1.8533  1.0420
  462MOL0     H62356   7.192   0.559  10.588 -2.4797 -2.9933 -0.2733
  462MOL0     H62357   7.447   0.577  10.653 -1.0451  1.6536 -0.3055
  462MOL0     H62358   7.776   0.484  10.702 -0.3353 -0.5108  4.5047
  462MOL0     H62359   8.009   0.461  10.612  0.9171  0.8370  2.8654
  462MOL0     H62360   8.255   0.083  10.729 -2.3136 -1.2904 -1.0980
  462MOL0     H62361   8.359   0.191  10.644  0.2729 -3.7672 -0.7165
  462MOL0     H62362   8.366   0.233  10.906 -3.1895 -2.8815  1.8348
  462MOL0     H62363   8.201   0.298  10.874 -2.3804  0.3149 -3.8765
  462MOL0     H62364   8.266   0.493  10.797  1.7535  1.8527 -0.3955
  462MOL0     H62365   8.408   0.416  10.725 -0.7578  1.3191 -0.5611
  462MOL0     H62366   8.470   0.571  10.913  4.0344 -0.6742  2.3761
  462MOL0     H62367   8.526   0.416  10.927  2.2070  3.1775  1.9661
  462MOL0     H62368   8.323   0.463  11.285 -0.2627 -0.1416  0.2583
  462MOL0     H62369   8.045   0.071  10.785 -0.5075 -0.1034  4.0955
  462MOL0     H62370   7.799   0.087  10.830 -1.3632  0.9613 -0.1669
  463MOL0     O62371   6.341   3.220   8.246 -0.3305  0.3668  0.3997
  463MOL0     C62372   6.387   3.155   8.334  0.4006  0.6287 -0.1541
  463MOL0     O62373   6.513   3.124   8.359  0.0830  0.0222 -0.1862
  463MOL0     C62374   6.613   3.190   8.302 -1.2149 -0.6333 -0.4506
  463MOL0     C62375   6.650   3.169   8.170  1.3224 -1.5469  0.1859
  463MOL0     C62376   6.754   3.243   8.123 -0.7273 -0.2964  0.1334
  463MOL0     C62377   6.832   3.332   8.210  0.0272  0.6431 -0.4407
  463MOL0     O62378   6.944   3.398   8.154  0.5671 -0.2947  0.1020
  463MOL0     C62379   7.012   3.498   8.232 -0.5062 -0.8206  0.1997
  463MOL0     C62380   7.113   3.564   8.147 -0.6267  0.3118  0.9112
  463MOL0     C62381   7.055   3.680   8.060 -0.3647  0.5599 -0.0215
  463MOL0     C62382   6.977   3.785   8.133 -0.3491  0.5565  0.1718
  463MOL0     C62383   6.939   3.903   8.039 -0.6686  1.1596  0.0913
  463MOL0     C62384   7.023   4.022   8.057 -0.8942 -0.9685 -0.3203
  463MOL0     C62385   7.024   4.127   7.941  0.0105 -0.0979  0.8382
  463MOL0     C62386   7.128   4.237   7.946  0.6254 -0.2486  0.5901
  463MOL0     N62387   7.138   4.330   7.833  0.8487 -0.0482 -0.4875
  463MOL0     C62388   7.141   4.287   7.699 -1.1141 -0.2724 -0.1523
  463MOL0     C62389   7.168   4.407   7.625  1.3527  0.6197 -0.3035
  463MOL0     C62390   7.201   4.404   7.472  0.0584 -0.4975  0.5397
  463MOL0     C62391   7.064   4.369   7.402  0.8203  0.5064 -1.0221
  463MOL0     C62392   6.977   4.497   7.392  0.0426 -0.5040 -0.2688
  463MOL0     C62393   6.876   4.499   7.507  1.3108 -0.5899 -0.3677
  463MOL0     O62394   6.778   4.606   7.490  0.3745 -0.3804 -0.7961
  463MOL0     C62395   6.809   4.733   7.534  0.4263 -0.3302  0.3632
  463MOL0     C62396   6.749   4.839   7.465  0.1538  0.5431 -0.6147
  463MOL0     C62397   6.750   4.975   7.505  1.0042  0.6142  0.3783
  463MOL0     C62398   6.680   5.075   7.417 -0.4211  0.4222  0.6737
  463MOL0     C62399   6.823   5.003   7.617  0.3159 -0.4835  0.7216
  463MOL0     C62400   6.824   5.141   7.659 -0.3100 -0.3317  0.2663
  463MOL0     O62401   6.730   5.179   7.749 -0.7536  0.2027 -0.1858
  463MOL0     C62402   6.689   5.311   7.777 -0.1887  0.2764  0.7009
  463MOL0     C62403   6.596   5.340   7.882  0.6792  0.3674  0.8410
  463MOL0     C62404   6.553   5.474   7.907  0.1468 -0.0086 -0.1136
  463MOL0     C62405   6.615   5.583   7.841  0.7656 -0.7224 -0.0472
  463MOL0     O62406   6.578   5.712   7.870  0.3801  0.1518  1.2326
  463MOL0     C62407   6.445   5.749   7.805  0.1535  0.4959 -0.0956
  463MOL0     C62408   6.455   5.897   7.762  0.3684 -1.4869  0.5182
  463MOL0     C62409   6.545   5.930   7.637 -0.3226 -1.0393 -0.1105
  463MOL0     C62410   6.543   6.082   7.606 -0.3715  0.0264  0.6413
  463MOL0     C62411   6.621   6.133   7.485  0.6084  0.8489 -0.4525
  463MOL0     C62412   6.556   6.272   7.449 -0.7946  0.0311 -0.6429
  463MOL0     C62413   6.625   6.386   7.516 -0.3476  0.0013  0.2919
  463MOL0     C62414   6.667   6.492   7.421  0.4727 -1.3215 -0.4531
  463MOL0    Cl62415   6.518   6.563   7.344 -0.0595 -0.5858  0.4554
  463MOL0     C62416   6.702   5.554   7.739 -0.0496  0.2251 -0.1180
  463MOL0     C62417   6.737   5.423   7.703 -0.4977  0.4176  0.2216
  463MOL0     O62418   6.919   5.205   7.619 -0.1689  0.3458  0.0567
  463MOL0     C62419   6.894   4.902   7.691  0.1043  1.0635 -0.9971
  463MOL0     C62420   6.884   4.764   7.647  0.2279  0.6057 -0.3731
  463MOL0     N62421   7.174   4.514   7.710 -0.5695  0.9478  0.5139
  463MOL0     N62422   7.157   4.469   7.832 -0.6140 -0.0819 -1.1469
  463MOL0     C62423   6.796   3.333   8.345 -0.3939 -0.6765 -0.6270
  463MOL0     C62424   6.690   3.263   8.386 -0.0211  0.3584 -0.1439
  463MOL0     C62425   6.296   3.095   8.433  0.6638  1.1074 -0.2591
  463MOL0     C62426   6.163   3.151   8.450 -0.1558  0.0818  0.7523
  463MOL0     C62427   6.081   3.109   8.548 -0.1061  0.0850 -0.9129
  463MOL0     C62428   6.112   2.998   8.627 -0.1755  0.1690  0.0810
  463MOL0     O62429   6.018   2.957   8.728 -0.6109  0.9827 -0.2666
  463MOL0     C62430   6.004   2.824   8.784 -0.6609  0.1632  0.0370
  463MOL0     C62431   5.855   2.804   8.801  0.2233  0.0746 -1.7506
  463MOL0     C62432   5.808   2.901   8.914 -0.7283  0.4864  0.0525
  463MOL0     C62433   5.667   2.887   8.964 -0.6139  0.2648  0.2297
  463MOL0     C62434   5.637   2.768   9.052  0.6263 -0.1351  0.7705
  463MOL0     C62435   5.616   2.670   9.116  0.1824 -0.4619  0.4281
  463MOL0     C62436   6.236   2.942   8.616  0.5588 -0.7320  0.7843
  463MOL0     C62437   6.327   2.975   8.515 -0.2944 -0.6754 -0.1343
  463MOL0     H62438   6.596   3.095   8.112 -2.4763  1.0212  0.1369
  463MOL0     H62439   6.788   3.223   8.021  1.0202 -0.8035  0.7871
  463MOL0     H62440   6.947   3.577   8.271 -0.5669 -0.0354 -1.3890
  463MOL0     H62441   7.065   3.450   8.314  1.6608 -4.1874 -2.8322
  463MOL0     H62442   7.199   3.604   8.202 -0.3329 -0.0554  0.7302
  463MOL0     H62443   7.160   3.487   8.085  2.4967 -0.2174  3.6104
  463MOL0     H62444   7.132   3.742   8.015 -0.9372  2.4621  1.5106
  463MOL0     H62445   6.989   3.644   7.981  0.6197  0.8212 -0.9730
  463MOL0     H62446   6.884   3.732   8.155 -0.2243 -0.4034 -1.4778
  463MOL0     H62447   7.027   3.817   8.225  2.6312 -0.1403 -1.0695
  463MOL0     H62448   6.947   3.869   7.935  0.1717  0.6387  0.3119
  463MOL0     H62449   6.838   3.931   8.070 -0.6517  2.6931 -1.1313
  463MOL0     H62450   7.008   4.070   8.154 -1.2541  2.2090 -1.8069
  463MOL0     H62451   7.128   3.993   8.065 -0.2833 -0.2091 -3.8629
  463MOL0     H62452   7.041   4.082   7.843 -0.4505  0.8455  0.3077
  463MOL0     H62453   6.930   4.178   7.917  1.7017  1.6712 -2.9461
  463MOL0     H62454   7.227   4.194   7.962  1.4815  1.9995  1.7303
  463MOL0     H62455   7.108   4.299   8.034 -1.0722  2.8451 -1.7807
  463MOL0     H62456   7.128   4.185   7.666 -1.5912  0.6702 -3.2294
  463MOL0     H62457   7.239   4.502   7.442  4.0246 -1.3923  1.9234
  463MOL0     H62458   7.283   4.335   7.448  1.2287  1.0191  0.0724
  463MOL0     H62459   7.014   4.288   7.455  2.7908  1.1691  2.1574
  463MOL0     H62460   7.086   4.333   7.300  2.1788  1.2330 -1.0174
  463MOL0     H62461   6.931   4.492   7.293  1.6216 -0.2370 -1.0454
  463MOL0     H62462   7.036   4.589   7.401  0.9725 -0.7590 -2.8572
  463MOL0     H62463   6.934   4.506   7.599  1.6202  1.2798 -0.6609
  463MOL0     H62464   6.821   4.405   7.497 -1.8553  1.0211  0.6404
  463MOL0     H62465   6.700   4.794   7.380 -2.0644  1.1197  0.2813
  463MOL0     H62466   6.615   5.011   7.357 -0.0921  0.0268  0.7393
  463MOL0     H62467   6.622   5.139   7.485  1.0275  0.6447  1.7437
  463MOL0     H62468   6.740   5.141   7.353  0.2714 -1.4007 -0.6269
  463MOL0     H62469   6.550   5.255   7.933  2.2893 -1.7170 -0.9763
  463MOL0     H62470   6.469   5.504   7.970 -0.0483 -1.2629  0.2593
  463MOL0     H62471   6.416   5.682   7.723 -0.1450 -0.0392  0.4347
  463MOL0     H62472   6.372   5.728   7.884  1.3624 -1.3643  0.5990
  463MOL0     H62473   6.356   5.940   7.744  1.7239  1.3385 -0.7258
  463MOL0     H62474   6.477   5.959   7.849 -3.0321 -0.1244  0.5905
  463MOL0     H62475   6.523   5.867   7.551 -0.1779 -0.1391 -0.8277
  463MOL0     H62476   6.646   5.903   7.669  0.8936  3.4455  0.6347
  463MOL0     H62477   6.438   6.113   7.609 -1.1910 -2.3425 -0.9547
  463MOL0     H62478   6.591   6.138   7.686 -0.6130  1.5420 -0.2140
  463MOL0     H62479   6.612   6.064   7.401 -0.2915 -0.7585  0.9109
  463MOL0     H62480   6.728   6.137   7.508  1.2705  0.1055 -3.0703
  463MOL0     H62481   6.575   6.284   7.342  1.4466  0.1048 -0.2676
  463MOL0     H62482   6.447   6.279   7.457 -1.3026 -1.2108 -4.3567
  463MOL0     H62483   6.715   6.353   7.569  0.5069 -1.6206 -1.9849
  463MOL0     H62484   6.545   6.427   7.578 -2.5165 -0.4675 -2.0382
  463MOL0     H62485   6.726   6.442   7.344 -0.0838 -0.1973 -1.6493
  463MOL0     H62486   6.731   6.568   7.467  4.0553 -3.0351 -2.1968
  463MOL0     H62487   6.744   5.639   7.686  1.1205 -1.8799 -2.8513
  463MOL0     H62488   6.788   5.406   7.608 -0.4721  3.1179 -0.3285
  463MOL0     H62489   6.952   4.949   7.770 -1.5098  1.5626 -0.0606
  463MOL0     H62490   6.945   4.697   7.707  0.5820  0.1647 -1.2014
  463MOL0     H62491   6.842   3.398   8.420  3.5604 -2.5260 -1.1798
  463MOL0     H62492   6.674   3.259   8.493  0.8013  0.9844  0.0152
  463MOL0     H62493   6.128   3.225   8.377  1.1701 -2.4673 -2.7483
  463MOL0     H62494   5.985   3.158   8.562 -1.1514 -1.4987 -2.1720
  463MOL0     H62495   6.053   2.755   8.715  2.0858  0.0028  2.0070
  463MOL0     H62496   6.059   2.826   8.878 -1.2125  2.9075  0.3734
  463MOL0     H62497   5.831   2.702   8.831  0.8680 -0.1467 -1.9773
  463MOL0     H62498   5.808   2.831   8.705  3.0133 -0.9676 -3.5213
  463MOL0     H62499   5.829   3.001   8.876  2.8747 -0.7821 -1.7076
  463MOL0     H62500   5.868   2.889   9.005  1.3203  2.1115 -0.9942
  463MOL0     H62501   5.596   2.894   8.881  0.7068 -0.7062 -1.0256
  463MOL0     H62502   5.655   2.977   9.025 -0.9107  0.3422  0.0589
  463MOL0     H62503   5.587   2.587   9.177  0.2210 -2.2430 -1.8351
  463MOL0     H62504   6.255   2.849   8.668  2.2689 -0.3022  0.9933
  463MOL0     H62505   6.418   2.920   8.493 -0.5979 -0.0545 -3.4521
  464MOL0     O62506   9.029   2.337  10.817  0.2978  0.0774  0.1245
  464MOL0     C62507   9.061   2.243  10.893  1.1151 -0.0637  0.7161
  464MOL0     O62508   9.173   2.226  10.960  0.0667 -0.1812 -0.6413
  464MOL0     C62509   9.277   2.298  10.906  1.2834 -0.7376 -0.3400
  464MOL0     C62510   9.374   2.233  10.827  0.4564 -1.0664 -0.1040
  464MOL0     C62511   9.479   2.303  10.770  0.0342  0.3572 -0.1095
  464MOL0     C62512   9.504   2.437  10.805  1.1209 -0.2965  0.0442
  464MOL0     O62513   9.616   2.491  10.759 -0.5387  0.1293 -0.4467
  464MOL0     C62514   9.612   2.592  10.657 -0.6329 -0.4930  0.1273
  464MOL0     C62515   9.745   2.662  10.644 -0.1615 -0.3371 -0.0670
  464MOL0     C62516   9.751   2.772  10.539  0.9224  0.8748  0.6823
  464MOL0     C62517   9.886   2.807  10.479  0.4234  0.4273  0.4012
  464MOL0     C62518   9.867   2.918  10.374 -0.6357  0.9327 -0.3359
  464MOL0     C62519   9.996   2.981  10.335 -0.5052  0.1533  1.0767
  464MOL0     C62520   9.978   3.087  10.226  0.5244 -0.0041  0.8620
  464MOL0     C62521   9.921   3.212  10.277 -0.0080  0.8462 -0.8952
  464MOL0     N62522   9.937   3.342  10.207  0.2463  0.8447  0.1398
  464MOL0     C62523   9.861   3.362  10.087  0.0080  0.0642 -0.0995
  464MOL0     C62524   9.934   3.451  10.021  0.8303 -0.2212 -0.1345
  464MOL0     C62525   9.922   3.491   9.886 -0.4464  0.3000  0.6238
  464MOL0     C62526   9.835   3.633   9.873 -0.2616 -0.3365  0.3071
  464MOL0     C62527   9.918   3.755   9.937 -0.0457  0.5338  0.6426
  464MOL0     C62528   9.840   3.882   9.909  0.0891  0.3286  0.0982
  464MOL0     O62529   9.901   3.995   9.968  0.2124  0.5146  0.0594
  464MOL0     C62530   9.850   4.119   9.945 -0.6788  0.4566  0.6075
  464MOL0     C62531   9.921   4.229  10.002 -0.4532  0.1789 -0.2681
  464MOL0     C62532   9.873   4.364   9.994  0.0994  0.5300  1.1333
  464MOL0     C62533   9.962   4.469  10.053 -0.2654  0.8855  0.4931
  464MOL0     C62534   9.752   4.385   9.909 -0.7554  0.0468 -0.8273
  464MOL0     C62535   9.697   4.520   9.881 -0.2847 -1.0063  0.7424
  464MOL0     O62536   9.749   4.618   9.953 -0.1508 -0.0371  0.5661
  464MOL0     C62537   9.701   4.751   9.939 -0.3414 -0.1464  0.1282
  464MOL0     C62538   9.656   4.818  10.058 -1.1568 -0.3819  0.2324
  464MOL0     C62539   9.623   4.961  10.043  0.0946  0.9996  0.2201
  464MOL0     C62540   9.614   5.017   9.918 -0.3559 -0.1328  0.3178
  464MOL0     O62541   9.592   5.154   9.907  0.1792  1.6157  0.5462
  464MOL0     C62542   9.476   5.185   9.825  0.0339  0.4894 -0.1486
  464MOL0     C62543   9.413   5.325   9.864  0.4786  1.1039  1.0394
  464MOL0     C62544   9.504   5.447   9.835  0.4159 -0.4368  0.0640
  464MOL0     C62545   9.432   5.581   9.845  0.1769 -0.9452  1.1973
  464MOL0     C62546   9.519   5.701   9.789  0.2823 -0.2053  0.3896
  464MOL0     C62547   9.633   5.741   9.891 -0.0741 -0.7512  0.4056
  464MOL0     C62548   9.702   5.876   9.873 -0.1086  0.9585  0.1612
  464MOL0     C62549   9.801   5.866   9.747  0.0873 -1.0561  0.0063
  464MOL0    Cl62550   9.885   6.025   9.759  0.3338  0.1854 -0.0072
  464MOL0     C62551   9.662   4.954   9.803 -1.2155  0.6090  1.1865
  464MOL0     C62552   9.702   4.819   9.813 -0.6232 -0.7249 -0.0398
  464MOL0     O62553   9.611   4.537   9.799 -0.0187  0.0693  0.3206
  464MOL0     C62554   9.688   4.274   9.854  0.0283  0.0696  0.0063
  464MOL0     C62555   9.732   4.144   9.875 -0.0862 -0.5684  0.0199
  464MOL0     N62556  10.039   3.501  10.104  1.1101  0.9454 -0.3181
  464MOL0     N62557  10.038   3.432  10.217  0.5500  0.7806  1.2131
  464MOL0     C62558   9.407   2.503  10.882 -0.1860  0.6623 -0.0895
  464MOL0     C62559   9.290   2.433  10.932 -1.0891  0.7495  1.2569
  464MOL0     C62560   8.953   2.154  10.946  0.2595 -0.3977 -0.0688
  464MOL0     C62561   8.831   2.141  10.873  0.0222 -0.6272  0.4318
  464MOL0     C62562   8.729   2.070  10.928  0.7016  0.0293  0.3819
  464MOL0     C62563   8.739   2.012  11.056 -0.1336  0.3464 -0.2124
  464MOL0     O62564   8.626   1.954  11.109 -0.3959 -0.1651 -0.2005
  464MOL0     C62565   8.535   2.054  11.171 -0.2156  1.0732  0.5503
  464MOL0     C62566   8.555   2.068  11.326  0.2010  0.6698 -0.4894
  464MOL0     C62567   8.448   2.161  11.385 -0.0155 -0.5911  0.2712
  464MOL0     C62568   8.394   2.107  11.518  0.9600  0.1943  0.3892
  464MOL0     C62569   8.281   2.184  11.564 -0.0685 -0.4904  0.4011
  464MOL0     C62570   8.183   2.251  11.606  0.0991 -0.1537  0.2396
  464MOL0     C62571   8.868   2.015  11.118 -0.9942 -0.2739 -1.1737
  464MOL0     C62572   8.975   2.078  11.063  0.3753  0.1500 -0.3065
  464MOL0     H62573   9.354   2.129  10.804 -0.5896 -1.1910  1.2513
  464MOL0     H62574   9.544   2.259  10.695  0.9621  2.5011 -0.6270
  464MOL0     H62575   9.583   2.550  10.560  0.3409 -1.5045  0.2516
  464MOL0     H62576   9.537   2.666  10.685 -0.7600  0.0083 -1.4577
  464MOL0     H62577   9.769   2.692  10.747  2.0504 -2.9654  0.3117
  464MOL0     H62578   9.814   2.580  10.622 -2.0446 -2.2251  0.7853
  464MOL0     H62579   9.701   2.737  10.448 -0.2391  1.2850  1.1480
  464MOL0     H62580   9.699   2.861  10.575  1.6590  1.4478  0.3456
  464MOL0     H62581   9.946   2.836  10.566  0.5862 -3.6573  1.8361
  464MOL0     H62582   9.926   2.714  10.439  0.5922  1.2106 -1.3542
  464MOL0     H62583   9.802   2.879  10.295 -1.8986  2.6505 -0.2168
  464MOL0     H62584   9.807   2.998  10.419  0.0661  0.9554  0.6000
  464MOL0     H62585  10.055   3.032  10.412  0.5212  2.2022 -0.9541
  464MOL0     H62586  10.066   2.903  10.302  0.9508  2.3101 -1.3087
  464MOL0     H62587  10.073   3.119  10.183  0.4835 -1.6665 -0.5606
  464MOL0     H62588   9.919   3.062  10.138  1.7932 -0.2381  0.0576
  464MOL0     H62589   9.968   3.223  10.375 -2.5453  1.4669  0.3160
  464MOL0     H62590   9.814   3.192  10.281  0.5484 -2.6445 -0.0207
  464MOL0     H62591   9.771   3.313  10.053  0.9656 -0.5791 -1.8245
  464MOL0     H62592  10.022   3.518   9.850 -2.2216  3.5672 -2.5298
  464MOL0     H62593   9.880   3.414   9.821 -0.8504 -2.8564  4.2961
  464MOL0     H62594   9.737   3.625   9.923 -1.0600  1.4210 -0.8512
  464MOL0     H62595   9.824   3.661   9.768 -1.9620  0.7002  0.7049
  464MOL0     H62596  10.011   3.770   9.881 -0.3931 -1.7820 -0.6788
  464MOL0     H62597   9.939   3.744  10.044 -0.4587 -1.3415  0.5699
  464MOL0     H62598   9.734   3.875   9.935 -0.4228 -0.3605 -2.0114
  464MOL0     H62599   9.853   3.897   9.802  0.8648 -0.5195  0.0594
  464MOL0     H62600  10.014   4.216  10.058 -0.4505 -1.3683 -0.5740
  464MOL0     H62601   9.911   4.537  10.122 -0.6877  0.3796  0.6824
  464MOL0     H62602  10.050   4.426  10.100  1.8541  1.6679 -2.4657
  464MOL0     H62603  10.006   4.527   9.971  0.1509 -0.7215 -0.4643
  464MOL0     H62604   9.645   4.773  10.155 -1.6991 -0.3816  0.1732
  464MOL0     H62605   9.604   5.020  10.132  1.6668 -0.7019  1.7733
  464MOL0     H62606   9.504   5.188   9.719  0.4463 -1.0857 -0.1126
  464MOL0     H62607   9.396   5.110   9.829 -0.2172  0.7313 -0.5018
  464MOL0     H62608   9.322   5.320   9.803  3.3141 -2.2173 -3.5325
  464MOL0     H62609   9.375   5.321   9.967 -1.5577  0.1255  0.3031
  464MOL0     H62610   9.551   5.437   9.737 -0.6149 -1.0121 -0.3912
  464MOL0     H62611   9.594   5.439   9.897 -0.3553 -2.9859  0.9983
  464MOL0     H62612   9.342   5.575   9.783  2.0435  0.4874 -1.8509
  464MOL0     H62613   9.401   5.584   9.950  1.2652  1.4125  1.5051
  464MOL0     H62614   9.455   5.788   9.775 -0.7435 -1.2766 -2.1178
  464MOL0     H62615   9.554   5.676   9.688 -4.3844 -0.0616 -1.5214
  464MOL0     H62616   9.572   5.750   9.981 -1.4523 -1.5034 -0.4301
  464MOL0     H62617   9.709   5.662   9.886 -1.9344 -2.5065 -2.4011
  464MOL0     H62618   9.766   5.894   9.959  1.2988  3.3552 -1.2955
  464MOL0     H62619   9.631   5.958   9.858 -1.8869 -0.0631  2.3368
  464MOL0     H62620   9.746   5.861   9.653  1.7370 -0.2493 -1.0538
  464MOL0     H62621   9.875   5.785   9.744  2.3605  0.7817  2.1011
  464MOL0     H62622   9.665   5.009   9.710  0.1360  0.9251  1.4041
  464MOL0     H62623   9.744   4.779   9.721  3.9984 -0.6583  1.7425
  464MOL0     H62624   9.605   4.297   9.788  0.0792  3.4351  0.8857
  464MOL0     H62625   9.663   4.072   9.830 -2.6773  3.2044 -2.6880
  464MOL0     H62626   9.431   2.609  10.895  2.7667 -0.2062  3.7164
  464MOL0     H62627   9.221   2.490  10.993 -1.9156  0.5781  0.4887
  464MOL0     H62628   8.814   2.174  10.770 -0.2948  0.5263  0.8361
  464MOL0     H62629   8.639   2.048  10.871  1.1747 -2.1497  0.3937
  464MOL0     H62630   8.541   2.145  11.111 -0.4923  0.1559 -0.9308
  464MOL0     H62631   8.435   2.013  11.151 -0.5723  1.5216  1.3786
  464MOL0     H62632   8.660   2.097  11.337  1.2926 -2.9601  0.0430
  464MOL0     H62633   8.548   1.979  11.388 -1.5490  1.5404  0.6463
  464MOL0     H62634   8.371   2.173  11.307  0.5358 -1.9961 -0.5309
  464MOL0     H62635   8.489   2.262  11.391 -0.5851  0.3412 -5.4145
  464MOL0     H62636   8.474   2.107  11.593 -0.2180 -0.6854  1.6998
  464MOL0     H62637   8.361   2.003  11.513 -1.1837  0.8060  0.8528
  464MOL0     H62638   8.114   2.323  11.645 -1.0310 -1.1449  0.1339
  464MOL0     H62639   8.880   1.974  11.217 -0.6235  0.0238 -1.0896
  464MOL0     H62640   9.062   2.080  11.128  1.0067 -0.5473 -1.1195
  465MOL0     O62641   4.589   3.560   9.571  0.2376  0.8884  0.0720
  465MOL0     C62642   4.510   3.525   9.659  0.6962  0.0284  0.2890
  465MOL0     O62643   4.479   3.597   9.766  0.3307  0.4755 -0.2450
  465MOL0     C62644   4.553   3.705   9.816 -0.2028  0.3423  0.6580
  465MOL0     C62645   4.621   3.790   9.732 -0.2235  0.5282 -0.4026
  465MOL0     C62646   4.656   3.919   9.784 -0.3205 -0.2483  0.1245
  465MOL0     C62647   4.627   3.955   9.923  0.4738 -1.4870 -0.5367
  465MOL0     O62648   4.669   4.075   9.962 -0.4986 -0.6483  0.1968
  465MOL0     C62649   4.657   4.114  10.102 -0.5071 -0.4287 -0.3941
  465MOL0     C62650   4.551   4.216  10.128 -0.3767 -0.1559  0.6410
  465MOL0     C62651   4.473   4.194  10.252  0.0202 -0.7379  0.6527
  465MOL0     C62652   4.405   4.331  10.284  0.1865 -0.0735 -0.8644
  465MOL0     C62653   4.340   4.334  10.422  0.9291 -1.0811 -0.2343
  465MOL0     C62654   4.249   4.454  10.440  0.2036 -1.0809 -0.9661
  465MOL0     C62655   4.173   4.435  10.576  0.0352 -0.9870  0.1280
  465MOL0     C62656   4.073   4.321  10.563 -1.1495 -0.4714 -0.2515
  465MOL0     N62657   3.948   4.343  10.636  0.0621  0.7634  0.1656
  465MOL0     C62658   3.929   4.403  10.760 -0.0082  0.8575 -0.8252
  465MOL0     C62659   3.802   4.367  10.793 -0.9675 -0.9126  0.3951
  465MOL0     C62660   3.722   4.423  10.916  0.1256  0.1115  0.1538
  465MOL0     C62661   3.742   4.339  11.041  0.0007  0.5183  0.6554
  465MOL0     C62662   3.630   4.376  11.142  0.2559  0.3212 -0.3436
  465MOL0     C62663   3.631   4.288  11.266 -0.1046  0.3834 -0.6299
  465MOL0     O62664   3.736   4.339  11.356 -0.5608 -0.4420  0.0099
  465MOL0     C62665   3.692   4.343  11.486 -0.7436 -0.0593  0.0543
  465MOL0     C62666   3.672   4.218  11.553  1.0949 -0.3833  0.4346
  465MOL0     C62667   3.647   4.206  11.693 -0.2247  1.0179  0.9692
  465MOL0     C62668   3.658   4.061  11.748  0.5430 -0.4660  0.7425
  465MOL0     C62669   3.623   4.327  11.766  0.2350  0.3973 -0.7960
  465MOL0     C62670   3.577   4.331  11.908  0.3627  0.3026 -0.7265
  465MOL0     O62671   3.586   4.451  11.971 -0.4871  0.3164  0.2455
  465MOL0     C62672   3.518   4.472  12.088 -0.4073  0.3356  0.0795
  465MOL0     C62673   3.595   4.482  12.203 -0.5063 -0.2860 -0.6025
  465MOL0     C62674   3.527   4.517  12.322 -0.3057  0.2936  0.0310
  465MOL0     C62675   3.391   4.548  12.312  0.9014 -0.8921  0.0767
  465MOL0     O62676   3.314   4.579  12.422 -0.3690 -0.5575  0.5300
  465MOL0     C62677   3.294   4.454  12.493 -0.6391  0.7102 -0.0853
  465MOL0     C62678   3.163   4.456  12.579 -0.6095  0.6137  0.3333
  465MOL0     C62679   3.154   4.544  12.696 -0.0551 -0.7779 -0.5543
  465MOL0     C62680   3.244   4.503  12.808 -0.0519  0.1703 -0.5588
  465MOL0     C62681   3.272   4.615  12.906 -0.4162 -0.5450  0.3654
  465MOL0     C62682   3.330   4.569  13.040  0.0900  0.0249 -0.5816
  465MOL0     C62683   3.221   4.507  13.140  0.6006 -0.5083 -0.0681
  465MOL0     C62684   3.263   4.487  13.298  0.1218  1.4390  0.0110
  465MOL0    Cl62685   3.310   4.641  13.367  0.0519  0.4738  0.4517
  465MOL0     C62686   3.314   4.536  12.202 -0.6059 -0.1115  0.2771
  465MOL0     C62687   3.376   4.493  12.084 -0.4931  0.5582  0.2134
  465MOL0     O62688   3.523   4.229  11.950  0.3550  0.3729 -0.6341
  465MOL0     C62689   3.642   4.451  11.695 -0.3875 -0.0101 -0.2253
  465MOL0     C62690   3.675   4.456  11.563 -0.5999  0.2782 -0.2867
  465MOL0     N62691   3.755   4.277  10.697 -0.7828 -0.0197 -0.4145
  465MOL0     N62692   3.843   4.258  10.614 -0.2565  0.1274 -0.1212
  465MOL0     C62693   4.553   3.871   9.996  0.7534 -0.1864  0.1348
  465MOL0     C62694   4.517   3.748   9.945  0.6373  1.2089  1.1084
  465MOL0     C62695   4.461   3.393   9.646  0.4538 -0.6155 -0.1220
  465MOL0     C62696   4.469   3.324   9.527  0.6874 -0.5901  0.3763
  465MOL0     C62697   4.411   3.199   9.510  1.0179 -0.2139  1.4212
  465MOL0     C62698   4.323   3.141   9.603 -1.0432  0.1989 -0.1649
  465MOL0     O62699   4.277   3.016   9.568 -0.0597 -1.6416 -0.0997
  465MOL0     C62700   4.224   2.926   9.670  0.2376  0.0127 -0.0042
  465MOL0     C62701   4.207   2.787   9.619  0.0882  1.0129 -0.3034
  465MOL0     C62702   4.125   2.787   9.498  0.2419  1.2066  0.7583
  465MOL0     C62703   4.046   2.653   9.495 -0.1556  1.0741  1.4802
  465MOL0     C62704   4.115   2.526   9.519 -0.3256 -0.8262  0.7031
  465MOL0     C62705   4.167   2.426   9.552  0.2711 -0.3762  0.6516
  465MOL0     C62706   4.307   3.216   9.724 -1.2224 -0.1137  0.6789
  465MOL0     C62707   4.378   3.337   9.745 -0.7845 -0.5218 -0.4956
  465MOL0     H62708   4.665   3.774   9.634 -0.4469  4.5734 -1.3282
  465MOL0     H62709   4.706   3.996   9.726  1.8969 -0.3105  1.7962
  465MOL0     H62710   4.664   4.028  10.170 -0.1973  2.0450  2.9894
  465MOL0     H62711   4.745   4.177  10.119 -1.7899  1.5126 -0.7360
  465MOL0     H62712   4.603   4.312  10.140 -2.4892  1.6714 -2.8505
  465MOL0     H62713   4.486   4.210  10.040 -0.7033 -2.4653  0.9838
  465MOL0     H62714   4.398   4.116  10.236  0.4565 -0.9651 -0.3763
  465MOL0     H62715   4.539   4.159  10.332 -1.0903  0.6940  2.2550
  465MOL0     H62716   4.464   4.422  10.269 -0.6624  0.1811 -3.2338
  465MOL0     H62717   4.319   4.341  10.217 -1.3523  0.9815  1.1752
  465MOL0     H62718   4.285   4.243  10.449  0.5166 -0.3971  1.3829
  465MOL0     H62719   4.412   4.337  10.505 -0.9234 -1.8757  1.5090
  465MOL0     H62720   4.319   4.538  10.451  1.9773 -2.6121 -0.0080
  465MOL0     H62721   4.185   4.477  10.354 -2.0071 -1.2615  0.5261
  465MOL0     H62722   4.247   4.429  10.656  0.8064  3.7526  0.0760
  465MOL0     H62723   4.110   4.522  10.599 -0.7984 -1.5482  0.0029
  465MOL0     H62724   4.110   4.227  10.604 -1.5361 -0.0697  1.0978
  465MOL0     H62725   4.036   4.296  10.463 -1.4086  0.5027 -0.4150
  465MOL0     H62726   3.988   4.480  10.808  1.0551  1.4871 -2.9941
  465MOL0     H62727   3.747   4.526  10.945  0.1738  0.6187 -1.6129
  465MOL0     H62728   3.618   4.423  10.883 -0.4531 -2.2039  1.7689
  465MOL0     H62729   3.843   4.352  11.080 -0.0098  3.0339  0.0148
  465MOL0     H62730   3.729   4.234  11.012  2.2756 -0.1257  1.7652
  465MOL0     H62731   3.541   4.344  11.087  0.3357 -1.6209  0.5939
  465MOL0     H62732   3.626   4.481  11.170 -2.7874 -0.4184  2.6262
  465MOL0     H62733   3.662   4.187  11.240  2.6041  0.1880  2.6987
  465MOL0     H62734   3.534   4.287  11.318 -0.6566  1.0527 -1.5994
  465MOL0     H62735   3.706   4.132  11.495 -1.3594 -1.5088  0.5447
  465MOL0     H62736   3.689   4.049  11.852  1.0591  4.3272  1.3580
  465MOL0     H62737   3.558   4.017  11.754  0.6058 -2.1203 -4.8251
  465MOL0     H62738   3.705   3.995  11.675 -1.6110 -2.5091  1.0550
  465MOL0     H62739   3.699   4.451  12.212 -0.7123 -1.1755 -1.1880
  465MOL0     H62740   3.581   4.517  12.416 -2.1262 -1.0117  1.1463
  465MOL0     H62741   3.284   4.365  12.431  0.6404 -0.0648  0.7801
  465MOL0     H62742   3.378   4.436  12.560  0.0913 -2.4932 -1.6838
  465MOL0     H62743   3.079   4.472  12.510  0.6288 -2.1284 -2.0201
  465MOL0     H62744   3.149   4.352  12.612  2.2173  0.0498  0.0048
  465MOL0     H62745   3.055   4.568  12.735  0.8846  2.3459  0.2327
  465MOL0     H62746   3.194   4.631  12.642 -3.4578  0.3154 -1.6032
  465MOL0     H62747   3.188   4.429  12.865 -2.3908  3.3211  1.5715
  465MOL0     H62748   3.337   4.452  12.781 -0.2748 -0.0791 -0.8575
  465MOL0     H62749   3.188   4.680  12.931  0.0715 -0.1368  0.9971
  465MOL0     H62750   3.347   4.676  12.854 -1.0641  0.7734  0.9480
  465MOL0     H62751   3.407   4.494  13.023 -0.7786 -0.7685 -1.0614
  465MOL0     H62752   3.376   4.653  13.094 -0.4082 -0.4303  0.5735
  465MOL0     H62753   3.174   4.412  13.112 -1.2766 -0.2881  1.9881
  465MOL0     H62754   3.137   4.576  13.129  0.7798 -0.6175 -2.8987
  465MOL0     H62755   3.348   4.418  13.300 -1.5048 -0.7048  2.6806
  465MOL0     H62756   3.180   4.447  13.357  0.9607  1.7578  1.4495
  465MOL0     H62757   3.208   4.557  12.189 -0.8364 -2.6055 -3.8234
  465MOL0     H62758   3.321   4.492  11.990 -1.0670  1.2118  0.5367
  465MOL0     H62759   3.642   4.540  11.757  3.5169 -2.3384  3.6307
  465MOL0     H62760   3.689   4.558  11.529  0.8540 -0.2592 -1.4347
  465MOL0     H62761   4.503   3.905  10.086 -1.3027 -1.2093 -0.5574
  465MOL0     H62762   4.472   3.681  10.017  1.3320  1.7751  2.0961
  465MOL0     H62763   4.533   3.359   9.446  0.6140 -3.5962 -1.0930
  465MOL0     H62764   4.428   3.143   9.419  1.2651  3.2183 -0.8476
  465MOL0     H62765   4.294   2.917   9.754 -0.1385  0.6939  0.3931
  465MOL0     H62766   4.136   2.964   9.724 -0.2774  1.0707 -1.5382
  465MOL0     H62767   4.160   2.725   9.695 -5.7602  1.4094 -3.1000
  465MOL0     H62768   4.300   2.730   9.606 -1.2009 -1.5495  1.1538
  465MOL0     H62769   4.183   2.776   9.406 -2.3414  2.4228 -1.1513
  465MOL0     H62770   4.059   2.874   9.490 -1.6744 -0.3348 -1.7438
  465MOL0     H62771   3.993   2.642   9.400  1.0164 -0.7394  0.9950
  465MOL0     H62772   3.974   2.665   9.577 -4.5152 -0.7728 -1.6746
  465MOL0     H62773   4.210   2.336   9.591  1.2981 -0.8533 -1.4117
  465MOL0     H62774   4.240   3.176   9.800  1.2450 -4.0217  1.0689
  465MOL0     H62775   4.371   3.397   9.835  3.0491 -2.8841  1.6710
  466MOL0     O62776   2.453   9.367   5.391 -0.5760  0.8860 -0.0123
  466MOL0     C62777   2.400   9.468   5.348  0.5985 -0.3792 -0.1090
  466MOL0     O62778   2.308   9.474   5.240 -0.6360  0.1953  0.0644
  466MOL0     C62779   2.286   9.365   5.155 -0.6708  0.1575  0.9976
  466MOL0     C62780   2.275   9.393   5.024  0.3992  0.5077  0.1171
  466MOL0     C62781   2.263   9.295   4.924  0.2208  0.1739  0.3126
  466MOL0     C62782   2.266   9.164   4.962  0.4237 -0.5699  0.7042
  466MOL0     O62783   2.259   9.071   4.858  0.5495 -0.2827  0.7121
  466MOL0     C62784   2.175   8.954   4.875 -0.2884 -0.7465  1.2533
  466MOL0     C62785   2.031   8.961   4.825 -0.4740  0.0178  0.4515
  466MOL0     C62786   2.024   9.047   4.692  0.3691  0.1377 -0.0567
  466MOL0     C62787   2.123   9.024   4.585 -0.2633  0.7271  0.6086
  466MOL0     C62788   2.063   9.063   4.450  0.3389  0.4335 -0.3066
  466MOL0     C62789   2.171   9.019   4.346  0.3944  0.3816  0.4225
  466MOL0     C62790   2.303   9.098   4.344  0.7944  0.8224 -0.7012
  466MOL0     C62791   2.420   9.029   4.283 -0.6356  0.4147 -0.4727
  466MOL0     N62792   2.483   8.931   4.372 -0.6461  0.0070 -0.1833
  466MOL0     C62793   2.555   8.966   4.486  0.0001  1.0119 -1.4607
  466MOL0     C62794   2.562   8.850   4.564  0.3637 -0.0132 -0.8746
  466MOL0     C62795   2.631   8.810   4.701  0.4542 -0.2667 -0.0304
  466MOL0     C62796   2.583   8.908   4.807 -0.0345 -0.1608  0.0572
  466MOL0     C62797   2.597   8.849   4.941 -0.1897  0.6131  0.1069
  466MOL0     C62798   2.621   8.957   5.039  0.9063  0.0765 -0.0132
  466MOL0     O62799   2.770   8.986   5.030 -0.0553  0.3020 -0.2323
  466MOL0     C62800   2.831   9.065   5.120  0.2081 -0.3406 -1.3447
  466MOL0     C62801   2.781   9.111   5.252 -1.3362 -0.6857  1.0410
  466MOL0     C62802   2.857   9.180   5.342  0.5466 -0.3532 -0.5685
  466MOL0     C62803   2.796   9.210   5.478 -0.5927  0.1013  0.8442
  466MOL0     C62804   2.992   9.196   5.315  0.1496 -0.6377  0.0560
  466MOL0     C62805   3.104   9.251   5.410 -0.1224 -0.9363  0.1376
  466MOL0     O62806   3.226   9.276   5.351 -0.2069  0.4237 -0.3145
  466MOL0     C62807   3.316   9.339   5.445 -0.2384  0.1922 -0.3535
  466MOL0     C62808   3.440   9.276   5.465 -0.5975 -1.1223  0.8256
  466MOL0     C62809   3.547   9.332   5.547  0.2680  1.0678  1.0487
  466MOL0     C62810   3.514   9.459   5.606 -0.5608  0.7562  0.0945
  466MOL0     O62811   3.616   9.522   5.669  0.3753 -0.3674  0.4579
  466MOL0     C62812   3.628   9.474   5.807  0.6400  0.3679 -0.0440
  466MOL0     C62813   3.733   9.569   5.870 -0.5728 -0.3917 -0.1480
  466MOL0     C62814   3.877   9.559   5.797  0.1587 -0.8584  0.2057
  466MOL0     C62815   3.912   9.656   5.692 -0.3227 -0.1858  0.6400
  466MOL0     C62816   4.059   9.671   5.667 -0.4621 -0.1094  0.9223
  466MOL0     C62817   4.147   9.560   5.595 -0.4225  0.4696  0.2732
  466MOL0     C62818   4.291   9.566   5.626 -0.3722  0.4365 -0.2786
  466MOL0     C62819   4.359   9.702   5.599  0.5694  0.8689 -0.2064
  466MOL0    Cl62820   4.529   9.706   5.669 -0.2482 -0.1619 -0.6111
  466MOL0     C62821   3.388   9.509   5.591  0.0664 -0.5687  0.8912
  466MOL0     C62822   3.290   9.457   5.513  0.0545  0.3753 -0.1571
  466MOL0     O62823   3.086   9.253   5.532 -1.1637 -0.1730  0.0526
  466MOL0     C62824   3.041   9.151   5.186 -0.2664  0.9571  0.6499
  466MOL0     C62825   2.968   9.082   5.091 -0.5638 -0.0662 -1.1398
  466MOL0     N62826   2.509   8.746   4.487 -0.6993  0.2581 -0.2123
  466MOL0     N62827   2.457   8.791   4.374 -0.5637 -0.7447  0.2231
  466MOL0     C62828   2.271   9.128   5.104 -0.6570  0.6186 -0.1599
  466MOL0     C62829   2.284   9.228   5.196 -0.3361 -0.8415  0.0847
  466MOL0     C62830   2.453   9.593   5.390 -0.6129 -0.0302  0.3554
  466MOL0     C62831   2.510   9.606   5.515  0.8749 -0.3344  0.3674
  466MOL0     C62832   2.572   9.725   5.555  0.3856 -0.4064  0.2476
  466MOL0     C62833   2.580   9.836   5.465 -0.5875  0.1720 -0.1488
  466MOL0     O62834   2.641   9.958   5.500 -0.4368 -0.4327 -0.3744
  466MOL0     C62835   2.725   9.962   5.613 -0.2511  0.4094 -0.1814
  466MOL0     C62836   2.639   9.980   5.737 -0.2766 -1.5782 -0.2534
  466MOL0     C62837   2.711   9.996   5.869  0.3135  0.7537  0.5398
  466MOL0     C62838   2.829  10.097   5.876 -1.0111  1.0052 -0.4764
  466MOL0     C62839   2.759  10.228   5.907 -0.0941  0.2528  0.3394
  466MOL0     C62840   2.689  10.329   5.920  0.1193 -1.4125  0.1487
  466MOL0     C62841   2.522   9.828   5.339  0.1850  0.3463 -0.0122
  466MOL0     C62842   2.457   9.705   5.301  0.4692 -0.5477 -0.4902
  466MOL0     H62843   2.261   9.497   4.995 -0.1974  0.2847 -0.3988
  466MOL0     H62844   2.227   9.321   4.825  1.2791 -3.1439 -1.0967
  466MOL0     H62845   2.232   8.889   4.808  1.4571  3.3452 -1.6382
  466MOL0     H62846   2.172   8.916   4.978 -1.2339  0.0742  1.5444
  466MOL0     H62847   1.990   8.860   4.816  2.5984 -1.4403  1.5522
  466MOL0     H62848   1.983   9.008   4.911  1.9828  1.0036  1.3904
  466MOL0     H62849   1.925   9.043   4.644  1.2806 -1.3690 -1.9356
  466MOL0     H62850   2.027   9.149   4.732  2.4319  0.3488 -0.6773
  466MOL0     H62851   2.215   9.079   4.607  2.7035 -3.5446  0.1154
  466MOL0     H62852   2.151   8.918   4.589 -2.4091  0.0934  0.1274
  466MOL0     H62853   1.969   9.009   4.432 -1.0536  2.3429  0.9267
  466MOL0     H62854   2.044   9.170   4.438  2.5816  0.8025 -1.1136
  466MOL0     H62855   2.194   8.914   4.363 -1.8251 -0.1778  0.2311
  466MOL0     H62856   2.122   9.023   4.248  0.0763  2.1096  0.6122
  466MOL0     H62857   2.288   9.195   4.295  1.6574  0.1853 -2.3081
  466MOL0     H62858   2.319   9.116   4.451 -4.3737  0.3177  0.4128
  466MOL0     H62859   2.485   9.101   4.232  1.5854  1.0197  2.9139
  466MOL0     H62860   2.382   8.972   4.197  1.0518 -0.1945 -0.8559
  466MOL0     H62861   2.604   9.060   4.512  3.0481 -0.9527  0.6602
  466MOL0     H62862   2.614   8.703   4.719  4.3537 -0.9374  0.5126
  466MOL0     H62863   2.740   8.810   4.694  0.8804  3.0624  3.5972
  466MOL0     H62864   2.483   8.951   4.798 -1.0366 -1.7285  2.7386
  466MOL0     H62865   2.654   8.991   4.798 -1.6466  1.1464 -1.2577
  466MOL0     H62866   2.678   8.777   4.955 -0.2752  1.2526  6.0595
  466MOL0     H62867   2.505   8.790   4.947  1.1855 -1.6328  0.6011
  466MOL0     H62868   2.588   8.917   5.135  0.8741 -1.8409 -0.7885
  466MOL0     H62869   2.563   9.046   5.011  1.8883  1.1360  1.1821
  466MOL0     H62870   2.680   9.083   5.279 -1.2630 -0.8878  1.1103
  466MOL0     H62871   2.847   9.157   5.559  3.4439 -0.0204 -1.4881
  466MOL0     H62872   2.794   9.319   5.484 -1.4343  0.2210 -0.9608
  466MOL0     H62873   2.691   9.182   5.462 -1.4322  4.7077 -5.7974
  466MOL0     H62874   3.456   9.183   5.413  1.3101 -0.9289  0.9755
  466MOL0     H62875   3.648   9.296   5.560 -0.1992 -2.0464 -2.1242
  466MOL0     H62876   3.532   9.479   5.859  1.7996  0.2628  2.2221
  466MOL0     H62877   3.658   9.369   5.800  1.9200  0.6456  0.8713
  466MOL0     H62878   3.711   9.674   5.891  1.8000  0.0927  0.1561
  466MOL0     H62879   3.753   9.536   5.972 -0.5003 -0.0308 -0.0430
  466MOL0     H62880   3.880   9.456   5.761 -0.5871 -0.9988  0.5467
  466MOL0     H62881   3.954   9.565   5.874 -0.0887  1.1505  0.3571
  466MOL0     H62882   3.858   9.644   5.597 -2.4852  1.1126  1.6305
  466MOL0     H62883   3.888   9.752   5.738 -2.7191 -0.1744 -0.4646
  466MOL0     H62884   4.109   9.698   5.760  2.0756 -2.4982  0.3836
  466MOL0     H62885   4.077   9.758   5.603  0.9215  0.6458  2.2663
  466MOL0     H62886   4.121   9.464   5.640 -2.4753 -0.3711 -2.3965
  466MOL0     H62887   4.128   9.558   5.487 -0.0435  0.0898  0.2120
  466MOL0     H62888   4.327   9.484   5.563 -2.0223  1.6140 -2.9059
  466MOL0     H62889   4.308   9.537   5.730 -2.5163 -2.9855 -0.7199
  466MOL0     H62890   4.306   9.788   5.642  2.0230  2.1844 -0.9551
  466MOL0     H62891   4.363   9.728   5.493  1.0525  3.0945  0.3099
  466MOL0     H62892   3.371   9.594   5.656  0.5863 -0.0818  0.4020
  466MOL0     H62893   3.196   9.511   5.517 -0.4007 -0.3627 -0.7705
  466MOL0     H62894   3.146   9.139   5.161 -1.0610 -2.1956 -1.8926
  466MOL0     H62895   3.008   9.026   5.006  2.8442  0.0356  0.2200
  466MOL0     H62896   2.276   9.026   5.142 -0.8820 -0.3011 -2.4102
  466MOL0     H62897   2.306   9.197   5.297 -2.4136  0.9227  1.1687
  466MOL0     H62898   2.484   9.536   5.594 -2.2065  1.6241  1.2887
  466MOL0     H62899   2.630   9.715   5.647 -1.3070 -2.1122  1.1928
  466MOL0     H62900   2.777   9.866   5.618 -1.2994 -0.7015 -5.1532
  466MOL0     H62901   2.800  10.041   5.612 -0.4476  0.6323  1.3298
  466MOL0     H62902   2.568   9.900   5.760  0.4050 -1.1658  4.1894
  466MOL0     H62903   2.574  10.058   5.697 -1.7288 -3.5787 -2.0825
  466MOL0     H62904   2.738   9.897   5.906 -2.7779  0.7432  3.2258
  466MOL0     H62905   2.638  10.031   5.942 -0.9986 -2.0494  0.7129
  466MOL0     H62906   2.895  10.121   5.792 -0.1863  2.2271  0.4779
  466MOL0     H62907   2.901  10.078   5.957  1.9317 -0.2159 -3.1479
  466MOL0     H62908   2.623  10.408   5.948  0.7180  0.0085 -2.1411
  466MOL0     H62909   2.525   9.923   5.286 -0.0014  2.0994  2.9074
  466MOL0     H62910   2.410   9.705   5.202  3.6401  1.0993 -2.1626
  467MOL0     O62911   8.384   6.963   9.532 -0.2833 -0.3820 -0.3528
  467MOL0     C62912   8.270   6.912   9.508 -0.2039  0.2365 -0.5968
  467MOL0     O62913   8.154   6.931   9.581 -0.5397 -0.3522 -0.3385
  467MOL0     C62914   8.152   7.009   9.698  0.0888  0.1046 -0.6989
  467MOL0     C62915   8.190   7.140   9.697 -0.5532 -0.4286  0.6892
  467MOL0     C62916   8.174   7.224   9.805  0.5363 -0.6988  0.6470
  467MOL0     C62917   8.118   7.171   9.919 -0.1083 -0.1417 -0.3715
  467MOL0     O62918   8.079   7.257  10.018  0.5569 -0.2884  0.4307
  467MOL0     C62919   8.145   7.243  10.150  0.5060  0.1813  0.9415
  467MOL0     C62920   8.052   7.263  10.263  0.5775 -0.1083 -1.1398
  467MOL0     C62921   8.015   7.409  10.283  0.3544  0.4975 -0.1844
  467MOL0     C62922   7.913   7.414  10.399  1.0593  0.4615 -0.4185
  467MOL0     C62923   7.906   7.552  10.446 -0.3877  0.2772  0.5097
  467MOL0     C62924   7.801   7.593  10.562  0.1352 -0.4882  0.8553
  467MOL0     C62925   7.663   7.532  10.557  0.3061  0.0828  0.2947
  467MOL0     C62926   7.587   7.530  10.424 -1.0108  0.4006  0.1134
  467MOL0     N62927   7.565   7.665  10.368  0.4418  0.1442  0.5110
  467MOL0     C62928   7.518   7.773  10.438 -0.9543 -0.3940 -0.8087
  467MOL0     C62929   7.523   7.882  10.356 -0.3786 -0.0633  0.2082
  467MOL0     C62930   7.487   8.020  10.397  0.4282 -0.0991  0.0140
  467MOL0     C62931   7.418   8.109  10.286  0.2524  0.4459  0.3623
  467MOL0     C62932   7.268   8.077  10.248  0.7781 -0.1569  0.5808
  467MOL0     C62933   7.169   8.080  10.361  0.2876 -0.3854  0.1327
  467MOL0     O62934   7.149   8.211  10.429  0.3992 -0.1250 -0.1027
  467MOL0     C62935   7.064   8.224  10.540 -0.1362  0.1214  0.8430
  467MOL0     C62936   7.080   8.345  10.606 -0.9849 -1.0583  0.1339
  467MOL0     C62937   7.011   8.366  10.723  0.0192 -1.2386  0.5014
  467MOL0     C62938   7.042   8.488  10.797 -0.5728 -0.0812 -0.7444
  467MOL0     C62939   6.918   8.274  10.772  0.1269 -1.0638  1.2816
  467MOL0     C62940   6.823   8.295  10.884  0.3714  0.2898  0.2349
  467MOL0     O62941   6.766   8.189  10.943  0.7589 -0.2481  0.0553
  467MOL0     C62942   6.707   8.195  11.062 -0.5337 -0.0412  0.5146
  467MOL0     C62943   6.756   8.279  11.163 -0.0919  0.0243 -0.2637
  467MOL0     C62944   6.677   8.300  11.277 -0.2120  0.7482 -1.4146
  467MOL0     C62945   6.557   8.222  11.300  0.4467 -0.5021 -0.0004
  467MOL0     O62946   6.487   8.244  11.418  0.5358 -0.2701  0.6128
  467MOL0     C62947   6.368   8.172  11.458 -0.6320 -0.4805 -0.4010
  467MOL0     C62948   6.348   8.216  11.609  0.1090 -1.0791  0.7014
  467MOL0     C62949   6.202   8.203  11.657 -1.5791 -0.6335  0.5869
  467MOL0     C62950   6.163   8.061  11.646 -0.3642 -0.4545  0.4609
  467MOL0     C62951   6.039   8.031  11.741 -0.1068  1.0362  0.6222
  467MOL0     C62952   6.067   8.045  11.890  0.3607  0.4555  0.3862
  467MOL0     C62953   5.946   7.975  11.963  0.3203  0.6740  0.6084
  467MOL0     C62954   5.971   7.985  12.110  0.6286 -0.3376 -0.6134
  467MOL0    Cl62955   5.932   7.821  12.198  0.4354  0.4562  0.0084
  467MOL0     C62956   6.525   8.128  11.201  0.8336 -0.3324 -0.0136
  467MOL0     C62957   6.598   8.112  11.079 -0.1670  0.8764  0.1398
  467MOL0     O62958   6.796   8.412  10.911  0.2033  0.4384 -0.2521
  467MOL0     C62959   6.912   8.152  10.706 -0.6121 -0.7561  0.0498
  467MOL0     C62960   6.982   8.124  10.588 -1.0037  0.1249 -0.4772
  467MOL0     N62961   7.590   7.830  10.245  0.2389  0.0422 -0.3909
  467MOL0     N62962   7.620   7.706  10.261  0.5933 -0.1233 -0.0856
  467MOL0     C62963   8.086   7.033   9.931 -0.6302 -0.7453 -0.3945
  467MOL0     C62964   8.086   6.954   9.821 -0.9747 -0.3922  0.5002
  467MOL0     C62965   8.253   6.828   9.375  0.0385 -0.4686  0.2227
  467MOL0     C62966   8.135   6.759   9.348 -0.3160 -0.2396  0.9348
  467MOL0     C62967   8.124   6.663   9.244 -0.2345 -0.4550 -0.1757
  467MOL0     C62968   8.224   6.646   9.145  0.1673 -0.7762 -1.0368
  467MOL0     O62969   8.217   6.551   9.053 -0.1716  0.8706  0.8571
  467MOL0     C62970   8.257   6.603   8.934  0.5909  0.0003  0.5203
  467MOL0     C62971   8.135   6.675   8.873 -0.9575  0.1780 -0.5083
  467MOL0     C62972   8.160   6.721   8.724  0.6052  0.1861 -0.5322
  467MOL0     C62973   8.292   6.793   8.700  0.2157 -0.2074 -0.1556
  467MOL0     C62974   8.404   6.705   8.662 -1.0761  0.8091  1.1295
  467MOL0     C62975   8.498   6.627   8.658 -0.2509 -0.3564 -0.0240
  467MOL0     C62976   8.338   6.719   9.169 -0.7330 -0.2356  0.2278
  467MOL0     C62977   8.352   6.805   9.284  0.4637 -0.2825  1.0504
  467MOL0     H62978   8.241   7.182   9.611 -0.8261  2.4255  1.8194
  467MOL0     H62979   8.220   7.322   9.807  0.7336 -0.7913  2.5152
  467MOL0     H62980   8.190   7.144  10.165  2.3301  0.7687 -0.3421
  467MOL0     H62981   8.223   7.319  10.156  1.4913 -0.8694  2.0686
  467MOL0     H62982   7.963   7.204  10.240 -1.1827  1.2273  1.7873
  467MOL0     H62983   8.084   7.213  10.355 -0.9195  0.3861 -0.3284
  467MOL0     H62984   8.099   7.472  10.316 -0.4427  1.5431 -0.0737
  467MOL0     H62985   7.987   7.454  10.187  1.4243  1.1324 -0.2232
  467MOL0     H62986   7.823   7.376  10.349  2.2031 -0.0600 -2.1847
  467MOL0     H62987   7.964   7.355  10.476  1.5641  1.2021 -0.1787
  467MOL0     H62988   8.001   7.594  10.478  0.8172 -2.0820  0.2018
  467MOL0     H62989   7.876   7.596  10.350  0.9908  0.6829  0.2557
  467MOL0     H62990   7.849   7.569  10.657  3.0134 -2.6294 -0.9872
  467MOL0     H62991   7.796   7.703  10.558  3.2595 -0.2492 -3.4701
  467MOL0     H62992   7.683   7.432  10.595  0.0760  1.0793  3.2480
  467MOL0     H62993   7.589   7.579  10.621 -1.8135 -1.0271 -1.2030
  467MOL0     H62994   7.492   7.481  10.450 -0.8685 -2.0279 -3.2721
  467MOL0     H62995   7.632   7.463  10.350 -1.8015  1.5043 -1.4150
  467MOL0     H62996   7.481   7.784  10.539 -0.2204 -0.9210 -0.4751
  467MOL0     H62997   7.415   8.022  10.480  0.2021  1.2960 -0.1880
  467MOL0     H62998   7.577   8.071  10.432 -0.1665 -0.4135  2.1753
  467MOL0     H62999   7.470   8.105  10.189  0.6909 -1.0506  0.6414
  467MOL0     H63000   7.418   8.215  10.313 -1.6498  0.7269 -0.5712
  467MOL0     H63001   7.260   7.981  10.195  2.1500 -1.0715  1.9497
  467MOL0     H63002   7.229   8.148  10.174 -3.2730 -0.4915  2.1330
  467MOL0     H63003   7.197   7.999  10.430  0.4545  0.9629  1.7137
  467MOL0     H63004   7.072   8.053  10.319  0.1161 -1.8269  1.3644
  467MOL0     H63005   7.151   8.411  10.558  0.7815 -1.6134  1.8260
  467MOL0     H63006   7.135   8.530  10.756 -0.7675  1.9749  0.7771
  467MOL0     H63007   6.971   8.568  10.772  0.2773  0.1612 -2.6077
  467MOL0     H63008   7.043   8.482  10.906  1.9417  0.1541 -0.6867
  467MOL0     H63009   6.850   8.331  11.152 -1.0678  1.5401 -2.1138
  467MOL0     H63010   6.719   8.373  11.345  0.4261 -0.5919 -0.3337
  467MOL0     H63011   6.289   8.198  11.387 -0.0523 -0.6338 -1.1195
  467MOL0     H63012   6.388   8.064  11.458  1.5576 -0.2086  2.5330
  467MOL0     H63013   6.415   8.167  11.681 -0.5660 -0.0847  2.0452
  467MOL0     H63014   6.372   8.322  11.620 -2.3034 -0.5443  1.4216
  467MOL0     H63015   6.134   8.260  11.594 -0.3670  0.6065  0.3536
  467MOL0     H63016   6.202   8.253  11.754  1.8555 -2.7018  1.8524
  467MOL0     H63017   6.147   8.039  11.540  4.4679  0.5016 -0.7096
  467MOL0     H63018   6.243   7.994  11.678  0.9760 -1.5990 -4.4543
  467MOL0     H63019   6.008   7.927  11.727  1.8432  0.4151  0.6325
  467MOL0     H63020   5.972   8.110  11.705  0.9787  1.0451 -1.5350
  467MOL0     H63021   6.170   8.015  11.912  1.3998  3.9815  1.0187
  467MOL0     H63022   6.049   8.149  11.918 -3.1244  0.0609  0.0368
  467MOL0     H63023   5.933   7.867  11.947  2.4238  0.0013  2.8468
  467MOL0     H63024   5.849   8.021  11.939  1.2310  1.1614 -2.6334
  467MOL0     H63025   5.919   8.063  12.167 -0.4832 -3.0576  2.4370
  467MOL0     H63026   6.080   7.995  12.116  0.7812 -0.3307 -2.8215
  467MOL0     H63027   6.432   8.072  11.210  0.1013  0.7814 -0.4220
  467MOL0     H63028   6.546   8.058  11.000 -2.1752  0.2510  1.7728
  467MOL0     H63029   6.859   8.067  10.748  2.4412 -2.5310  0.6013
  467MOL0     H63030   6.982   8.021  10.552  4.2854 -0.7288  1.0210
  467MOL0     H63031   8.055   6.988  10.025 -2.5263 -1.6415 -1.3874
  467MOL0     H63032   8.052   6.852   9.833 -1.8440 -0.0571  0.9327
  467MOL0     H63033   8.061   6.753   9.427 -0.7000 -1.2890  0.5125
  467MOL0     H63034   8.043   6.591   9.233  0.0517 -0.6250 -1.2874
  467MOL0     H63035   8.341   6.672   8.930  0.1973  0.4138 -2.5800
  467MOL0     H63036   8.286   6.520   8.869  1.5628 -0.4741  1.5131
  467MOL0     H63037   8.106   6.763   8.931  4.4509  1.6364  0.5880
  467MOL0     H63038   8.064   6.592   8.873  2.5269 -3.1030  0.5336
  467MOL0     H63039   8.084   6.790   8.686 -0.5749  1.5097  3.6332
  467MOL0     H63040   8.169   6.628   8.668  1.4956  1.2759 -2.2619
  467MOL0     H63041   8.312   6.852   8.790 -0.8152  1.7691 -1.1702
  467MOL0     H63042   8.272   6.862   8.618 -2.0959  2.4926  2.4329
  467MOL0     H63043   8.579   6.557   8.663 -0.0558 -0.1540 -0.3656
  467MOL0     H63044   8.425   6.692   9.110 -0.0299 -1.4222  1.7367
  467MOL0     H63045   8.438   6.871   9.293  0.8240 -0.6077  0.0725
  468MOL0     O63046   9.948   2.471  11.498 -0.2826  0.6955  0.5522
  468MOL0     C63047  10.044   2.543  11.473 -0.7899 -0.3369 -0.5077
  468MOL0     O63048  10.042   2.652  11.389 -0.1231 -0.8627 -0.1147
  468MOL0     C63049   9.934   2.687  11.321  0.2861 -0.0551  0.3173
  468MOL0     C63050   9.843   2.600  11.253  0.5154 -0.5673  0.5933
  468MOL0     C63051   9.728   2.645  11.184 -0.3037  0.3227 -0.2839
  468MOL0     C63052   9.702   2.782  11.175  0.2767  0.0844 -0.0911
  468MOL0     O63053   9.595   2.813  11.098 -0.3808  0.4770 -0.4486
  468MOL0     C63054   9.556   2.945  11.071 -0.0518  0.6338  0.5318
  468MOL0     C63055   9.465   2.991  11.183  0.8236 -0.2713 -0.6744
  468MOL0     C63056   9.349   2.892  11.206  0.0684 -0.1247  0.2057
  468MOL0     C63057   9.226   2.947  11.292 -0.9212 -0.0019 -0.5793
  468MOL0     C63058   9.133   2.837  11.349  0.1116  0.8078 -0.5385
  468MOL0     C63059   9.011   2.896  11.421  0.9718  0.3319  0.4373
  468MOL0     C63060   8.934   2.798  11.503  0.0710 -0.1637 -0.6946
  468MOL0     C63061   8.831   2.852  11.612 -0.5790 -0.9648 -0.4022
  468MOL0     N63062   8.735   2.922  11.528  0.4451 -0.3146  0.0130
  468MOL0     C63063   8.642   2.864  11.445  0.0816  0.7117  0.6925
  468MOL0     C63064   8.597   2.969  11.381 -0.4111 -0.6295 -0.0690
  468MOL0     C63065   8.497   2.945  11.271  1.1495 -0.1730  1.0988
  468MOL0     C63066   8.367   3.002  11.311  0.1539 -0.1062  0.4826
  468MOL0     C63067   8.260   2.987  11.198  0.0408  0.2786  0.7013
  468MOL0     C63068   8.134   2.951  11.271  0.1893  0.0935 -0.0873
  468MOL0     O63069   8.018   2.962  11.187 -0.2621 -0.1635  0.2313
  468MOL0     C63070   7.903   2.955  11.250  0.0855 -0.4536 -0.3238
  468MOL0     C63071   7.847   3.066  11.316 -0.0147 -0.8839  0.8519
  468MOL0     C63072   7.712   3.063  11.359  0.7963  0.4618  0.3949
  468MOL0     C63073   7.672   3.191  11.425  0.3976 -0.5302  0.4615
  468MOL0     C63074   7.632   2.944  11.341  0.5708 -0.0068  0.1062
  468MOL0     C63075   7.490   2.932  11.397 -0.1539 -0.4033 -0.2214
  468MOL0     O63076   7.401   3.034  11.417 -0.0831  0.1996 -0.4472
  468MOL0     C63077   7.294   3.007  11.503  0.7859 -0.2851 -0.0662
  468MOL0     C63078   7.315   2.991  11.642 -0.4557  0.2990 -0.4660
  468MOL0     C63079   7.213   2.948  11.727 -0.8202  0.4916  0.2769
  468MOL0     C63080   7.081   2.922  11.679 -0.4326 -1.6284  0.3077
  468MOL0     O63081   6.987   2.901  11.767  0.5761 -0.5182 -0.8233
  468MOL0     C63082   6.896   2.801  11.732  0.7056  0.1507  0.1102
  468MOL0     C63083   6.790   2.773  11.849  0.3789 -0.4363 -0.7590
  468MOL0     C63084   6.687   2.883  11.876 -0.3143  0.1311 -0.2190
  468MOL0     C63085   6.737   2.999  11.955  0.1426  0.0311  0.2124
  468MOL0     C63086   6.650   3.128  11.944 -0.1716 -0.8106 -0.3909
  468MOL0     C63087   6.701   3.240  12.044 -0.1008  0.3221 -0.1236
  468MOL0     C63088   6.635   3.368  12.022 -0.1406 -0.1365  0.1816
  468MOL0     C63089   6.666   3.477  12.118 -0.1173 -0.9057  0.5781
  468MOL0    Cl63090   6.620   3.636  12.056  0.5066  0.4563  0.6375
  468MOL0     C63091   7.059   2.947  11.537 -0.6251  1.2356  0.3188
  468MOL0     C63092   7.163   2.985  11.450 -0.1781  1.0829 -0.0632
  468MOL0     O63093   7.462   2.815  11.421 -1.1038 -0.1888  0.5478
  468MOL0     C63094   7.689   2.832  11.280 -0.3758 -0.0684 -0.0553
  468MOL0     C63095   7.828   2.835  11.232  0.6185  0.1336 -0.2940
  468MOL0     N63096   8.655   3.095  11.415 -0.1742 -0.0369 -0.5090
  468MOL0     N63097   8.736   3.057  11.511  0.0610  0.3920 -0.4364
  468MOL0     C63098   9.801   2.868  11.223  0.6365 -0.5760 -0.7031
  468MOL0     C63099   9.905   2.821  11.296 -0.4439 -0.3973  0.6698
  468MOL0     C63100  10.177   2.527  11.543 -1.0558 -1.1813  1.3596
  468MOL0     C63101  10.184   2.435  11.651  0.1579  0.2735 -0.1049
  468MOL0     C63102  10.305   2.430  11.718  0.6495 -0.9722 -0.5005
  468MOL0     C63103  10.431   2.486  11.681  0.5810  0.9475  0.5215
  468MOL0     O63104  10.544   2.434  11.745  0.2827 -0.4729 -0.3110
  468MOL0     C63105  10.669   2.496  11.732 -0.1951  0.4106  0.4277
  468MOL0     C63106  10.779   2.387  11.733 -0.6933 -0.1026  0.8522
  468MOL0     C63107  10.732   2.253  11.805  0.1541 -0.3956  0.9244
  468MOL0     C63108  10.863   2.171  11.822  0.5429  0.0359  0.2035
  468MOL0     C63109  10.842   2.040  11.876 -0.1339 -0.3467 -0.0474
  468MOL0     C63110  10.843   1.928  11.917  0.1486 -1.1256 -0.2994
  468MOL0     C63111  10.412   2.574  11.577 -0.2288 -1.0478  0.2347
  468MOL0     C63112  10.294   2.597  11.504  0.0691  0.6739  0.5950
  468MOL0     H63113   9.871   2.496  11.249  1.0436 -0.4498  1.0998
  468MOL0     H63114   9.677   2.577  11.116  3.5309 -0.9103 -2.2601
  468MOL0     H63115   9.651   2.993  11.045  0.8080 -1.6245 -0.8139
  468MOL0     H63116   9.498   2.947  10.978  1.2854  0.3614 -0.3429
  468MOL0     H63117   9.512   3.011  11.279 -2.8212  0.7974  1.0860
  468MOL0     H63118   9.425   3.088  11.150 -2.6707 -0.4355  2.4378
  468MOL0     H63119   9.315   2.851  11.111 -0.6875  2.1678 -0.5814
  468MOL0     H63120   9.388   2.817  11.276 -2.5784  0.6766  2.7787
  468MOL0     H63121   9.248   3.035  11.352 -1.0146  2.2112 -3.5963
  468MOL0     H63122   9.157   2.995  11.222 -0.3827  1.2713 -0.2615
  468MOL0     H63123   9.099   2.780  11.262  0.3630 -1.0041  0.5189
  468MOL0     H63124   9.185   2.758  11.402 -0.3877  1.8253  1.5768
  468MOL0     H63125   9.037   2.977  11.490 -0.3367  2.3495 -1.2942
  468MOL0     H63126   8.948   2.940  11.343  0.4230  0.4926  0.9641
  468MOL0     H63127   8.888   2.721  11.441  0.6372 -0.6458 -0.5155
  468MOL0     H63128   9.016   2.753  11.560  0.3488 -0.4166 -1.2917
  468MOL0     H63129   8.886   2.917  11.681 -1.6307 -2.3408  1.8508
  468MOL0     H63130   8.787   2.777  11.679  1.2725 -2.3379 -0.6423
  468MOL0     H63131   8.616   2.759  11.443  0.4269  0.6315  0.4472
  468MOL0     H63132   8.536   3.001  11.186  0.3078  0.7883  1.3317
  468MOL0     H63133   8.481   2.838  11.252 -1.9734 -0.3363  3.7515
  468MOL0     H63134   8.393   3.108  11.322 -0.0035 -0.1823  1.7446
  468MOL0     H63135   8.331   2.964  11.407 -4.1230 -1.2831 -1.3599
  468MOL0     H63136   8.284   2.915  11.119  1.2389  0.2062  1.1212
  468MOL0     H63137   8.249   3.080  11.143  1.6296 -1.3526 -2.6684
  468MOL0     H63138   8.121   3.010  11.363  0.5227  1.3672 -0.8248
  468MOL0     H63139   8.141   2.848  11.305 -0.9466 -0.2601 -0.8729
  468MOL0     H63140   7.909   3.154  11.328 -0.1973 -0.6810  0.3319
  468MOL0     H63141   7.610   3.165  11.511  2.9370 -0.8899  2.2990
  468MOL0     H63142   7.753   3.255  11.460  2.1945 -1.7089 -1.2945
  468MOL0     H63143   7.610   3.247  11.355  2.2945  1.2583  0.1175
  468MOL0     H63144   7.413   3.021  11.677 -0.4400 -0.3910  0.0908
  468MOL0     H63145   7.238   2.921  11.829 -1.0220  3.4529  1.2057
  468MOL0     H63146   6.835   2.813  11.642 -2.7383 -1.9575  1.9189
  468MOL0     H63147   6.953   2.708  11.722 -0.8844 -0.9593  0.8926
  468MOL0     H63148   6.732   2.686  11.818  0.1826  0.0007 -1.6923
  468MOL0     H63149   6.844   2.757  11.942 -0.5465  1.0499  0.0805
  468MOL0     H63150   6.608   2.839  11.938  1.2784 -1.1498  0.9959
  468MOL0     H63151   6.640   2.912  11.782  1.3459  2.0992 -0.5114
  468MOL0     H63152   6.741   2.964  12.058  1.0678  1.6050  0.7500
  468MOL0     H63153   6.842   3.021  11.936 -0.8895  5.0972 -1.3623
  468MOL0     H63154   6.541   3.126  11.956 -0.8670  3.8430 -3.2554
  468MOL0     H63155   6.664   3.163  11.842 -0.7002 -3.0904 -1.3120
  468MOL0     H63156   6.667   3.217  12.146  2.8525  1.2705  1.1714
  468MOL0     H63157   6.810   3.241  12.050 -0.1217 -0.4871  0.6328
  468MOL0     H63158   6.525   3.362  12.024 -0.4672  3.6411 -0.2965
  468MOL0     H63159   6.669   3.410  11.927  2.5152  0.0952  1.1479
  468MOL0     H63160   6.772   3.478  12.146  1.7909  0.6834 -5.2727
  468MOL0     H63161   6.622   3.458  12.216  1.6363  0.3404  1.6656
  468MOL0     H63162   6.965   2.928  11.486  0.4887  0.6983 -1.6661
  468MOL0     H63163   7.140   2.986  11.344  2.5620 -2.0203 -0.8826
  468MOL0     H63164   7.620   2.749  11.269 -2.4241  1.3293  1.4511
  468MOL0     H63165   7.872   2.754  11.175  1.4986  0.4492 -0.0702
  468MOL0     H63166   9.779   2.973  11.212 -0.3383 -0.7062 -0.0698
  468MOL0     H63167   9.983   2.885  11.334 -0.2989  0.4723 -1.0166
  468MOL0     H63168  10.095   2.385  11.686  0.6928 -0.2898  0.4746
  468MOL0     H63169  10.317   2.373  11.810  3.3557  2.5869  1.6315
  468MOL0     H63170  10.681   2.548  11.637  1.2189  1.0442  0.9201
  468MOL0     H63171  10.661   2.567  11.815 -1.4413  0.7381  0.0434
  468MOL0     H63172  10.872   2.419  11.782  0.1363  0.2644 -0.8944
  468MOL0     H63173  10.803   2.361  11.630  0.3565 -0.7958  1.2603
  468MOL0     H63174  10.658   2.198  11.745  1.8016  0.1832 -1.8145
  468MOL0     H63175  10.692   2.280  11.903 -0.3600 -1.1876  0.9488
  468MOL0     H63176  10.925   2.239  11.880 -2.2484  2.9786  0.0801
  468MOL0     H63177  10.913   2.155  11.726  0.5719 -1.6991  0.4866
  468MOL0     H63178  10.838   1.829  11.957 -1.1476 -0.4308  1.3480
  468MOL0     H63179  10.502   2.624  11.541 -2.3808  0.4631 -3.6991
  468MOL0     H63180  10.291   2.662  11.417 -1.0029  0.1713  0.2300
  469MOL0     O63181  11.430   2.338   5.323  0.0338 -0.8503  0.5455
  469MOL0     C63182  11.530   2.315   5.249 -0.0007  1.1881 -0.9676
  469MOL0     O63183  11.654   2.265   5.292  0.9653  0.0953 -1.0500
  469MOL0     C63184  11.677   2.249   5.423  0.5675 -0.6134  0.2278
  469MOL0     C63185  11.711   2.121   5.454  0.5078 -0.2871  0.5010
  469MOL0     C63186  11.755   2.089   5.583  0.3725 -0.4514  0.7216
  469MOL0     C63187  11.748   2.191   5.681  0.2948 -0.2254 -0.3947
  469MOL0     O63188  11.809   2.169   5.798 -0.1814  0.6876 -0.2585
  469MOL0     C63189  11.945   2.201   5.794 -0.8241  0.1073  1.1333
  469MOL0     C63190  12.033   2.127   5.886 -0.3019 -0.1513 -0.0082
  469MOL0     C63191  11.985   2.151   6.036 -0.6097  0.3288 -0.4537
  469MOL0     C63192  12.084   2.220   6.126  0.3343  0.2624 -0.6657
  469MOL0     C63193  12.089   2.362   6.080 -0.3619 -0.5529 -0.4573
  469MOL0     C63194  12.147   2.444   6.191  0.0553 -0.7268 -0.9729
  469MOL0     C63195  12.152   2.594   6.157  0.2050 -0.6970  1.5986
  469MOL0     C63196  12.245   2.645   6.041  0.5124  0.9350 -0.3229
  469MOL0     N63197  12.206   2.777   6.016 -0.6507 -0.1550 -0.1990
  469MOL0     C63198  12.259   2.890   6.073 -0.4499 -0.7564 -0.9306
  469MOL0     C63199  12.163   2.987   6.055  0.4358  0.2581 -0.3020
  469MOL0     C63200  12.180   3.131   6.079  0.1982  0.9022 -0.6224
  469MOL0     C63201  12.231   3.202   5.959  0.7953 -0.1781  0.5895
  469MOL0     C63202  12.131   3.216   5.841 -0.1688  0.6889 -0.3960
  469MOL0     C63203  12.199   3.298   5.725 -0.5244  0.2836  0.1472
  469MOL0     O63204  12.274   3.210   5.642 -0.5599  0.3418 -0.3565
  469MOL0     C63205  12.294   3.267   5.523 -0.6630 -0.0879  0.9017
  469MOL0     C63206  12.369   3.176   5.443 -0.5065  0.1362 -0.0317
  469MOL0     C63207  12.407   3.209   5.315  0.1454  0.9368  0.6518
  469MOL0     C63208  12.457   3.095   5.225  0.0475  0.9223  0.3998
  469MOL0     C63209  12.368   3.337   5.260 -0.1406 -0.8179 -0.0060
  469MOL0     C63210  12.378   3.374   5.119  0.3345  0.3768 -0.7853
  469MOL0     O63211  12.303   3.480   5.073 -0.3325  0.3279 -0.0333
  469MOL0     C63212  12.366   3.554   4.981 -0.4512  0.9364  0.5982
  469MOL0     C63213  12.502   3.586   4.980 -0.5878 -0.6590  0.8246
  469MOL0     C63214  12.544   3.698   4.898 -0.6958 -0.2602  0.1797
  469MOL0     C63215  12.460   3.757   4.802 -0.3666  0.5357 -1.2662
  469MOL0     O63216  12.517   3.853   4.715  0.4516  0.7916  0.2549
  469MOL0     C63217  12.435   3.912   4.610  0.0815 -0.1012 -0.5546
  469MOL0     C63218  12.372   4.043   4.646 -0.4149 -0.4015  0.0794
  469MOL0     C63219  12.484   4.161   4.668  0.7302 -0.2875 -0.8478
  469MOL0     C63220  12.531   4.218   4.530  0.7017 -0.3925 -0.0926
  469MOL0     C63221  12.608   4.347   4.549  0.5335  0.2676  0.4602
  469MOL0     C63222  12.758   4.325   4.589  0.8319 -0.2666 -0.0687
  469MOL0     C63223  12.825   4.457   4.610 -0.7952  0.7008  0.5024
  469MOL0     C63224  12.978   4.437   4.651 -0.0119 -0.4880 -0.0099
  469MOL0    Cl63225  13.052   4.602   4.675 -0.5567 -0.1514 -0.1572
  469MOL0     C63226  12.326   3.725   4.810  0.2487  0.4387 -0.2865
  469MOL0     C63227  12.284   3.623   4.894  0.2881  1.1563 -0.5539
  469MOL0     O63228  12.455   3.313   5.048  0.3037 -0.3300  1.0872
  469MOL0     C63229  12.304   3.427   5.348 -0.0390  0.2108 -0.5074
  469MOL0     C63230  12.263   3.391   5.480 -0.2855  0.0438 -0.4793
  469MOL0     N63231  12.062   2.934   5.981  0.1818 -0.2187 -0.0798
  469MOL0     N63232  12.094   2.817   5.951 -0.9280  1.0445 -0.3274
  469MOL0     C63233  11.707   2.324   5.649  0.5330 -0.4874  0.5334
  469MOL0     C63234  11.672   2.355   5.519 -0.0855  1.0420 -0.0913
  469MOL0     C63235  11.508   2.301   5.107 -0.1921  0.8834 -0.3187
  469MOL0     C63236  11.378   2.313   5.055  0.3330  0.1637  0.3761
  469MOL0     C63237  11.345   2.316   4.918 -0.0893 -0.3326 -0.4120
  469MOL0     C63238  11.450   2.315   4.823  0.1564 -0.1945 -0.1555
  469MOL0     O63239  11.439   2.346   4.686 -0.1190  0.3062 -0.8309
  469MOL0     C63240  11.542   2.417   4.613  0.7002  0.4254 -0.4988
  469MOL0     C63241  11.493   2.437   4.468 -0.3472  0.4687  0.2295
  469MOL0     C63242  11.578   2.515   4.373  0.4349  0.7603 -0.9780
  469MOL0     C63243  11.678   2.417   4.303 -0.6493 -1.5283  0.3425
  469MOL0     C63244  11.755   2.485   4.192  0.5071 -0.1593 -0.6862
  469MOL0     C63245  11.793   2.535   4.095  0.7973  0.7026  1.4190
  469MOL0     C63246  11.578   2.295   4.878 -0.4743  0.2657 -0.1491
  469MOL0     C63247  11.602   2.285   5.015  0.5344 -1.3484  0.6694
  469MOL0     H63248  11.699   2.041   5.383 -4.0153  0.4878  0.1083
  469MOL0     H63249  11.782   1.985   5.599 -0.4199 -0.6058  1.0723
  469MOL0     H63250  11.987   2.187   5.694  1.4916  1.8612  1.7613
  469MOL0     H63251  11.953   2.305   5.826  1.0766  0.3796 -0.0367
  469MOL0     H63252  12.033   2.019   5.872  1.5987  0.1097 -2.7055
  469MOL0     H63253  12.133   2.165   5.861 -1.0583  1.5646 -0.6183
  469MOL0     H63254  11.895   2.212   6.049  0.9343  2.4034  1.2294
  469MOL0     H63255  11.984   2.056   6.090 -0.9899  0.7311  0.2626
  469MOL0     H63256  12.048   2.211   6.229  0.9541 -0.2914 -0.4853
  469MOL0     H63257  12.180   2.172   6.105  0.4259  0.5440 -0.8947
  469MOL0     H63258  12.161   2.367   5.997  0.4279 -1.9541  0.1167
  469MOL0     H63259  11.989   2.400   6.058 -0.6639 -1.0846  0.0027
  469MOL0     H63260  12.084   2.441   6.281  2.0592  0.4836  0.5536
  469MOL0     H63261  12.242   2.410   6.232 -1.4165 -1.3401  2.2714
  469MOL0     H63262  12.051   2.626   6.129  1.7126  0.7487 -3.0496
  469MOL0     H63263  12.186   2.639   6.251  0.4662 -1.2175  1.7554
  469MOL0     H63264  12.221   2.577   5.958 -1.4206  0.1703  0.7979
  469MOL0     H63265  12.352   2.631   6.058  0.2533 -0.7552  0.1051
  469MOL0     H63266  12.356   2.918   6.114 -0.8677 -0.0408 -0.4213
  469MOL0     H63267  12.084   3.172   6.111 -1.5150 -1.2142 -2.6233
  469MOL0     H63268  12.251   3.146   6.160 -0.2802 -2.7269  0.6693
  469MOL0     H63269  12.323   3.156   5.921  1.0471 -1.4249  2.5401
  469MOL0     H63270  12.266   3.301   5.991  0.1437  0.4452 -0.5638
  469MOL0     H63271  12.038   3.259   5.879  0.6389  0.7328  1.6209
  469MOL0     H63272  12.112   3.115   5.803 -0.1950 -0.5732  2.7084
  469MOL0     H63273  12.271   3.370   5.766 -0.1272  1.2446 -2.1302
  469MOL0     H63274  12.112   3.347   5.680 -2.2784 -4.3401 -2.1662
  469MOL0     H63275  12.391   3.081   5.491  0.6653  2.7130  5.2640
  469MOL0     H63276  12.544   3.117   5.163 -1.3421 -2.5736 -3.2427
  469MOL0     H63277  12.495   3.013   5.286  1.2841  0.3404 -1.0982
  469MOL0     H63278  12.376   3.060   5.159 -1.2225 -1.1810  2.8987
  469MOL0     H63279  12.572   3.531   5.042  1.1756  0.4665 -0.1002
  469MOL0     H63280  12.648   3.730   4.893 -1.4873  2.5480  0.2211
  469MOL0     H63281  12.498   3.946   4.528  0.0898  0.0074 -0.5026
  469MOL0     H63282  12.370   3.836   4.567 -0.8543  1.6388 -2.3474
  469MOL0     H63283  12.309   4.068   4.560  0.5182  2.8366  0.2383
  469MOL0     H63284  12.313   4.036   4.738  3.4770 -2.4891  2.7041
  469MOL0     H63285  12.567   4.127   4.731  1.4398  1.6647 -0.6776
  469MOL0     H63286  12.430   4.237   4.724 -0.8384 -1.5849 -0.5251
  469MOL0     H63287  12.589   4.140   4.479  0.3301 -4.1927  4.6365
  469MOL0     H63288  12.444   4.233   4.464  1.3454 -2.1824 -1.4252
  469MOL0     H63289  12.562   4.417   4.619  2.3851  2.4984 -0.4556
  469MOL0     H63290  12.605   4.394   4.451  1.1380  0.9498  0.7620
  469MOL0     H63291  12.759   4.269   4.683 -2.8950 -0.9094 -0.2653
  469MOL0     H63292  12.826   4.286   4.512  4.0240  1.7784  1.4641
  469MOL0     H63293  12.770   4.519   4.682 -2.2091  0.6064 -0.4594
  469MOL0     H63294  12.810   4.503   4.512  1.1502  1.2836  0.4481
  469MOL0     H63295  13.025   4.381   4.570 -2.1974 -0.7613 -1.1487
  469MOL0     H63296  12.980   4.375   4.741 -1.1722  1.5271  1.4826
  469MOL0     H63297  12.253   3.775   4.749 -2.3239  0.5230  2.6196
  469MOL0     H63298  12.177   3.621   4.911  0.0608  2.8384 -1.4875
  469MOL0     H63299  12.275   3.520   5.300  0.5684  0.8916  0.4249
  469MOL0     H63300  12.222   3.480   5.527  0.4752  0.3019 -0.2932
  469MOL0     H63301  11.697   2.396   5.729 -0.2820  2.3029 -1.9309
  469MOL0     H63302  11.632   2.451   5.488  0.4828  0.4472 -2.9197
  469MOL0     H63303  11.294   2.328   5.121 -0.4984 -1.7593 -0.1570
  469MOL0     H63304  11.241   2.337   4.896 -1.4620 -3.4335  2.2646
  469MOL0     H63305  11.565   2.513   4.663  1.5386  1.3522 -2.5650
  469MOL0     H63306  11.628   2.350   4.608  0.7579  0.6224 -3.4082
  469MOL0     H63307  11.398   2.492   4.473 -1.9387 -1.4971 -4.0176
  469MOL0     H63308  11.461   2.344   4.421 -0.1980  0.3645  0.3351
  469MOL0     H63309  11.633   2.594   4.425  0.8219  0.5307 -1.0343
  469MOL0     H63310  11.510   2.551   4.295 -1.7645 -1.3091 -0.1243
  469MOL0     H63311  11.628   2.334   4.251  1.5050 -2.1122 -0.9145
  469MOL0     H63312  11.740   2.377   4.384 -0.8979 -3.2282 -0.2721
  469MOL0     H63313  11.836   2.581   4.008 -1.4505 -1.2179 -0.8569
  469MOL0     H63314  11.662   2.294   4.809 -1.9059  1.5283 -2.0372
  469MOL0     H63315  11.707   2.286   5.040  1.4774  1.5067 -2.6113
  470MOL0     O63316   8.673   7.720   5.136  0.0287  1.1019 -0.7062
  470MOL0     C63317   8.643   7.671   5.251  0.5116  0.3934 -0.5638
  470MOL0     O63318   8.531   7.615   5.286  0.5913  0.2429  0.1027
  470MOL0     C63319   8.420   7.593   5.204  0.8049  0.2090 -0.0768
  470MOL0     C63320   8.428   7.518   5.081 -0.0871  0.3167  0.0830
  470MOL0     C63321   8.314   7.491   5.008  0.2022  0.6040  0.2445
  470MOL0     C63322   8.187   7.544   5.041 -0.3104 -0.4533  0.4486
  470MOL0     O63323   8.081   7.540   4.956 -0.5306  0.5654  0.2280
  470MOL0     C63324   7.974   7.623   4.986  0.4284 -0.9882 -0.7856
  470MOL0     C63325   7.867   7.609   4.870 -0.3709  0.0120  0.2632
  470MOL0     C63326   7.789   7.483   4.874  0.8447  0.4639  0.3211
  470MOL0     C63327   7.675   7.486   4.986  0.4729  0.1615 -0.7204
  470MOL0     C63328   7.551   7.568   4.937 -0.0825 -0.2427 -0.1138
  470MOL0     C63329   7.456   7.512   4.832 -0.1662 -0.8478  0.1778
  470MOL0     C63330   7.421   7.356   4.833  0.1631 -0.0225  0.1157
  470MOL0     C63331   7.354   7.312   4.967 -0.1930 -0.4698 -0.3536
  470MOL0     N63332   7.275   7.184   4.945 -0.0544  0.3203  0.2326
  470MOL0     C63333   7.281   7.088   4.849 -0.3712  0.2747  0.0848
  470MOL0     C63334   7.155   7.033   4.844 -0.1028  0.1293 -0.8740
  470MOL0     C63335   7.105   6.932   4.746 -0.5053  0.4918 -0.3128
  470MOL0     C63336   7.070   6.804   4.834  0.4517 -0.0170  0.0481
  470MOL0     C63337   6.964   6.720   4.762  0.6060  1.2560  0.1493
  470MOL0     C63338   6.907   6.603   4.848 -0.0005  0.6102 -0.4156
  470MOL0     O63339   7.008   6.546   4.936 -0.1138  0.6090  0.2686
  470MOL0     C63340   6.943   6.489   5.060 -0.5225 -0.0814  0.2271
  470MOL0     C63341   7.035   6.434   5.149 -0.1063  1.4594 -1.4001
  470MOL0     C63342   6.993   6.367   5.272 -0.2860 -0.4254  0.0215
  470MOL0     C63343   7.101   6.302   5.363 -0.2835  0.4046 -0.4890
  470MOL0     C63344   6.857   6.353   5.305  0.7914  0.4015  0.3748
  470MOL0     C63345   6.794   6.288   5.421  0.5030 -0.7784 -0.1791
  470MOL0     O63346   6.665   6.326   5.439  0.4072 -0.1824 -0.2914
  470MOL0     C63347   6.580   6.238   5.501 -0.7362 -0.2054 -0.2746
  470MOL0     C63348   6.568   6.248   5.641 -0.0472 -0.2823 -0.6074
  470MOL0     C63349   6.464   6.201   5.716 -0.0250  1.0135 -0.4046
  470MOL0     C63350   6.382   6.118   5.638 -0.7832  0.0563 -0.3945
  470MOL0     O63351   6.284   6.048   5.695  0.2611  0.4174 -0.2161
  470MOL0     C63352   6.258   6.049   5.833 -0.5533  0.5745 -0.7305
  470MOL0     C63353   6.204   5.905   5.868  0.2417 -0.1895 -0.0423
  470MOL0     C63354   6.312   5.801   5.850  0.4184 -0.3184 -0.7797
  470MOL0     C63355   6.287   5.684   5.944  0.1280  0.3848  0.1726
  470MOL0     C63356   6.404   5.579   5.944  0.5370 -0.5343 -0.0808
  470MOL0     C63357   6.379   5.442   6.030 -0.2629  0.1466 -0.5702
  470MOL0     C63358   6.364   5.484   6.179 -0.4856  0.0793 -0.4270
  470MOL0     C63359   6.337   5.362   6.272 -0.5225 -0.5345 -0.4339
  470MOL0    Cl63360   6.210   5.385   6.381  0.5102  0.6581  0.2206
  470MOL0     C63361   6.390   6.094   5.502  0.0396 -0.1059  1.0314
  470MOL0     C63362   6.488   6.167   5.432  1.1777 -0.0534 -0.6838
  470MOL0     O63363   6.850   6.191   5.473 -0.4119  1.0111 -0.8137
  470MOL0     C63364   6.761   6.421   5.218 -0.4152 -0.0641 -0.5155
  470MOL0     C63365   6.809   6.488   5.105  0.4391  0.3304 -0.2033
  470MOL0     N63366   7.095   7.086   4.961 -1.0395  0.2998 -0.1498
  470MOL0     N63367   7.171   7.160   5.021 -0.3664  0.5401 -0.1438
  470MOL0     C63368   8.186   7.615   5.170  0.2227 -0.1402 -0.1152
  470MOL0     C63369   8.295   7.635   5.248  0.0653 -0.0184 -0.4117
  470MOL0     C63370   8.741   7.698   5.352 -0.1028 -0.3318  0.4634
  470MOL0     C63371   8.877   7.716   5.322  0.6453  0.0003  0.2233
  470MOL0     C63372   8.964   7.749   5.428  0.3263  0.2171  0.1340
  470MOL0     C63373   8.924   7.758   5.561 -0.3658 -0.3612 -0.4044
  470MOL0     O63374   9.007   7.791   5.660 -0.0627 -0.2404 -0.0096
  470MOL0     C63375   9.147   7.812   5.652  0.5538 -0.0663  0.2325
  470MOL0     C63376   9.222   7.841   5.785  0.5192  0.7148 -0.0258
  470MOL0     C63377   9.195   7.742   5.902 -0.3978 -0.2241  0.2228
  470MOL0     C63378   9.213   7.598   5.871 -0.8269 -0.3102  1.1961
  470MOL0     C63379   9.187   7.514   5.995  0.0208  0.3629  0.9780
  470MOL0     C63380   9.146   7.446   6.088  0.3305 -0.2731 -0.5905
  470MOL0     C63381   8.791   7.737   5.592  0.4595  0.5613  1.0175
  470MOL0     C63382   8.707   7.694   5.488  0.4106  0.1406  0.3805
  470MOL0     H63383   8.526   7.487   5.044 -0.0828  4.3141 -4.1585
  470MOL0     H63384   8.327   7.439   4.914 -6.0636  3.4992 -2.8507
  470MOL0     H63385   7.934   7.619   5.088 -4.0996 -0.3712 -2.3058
  470MOL0     H63386   8.003   7.729   4.981  3.7021 -1.6872  0.3879
  470MOL0     H63387   7.799   7.693   4.883 -1.7605 -1.4290  3.2783
  470MOL0     H63388   7.926   7.619   4.779  0.5000 -1.7469  0.5736
  470MOL0     H63389   7.752   7.471   4.771  0.4781  3.5343  0.0137
  470MOL0     H63390   7.856   7.399   4.895  0.0411 -0.4851 -0.7603
  470MOL0     H63391   7.633   7.391   5.017  1.7699 -0.0682  0.4168
  470MOL0     H63392   7.716   7.529   5.077 -0.4281 -1.5762  0.5552
  470MOL0     H63393   7.508   7.605   5.030  1.4108 -1.5647  1.1683
  470MOL0     H63394   7.598   7.654   4.888  0.2704  1.0346  2.3254
  470MOL0     H63395   7.358   7.558   4.838 -0.9280 -2.5771  1.7808
  470MOL0     H63396   7.489   7.538   4.731 -1.4463  2.8099  0.5584
  470MOL0     H63397   7.356   7.336   4.748  2.5824 -0.3398 -1.7615
  470MOL0     H63398   7.509   7.292   4.819 -0.0572 -1.0903  2.8941
  470MOL0     H63399   7.289   7.395   4.993  0.5015  0.6042 -1.8960
  470MOL0     H63400   7.421   7.296   5.052 -3.3506 -2.0076  2.0204
  470MOL0     H63401   7.361   7.071   4.778 -0.7977 -1.1540 -0.0877
  470MOL0     H63402   7.017   6.969   4.694  0.5533 -0.9754 -3.4197
  470MOL0     H63403   7.190   6.912   4.680 -1.4445  1.8275 -1.9685
  470MOL0     H63404   7.045   6.828   4.938  0.8039  2.7376 -0.4301
  470MOL0     H63405   7.151   6.731   4.831 -1.1984 -1.9594  0.5264
  470MOL0     H63406   6.996   6.682   4.664 -0.7443  0.1336  0.1104
  470MOL0     H63407   6.868   6.771   4.748  0.3518  0.7035 -0.1735
  470MOL0     H63408   6.896   6.525   4.772 -0.4575  0.5494 -0.2899
  470MOL0     H63409   6.809   6.626   4.891 -0.5411  0.1719 -1.3732
  470MOL0     H63410   7.141   6.429   5.129  0.4021 -3.7485  0.9516
  470MOL0     H63411   7.076   6.315   5.469 -2.2117  0.2817 -0.9025
  470MOL0     H63412   7.115   6.196   5.343  0.6415  0.5486 -0.6756
  470MOL0     H63413   7.202   6.342   5.350  1.2803 -2.7597  0.9560
  470MOL0     H63414   6.633   6.318   5.693  0.0819 -1.9780  1.6955
  470MOL0     H63415   6.457   6.205   5.825  0.5046 -2.5893 -0.1249
  470MOL0     H63416   6.347   6.055   5.897 -2.1095 -0.4311  1.6575
  470MOL0     H63417   6.187   6.124   5.867  0.8883  2.0131 -0.7736
  470MOL0     H63418   6.158   5.904   5.968 -0.7910  2.2809 -0.4086
  470MOL0     H63419   6.118   5.878   5.807 -1.7978  1.5397  1.8774
  470MOL0     H63420   6.414   5.840   5.847  1.2995 -2.4018  0.3989
  470MOL0     H63421   6.292   5.753   5.754  1.3156  0.6495 -1.4736
  470MOL0     H63422   6.258   5.704   6.048 -2.0349 -2.7765  0.3273
  470MOL0     H63423   6.198   5.632   5.905 -1.1369  1.4624  1.5053
  470MOL0     H63424   6.498   5.630   5.971  0.6218  0.1815 -1.6173
  470MOL0     H63425   6.417   5.551   5.839  4.1149 -0.1243  0.1038
  470MOL0     H63426   6.294   5.393   5.983  0.7895 -0.2567 -2.1450
  470MOL0     H63427   6.465   5.376   6.017  1.3569  1.4296  2.5903
  470MOL0     H63428   6.283   5.556   6.193  0.6770  0.9948  2.4869
  470MOL0     H63429   6.456   5.532   6.215 -0.0304 -2.8676  2.9689
  470MOL0     H63430   6.429   5.337   6.326  0.2822 -0.0296 -1.5421
  470MOL0     H63431   6.312   5.272   6.215 -0.9129  0.3266 -1.6775
  470MOL0     H63432   6.325   6.032   5.442 -0.6163  2.3648 -1.0206
  470MOL0     H63433   6.511   6.170   5.326  0.0823 -0.5684 -0.9533
  470MOL0     H63434   6.653   6.425   5.227 -0.4401  0.2287 -0.9471
  470MOL0     H63435   6.729   6.536   5.049 -2.1474 -0.4747  2.6068
  470MOL0     H63436   8.102   7.667   5.214  1.7249  1.0244  1.5183
  470MOL0     H63437   8.293   7.685   5.345 -1.5603  0.2830 -0.5743
  470MOL0     H63438   8.924   7.708   5.225  1.6471 -2.4430  0.8372
  470MOL0     H63439   9.064   7.772   5.394  0.8865 -0.1566  1.4682
  470MOL0     H63440   9.193   7.725   5.604  1.7863  0.9486 -0.4951
  470MOL0     H63441   9.161   7.897   5.584 -0.6373 -1.2149 -1.5368
  470MOL0     H63442   9.207   7.945   5.817  1.8765  0.4804  1.4761
  470MOL0     H63443   9.328   7.854   5.762  0.0320  3.1067 -1.3042
  470MOL0     H63444   9.091   7.756   5.933 -1.1054 -1.0099 -1.6717
  470MOL0     H63445   9.257   7.775   5.986 -2.2908  0.2851  1.4901
  470MOL0     H63446   9.308   7.573   5.825 -0.5786  2.0980  0.2584
  470MOL0     H63447   9.146   7.579   5.787  2.5415  0.7678 -2.0076
  470MOL0     H63448   9.111   7.383   6.167 -0.7118  1.3009  0.2602
  470MOL0     H63449   8.758   7.734   5.695  0.4719 -0.1380  1.0067
  470MOL0     H63450   8.608   7.669   5.525 -0.5074  4.5016  1.4780
  471MOL0     O63451   2.838   8.137   5.334 -0.6581 -0.4500 -0.4717
  471MOL0     C63452   2.957   8.160   5.304  0.0143 -0.4685  0.9603
  471MOL0     O63453   3.011   8.287   5.298  0.2410  0.0716  0.3374
  471MOL0     C63454   2.946   8.405   5.313  1.2761  0.4468  0.2396
  471MOL0     C63455   3.032   8.504   5.315 -0.4651  0.0096 -0.0889
  471MOL0     C63456   2.996   8.640   5.326 -0.0962 -0.3173  0.3186
  471MOL0     C63457   2.863   8.669   5.342 -0.5164 -0.5454  0.2391
  471MOL0     O63458   2.817   8.798   5.354  0.0179  0.3837  0.6679
  471MOL0     C63459   2.770   8.836   5.487  0.1293  0.0624 -0.2064
  471MOL0     C63460   2.884   8.845   5.582  0.7348 -0.4556  0.3308
  471MOL0     C63461   2.837   8.878   5.718 -1.3061  0.3887 -0.0802
  471MOL0     C63462   2.767   8.763   5.797  0.8069 -0.0138  0.9113
  471MOL0     C63463   2.855   8.691   5.907 -0.2121 -0.0816 -0.6188
  471MOL0     C63464   2.880   8.785   6.028  0.5087 -0.7480  0.6493
  471MOL0     C63465   3.022   8.795   6.086 -0.1335  0.3409  0.4230
  471MOL0     C63466   3.101   8.661   6.096  0.0887 -0.5782 -0.5197
  471MOL0     N63467   3.230   8.697   6.155 -0.5918 -0.2976  0.1368
  471MOL0     C63468   3.239   8.723   6.289 -0.6022  0.5762 -1.0173
  471MOL0     C63469   3.364   8.787   6.300 -0.3568  0.0702  0.7480
  471MOL0     C63470   3.440   8.843   6.415 -0.0341  0.2070 -0.2887
  471MOL0     C63471   3.377   8.814   6.557  0.5792  1.0769  0.1205
  471MOL0     C63472   3.391   8.668   6.598 -0.2024 -0.1590  0.2927
  471MOL0     C63473   3.285   8.618   6.696  0.1335 -0.5254 -0.5896
  471MOL0     O63474   3.160   8.594   6.632 -0.2612  0.1317  0.5523
  471MOL0     C63475   3.045   8.582   6.694  0.0344 -0.1166 -1.3116
  471MOL0     C63476   3.019   8.581   6.834 -0.4127 -1.0072  0.1766
  471MOL0     C63477   2.886   8.583   6.882  0.0766  0.1863 -0.2716
  471MOL0     C63478   2.875   8.559   7.028 -0.8116  0.5652  0.9135
  471MOL0     C63479   2.776   8.587   6.803  0.1040  0.3161  0.1884
  471MOL0     C63480   2.636   8.582   6.850 -0.9593  0.0403 -0.5746
  471MOL0     O63481   2.613   8.631   6.969 -0.8896 -0.2073  0.0088
  471MOL0     C63482   2.502   8.709   6.988 -0.3429  0.9227 -0.5679
  471MOL0     C63483   2.379   8.650   6.984  0.3397  0.3448  0.5496
  471MOL0     C63484   2.259   8.727   7.012 -0.3800  0.3076 -0.5700
  471MOL0     C63485   2.281   8.854   7.071 -0.0614 -0.2637  0.1070
  471MOL0     O63486   2.190   8.925   7.133 -0.3267 -0.3230  0.3352
  471MOL0     C63487   2.054   8.890   7.105 -0.8937 -0.2525 -0.7661
  471MOL0     C63488   1.973   9.018   7.114  0.1526 -0.6978 -1.1796
  471MOL0     C63489   2.005   9.128   7.015  0.1591 -0.2731  0.1900
  471MOL0     C63490   1.918   9.252   7.058 -0.6742  0.8110 -0.7616
  471MOL0     C63491   1.898   9.344   6.940 -0.1851 -0.8949  0.2773
  471MOL0     C63492   1.776   9.440   6.950 -0.3669 -0.6709  0.2716
  471MOL0     C63493   1.764   9.519   6.816  0.6802  0.4883 -0.2804
  471MOL0     C63494   1.871   9.627   6.800  0.3101 -0.1038 -0.2471
  471MOL0    Cl63495   1.815   9.758   6.703  0.1022  0.4686  0.1746
  471MOL0     C63496   2.409   8.911   7.073  0.0418 -0.5971  0.4961
  471MOL0     C63497   2.519   8.836   7.029  0.2771 -0.7661  0.4356
  471MOL0     O63498   2.548   8.556   6.768 -0.6323  0.4125  0.4009
  471MOL0     C63499   2.805   8.583   6.660 -0.8162  0.4137 -0.1495
  471MOL0     C63500   2.932   8.578   6.609 -0.0074  0.5556  0.1105
  471MOL0     N63501   3.416   8.802   6.172  0.0998 -0.2328 -1.1520
  471MOL0     N63502   3.337   8.761   6.093 -0.4278 -0.1960  0.5515
  471MOL0     C63503   2.772   8.564   5.345  0.4564 -0.3965 -0.5639
  471MOL0     C63504   2.805   8.429   5.328 -0.0113  0.6661 -0.1382
  471MOL0     C63505   3.059   8.048   5.275  0.5419  0.6598 -0.6695
  471MOL0     C63506   3.194   8.065   5.268  0.0598  0.0914 -0.4009
  471MOL0     C63507   3.290   7.966   5.237 -0.2316 -0.3053 -0.3185
  471MOL0     C63508   3.239   7.836   5.227  0.4612 -0.2566  0.3444
  471MOL0     O63509   3.338   7.749   5.211 -0.1258  0.3628  0.5390
  471MOL0     C63510   3.338   7.628   5.291  0.7342  0.4494 -1.4279
  471MOL0     C63511   3.398   7.669   5.428 -0.1046 -0.5388 -0.4131
  471MOL0     C63512   3.548   7.710   5.414  1.1439 -0.5254  0.1629
  471MOL0     C63513   3.573   7.826   5.507 -0.0775  0.3555 -0.3991
  471MOL0     C63514   3.714   7.871   5.504  0.8649  0.3333 -0.0978
  471MOL0     C63515   3.829   7.905   5.484  0.5230 -1.0759  0.7512
  471MOL0     C63516   3.104   7.806   5.256 -0.2548 -0.6758 -0.2596
  471MOL0     C63517   3.005   7.914   5.271  0.0656  0.7870  0.1424
  471MOL0     H63518   3.139   8.489   5.301 -0.3594  0.3079  0.3820
  471MOL0     H63519   3.078   8.710   5.314 -0.6820  0.3825  0.3282
  471MOL0     H63520   2.718   8.931   5.492 -1.2040 -0.5835 -1.1795
  471MOL0     H63521   2.703   8.755   5.519  1.7781 -0.5609  1.9013
  471MOL0     H63522   2.943   8.753   5.569 -0.5572 -1.0304 -2.0413
  471MOL0     H63523   2.955   8.923   5.553  0.2728 -0.3257 -0.4937
  471MOL0     H63524   2.920   8.911   5.782 -1.4409 -2.3183  1.6681
  471MOL0     H63525   2.763   8.958   5.722 -2.3055 -0.5365  3.6252
  471MOL0     H63526   2.682   8.805   5.850 -0.0911  0.6943 -0.9939
  471MOL0     H63527   2.740   8.689   5.721 -2.0657  2.8958 -1.2009
  471MOL0     H63528   2.798   8.605   5.944  0.7292  0.2546  1.7429
  471MOL0     H63529   2.949   8.655   5.864 -0.1657 -2.4173  1.2165
  471MOL0     H63530   2.852   8.884   5.991  1.4675 -0.4742  0.6488
  471MOL0     H63531   2.798   8.767   6.099  0.5841 -0.0381  0.9225
  471MOL0     H63532   3.071   8.856   6.009  3.4287 -0.4076  1.9439
  471MOL0     H63533   3.014   8.839   6.186 -0.7623  2.0232 -0.3159
  471MOL0     H63534   3.103   8.597   6.008  2.7671 -1.2446 -0.0625
  471MOL0     H63535   3.047   8.611   6.177  1.2371  4.1570  3.7543
  471MOL0     H63536   3.185   8.694   6.378 -0.0509 -2.0028 -1.4506
  471MOL0     H63537   3.542   8.802   6.410  0.3487  1.1121  0.0468
  471MOL0     H63538   3.453   8.951   6.407  0.9584  0.3029  2.0019
  471MOL0     H63539   3.272   8.842   6.559  0.7568  1.8137 -0.2787
  471MOL0     H63540   3.433   8.876   6.628  1.4251 -1.0626  1.4331
  471MOL0     H63541   3.494   8.658   6.632 -0.2928  0.1022  0.6540
  471MOL0     H63542   3.381   8.603   6.510  1.9277 -1.8505  1.2088
  471MOL0     H63543   3.276   8.678   6.787 -4.3239 -1.5942 -0.0981
  471MOL0     H63544   3.316   8.523   6.743  0.5829  0.4527  1.2021
  471MOL0     H63545   3.105   8.571   6.900 -0.9956 -1.0346  0.9528
  471MOL0     H63546   2.837   8.647   7.081  2.2907  1.9299  1.1291
  471MOL0     H63547   2.830   8.460   7.040  1.0297 -0.6975 -1.5880
  471MOL0     H63548   2.976   8.540   7.065  0.2317  2.6034 -0.6406
  471MOL0     H63549   2.371   8.549   6.944  3.1765 -0.2796  1.3166
  471MOL0     H63550   2.165   8.672   7.007  0.5706 -1.5583  0.9436
  471MOL0     H63551   2.032   8.826   7.019 -1.0739 -1.2420  0.0042
  471MOL0     H63552   2.033   8.840   7.200  2.2707  0.3529  0.3758
  471MOL0     H63553   1.869   8.992   7.094 -0.3792  0.8745 -0.6602
  471MOL0     H63554   1.981   9.066   7.213 -2.3944 -1.7054 -0.4074
  471MOL0     H63555   1.979   9.097   6.913 -1.3957  0.2630  0.3931
  471MOL0     H63556   2.111   9.154   7.011  0.5174 -1.6031 -3.7643
  471MOL0     H63557   1.821   9.211   7.089  1.3080 -1.7580  2.7972
  471MOL0     H63558   1.965   9.299   7.145 -1.4407  1.0833 -0.4876
  471MOL0     H63559   1.866   9.298   6.846  3.5160  1.9584 -2.7228
  471MOL0     H63560   1.986   9.408   6.925 -0.1691  0.8218  5.6406
  471MOL0     H63561   1.684   9.380   6.952 -0.3933 -0.6198  1.4392
  471MOL0     H63562   1.783   9.508   7.035 -3.4183 -0.7892  0.7389
  471MOL0     H63563   1.666   9.567   6.814 -0.4975 -1.5473  1.8459
  471MOL0     H63564   1.747   9.443   6.739 -2.4196  0.8180 -0.0457
  471MOL0     H63565   1.954   9.577   6.749 -0.9452 -0.2140 -2.2688
  471MOL0     H63566   1.904   9.660   6.899 -0.0672  0.6269 -0.3628
  471MOL0     H63567   2.418   9.012   7.110 -3.6857  0.0135  0.1130
  471MOL0     H63568   2.623   8.866   7.021 -0.0110 -0.2026 -2.1562
  471MOL0     H63569   2.727   8.595   6.585 -0.2684  0.2368 -0.7531
  471MOL0     H63570   2.961   8.576   6.505 -0.7470  0.2536 -0.0995
  471MOL0     H63571   2.667   8.587   5.327 -0.2443 -2.8650  0.0348
  471MOL0     H63572   2.731   8.350   5.327 -0.3532  0.9919 -0.9957
  471MOL0     H63573   3.225   8.167   5.287  0.6504  0.2001 -1.7924
  471MOL0     H63574   3.396   7.987   5.249 -0.3372 -0.3684  0.8215
  471MOL0     H63575   3.236   7.591   5.307  1.6560 -2.4340 -1.7364
  471MOL0     H63576   3.383   7.540   5.245 -1.0007 -0.7265 -0.9670
  471MOL0     H63577   3.397   7.586   5.500  3.4845 -0.3853 -0.0054
  471MOL0     H63578   3.335   7.750   5.464 -0.2047  0.1473 -2.0683
  471MOL0     H63579   3.588   7.724   5.313 -2.6430 -1.6882 -1.7181
  471MOL0     H63580   3.602   7.623   5.452 -1.5714 -2.5203 -0.1892
  471MOL0     H63581   3.543   7.809   5.611  0.4637  2.4981  0.1468
  471MOL0     H63582   3.524   7.919   5.477  1.2554  1.1943 -0.0759
  471MOL0     H63583   3.925   7.944   5.461 -0.3552  0.3832 -0.6381
  471MOL0     H63584   3.068   7.705   5.273 -3.8737  0.4826 -0.0233
  471MOL0     H63585   2.902   7.888   5.291  0.8866 -2.3380  0.8964
  472MOL0     O63586  10.841   9.411   3.642  0.5064  0.5192  0.6355
  472MOL0     C63587  10.857   9.521   3.680 -0.2127 -0.3908  0.1663
  472MOL0     O63588  10.770   9.597   3.722 -0.8798 -0.0980 -0.5283
  472MOL0     C63589  10.635   9.567   3.723 -0.5825  0.2532 -1.2509
  472MOL0     C63590  10.556   9.562   3.613 -0.5858  0.0738 -0.2801
  472MOL0     C63591  10.420   9.542   3.603  0.5932  0.1165  0.3045
  472MOL0     C63592  10.348   9.538   3.721 -0.2727  0.1077  0.0337
  472MOL0     O63593  10.211   9.534   3.731  0.0486  0.1493  0.3067
  472MOL0     C63594  10.123   9.608   3.645 -0.8869  1.4512  0.3282
  472MOL0     C63595  10.153   9.756   3.617  0.3337  0.9127 -0.0136
  472MOL0     C63596  10.177   9.830   3.747 -0.4096  0.0547 -0.5087
  472MOL0     C63597  10.192   9.977   3.719 -0.8472 -1.2328 -0.7805
  472MOL0     C63598  10.219  10.065   3.851  0.2077 -0.3772  0.4874
  472MOL0     C63599  10.255  10.209   3.825  0.3590 -0.4401  0.3140
  472MOL0     C63600  10.296  10.276   3.952 -0.0716 -0.5955  0.0442
  472MOL0     C63601  10.357  10.408   3.924  0.3799  0.6065  0.7228
  472MOL0     N63602  10.493  10.396   3.868 -0.0236  0.2309 -0.7012
  472MOL0     C63603  10.603  10.356   3.939  0.1462  0.3224 -0.3098
  472MOL0     C63604  10.702  10.345   3.851 -0.8209 -0.1684 -0.5244
  472MOL0     C63605  10.846  10.311   3.887  0.6243  0.1597  0.7566
  472MOL0     C63606  10.898  10.427   3.972 -0.1552 -0.3861  0.0948
  472MOL0     C63607  11.045  10.389   3.993 -0.4366  0.1138 -0.3739
  472MOL0     C63608  11.081  10.272   4.088 -0.6611  0.7982  0.0060
  472MOL0     O63609  11.216  10.282   4.115 -0.1258 -0.5959  1.0068
  472MOL0     C63610  11.269  10.212   4.215  0.9732  1.3178 -1.0037
  472MOL0     C63611  11.193  10.116   4.294 -1.2036  0.1633 -0.6965
  472MOL0     C63612  11.249  10.047   4.399 -0.8802 -0.4458  0.3308
  472MOL0     C63613  11.159   9.937   4.461  0.0412 -0.8659  0.0915
  472MOL0     C63614  11.385  10.076   4.432 -0.3907  0.2654 -0.0665
  472MOL0     C63615  11.453  10.015   4.544  0.3407  0.1336 -1.2062
  472MOL0     O63616  11.586   9.990   4.526 -0.2192 -0.0372 -0.1714
  472MOL0     C63617  11.656   9.969   4.647 -0.3346 -0.2481 -0.2526
  472MOL0     C63618  11.628   9.858   4.728 -0.2106 -0.4991 -0.1985
  472MOL0     C63619  11.691   9.840   4.852  0.1824 -0.4331 -0.5757
  472MOL0     C63620  11.797   9.925   4.889 -0.0652 -0.7977 -0.2522
  472MOL0     O63621  11.885   9.914   4.996  0.5256  0.0470  0.6294
  472MOL0     C63622  11.849   9.830   5.106 -0.5477 -0.5669  0.1687
  472MOL0     C63623  11.957   9.857   5.197  0.5266  0.0954  1.1548
  472MOL0     C63624  12.102   9.821   5.170 -0.1047  0.5432 -0.1417
  472MOL0     C63625  12.197   9.887   5.273  0.4321  0.3679  0.7215
  472MOL0     C63626  12.343   9.845   5.242  0.5144 -0.4440 -0.0662
  472MOL0     C63627  12.439   9.916   5.341  0.2947 -0.1056 -0.7815
  472MOL0     C63628  12.392   9.897   5.488 -0.0669  0.1007  0.3446
  472MOL0     C63629  12.506   9.939   5.586  0.3293 -0.3682 -0.0306
  472MOL0    Cl63630  12.474  10.113   5.601  0.0065 -0.0320 -0.4539
  472MOL0     C63631  11.830  10.031   4.800  0.1602  0.2453 -0.3089
  472MOL0     C63632  11.753  10.051   4.685 -0.7378  0.0810  0.7503
  472MOL0     O63633  11.379   9.973   4.636  0.0635 -0.4467 -0.9996
  472MOL0     C63634  11.459  10.173   4.359  0.5412 -0.5421  0.1227
  472MOL0     C63635  11.406  10.235   4.246  1.1630 -0.4871 -0.2525
  472MOL0     N63636  10.649  10.359   3.728 -0.3373  0.3003  0.3332
  472MOL0     N63637  10.529  10.406   3.735  0.6604 -0.0058 -1.8944
  472MOL0     C63638  10.428   9.543   3.848  0.5184 -0.2544  0.5859
  472MOL0     C63639  10.566   9.551   3.847  0.7130 -0.2174  0.1112
  472MOL0     C63640  11.007   9.553   3.687 -0.4668  0.5570  0.2035
  472MOL0     C63641  11.046   9.688   3.718 -0.4594  0.4598 -0.6850
  472MOL0     C63642  11.174   9.728   3.714 -0.5190 -0.7316  0.3271
  472MOL0     C63643  11.274   9.635   3.688 -1.1973  0.0661  0.8375
  472MOL0     O63644  11.409   9.677   3.683  0.1860  0.2079 -0.2488
  472MOL0     C63645  11.480   9.617   3.789 -0.8926  0.9418  0.0014
  472MOL0     C63646  11.632   9.645   3.782  0.7277  0.5642 -1.1807
  472MOL0     C63647  11.699   9.616   3.912 -0.0505  0.1991 -0.2892
  472MOL0     C63648  11.850   9.652   3.926  0.2014  0.5906  0.2146
  472MOL0     C63649  11.875   9.795   3.908 -0.1475 -0.9946 -0.0728
  472MOL0     C63650  11.917   9.911   3.893 -0.2351  0.1268 -0.1719
  472MOL0     C63651  11.246   9.503   3.662  0.3309  0.3155  0.6174
  472MOL0     C63652  11.113   9.464   3.664 -1.5248  0.1746  0.3199
  472MOL0     H63653  10.619   9.580   3.526 -1.2184  0.2703 -0.7029
  472MOL0     H63654  10.387   9.537   3.500 -0.4826 -1.0102  0.6771
  472MOL0     H63655  10.119   9.556   3.549  0.7285 -0.1841  1.0929
  472MOL0     H63656  10.024   9.588   3.685 -0.0506 -5.0461  0.1495
  472MOL0     H63657  10.239   9.766   3.550 -2.5201  1.5878 -3.9631
  472MOL0     H63658  10.065   9.809   3.581  1.7795  2.4586 -1.4570
  472MOL0     H63659  10.094   9.821   3.818  0.2298  0.2796  0.2895
  472MOL0     H63660  10.261   9.784   3.799 -2.9953  0.2175  4.4728
  472MOL0     H63661  10.257   9.993   3.632 -1.2049 -0.0513 -0.8429
  472MOL0     H63662  10.097  10.016   3.680 -0.3622  1.3504  0.4332
  472MOL0     H63663  10.128  10.059   3.911  0.9434 -0.6076  1.6122
  472MOL0     H63664  10.292  10.030   3.925  0.5614  1.2561  0.9323
  472MOL0     H63665  10.335  10.223   3.751 -0.3312  2.0816 -0.0523
  472MOL0     H63666  10.173  10.264   3.778  0.1189 -1.2716 -0.2737
  472MOL0     H63667  10.208  10.298   4.014  1.0541 -0.7836  1.7879
  472MOL0     H63668  10.365  10.220   4.016  0.0257 -1.1193 -0.5097
  472MOL0     H63669  10.372  10.466   4.015  2.4559 -0.0591  0.8568
  472MOL0     H63670  10.290  10.466   3.860  0.9501 -0.6862 -1.1168
  472MOL0     H63671  10.613  10.346   4.047 -0.5260 -4.0117 -0.4805
  472MOL0     H63672  10.840  10.216   3.940  0.1214  0.6185  1.5352
  472MOL0     H63673  10.909  10.300   3.798  0.2893 -0.9642  0.6475
  472MOL0     H63674  10.854  10.445   4.070  2.1408 -0.2546  1.1709
  472MOL0     H63675  10.891  10.519   3.914  3.2339 -0.5438 -0.7932
  472MOL0     H63676  11.083  10.475   4.048 -3.5793 -0.9354  3.9218
  472MOL0     H63677  11.104  10.373   3.902  1.2663  1.6218  0.4261
  472MOL0     H63678  11.063  10.176   4.039  2.0004  0.4043 -0.3049
  472MOL0     H63679  11.012  10.279   4.173 -0.1412 -2.2300  0.7885
  472MOL0     H63680  11.087  10.100   4.280 -1.3616  1.0928 -0.5978
  472MOL0     H63681  11.158   9.930   4.570 -0.1449 -2.1663  0.0213
  472MOL0     H63682  11.062   9.950   4.413  0.2154  0.2223  0.0238
  472MOL0     H63683  11.200   9.837   4.442  2.0123 -0.5004  1.9893
  472MOL0     H63684  11.553   9.784   4.704  2.0727 -3.5127  1.2697
  472MOL0     H63685  11.664   9.744   4.893 -5.4465  1.1363  0.1471
  472MOL0     H63686  11.752   9.868   5.139 -0.7912  4.7065 -4.8506
  472MOL0     H63687  11.862   9.728   5.069  0.4786  0.4972 -2.7448
  472MOL0     H63688  11.948   9.964   5.219 -4.9389  0.4803 -1.2882
  472MOL0     H63689  11.929   9.806   5.290 -1.1861  0.9905  1.1633
  472MOL0     H63690  12.133   9.860   5.073 -0.1067  0.9525  0.0207
  472MOL0     H63691  12.106   9.712   5.181 -0.4001  0.7138  2.2569
  472MOL0     H63692  12.185   9.995   5.269 -0.5911  0.2376 -0.1688
  472MOL0     H63693  12.156   9.853   5.369  1.0970  1.9488  1.6138
  472MOL0     H63694  12.363   9.858   5.135  1.9438  0.4698  0.2797
  472MOL0     H63695  12.367   9.739   5.255  1.2641 -0.3068 -0.2356
  472MOL0     H63696  12.543   9.887   5.326  1.3588  3.1788 -0.4465
  472MOL0     H63697  12.445  10.022   5.313 -0.0622  0.1171 -0.0428
  472MOL0     H63698  12.357   9.796   5.507  0.0544 -0.3741 -1.7488
  472MOL0     H63699  12.309   9.965   5.508  1.2081  1.4212  1.4632
  472MOL0     H63700  12.606   9.913   5.552  0.7960  0.0904  0.9466
  472MOL0     H63701  12.491   9.885   5.681  1.4721 -0.0882  0.3152
  472MOL0     H63702  11.910  10.100   4.827 -1.5160  2.1036  0.1801
  472MOL0     H63703  11.774  10.137   4.622 -0.7135  0.8912  1.8341
  472MOL0     H63704  11.561  10.199   4.386  0.5932 -0.8838  0.2593
  472MOL0     H63705  11.439  10.313   4.179 -2.7213  0.1784 -1.6614
  472MOL0     H63706  10.377   9.538   3.943  3.3823 -0.3223  2.2262
  472MOL0     H63707  10.623   9.551   3.939  2.0465  4.0641 -0.4768
  472MOL0     H63708  10.973   9.767   3.732 -0.1968  0.8606 -1.5171
  472MOL0     H63709  11.196   9.831   3.741 -3.0554 -0.2032  0.7227
  472MOL0     H63710  11.455   9.656   3.888  1.6257  0.3430  0.9411
  472MOL0     H63711  11.460   9.509   3.798  0.6708  0.3918 -2.1554
  472MOL0     H63712  11.627   9.751   3.755 -1.0269  0.5255 -1.1342
  472MOL0     H63713  11.676   9.592   3.698  3.0655  1.8177 -0.8320
  472MOL0     H63714  11.695   9.509   3.934 -0.3130 -0.5434 -3.5761
  472MOL0     H63715  11.642   9.658   3.996 -1.2646  0.3800 -1.1834
  472MOL0     H63716  11.905   9.592   3.853  0.1782 -1.7028  1.9569
  472MOL0     H63717  11.891   9.629   4.024 -1.0319 -0.2559  0.5536
  472MOL0     H63718  11.966   9.997   3.853  4.4421 -3.0326 -2.1842
  472MOL0     H63719  11.316   9.433   3.618  1.1382 -0.2472  2.6500
  472MOL0     H63720  11.085   9.363   3.635 -1.4520  0.7120 -1.8204
  473MOL0     O63721   8.532   3.501   5.643 -0.0737  0.2965 -0.5904
  473MOL0     C63722   8.575   3.618   5.669  0.5326  0.7733 -0.0716
  473MOL0     O63723   8.529   3.688   5.772 -0.1086 -0.4833 -1.1186
  473MOL0     C63724   8.452   3.632   5.868  0.5717 -0.0489 -0.1894
  473MOL0     C63725   8.514   3.539   5.949 -0.3356  0.0685 -0.8034
  473MOL0     C63726   8.443   3.490   6.062 -1.4437 -0.4475  0.9543
  473MOL0     C63727   8.310   3.525   6.083  0.0116 -0.1650  0.8661
  473MOL0     O63728   8.243   3.482   6.192  0.0679 -0.2385 -0.4240
  473MOL0     C63729   8.097   3.473   6.220  0.0041 -0.2407  0.5952
  473MOL0     C63730   8.074   3.445   6.369 -0.0389 -0.6733 -0.2636
  473MOL0     C63731   7.955   3.347   6.380 -0.3614  1.0173 -0.0469
  473MOL0     C63732   7.893   3.334   6.529  0.4857  0.0541  0.7687
  473MOL0     C63733   7.763   3.246   6.515 -0.6593 -0.5760 -0.6753
  473MOL0     C63734   7.720   3.175   6.643 -0.9071  0.2771 -0.4257
  473MOL0     C63735   7.688   3.284   6.750 -0.6790  0.3367  0.1752
  473MOL0     C63736   7.547   3.297   6.809  0.8492 -0.4624 -0.7720
  473MOL0     N63737   7.494   3.161   6.835  1.0047 -0.2942  0.4371
  473MOL0     C63738   7.556   3.043   6.873 -0.7228 -1.2861 -0.6997
  473MOL0     C63739   7.485   2.943   6.814 -0.1631  0.8736  0.2570
  473MOL0     C63740   7.549   2.805   6.804 -1.1137  0.4604 -0.0647
  473MOL0     C63741   7.654   2.802   6.681 -0.0480 -0.9128  0.1615
  473MOL0     C63742   7.720   2.667   6.675 -0.1479  0.3556  0.1475
  473MOL0     C63743   7.818   2.661   6.552 -0.9278  0.8044 -0.8753
  473MOL0     O63744   7.921   2.759   6.553 -1.8236  0.8082  0.4738
  473MOL0     C63745   8.004   2.786   6.451 -0.4412 -1.2071  1.6107
  473MOL0     C63746   8.079   2.903   6.455  0.5442 -0.2529 -0.2528
  473MOL0     C63747   8.173   2.934   6.358  1.8673 -0.2147  0.0011
  473MOL0     C63748   8.264   3.058   6.382 -0.1199  0.6195 -0.1565
  473MOL0     C63749   8.192   2.847   6.242 -0.4746 -0.2164 -0.4286
  473MOL0     C63750   8.297   2.871   6.135 -0.8451  1.3812  0.2224
  473MOL0     O63751   8.257   2.839   6.013  0.0989 -0.6883 -0.3512
  473MOL0     C63752   8.349   2.844   5.914  0.2512  0.0010  0.4035
  473MOL0     C63753   8.356   2.734   5.831  0.3336  0.8406 -0.3387
  473MOL0     C63754   8.452   2.722   5.732 -0.7464  0.7965  0.4598
  473MOL0     C63755   8.546   2.829   5.710  0.8002 -0.1264  0.7934
  473MOL0     O63756   8.642   2.821   5.606 -0.0713 -0.8294 -0.6073
  473MOL0     C63757   8.664   2.699   5.542  0.5497  0.3469  0.7398
  473MOL0     C63758   8.793   2.688   5.452  0.7164 -0.4380  0.2339
  473MOL0     C63759   8.773   2.605   5.318  0.2730 -0.4739  0.0393
  473MOL0     C63760   8.762   2.445   5.338  0.8172  0.2909  0.2124
  473MOL0     C63761   8.619   2.398   5.329  1.2383 -0.3874  1.2857
  473MOL0     C63762   8.591   2.255   5.360  0.1548 -0.0994  0.0691
  473MOL0     C63763   8.633   2.207   5.495  0.2709  0.0445 -0.2870
  473MOL0     C63764   8.605   2.056   5.513  0.2700  0.1418 -1.0151
  473MOL0    Cl63765   8.654   2.009   5.676  0.0724  0.1696  0.0114
  473MOL0     C63766   8.520   2.945   5.772 -0.1113 -0.8846 -0.1716
  473MOL0     C63767   8.427   2.957   5.880 -0.5532 -1.1673 -0.8727
  473MOL0     O63768   8.401   2.936   6.159 -0.6042  0.0700 -0.5061
  473MOL0     C63769   8.106   2.736   6.233 -0.2056  0.5354 -0.1129
  473MOL0     C63770   8.017   2.709   6.333  0.1733 -0.0608 -0.2347
  473MOL0     N63771   7.381   2.992   6.734  0.9411  0.1387  0.1616
  473MOL0     N63772   7.389   3.118   6.755 -1.0133  0.0727  0.1360
  473MOL0     C63773   8.248   3.607   5.988  0.4531  0.5086 -0.2618
  473MOL0     C63774   8.318   3.658   5.886  0.0654  0.1397  0.0454
  473MOL0     C63775   8.660   3.691   5.586  0.5097 -0.5743 -0.4155
  473MOL0     C63776   8.689   3.831   5.608  0.0861  0.7133 -0.4820
  473MOL0     C63777   8.767   3.902   5.523  0.5008  0.4358 -0.6445
  473MOL0     C63778   8.821   3.838   5.410 -0.0724  0.2710  0.7202
  473MOL0     O63779   8.905   3.911   5.326  0.3112 -0.5951  0.2500
  473MOL0     C63780   8.965   3.848   5.205 -0.5330 -0.1685 -0.1208
  473MOL0     C63781   8.973   3.954   5.092  0.3105 -0.4449 -0.5135
  473MOL0     C63782   8.841   4.028   5.055  0.1203  0.1664 -0.2418
  473MOL0     C63783   8.730   3.924   5.010 -0.4245  0.3105 -0.2582
  473MOL0     C63784   8.612   3.981   4.958  0.5211  0.8393  0.8623
  473MOL0     C63785   8.497   4.018   4.933 -0.3232 -0.3499 -0.0974
  473MOL0     C63786   8.785   3.700   5.380  0.2325 -0.7938 -0.0085
  473MOL0     C63787   8.702   3.627   5.467  0.2439  1.0385 -0.4414
  473MOL0     H63788   8.619   3.512   5.945  0.9276  4.2550 -1.0187
  473MOL0     H63789   8.506   3.431   6.127  1.3485  0.6441 -0.6123
  473MOL0     H63790   8.036   3.560   6.194  1.6912  0.2637 -2.1872
  473MOL0     H63791   8.063   3.399   6.147 -0.1538  2.7420 -2.6145
  473MOL0     H63792   8.170   3.403   6.401 -0.6253 -1.4915  0.4656
  473MOL0     H63793   8.051   3.540   6.417  1.5809  0.1301 -1.0046
  473MOL0     H63794   7.864   3.371   6.324 -0.2359  1.1812 -0.1809
  473MOL0     H63795   7.989   3.247   6.352 -1.6448  0.4580  0.3303
  473MOL0     H63796   7.968   3.278   6.585  1.7976  1.4811  0.5142
  473MOL0     H63797   7.872   3.436   6.564  0.9999  0.1447  0.8171
  473MOL0     H63798   7.674   3.291   6.469 -1.9804  0.3352  2.4902
  473MOL0     H63799   7.788   3.165   6.447  1.7853 -0.5474  0.1077
  473MOL0     H63800   7.645   3.095   6.636 -0.9541 -0.1049  2.9953
  473MOL0     H63801   7.810   3.116   6.667  0.0626  0.6374 -2.8554
  473MOL0     H63802   7.750   3.252   6.835 -0.0867 -1.4116 -0.8676
  473MOL0     H63803   7.715   3.387   6.722  2.3580  0.1522  1.9231
  473MOL0     H63804   7.473   3.342   6.742  0.1096 -0.5945 -0.0645
  473MOL0     H63805   7.556   3.363   6.895 -0.1565  1.2410 -1.8989
  473MOL0     H63806   7.650   3.032   6.928  1.3701  2.3976 -3.1156
  473MOL0     H63807   7.608   2.776   6.892 -2.8522 -1.2087  0.6219
  473MOL0     H63808   7.481   2.721   6.793 -1.0670  0.5583 -1.1822
  473MOL0     H63809   7.727   2.880   6.707 -1.4252  0.0655  1.2382
  473MOL0     H63810   7.610   2.832   6.586  4.4338 -3.0596 -2.9606
  473MOL0     H63811   7.648   2.584   6.680 -0.0082  0.1078 -1.3197
  473MOL0     H63812   7.789   2.655   6.758  0.7298  4.4682  0.2060
  473MOL0     H63813   7.767   2.670   6.455 -2.0021  1.7618 -0.2397
  473MOL0     H63814   7.866   2.563   6.558 -1.4902  0.5315 -0.7099
  473MOL0     H63815   8.068   2.969   6.540  0.4311  1.0515 -1.2323
  473MOL0     H63816   8.366   3.020   6.367  0.7287  3.0723 -1.0802
  473MOL0     H63817   8.241   3.128   6.301 -0.7702  0.7137  0.1041
  473MOL0     H63818   8.241   3.116   6.472  2.2068  4.1418 -1.6082
  473MOL0     H63819   8.303   2.640   5.847 -1.3393  2.0957  2.1168
  473MOL0     H63820   8.459   2.630   5.674 -0.6875 -0.0496  1.7604
  473MOL0     H63821   8.678   2.616   5.612  1.0559  1.3452  1.8717
  473MOL0     H63822   8.571   2.676   5.490  1.3299  0.9128 -1.0094
  473MOL0     H63823   8.837   2.785   5.426  1.0683 -0.4121  0.9041
  473MOL0     H63824   8.875   2.637   5.504  0.4503 -2.8661 -1.4972
  473MOL0     H63825   8.863   2.618   5.258 -0.5249  0.4737 -0.9861
  473MOL0     H63826   8.686   2.643   5.262  1.9340  0.1481 -2.2648
  473MOL0     H63827   8.821   2.386   5.268 -0.0344 -0.2900 -0.0234
  473MOL0     H63828   8.805   2.431   5.438 -1.4775  0.1750  1.2670
  473MOL0     H63829   8.576   2.416   5.230 -0.7538 -0.5342  2.0648
  473MOL0     H63830   8.555   2.466   5.385 -1.2027 -0.4600 -1.1927
  473MOL0     H63831   8.483   2.253   5.343  0.4692 -1.1730 -2.1523
  473MOL0     H63832   8.635   2.190   5.285 -2.8747 -2.5441  0.1742
  473MOL0     H63833   8.583   2.261   5.575  0.9022 -0.5374  0.5226
  473MOL0     H63834   8.741   2.217   5.507  0.1478 -0.0317  1.0445
  473MOL0     H63835   8.668   1.998   5.447 -1.4618 -3.3112  0.1362
  473MOL0     H63836   8.501   2.038   5.483 -0.2105  3.1522 -1.5057
  473MOL0     H63837   8.583   3.029   5.743 -1.6442 -0.3827 -2.1919
  473MOL0     H63838   8.408   3.053   5.927  1.5907 -0.5788 -1.0929
  473MOL0     H63839   8.115   2.669   6.147 -0.3982 -1.5537  1.3991
  473MOL0     H63840   7.961   2.616   6.327  0.0864  0.0782 -2.3004
  473MOL0     H63841   8.140   3.610   5.993  0.2868 -1.5368 -1.6201
  473MOL0     H63842   8.275   3.710   5.801  2.9636  2.0007 -0.4443
  473MOL0     H63843   8.647   3.877   5.696  0.8964 -0.5513  0.5981
  473MOL0     H63844   8.804   4.001   5.547  0.2603  0.2749  0.4275
  473MOL0     H63845   9.065   3.813   5.233 -0.5489  1.2714  1.8942
  473MOL0     H63846   8.911   3.763   5.160  2.8332 -1.8888 -1.2707
  473MOL0     H63847   9.010   3.900   5.004  0.9912  0.2724 -0.6809
  473MOL0     H63848   9.052   4.026   5.118  1.2327 -0.5873 -2.6818
  473MOL0     H63849   8.860   4.096   4.971 -0.8261  0.5863 -0.1268
  473MOL0     H63850   8.807   4.085   5.142  2.1481  2.5703 -0.9178
  473MOL0     H63851   8.711   3.847   5.085  5.1501 -0.6681  0.5252
  473MOL0     H63852   8.765   3.871   4.921  5.8620  2.3376  0.5044
  473MOL0     H63853   8.403   4.055   4.897  0.5500  2.3256  0.1471
  473MOL0     H63854   8.815   3.639   5.295 -1.9850 -2.1183  0.0941
  473MOL0     H63855   8.673   3.523   5.456 -2.5071  1.2608  2.9489
  474MOL0     O63856   9.836  11.159   6.342 -0.0917  1.2098 -0.4346
  474MOL0     C63857   9.825  11.139   6.466  0.8156  0.6641 -0.1547
  474MOL0     O63858   9.847  11.233   6.563  0.6092 -0.0984 -0.3962
  474MOL0     C63859   9.839  11.359   6.514 -0.2089 -0.0265  0.3711
  474MOL0     C63860   9.735  11.438   6.470  0.0586 -0.4847 -0.2197
  474MOL0     C63861   9.755  11.572   6.440  0.7377  0.3432 -0.6356
  474MOL0     C63862   9.876  11.634   6.441  0.0568  0.3203  0.1052
  474MOL0     O63863   9.906  11.753   6.381 -0.1683 -0.7724 -0.0657
  474MOL0     C63864   9.838  11.762   6.262 -0.5524  0.0124 -0.0322
  474MOL0     C63865   9.862  11.891   6.182  1.0933 -0.1444 -0.0878
  474MOL0     C63866   9.983  11.866   6.075 -0.3286  0.6905  0.5731
  474MOL0     C63867   9.904  11.855   5.930 -1.3091 -0.6025  0.6862
  474MOL0     C63868  10.000  11.834   5.806  0.0751  0.7026 -1.3832
  474MOL0     C63869   9.909  11.759   5.705 -0.0591  0.5312 -0.5770
  474MOL0     C63870   9.908  11.609   5.738  0.3326 -0.8566 -0.2527
  474MOL0     C63871   9.767  11.554   5.698  0.5634  1.4015  1.1051
  474MOL0     N63872   9.717  11.598   5.566 -0.4308 -0.0273 -0.0132
  474MOL0     C63873   9.758  11.552   5.437  0.0548  0.0738 -0.4043
  474MOL0     C63874   9.703  11.641   5.352 -0.2400 -0.0327  0.0491
  474MOL0     C63875   9.720  11.625   5.202  0.4480  0.0122 -0.3345
  474MOL0     C63876   9.831  11.728   5.175 -0.4772  0.1063  0.9050
  474MOL0     C63877   9.855  11.711   5.020 -0.2897 -1.2402  0.4116
  474MOL0     C63878   9.952  11.823   4.972  0.2765  0.1574  0.2421
  474MOL0     O63879  10.081  11.789   5.029  0.7535 -0.2785  0.6235
  474MOL0     C63880  10.186  11.870   4.993  1.0160 -0.1916  0.0896
  474MOL0     C63881  10.322  11.838   5.020 -0.1086  0.6673  0.1018
  474MOL0     C63882  10.434  11.904   4.955  1.5784 -1.1725  0.0796
  474MOL0     C63883  10.571  11.843   4.970 -0.0414  0.8006 -0.6442
  474MOL0     C63884  10.404  12.013   4.872 -0.7881  0.3021  0.3936
  474MOL0     C63885  10.509  12.106   4.816  1.0699  0.0570 -0.0663
  474MOL0     O63886  10.473  12.245   4.806  0.3927  0.3504 -0.2097
  474MOL0     C63887  10.512  12.322   4.703  0.1710 -0.2128 -0.8940
  474MOL0     C63888  10.541  12.454   4.734  0.0102 -0.0953 -0.0074
  474MOL0     C63889  10.571  12.546   4.637  0.0258  0.7478 -0.3094
  474MOL0     C63890  10.590  12.505   4.507  0.7077  0.1942  0.4278
  474MOL0     O63891  10.618  12.595   4.402 -0.2309  0.4398  0.4412
  474MOL0     C63892  10.696  12.710   4.431  0.4079 -0.2828  0.0824
  474MOL0     C63893  10.781  12.735   4.306 -0.4416 -0.3540 -0.1724
  474MOL0     C63894  10.688  12.787   4.197 -0.3072  0.5821  0.5222
  474MOL0     C63895  10.725  12.753   4.051  0.1561 -0.4548 -0.5124
  474MOL0     C63896  10.630  12.828   3.952  0.6974  0.0450 -1.0561
  474MOL0     C63897  10.669  12.825   3.807  0.3642  0.6144 -0.3079
  474MOL0     C63898  10.633  12.957   3.745 -0.5976 -0.0982 -0.1393
  474MOL0     C63899  10.629  12.942   3.593 -0.1925 -0.0088  1.0601
  474MOL0    Cl63900  10.573  13.098   3.517  0.0685 -0.2052  0.4421
  474MOL0     C63901  10.559  12.367   4.472  1.3477 -0.2827  0.3381
  474MOL0     C63902  10.521  12.271   4.577  0.4338 -0.9121  0.8265
  474MOL0     O63903  10.606  12.051   4.777 -0.1211  0.4561 -0.9037
  474MOL0     C63904  10.270  12.048   4.847 -0.1842  0.0819 -0.3246
  474MOL0     C63905  10.163  11.972   4.894 -0.2358  0.6929 -1.2494
  474MOL0     N63906   9.606  11.713   5.422  0.3123  0.0212 -1.0785
  474MOL0     N63907   9.620  11.688   5.546 -0.2527 -0.1479  0.5860
  474MOL0     C63908   9.986  11.559   6.482  0.1952  0.3602  0.3077
  474MOL0     C63909   9.964  11.423   6.520  0.4567 -0.0641  0.2007
  474MOL0     C63910   9.777  11.006   6.519 -1.0113  0.3708 -0.8658
  474MOL0     C63911   9.786  10.967   6.661  0.1154  0.2184  0.1083
  474MOL0     C63912   9.753  10.838   6.710  0.7515  0.4705 -0.0602
  474MOL0     C63913   9.701  10.740   6.617  0.6943 -0.8017  0.4622
  474MOL0     O63914   9.682  10.615   6.671  0.2643 -0.0393  0.1592
  474MOL0     C63915   9.644  10.499   6.580 -0.1822 -0.5063  0.3977
  474MOL0     C63916   9.613  10.362   6.644 -0.0031 -0.1711 -0.8494
  474MOL0     C63917   9.531  10.266   6.561 -0.6104  0.3385  0.0315
  474MOL0     C63918   9.533  10.126   6.616  0.0040  0.2549 -0.2662
  474MOL0     C63919   9.466  10.090   6.739 -0.1460 -0.1129  0.5255
  474MOL0     C63920   9.413  10.061   6.849  0.2426 -0.0506 -0.3912
  474MOL0     C63921   9.692  10.773   6.486 -0.1245 -0.5630  0.5909
  474MOL0     C63922   9.722  10.905   6.437 -0.3268  0.5797  0.9136
  474MOL0     H63923   9.635  11.399   6.482 -0.1282  0.2664  0.8935
  474MOL0     H63924   9.666  11.631   6.419 -0.3408 -0.7590  0.6647
  474MOL0     H63925   9.857  11.674   6.200  0.5414  1.8148 -2.3818
  474MOL0     H63926   9.737  11.766   6.305 -0.0515 -1.9056  1.4832
  474MOL0     H63927   9.770  11.912   6.127  2.2036 -0.1898 -2.0627
  474MOL0     H63928   9.881  11.974   6.252 -2.0885 -1.7709  3.0006
  474MOL0     H63929  10.053  11.950   6.068 -1.4386  1.5323 -1.9664
  474MOL0     H63930  10.045  11.779   6.096 -2.0890 -0.8453 -0.2723
  474MOL0     H63931   9.841  11.766   5.924  1.5117 -2.6387 -1.5089
  474MOL0     H63932   9.846  11.947   5.913  1.4550  1.0389 -0.6228
  474MOL0     H63933  10.031  11.929   5.764 -2.6656  1.9952 -0.7236
  474MOL0     H63934  10.086  11.772   5.836 -1.0642 -0.7032 -0.8835
  474MOL0     H63935   9.819  11.816   5.682  1.0257  1.5844 -2.4777
  474MOL0     H63936   9.961  11.760   5.608  2.6227  2.6751  0.7464
  474MOL0     H63937   9.990  11.555   5.689 -0.3913 -0.4681 -1.9555
  474MOL0     H63938   9.926  11.595   5.845 -0.6592  2.2715  0.4196
  474MOL0     H63939   9.706  11.592   5.780 -1.7171  0.9503 -0.2713
  474MOL0     H63940   9.777  11.446   5.690  1.8924  1.5494  0.4507
  474MOL0     H63941   9.823  11.470   5.411 -1.8242 -1.7386  0.3596
  474MOL0     H63942   9.765  11.529   5.177  4.2960  1.5856 -0.1855
  474MOL0     H63943   9.624  11.643   5.154 -0.9734  0.5010  2.4829
  474MOL0     H63944   9.925  11.720   5.230 -0.6394  1.2180  1.3685
  474MOL0     H63945   9.800  11.831   5.196  0.0322  0.8749 -1.6992
  474MOL0     H63946   9.765  11.729   4.960 -2.0632 -1.3397  2.8634
  474MOL0     H63947   9.902  11.614   5.000 -0.9379 -2.2801  3.3873
  474MOL0     H63948   9.924  11.925   5.001  0.4842  1.0685 -2.4398
  474MOL0     H63949   9.947  11.813   4.863 -1.3372  1.5017  0.1511
  474MOL0     H63950  10.337  11.746   5.077 -2.5650 -0.6169 -1.1497
  474MOL0     H63951  10.649  11.918   4.986 -0.9385  2.5114 -3.6404
  474MOL0     H63952  10.576  11.763   5.045  2.0434  1.4167 -0.0644
  474MOL0     H63953  10.619  11.795   4.884  2.6100 -3.2256  2.6649
  474MOL0     H63954  10.527  12.496   4.833  0.3741  0.6658 -0.2717
  474MOL0     H63955  10.591  12.649   4.666  0.3308  0.3361  1.0228
  474MOL0     H63956  10.627  12.793   4.449  0.4575 -0.2289  0.0201
  474MOL0     H63957  10.751  12.697   4.525 -1.6725 -0.1297  1.3855
  474MOL0     H63958  10.850  12.820   4.309 -1.0960  0.2760 -1.8738
  474MOL0     H63959  10.834  12.647   4.268 -3.6175 -1.2220 -3.0681
  474MOL0     H63960  10.674  12.896   4.197  2.6698  1.1120  3.1209
  474MOL0     H63961  10.592  12.736   4.213  1.1136 -2.4493  0.0342
  474MOL0     H63962  10.819  12.809   4.052  1.3226 -2.1417  3.2436
  474MOL0     H63963  10.740  12.647   4.029  2.6976 -0.0271 -1.0997
  474MOL0     H63964  10.628  12.932   3.984 -1.4330 -0.9649  2.7549
  474MOL0     H63965  10.526  12.795   3.940  0.6333 -0.3883  0.4408
  474MOL0     H63966  10.777  12.811   3.800 -0.1513 -4.7400 -3.6670
  474MOL0     H63967  10.627  12.740   3.751  2.0292 -1.1302  0.9450
  474MOL0     H63968  10.712  13.026   3.779 -1.7082  0.4302  1.5084
  474MOL0     H63969  10.533  12.987   3.778 -0.6184 -2.1506  1.9775
  474MOL0     H63970  10.561  12.862   3.560  0.8346 -0.2879 -0.5044
  474MOL0     H63971  10.729  12.920   3.555 -0.9620 -0.5313 -0.7413
  474MOL0     H63972  10.565  12.326   4.372  0.2715  2.4069 -0.9094
  474MOL0     H63973  10.507  12.167   4.549 -1.0439 -0.2940 -0.9429
  474MOL0     H63974  10.249  12.134   4.785  3.8967  0.6327 -1.2402
  474MOL0     H63975  10.062  12.006   4.875 -1.9044 -2.1099  1.6502
  474MOL0     H63976  10.083  11.608   6.489  0.9495 -1.2202  6.2777
  474MOL0     H63977  10.045  11.361   6.557 -2.6767 -3.7594  1.5941
  474MOL0     H63978   9.820  11.053   6.718  1.3219  1.2957 -2.1210
  474MOL0     H63979   9.767  10.809   6.813 -1.2566 -0.3148  0.0279
  474MOL0     H63980   9.554  10.534   6.529 -1.0403 -1.4066  1.2594
  474MOL0     H63981   9.720  10.487   6.502  1.4338 -3.5977  2.2507
  474MOL0     H63982   9.547  10.390   6.727  0.1091 -1.1260 -0.4313
  474MOL0     H63983   9.700  10.309   6.684 -0.5844 -1.1743 -0.8952
  474MOL0     H63984   9.570  10.261   6.458 -2.0255 -5.9788 -0.5957
  474MOL0     H63985   9.430  10.304   6.548 -1.0317 -1.4708 -2.8918
  474MOL0     H63986   9.639  10.097   6.617  0.5241  2.0665  0.7267
  474MOL0     H63987   9.482  10.064   6.541  0.9199  0.4741 -1.0887
  474MOL0     H63988   9.363  10.033   6.939 -2.0942 -0.2200 -1.6672
  474MOL0     H63989   9.661  10.697   6.415 -1.3831  0.8386 -0.4208
  474MOL0     H63990   9.689  10.922   6.335 -0.6528  1.5164  1.1662
  475MOL0     O63991   2.922   2.410   3.744 -0.7931  0.1395  1.5058
  475MOL0     C63992   2.883   2.295   3.762 -0.4785 -0.1039  0.0504
  475MOL0     O63993   2.954   2.180   3.726  0.3191  0.2687  0.1563
  475MOL0     C63994   3.051   2.201   3.625 -0.4557 -0.1854 -0.2028
  475MOL0     C63995   3.179   2.186   3.655  0.2699 -1.2524  0.2633
  475MOL0     C63996   3.283   2.183   3.561 -0.1074 -0.7814 -0.0988
  475MOL0     C63997   3.259   2.198   3.422  0.9959 -0.0021 -0.3595
  475MOL0     O63998   3.364   2.198   3.329 -0.0516 -0.4600  0.1802
  475MOL0     C63999   3.337   2.237   3.201 -1.4713 -0.1629 -0.4421
  475MOL0     C64000   3.473   2.296   3.162  0.1025 -0.5544  0.3254
  475MOL0     C64001   3.471   2.317   3.012  0.9602  0.3492  0.2138
  475MOL0     C64002   3.609   2.356   2.970 -0.0005  0.2185 -1.1257
  475MOL0     C64003   3.621   2.404   2.828 -0.0034 -0.0107  0.4090
  475MOL0     C64004   3.593   2.551   2.832 -0.0098 -0.8360  0.4449
  475MOL0     C64005   3.650   2.620   2.703  1.1111 -0.8356 -0.3299
  475MOL0     C64006   3.626   2.782   2.708  0.5808  0.6394  0.3712
  475MOL0     N64007   3.746   2.840   2.763 -0.1403 -0.5119  0.8989
  475MOL0     C64008   3.877   2.837   2.716 -0.1914 -0.7590  0.0343
  475MOL0     C64009   3.955   2.861   2.823 -0.2647  0.2864  0.3943
  475MOL0     C64010   4.097   2.832   2.835 -0.1850 -0.5281  0.1761
  475MOL0     C64011   4.126   2.692   2.882  0.6417  0.3848  0.0622
  475MOL0     C64012   4.079   2.644   3.020  1.2284  0.1487  0.9451
  475MOL0     C64013   4.163   2.698   3.142  0.3525  0.2782 -0.2767
  475MOL0     O64014   4.297   2.653   3.129 -0.5817  0.9142  0.1833
  475MOL0     C64015   4.376   2.677   3.238  0.8133  0.6458  0.1876
  475MOL0     C64016   4.476   2.776   3.221 -0.4456 -0.4078 -0.4859
  475MOL0     C64017   4.574   2.797   3.318  0.4577 -0.7856 -0.4162
  475MOL0     C64018   4.681   2.899   3.279 -0.3949 -0.5775 -0.4198
  475MOL0     C64019   4.561   2.741   3.447  0.4443  0.2998 -0.6127
  475MOL0     C64020   4.636   2.788   3.560 -0.0057  0.1389 -0.1227
  475MOL0     O64021   4.616   2.703   3.673 -0.8355  0.6111  0.0118
  475MOL0     C64022   4.665   2.755   3.793 -0.1673 -0.0845  0.6944
  475MOL0     C64023   4.798   2.757   3.828  0.0844 -0.8065  0.9872
  475MOL0     C64024   4.835   2.826   3.946  0.2520  0.5335  0.1728
  475MOL0     C64025   4.736   2.882   4.029 -0.6060 -0.4520 -0.2047
  475MOL0     O64026   4.780   2.948   4.139  0.4235  0.7254 -0.5676
  475MOL0     C64027   4.707   2.944   4.255  0.0671  1.2027  0.0023
  475MOL0     C64028   4.658   3.082   4.294 -0.2486 -0.4486  0.0084
  475MOL0     C64029   4.749   3.195   4.253 -0.4207 -0.2180 -0.5772
  475MOL0     C64030   4.745   3.310   4.363  0.3175 -0.5691  0.1087
  475MOL0     C64031   4.826   3.431   4.311 -0.5029 -0.1102 -0.9089
  475MOL0     C64032   4.847   3.548   4.408 -1.3779  0.4081  1.2875
  475MOL0     C64033   4.926   3.668   4.342  1.1094  0.3069  0.9994
  475MOL0     C64034   4.963   3.780   4.432  0.7226 -0.4564  0.6121
  475MOL0    Cl64035   5.051   3.726   4.574 -0.1991 -0.2098 -0.1353
  475MOL0     C64036   4.598   2.870   3.995 -0.3224 -0.1478 -0.8418
  475MOL0     C64037   4.562   2.811   3.878  0.3265 -0.3513  0.2363
  475MOL0     O64038   4.697   2.895   3.555 -0.0055  0.3539 -0.5106
  475MOL0     C64039   4.457   2.639   3.464 -0.1840  0.5475  0.5287
  475MOL0     C64040   4.370   2.611   3.356  0.5826  0.7159 -0.0474
  475MOL0     N64041   3.879   2.876   2.937  0.1973  0.5020 -0.5847
  475MOL0     N64042   3.762   2.859   2.900  0.3364 -0.1238 -0.4060
  475MOL0     C64043   3.121   2.197   3.386  0.9009 -0.6052 -0.3011
  475MOL0     C64044   3.023   2.205   3.486 -0.6492  0.4826 -0.7577
  475MOL0     C64045   2.756   2.267   3.839 -1.0805  0.3370  0.8780
  475MOL0     C64046   2.654   2.368   3.864 -0.0751  0.1448  0.3406
  475MOL0     C64047   2.542   2.324   3.929 -0.4732  0.1347 -0.4760
  475MOL0     C64048   2.525   2.194   3.984  0.5110  0.4302 -0.8553
  475MOL0     O64049   2.430   2.158   4.082  0.0461 -0.8461  0.5847
  475MOL0     C64050   2.291   2.183   4.046 -0.7915 -0.7838 -0.1518
  475MOL0     C64051   2.213   2.194   4.164  0.3934  0.3619  1.0199
  475MOL0     C64052   2.227   2.341   4.217  0.1559 -0.6781  0.4278
  475MOL0     C64053   2.122   2.366   4.329 -0.3668  0.1173  1.8651
  475MOL0     C64054   2.103   2.503   4.361  0.8268  1.2406 -0.1458
  475MOL0     C64055   2.084   2.615   4.395 -0.4263 -0.6857  0.1178
  475MOL0     C64056   2.620   2.099   3.960 -0.9394  0.8473  0.6845
  475MOL0     C64057   2.739   2.131   3.883  1.1060 -0.3126 -0.0447
  475MOL0     H64058   3.210   2.189   3.759 -1.5205 -1.4429  0.8236
  475MOL0     H64059   3.385   2.187   3.597  0.2600 -0.6195 -1.1215
  475MOL0     H64060   3.307   2.150   3.141  0.7708 -1.4212  0.1467
  475MOL0     H64061   3.257   2.312   3.197 -1.1058  0.2605  0.1035
  475MOL0     H64062   3.490   2.391   3.215 -3.5638  0.5143 -0.1723
  475MOL0     H64063   3.556   2.229   3.187  0.0902 -1.0303 -0.8581
  475MOL0     H64064   3.440   2.226   2.960 -0.7136  0.8532  0.2499
  475MOL0     H64065   3.387   2.381   2.982 -0.6631 -2.4957 -1.8058
  475MOL0     H64066   3.662   2.431   3.029  2.6482 -0.5992 -2.3301
  475MOL0     H64067   3.678   2.272   2.974  1.4128  1.3901  2.3391
  475MOL0     H64068   3.719   2.385   2.783 -1.1932  0.2799 -2.5895
  475MOL0     H64069   3.545   2.357   2.765 -0.2090 -1.8116  1.9323
  475MOL0     H64070   3.490   2.576   2.860 -0.2037 -0.7137 -0.3443
  475MOL0     H64071   3.652   2.605   2.907  2.6964  2.0168 -3.3672
  475MOL0     H64072   3.756   2.595   2.697  1.4668  0.4811  0.0909
  475MOL0     H64073   3.594   2.582   2.617  0.9068 -0.6078 -0.3003
  475MOL0     H64074   3.534   2.805   2.761 -0.6474 -1.3433 -0.7559
  475MOL0     H64075   3.616   2.825   2.607  1.1405 -1.2539 -0.5416
  475MOL0     H64076   3.910   2.803   2.619 -0.9243 -3.1862  0.5476
  475MOL0     H64077   4.146   2.846   2.738 -0.4930 -2.2853 -0.2784
  475MOL0     H64078   4.135   2.899   2.912 -1.3993 -1.1057  1.3242
  475MOL0     H64079   4.234   2.672   2.882  0.6364  0.0160  2.4075
  475MOL0     H64080   4.083   2.621   2.811  0.9001 -1.3322  1.5588
  475MOL0     H64081   4.083   2.535   3.032 -0.2715 -0.0421 -0.0457
  475MOL0     H64082   3.974   2.672   3.027  1.4922  1.1519  1.0435
  475MOL0     H64083   4.116   2.669   3.237 -1.6298  1.1077 -0.9608
  475MOL0     H64084   4.166   2.806   3.161  1.9450  0.1587  0.3748
  475MOL0     H64085   4.487   2.833   3.129 -1.2461  0.2703 -0.1824
  475MOL0     H64086   4.672   2.929   3.174  0.9903  0.3643 -0.2999
  475MOL0     H64087   4.672   2.992   3.337 -0.5101 -0.2081 -1.0291
  475MOL0     H64088   4.776   2.851   3.304 -0.9472 -0.7876  1.4350
  475MOL0     H64089   4.873   2.706   3.768 -0.7991 -2.1731  0.9925
  475MOL0     H64090   4.939   2.837   3.974  0.3478 -1.5923  0.7719
  475MOL0     H64091   4.618   2.880   4.251 -0.9784  2.6085  0.0871
  475MOL0     H64092   4.773   2.915   4.337  0.6364  5.3125  1.2228
  475MOL0     H64093   4.559   3.090   4.249 -2.4970  1.1190  4.6167
  475MOL0     H64094   4.652   3.088   4.403  5.0016 -1.2431  0.6038
  475MOL0     H64095   4.722   3.239   4.156 -0.3108  0.9907 -0.0761
  475MOL0     H64096   4.855   3.170   4.258  0.2166  2.4537  0.9154
  475MOL0     H64097   4.642   3.332   4.392 -0.4827 -0.8338 -2.3307
  475MOL0     H64098   4.787   3.254   4.447 -0.6484  0.6189  1.4337
  475MOL0     H64099   4.791   3.470   4.216  0.6003  1.4465 -0.7273
  475MOL0     H64100   4.931   3.404   4.297  0.6664  1.1235  3.6835
  475MOL0     H64101   4.750   3.592   4.433 -0.7829  0.7442  3.0907
  475MOL0     H64102   4.900   3.530   4.501 -0.5198  3.4658  1.5088
  475MOL0     H64103   4.867   3.700   4.255  1.1702 -1.3828  0.2893
  475MOL0     H64104   5.012   3.622   4.291 -0.3343 -2.4960  0.8889
  475MOL0     H64105   4.872   3.832   4.462  0.4574 -1.2348  1.1851
  475MOL0     H64106   5.024   3.851   4.375  0.7590 -0.7780  0.2468
  475MOL0     H64107   4.525   2.913   4.063  0.4551 -2.1320  1.3704
  475MOL0     H64108   4.458   2.809   3.845  1.0484 -1.8579 -2.2060
  475MOL0     H64109   4.440   2.593   3.561  3.1458  0.2031  1.0582
  475MOL0     H64110   4.300   2.531   3.376  1.8753 -0.5340 -0.3344
  475MOL0     H64111   3.099   2.198   3.280  0.9882  0.3615 -0.3205
  475MOL0     H64112   2.917   2.205   3.462 -0.9203 -0.4890  0.2723
  475MOL0     H64113   2.664   2.473   3.841 -3.0920  0.5221  0.3816
  475MOL0     H64114   2.478   2.404   3.968  0.5261  1.2864 -1.1154
  475MOL0     H64115   2.277   2.271   3.982  0.4800  0.1999  0.8586
  475MOL0     H64116   2.259   2.096   3.988 -0.8937  0.4770 -2.0839
  475MOL0     H64117   2.233   2.114   4.235 -3.1281  0.5040  2.4066
  475MOL0     H64118   2.113   2.167   4.128  1.6302 -2.4951 -0.5445
  475MOL0     H64119   2.201   2.408   4.134  1.0966 -0.6103  0.1753
  475MOL0     H64120   2.326   2.358   4.258 -0.4744 -0.6702  1.9903
  475MOL0     H64121   2.159   2.309   4.414 -0.3531  0.1557  1.8834
  475MOL0     H64122   2.029   2.333   4.281  2.0739 -0.7776 -2.8753
  475MOL0     H64123   2.045   2.709   4.428 -0.8075 -0.9840  0.5446
  475MOL0     H64124   2.601   1.998   3.995  0.5644  0.2200 -0.2548
  475MOL0     H64125   2.818   2.058   3.871  3.0304  1.9985 -2.8550
  476MOL0     O64126   3.394   4.390   5.831 -0.2548  1.0068 -0.5776
  476MOL0     C64127   3.498   4.437   5.776 -0.1119  0.4469 -0.8016
  476MOL0     O64128   3.611   4.363   5.754 -0.3870  0.2584  0.4229
  476MOL0     C64129   3.600   4.225   5.775  0.0431  0.6466 -0.6187
  476MOL0     C64130   3.713   4.163   5.833  1.3444 -0.8391  1.4678
  476MOL0     C64131   3.724   4.024   5.834  0.0106  0.0882 -0.5214
  476MOL0     C64132   3.622   3.935   5.773  0.5620 -0.4491 -0.6844
  476MOL0     O64133   3.618   3.797   5.785 -0.3444  0.6518 -0.0806
  476MOL0     C64134   3.729   3.736   5.865  0.2215  1.0157  0.9515
  476MOL0     C64135   3.725   3.584   5.829 -0.8762  0.3729 -0.9935
  476MOL0     C64136   3.869   3.520   5.856 -1.3361  0.6066  0.2047
  476MOL0     C64137   3.916   3.546   5.997  0.1377  0.1249 -0.2085
  476MOL0     C64138   4.060   3.526   6.014  0.4150  0.1540  1.1479
  476MOL0     C64139   4.151   3.601   5.920 -0.1057  0.8478  0.1372
  476MOL0     C64140   4.302   3.596   5.964  0.4611 -0.2804  0.1808
  476MOL0     C64141   4.366   3.464   5.914  0.6402 -0.1286  0.0415
  476MOL0     N64142   4.417   3.482   5.778 -0.7449  0.6683 -0.2138
  476MOL0     C64143   4.524   3.559   5.737 -0.1363 -0.1931 -0.6878
  476MOL0     C64144   4.537   3.544   5.603 -0.7395 -0.2086 -0.5551
  476MOL0     C64145   4.640   3.612   5.511 -0.1641  0.5950 -0.3215
  476MOL0     C64146   4.588   3.691   5.393 -0.4171 -0.1661  0.3493
  476MOL0     C64147   4.558   3.831   5.426 -0.5136 -0.4139 -0.8332
  476MOL0     C64148   4.513   3.912   5.315  0.7939 -0.3867  0.1125
  476MOL0     O64149   4.379   3.874   5.268 -0.2896 -0.2811 -0.2119
  476MOL0     C64150   4.306   3.950   5.181  1.0324  0.1211 -0.0153
  476MOL0     C64151   4.168   3.914   5.186  0.6513  0.3709  0.9849
  476MOL0     C64152   4.070   3.972   5.102  0.8107 -0.0055  0.7633
  476MOL0     C64153   3.926   3.928   5.133 -0.5518  0.6309  1.0923
  476MOL0     C64154   4.109   4.072   5.006  0.4607  0.3836  0.0725
  476MOL0     C64155   4.011   4.141   4.927 -0.2030 -0.1645  0.4406
  476MOL0     O64156   3.880   4.095   4.913 -0.0345  1.2026  0.0287
  476MOL0     C64157   3.802   4.172   4.824  0.0923 -0.5648  0.3112
  476MOL0     C64158   3.812   4.172   4.678 -0.1539 -0.4314  0.0100
  476MOL0     C64159   3.719   4.232   4.600  0.6702  0.3254 -0.4614
  476MOL0     C64160   3.615   4.314   4.662 -0.0916 -0.0790 -0.2072
  476MOL0     O64161   3.510   4.363   4.597 -0.3316 -0.5367 -0.0708
  476MOL0     C64162   3.464   4.305   4.480 -0.2414  0.3413 -0.3098
  476MOL0     C64163   3.331   4.360   4.447  0.1244  0.1310 -0.2921
  476MOL0     C64164   3.283   4.309   4.304  0.2968 -0.3632  0.3653
  476MOL0     C64165   3.139   4.341   4.262  0.2767 -0.7297 -0.5565
  476MOL0     C64166   3.106   4.298   4.115 -0.2161  0.5231 -0.3434
  476MOL0     C64167   3.063   4.148   4.109 -1.1200 -0.5272 -0.4510
  476MOL0     C64168   2.997   4.114   3.982 -0.2360  0.6938  0.0299
  476MOL0     C64169   2.942   3.970   3.979  0.2572  0.4492  0.8861
  476MOL0    Cl64170   2.826   3.961   3.838 -0.2660 -0.3247 -0.0840
  476MOL0     C64171   3.608   4.314   4.802 -0.0768  0.7205 -1.0539
  476MOL0     C64172   3.698   4.244   4.878  0.5369  0.2541 -0.2746
  476MOL0     O64173   4.059   4.236   4.867 -0.3797  0.1809 -0.6845
  476MOL0     C64174   4.248   4.102   4.996  0.2681 -0.9238  0.5952
  476MOL0     C64175   4.342   4.048   5.083 -0.2093  0.7784  0.0119
  476MOL0     N64176   4.429   3.467   5.563 -0.3796  0.1902  0.9595
  476MOL0     N64177   4.367   3.420   5.666  0.8733  0.1492 -0.6397
  476MOL0     C64178   3.516   3.999   5.701  0.3171  0.1001  0.2946
  476MOL0     C64179   3.501   4.136   5.716  0.2791 -0.6932  0.2824
  476MOL0     C64180   3.517   4.572   5.746 -0.5482  0.0970 -0.5317
  476MOL0     C64181   3.609   4.607   5.641  0.2348 -1.2714 -0.1270
  476MOL0     C64182   3.622   4.734   5.604  0.2679  0.0265 -1.0001
  476MOL0     C64183   3.556   4.834   5.675  1.3001 -0.3538 -0.0610
  476MOL0     O64184   3.579   4.960   5.627 -0.4185  0.5273 -0.2043
  476MOL0     C64185   3.534   5.076   5.704 -0.0885 -0.3234  0.7660
  476MOL0     C64186   3.664   5.110   5.773 -0.1499  0.4244 -0.1372
  476MOL0     C64187   3.625   5.234   5.858 -0.3191 -0.3502 -0.2049
  476MOL0     C64188   3.751   5.319   5.902  1.2206  0.7874  0.4231
  476MOL0     C64189   3.811   5.368   5.778 -0.2360 -1.0467 -0.1722
  476MOL0     C64190   3.857   5.419   5.670  0.0363 -0.4350  0.0606
  476MOL0     C64191   3.479   4.802   5.796  0.0934  0.2010 -0.2685
  476MOL0     C64192   3.453   4.672   5.832 -0.2578  0.1595  0.7112
  476MOL0     H64193   3.780   4.231   5.885 -1.9428  2.8130  1.3725
  476MOL0     H64194   3.820   3.986   5.868  1.3106 -0.9550 -4.7698
  476MOL0     H64195   3.826   3.770   5.828  0.6790 -2.2573 -1.1604
  476MOL0     H64196   3.725   3.754   5.973 -0.8840 -0.9515  1.2893
  476MOL0     H64197   3.666   3.519   5.894  1.0107 -2.1297 -1.6039
  476MOL0     H64198   3.690   3.571   5.726 -3.3075 -0.3024 -0.1549
  476MOL0     H64199   3.862   3.414   5.832 -1.1815  0.8687 -1.0422
  476MOL0     H64200   3.932   3.555   5.774 -1.3647 -0.5210 -0.3130
  476MOL0     H64201   3.877   3.638   6.042 -0.8293 -0.8311  1.0102
  476MOL0     H64202   3.869   3.466   6.055 -0.3949 -1.2385 -2.3909
  476MOL0     H64203   4.085   3.529   6.120  5.5486  0.1514  0.2152
  476MOL0     H64204   4.082   3.422   5.988  1.8801  0.0946  2.5205
  476MOL0     H64205   4.142   3.546   5.826  0.4007 -0.3811  0.7832
  476MOL0     H64206   4.127   3.708   5.912 -0.4992  0.7222 -0.4116
  476MOL0     H64207   4.362   3.684   5.937  0.7613 -0.6761 -0.4679
  476MOL0     H64208   4.304   3.597   6.074 -0.6569 -1.8668  0.2475
  476MOL0     H64209   4.288   3.388   5.909 -0.6480  0.5699  4.5432
  476MOL0     H64210   4.448   3.433   5.981 -0.0513  0.0692  1.0056
  476MOL0     H64211   4.581   3.619   5.808 -0.2009 -1.2322  0.2693
  476MOL0     H64212   4.708   3.674   5.570  1.6198 -1.3811 -0.1512
  476MOL0     H64213   4.698   3.538   5.454  0.1223  2.1333 -2.1319
  476MOL0     H64214   4.498   3.645   5.350 -3.0438  2.2726  2.8345
  476MOL0     H64215   4.658   3.680   5.309  1.0826  0.3951  1.4715
  476MOL0     H64216   4.642   3.873   5.482  2.0798  0.1884 -4.8259
  476MOL0     H64217   4.472   3.823   5.493 -0.0073  0.6679 -0.0335
  476MOL0     H64218   4.584   3.894   5.233  2.1533 -2.9914  1.7427
  476MOL0     H64219   4.507   4.020   5.334  0.7054 -0.5582  1.0771
  476MOL0     H64220   4.140   3.839   5.260 -2.1418  2.6996  2.5049
  476MOL0     H64221   3.883   3.870   5.050  2.0379 -2.7896  1.9229
  476MOL0     H64222   3.920   3.864   5.221  1.2245 -1.2143 -0.0313
  476MOL0     H64223   3.855   4.008   5.156  1.7866  2.3953  2.5422
  476MOL0     H64224   3.890   4.114   4.630 -1.4079  0.1786 -2.9808
  476MOL0     H64225   3.715   4.217   4.493 -5.1036  1.3856 -0.7420
  476MOL0     H64226   3.531   4.319   4.394 -3.4579  2.1047 -2.7845
  476MOL0     H64227   3.454   4.199   4.501  0.2564  0.5396  1.0063
  476MOL0     H64228   3.264   4.332   4.529 -0.1326 -3.3029 -1.4971
  476MOL0     H64229   3.339   4.469   4.444  1.3067  0.0342 -0.8262
  476MOL0     H64230   3.293   4.200   4.301 -2.9891 -0.7965  0.9305
  476MOL0     H64231   3.348   4.356   4.230 -1.0868 -2.5077 -2.4462
  476MOL0     H64232   3.073   4.292   4.335 -1.6567  1.3312 -0.7833
  476MOL0     H64233   3.138   4.450   4.272 -1.8722 -0.6981 -0.6254
  476MOL0     H64234   3.190   4.317   4.048  1.1998 -0.4506  1.0697
  476MOL0     H64235   3.024   4.355   4.070  0.6122  0.1803 -2.3704
  476MOL0     H64236   3.154   4.089   4.125 -1.0496 -0.3881 -0.3359
  476MOL0     H64237   2.993   4.126   4.189 -2.3056  1.0349 -1.0146
  476MOL0     H64238   3.065   4.114   3.896 -1.3432 -2.6268 -0.9926
  476MOL0     H64239   2.918   4.185   3.955  0.6532  1.6936 -0.0412
  476MOL0     H64240   2.870   3.954   4.059 -1.3166 -0.4439 -0.6284
  476MOL0     H64241   3.016   3.891   3.988 -2.0881 -2.1504 -0.9036
  476MOL0     H64242   3.532   4.378   4.846 -1.4512 -2.0762  0.9278
  476MOL0     H64243   3.695   4.245   4.987  1.0732  1.4237 -0.2495
  476MOL0     H64244   4.297   4.167   4.925 -2.5388 -0.2295 -0.8494
  476MOL0     H64245   4.449   4.063   5.081  0.6119 -3.5986 -2.0880
  476MOL0     H64246   3.445   3.945   5.638  2.9421 -1.6929 -1.3217
  476MOL0     H64247   3.417   4.178   5.659  1.8808 -1.2719 -2.7082
  476MOL0     H64248   3.666   4.538   5.581  3.0308  0.2162  0.6328
  476MOL0     H64249   3.674   4.750   5.510  0.0623 -0.7397 -1.2436
  476MOL0     H64250   3.504   5.151   5.630 -1.6950 -2.6263 -1.0545
  476MOL0     H64251   3.445   5.063   5.766  1.1500  1.0718  2.9378
  476MOL0     H64252   3.733   5.148   5.696 -0.4876  3.0157  0.7231
  476MOL0     H64253   3.692   5.027   5.838  1.0393  2.8062  2.6653
  476MOL0     H64254   3.563   5.191   5.937 -0.1281  0.8453  0.6227
  476MOL0     H64255   3.553   5.300   5.809 -0.2963  1.2337  1.7403
  476MOL0     H64256   3.823   5.261   5.961  1.5995  0.0092 -0.7593
  476MOL0     H64257   3.730   5.411   5.957  1.7919  0.4554  1.2251
  476MOL0     H64258   3.892   5.439   5.570 -4.6720  1.4015 -1.4969
  476MOL0     H64259   3.421   4.874   5.853 -0.0812  1.1242 -1.5761
  476MOL0     H64260   3.384   4.648   5.913  2.1061  0.8268  3.0979
  477MOL0     O64261   1.376   5.042  10.192 -1.0458 -0.2643  0.0070
  477MOL0     C64262   1.433   5.031  10.299  0.4790  0.7019 -0.5759
  477MOL0     O64263   1.558   5.087  10.344  0.6276  0.0556  0.4911
  477MOL0     C64264   1.624   5.178  10.264 -0.1521 -0.6496  0.0684
  477MOL0     C64265   1.683   5.152  10.136  0.5752 -0.1994 -0.5412
  477MOL0     C64266   1.730   5.251  10.056  0.3841  0.2212 -0.1709
  477MOL0     C64267   1.731   5.385  10.101  0.1071 -0.4649  0.8926
  477MOL0     O64268   1.758   5.497  10.025  0.2111  0.5252 -0.6951
  477MOL0     C64269   1.882   5.495   9.948  0.3275 -0.0762 -0.1133
  477MOL0     C64270   1.852   5.542   9.803 -0.0462  0.3156 -0.1329
  477MOL0     C64271   1.775   5.432   9.731  0.1572  0.4396 -0.4321
  477MOL0     C64272   1.746   5.475   9.576  0.4817 -0.1309 -0.4218
  477MOL0     C64273   1.663   5.375   9.500  0.4360  0.0984 -0.0174
  477MOL0     C64274   1.654   5.409   9.350  0.3981  0.0759 -0.0561
  477MOL0     C64275   1.560   5.530   9.332 -0.1325 -0.3569  0.2043
  477MOL0     C64276   1.634   5.626   9.232  0.2630  0.6351  0.2867
  477MOL0     N64277   1.546   5.735   9.204  1.0484 -0.5738  0.7195
  477MOL0     C64278   1.491   5.826   9.296 -0.7840  0.1206  0.3473
  477MOL0     C64279   1.437   5.919   9.215  0.2245 -0.0283 -0.2529
  477MOL0     C64280   1.351   6.039   9.268 -0.7314  1.3193  0.0733
  477MOL0     C64281   1.434   6.137   9.349  0.6189 -0.2172  0.6666
  477MOL0     C64282   1.520   6.241   9.272  1.0141 -0.4920 -0.1003
  477MOL0     C64283   1.634   6.177   9.194  0.4394 -0.2028 -0.4313
  477MOL0     O64284   1.682   6.274   9.092 -0.5143 -0.1008  0.2870
  477MOL0     C64285   1.623   6.286   8.964  0.3031  0.8787  0.2695
  477MOL0     C64286   1.490   6.235   8.932  0.1431  0.1957  0.0236
  477MOL0     C64287   1.438   6.262   8.807  0.3950 -0.8449 -0.8576
  477MOL0     C64288   1.295   6.225   8.784  0.2661 -0.2431 -0.5855
  477MOL0     C64289   1.510   6.332   8.714 -0.3517 -0.1574  0.2551
  477MOL0     C64290   1.454   6.371   8.579 -0.2922  0.8158 -0.1222
  477MOL0     O64291   1.450   6.497   8.541 -0.7284 -0.1584  0.3689
  477MOL0     C64292   1.370   6.539   8.434 -0.2873  1.1091 -0.6166
  477MOL0     C64293   1.244   6.479   8.420  0.5468  0.6764  0.5241
  477MOL0     C64294   1.168   6.502   8.303  0.8690  0.5743  0.2450
  477MOL0     C64295   1.205   6.606   8.215 -0.5026 -0.0594 -1.4619
  477MOL0     O64296   1.114   6.666   8.139  0.2376  0.2689  0.4245
  477MOL0     C64297   1.056   6.603   8.020  0.5846 -0.7946 -0.1131
  477MOL0     C64298   0.916   6.536   8.045 -0.7014 -1.1135 -0.8020
  477MOL0     C64299   0.876   6.431   7.944  0.1965 -0.1136 -0.2656
  477MOL0     C64300   0.961   6.300   7.949 -0.3932 -0.9363 -0.3236
  477MOL0     C64301   0.873   6.185   7.890 -0.1259  0.2767 -0.3091
  477MOL0     C64302   0.938   6.047   7.934  0.1313  1.0501  0.4106
  477MOL0     C64303   0.863   5.933   7.867  0.2846  0.1069  0.6667
  477MOL0     C64304   0.935   5.811   7.923  0.9901  0.2637 -0.2855
  477MOL0    Cl64305   0.843   5.667   7.866 -0.3337  1.1104  0.2626
  477MOL0     C64306   1.333   6.668   8.221 -0.2261  0.1591 -0.1423
  477MOL0     C64307   1.416   6.632   8.342  0.0298 -0.2433  0.0946
  477MOL0     O64308   1.437   6.270   8.510  0.3390 -1.0775 -0.4414
  477MOL0     C64309   1.634   6.381   8.739  0.8970 -0.6741  0.2293
  477MOL0     C64310   1.696   6.353   8.861  0.4797 -0.2996  0.9738
  477MOL0     N64311   1.451   5.890   9.082 -0.0519 -0.4142  0.1568
  477MOL0     N64312   1.507   5.775   9.086  0.8008 -0.1190 -0.1831
  477MOL0     C64313   1.673   5.415  10.225 -0.2397 -0.0132  0.0583
  477MOL0     C64314   1.633   5.311  10.316  0.1990 -0.1862  0.1410
  477MOL0     C64315   1.337   4.974  10.404  0.5574  0.7246  0.5397
  477MOL0     C64316   1.390   4.886  10.498  0.6493  0.3373  0.2479
  477MOL0     C64317   1.306   4.819  10.586 -1.1336  0.5469 -1.2979
  477MOL0     C64318   1.172   4.844  10.589 -0.8252  0.9129  0.2579
  477MOL0     O64319   1.101   4.776  10.682 -0.5207  0.5616  0.3327
  477MOL0     C64320   0.957   4.755  10.653 -0.1574  0.5377 -0.6195
  477MOL0     C64321   0.893   4.772  10.787 -0.1580 -0.0902  0.0958
  477MOL0     C64322   0.946   4.689  10.906 -0.0607 -1.3602  0.8292
  477MOL0     C64323   0.835   4.639  11.000 -0.4644  0.9792 -0.0690
  477MOL0     C64324   0.766   4.750  11.067 -0.0448 -0.3749  0.1996
  477MOL0     C64325   0.732   4.853  11.119  0.2184 -0.8545 -0.5160
  477MOL0     C64326   1.119   4.935  10.494  0.4617 -0.2370  0.7874
  477MOL0     C64327   1.200   4.993  10.398 -0.1657 -0.4006  1.0186
  477MOL0     H64328   1.663   5.063  10.076 -0.7426  0.2165 -0.7399
  477MOL0     H64329   1.776   5.215   9.965  1.9008 -0.3164  0.7805
  477MOL0     H64330   1.941   5.573   9.998  1.3120 -0.7632 -0.1722
  477MOL0     H64331   1.939   5.403   9.963 -2.4900 -1.5019  3.2935
  477MOL0     H64332   1.807   5.642   9.800 -0.3669  0.1447 -1.4385
  477MOL0     H64333   1.952   5.544   9.758 -0.0378  2.3043 -0.1290
  477MOL0     H64334   1.840   5.346   9.747 -0.0241  0.1468 -1.2019
  477MOL0     H64335   1.673   5.414   9.766  0.2312 -1.3236 -1.0345
  477MOL0     H64336   1.692   5.570   9.579  1.2673  0.3894 -1.7920
  477MOL0     H64337   1.847   5.489   9.534  0.3586 -1.6163 -1.2805
  477MOL0     H64338   1.712   5.279   9.515 -2.6880 -1.3299  2.0501
  477MOL0     H64339   1.563   5.373   9.545  0.1845  0.2756 -0.5587
  477MOL0     H64340   1.752   5.421   9.304  0.8888 -2.4735  0.1799
  477MOL0     H64341   1.609   5.319   9.306 -0.2669 -0.5170  1.7395
  477MOL0     H64342   1.458   5.502   9.303 -0.2156  0.2476 -0.1029
  477MOL0     H64343   1.542   5.581   9.427  2.2518  0.5247  0.2495
  477MOL0     H64344   1.663   5.579   9.138 -1.9138  1.5369 -0.9132
  477MOL0     H64345   1.729   5.657   9.278  0.8664  0.2898 -0.6936
  477MOL0     H64346   1.489   5.822   9.404  0.4923 -1.2756  0.3550
  477MOL0     H64347   1.295   6.083   9.186  0.9796  0.6661 -1.5260
  477MOL0     H64348   1.276   6.003   9.339  0.2339 -1.1793 -0.0654
  477MOL0     H64349   1.498   6.076   9.413 -0.2600 -1.4460  0.4135
  477MOL0     H64350   1.353   6.193   9.399  1.4408  0.1032  1.6865
  477MOL0     H64351   1.562   6.310   9.346  1.0897 -1.1384  0.4694
  477MOL0     H64352   1.460   6.297   9.200 -1.6555 -0.3762  2.0474
  477MOL0     H64353   1.619   6.074   9.160  0.1745 -1.2549  2.5747
  477MOL0     H64354   1.717   6.172   9.265  1.2488  1.4562 -1.2103
  477MOL0     H64355   1.447   6.158   8.995  0.7240 -2.4334 -2.5686
  477MOL0     H64356   1.249   6.172   8.868 -2.2905  1.9335 -0.4578
  477MOL0     H64357   1.234   6.312   8.758  0.2177 -0.6028 -1.7175
  477MOL0     H64358   1.287   6.164   8.693  0.6921 -0.2102 -0.6483
  477MOL0     H64359   1.206   6.419   8.502 -1.0687  0.6176 -0.2432
  477MOL0     H64360   1.073   6.450   8.315  2.8530 -2.6107  4.9769
  477MOL0     H64361   1.057   6.673   7.936 -1.2057 -1.6611 -0.9011
  477MOL0     H64362   1.132   6.531   7.987  1.3780  0.2155 -0.5375
  477MOL0     H64363   0.919   6.496   8.147 -2.0619 -1.0370 -0.7155
  477MOL0     H64364   0.841   6.615   8.045 -0.5417 -0.9648 -0.5444
  477MOL0     H64365   0.886   6.476   7.845 -2.1999  3.6376  0.9768
  477MOL0     H64366   0.769   6.408   7.950 -0.0355  0.9966  0.1032
  477MOL0     H64367   1.052   6.323   7.893 -1.2038  1.3945 -0.8122
  477MOL0     H64368   0.982   6.279   8.054  0.5564 -0.0503 -0.3217
  477MOL0     H64369   0.871   6.199   7.781  0.3642 -0.1800 -0.3851
  477MOL0     H64370   0.769   6.198   7.920 -0.3886  2.0641 -1.8038
  477MOL0     H64371   1.047   6.047   7.922  0.1125  2.3686  0.0989
  477MOL0     H64372   0.924   6.029   8.041 -0.3002 -2.8293 -0.1809
  477MOL0     H64373   0.850   5.932   7.759 -2.9710 -0.6350  0.9575
  477MOL0     H64374   0.765   5.954   7.911  1.0227  1.6147  1.6940
  477MOL0     H64375   0.931   5.821   8.032  0.6017 -0.0543 -0.2704
  477MOL0     H64376   1.033   5.788   7.880  2.1680 -0.3900  2.4945
  477MOL0     H64377   1.358   6.741   8.144 -0.5910  1.4672  0.9395
  477MOL0     H64378   1.517   6.664   8.362  1.8156 -3.0420 -3.4408
  477MOL0     H64379   1.706   6.425   8.670  1.1923  1.4402  1.7716
  477MOL0     H64380   1.801   6.379   8.872  1.2898 -0.5919 -3.9267
  477MOL0     H64381   1.672   5.523  10.239 -0.0601  1.0180 -5.4504
  477MOL0     H64382   1.590   5.338  10.412  1.9957 -0.5410  1.0775
  477MOL0     H64383   1.498   4.883  10.495  0.8327  3.8064 -0.7535
  477MOL0     H64384   1.356   4.748  10.651 -1.3162  1.8036  0.2925
  477MOL0     H64385   0.915   4.815  10.572  1.3549 -0.5382 -2.2801
  477MOL0     H64386   0.944   4.651  10.620 -2.1804  0.2662  0.8355
  477MOL0     H64387   0.785   4.757  10.779 -0.2162  0.9607 -1.5000
  477MOL0     H64388   0.898   4.879  10.808 -1.9204  0.6879 -2.8586
  477MOL0     H64389   1.016   4.749  10.963  0.9760 -0.2672 -1.4662
  477MOL0     H64390   0.995   4.605  10.856  2.8345  1.5157 -1.5929
  477MOL0     H64391   0.877   4.557  11.059 -0.4493 -0.5879 -2.1518
  477MOL0     H64392   0.760   4.577  10.951  1.2363  0.3325 -2.0204
  477MOL0     H64393   0.708   4.942  11.174  0.1179 -0.8685 -0.5379
  477MOL0     H64394   1.014   4.961  10.491  0.5955  0.2273 -1.2160
  477MOL0     H64395   1.163   5.059  10.320  0.3289  0.8496  1.8030
  478MOL0     O64396   1.222   9.164   8.493 -0.2403 -0.4212  0.2579
  478MOL0     C64397   1.290   9.062   8.473 -0.4028 -0.6287 -0.3214
  478MOL0     O64398   1.317   9.011   8.352  0.6715 -0.3997 -0.1316
  478MOL0     C64399   1.267   9.081   8.242 -0.2888  0.5440  1.2342
  478MOL0     C64400   1.341   9.189   8.196  0.1978  0.1167  0.2799
  478MOL0     C64401   1.286   9.271   8.095 -1.1984  0.1569 -0.4500
  478MOL0     C64402   1.168   9.238   8.034 -0.2870 -0.6708  0.1141
  478MOL0     O64403   1.126   9.342   7.947 -0.0155  0.5882 -0.3702
  478MOL0     C64404   0.992   9.342   7.896 -0.2308  0.8407 -0.2514
  478MOL0     C64405   0.952   9.475   7.836  0.5181  0.1861 -0.7011
  478MOL0     C64406   0.994   9.593   7.937 -0.1976  0.3321  0.0019
  478MOL0     C64407   0.984   9.721   7.861 -0.3650 -1.0055  0.0641
  478MOL0     C64408   1.056   9.830   7.935  0.5115  0.1458 -0.9778
  478MOL0     C64409   1.015   9.962   7.870 -0.1017 -0.5589  0.0968
  478MOL0     C64410   1.068  10.083   7.954 -0.2966 -1.0117 -0.0253
  478MOL0     C64411   0.992  10.214   7.916 -0.5930 -0.2493  0.1478
  478MOL0     N64412   1.045  10.323   7.984 -0.0394  0.0473 -0.6386
  478MOL0     C64413   1.183  10.363   7.997  0.0597 -0.5010 -0.2480
  478MOL0     C64414   1.177  10.453   8.103 -0.0244 -0.2536 -0.0143
  478MOL0     C64415   1.291  10.525   8.169  0.4592  0.7635  0.1089
  478MOL0     C64416   1.364  10.581   8.053 -0.4816 -0.1173 -0.4490
  478MOL0     C64417   1.430  10.706   8.116 -0.2361 -0.2681  0.9789
  478MOL0     C64418   1.533  10.772   8.014  0.4264  0.1737 -0.0708
  478MOL0     O64419   1.636  10.690   7.957  0.8347  0.5305 -0.2820
  478MOL0     C64420   1.705  10.741   7.855  0.5700 -0.2071 -0.1441
  478MOL0     C64421   1.712  10.884   7.829  0.0855  0.8155  1.2299
  478MOL0     C64422   1.804  10.939   7.739 -0.7286  0.2727 -0.5624
  478MOL0     C64423   1.783  11.083   7.706 -0.5786 -0.1682 -0.4610
  478MOL0     C64424   1.895  10.854   7.671 -0.0985  0.0429  0.0018
  478MOL0     C64425   2.003  10.904   7.592 -0.5027 -0.0412 -0.9942
  478MOL0     O64426   2.069  11.021   7.635  0.1722  0.4490  0.0313
  478MOL0     C64427   2.183  11.073   7.576  0.9942 -0.2018 -0.6805
  478MOL0     C64428   2.206  11.067   7.444 -0.3410  0.3120  0.7807
  478MOL0     C64429   2.305  11.133   7.383  0.2527  0.1848 -0.4722
  478MOL0     C64430   2.403  11.200   7.457 -0.3691  0.7195 -0.4193
  478MOL0     O64431   2.499  11.269   7.388 -0.2094  0.9695  0.3678
  478MOL0     C64432   2.632  11.244   7.432 -0.5682  0.6477 -0.6519
  478MOL0     C64433   2.729  11.299   7.332  1.1363  0.2680  0.9985
  478MOL0     C64434   2.745  11.443   7.367  0.1531 -0.7574  1.1113
  478MOL0     C64435   2.823  11.516   7.249 -0.4057  0.3888 -0.0446
  478MOL0     C64436   2.878  11.658   7.290 -0.4958 -0.3949  0.0317
  478MOL0     C64437   2.972  11.654   7.412 -0.3888 -0.6582  0.7282
  478MOL0     C64438   3.109  11.579   7.402  0.5089  0.3883  0.2451
  478MOL0     C64439   3.143  11.515   7.540 -0.3793  0.7171  1.7730
  478MOL0    Cl64440   3.040  11.387   7.572 -0.3242  0.1906  0.1584
  478MOL0     C64441   2.399  11.187   7.600  0.7777  0.2057  0.3544
  478MOL0     C64442   2.286  11.130   7.662  0.6890 -0.4570  0.8558
  478MOL0     O64443   2.044  10.832   7.498  0.2846  0.2307  0.0863
  478MOL0     C64444   1.881  10.717   7.699  0.1652  0.4796  0.3467
  478MOL0     C64445   1.799  10.668   7.793 -0.2311 -0.8272  0.0143
  478MOL0     N64446   1.051  10.442   8.156  0.6681  0.0555 -0.5175
  478MOL0     N64447   0.967  10.371   8.085  0.3914 -0.0398  0.3238
  478MOL0     C64448   1.097   9.116   8.070  0.4631 -1.1643  0.3426
  478MOL0     C64449   1.145   9.042   8.177  0.4558  0.0444 -0.7214
  478MOL0     C64450   1.333   8.978   8.591  0.5933 -0.6023  0.3046
  478MOL0     C64451   1.334   9.035   8.718 -0.4560 -0.8602  0.1227
  478MOL0     C64452   1.408   8.979   8.826 -0.5512  0.2175  0.3112
  478MOL0     C64453   1.452   8.839   8.810  0.6031 -0.4704  1.1218
  478MOL0     O64454   1.489   8.756   8.907 -0.0087 -0.7712  0.2191
  478MOL0     C64455   1.514   8.803   9.042  0.1863 -0.0473  1.1035
  478MOL0     C64456   1.407   8.752   9.144 -0.4145  0.1543  0.6763
  478MOL0     C64457   1.388   8.601   9.141  0.8424 -0.0430  0.0249
  478MOL0     C64458   1.302   8.534   9.267 -0.5796  0.5022 -0.0643
  478MOL0     C64459   1.358   8.553   9.402 -0.2742 -0.3498 -0.8702
  478MOL0     C64460   1.419   8.555   9.502  0.0269 -0.1625 -0.7100
  478MOL0     C64461   1.451   8.785   8.681  0.2903 -0.9285 -0.3453
  478MOL0     C64462   1.398   8.858   8.572  0.4641  0.4363  0.2836
  478MOL0     H64463   1.437   9.196   8.246  0.6186  1.7479 -0.7013
  478MOL0     H64464   1.342   9.359   8.063 -0.3782 -0.5853 -1.1416
  478MOL0     H64465   0.978   9.267   7.818 -3.3343  3.2099 -2.2064
  478MOL0     H64466   0.926   9.310   7.977 -0.3656  1.8221  0.0383
  478MOL0     H64467   1.009   9.492   7.744  1.2009  0.2065 -0.2766
  478MOL0     H64468   0.843   9.469   7.820  0.1907  1.7914  0.6854
  478MOL0     H64469   0.921   9.592   8.018 -0.9027 -3.6857 -0.4868
  478MOL0     H64470   1.095   9.583   7.978 -0.2774 -1.2257 -0.1122
  478MOL0     H64471   1.037   9.702   7.767  0.7380 -1.6020  0.7908
  478MOL0     H64472   0.882   9.755   7.841 -0.2188  0.1397  1.1367
  478MOL0     H64473   1.036   9.830   8.043  3.3315 -1.6745 -0.3420
  478MOL0     H64474   1.164   9.817   7.935  0.3500 -1.9325  1.0185
  478MOL0     H64475   1.059   9.968   7.770 -3.1966 -1.7636 -1.4504
  478MOL0     H64476   0.906   9.961   7.878  0.0030 -0.2374  4.9074
  478MOL0     H64477   1.062  10.052   8.059 -0.9235 -2.0432 -0.3534
  478MOL0     H64478   1.174  10.093   7.926  0.0574 -2.7848  0.5632
  478MOL0     H64479   0.886  10.212   7.941 -0.5660  1.2219  0.5012
  478MOL0     H64480   0.994  10.242   7.810  1.2365 -1.5782 -0.2209
  478MOL0     H64481   1.267  10.332   7.936  0.2520 -1.4324  0.4794
  478MOL0     H64482   1.258  10.610   8.229 -0.3882  1.1906 -0.9297
  478MOL0     H64483   1.348  10.453   8.229 -1.5916 -2.0015 -1.0399
  478MOL0     H64484   1.299  10.618   7.973  0.8437 -1.4941 -2.2439
  478MOL0     H64485   1.428  10.505   8.009 -3.7956 -2.5287 -1.5388
  478MOL0     H64486   1.476  10.677   8.211  1.5484 -1.1096 -0.0966
  478MOL0     H64487   1.357  10.783   8.145  0.0482  0.3250  0.1574
  478MOL0     H64488   1.588  10.849   8.069  0.9242  0.0710 -0.4194
  478MOL0     H64489   1.484  10.832   7.936 -1.2222 -1.8758 -0.7117
  478MOL0     H64490   1.645  10.952   7.882  0.6155  1.8819  0.5648
  478MOL0     H64491   1.867  11.128   7.652 -1.8590  2.8208 -0.1769
  478MOL0     H64492   1.688  11.112   7.660 -0.1981  2.7752  0.3647
  478MOL0     H64493   1.786  11.147   7.795 -1.9957 -0.6057 -0.0700
  478MOL0     H64494   2.128  11.018   7.385  1.7322 -2.2779 -0.0271
  478MOL0     H64495   2.316  11.149   7.276  0.2388  0.9002 -0.3750
  478MOL0     H64496   2.642  11.299   7.526 -3.1705  0.5027 -0.2170
  478MOL0     H64497   2.657  11.139   7.451  0.4760  1.0399  0.2421
  478MOL0     H64498   2.824  11.246   7.345 -0.3339 -3.6501 -2.0160
  478MOL0     H64499   2.696  11.276   7.230 -3.2667  2.5781  1.6630
  478MOL0     H64500   2.816  11.446   7.450  4.0741 -0.2525 -1.9669
  478MOL0     H64501   2.646  11.490   7.368  0.4762  0.5381 -3.5342
  478MOL0     H64502   2.905  11.450   7.218  1.0703  2.0805  0.0777
  478MOL0     H64503   2.762  11.537   7.161  0.7316 -0.9588 -1.2212
  478MOL0     H64504   2.794  11.724   7.314 -0.6493  0.9814 -3.6501
  478MOL0     H64505   2.931  11.713   7.212 -2.7338  2.0101  0.0371
  478MOL0     H64506   2.983  11.761   7.430  1.5070 -0.6958 -0.0108
  478MOL0     H64507   2.909  11.618   7.493 -2.9507 -0.3592 -1.0008
  478MOL0     H64508   3.181  11.647   7.356  0.0878 -0.7902 -2.3616
  478MOL0     H64509   3.092  11.492   7.337 -0.4115 -0.6239  1.7774
  478MOL0     H64510   3.145  11.595   7.615 -0.6722  1.0212  1.4612
  478MOL0     H64511   3.247  11.481   7.547 -0.0380  1.3610  0.2583
  478MOL0     H64512   2.472  11.231   7.667  1.2356 -0.2298  0.1432
  478MOL0     H64513   2.269  11.131   7.769  1.1375 -0.3387  0.9280
  478MOL0     H64514   1.951  10.644   7.660  0.3769  0.3767  0.9152
  478MOL0     H64515   1.803  10.562   7.816  3.5062 -0.5757  1.3197
  478MOL0     H64516   0.998   9.093   8.034  0.0066  1.1194 -0.0410
  478MOL0     H64517   1.093   8.957   8.220  1.1414 -0.6993 -1.3355
  478MOL0     H64518   1.308   9.139   8.733 -0.4019 -0.4266 -2.2657
  478MOL0     H64519   1.444   9.044   8.906  3.0833 -0.4632 -0.5671
  478MOL0     H64520   1.613   8.777   9.081  0.4318  2.7301  2.6078
  478MOL0     H64521   1.507   8.913   9.041  1.5608  0.0579 -0.0440
  478MOL0     H64522   1.315   8.811   9.136  0.2794  1.5710  2.3993
  478MOL0     H64523   1.449   8.788   9.238 -0.4231  4.1399 -0.6477
  478MOL0     H64524   1.481   8.545   9.125  0.0490 -0.8183 -2.1581
  478MOL0     H64525   1.334   8.563   9.054  0.8057  1.6606 -0.7234
  478MOL0     H64526   1.285   8.428   9.247 -5.4466  1.3398 -1.6951
  478MOL0     H64527   1.198   8.567   9.263 -1.4719 -1.0733  4.3881
  478MOL0     H64528   1.478   8.571   9.590  1.3798  0.4891 -1.6931
  478MOL0     H64529   1.497   8.688   8.672 -0.7916 -1.5892  0.9138
  478MOL0     H64530   1.408   8.815   8.472 -0.9195 -1.1404  0.7815
  479MOL0     O64531   3.065   4.718   9.201 -0.2063 -0.1928  0.3237
  479MOL0     C64532   3.100   4.610   9.251 -0.3755 -0.4497  0.1783
  479MOL0     O64533   3.229   4.567   9.246  0.2141 -0.8739  0.7838
  479MOL0     C64534   3.335   4.661   9.236  0.6090 -0.1553 -0.2768
  479MOL0     C64535   3.339   4.799   9.276 -0.5842  0.0749 -0.1730
  479MOL0     C64536   3.456   4.878   9.260  0.6837  0.4512  0.0732
  479MOL0     C64537   3.567   4.819   9.203  0.0660 -0.8130 -0.4837
  479MOL0     O64538   3.675   4.895   9.166  0.4077  0.2228 -0.5363
  479MOL0     C64539   3.800   4.852   9.218  0.5341  0.7110 -0.4713
  479MOL0     C64540   3.888   4.970   9.212  0.3324 -0.7763  0.3737
  479MOL0     C64541   3.914   5.010   9.065 -0.4825  0.2722  0.4051
  479MOL0     C64542   4.009   4.922   8.988  0.2497  0.2321  0.0084
  479MOL0     C64543   4.033   4.960   8.842 -0.9800  0.4079  0.5554
  479MOL0     C64544   4.097   4.842   8.758 -0.7688  0.3320  0.3422
  479MOL0     C64545   4.122   4.889   8.617 -0.5263 -0.1110 -0.0652
  479MOL0     C64546   4.122   4.767   8.512 -0.7066 -0.8223  0.6162
  479MOL0     N64547   4.173   4.800   8.381  0.2105  0.5683 -0.3027
  479MOL0     C64548   4.192   4.705   8.282  0.7947  0.5115 -0.7796
  479MOL0     C64549   4.255   4.776   8.173  0.3755 -0.1958 -1.0575
  479MOL0     C64550   4.274   4.725   8.032 -0.2884 -0.2865 -0.3597
  479MOL0     C64551   4.418   4.680   8.012  0.8386 -0.3743  0.4920
  479MOL0     C64552   4.526   4.790   8.040  0.0242  0.3977  0.0533
  479MOL0     C64553   4.654   4.761   7.957 -0.0639 -1.4372 -0.9523
  479MOL0     O64554   4.764   4.830   8.010  0.0080 -0.0005 -0.1582
  479MOL0     C64555   4.835   4.927   7.937 -0.6889 -0.2989 -0.5206
  479MOL0     C64556   4.980   4.932   7.954  1.2740  0.3392 -0.4584
  479MOL0     C64557   5.054   5.025   7.878 -0.1621 -0.4571 -0.5052
  479MOL0     C64558   5.207   5.008   7.870  0.1396  0.3501 -0.6764
  479MOL0     C64559   4.986   5.108   7.788  0.9670  0.5076  1.1449
  479MOL0     C64560   5.044   5.211   7.694 -0.1868  0.3200 -1.0968
  479MOL0     O64561   4.962   5.314   7.642 -0.5911 -0.7232  0.4403
  479MOL0     C64562   4.998   5.367   7.519 -0.4916  0.6277  0.7524
  479MOL0     C64563   4.996   5.508   7.510  0.1004  0.3155 -0.3275
  479MOL0     C64564   4.994   5.571   7.385 -1.1357 -0.8872 -0.9772
  479MOL0     C64565   5.047   5.513   7.270  1.2734  0.1301 -1.0298
  479MOL0     O64566   5.060   5.590   7.157 -0.6042 -0.8201 -0.1219
  479MOL0     C64567   5.107   5.535   7.032  0.3322 -0.2341 -0.2001
  479MOL0     C64568   4.995   5.475   6.949  0.5168  0.2648  0.4161
  479MOL0     C64569   5.050   5.461   6.799  0.1103  0.0193 -0.7468
  479MOL0     C64570   4.928   5.425   6.724  0.4861 -0.7388 -0.0752
  479MOL0     C64571   4.951   5.357   6.590  0.9877 -0.3746 -0.1349
  479MOL0     C64572   4.829   5.288   6.554  0.3432  0.4720 -0.0061
  479MOL0     C64573   4.850   5.226   6.418 -0.3892  0.0302 -0.4579
  479MOL0     C64574   4.752   5.107   6.401 -0.1114 -0.5391  0.5990
  479MOL0    Cl64575   4.585   5.156   6.416 -0.1033  0.3933 -0.6009
  479MOL0     C64576   5.064   5.371   7.278 -0.5096 -0.5065  0.1207
  479MOL0     C64577   5.036   5.297   7.394  0.3469 -0.3792 -1.0578
  479MOL0     O64578   5.168   5.213   7.673  0.0647 -0.0141 -0.6515
  479MOL0     C64579   4.852   5.104   7.779  0.0555 -0.2498 -0.4458
  479MOL0     C64580   4.779   5.019   7.856  0.5730 -0.0521  1.0060
  479MOL0     N64581   4.286   4.905   8.228  0.3941 -1.4880  0.4661
  479MOL0     N64582   4.236   4.915   8.347 -0.2028  0.4877  0.9166
  479MOL0     C64583   3.562   4.686   9.163  0.0757  0.0364 -0.2509
  479MOL0     C64584   3.453   4.609   9.193 -0.5057 -0.3569 -0.0892
  479MOL0     C64585   3.001   4.528   9.323  0.0408 -1.7227 -0.1803
  479MOL0     C64586   3.022   4.389   9.366  1.2882  0.4092  0.2425
  479MOL0     C64587   2.927   4.318   9.444  0.5361 -0.0513  1.0739
  479MOL0     C64588   2.808   4.384   9.477  0.3729  0.8571  0.7826
  479MOL0     O64589   2.704   4.326   9.543  0.6852 -0.4469 -0.5770
  479MOL0     C64590   2.706   4.262   9.676  0.4935  0.9758  0.4354
  479MOL0     C64591   2.552   4.230   9.700 -0.2024 -0.3601  0.2881
  479MOL0     C64592   2.503   4.143   9.587  0.1178  0.1980  0.3336
  479MOL0     C64593   2.582   4.007   9.579  0.8146 -0.3833  0.2914
  479MOL0     C64594   2.597   3.946   9.714  0.3342  0.1707 -0.0315
  479MOL0     C64595   2.622   3.899   9.819 -0.9899  0.0404  0.2105
  479MOL0     C64596   2.781   4.519   9.429 -0.2947  0.5695 -0.0982
  479MOL0     C64597   2.877   4.586   9.359 -1.0114  0.5922  0.1189
  479MOL0     H64598   3.254   4.839   9.331 -0.9934  0.4898 -1.0678
  479MOL0     H64599   3.452   4.983   9.286 -4.3515  0.3013  0.9928
  479MOL0     H64600   3.796   4.826   9.324  1.5180 -4.5171 -1.4450
  479MOL0     H64601   3.838   4.762   9.169  0.2266 -0.0246  0.5970
  479MOL0     H64602   3.834   5.050   9.263  1.4604 -0.0786  0.5365
  479MOL0     H64603   3.981   4.955   9.268 -0.2370 -1.0816  1.2549
  479MOL0     H64604   3.816   5.014   9.017 -0.5869 -2.8390  0.2018
  479MOL0     H64605   3.955   5.112   9.058  3.5597 -0.2446  7.0815
  479MOL0     H64606   4.102   4.911   9.045 -1.0192 -3.0775  1.7439
  479MOL0     H64607   3.971   4.820   8.981  2.0378 -0.4615 -0.1983
  479MOL0     H64608   3.942   4.986   8.789 -0.3950  1.3342 -0.0251
  479MOL0     H64609   4.095   5.049   8.830 -2.6143  1.1050 -5.5880
  479MOL0     H64610   4.188   4.813   8.812 -2.7410 -0.3871  3.5989
  479MOL0     H64611   4.027   4.758   8.755 -2.0327  1.3803 -0.5855
  479MOL0     H64612   4.028   4.943   8.600  0.5592  2.9636  2.7790
  479MOL0     H64613   4.210   4.952   8.611  1.0438 -2.2837 -1.2685
  479MOL0     H64614   4.022   4.722   8.513 -0.0416 -2.4418  3.3534
  479MOL0     H64615   4.187   4.689   8.551 -1.5912 -1.7827  0.2230
  479MOL0     H64616   4.172   4.601   8.259  0.5166  0.4925 -0.4619
  479MOL0     H64617   4.211   4.636   8.021 -2.1006  0.9508 -0.3653
  479MOL0     H64618   4.235   4.800   7.963  0.2888  1.5242  1.2096
  479MOL0     H64619   4.429   4.642   7.910 -2.6185  1.0624 -0.5727
  479MOL0     H64620   4.431   4.598   8.083  1.9182 -0.9713 -0.3773
  479MOL0     H64621   4.546   4.791   8.148 -0.5877 -3.4635  0.3384
  479MOL0     H64622   4.482   4.883   8.003 -1.7180 -0.1140  0.7314
  479MOL0     H64623   4.641   4.792   7.853 -1.7918 -1.6181 -0.8207
  479MOL0     H64624   4.673   4.653   7.967 -4.5383 -2.4820 -1.2531
  479MOL0     H64625   5.037   4.867   8.019  0.5774 -1.7430 -1.8407
  479MOL0     H64626   5.242   4.988   7.768 -2.9442 -0.9576 -1.6010
  479MOL0     H64627   5.260   5.078   7.935 -1.9612 -0.3016  1.8891
  479MOL0     H64628   5.225   4.911   7.916  1.0317  0.7032 -0.2514
  479MOL0     H64629   4.965   5.556   7.602 -0.8259 -1.6751  0.4588
  479MOL0     H64630   4.978   5.678   7.381 -2.8515 -1.0628  0.0877
  479MOL0     H64631   5.151   5.615   6.973 -0.7299 -0.3529 -1.2084
  479MOL0     H64632   5.183   5.460   7.055 -0.7793 -1.0034  1.0868
  479MOL0     H64633   4.967   5.380   6.993  1.4991  0.1644  0.8615
  479MOL0     H64634   4.907   5.539   6.959 -1.2914 -1.8131 -1.3752
  479MOL0     H64635   5.129   5.386   6.791  1.3047  1.3285 -1.8199
  479MOL0     H64636   5.090   5.554   6.757 -1.0224  0.9506  0.1447
  479MOL0     H64637   4.885   5.346   6.786  1.4142 -0.4062  1.0270
  479MOL0     H64638   4.859   5.509   6.715  0.9024 -0.6389 -4.6174
  479MOL0     H64639   5.026   5.278   6.587  1.8453  0.4406 -1.1675
  479MOL0     H64640   4.983   5.433   6.518 -0.0958  0.7345  0.5007
  479MOL0     H64641   4.796   5.222   6.634 -0.5394  1.7236  0.6887
  479MOL0     H64642   4.754   5.367   6.538  0.6164  0.8987  0.7514
  479MOL0     H64643   4.949   5.182   6.400 -0.7456 -0.7996 -0.4196
  479MOL0     H64644   4.842   5.298   6.336 -0.8393 -0.8610 -1.2160
  479MOL0     H64645   4.781   5.031   6.473  3.8902 -0.7971 -1.0482
  479MOL0     H64646   4.778   5.048   6.313  2.6035  0.6171  0.5314
  479MOL0     H64647   5.093   5.325   7.185  1.7499 -0.2722  0.6524
  479MOL0     H64648   5.037   5.189   7.391 -0.6589 -0.4001 -1.0391
  479MOL0     H64649   4.799   5.159   7.701 -1.4343  0.2837  0.8919
  479MOL0     H64650   4.672   5.036   7.845  0.4844 -0.6755  0.8595
  479MOL0     H64651   3.637   4.635   9.104  0.3515  3.0860 -2.7576
  479MOL0     H64652   3.447   4.505   9.164 -2.1312  0.0519 -1.3271
  479MOL0     H64653   3.108   4.330   9.337  0.4686  0.0380 -1.5897
  479MOL0     H64654   2.952   4.222   9.487  1.4105  0.5873  2.0491
  479MOL0     H64655   2.759   4.166   9.679 -5.2544 -2.8533 -1.6666
  479MOL0     H64656   2.733   4.338   9.750 -0.7960  3.0649 -1.1374
  479MOL0     H64657   2.497   4.325   9.701  0.3342 -0.0312 -0.5127
  479MOL0     H64658   2.550   4.196   9.804  0.2450  0.1214  0.4571
  479MOL0     H64659   2.506   4.192   9.490  1.4575 -1.7649 -0.6938
  479MOL0     H64660   2.399   4.118   9.613  0.4360 -0.7544  0.7568
  479MOL0     H64661   2.681   4.016   9.533 -0.0977  0.0714 -1.6895
  479MOL0     H64662   2.515   3.937   9.529 -0.3230 -2.5277  4.3372
  479MOL0     H64663   2.657   3.856   9.912 -0.9834  0.5626  0.4517
  479MOL0     H64664   2.681   4.558   9.441  0.6033  2.5301  1.7758
  479MOL0     H64665   2.844   4.687   9.339 -1.0148  0.5750  0.0367
  480MOL0     O64666  11.033   5.745   0.607 -0.0176 -0.1567 -1.0064
  480MOL0     C64667  11.035   5.863   0.629  0.3568 -0.5321 -0.6040
  480MOL0     O64668  10.927   5.933   0.687  0.4706 -0.4375 -0.2322
  480MOL0     C64669  10.842   5.853   0.754  0.0896  0.2566 -0.6770
  480MOL0     C64670  10.870   5.811   0.883 -0.0116  0.7140 -0.7232
  480MOL0     C64671  10.773   5.735   0.960  0.0426 -0.8516 -1.1244
  480MOL0     C64672  10.641   5.727   0.922  0.2583 -0.1832 -0.7946
  480MOL0     O64673  10.553   5.664   1.008  0.3689 -0.2867  0.6628
  480MOL0     C64674  10.417   5.636   0.962  0.1237 -0.7646 -0.0857
  480MOL0     C64675  10.320   5.611   1.076  1.0612 -0.0324  0.5698
  480MOL0     C64676  10.185   5.560   1.019  0.2463 -0.4002 -0.3202
  480MOL0     C64677  10.083   5.661   0.955 -0.8043  0.0569 -0.5562
  480MOL0     C64678  10.029   5.755   1.061  0.8569 -0.4995 -0.2035
  480MOL0     C64679   9.899   5.826   1.003  0.0308  0.8774 -0.4251
  480MOL0     C64680   9.842   5.925   1.103  0.0851 -0.9146 -0.0615
  480MOL0     C64681   9.687   5.973   1.074 -0.4122  0.4861  0.0579
  480MOL0     N64682   9.659   6.021   0.934 -0.4735 -0.4515  0.0506
  480MOL0     C64683   9.726   6.122   0.864 -1.2129  0.5640  0.1332
  480MOL0     C64684   9.660   6.132   0.743  0.5457  0.4515  0.1950
  480MOL0     C64685   9.700   6.219   0.630 -0.0151 -0.5159 -0.2453
  480MOL0     C64686   9.787   6.133   0.540  0.2039  0.6921 -0.8468
  480MOL0     C64687   9.861   6.211   0.438 -0.2928 -0.2302  0.2413
  480MOL0     C64688   9.785   6.259   0.318 -0.3134  0.9100 -1.4137
  480MOL0     O64689   9.737   6.137   0.259 -0.4054 -0.2179 -0.6290
  480MOL0     C64690   9.798   6.112   0.141 -0.5201 -0.5836  0.2055
  480MOL0     C64691   9.752   6.168   0.028 -0.1631  0.8937 -0.9245
  480MOL0     C64692   9.794   6.134  -0.100  0.8244  0.6619 -0.5334
  480MOL0     C64693   9.729   6.201  -0.218  0.1446  0.0545  0.7965
  480MOL0     C64694   9.900   6.035  -0.111  0.2657 -0.0497  0.2532
  480MOL0     C64695   9.967   5.993  -0.238  0.2966  0.4378  0.2865
  480MOL0     O64696  10.093   5.945  -0.231  0.2395  0.0091 -0.2134
  480MOL0     C64697  10.151   5.879  -0.339 -0.7721 -0.8590  0.0678
  480MOL0     C64698  10.179   5.952  -0.457 -0.0770  0.0771 -0.1477
  480MOL0     C64699  10.234   5.902  -0.573 -1.4725  0.3993 -0.7168
  480MOL0     C64700  10.261   5.768  -0.574 -0.2905  0.7612  0.0177
  480MOL0     O64701  10.338   5.704  -0.672  0.2327 -1.0450 -0.2534
  480MOL0     C64702  10.432   5.793  -0.746  0.0608  0.3026  0.4211
  480MOL0     C64703  10.525   5.701  -0.833  0.7350  0.1023  0.3379
  480MOL0     C64704  10.622   5.760  -0.934 -0.3803 -0.3583  0.2401
  480MOL0     C64705  10.676   5.901  -0.911 -0.3932 -0.1845 -0.4756
  480MOL0     C64706  10.773   5.935  -1.025  0.4696  0.2057  0.7956
  480MOL0     C64707  10.916   5.919  -0.990 -0.2717  0.2035 -0.0160
  480MOL0     C64708  10.964   5.778  -0.987  0.3817  0.7827 -1.1089
  480MOL0     C64709  11.013   5.732  -0.850 -0.1025  0.2435 -0.4124
  480MOL0    Cl64710  11.172   5.796  -0.811  0.7424  0.3535  0.3207
  480MOL0     C64711  10.208   5.682  -0.466  0.1273 -0.3770 -0.1358
  480MOL0     C64712  10.159   5.736  -0.346  0.1220 -0.0105  0.4935
  480MOL0     O64713   9.902   5.995  -0.344  0.5911 -0.5687  0.1459
  480MOL0     C64714   9.943   5.973  -0.000 -0.4175  0.5175 -0.2138
  480MOL0     C64715   9.889   6.003   0.123 -0.4324  0.4272 -0.6076
  480MOL0     N64716   9.560   6.031   0.746 -0.7502  0.1777 -0.7852
  480MOL0     N64717   9.570   5.965   0.852  0.0842  0.5604  0.4876
  480MOL0     C64718  10.611   5.800   0.802 -0.2336 -0.4249 -0.6665
  480MOL0     C64719  10.705   5.857   0.714 -0.0043  1.0220  0.2973
  480MOL0     C64720  11.153   5.951   0.620  0.5311  0.3282  0.2213
  480MOL0     C64721  11.174   6.074   0.686  0.3641  1.3470  0.2651
  480MOL0     C64722  11.284   6.156   0.664  0.0693 -1.1164  1.0974
  480MOL0     C64723  11.381   6.127   0.562 -0.6818  1.0163  0.2731
  480MOL0     O64724  11.485   6.200   0.526 -0.5517 -0.1530  0.1062
  480MOL0     C64725  11.562   6.271   0.622  0.1803  0.2336 -0.8740
  480MOL0     C64726  11.681   6.353   0.567 -0.2834  0.1230 -0.2621
  480MOL0     C64727  11.795   6.261   0.516  0.7501  0.4196 -0.7548
  480MOL0     C64728  11.903   6.216   0.621 -1.3563  0.1504 -0.3171
  480MOL0     C64729  12.007   6.119   0.575 -0.3187 -0.6608 -0.0511
  480MOL0     C64730  12.090   6.031   0.554  0.3407  0.1426 -0.3048
  480MOL0     C64731  11.356   6.007   0.492  0.2395  0.0876 -0.4831
  480MOL0     C64732  11.247   5.927   0.520  1.3721 -0.5015  1.1119
  480MOL0     H64733  10.970   5.834   0.918  0.7396  0.3179 -2.5055
  480MOL0     H64734  10.815   5.709   1.056  0.0491  0.1582 -0.8411
  480MOL0     H64735  10.370   5.718   0.907  0.5691 -0.6216 -0.2544
  480MOL0     H64736  10.416   5.548   0.895 -0.7437 -2.9738  2.6230
  480MOL0     H64737  10.366   5.528   1.131  0.2866 -2.5737 -2.3461
  480MOL0     H64738  10.303   5.698   1.140  0.2360 -0.9859  1.6904
  480MOL0     H64739  10.201   5.475   0.951  2.6920 -1.5852  1.6002
  480MOL0     H64740  10.132   5.523   1.107  0.8165  0.0385  0.2090
  480MOL0     H64741  10.120   5.719   0.870 -0.4074  3.6500  1.8046
  480MOL0     H64742   9.992   5.609   0.924 -1.8974 -0.0318  2.4493
  480MOL0     H64743   9.993   5.700   1.148 -0.2594  0.9754  0.3106
  480MOL0     H64744  10.111   5.821   1.091 -1.6116  2.5501  0.3697
  480MOL0     H64745   9.920   5.898   0.923 -0.9366 -0.2907 -1.7807
  480MOL0     H64746   9.832   5.747   0.967 -0.4291  0.5735  1.0452
  480MOL0     H64747   9.853   5.885   1.204 -2.5311  1.0688  1.1412
  480MOL0     H64748   9.907   6.013   1.093  0.2378 -1.1782 -1.7678
  480MOL0     H64749   9.674   6.062   1.138  0.2972  0.4137  0.3158
  480MOL0     H64750   9.621   5.891   1.104  0.2145 -0.5509 -1.3043
  480MOL0     H64751   9.815   6.169   0.903 -1.4274  0.3735  0.8735
  480MOL0     H64752   9.616   6.251   0.568  0.8015 -0.8476 -1.5549
  480MOL0     H64753   9.761   6.301   0.669 -1.4331 -0.2141  1.4574
  480MOL0     H64754   9.729   6.053   0.493  2.4836 -0.5730 -1.6964
  480MOL0     H64755   9.852   6.077   0.607  1.1601  2.6789 -0.0389
  480MOL0     H64756   9.949   6.158   0.400  1.9339  1.1015  3.1469
  480MOL0     H64757   9.902   6.300   0.485  2.4101 -0.7054 -1.0434
  480MOL0     H64758   9.846   6.325   0.256  0.7825  0.0287 -1.3104
  480MOL0     H64759   9.697   6.318   0.344  0.1196  0.1192  2.4246
  480MOL0     H64760   9.681   6.248   0.047 -0.8419 -0.0111  0.5248
  480MOL0     H64761   9.629   6.243  -0.204 -0.0407  1.3672 -3.0965
  480MOL0     H64762   9.798   6.274  -0.263  0.3017  0.2374  1.3361
  480MOL0     H64763   9.704   6.127  -0.295 -2.6825  0.4642  1.2104
  480MOL0     H64764  10.172   6.060  -0.451 -1.6356  0.1876 -2.6783
  480MOL0     H64765  10.257   5.965  -0.658  0.7858 -0.2189 -0.6269
  480MOL0     H64766  10.387   5.863  -0.818  2.2428  0.5207 -0.8148
  480MOL0     H64767  10.492   5.852  -0.676 -0.2788  2.4670 -1.0067
  480MOL0     H64768  10.575   5.639  -0.758  1.5476  0.7782  0.3723
  480MOL0     H64769  10.464   5.623  -0.878  2.4257 -0.7054 -0.6067
  480MOL0     H64770  10.572   5.771  -1.030  3.1331  2.9223 -1.4530
  480MOL0     H64771  10.699   5.685  -0.952 -1.1446 -1.2292  0.5464
  480MOL0     H64772  10.591   5.969  -0.917 -0.6088 -0.3775  0.1922
  480MOL0     H64773  10.714   5.897  -0.808 -2.9328 -1.0104  0.5135
  480MOL0     H64774  10.763   6.041  -1.051  1.3495 -0.0351 -0.6683
  480MOL0     H64775  10.745   5.886  -1.119  0.3435  1.0137  0.4042
  480MOL0     H64776  10.982   5.971  -1.061 -0.6578 -0.9813 -1.2860
  480MOL0     H64777  10.926   5.966  -0.892  2.7221  0.3072 -0.2684
  480MOL0     H64778  11.051   5.775  -1.054 -0.6384  0.0855 -2.4538
  480MOL0     H64779  10.897   5.706  -1.034  1.5869 -0.5631 -0.8239
  480MOL0     H64780  11.010   5.623  -0.842  0.7716  0.3652  2.8550
  480MOL0     H64781  10.943   5.776  -0.779  1.4676  1.9762  0.1455
  480MOL0     H64782  10.213   5.574  -0.467  1.5737 -0.3275 -1.1558
  480MOL0     H64783  10.113   5.680  -0.266  0.6280  0.9650  1.4924
  480MOL0     H64784  10.021   5.898   0.006 -3.7777 -3.2771  0.8654
  480MOL0     H64785   9.928   5.963   0.216  2.6437  0.9776 -1.5536
  480MOL0     H64786  10.510   5.803   0.762 -0.2824  0.3852 -0.5098
  480MOL0     H64787  10.673   5.893   0.617  2.7278  2.2210 -0.2478
  480MOL0     H64788  11.101   6.098   0.762  2.8747  1.2948  2.8708
  480MOL0     H64789  11.296   6.244   0.727  0.4756 -0.6417  0.3714
  480MOL0     H64790  11.498   6.340   0.677 -0.3503 -0.0351 -1.1498
  480MOL0     H64791  11.613   6.211   0.699  0.8133  2.9759  0.9980
  480MOL0     H64792  11.719   6.407   0.654  2.9054 -1.6718 -0.3716
  480MOL0     H64793  11.644   6.419   0.488  1.6460 -0.1489 -1.4703
  480MOL0     H64794  11.850   6.324   0.445  3.0732  1.1983  1.5802
  480MOL0     H64795  11.751   6.172   0.469  1.8394 -0.9761  0.7779
  480MOL0     H64796  11.854   6.180   0.712  0.7808  0.9292  1.2316
  480MOL0     H64797  11.964   6.302   0.647  2.7863 -2.5205 -0.3105
  480MOL0     H64798  12.171   5.965   0.534  0.4957  1.2310 -3.9119
  480MOL0     H64799  11.425   5.982   0.411  0.0661 -2.4655  0.0853
  480MOL0     H64800  11.235   5.836   0.462 -1.6744  0.1468  0.5714
  481MOL0     O64801   3.763   8.677   4.861  0.1250  0.3031 -0.1937
  481MOL0     C64802   3.868   8.613   4.861  0.4464 -0.3049 -0.2734
  481MOL0     O64803   3.979   8.653   4.926 -0.1860 -0.6824  0.1944
  481MOL0     C64804   3.977   8.748   5.028  0.3486  0.6828 -0.2847
  481MOL0     C64805   4.082   8.843   5.027 -1.0815 -0.3264 -0.6337
  481MOL0     C64806   4.070   8.956   5.109  0.7059  0.5396  1.1872
  481MOL0     C64807   3.949   8.980   5.193 -0.5392  1.1107 -0.0946
  481MOL0     O64808   3.959   9.081   5.278 -0.1996  0.0507 -0.6836
  481MOL0     C64809   3.954   9.212   5.221  0.0052  0.0374  0.2122
  481MOL0     C64810   4.089   9.271   5.181  1.3609 -0.5555 -0.0999
  481MOL0     C64811   4.185   9.258   5.293 -0.2541 -0.1455 -0.6528
  481MOL0     C64812   4.332   9.286   5.246  0.8193 -0.0449 -0.5178
  481MOL0     C64813   4.441   9.248   5.351 -0.0378 -0.8440  0.2940
  481MOL0     C64814   4.584   9.286   5.304  0.1998 -0.4352  0.7872
  481MOL0     C64815   4.583   9.437   5.283 -0.1584 -0.6385  0.0197
  481MOL0     C64816   4.714   9.506   5.256 -0.8806 -0.1595 -0.6200
  481MOL0     N64817   4.810   9.483   5.366  0.4338 -0.9976  0.5088
  481MOL0     C64818   4.780   9.520   5.499  0.8203 -0.2972  0.3596
  481MOL0     C64819   4.878   9.466   5.573 -0.5149 -0.1683 -1.0573
  481MOL0     C64820   4.888   9.485   5.721 -0.9442  0.5669  0.4127
  481MOL0     C64821   4.816   9.369   5.798  0.3143 -1.2174 -0.1147
  481MOL0     C64822   4.661   9.371   5.786  0.3192  0.5570 -0.2349
  481MOL0     C64823   4.614   9.238   5.711  0.7248 -0.5529 -0.0730
  481MOL0     O64824   4.469   9.247   5.689 -0.7787  0.0455 -0.3567
  481MOL0     C64825   4.378   9.140   5.704 -0.2106 -0.1033  0.2657
  481MOL0     C64826   4.248   9.149   5.650 -0.7608  1.1767  0.4901
  481MOL0     C64827   4.155   9.046   5.679 -0.7902  0.2838  0.2183
  481MOL0     C64828   4.014   9.072   5.637 -0.1237 -0.2617  0.3082
  481MOL0     C64829   4.184   8.931   5.754  0.6304 -0.3226 -0.0941
  481MOL0     C64830   4.089   8.819   5.766  0.2943  0.0121  0.1798
  481MOL0     O64831   4.043   8.777   5.645 -0.1267  0.0784  0.1510
  481MOL0     C64832   3.943   8.679   5.647  0.8288  0.7328 -0.2166
  481MOL0     C64833   3.919   8.595   5.541  0.2801  0.2901  0.0365
  481MOL0     C64834   3.813   8.501   5.540  1.1386  0.6304  0.2436
  481MOL0     C64835   3.723   8.497   5.648 -0.4491 -0.4125 -0.6009
  481MOL0     O64836   3.618   8.399   5.659 -0.2360 -0.1399 -0.0740
  481MOL0     C64837   3.611   8.305   5.553 -0.5708  0.0822 -0.2843
  481MOL0     C64838   3.490   8.220   5.570  0.0064  0.4769  0.6053
  481MOL0     C64839   3.483   8.140   5.696  0.2187 -0.1094  0.3661
  481MOL0     C64840   3.341   8.084   5.715  0.5992 -0.6104  0.1377
  481MOL0     C64841   3.334   8.012   5.853 -0.5023 -0.6170 -0.2847
  481MOL0     C64842   3.190   8.005   5.889 -0.7146 -0.0900 -0.2117
  481MOL0     C64843   3.191   7.924   6.016  0.1975 -0.3700  0.1221
  481MOL0     C64844   3.070   7.887   6.095  0.9847 -0.8340 -0.3259
  481MOL0    Cl64845   2.954   8.020   6.099  0.0086 -0.1493  0.2979
  481MOL0     C64846   3.727   8.595   5.746 -0.1130  0.2875  0.0094
  481MOL0     C64847   3.836   8.685   5.744 -0.3685  0.8010  0.1764
  481MOL0     O64848   4.093   8.745   5.865  1.0406 -0.3931  0.1817
  481MOL0     C64849   4.320   8.923   5.804 -0.0241  0.5329 -0.2029
  481MOL0     C64850   4.415   9.027   5.782  0.3076  1.6850  0.0895
  481MOL0     N64851   4.955   9.384   5.492 -0.0832 -0.2628 -0.1586
  481MOL0     N64852   4.905   9.390   5.372 -0.4642  0.8793 -0.1908
  481MOL0     C64853   3.861   8.869   5.197  1.3694 -1.3276  0.0199
  481MOL0     C64854   3.874   8.764   5.113  0.6571 -0.2117 -0.1550
  481MOL0     C64855   3.875   8.494   4.775  0.6655  0.4487 -0.0973
  481MOL0     C64856   3.781   8.474   4.672 -0.4330 -0.0659  0.3045
  481MOL0     C64857   3.781   8.360   4.597 -0.9756  0.7995  0.8469
  481MOL0     C64858   3.879   8.260   4.616  0.1876 -0.1420 -0.9222
  481MOL0     O64859   3.884   8.140   4.547 -0.3126 -0.1756  0.1868
  481MOL0     C64860   3.779   8.075   4.466  0.8818 -0.0252 -0.9806
  481MOL0     C64861   3.722   7.958   4.552 -0.3500 -0.1973 -0.1589
  481MOL0     C64862   3.833   7.874   4.614 -0.6008  0.3867 -0.2814
  481MOL0     C64863   3.766   7.751   4.682 -0.1092  0.4520  0.0259
  481MOL0     C64864   3.852   7.659   4.753  0.1941  0.2068  0.3089
  481MOL0     C64865   3.925   7.596   4.810  0.0119  0.4724 -1.3632
  481MOL0     C64866   3.972   8.291   4.713 -1.4136  0.2178  0.0288
  481MOL0     C64867   3.968   8.399   4.798 -0.1360  0.0248 -0.1422
  481MOL0     H64868   4.171   8.838   4.965 -2.3761  0.0304 -2.5883
  481MOL0     H64869   4.164   9.009   5.110  1.4293 -0.4657 -2.2931
  481MOL0     H64870   3.906   9.207   5.123  1.9444  3.6237 -1.0772
  481MOL0     H64871   3.895   9.283   5.279 -0.4199 -1.8954  2.2902
  481MOL0     H64872   4.125   9.221   5.090  2.8733  0.1134  0.0956
  481MOL0     H64873   4.061   9.371   5.147 -1.8622 -1.3764 -0.1626
  481MOL0     H64874   4.164   9.321   5.380 -0.3389  0.0932 -0.8456
  481MOL0     H64875   4.179   9.153   5.321 -1.7730 -0.9833 -3.7614
  481MOL0     H64876   4.342   9.229   5.154 -1.0829 -2.4381  0.6419
  481MOL0     H64877   4.332   9.394   5.225 -3.3907 -0.6579 -5.4369
  481MOL0     H64878   4.421   9.279   5.454  1.7798  1.3303  0.0678
  481MOL0     H64879   4.433   9.139   5.353 -2.8958 -0.7150  0.5232
  481MOL0     H64880   4.668   9.264   5.370  1.2656 -0.4440 -0.5199
  481MOL0     H64881   4.598   9.229   5.212 -0.8098 -2.2253  1.6964
  481MOL0     H64882   4.528   9.469   5.194  5.8083 -1.2808 -4.5662
  481MOL0     H64883   4.537   9.495   5.363  1.0727  0.8727 -0.3087
  481MOL0     H64884   4.694   9.612   5.235 -1.2056 -0.0474  0.2281
  481MOL0     H64885   4.747   9.452   5.166 -0.8258  0.9507 -1.2835
  481MOL0     H64886   4.698   9.587   5.521 -0.8849 -2.3562  0.5526
  481MOL0     H64887   4.992   9.490   5.756 -1.4842 -0.1310  2.2034
  481MOL0     H64888   4.841   9.582   5.736 -0.4579  0.6767  1.3456
  481MOL0     H64889   4.837   9.397   5.901 -0.1967  1.6747 -0.7092
  481MOL0     H64890   4.851   9.268   5.774 -0.3167 -0.9618 -2.3724
  481MOL0     H64891   4.634   9.468   5.743 -0.1887 -0.0583 -1.3506
  481MOL0     H64892   4.621   9.359   5.887  4.8444 -0.7445  1.6361
  481MOL0     H64893   4.640   9.151   5.772  1.8776  0.6540  1.2571
  481MOL0     H64894   4.662   9.210   5.617 -0.5952 -0.7734 -0.7029
  481MOL0     H64895   4.210   9.218   5.575 -0.5320 -0.8000 -1.5370
  481MOL0     H64896   4.025   9.117   5.538 -0.7878  1.9998  1.1975
  481MOL0     H64897   3.941   8.990   5.640 -0.1529 -0.2224  0.7144
  481MOL0     H64898   3.966   9.136   5.712  0.2055 -0.7435  0.9374
  481MOL0     H64899   3.992   8.604   5.461  1.2428 -0.0575  0.8499
  481MOL0     H64900   3.804   8.440   5.451 -0.2974 -0.1289  0.8848
  481MOL0     H64901   3.597   8.351   5.455 -0.5679  0.3422 -0.1641
  481MOL0     H64902   3.696   8.236   5.556 -0.2732  0.3962 -1.0774
  481MOL0     H64903   3.401   8.283   5.561  0.7114  1.2358 -1.5506
  481MOL0     H64904   3.478   8.146   5.491  1.6651  0.2368  0.5398
  481MOL0     H64905   3.517   8.202   5.779 -4.3239  2.0956  0.8705
  481MOL0     H64906   3.543   8.049   5.687 -0.8484 -0.8090  0.0686
  481MOL0     H64907   3.264   8.157   5.691  1.7850 -0.0445 -2.2020
  481MOL0     H64908   3.334   8.014   5.631  2.4723  0.0288 -0.6056
  481MOL0     H64909   3.399   8.062   5.925 -1.8818 -2.3965  2.3284
  481MOL0     H64910   3.382   7.914   5.844 -0.4084 -0.8450  2.1796
  481MOL0     H64911   3.139   8.102   5.892 -1.7853 -0.6599  1.6100
  481MOL0     H64912   3.131   7.959   5.809  2.9845 -0.9606 -2.6718
  481MOL0     H64913   3.247   7.978   6.093  2.3008 -1.1503 -0.7825
  481MOL0     H64914   3.240   7.832   5.984 -0.5651  0.1340 -2.7500
  481MOL0     H64915   3.090   7.841   6.192 -2.4192  0.8234  1.3156
  481MOL0     H64916   3.031   7.803   6.037  4.5325 -2.3267 -0.8002
  481MOL0     H64917   3.652   8.610   5.823  0.7801  0.4083  0.8770
  481MOL0     H64918   3.837   8.750   5.831  2.9769 -2.2908  2.7359
  481MOL0     H64919   4.358   8.845   5.870 -0.2621  0.5756 -0.0151
  481MOL0     H64920   4.513   9.009   5.825 -0.0297 -1.3358 -0.1786
  481MOL0     H64921   3.766   8.879   5.250  0.7211  1.0672 -1.4300
  481MOL0     H64922   3.799   8.686   5.121 -1.0428  1.3185 -0.4185
  481MOL0     H64923   3.698   8.545   4.669  0.1719  0.7369  1.5243
  481MOL0     H64924   3.707   8.341   4.520  0.4333 -4.2088  0.3513
  481MOL0     H64925   3.701   8.152   4.467  0.2355 -0.6656 -0.2677
  481MOL0     H64926   3.807   8.056   4.362  0.1382  0.2325 -1.2370
  481MOL0     H64927   3.652   7.904   4.488 -1.4757  2.2321 -1.1139
  481MOL0     H64928   3.665   8.002   4.634 -0.9630  3.0383 -2.1344
  481MOL0     H64929   3.883   7.933   4.691 -1.7751 -1.1088  1.7183
  481MOL0     H64930   3.906   7.824   4.549 -1.7111 -1.4824 -0.1831
  481MOL0     H64931   3.708   7.683   4.619 -1.3759 -1.5608  3.1128
  481MOL0     H64932   3.692   7.795   4.750  0.6739 -1.3861  2.1807
  481MOL0     H64933   4.015   7.548   4.842 -1.7829 -2.6823 -0.6185
  481MOL0     H64934   4.031   8.201   4.732 -1.9315  0.0514  0.8987
  481MOL0     H64935   4.042   8.402   4.877  0.8331 -0.1011 -1.0188
  482MOL0     O64936  10.530   4.106   3.299  0.2988 -0.2538  0.4751
  482MOL0     C64937  10.563   4.221   3.325  0.5524  0.6093  0.7720
  482MOL0     O64938  10.694   4.261   3.339  0.2298  0.2290  0.1574
  482MOL0     C64939  10.793   4.162   3.333 -0.4063  0.1400  0.2597
  482MOL0     C64940  10.825   4.112   3.205  0.3699  0.3005 -0.4817
  482MOL0     C64941  10.914   4.005   3.184  0.2563 -0.0528 -0.1498
  482MOL0     C64942  10.988   3.964   3.295  0.8005  0.0654 -1.0163
  482MOL0     O64943  11.077   3.858   3.279 -0.1679 -0.2401  0.2650
  482MOL0     C64944  11.172   3.827   3.379  0.0195 -0.3502 -0.4788
  482MOL0     C64945  11.278   3.717   3.325  0.0225 -0.5651  0.4539
  482MOL0     C64946  11.390   3.799   3.253  0.1628  0.2038 -0.5754
  482MOL0     C64947  11.485   3.876   3.347 -0.0212 -0.7570  0.8552
  482MOL0     C64948  11.580   3.974   3.281  0.9057 -0.7532 -0.2190
  482MOL0     C64949  11.712   3.909   3.229  0.4279 -0.5471  0.4375
  482MOL0     C64950  11.817   3.896   3.335 -0.2419 -0.9287  0.3242
  482MOL0     C64951  11.907   4.027   3.361 -0.0111  0.2328 -0.3184
  482MOL0     N64952  12.010   4.039   3.257  0.7479  0.9865  1.0817
  482MOL0     C64953  12.038   4.152   3.181 -0.0749  0.3769  1.1370
  482MOL0     C64954  12.122   4.114   3.078 -0.2152  0.6754  0.5845
  482MOL0     C64955  12.179   4.193   2.962 -0.5670 -0.1287 -0.2664
  482MOL0     C64956  12.247   4.327   2.997 -1.1142  0.3890  0.3643
  482MOL0     C64957  12.363   4.307   3.087 -0.0546 -1.1644 -0.6003
  482MOL0     C64958  12.451   4.432   3.108 -0.3129 -0.4320  0.3473
  482MOL0     O64959  12.544   4.385   3.208 -0.5016 -0.8705  0.3386
  482MOL0     C64960  12.662   4.450   3.216 -0.2680 -0.7173  0.1149
  482MOL0     C64961  12.765   4.359   3.248 -0.5524  0.8250 -0.1645
  482MOL0     C64962  12.894   4.407   3.272 -0.1092 -0.1701  0.9070
  482MOL0     C64963  13.004   4.310   3.321 -0.6005  0.4982 -0.4151
  482MOL0     C64964  12.930   4.548   3.235  0.5392  0.6508  0.2707
  482MOL0     C64965  13.069   4.617   3.227 -0.9445 -0.4582  0.3571
  482MOL0     O64966  13.069   4.753   3.213 -0.5263  0.0857  0.7339
  482MOL0     C64967  13.179   4.809   3.156  0.6700  0.0642 -0.9114
  482MOL0     C64968  13.226   4.779   3.025  0.2256  1.1761 -0.8211
  482MOL0     C64969  13.340   4.854   2.979  0.2339 -0.2311 -0.0455
  482MOL0     C64970  13.403   4.951   3.053  0.9413  0.0509  0.0523
  482MOL0     O64971  13.512   5.011   3.012 -0.3985 -0.0939 -0.1257
  482MOL0     C64972  13.630   5.014   3.097 -0.0015  0.3968  0.2244
  482MOL0     C64973  13.658   5.163   3.116  1.0237  0.7669  0.6091
  482MOL0     C64974  13.785   5.189   3.180 -0.7693 -0.4028  0.0240
  482MOL0     C64975  13.832   5.335   3.199 -0.3316  0.6040  0.2397
  482MOL0     C64976  13.857   5.417   3.070  0.2944 -0.6542  0.1286
  482MOL0     C64977  13.945   5.540   3.098 -0.3548  0.5429  0.3817
  482MOL0     C64978  13.949   5.655   2.990  1.3113 -0.6826  0.4508
  482MOL0     C64979  13.989   5.795   3.056  0.2726 -0.1618  0.2991
  482MOL0    Cl64980  14.161   5.790   3.082 -0.8825 -0.3550  0.3084
  482MOL0     C64981  13.349   4.976   3.178  0.1497 -0.1243 -1.0378
  482MOL0     C64982  13.242   4.900   3.230 -0.3843 -0.8344  0.1096
  482MOL0     O64983  13.162   4.540   3.207 -0.7185  0.2192 -0.3280
  482MOL0     C64984  12.823   4.631   3.203 -0.2375  0.3132  0.3789
  482MOL0     C64985  12.688   4.582   3.192  0.3220  0.2934 -0.5665
  482MOL0     N64986  12.164   3.983   3.108 -0.0800 -0.3054  0.3914
  482MOL0     N64987  12.099   3.941   3.217 -0.3447  0.3587 -0.2157
  482MOL0     C64988  10.955   4.022   3.425 -0.9992  0.0417  0.3425
  482MOL0     C64989  10.869   4.131   3.445  0.0788  0.2008 -0.1693
  482MOL0     C64990  10.459   4.307   3.375  0.4381  0.6460  0.6909
  482MOL0     C64991  10.322   4.255   3.390  1.1107 -0.2285 -0.6159
  482MOL0     C64992  10.218   4.340   3.435 -0.3043  0.0460 -0.7798
  482MOL0     C64993  10.247   4.467   3.476  0.4736 -1.6588 -0.9591
  482MOL0     O64994  10.141   4.540   3.521  0.5871 -0.2330 -0.0003
  482MOL0     C64995  10.131   4.676   3.471 -0.4682 -0.7792 -1.0758
  482MOL0     C64996  10.120   4.674   3.319  0.6608  0.0991 -0.9149
  482MOL0     C64997  10.056   4.811   3.268 -0.7416  0.7890  0.3213
  482MOL0     C64998  10.046   4.811   3.117 -0.5352  0.3492  0.7255
  482MOL0     C64999  10.161   4.811   3.026  0.0737  0.0725 -0.0963
  482MOL0     C65000  10.249   4.806   2.948 -0.4048  0.8560  0.7133
  482MOL0     C65001  10.381   4.517   3.467 -0.0556 -0.3722  0.2535
  482MOL0     C65002  10.483   4.439   3.410  0.6269  0.9390  0.3229
  482MOL0     H65003  10.777   4.151   3.116  1.3907  0.1125 -1.1355
  482MOL0     H65004  10.936   3.983   3.080 -2.6122 -3.4687 -0.2048
  482MOL0     H65005  11.221   3.911   3.429  0.9415  0.2240 -2.2432
  482MOL0     H65006  11.125   3.767   3.457 -1.1515 -1.7081 -2.1639
  482MOL0     H65007  11.321   3.650   3.401 -1.0004 -4.7380 -2.3192
  482MOL0     H65008  11.223   3.651   3.258 -1.7425  1.2814 -0.0035
  482MOL0     H65009  11.458   3.741   3.190  1.1678  0.7633 -0.0293
  482MOL0     H65010  11.333   3.865   3.186  0.1184 -1.9385 -2.8041
  482MOL0     H65011  11.425   3.933   3.419 -1.3585 -2.3878  1.1060
  482MOL0     H65012  11.543   3.805   3.406  0.5522  0.6788  2.0784
  482MOL0     H65013  11.527   4.022   3.198 -0.8337  0.3778  1.4673
  482MOL0     H65014  11.597   4.055   3.353 -3.2630  1.2582 -1.1688
  482MOL0     H65015  11.694   3.807   3.195  1.8724 -0.0879 -1.9276
  482MOL0     H65016  11.748   3.962   3.140  2.7584  2.5860  3.0017
  482MOL0     H65017  11.773   3.875   3.433 -1.0492  2.1881  0.7242
  482MOL0     H65018  11.884   3.812   3.317 -0.6433 -0.8265 -1.9627
  482MOL0     H65019  11.966   3.999   3.449  1.8767  0.4719 -1.4420
  482MOL0     H65020  11.836   4.106   3.384 -0.5133 -1.2223  4.0782
  482MOL0     H65021  12.000   4.254   3.187 -0.8415  0.5026 -3.1162
  482MOL0     H65022  12.248   4.127   2.909  0.6138  2.4619 -2.2270
  482MOL0     H65023  12.100   4.219   2.892  0.2851  1.1633 -0.7976
  482MOL0     H65024  12.183   4.404   3.040  0.7570  2.8872 -1.0671
  482MOL0     H65025  12.276   4.367   2.900  0.3601 -0.5690  0.3749
  482MOL0     H65026  12.425   4.231   3.040  2.0910  0.9702 -1.4110
  482MOL0     H65027  12.322   4.274   3.183  0.0827 -3.8385 -1.3885
  482MOL0     H65028  12.400   4.517   3.152  3.1096  2.3923 -0.7060
  482MOL0     H65029  12.501   4.468   3.018  0.8485  3.1796  2.2645
  482MOL0     H65030  12.738   4.255   3.241  0.9434  0.5084 -2.0712
  482MOL0     H65031  12.996   4.304   3.430 -0.1043  0.2575 -0.3913
  482MOL0     H65032  12.989   4.209   3.282 -0.3987 -0.1774  1.1507
  482MOL0     H65033  13.105   4.341   3.293 -1.4392  3.0128 -0.8753
  482MOL0     H65034  13.187   4.702   2.959  1.1364 -0.0573  0.0270
  482MOL0     H65035  13.374   4.829   2.879 -0.1062 -0.2709 -0.1527
  482MOL0     H65036  13.619   4.955   3.188  0.5107 -0.2285 -0.1099
  482MOL0     H65037  13.721   4.979   3.046  0.4687  0.4001  1.0297
  482MOL0     H65038  13.635   5.218   3.025  1.5510  2.7787  1.6309
  482MOL0     H65039  13.586   5.193   3.192  0.7898  2.0447 -0.0885
  482MOL0     H65040  13.861   5.148   3.114  0.1969  1.8704 -0.3821
  482MOL0     H65041  13.790   5.131   3.272  0.9889 -1.9822 -0.9869
  482MOL0     H65042  13.755   5.388   3.255 -0.4263  0.8848 -0.1530
  482MOL0     H65043  13.925   5.324   3.256 -0.0496 -4.4450 -0.7549
  482MOL0     H65044  13.763   5.460   3.032  0.9789 -0.5925 -1.5707
  482MOL0     H65045  13.907   5.364   2.988 -0.2592 -0.5699 -0.2754
  482MOL0     H65046  13.908   5.595   3.185  0.5626  1.0356  0.4784
  482MOL0     H65047  14.047   5.512   3.127 -0.5442 -1.2610 -0.5479
  482MOL0     H65048  13.854   5.666   2.937  1.7698  5.0157  0.1350
  482MOL0     H65049  14.020   5.641   2.909 -0.8845  1.1549 -1.9616
  482MOL0     H65050  13.934   5.810   3.149  2.6451 -0.4459  1.8340
  482MOL0     H65051  13.971   5.880   2.990 -0.8993  1.0273  2.0620
  482MOL0     H65052  13.369   5.065   3.237 -4.3531 -0.3562  1.3220
  482MOL0     H65053  13.208   4.928   3.329 -1.4573  2.4728 -1.0469
  482MOL0     H65054  12.837   4.738   3.191  0.6778  0.2644  0.8997
  482MOL0     H65055  12.601   4.645   3.175  0.2512  0.7754  1.3576
  482MOL0     H65056  11.012   3.973   3.503  3.4895 -2.4741 -3.9510
  482MOL0     H65057  10.831   4.174   3.537 -1.6822  1.5366 -1.4457
  482MOL0     H65058  10.300   4.153   3.361 -2.0104  0.3179 -0.4486
  482MOL0     H65059  10.120   4.295   3.447  0.8852 -1.9214  3.6569
  482MOL0     H65060  10.048   4.735   3.512  2.9114  1.7549  2.9208
  482MOL0     H65061  10.211   4.741   3.508  1.1492 -0.2173 -5.0312
  482MOL0     H65062  10.051   4.592   3.296  1.8401 -1.1896 -0.0512
  482MOL0     H65063  10.218   4.672   3.271  1.3364  1.9494  0.2842
  482MOL0     H65064  10.106   4.903   3.299 -0.0438  0.6735 -0.4461
  482MOL0     H65065   9.955   4.814   3.312 -1.7944  1.1890 -1.9686
  482MOL0     H65066   9.995   4.900   3.077 -2.4595 -2.1138 -2.9237
  482MOL0     H65067   9.983   4.724   3.098 -1.9981  1.2210  1.4080
  482MOL0     H65068  10.338   4.801   2.888  1.0498 -2.6565  2.8275
  482MOL0     H65069  10.406   4.619   3.495  0.3152  0.2459 -2.1402
  482MOL0     H65070  10.584   4.474   3.392  0.0540  2.0887 -0.8681
  483MOL0     O65071   2.061   3.012  10.422 -0.8054 -0.6378  0.4177
  483MOL0     C65072   2.139   3.030  10.516 -0.0857 -0.0682 -0.0257
  483MOL0     O65073   2.113   3.109  10.638  0.2424  0.5548  0.4316
  483MOL0     C65074   2.006   3.197  10.612  0.6548  0.3773  0.0665
  483MOL0     C65075   1.897   3.190  10.695 -0.2333 -0.1774 -1.4284
  483MOL0     C65076   1.780   3.273  10.683 -0.7281 -0.0255  0.4438
  483MOL0     C65077   1.777   3.356  10.570 -0.2427  0.3151  0.2449
  483MOL0     O65078   1.671   3.438  10.541  0.1565 -0.0174 -0.3426
  483MOL0     C65079   1.559   3.456  10.630  0.3967 -0.0128  0.8173
  483MOL0     C65080   1.452   3.346  10.602  1.0050 -0.1666  0.9024
  483MOL0     C65081   1.394   3.350  10.461  0.4035 -0.0341  0.5612
  483MOL0     C65082   1.304   3.229  10.418 -0.0989  0.2475 -0.5964
  483MOL0     C65083   1.231   3.267  10.292 -0.0000  0.8047 -0.9774
  483MOL0     C65084   1.317   3.251  10.162  0.2420  0.3619 -0.2369
  483MOL0     C65085   1.229   3.296  10.039 -0.6432 -0.2491 -0.3974
  483MOL0     C65086   1.247   3.429   9.988  0.7890 -0.8903  0.5384
  483MOL0     N65087   1.145   3.443   9.881  0.3103  0.0390 -0.1661
  483MOL0     C65088   1.050   3.538   9.873 -0.2805  0.4835  0.3254
  483MOL0     C65089   0.993   3.510   9.748 -0.3487 -0.1791  0.2671
  483MOL0     C65090   0.888   3.591   9.685 -0.1653  0.3395  0.1347
  483MOL0     C65091   0.759   3.553   9.743 -0.1585  0.5009 -0.1250
  483MOL0     C65092   0.640   3.603   9.661  0.5374 -0.4687 -0.6614
  483MOL0     C65093   0.505   3.614   9.738  0.0995  0.4488 -0.3676
  483MOL0     O65094   0.418   3.689   9.653  0.3541 -0.6533  0.1008
  483MOL0     C65095   0.306   3.748   9.712 -0.5793 -0.4366 -0.4102
  483MOL0     C65096   0.263   3.733   9.844 -0.1984 -0.8153  0.5438
  483MOL0     C65097   0.146   3.792   9.885 -0.7485  0.5208  0.3730
  483MOL0     C65098   0.108   3.772  10.025  0.4813 -0.5898  0.3835
  483MOL0     C65099   0.050   3.842   9.794 -0.4829 -0.3469  0.2436
  483MOL0     C65100  -0.085   3.891   9.828 -0.4528 -0.0250  0.7061
  483MOL0     O65101  -0.082   4.020   9.873  0.4457 -0.2599  0.3020
  483MOL0     C65102  -0.177   4.069   9.959  0.4064  0.0636  0.7610
  483MOL0     C65103  -0.315   4.047   9.941  1.1050 -0.8075 -0.2501
  483MOL0     C65104  -0.403   4.111  10.022 -0.1893 -0.0018  1.1420
  483MOL0     C65105  -0.361   4.196  10.119 -0.4974  0.7309  0.8432
  483MOL0     O65106  -0.448   4.273  10.197  0.1529 -0.4115  0.9723
  483MOL0     C65107  -0.593   4.262  10.192  0.2296  0.9904 -0.5207
  483MOL0     C65108  -0.659   4.359  10.294 -0.3238 -0.2836 -0.6330
  483MOL0     C65109  -0.736   4.464  10.214  0.3639  0.4393 -0.3029
  483MOL0     C65110  -0.819   4.549  10.312 -0.6590  0.5422 -0.2658
  483MOL0     C65111  -0.844   4.684  10.241 -0.1619 -0.0534  0.7356
  483MOL0     C65112  -0.971   4.764  10.290  0.3292 -0.9364 -0.0398
  483MOL0     C65113  -0.935   4.898  10.363 -0.2289  0.7535  0.3208
  483MOL0     C65114  -1.052   4.994  10.365  0.6854 -1.5728 -0.2111
  483MOL0    Cl65115  -1.191   4.908  10.436  0.0157 -0.5035  0.2456
  483MOL0     C65116  -0.231   4.201  10.154 -0.5508  0.5430 -0.5113
  483MOL0     C65117  -0.141   4.138  10.066 -1.0138  0.5991  0.5347
  483MOL0     O65118  -0.165   3.799   9.845  1.3764 -0.2282  0.6679
  483MOL0     C65119   0.089   3.848   9.661  0.2256  0.2120  0.2628
  483MOL0     C65120   0.216   3.804   9.622  0.5144  0.6050  1.0217
  483MOL0     N65121   1.054   3.395   9.692 -0.5175  0.2927 -0.4190
  483MOL0     N65122   1.146   3.355   9.777  0.3635  0.2441  0.2266
  483MOL0     C65123   1.883   3.354  10.478 -0.5280 -0.4568 -0.3791
  483MOL0     C65124   1.999   3.294  10.506 -0.3891  0.5677 -0.9803
  483MOL0     C65125   2.261   2.937  10.531 -0.1019  0.2412 -0.0454
  483MOL0     C65126   2.348   2.944  10.638 -0.3585  0.0102  0.4639
  483MOL0     C65127   2.450   2.853  10.660 -0.3663  0.5245  0.4145
  483MOL0     C65128   2.467   2.750  10.568  0.7597 -0.3602  1.2226
  483MOL0     O65129   2.542   2.639  10.577 -0.2562  0.1802 -0.0059
  483MOL0     C65130   2.678   2.669  10.545 -1.4471 -0.0389 -0.3802
  483MOL0     C65131   2.688   2.721  10.393 -0.1246  0.0966 -1.1952
  483MOL0     C65132   2.660   2.614  10.281 -0.9366  0.7595  0.1392
  483MOL0     C65133   2.625   2.677  10.141  0.0335 -0.2597 -0.0879
  483MOL0     C65134   2.486   2.714  10.127 -0.0883 -0.2741 -0.0954
  483MOL0     C65135   2.376   2.761  10.109  1.0347 -0.4803  0.4990
  483MOL0     C65136   2.376   2.738  10.453  0.4295 -0.1916  0.1012
  483MOL0     C65137   2.276   2.830  10.437  0.5058 -0.9297 -0.7068
  483MOL0     H65138   1.902   3.115  10.773  0.0227  2.1007  0.8854
  483MOL0     H65139   1.698   3.268  10.755 -2.6620  0.9432 -1.5504
  483MOL0     H65140   1.591   3.460  10.735  2.5153  0.2537  0.1964
  483MOL0     H65141   1.511   3.551  10.600  0.8554 -1.0086 -3.7621
  483MOL0     H65142   1.501   3.251  10.627 -1.3545 -1.9571 -0.7671
  483MOL0     H65143   1.377   3.349  10.682  3.0339 -3.2223  3.1467
  483MOL0     H65144   1.337   3.443  10.453 -1.7430 -1.3267 -0.3191
  483MOL0     H65145   1.472   3.347  10.384  0.3555 -1.9572  0.5302
  483MOL0     H65146   1.360   3.138  10.395  0.3560 -0.3286  2.3586
  483MOL0     H65147   1.226   3.204  10.490  0.2435  3.4479  1.0552
  483MOL0     H65148   1.151   3.192  10.285  3.2611 -3.5497  2.4010
  483MOL0     H65149   1.187   3.367  10.297 -1.1268  0.2649  1.7953
  483MOL0     H65150   1.415   3.298  10.148 -0.0202  0.8690 -0.4039
  483MOL0     H65151   1.327   3.143  10.147 -0.5408  0.0407  1.3286
  483MOL0     H65152   1.249   3.231   9.953 -0.1947  1.4753 -1.6400
  483MOL0     H65153   1.127   3.279  10.075  0.7982 -1.6705  3.5224
  483MOL0     H65154   1.349   3.452   9.955  0.3159 -0.1834 -0.4858
  483MOL0     H65155   1.223   3.498  10.070 -0.9485 -1.7685  0.8238
  483MOL0     H65156   1.027   3.614   9.947 -1.7901 -1.7326  2.3082
  483MOL0     H65157   0.907   3.696   9.710  1.5582 -0.1861  1.1321
  483MOL0     H65158   0.893   3.571   9.577  0.9709  0.2066  0.1996
  483MOL0     H65159   0.747   3.598   9.843 -3.3242  0.4448 -0.3928
  483MOL0     H65160   0.769   3.445   9.752 -0.1974  0.4093 -1.1122
  483MOL0     H65161   0.615   3.534   9.579 -0.9641  0.4393 -1.0105
  483MOL0     H65162   0.658   3.706   9.626 -3.3563 -0.0815 -1.9615
  483MOL0     H65163   0.521   3.661   9.836  0.1173  1.3465 -0.7834
  483MOL0     H65164   0.457   3.519   9.765 -3.2089  2.2452  0.7303
  483MOL0     H65165   0.325   3.683   9.918  0.9806  2.3678  1.9255
  483MOL0     H65166   0.027   3.699  10.033 -0.2349  0.1411  0.0440
  483MOL0     H65167   0.182   3.728  10.092  0.5589  0.8593  1.3094
  483MOL0     H65168   0.075   3.867  10.068 -0.8292 -1.0926  0.5343
  483MOL0     H65169  -0.356   3.961   9.890  0.3990  0.0686 -1.2086
  483MOL0     H65170  -0.507   4.097   9.996  0.2034  0.2045 -0.7331
  483MOL0     H65171  -0.641   4.279  10.095  0.4635 -3.7607 -1.7019
  483MOL0     H65172  -0.617   4.161  10.225 -3.4919  1.5841 -0.8972
  483MOL0     H65173  -0.730   4.311  10.362 -1.5959  1.2593 -0.8048
  483MOL0     H65174  -0.582   4.406  10.356 -0.4186 -2.0697  0.9570
  483MOL0     H65175  -0.805   4.432  10.135  0.6293 -0.9321  0.0069
  483MOL0     H65176  -0.670   4.528  10.156 -0.0067  2.8928  1.7992
  483MOL0     H65177  -0.906   4.494  10.347 -0.7686  0.5698 -0.4939
  483MOL0     H65178  -0.764   4.574  10.404 -1.4701  0.1635  0.3397
  483MOL0     H65179  -0.857   4.677  10.132  3.0780 -2.1425  0.3431
  483MOL0     H65180  -0.755   4.746  10.253 -0.6498  0.4209  2.0815
  483MOL0     H65181  -1.036   4.778  10.203 -0.3234 -1.3685  0.3676
  483MOL0     H65182  -1.030   4.700  10.356 -1.1954  0.6078  0.1510
  483MOL0     H65183  -0.841   4.941  10.326  0.9877 -1.4577  0.6581
  483MOL0     H65184  -0.921   4.875  10.470  0.0865 -1.2192 -0.0974
  483MOL0     H65185  -1.062   5.020  10.259  1.1763 -0.3022  0.0468
  483MOL0     H65186  -1.032   5.084  10.422  0.2605 -1.5187 -0.1442
  483MOL0     H65187  -0.192   4.244  10.246  1.6408  0.9018 -1.5356
  483MOL0     H65188  -0.036   4.123  10.089 -1.3986 -1.3021  1.2320
  483MOL0     H65189   0.029   3.895   9.585 -3.1026 -0.9312  2.0061
  483MOL0     H65190   0.223   3.796   9.514 -0.7890 -0.7063  1.0146
  483MOL0     H65191   1.872   3.410  10.385 -4.9506 -3.6295 -2.1570
  483MOL0     H65192   2.101   3.304  10.468  0.5185 -3.3331 -0.0538
  483MOL0     H65193   2.345   3.024  10.711 -0.3636  1.1679 -0.7760
  483MOL0     H65194   2.508   2.861  10.752  1.0857 -2.9358 -0.0687
  483MOL0     H65195   2.723   2.746  10.609  0.6534  1.4333 -3.3871
  483MOL0     H65196   2.735   2.578  10.562 -1.2038  0.4386  1.7265
  483MOL0     H65197   2.792   2.755  10.384 -0.1663  2.4129  3.8189
  483MOL0     H65198   2.628   2.810  10.375  0.5505  0.7145 -0.4736
  483MOL0     H65199   2.578   2.547  10.306 -0.0169 -0.9309 -1.1582
  483MOL0     H65200   2.759   2.569  10.270 -0.8329  0.7178  1.1407
  483MOL0     H65201   2.660   2.601  10.071  3.9542  0.2889  1.0320
  483MOL0     H65202   2.687   2.767  10.130 -1.4809  0.7996 -0.3509
  483MOL0     H65203   2.283   2.810  10.131  1.7385  0.2260  1.9987
  483MOL0     H65204   2.389   2.662  10.376  0.5695 -0.4911  0.4213
  483MOL0     H65205   2.196   2.826  10.364 -2.1151  2.3197  1.6950
  484MOL0     O65206   0.083   4.077   0.668 -0.4363 -0.4174 -0.5180
  484MOL0     C65207  -0.028   4.079   0.617  0.1105  0.0267 -0.2892
  484MOL0     O65208  -0.128   3.988   0.656 -0.4976 -0.7726 -0.3677
  484MOL0     C65209  -0.086   3.881   0.733 -0.3611 -0.6204 -0.3808
  484MOL0     C65210  -0.011   3.781   0.671 -0.3674 -0.8041  0.5314
  484MOL0     C65211   0.026   3.663   0.740  0.7480 -0.4009  0.2996
  484MOL0     C65212  -0.013   3.643   0.866  0.4618 -0.0521 -1.0116
  484MOL0     O65213   0.031   3.536   0.953 -0.3112 -0.1613  0.2952
  484MOL0     C65214   0.094   3.416   0.893  0.3583  0.0169 -0.4623
  484MOL0     C65215  -0.004   3.300   0.876  0.1589 -0.0822 -0.2272
  484MOL0     C65216  -0.013   3.232   1.015 -0.4367 -0.1397  0.3128
  484MOL0     C65217  -0.097   3.112   1.017 -0.6131 -1.6198 -0.1383
  484MOL0     C65218  -0.101   3.033   1.142  0.6244  0.3892 -0.0940
  484MOL0     C65219   0.033   3.015   1.216  0.7677  0.1456  0.5700
  484MOL0     C65220   0.121   2.916   1.121  0.6378  0.4321 -1.2443
  484MOL0     C65221   0.270   2.919   1.159 -0.1243 -0.3267  0.1041
  484MOL0     N65222   0.328   3.050   1.184  0.0397  0.2934 -0.7501
  484MOL0     C65223   0.390   3.129   1.087  0.6082  0.5726 -0.1532
  484MOL0     C65224   0.424   3.248   1.152  0.1939 -0.7091 -0.3681
  484MOL0     C65225   0.487   3.380   1.107  0.1025 -0.2708 -0.5901
  484MOL0     C65226   0.572   3.375   0.976 -0.1676  0.4920  0.4083
  484MOL0     C65227   0.660   3.494   0.955 -0.2438  0.3758 -1.5046
  484MOL0     C65228   0.700   3.543   0.821 -0.2577 -1.4406  0.0241
  484MOL0     O65229   0.772   3.447   0.762 -0.1324 -0.2438  0.0992
  484MOL0     C65230   0.751   3.426   0.627 -0.5339  0.0824 -0.6837
  484MOL0     C65231   0.734   3.292   0.590  0.4233 -0.1535  0.6961
  484MOL0     C65232   0.689   3.261   0.456 -0.2814  0.6586 -0.7308
  484MOL0     C65233   0.655   3.123   0.419  0.6572 -0.2139 -0.1553
  484MOL0     C65234   0.673   3.362   0.362 -0.8144 -0.5390  1.0510
  484MOL0     C65235   0.611   3.350   0.220  0.0107  0.0611  0.5433
  484MOL0     O65236   0.535   3.456   0.165  0.5661  1.1294  0.1881
  484MOL0     C65237   0.507   3.442   0.034 -0.1275 -0.4970  0.6662
  484MOL0     C65238   0.587   3.502  -0.062 -0.1222 -0.2129  1.1719
  484MOL0     C65239   0.552   3.491  -0.200 -0.1382 -0.0784 -0.2164
  484MOL0     C65240   0.442   3.417  -0.236  0.0995  0.8958 -0.9782
  484MOL0     O65241   0.425   3.401  -0.366  0.8581 -0.3358 -0.3975
  484MOL0     C65242   0.309   3.318  -0.406  0.2979 -0.3986  0.3612
  484MOL0     C65243   0.283   3.306  -0.564 -0.1331 -0.3423 -0.1923
  484MOL0     C65244   0.238   3.449  -0.601 -0.6835  0.2389  0.7736
  484MOL0     C65245   0.169   3.456  -0.751  0.3134  0.3147 -0.6295
  484MOL0     C65246   0.108   3.601  -0.766 -0.6547  0.3011 -0.6919
  484MOL0     C65247   0.053   3.627  -0.906 -0.2106  0.0709  0.4096
  484MOL0     C65248   0.028   3.773  -0.919  0.6008  0.0079 -0.1763
  484MOL0     C65249  -0.039   3.794  -1.055  0.8715 -1.0166 -0.0586
  484MOL0    Cl65250   0.077   3.776  -1.199  0.2338  0.1212  0.0637
  484MOL0     C65251   0.369   3.348  -0.131  0.3592  0.2872  0.4133
  484MOL0     C65252   0.393   3.363   0.008 -0.2120 -0.5161 -0.9873
  484MOL0     O65253   0.633   3.244   0.162 -0.4081  0.1605 -0.0411
  484MOL0     C65254   0.707   3.499   0.401 -1.1480 -0.6067 -0.4886
  484MOL0     C65255   0.738   3.526   0.536  0.9076  0.1176 -0.6788
  484MOL0     N65256   0.370   3.247   1.279 -0.4901  0.7297 -0.5999
  484MOL0     N65257   0.321   3.116   1.305 -0.0521 -1.1316 -0.0004
  484MOL0     C65258  -0.100   3.739   0.927  0.2304  0.4032 -0.4576
  484MOL0     C65259  -0.136   3.855   0.856  0.5894 -0.4252  0.3780
  484MOL0     C65260  -0.047   4.171   0.501 -0.0629  0.0709  0.2740
  484MOL0     C65261   0.045   4.264   0.458  0.0545  0.5135 -0.0633
  484MOL0     C65262   0.032   4.340   0.338  0.1713 -0.0776 -0.5963
  484MOL0     C65263  -0.082   4.326   0.261  0.2479  1.2342 -0.6013
  484MOL0     O65264  -0.106   4.420   0.158  0.3716 -0.0560 -0.3539
  484MOL0     C65265  -0.226   4.402   0.082 -1.6084  0.1079  1.2156
  484MOL0     C65266  -0.234   4.501  -0.030  1.0563 -0.4154 -0.4852
  484MOL0     C65267  -0.230   4.431  -0.170  0.3581 -0.7342 -0.5258
  484MOL0     C65268  -0.239   4.536  -0.281  0.0996  0.1442  0.1122
  484MOL0     C65269  -0.264   4.464  -0.404 -0.6594 -0.0646 -0.2346
  484MOL0     C65270  -0.282   4.411  -0.507 -0.0226 -0.3289  0.8267
  484MOL0     C65271  -0.174   4.218   0.298  1.5888  0.1457  0.2662
  484MOL0     C65272  -0.164   4.159   0.425 -1.4189  0.3913  0.7257
  484MOL0     H65273   0.016   3.815   0.572 -1.2911  1.9090  1.1139
  484MOL0     H65274   0.077   3.589   0.678  0.2873  1.2190 -2.1364
  484MOL0     H65275   0.145   3.446   0.801  1.2689 -1.9299 -0.6380
  484MOL0     H65276   0.177   3.376   0.952 -2.3422 -5.0092  0.4901
  484MOL0     H65277  -0.103   3.338   0.850 -0.0763 -1.4287 -1.4336
  484MOL0     H65278   0.023   3.227   0.799 -0.2669  0.7889 -1.2230
  484MOL0     H65279   0.091   3.206   1.037 -0.2422  1.4956  1.5454
  484MOL0     H65280  -0.056   3.307   1.083 -0.3575  2.6976 -2.5084
  484MOL0     H65281  -0.199   3.138   0.986 -1.0760 -2.9874  0.1408
  484MOL0     H65282  -0.067   3.048   0.933  0.5988  0.0774 -1.0462
  484MOL0     H65283  -0.167   3.087   1.211  0.6300  1.2919 -0.7639
  484MOL0     H65284  -0.145   2.935   1.123 -0.6478  1.3098 -2.3687
  484MOL0     H65285   0.073   3.113   1.244  1.2749  0.1494 -0.1488
  484MOL0     H65286   0.022   2.956   1.307 -3.3868  0.3152  0.3523
  484MOL0     H65287   0.088   2.813   1.137 -0.1692  0.7912 -0.5326
  484MOL0     H65288   0.109   2.938   1.014 -0.7730  0.4294 -1.1072
  484MOL0     H65289   0.327   2.885   1.072 -1.5198 -1.1485 -0.5099
  484MOL0     H65290   0.288   2.843   1.235 -0.6926 -2.4260 -1.7508
  484MOL0     H65291   0.401   3.120   0.979  2.3716  2.7756 -0.2291
  484MOL0     H65292   0.403   3.447   1.089 -0.1788  0.7061  3.4489
  484MOL0     H65293   0.534   3.418   1.199 -1.1701  1.8119 -0.7331
  484MOL0     H65294   0.502   3.353   0.896 -0.9095 -2.0389  1.6615
  484MOL0     H65295   0.636   3.287   0.987 -2.1401 -0.9823  0.5995
  484MOL0     H65296   0.754   3.465   1.003 -1.0414 -0.7111 -0.5456
  484MOL0     H65297   0.615   3.577   1.010  0.3693  0.7578 -1.5701
  484MOL0     H65298   0.754   3.638   0.819 -3.4676  0.5417 -1.8196
  484MOL0     H65299   0.611   3.566   0.760 -0.5338  0.8255  1.1634
  484MOL0     H65300   0.744   3.203   0.652  2.2365 -0.0546  0.6085
  484MOL0     H65301   0.547   3.116   0.401  0.5347 -2.9485  1.0835
  484MOL0     H65302   0.727   3.099   0.340 -0.2490  0.6675 -1.2857
  484MOL0     H65303   0.661   3.053   0.503 -2.7021  0.6466  0.9642
  484MOL0     H65304   0.681   3.556  -0.053 -0.0754  0.8178 -3.3120
  484MOL0     H65305   0.603   3.548  -0.277  0.0330  2.2963  1.5362
  484MOL0     H65306   0.332   3.217  -0.369  0.6012 -0.4827 -0.0577
  484MOL0     H65307   0.216   3.358  -0.364 -0.4829 -2.4143  0.6486
  484MOL0     H65308   0.375   3.270  -0.612  0.1613 -2.3560  1.7370
  484MOL0     H65309   0.194   3.245  -0.584 -1.6245  1.5374  0.4374
  484MOL0     H65310   0.329   3.509  -0.591  0.7813 -1.5130 -1.1740
  484MOL0     H65311   0.156   3.467  -0.531 -2.5659 -3.0402 -0.3778
  484MOL0     H65312   0.247   3.423  -0.820 -0.1055 -3.2966  0.3943
  484MOL0     H65313   0.085   3.387  -0.759 -1.0367  0.9801  4.1904
  484MOL0     H65314   0.191   3.670  -0.745 -0.1567 -0.9538  2.0048
  484MOL0     H65315   0.025   3.629  -0.701 -0.9225  1.6507 -1.5620
  484MOL0     H65316   0.129   3.607  -0.982  1.8749  0.7281  2.2161
  484MOL0     H65317  -0.027   3.557  -0.928  1.9542 -1.9727 -1.4886
  484MOL0     H65318   0.121   3.831  -0.917  1.6507 -1.5408 -1.1535
  484MOL0     H65319  -0.044   3.803  -0.843  2.1546 -0.4421  1.5515
  484MOL0     H65320  -0.073   3.898  -1.058  2.3738 -0.4981  0.0743
  484MOL0     H65321  -0.129   3.735  -1.074  0.0470  0.3347 -0.5285
  484MOL0     H65322   0.283   3.285  -0.151  2.1010 -1.6125 -1.6724
  484MOL0     H65323   0.328   3.323   0.085 -2.1665 -0.3974 -2.4995
  484MOL0     H65324   0.700   3.586   0.336 -3.1963  1.6774  2.5310
  484MOL0     H65325   0.743   3.631   0.563 -0.0604  0.4248 -1.6031
  484MOL0     H65326  -0.133   3.728   1.029  1.6209 -2.2115 -0.1894
  484MOL0     H65327  -0.194   3.931   0.907  1.5984 -0.5406  1.7651
  484MOL0     H65328   0.139   4.287   0.508  0.2787 -0.4910  0.0059
  484MOL0     H65329   0.096   4.419   0.301 -2.5505  1.2423 -2.7763
  484MOL0     H65330  -0.210   4.301   0.042  0.3455 -0.8719  4.1783
  484MOL0     H65331  -0.322   4.397   0.134 -2.6937 -2.1228 -0.7727
  484MOL0     H65332  -0.142   4.560  -0.021  1.0153 -0.5193  0.9082
  484MOL0     H65333  -0.318   4.564  -0.000  1.9357 -0.6215  2.9394
  484MOL0     H65334  -0.327   4.380  -0.177 -1.4894  2.5740 -1.0828
  484MOL0     H65335  -0.144   4.363  -0.167  2.5335  1.9137  2.2112
  484MOL0     H65336  -0.155   4.604  -0.288  0.8468 -0.4209  2.4827
  484MOL0     H65337  -0.326   4.601  -0.268 -1.5364 -1.2237 -2.9487
  484MOL0     H65338  -0.306   4.369  -0.603  0.5432 -1.4730  1.1665
  484MOL0     H65339  -0.264   4.189   0.244  1.1524  1.1461  0.4338
  484MOL0     H65340  -0.238   4.082   0.445 -0.3139 -1.2512 -1.0751
  485MOL0     O65341  10.552  10.843   1.038 -0.2385  0.0736  0.0379
  485MOL0     C65342  10.525  10.794   0.927  0.0462  0.0011 -0.3901
  485MOL0     O65343  10.532  10.857   0.810  0.1024 -0.4034  0.1028
  485MOL0     C65344  10.580  10.989   0.794 -0.4561  0.2276 -0.5578
  485MOL0     C65345  10.533  11.092   0.883 -0.0495  0.3421 -0.1325
  485MOL0     C65346  10.594  11.213   0.882 -0.6391 -0.8569  0.1284
  485MOL0     C65347  10.705  11.238   0.796 -0.0116  0.6116 -0.7086
  485MOL0     O65348  10.756  11.366   0.784  0.0347 -1.1227 -0.2206
  485MOL0     C65349  10.891  11.373   0.814 -1.3130 -0.8899  0.1939
  485MOL0     C65350  10.926  11.526   0.819 -0.6748 -0.1487  0.1455
  485MOL0     C65351  11.076  11.554   0.852 -0.3384  0.1431  0.8606
  485MOL0     C65352  11.185  11.511   0.751 -0.4866 -1.0755  0.7967
  485MOL0     C65353  11.308  11.587   0.794 -0.2470  1.0008  0.8463
  485MOL0     C65354  11.414  11.535   0.689  0.9851 -1.5530 -0.2939
  485MOL0     C65355  11.555  11.614   0.713 -0.1750 -0.6045 -0.5088
  485MOL0     C65356  11.542  11.758   0.660  0.3686  0.1259  0.1030
  485MOL0     N65357  11.670  11.833   0.691 -0.9873 -0.0619 -0.3401
  485MOL0     C65358  11.782  11.828   0.616  0.7193 -0.7149 -0.4901
  485MOL0     C65359  11.869  11.913   0.663 -0.8622  0.2676  0.3433
  485MOL0     C65360  12.006  11.954   0.598 -0.1609  0.2223  0.5925
  485MOL0     C65361  12.109  12.008   0.694 -0.6444 -0.0433 -0.2634
  485MOL0     C65362  12.243  11.994   0.631 -1.0819 -0.3029 -0.5976
  485MOL0     C65363  12.284  11.851   0.630  0.4574 -1.0231 -0.3969
  485MOL0     O65364  12.428  11.857   0.630  0.5034  0.2243  0.1693
  485MOL0     C65365  12.482  11.740   0.585  0.7731 -0.1990  0.7801
  485MOL0     C65366  12.617  11.746   0.538 -0.0528  0.2545  0.3535
  485MOL0     C65367  12.693  11.636   0.500  1.0130 -0.4449 -0.1854
  485MOL0     C65368  12.833  11.659   0.447  0.4831 -0.5232 -0.3653
  485MOL0     C65369  12.630  11.509   0.522 -0.8095 -0.4344  1.2626
  485MOL0     C65370  12.705  11.389   0.482 -0.3196  0.1752 -1.1159
  485MOL0     O65371  12.833  11.386   0.527 -0.0020  0.4448  0.4065
  485MOL0     C65372  12.908  11.277   0.502 -0.3424 -0.5774  0.2764
  485MOL0     C65373  12.861  11.148   0.554 -0.0797  0.1186 -0.1812
  485MOL0     C65374  12.936  11.032   0.520  0.3141  0.8450  0.1008
  485MOL0     C65375  13.055  11.051   0.447  0.4426  1.0840  0.8930
  485MOL0     O65376  13.121  10.935   0.422  0.1810  0.2231 -0.1279
  485MOL0     C65377  13.249  10.935   0.482  0.2521  0.6565 -0.1200
  485MOL0     C65378  13.360  10.931   0.380  0.3672  0.1529 -0.0307
  485MOL0     C65379  13.511  10.965   0.429  0.6381 -0.2091 -0.0198
  485MOL0     C65380  13.601  10.912   0.313 -0.2833 -0.1270 -0.0461
  485MOL0     C65381  13.743  10.964   0.308 -1.2919 -0.4010  0.6545
  485MOL0     C65382  13.813  10.874   0.198  0.6428  1.4505  0.3998
  485MOL0     C65383  13.958  10.929   0.153  0.5738 -0.0458 -1.5229
  485MOL0     C65384  14.039  10.949   0.278  0.0447 -0.5279  0.9327
  485MOL0    Cl65385  14.072  10.796   0.359  0.1159 -0.3595 -0.3886
  485MOL0     C65386  13.093  11.173   0.389  0.2690 -0.1650 -0.0312
  485MOL0     C65387  13.018  11.285   0.417  0.6100 -0.4988 -0.0457
  485MOL0     O65388  12.648  11.298   0.430 -0.4331  0.2869 -0.3411
  485MOL0     C65389  12.498  11.502   0.564 -0.3329  0.8288  0.3667
  485MOL0     C65390  12.429  11.613   0.603  0.2919 -0.1369 -0.0476
  485MOL0     N65391  11.805  11.962   0.780 -0.0747  0.3853  0.7871
  485MOL0     N65392  11.687  11.923   0.794 -0.0813 -0.1832  0.8339
  485MOL0     C65393  10.735  11.143   0.698 -0.1161  0.0166  0.1627
  485MOL0     C65394  10.666  11.021   0.690  0.0287 -0.0789  0.6250
  485MOL0     C65395  10.458  10.658   0.930  0.3887  0.8969 -0.6216
  485MOL0     C65396  10.417  10.594   1.049  0.5565  0.8962 -0.1366
  485MOL0     C65397  10.351  10.460   1.051 -0.1707 -0.1466  0.0565
  485MOL0     C65398  10.312  10.411   0.930  0.4777  1.0117  0.6305
  485MOL0     O65399  10.239  10.291   0.924  0.4781 -0.4565 -0.2574
  485MOL0     C65400  10.105  10.289   0.958 -0.7976  0.1143 -0.5386
  485MOL0     C65401  10.055  10.146   0.959 -0.2603  0.3694  0.5069
  485MOL0     C65402  10.057  10.081   0.812  0.5915 -0.3726  0.4372
  485MOL0     C65403  10.032   9.931   0.801 -0.1525  0.0171  0.9803
  485MOL0     C65404   9.968   9.896   0.676 -0.0280 -0.2796  0.2379
  485MOL0     C65405   9.915   9.852   0.580  0.7904  0.4306  0.2946
  485MOL0     C65406  10.348  10.477   0.810  0.2166  0.1095 -0.1271
  485MOL0     C65407  10.429  10.589   0.808  0.9121 -0.0206  0.2173
  485MOL0     H65408  10.441  11.074   0.939  0.2182  0.6064  0.3940
  485MOL0     H65409  10.547  11.299   0.929  1.9862  0.2089  0.9751
  485MOL0     H65410  10.914  11.328   0.911 -0.1753 -3.7342 -1.2729
  485MOL0     H65411  10.956  11.330   0.737  1.3065  1.5654  0.8505
  485MOL0     H65412  10.902  11.571   0.722  4.8820  2.5126 -0.3857
  485MOL0     H65413  10.872  11.588   0.892  2.2158 -0.6270  2.9687
  485MOL0     H65414  11.085  11.663   0.856  0.5893  0.1578 -0.7490
  485MOL0     H65415  11.104  11.516   0.950  1.0679 -0.8374  0.1109
  485MOL0     H65416  11.208  11.405   0.745  0.1355 -0.9611  1.0568
  485MOL0     H65417  11.156  11.542   0.650 -3.7209  1.1869  2.2241
  485MOL0     H65418  11.292  11.692   0.771 -0.7581  0.9114  0.7944
  485MOL0     H65419  11.316  11.557   0.899 -5.1305  3.5800  2.2492
  485MOL0     H65420  11.433  11.427   0.695  3.1662 -1.2777 -1.1317
  485MOL0     H65421  11.378  11.571   0.593  2.2001  2.6909  0.6142
  485MOL0     H65422  11.578  11.617   0.819  0.4149 -2.5528 -0.5517
  485MOL0     H65423  11.634  11.559   0.662  0.2422  0.2712 -0.8413
  485MOL0     H65424  11.454  11.807   0.702  0.3111  1.7021 -1.7239
  485MOL0     H65425  11.526  11.754   0.552 -2.1344 -0.5663  0.4337
  485MOL0     H65426  11.800  11.754   0.539  3.2857  0.1928 -0.8748
  485MOL0     H65427  12.040  11.862   0.551 -0.7216 -0.3266  1.2451
  485MOL0     H65428  11.998  12.029   0.519  3.1882 -1.8572 -2.0180
  485MOL0     H65429  12.106  11.943   0.782  2.7005  0.0920  0.0909
  485MOL0     H65430  12.090  12.114   0.713  0.3054 -0.1096  1.2402
  485MOL0     H65431  12.323  12.046   0.684  1.0688 -0.4682 -3.4274
  485MOL0     H65432  12.256  12.025   0.527 -1.1529 -0.7516 -0.7415
  485MOL0     H65433  12.245  11.805   0.539  2.6675 -1.6796 -1.0739
  485MOL0     H65434  12.245  11.796   0.715 -1.3455  0.7663  0.0146
  485MOL0     H65435  12.662  11.845   0.534  0.9827 -0.2166  0.1838
  485MOL0     H65436  12.857  11.590   0.366  2.1609  0.0793 -0.4214
  485MOL0     H65437  12.852  11.754   0.397  0.1977 -0.1845  0.1581
  485MOL0     H65438  12.899  11.643   0.533 -0.2390 -4.8373 -0.3855
  485MOL0     H65439  12.764  11.141   0.602  0.0236  0.7412  0.1367
  485MOL0     H65440  12.903  10.936   0.558  0.5926  0.3213 -0.9200
  485MOL0     H65441  13.287  11.012   0.550  1.6291 -0.6337  0.6481
  485MOL0     H65442  13.247  10.843   0.542 -0.5186  1.1059  0.5554
  485MOL0     H65443  13.348  10.838   0.322  2.4588 -2.2267  3.0588
  485MOL0     H65444  13.335  11.007   0.306  0.0138 -0.5630 -0.6683
  485MOL0     H65445  13.532  10.908   0.520  3.0975 -0.0230 -0.3903
  485MOL0     H65446  13.520  11.069   0.464  0.0718 -0.0029 -0.4660
  485MOL0     H65447  13.612  10.806   0.338  0.6537 -0.2780 -0.9815
  485MOL0     H65448  13.558  10.933   0.215  1.3733  1.0669 -0.5661
  485MOL0     H65449  13.791  10.949   0.405 -1.4174 -2.4127  0.4469
  485MOL0     H65450  13.743  11.068   0.274 -4.1985 -0.0903  1.3671
  485MOL0     H65451  13.816  10.768   0.225  1.7763  1.2951 -0.2714
  485MOL0     H65452  13.754  10.883   0.106  4.1624 -0.1531 -2.2371
  485MOL0     H65453  13.947  11.019   0.093 -0.9565  0.6167 -0.3124
  485MOL0     H65454  14.010  10.853   0.093 -0.5159 -2.5527  0.5004
  485MOL0     H65455  13.983  11.021   0.339 -1.5071  1.3460 -2.3785
  485MOL0     H65456  14.133  10.996   0.249 -1.1272 -0.7012 -3.9429
  485MOL0     H65457  13.169  11.164   0.312 -2.0488  0.4112 -2.5433
  485MOL0     H65458  13.034  11.377   0.363  1.6698 -0.2586  0.6608
  485MOL0     H65459  12.447  11.407   0.576 -1.2153  0.7906 -2.8088
  485MOL0     H65460  12.329  11.598   0.644 -0.9888  0.8660 -2.5529
  485MOL0     H65461  10.818  11.152   0.629 -0.5026 -1.9144 -0.6185
  485MOL0     H65462  10.691  10.956   0.606  0.8784 -1.6882  2.0695
  485MOL0     H65463  10.424  10.644   1.145  1.3333  1.0817 -0.2854
  485MOL0     H65464  10.323  10.407   1.142  1.3919  1.8049  1.7987
  485MOL0     H65465  10.082  10.354   1.043 -0.4899  2.1815 -1.9537
  485MOL0     H65466  10.061  10.345   0.874 -0.7964 -2.3151 -2.2739
  485MOL0     H65467   9.951  10.146   0.994 -1.7021  2.4476 -3.2500
  485MOL0     H65468  10.124  10.088   1.021  1.2835  0.3495 -1.1499
  485MOL0     H65469  10.145  10.099   0.749  1.6319 -3.5089  0.7906
  485MOL0     H65470   9.976  10.135   0.764  0.8409  1.3658  1.8602
  485MOL0     H65471   9.980   9.897   0.890  1.3011  0.9342  2.2475
  485MOL0     H65472  10.125   9.874   0.799 -0.8153 -1.0508 -0.2360
  485MOL0     H65473   9.877   9.809   0.490  0.7985 -1.9664  1.3570
  485MOL0     H65474  10.308  10.425   0.723 -4.0177  0.9546  1.0919
  485MOL0     H65475  10.458  10.637   0.715  0.9171 -0.6675 -0.1253
  486MOL0     O65476   1.959   3.449   6.558 -0.2077  0.1514 -0.0757
  486MOL0     C65477   2.023   3.505   6.467 -0.4236  1.0991 -0.1518
  486MOL0     O65478   2.128   3.458   6.397 -0.5131  0.3635  0.4570
  486MOL0     C65479   2.164   3.327   6.402 -0.9644 -0.5557  0.5666
  486MOL0     C65480   2.299   3.287   6.437  0.2948 -0.4077 -0.3912
  486MOL0     C65481   2.324   3.149   6.421  0.4215  0.0711 -0.0636
  486MOL0     C65482   2.233   3.057   6.379 -0.4226  0.6134 -0.0534
  486MOL0     O65483   2.270   2.926   6.381  0.8337  0.5743 -0.2695
  486MOL0     C65484   2.196   2.833   6.296  1.1163 -0.4306  0.1173
  486MOL0     C65485   2.265   2.695   6.307  0.6973  0.4639 -0.4310
  486MOL0     C65486   2.186   2.581   6.237 -0.0362  0.8974  0.1418
  486MOL0     C65487   2.256   2.443   6.232  0.3155  0.6417  0.3537
  486MOL0     C65488   2.168   2.318   6.256  0.4724  0.7696  0.8451
  486MOL0     C65489   2.039   2.308   6.163  0.8413  0.3694  0.2987
  486MOL0     C65490   1.970   2.176   6.186  0.4407 -1.1352 -0.1598
  486MOL0     C65491   1.810   2.192   6.169  1.1883 -0.2596  0.1794
  486MOL0     N65492   1.744   2.073   6.115 -0.0458 -0.3981 -0.5806
  486MOL0     C65493   1.675   1.978   6.184  0.8536  1.1044  0.7834
  486MOL0     C65494   1.636   1.878   6.098  0.3805 -0.4698 -0.2525
  486MOL0     C65495   1.589   1.746   6.138 -0.1334 -0.5731  0.1985
  486MOL0     C65496   1.682   1.653   6.197 -1.0360 -0.3140 -0.1021
  486MOL0     C65497   1.810   1.653   6.109  0.0830 -0.1828 -0.1765
  486MOL0     C65498   1.925   1.560   6.159 -0.0862  0.5158  0.3005
  486MOL0     O65499   2.051   1.619   6.111 -0.3053  0.1258 -0.0388
  486MOL0     C65500   2.111   1.707   6.201 -0.4011 -0.3160  0.1001
  486MOL0     C65501   2.083   1.738   6.337  0.3139  0.4174  0.3934
  486MOL0     C65502   2.158   1.827   6.412 -0.7952 -0.1237 -0.2348
  486MOL0     C65503   2.128   1.824   6.561  0.5020  0.7354  0.3932
  486MOL0     C65504   2.247   1.913   6.343 -0.4503 -0.5656  0.2295
  486MOL0     C65505   2.330   2.021   6.404  0.2657 -0.0122 -0.5910
  486MOL0     O65506   2.442   2.078   6.335  0.1574  0.2907 -0.2883
  486MOL0     C65507   2.501   2.197   6.359 -0.0554 -0.1743 -0.3217
  486MOL0     C65508   2.591   2.239   6.270 -0.1985 -0.3556 -0.8836
  486MOL0     C65509   2.652   2.365   6.264 -0.9899  0.3112 -0.7377
  486MOL0     C65510   2.633   2.450   6.380  0.3944  0.0637 -0.4184
  486MOL0     O65511   2.710   2.561   6.369 -0.0750 -0.7106 -0.7828
  486MOL0     C65512   2.718   2.667   6.466 -0.5294 -0.8436 -0.2273
  486MOL0     C65513   2.777   2.787   6.403 -0.2598 -0.5557  0.4972
  486MOL0     C65514   2.709   2.915   6.455 -0.8054 -0.4966 -0.2640
  486MOL0     C65515   2.733   2.939   6.610  0.0050 -0.4073 -0.0325
  486MOL0     C65516   2.865   3.008   6.629  0.2578 -0.2553 -0.4582
  486MOL0     C65517   2.883   3.068   6.772 -0.2026 -0.2105 -0.3932
  486MOL0     C65518   3.027   3.134   6.802  0.2836 -0.3538  0.2299
  486MOL0     C65519   3.059   3.170   6.947  0.0335  0.7591 -0.4457
  486MOL0    Cl65520   2.946   3.284   7.011 -0.3218 -0.1568 -0.4812
  486MOL0     C65521   2.550   2.407   6.487  0.2741 -0.1644  0.3684
  486MOL0     C65522   2.486   2.279   6.478 -0.0827 -0.0705  0.4822
  486MOL0     O65523   2.271   2.065   6.510  0.1645  0.1259  0.9118
  486MOL0     C65524   2.274   1.880   6.207 -0.2278  0.0588  0.2304
  486MOL0     C65525   2.218   1.775   6.145 -0.4705  0.1383 -0.1007
  486MOL0     N65526   1.677   1.922   5.970  0.1567 -1.0381 -0.2522
  486MOL0     N65527   1.738   2.036   5.984 -0.3877  0.4993 -0.0695
  486MOL0     C65528   2.107   3.101   6.346  0.6618 -0.7121 -0.0174
  486MOL0     C65529   2.071   3.230   6.368  0.8134 -0.6630 -0.7958
  486MOL0     C65530   1.977   3.638   6.415  0.3990 -0.4205  0.2065
  486MOL0     C65531   2.012   3.680   6.284  0.8015 -0.0362  0.3298
  486MOL0     C65532   1.980   3.806   6.241 -0.4840  0.2134  0.8939
  486MOL0     C65533   1.910   3.895   6.321  0.2813  0.7592 -0.0362
  486MOL0     O65534   1.862   4.008   6.267  0.7625  0.3394  0.0077
  486MOL0     C65535   1.928   4.121   6.323 -0.2753  0.2612  0.4318
  486MOL0     C65536   1.878   4.260   6.271 -0.0425 -0.5899  0.1903
  486MOL0     C65537   1.930   4.370   6.363  0.2867  0.2460 -0.5256
  486MOL0     C65538   2.072   4.389   6.354 -0.7467 -0.0651 -0.6403
  486MOL0     C65539   2.102   4.521   6.403  0.0868  0.7574  0.8213
  486MOL0     C65540   2.113   4.624   6.461 -0.7286 -0.0237 -0.2875
  486MOL0     C65541   1.876   3.859   6.455  0.1152  0.0276 -0.3040
  486MOL0     C65542   1.913   3.730   6.502 -0.4280 -0.8504 -1.4196
  486MOL0     H65543   2.370   3.360   6.474  1.0550 -2.5675  2.7524
  486MOL0     H65544   2.427   3.115   6.424  0.7115  0.8440 -0.9985
  486MOL0     H65545   2.095   2.827   6.337  1.6926 -5.0433  1.3919
  486MOL0     H65546   2.193   2.869   6.193 -1.9322  1.0266  0.6101
  486MOL0     H65547   2.366   2.709   6.269  1.9084  1.4484  2.8016
  486MOL0     H65548   2.274   2.662   6.411 -3.7613 -0.2989 -0.0685
  486MOL0     H65549   2.098   2.575   6.302 -1.1510  1.9279 -1.2216
  486MOL0     H65550   2.157   2.613   6.137  1.6576  0.7423 -0.4299
  486MOL0     H65551   2.305   2.439   6.134 -0.4991  1.2835 -0.0958
  486MOL0     H65552   2.335   2.445   6.307  1.8196 -1.7183 -1.0480
  486MOL0     H65553   2.243   2.243   6.230  0.7474  2.2097 -3.3991
  486MOL0     H65554   2.144   2.297   6.360 -2.1735  1.9091  0.5673
  486MOL0     H65555   1.980   2.398   6.185  2.8035  1.3702  1.8066
  486MOL0     H65556   2.071   2.309   6.058  0.6202 -3.5060  0.0803
  486MOL0     H65557   2.015   2.109   6.113  1.4197  1.7523 -2.3867
  486MOL0     H65558   1.981   2.150   6.292 -0.1744 -0.4071  0.0928
  486MOL0     H65559   1.785   2.280   6.109  0.7181  0.5534  1.5208
  486MOL0     H65560   1.768   2.222   6.266 -0.8087 -0.5956 -0.5252
  486MOL0     H65561   1.656   1.982   6.290 -0.3688  3.8654  0.5629
  486MOL0     H65562   1.512   1.762   6.215 -0.1428 -2.8700  0.7241
  486MOL0     H65563   1.540   1.692   6.057 -1.4313 -0.1758  0.6818
  486MOL0     H65564   1.640   1.555   6.221 -3.4577  0.9929  1.3430
  486MOL0     H65565   1.711   1.706   6.289 -0.4029  1.4354 -1.2631
  486MOL0     H65566   1.857   1.747   6.080 -0.6331 -0.4215 -2.3365
  486MOL0     H65567   1.773   1.615   6.013 -1.0123  0.3306  0.0190
  486MOL0     H65568   1.917   1.456   6.125 -0.2998  0.5196  0.3429
  486MOL0     H65569   1.907   1.559   6.266 -1.9547 -0.0266  0.0207
  486MOL0     H65570   2.003   1.682   6.386 -0.0695  0.9372  0.3736
  486MOL0     H65571   2.071   1.739   6.600  0.1766 -0.6219 -2.7336
  486MOL0     H65572   2.219   1.826   6.622 -0.8364  2.1288  2.4527
  486MOL0     H65573   2.067   1.910   6.589 -1.7362  0.1862 -2.4353
  486MOL0     H65574   2.626   2.171   6.192  1.7473  1.8435 -2.0763
  486MOL0     H65575   2.725   2.386   6.186 -0.1560  0.4698  0.0700
  486MOL0     H65576   2.622   2.690   6.512  0.7086  1.1348  1.5669
  486MOL0     H65577   2.783   2.639   6.549  1.0613  1.2868 -0.6589
  486MOL0     H65578   2.879   2.805   6.438 -0.8873  2.9487  0.9556
  486MOL0     H65579   2.756   2.790   6.295 -3.9532  2.5056  1.0445
  486MOL0     H65580   2.602   2.894   6.449 -0.7873 -0.7980  0.3578
  486MOL0     H65581   2.726   3.003   6.393  1.5614 -1.2054 -0.6983
  486MOL0     H65582   2.640   2.988   6.640 -0.1797 -0.0431 -1.1519
  486MOL0     H65583   2.723   2.838   6.651 -1.9089 -0.7542 -1.2291
  486MOL0     H65584   2.887   3.083   6.552  1.3135  0.7503  0.7415
  486MOL0     H65585   2.946   2.934   6.629 -2.3330 -3.4590  2.8297
  486MOL0     H65586   2.802   3.135   6.801 -0.7219 -0.7340 -0.6125
  486MOL0     H65587   2.884   2.992   6.851  0.3190  3.3378  3.3444
  486MOL0     H65588   3.023   3.230   6.751 -1.3736 -0.8650 -0.6791
  486MOL0     H65589   3.103   3.071   6.754  2.1435  0.3933  2.0314
  486MOL0     H65590   3.157   3.216   6.932  0.9696 -0.7332  0.7638
  486MOL0     H65591   3.065   3.079   7.008  0.7073  2.0236  1.4547
  486MOL0     H65592   2.528   2.469   6.574  0.1552 -1.6013  1.3984
  486MOL0     H65593   2.417   2.240   6.551  1.2050 -2.3178  0.5662
  486MOL0     H65594   2.351   1.931   6.150 -0.8013  2.4506  1.4628
  486MOL0     H65595   2.268   1.756   6.051  2.3039  1.9251  0.8908
  486MOL0     H65596   2.033   3.034   6.303  0.5157 -0.5278 -0.0560
  486MOL0     H65597   1.965   3.251   6.361  1.0864  0.3160 -2.8102
  486MOL0     H65598   2.071   3.621   6.216 -0.4183  1.8172 -2.5135
  486MOL0     H65599   2.019   3.826   6.141  1.3645 -2.5048  0.9549
  486MOL0     H65600   1.906   4.117   6.430  0.8217 -2.3849  0.6247
  486MOL0     H65601   2.036   4.104   6.314 -1.0326 -5.1451 -1.7514
  486MOL0     H65602   1.769   4.262   6.268 -0.0946  0.3638  1.8354
  486MOL0     H65603   1.917   4.299   6.176  0.4210  1.1104  1.0279
  486MOL0     H65604   1.896   4.359   6.466 -1.3896  3.2585 -0.6297
  486MOL0     H65605   1.878   4.460   6.329 -1.6210  0.4822  2.6639
  486MOL0     H65606   2.113   4.373   6.254 -3.0519 -0.0305 -1.6464
  486MOL0     H65607   2.122   4.321   6.423  1.1555  1.7029 -0.1408
  486MOL0     H65608   2.145   4.717   6.505  1.7895 -1.1104  0.3476
  486MOL0     H65609   1.842   3.937   6.523  2.6920 -1.4974  3.0485
  486MOL0     H65610   1.900   3.695   6.604 -0.6093 -2.5550 -1.9944
  487MOL0     O65611   1.414   6.963  11.051 -1.0169 -0.1836  0.2311
  487MOL0     C65612   1.421   6.982  11.170 -0.6090 -1.1613 -1.1007
  487MOL0     O65613   1.326   6.944  11.267 -0.1593 -0.4383 -0.0301
  487MOL0     C65614   1.245   6.833  11.251  0.3157 -0.5279 -0.1853
  487MOL0     C65615   1.226   6.763  11.127 -0.8106 -0.4196 -0.1639
  487MOL0     C65616   1.141   6.652  11.118 -0.1598 -0.2019 -0.1754
  487MOL0     C65617   1.058   6.621  11.229 -0.0207  0.0243  0.0015
  487MOL0     O65618   0.971   6.520  11.232  0.4685 -0.6219  0.0502
  487MOL0     C65619   1.022   6.391  11.277 -0.6612 -0.4664  0.1466
  487MOL0     C65620   0.895   6.308  11.250 -0.7519  0.5850 -0.5259
  487MOL0     C65621   0.923   6.166  11.237  0.5207 -0.1367  0.4485
  487MOL0     C65622   0.965   6.106  11.369 -1.0876  0.1062 -0.2864
  487MOL0     C65623   1.043   5.973  11.344  0.2299 -0.1303 -0.9419
  487MOL0     C65624   1.090   5.927  11.482 -0.1598 -0.4435 -0.2830
  487MOL0     C65625   1.161   5.791  11.457 -0.2413 -0.4610  0.2080
  487MOL0     C65626   1.087   5.685  11.381 -0.4371 -0.4873 -0.0352
  487MOL0     N65627   1.188   5.580  11.377 -0.3019  0.4866 -0.6988
  487MOL0     C65628   1.305   5.584  11.311 -0.1692 -0.4512  0.9457
  487MOL0     C65629   1.359   5.453  11.331  0.1008 -0.6917  0.0443
  487MOL0     C65630   1.497   5.423  11.275  0.0297  0.6352 -0.4893
  487MOL0     C65631   1.570   5.288  11.311  0.1624 -0.7533  0.6914
  487MOL0     C65632   1.722   5.280  11.267  0.9252 -0.6305  0.3139
  487MOL0     C65633   1.800   5.181  11.354  0.5842  0.7656  0.4619
  487MOL0     O65634   1.936   5.176  11.306  0.3129  0.1109 -0.2258
  487MOL0     C65635   1.982   5.068  11.232  0.1281 -0.0918 -0.1230
  487MOL0     C65636   1.910   4.957  11.194  0.4262  0.9232 -0.2790
  487MOL0     C65637   1.963   4.856  11.118 -1.2569 -0.2217 -0.6602
  487MOL0     C65638   1.886   4.730  11.098  0.7540  0.0894  0.2239
  487MOL0     C65639   2.097   4.860  11.075 -0.2310 -0.0124 -0.6044
  487MOL0     C65640   2.171   4.748  11.000  0.6938  0.8001  0.0406
  487MOL0     O65641   2.307   4.765  10.975 -0.2350  0.7710 -0.0331
  487MOL0     C65642   2.366   4.660  10.917 -0.2713  0.0729 -0.5251
  487MOL0     C65643   2.406   4.668  10.788 -0.4648 -0.0814  0.4584
  487MOL0     C65644   2.488   4.570  10.726 -0.4220 -0.3644 -0.5279
  487MOL0     C65645   2.509   4.454  10.807  0.3397 -0.2706 -0.0436
  487MOL0     O65646   2.581   4.343  10.756  0.0628  0.1847 -0.1157
  487MOL0     C65647   2.712   4.363  10.710  0.3760 -0.2149  0.5727
  487MOL0     C65648   2.807   4.408  10.813 -0.0813 -0.3948  0.9294
  487MOL0     C65649   2.851   4.286  10.900  1.0099  0.0276  0.4661
  487MOL0     C65650   2.934   4.179  10.837  0.3129 -0.1553  1.2327
  487MOL0     C65651   3.002   4.078  10.932  0.3828  0.3017  0.1579
  487MOL0     C65652   3.116   4.134  11.019  0.5162 -0.7348 -0.1573
  487MOL0     C65653   3.210   4.027  11.073 -0.3785 -0.1821 -0.0115
  487MOL0     C65654   3.146   3.928  11.169  0.0273 -0.0990  1.1301
  487MOL0    Cl65655   3.074   4.026  11.300  0.2856  0.0177 -0.2469
  487MOL0     C65656   2.457   4.437  10.935  0.0040 -0.4529  1.1003
  487MOL0     C65657   2.388   4.544  10.992  0.0630  0.1132 -0.1882
  487MOL0     O65658   2.099   4.655  10.952  0.5135 -0.3747 -0.1940
  487MOL0     C65659   2.166   4.973  11.109 -0.3477  0.4530  0.1642
  487MOL0     C65660   2.112   5.067  11.188  1.3405 -0.1672  0.7327
  487MOL0     N65661   1.275   5.380  11.408  0.6525  0.7547  0.4351
  487MOL0     N65662   1.171   5.458  11.430 -0.1174 -0.0550  0.3927
  487MOL0     C65663   1.075   6.694  11.352 -0.0557 -0.7407  0.4682
  487MOL0     C65664   1.173   6.791  11.362 -0.3882 -0.3003  0.8040
  487MOL0     C65665   1.526   7.079  11.226 -1.0001  0.2749 -0.0270
  487MOL0     C65666   1.660   7.048  11.214 -0.0115  0.1273  0.4707
  487MOL0     C65667   1.766   7.128  11.263  0.1697 -0.6554  0.4972
  487MOL0     C65668   1.729   7.243  11.333  0.3207 -1.3691  0.8198
  487MOL0     O65669   1.833   7.323  11.371  0.0013  1.3828 -0.3644
  487MOL0     C65670   1.833   7.355  11.512  0.1949 -0.2409  0.5765
  487MOL0     C65671   1.962   7.326  11.580  0.6838 -0.9688 -0.9004
  487MOL0     C65672   2.060   7.421  11.535 -0.6382 -0.9585 -1.2904
  487MOL0     C65673   2.200   7.369  11.524  0.1256  0.2509 -0.3351
  487MOL0     C65674   2.251   7.304  11.645  0.5423  0.4994 -0.1861
  487MOL0     C65675   2.290   7.250  11.752  0.1984 -0.5195 -0.5473
  487MOL0     C65676   1.593   7.272  11.356 -0.0063  1.0558 -0.9121
  487MOL0     C65677   1.491   7.187  11.307  0.1438 -0.9628  0.0449
  487MOL0     H65678   1.274   6.788  11.033 -2.5076 -2.1374 -1.5544
  487MOL0     H65679   1.122   6.593  11.029 -0.0261 -2.0260  0.9555
  487MOL0     H65680   1.112   6.355  11.225 -0.8454 -2.3699  1.0369
  487MOL0     H65681   1.043   6.399  11.385 -2.5118  2.1009  0.3892
  487MOL0     H65682   0.822   6.327  11.329  0.9682 -0.6985  1.4866
  487MOL0     H65683   0.860   6.335  11.150  1.5885  0.5560 -1.4325
  487MOL0     H65684   0.838   6.103  11.208  0.9966 -0.6997  0.2507
  487MOL0     H65685   1.001   6.164  11.160 -0.0945 -1.9943 -0.1809
  487MOL0     H65686   1.025   6.183  11.418  1.7080 -1.7228 -0.6553
  487MOL0     H65687   0.876   6.085  11.429 -2.0881 -3.2964 -2.6499
  487MOL0     H65688   0.962   5.916  11.297 -2.0021  2.9291 -1.0650
  487MOL0     H65689   1.124   5.982  11.270  0.1549 -0.8342 -1.1196
  487MOL0     H65690   1.157   6.000  11.529 -1.0197 -0.6962  1.4534
  487MOL0     H65691   1.006   5.905  11.549 -0.8246 -4.3642 -2.0997
  487MOL0     H65692   1.257   5.816  11.412  0.3378 -1.9860  0.5408
  487MOL0     H65693   1.185   5.753  11.557 -0.0595  1.2823  0.8672
  487MOL0     H65694   1.059   5.700  11.276 -0.8098 -3.2328 -0.3947
  487MOL0     H65695   0.998   5.660  11.438  0.5760  1.8393  2.8328
  487MOL0     H65696   1.358   5.665  11.262  0.7073 -0.6638  1.5248
  487MOL0     H65697   1.483   5.429  11.167 -2.9469  0.6786 -0.1807
  487MOL0     H65698   1.562   5.507  11.299  2.0021 -1.0522  0.4811
  487MOL0     H65699   1.515   5.204  11.268 -1.1806 -0.5841  2.0258
  487MOL0     H65700   1.566   5.290  11.420  1.8291 -0.6571  0.7724
  487MOL0     H65701   1.770   5.378  11.273 -0.6474  0.3557 -1.7165
  487MOL0     H65702   1.723   5.241  11.164 -0.3707  1.0035 -0.3710
  487MOL0     H65703   1.760   5.080  11.371 -0.4735  1.2335  0.8386
  487MOL0     H65704   1.811   5.232  11.450  0.6467  2.0804 -0.2320
  487MOL0     H65705   1.805   4.953  11.221  0.6230 -0.2687  0.3853
  487MOL0     H65706   1.876   4.716  10.990  0.1311 -0.5802  0.3604
  487MOL0     H65707   1.939   4.646  11.143 -2.4931 -2.4114 -0.2945
  487MOL0     H65708   1.797   4.730  11.161  0.8987  1.0317  0.4413
  487MOL0     H65709   2.364   4.759  10.745  1.0394  1.9726  3.0091
  487MOL0     H65710   2.536   4.560  10.629  2.1664 -1.5568  0.7710
  487MOL0     H65711   2.759   4.277  10.661  1.4762 -0.2775  1.6821
  487MOL0     H65712   2.710   4.439  10.631 -2.1495 -1.0168 -0.2417
  487MOL0     H65713   2.891   4.462  10.768 -0.1122  0.5208  1.9458
  487MOL0     H65714   2.764   4.480  10.882  3.5393  4.5388 -1.3047
  487MOL0     H65715   2.766   4.224  10.930  3.0398 -2.0095  2.3305
  487MOL0     H65716   2.888   4.327  10.994  1.5107 -0.4495  0.4792
  487MOL0     H65717   2.865   4.129  10.769 -0.7455  2.3782  0.3193
  487MOL0     H65718   3.018   4.220  10.781  0.7355  1.6709  3.0868
  487MOL0     H65719   3.027   3.995  10.866  0.0942  1.7771 -1.8895
  487MOL0     H65720   2.930   4.052  11.011  1.6642 -0.2552  1.1905
  487MOL0     H65721   3.175   4.206  10.962  0.1824 -0.3638 -0.0359
  487MOL0     H65722   3.061   4.193  11.093 -6.3914 -2.1631 -3.3960
  487MOL0     H65723   3.297   4.075  11.120 -0.1517 -1.9307  1.4682
  487MOL0     H65724   3.243   3.973  10.984 -1.0099  2.3552 -1.8976
  487MOL0     H65725   3.216   3.860  11.219 -0.1240 -0.0090  1.4668
  487MOL0     H65726   3.074   3.860  11.124 -1.3278  2.3705 -0.6786
  487MOL0     H65727   2.483   4.344  10.985 -2.8731 -1.2194  1.3619
  487MOL0     H65728   2.352   4.544  11.094 -1.1194  2.7497 -0.5123
  487MOL0     H65729   2.265   4.992  11.068 -0.1554 -0.8773 -0.0137
  487MOL0     H65730   2.168   5.159  11.201 -0.0169  0.8606 -0.3092
  487MOL0     H65731   1.022   6.675  11.445 -0.2864 -0.0206  0.4873
  487MOL0     H65732   1.174   6.847  11.454 -3.7452  0.3727  0.5447
  487MOL0     H65733   1.696   6.952  11.178  0.2817  0.0628  0.9177
  487MOL0     H65734   1.872   7.113  11.245 -0.1954 -0.8244 -1.9297
  487MOL0     H65735   1.809   7.460  11.531  0.3459  0.4143 -2.4133
  487MOL0     H65736   1.770   7.289  11.572 -0.0033 -0.5985 -0.0188
  487MOL0     H65737   2.003   7.227  11.560  2.7316 -0.0309 -1.6369
  487MOL0     H65738   1.949   7.349  11.687  1.9964 -0.5129 -0.8224
  487MOL0     H65739   2.059   7.498  11.612 -0.9990 -3.0377  0.8776
  487MOL0     H65740   2.037   7.458  11.434  3.0160 -0.4556 -2.0693
  487MOL0     H65741   2.271   7.447  11.495  1.1508  1.2552  4.0457
  487MOL0     H65742   2.190   7.297  11.442 -0.0818  1.6272 -1.5610
  487MOL0     H65743   2.337   7.198  11.833  0.4251 -0.3618 -0.5788
  487MOL0     H65744   1.563   7.357  11.417  0.0295 -0.9268  2.0638
  487MOL0     H65745   1.386   7.196  11.331 -0.4272 -0.4923 -2.3952
  488MOL0     O65746   0.060   7.522   3.628 -0.2245 -0.2873  0.1291
  488MOL0     C65747   0.089   7.621   3.702 -0.2959  0.2253  0.5502
  488MOL0     O65748   0.014   7.723   3.726 -0.5594  0.3398  0.0338
  488MOL0     C65749  -0.109   7.725   3.650 -0.0448 -0.5571  0.2598
  488MOL0     C65750  -0.215   7.632   3.672  0.1662 -0.2244  0.9475
  488MOL0     C65751  -0.347   7.656   3.620 -0.3136  0.4481  0.6387
  488MOL0     C65752  -0.368   7.762   3.526  0.5580  0.7394 -0.4224
  488MOL0     O65753  -0.494   7.769   3.482 -0.3634 -0.2572 -0.7007
  488MOL0     C65754  -0.515   7.819   3.347 -0.1814 -0.4512 -0.4361
  488MOL0     C65755  -0.646   7.767   3.295  0.2996  1.3371 -0.0286
  488MOL0     C65756  -0.635   7.776   3.138 -0.1874  0.9203 -0.3326
  488MOL0     C65757  -0.770   7.783   3.067 -0.4009  0.1791 -0.5803
  488MOL0     C65758  -0.855   7.657   3.090 -0.0849 -0.2691  0.3728
  488MOL0     C65759  -0.982   7.665   2.999  0.4879 -0.1033  0.7198
  488MOL0     C65760  -1.063   7.534   3.015  0.4403 -0.2994 -0.8701
  488MOL0     C65761  -1.140   7.502   2.889 -0.7227 -1.0362 -0.7912
  488MOL0     N65762  -1.238   7.393   2.918 -0.7441 -0.5116  0.0983
  488MOL0     C65763  -1.213   7.274   2.988  0.1647 -0.7234 -0.1014
  488MOL0     C65764  -1.337   7.228   3.010 -0.7779 -0.0272 -0.2254
  488MOL0     C65765  -1.365   7.098   3.083 -0.3100 -0.7019 -0.1638
  488MOL0     C65766  -1.451   7.000   3.009  0.6249  0.9368 -1.0135
  488MOL0     C65767  -1.514   6.896   3.103  1.1681  0.5284  0.0634
  488MOL0     C65768  -1.408   6.824   3.189  0.9314 -0.6624 -0.5446
  488MOL0     O65769  -1.315   6.767   3.106 -0.0374  0.6001 -0.7340
  488MOL0     C65770  -1.281   6.629   3.133 -0.3968  0.6325 -0.1192
  488MOL0     C65771  -1.307   6.546   3.249 -0.3054  0.2417  0.2173
  488MOL0     C65772  -1.284   6.405   3.250 -0.5561 -0.1775 -0.0925
  488MOL0     C65773  -1.298   6.349   3.388  1.2139  0.6042  0.5573
  488MOL0     C65774  -1.220   6.338   3.144  1.3064 -0.2141 -0.4969
  488MOL0     C65775  -1.199   6.186   3.132  0.6093  0.3383  0.1389
  488MOL0     O65776  -1.122   6.152   3.028 -0.5032 -0.5352  0.7439
  488MOL0     C65777  -1.130   6.024   2.984 -0.5410 -1.2261  0.5855
  488MOL0     C65778  -1.132   6.007   2.850 -1.0752  0.5264  1.0891
  488MOL0     C65779  -1.105   5.881   2.788  0.0832 -0.0562 -0.2843
  488MOL0     C65780  -1.074   5.767   2.864 -0.0172 -0.0580  0.5901
  488MOL0     O65781  -1.054   5.646   2.819 -0.2275 -0.2084 -0.3616
  488MOL0     C65782  -1.026   5.624   2.673  0.4406  0.0015 -0.7504
  488MOL0     C65783  -0.886   5.680   2.637  0.4988  0.7605  1.0969
  488MOL0     C65784  -0.779   5.648   2.736 -1.2442  0.7579  0.3284
  488MOL0     C65785  -0.711   5.771   2.806  0.2068  0.1225 -0.1935
  488MOL0     C65786  -0.619   5.730   2.917  0.2190  0.2937  0.3794
  488MOL0     C65787  -0.526   5.842   2.968 -0.4042  0.0125 -0.0046
  488MOL0     C65788  -0.430   5.783   3.077  0.7442 -0.2261 -0.0759
  488MOL0     C65789  -0.357   5.890   3.160 -0.0086  1.5158 -0.5025
  488MOL0    Cl65790  -0.197   5.927   3.101 -0.2586  0.3159 -0.0343
  488MOL0     C65791  -1.083   5.789   3.002  1.1795  0.5076 -0.4701
  488MOL0     C65792  -1.108   5.911   3.063  0.0695  0.1194  0.6008
  488MOL0     O65793  -1.246   6.107   3.210  0.6219  0.4727  0.4037
  488MOL0     C65794  -1.186   6.425   3.037 -0.0339  0.5912 -0.0081
  488MOL0     C65795  -1.218   6.566   3.035 -0.5900 -0.0951  0.1222
  488MOL0     N65796  -1.428   7.314   2.946  0.0329  0.6134 -0.8843
  488MOL0     N65797  -1.366   7.408   2.891 -0.8159  0.5441  0.6556
  488MOL0     C65798  -0.260   7.847   3.495  0.5768 -0.9601 -0.2122
  488MOL0     C65799  -0.136   7.833   3.551  1.3017  0.9227  0.5769
  488MOL0     C65800   0.206   7.601   3.790  0.8043 -0.4530  0.3996
  488MOL0     C65801   0.245   7.710   3.872  0.4000  0.3704 -0.2529
  488MOL0     C65802   0.354   7.696   3.962 -0.4805  1.4584  0.1271
  488MOL0     C65803   0.426   7.571   3.967 -0.1094 -0.5205 -0.3939
  488MOL0     O65804   0.535   7.548   4.049 -0.4955 -1.1915 -0.3278
  488MOL0     C65805   0.542   7.640   4.161 -0.0383  0.0787 -0.2005
  488MOL0     C65806   0.636   7.590   4.280  0.3443  0.3715 -0.1728
  488MOL0     C65807   0.783   7.605   4.254 -0.5965 -0.4308  0.7210
  488MOL0     C65808   0.828   7.756   4.276  0.1087  0.5141  0.0829
  488MOL0     C65809   0.956   7.764   4.333  0.3991  0.7728  0.8061
  488MOL0     C65810   1.046   7.796   4.399 -0.3446  0.3708 -0.3169
  488MOL0     C65811   0.391   7.473   3.877  0.3448 -0.1078 -0.4029
  488MOL0     C65812   0.283   7.481   3.787 -0.1763 -1.1060  0.4971
  488MOL0     H65813  -0.198   7.547   3.738 -0.2109 -4.0742 -3.4069
  488MOL0     H65814  -0.425   7.582   3.634 -2.7680  2.7591 -0.1225
  488MOL0     H65815  -0.523   7.928   3.354  2.0374 -0.2375 -0.4888
  488MOL0     H65816  -0.433   7.796   3.278 -2.6156 -1.8532 -3.0360
  488MOL0     H65817  -0.681   7.667   3.322 -4.0295  2.9010  1.0786
  488MOL0     H65818  -0.727   7.830   3.334 -1.1359  0.3143 -1.2513
  488MOL0     H65819  -0.577   7.864   3.111  3.2022 -1.0140  0.0490
  488MOL0     H65820  -0.579   7.686   3.111  0.1798 -0.0133  2.9819
  488MOL0     H65821  -0.823   7.874   3.096  2.5190  3.1995 -3.8410
  488MOL0     H65822  -0.757   7.791   2.958 -3.2255  1.9733 -0.8889
  488MOL0     H65823  -0.804   7.565   3.062  0.5249  0.3083 -0.4598
  488MOL0     H65824  -0.881   7.649   3.196 -2.5511  3.3926  0.2307
  488MOL0     H65825  -1.042   7.745   3.043 -0.9589 -0.7305 -0.0545
  488MOL0     H65826  -0.963   7.691   2.894 -1.5281  0.3058  0.4281
  488MOL0     H65827  -0.997   7.454   3.048  1.9666  1.7598  1.4114
  488MOL0     H65828  -1.132   7.552   3.098 -0.3098 -3.5486 -0.6361
  488MOL0     H65829  -1.072   7.463   2.813  0.8876  0.7847 -0.3596
  488MOL0     H65830  -1.189   7.596   2.863 -0.6072 -0.9952 -0.8562
  488MOL0     H65831  -1.116   7.230   3.012  2.9148  5.0911  1.1511
  488MOL0     H65832  -1.272   7.049   3.115  1.4930  1.7587 -1.2555
  488MOL0     H65833  -1.399   7.117   3.185  0.5743  0.7491 -0.0991
  488MOL0     H65834  -1.397   6.942   2.933  2.2402 -0.0656  0.7777
  488MOL0     H65835  -1.525   7.059   2.956 -1.0592 -1.8658 -2.0322
  488MOL0     H65836  -1.563   6.816   3.047  1.9494  1.1659 -1.5760
  488MOL0     H65837  -1.594   6.947   3.158  2.3398  1.6844  0.7573
  488MOL0     H65838  -1.462   6.750   3.248 -0.3820  0.7718  0.1063
  488MOL0     H65839  -1.362   6.900   3.253 -3.1352  0.7710  0.9300
  488MOL0     H65840  -1.341   6.595   3.340  1.7049  4.0682 -0.8626
  488MOL0     H65841  -1.390   6.290   3.397 -0.2568  3.0511  3.0601
  488MOL0     H65842  -1.220   6.275   3.407  2.1554  1.8969  1.9391
  488MOL0     H65843  -1.297   6.418   3.473  0.6435  0.1088  0.9791
  488MOL0     H65844  -1.138   6.091   2.781 -0.2094 -0.8628 -0.7848
  488MOL0     H65845  -1.120   5.889   2.681 -1.5559 -1.6204 -0.2259
  488MOL0     H65846  -1.044   5.520   2.643 -1.7777  1.0643 -3.5233
  488MOL0     H65847  -1.099   5.684   2.617 -0.1653 -2.8117 -3.2554
  488MOL0     H65848  -0.860   5.634   2.542  0.0418  1.4148  0.6431
  488MOL0     H65849  -0.898   5.788   2.626  0.2925  0.7661  1.3509
  488MOL0     H65850  -0.699   5.607   2.674  0.4617 -0.5408  3.1994
  488MOL0     H65851  -0.812   5.571   2.806  0.2705 -0.6596 -0.4552
  488MOL0     H65852  -0.651   5.820   2.729 -0.8399 -0.0262 -1.1154
  488MOL0     H65853  -0.787   5.842   2.839 -1.4284 -1.5079 -0.2497
  488MOL0     H65854  -0.552   5.656   2.872  0.5058 -0.6201  2.2329
  488MOL0     H65855  -0.683   5.694   2.998  2.7294 -2.5746  1.2604
  488MOL0     H65856  -0.480   5.895   2.885  0.2140  1.0258  0.9477
  488MOL0     H65857  -0.578   5.927   3.015 -1.1709 -0.3467 -0.1864
  488MOL0     H65858  -0.369   5.708   3.027  2.4586 -0.5404  2.2752
  488MOL0     H65859  -0.489   5.723   3.147 -3.1334  2.4594 -0.7484
  488MOL0     H65860  -0.351   5.846   3.260  0.1731  2.4830 -0.0793
  488MOL0     H65861  -0.413   5.983   3.173 -2.2145  0.8748 -4.1716
  488MOL0     H65862  -1.045   5.707   3.063  1.0415  0.5290 -0.3535
  488MOL0     H65863  -1.099   5.915   3.171  3.9050  5.6837  0.5126
  488MOL0     H65864  -1.128   6.381   2.956  1.9253  0.9723  1.1270
  488MOL0     H65865  -1.184   6.623   2.949 -4.8974  1.6915 -0.6714
  488MOL0     H65866  -0.279   7.935   3.435  1.7076  0.7905  1.8799
  488MOL0     H65867  -0.059   7.901   3.518  0.5335  0.4597 -2.5303
  488MOL0     H65868   0.211   7.812   3.856  1.5106  0.9667  1.0377
  488MOL0     H65869   0.386   7.779   4.023  0.2724 -0.7780  2.9885
  488MOL0     H65870   0.582   7.738   4.133 -1.7908  0.8818 -0.0473
  488MOL0     H65871   0.443   7.656   4.204  1.4475  1.4644  3.0550
  488MOL0     H65872   0.618   7.486   4.308 -0.7395  0.3617 -0.8530
  488MOL0     H65873   0.611   7.655   4.365  0.0047  1.4331 -1.0608
  488MOL0     H65874   0.810   7.576   4.152 -1.2981  2.6485 -0.4708
  488MOL0     H65875   0.832   7.544   4.330 -0.2793 -0.1614  0.7360
  488MOL0     H65876   0.761   7.804   4.348 -1.2587 -0.9528 -0.1742
  488MOL0     H65877   0.836   7.819   4.186  3.4698 -0.0865 -0.1789
  488MOL0     H65878   1.114   7.818   4.478  0.2753 -3.1920  0.3209
  488MOL0     H65879   0.450   7.382   3.881 -0.8549 -0.9238 -0.8764
  488MOL0     H65880   0.257   7.399   3.720  2.3082  0.1490 -2.2746
  489MOL0     O65881   5.638  10.756   5.869  0.5394 -0.2745  0.3347
  489MOL0     C65882   5.745  10.814   5.835 -0.5322  0.8714 -0.1212
  489MOL0     O65883   5.833  10.881   5.918 -0.0167 -0.3263  0.2186
  489MOL0     C65884   5.802  10.897   6.056 -0.3118 -0.1957 -0.4418
  489MOL0     C65885   5.704  10.990   6.096 -0.3328 -0.3940 -0.5655
  489MOL0     C65886   5.656  10.999   6.227 -0.2987  0.4979  0.0742
  489MOL0     C65887   5.709  10.918   6.326 -0.3499  0.0257  0.1752
  489MOL0     O65888   5.661  10.906   6.446  0.0847 -0.3949  0.6671
  489MOL0     C65889   5.752  10.950   6.546  0.0768 -0.0560  0.4423
  489MOL0     C65890   5.703  10.899   6.685  0.4397  0.0770  0.6191
  489MOL0     C65891   5.724  10.752   6.691 -0.8737 -0.3733 -0.3533
  489MOL0     C65892   5.686  10.688   6.824  0.5580 -0.3877  0.4330
  489MOL0     C65893   5.532  10.682   6.840  0.5333  0.0646 -0.4899
  489MOL0     C65894   5.504  10.615   6.975  0.0922 -0.0883 -0.0678
  489MOL0     C65895   5.357  10.588   6.988 -0.6798  0.1271 -0.2820
  489MOL0     C65896   5.311  10.521   7.123 -0.3469  0.4275 -0.4298
  489MOL0     N65897   5.170  10.481   7.116 -0.3536  0.0283  0.1974
  489MOL0     C65898   5.073  10.548   7.193  0.5576  0.1557 -0.7536
  489MOL0     C65899   4.965  10.454   7.191  0.3465 -0.2071 -0.6554
  489MOL0     C65900   4.830  10.471   7.256 -0.2218 -0.6576  0.5041
  489MOL0     C65901   4.806  10.367   7.364  0.3195 -0.4257  0.5523
  489MOL0     C65902   4.792  10.229   7.311  0.1760  0.2287  0.6240
  489MOL0     C65903   4.646  10.192   7.279  0.6416  0.2222  0.0643
  489MOL0     O65904   4.646  10.095   7.169 -0.0307 -0.6131 -0.0669
  489MOL0     C65905   4.532  10.036   7.120 -0.5766  0.4137 -0.2709
  489MOL0     C65906   4.531   9.960   6.996 -0.4047  0.2863  0.1591
  489MOL0     C65907   4.420   9.898   6.941 -0.6177 -0.4387  0.9714
  489MOL0     C65908   4.452   9.798   6.829  0.5155  0.2178 -0.4402
  489MOL0     C65909   4.295   9.922   7.000 -0.2503  0.7840  0.0997
  489MOL0     C65910   4.169   9.863   6.949  0.9997 -0.2328 -0.7357
  489MOL0     O65911   4.061   9.867   7.039  0.0559 -0.3975 -0.1629
  489MOL0     C65912   3.939   9.813   7.009 -0.2002 -1.4716 -0.8920
  489MOL0     C65913   3.837   9.908   6.981 -0.4185 -0.2660 -0.8776
  489MOL0     C65914   3.704   9.854   6.958  0.3890 -0.6804 -1.9415
  489MOL0     C65915   3.692   9.715   6.962  0.6057  0.2099  0.4160
  489MOL0     O65916   3.567   9.652   6.946 -0.6556  0.0021  0.2770
  489MOL0     C65917   3.484   9.690   6.829 -0.6148 -0.1137 -0.0162
  489MOL0     C65918   3.508   9.573   6.730 -0.5617 -1.2208 -0.6433
  489MOL0     C65919   3.457   9.598   6.594 -0.0502  0.1711 -0.1262
  489MOL0     C65920   3.310   9.612   6.601  0.8048  0.6210  0.7239
  489MOL0     C65921   3.241   9.608   6.460  0.1103 -0.2026 -0.2143
  489MOL0     C65922   3.091   9.622   6.457 -0.7548 -0.0248 -0.4518
  489MOL0     C65923   3.035   9.644   6.320  0.0975 -0.2586  0.0654
  489MOL0     C65924   3.036   9.508   6.246  0.3243  1.3712  0.6315
  489MOL0    Cl65925   2.902   9.518   6.145 -0.2851  0.1052 -0.4383
  489MOL0     C65926   3.792   9.627   6.995 -0.4385 -0.3883 -0.5773
  489MOL0     C65927   3.918   9.679   7.008  0.1093  0.1430 -0.6629
  489MOL0     O65928   4.158   9.814   6.835  0.3278 -0.3191  0.3888
  489MOL0     C65929   4.291  10.004   7.112  0.8484  0.3681 -0.4373
  489MOL0     C65930   4.403  10.057   7.173  0.1322 -0.0340 -0.1342
  489MOL0     N65931   5.003  10.350   7.109 -0.3817  0.6590 -0.2074
  489MOL0     N65932   5.121  10.368   7.060  0.3083  0.1602 -0.6721
  489MOL0     C65933   5.823  10.840   6.290 -0.6945 -0.7447  0.7035
  489MOL0     C65934   5.866  10.825   6.150  0.0633 -0.8277 -0.2644
  489MOL0     C65935   5.776  10.806   5.691  0.9679 -0.5025 -0.1067
  489MOL0     C65936   5.684  10.737   5.600 -0.4494 -0.1182 -0.7740
  489MOL0     C65937   5.704  10.749   5.464  0.7873  0.0139 -0.1277
  489MOL0     C65938   5.819  10.804   5.418  0.1382 -0.5903 -1.2988
  489MOL0     O65939   5.858  10.809   5.288 -0.6020 -0.0217 -0.2335
  489MOL0     C65940   5.769  10.876   5.190 -1.6698  0.3246 -0.2064
  489MOL0     C65941   5.718  11.014   5.222  0.5048 -0.1561  0.0927
  489MOL0     C65942   5.822  11.121   5.197  1.3441  0.1484 -1.2636
  489MOL0     C65943   5.816  11.248   5.283 -0.2056  0.3472 -0.3050
  489MOL0     C65944   5.691  11.312   5.301 -0.0124 -1.2695 -0.4250
  489MOL0     C65945   5.591  11.383   5.310 -1.5189 -0.0186 -0.0787
  489MOL0     C65946   5.906  10.866   5.500 -0.3288 -0.0712 -0.1017
  489MOL0     C65947   5.894  10.870   5.643  0.1495 -0.0372  1.3782
  489MOL0     H65948   5.673  11.062   6.021 -0.6415  0.9338  0.7844
  489MOL0     H65949   5.570  11.061   6.248 -0.2910  1.0938 -1.5413
  489MOL0     H65950   5.855  10.916   6.544 -0.7284 -2.6841 -1.5761
  489MOL0     H65951   5.755  11.060   6.541 -3.5838  0.4046  3.4877
  489MOL0     H65952   5.771  10.936   6.762 -0.3200 -1.0078  1.8440
  489MOL0     H65953   5.605  10.934   6.716 -0.4099 -1.8809  0.2938
  489MOL0     H65954   5.674  10.705   6.606 -0.8159 -1.1914  0.0569
  489MOL0     H65955   5.831  10.733   6.673 -1.1890 -0.9151 -1.8136
  489MOL0     H65956   5.732  10.590   6.839  0.6425 -0.4679 -0.3076
  489MOL0     H65957   5.720  10.752   6.905  4.0614  0.4766 -1.5005
  489MOL0     H65958   5.502  10.787   6.846 -0.6475 -0.1962 -1.6264
  489MOL0     H65959   5.480  10.623   6.764 -1.0353 -0.9752  1.3108
  489MOL0     H65960   5.555  10.519   6.971  2.3820  1.0927 -0.9501
  489MOL0     H65961   5.532  10.661   7.071  1.7925 -1.7475  0.2792
  489MOL0     H65962   5.296  10.676   6.964 -0.3479  1.0678  1.9864
  489MOL0     H65963   5.336  10.527   6.900  2.0226 -1.8305  0.3220
  489MOL0     H65964   5.317  10.596   7.202  3.3558  0.4802 -0.6194
  489MOL0     H65965   5.380  10.437   7.130  2.0226  2.0140 -2.7942
  489MOL0     H65966   5.088  10.632   7.260  0.8634  0.2363 -0.9186
  489MOL0     H65967   4.829  10.571   7.299 -1.5868  0.1706 -1.3130
  489MOL0     H65968   4.765  10.462   7.168 -2.3269  1.1229  1.7600
  489MOL0     H65969   4.713  10.388   7.418  0.0944 -0.8930  0.3573
  489MOL0     H65970   4.883  10.378   7.441  0.2493 -1.9465  0.8774
  489MOL0     H65971   4.818  10.166   7.397 -0.8373 -2.3079 -0.8272
  489MOL0     H65972   4.860  10.198   7.232  0.7424  0.3758  1.0466
  489MOL0     H65973   4.587  10.283   7.263 -0.0639 -0.3555 -0.6816
  489MOL0     H65974   4.595  10.146   7.363  1.0472 -0.7724 -0.2185
  489MOL0     H65975   4.630   9.939   6.957 -0.1459 -0.9193  1.3929
  489MOL0     H65976   4.396   9.705   6.843  2.7027 -1.0314  0.4821
  489MOL0     H65977   4.423   9.844   6.734 -0.9878 -0.1332 -0.1774
  489MOL0     H65978   4.558   9.778   6.815 -0.1812 -1.6336 -4.4792
  489MOL0     H65979   3.856  10.014   6.971 -1.6565  0.1794  0.9273
  489MOL0     H65980   3.621   9.923   6.946  1.6144  1.4031  0.6895
  489MOL0     H65981   3.378   9.697   6.854 -0.9175  1.8325 -1.6361
  489MOL0     H65982   3.515   9.780   6.776 -0.1142 -1.4164 -2.0565
  489MOL0     H65983   3.614   9.556   6.710  0.1362  0.0241  1.6861
  489MOL0     H65984   3.461   9.486   6.775  1.6993 -2.4913 -0.6034
  489MOL0     H65985   3.477   9.504   6.542  1.6970  0.4333  0.0111
  489MOL0     H65986   3.513   9.677   6.543 -2.2385  2.1749  0.4155
  489MOL0     H65987   3.266   9.524   6.649 -2.0713  1.7572  0.3279
  489MOL0     H65988   3.273   9.695   6.662  0.4025 -0.0080  1.3572
  489MOL0     H65989   3.266   9.508   6.424 -0.5561 -0.7541  0.8161
  489MOL0     H65990   3.290   9.674   6.387  1.0635 -1.2030 -0.5058
  489MOL0     H65991   3.041   9.541   6.510 -2.2688  1.5858  0.6802
  489MOL0     H65992   3.072   9.713   6.515  1.5872  1.2426 -1.5177
  489MOL0     H65993   3.080   9.701   6.239 -1.9571 -3.4654 -3.6665
  489MOL0     H65994   2.933   9.679   6.337 -0.0315  0.6952 -2.3392
  489MOL0     H65995   3.041   9.422   6.313  1.6981  1.9312  1.2814
  489MOL0     H65996   3.123   9.513   6.180 -0.7729 -1.0420 -1.1167
  489MOL0     H65997   3.775   9.521   7.010  0.2215 -0.9443 -3.2490
  489MOL0     H65998   4.007   9.617   7.020  1.2289  1.2668 -2.5880
  489MOL0     H65999   4.197  10.015   7.165 -0.3466  1.5326 -2.6222
  489MOL0     H66000   4.384  10.120   7.260 -0.3887 -1.3791  0.7738
  489MOL0     H66001   5.882  10.782   6.360  1.0384 -0.6284 -0.5661
  489MOL0     H66002   5.951  10.763   6.125  0.3721 -0.9207  0.9517
  489MOL0     H66003   5.594  10.689   5.637 -1.1932  2.8125  1.5490
  489MOL0     H66004   5.644  10.692   5.394  0.6236  0.4434 -0.3411
  489MOL0     H66005   5.815  10.881   5.091 -0.7149  3.5278  0.2672
  489MOL0     H66006   5.694  10.798   5.174  0.1753 -1.1651 -2.0686
  489MOL0     H66007   5.689  11.012   5.327  0.6187 -3.2388  0.1348
  489MOL0     H66008   5.624  11.034   5.169  0.3256 -3.4818 -1.0769
  489MOL0     H66009   5.812  11.149   5.092  0.3957 -2.0834 -1.8237
  489MOL0     H66010   5.922  11.079   5.213  0.1157 -2.2939  0.8321
  489MOL0     H66011   5.893  11.310   5.236  1.4314 -3.1966 -2.6902
  489MOL0     H66012   5.860  11.228   5.381  0.6293 -1.0158 -0.9332
  489MOL0     H66013   5.512  11.454   5.326  0.2531  1.6769  1.5932
  489MOL0     H66014   5.994  10.924   5.471 -1.0999  3.2122  3.2589
  489MOL0     H66015   5.960  10.930   5.704 -0.4371 -0.8734  2.8740
  490MOL0     O66016   2.778   4.259   1.846  0.0159 -0.3063 -0.5930
  490MOL0     C66017   2.844   4.238   1.747  0.7506  0.7983  0.1905
  490MOL0     O66018   2.938   4.143   1.729 -0.0840 -0.3061 -0.1531
  490MOL0     C66019   2.995   4.091   1.847  0.6979 -1.0759  0.5818
  490MOL0     C66020   3.045   4.170   1.950  0.0577  0.0133 -1.0698
  490MOL0     C66021   3.099   4.108   2.068  0.2976 -0.3086  0.3464
  490MOL0     C66022   3.065   3.978   2.112  0.5728 -0.4511  0.7361
  490MOL0     O66023   3.078   3.927   2.237 -0.0279  0.3037  0.0013
  490MOL0     C66024   3.209   3.952   2.298 -0.7710 -0.5260 -0.7874
  490MOL0     C66025   3.234   3.852   2.415 -0.9581  0.2190 -0.0495
  490MOL0     C66026   3.233   3.706   2.361 -0.0735  0.1966  0.2852
  490MOL0     C66027   3.235   3.607   2.477 -0.4406  0.6656 -0.0467
  490MOL0     C66028   3.230   3.461   2.423 -0.1192 -0.4397 -0.3561
  490MOL0     C66029   3.296   3.365   2.518 -0.1385 -0.2135 -1.0948
  490MOL0     C66030   3.239   3.364   2.659  0.6891 -0.2536 -0.3899
  490MOL0     C66031   3.278   3.230   2.730 -0.5768  0.6050  0.5690
  490MOL0     N66032   3.426   3.215   2.737 -0.2686  0.1327  0.1080
  490MOL0     C66033   3.527   3.280   2.812  1.0053 -0.6146 -0.3145
  490MOL0     C66034   3.641   3.219   2.770 -0.2934 -0.6447 -0.4163
  490MOL0     C66035   3.778   3.237   2.832 -0.2302 -0.3186  0.0292
  490MOL0     C66036   3.856   3.354   2.773  0.5917 -1.1481  0.1819
  490MOL0     C66037   3.876   3.351   2.619  0.2272  0.0646  0.6417
  490MOL0     C66038   3.944   3.220   2.583 -0.1578  0.1477  0.0959
  490MOL0     O66039   3.997   3.201   2.446 -0.3084  0.4084  0.8588
  490MOL0     C66040   3.914   3.154   2.354 -1.0344  0.1288  0.7744
  490MOL0     C66041   3.771   3.175   2.342  0.0258  0.1870  0.0300
  490MOL0     C66042   3.708   3.147   2.219  0.2761 -0.8984 -0.1849
  490MOL0     C66043   3.575   3.195   2.208  0.4806 -0.5742 -0.2053
  490MOL0     C66044   3.785   3.080   2.116 -0.7315 -0.2040 -0.1130
  490MOL0     C66045   3.731   3.052   1.981  0.1423  0.4114 -0.8045
  490MOL0     O66046   3.821   3.028   1.890 -0.2664 -0.1740  0.0708
  490MOL0     C66047   3.795   2.987   1.769  0.5154 -0.2850 -0.9376
  490MOL0     C66048   3.851   2.864   1.728 -0.6010 -0.8775  0.1166
  490MOL0     C66049   3.833   2.821   1.595  0.1505 -0.5074 -0.2168
  490MOL0     C66050   3.761   2.902   1.506 -0.0088  0.1703 -0.1860
  490MOL0     O66051   3.746   2.860   1.379 -1.1509  0.1152  0.6678
  490MOL0     C66052   3.867   2.896   1.306  0.5820  0.0577 -0.3600
  490MOL0     C66053   3.842   3.017   1.214  0.1244  1.2165  0.1790
  490MOL0     C66054   3.961   3.042   1.127  0.6678  0.5881  0.2076
  490MOL0     C66055   3.987   3.181   1.075 -0.5658  0.5693  0.4488
  490MOL0     C66056   3.858   3.251   1.013  0.0625  0.5019 -1.1266
  490MOL0     C66057   3.896   3.395   0.965  0.6105 -0.1632  0.4867
  490MOL0     C66058   3.786   3.485   0.898  0.0710 -0.5248  0.0375
  490MOL0     C66059   3.775   3.617   0.970 -0.1267 -0.0495  0.5040
  490MOL0    Cl66060   3.627   3.709   0.921  0.2889  0.3951 -0.0286
  490MOL0     C66061   3.699   3.016   1.549 -0.2616 -1.3801  0.6301
  490MOL0     C66062   3.714   3.060   1.682 -0.0650 -0.3897  0.6747
  490MOL0     O66063   3.619   3.043   1.965  0.5206 -0.1251 -0.4577
  490MOL0     C66064   3.923   3.060   2.135  0.8127  0.1782 -0.3995
  490MOL0     C66065   3.990   3.092   2.257  0.8660  0.8927 -0.2454
  490MOL0     N66066   3.612   3.134   2.669  0.0256  0.8175  0.9454
  490MOL0     N66067   3.487   3.130   2.652 -0.1569 -0.4686 -0.6075
  490MOL0     C66068   2.996   3.904   2.013 -0.5678 -0.7059  0.1653
  490MOL0     C66069   2.967   3.957   1.887  0.8955  0.8372  0.0538
  490MOL0     C66070   2.823   4.336   1.639 -0.7253 -0.0618  0.0949
  490MOL0     C66071   2.746   4.449   1.663  0.1866 -0.4385  0.4734
  490MOL0     C66072   2.719   4.530   1.555  1.1235 -0.1227  1.0034
  490MOL0     C66073   2.778   4.512   1.428 -0.7715  0.3156  0.4138
  490MOL0     O66074   2.764   4.602   1.329 -0.2305  0.2481  0.5402
  490MOL0     C66075   2.629   4.636   1.279 -0.2159  0.8836  0.6927
  490MOL0     C66076   2.638   4.656   1.124  0.2931  0.5179  0.1556
  490MOL0     C66077   2.632   4.529   1.029  0.3938 -0.5356  0.0007
  490MOL0     C66078   2.770   4.466   1.023  0.3034  0.2591 -0.2112
  490MOL0     C66079   2.768   4.329   1.067  0.7571 -0.1271  0.6153
  490MOL0     C66080   2.755   4.219   1.128  0.2458 -0.6956  0.2467
  490MOL0     C66081   2.860   4.407   1.406  0.9259 -0.0260 -0.8378
  490MOL0     C66082   2.878   4.318   1.511 -0.2506  1.0032  0.1862
  490MOL0     H66083   3.053   4.278   1.956 -0.6650 -0.0150  2.3589
  490MOL0     H66084   3.140   4.170   2.146 -2.8167 -0.3143  2.1134
  490MOL0     H66085   3.283   3.968   2.219  0.9587  1.8385  1.1628
  490MOL0     H66086   3.195   4.052   2.341  1.8517  1.4335 -4.0302
  490MOL0     H66087   3.329   3.868   2.467 -2.1871 -1.1609  2.8317
  490MOL0     H66088   3.160   3.854   2.495 -2.4372 -1.2890 -1.3084
  490MOL0     H66089   3.154   3.695   2.286 -0.1375 -0.2058  0.4066
  490MOL0     H66090   3.324   3.693   2.303 -0.6579  2.4176 -1.2530
  490MOL0     H66091   3.331   3.613   2.530  0.6253 -1.1807 -1.6094
  490MOL0     H66092   3.155   3.632   2.546  0.6935  0.1373  1.5227
  490MOL0     H66093   3.126   3.435   2.401 -0.0521  0.9813 -2.6701
  490MOL0     H66094   3.281   3.453   2.326  0.3063 -0.2749 -0.1486
  490MOL0     H66095   3.270   3.268   2.475 -1.0349 -0.3589 -0.2593
  490MOL0     H66096   3.405   3.375   2.520 -0.0789 -0.8688 -0.6177
  490MOL0     H66097   3.276   3.447   2.720  2.8866 -2.2297  1.1301
  490MOL0     H66098   3.132   3.383   2.674  0.0369 -3.4210 -0.2772
  490MOL0     H66099   3.228   3.145   2.681 -0.1593 -1.2405  3.1619
  490MOL0     H66100   3.245   3.230   2.834 -1.2851 -1.8806  0.4076
  490MOL0     H66101   3.522   3.361   2.884  2.1727  0.9815 -1.9374
  490MOL0     H66102   3.762   3.249   2.939 -0.9492 -1.7731  0.1163
  490MOL0     H66103   3.847   3.152   2.841  2.1327  1.6658  2.0701
  490MOL0     H66104   3.951   3.375   2.823  1.9990 -1.0363 -2.3534
  490MOL0     H66105   3.799   3.443   2.802 -1.2100 -1.7656 -1.3136
  490MOL0     H66106   3.936   3.431   2.575  1.8997 -2.8611 -2.8841
  490MOL0     H66107   3.776   3.363   2.577 -0.2622  3.1247  2.3906
  490MOL0     H66108   3.876   3.134   2.593 -0.0491 -0.2826 -2.2685
  490MOL0     H66109   4.035   3.205   2.642 -0.4623  3.0635  1.4687
  490MOL0     H66110   3.718   3.214   2.429 -0.7756 -1.2585  0.2241
  490MOL0     H66111   3.551   3.247   2.301 -1.4632 -0.1284 -0.9181
  490MOL0     H66112   3.556   3.257   2.120 -1.9047  0.9977  1.3055
  490MOL0     H66113   3.513   3.106   2.189 -1.2493  0.2924  1.0912
  490MOL0     H66114   3.910   2.800   1.792  1.1662 -0.3236 -0.8971
  490MOL0     H66115   3.877   2.729   1.559 -0.4761 -1.5385  1.5317
  490MOL0     H66116   3.961   2.910   1.361 -0.8702 -3.4617  3.5935
  490MOL0     H66117   3.895   2.816   1.237 -0.4384 -0.7112  0.1033
  490MOL0     H66118   3.749   3.004   1.159  0.5504  1.4288 -0.6028
  490MOL0     H66119   3.825   3.103   1.279 -1.3828  1.7210 -0.8404
  490MOL0     H66120   3.947   2.978   1.040  1.3442  0.2267  0.3510
  490MOL0     H66121   4.050   2.999   1.174  1.2453  0.2416 -1.1569
  490MOL0     H66122   4.019   3.252   1.152 -1.5637  1.0906  0.4017
  490MOL0     H66123   4.062   3.180   0.996 -1.9009  3.7393 -1.0423
  490MOL0     H66124   3.777   3.247   1.086 -0.8906 -1.1471 -2.2200
  490MOL0     H66125   3.805   3.198   0.933 -0.4054  1.0091 -1.1586
  490MOL0     H66126   3.935   3.436   1.059 -2.9923  1.4456  1.4545
  490MOL0     H66127   3.981   3.382   0.898  1.0584 -0.8825  1.1749
  490MOL0     H66128   3.690   3.433   0.902  1.8946 -4.4589 -1.6393
  490MOL0     H66129   3.826   3.509   0.799 -0.8096  0.7074 -0.0449
  490MOL0     H66130   3.867   3.675   0.956  0.1915 -0.7354 -0.3746
  490MOL0     H66131   3.769   3.595   1.077  0.5111 -1.3927  0.2855
  490MOL0     H66132   3.652   3.086   1.482 -1.7235  1.4352  4.2542
  490MOL0     H66133   3.684   3.162   1.704 -1.6609 -1.0969  1.9700
  490MOL0     H66134   3.994   3.020   2.065 -0.0134 -0.3252 -0.9676
  490MOL0     H66135   4.094   3.069   2.278  0.2845 -0.3044  1.5630
  490MOL0     H66136   2.962   3.804   2.035  3.4717 -2.2683  0.1938
  490MOL0     H66137   2.909   3.891   1.824  0.0011 -0.4660  2.1374
  490MOL0     H66138   2.690   4.465   1.754 -2.1421 -0.1525 -0.9441
  490MOL0     H66139   2.654   4.615   1.573  0.5685 -0.0818 -0.9604
  490MOL0     H66140   2.560   4.553   1.298  0.5442 -0.2266 -1.0767
  490MOL0     H66141   2.596   4.717   1.345 -0.0999 -2.7821  5.9002
  490MOL0     H66142   2.723   4.721   1.101  2.0740 -1.6701  0.1890
  490MOL0     H66143   2.550   4.718   1.104  3.4544  4.8944 -1.8405
  490MOL0     H66144   2.612   4.573   0.931  2.3964  0.7136  0.0827
  490MOL0     H66145   2.558   4.462   1.072 -0.3961  0.9255  0.9764
  490MOL0     H66146   2.835   4.520   1.092  0.3350 -0.6895  0.5187
  490MOL0     H66147   2.815   4.479   0.924  1.8338  1.3592  0.5935
  490MOL0     H66148   2.741   4.129   1.186  0.1117  0.8524  2.7719
  490MOL0     H66149   2.911   4.394   1.311 -0.8698  1.1180 -2.0170
  490MOL0     H66150   2.950   4.238   1.496 -2.6673 -1.3083  0.0401
  491MOL0     O66151   1.328  11.113   6.388  0.4512 -0.0299 -0.2404
  491MOL0     C66152   1.442  11.165   6.366  0.5561  0.7401  0.9177
  491MOL0     O66153   1.475  11.294   6.348 -0.5104  0.1465  0.1963
  491MOL0     C66154   1.381  11.393   6.353 -0.3228  0.7697  0.5018
  491MOL0     C66155   1.419  11.518   6.408  0.4647 -0.3159  0.2913
  491MOL0     C66156   1.338  11.620   6.405 -0.5347 -0.5681 -2.0397
  491MOL0     C66157   1.204  11.606   6.345  0.3218 -1.0234  0.5277
  491MOL0     O66158   1.121  11.711   6.336  0.7529  0.4086  0.5276
  491MOL0     C66159   1.115  11.800   6.442  0.2113  0.5561  0.5286
  491MOL0     C66160   1.068  11.734   6.565  0.4862  0.4281 -1.0672
  491MOL0     C66161   0.940  11.639   6.552 -0.6971 -0.4104 -0.4954
  491MOL0     C66162   0.934  11.564   6.677  0.1678  0.2668 -0.7754
  491MOL0     C66163   0.813  11.465   6.681 -0.9710 -0.9185 -0.9356
  491MOL0     C66164   0.683  11.525   6.722  0.8473  0.3727  0.2024
  491MOL0     C66165   0.686  11.568   6.863 -0.6936  0.4831 -0.1196
  491MOL0     C66166   0.544  11.597   6.923  0.0927  0.9799 -0.1084
  491MOL0     N66167   0.474  11.470   6.953 -0.1147 -0.2978  0.9723
  491MOL0     C66168   0.491  11.401   7.076 -0.2097  0.5502  0.6081
  491MOL0     C66169   0.384  11.323   7.085  0.5314 -0.7857  0.5353
  491MOL0     C66170   0.355  11.230   7.195  0.0870  0.5594 -0.5658
  491MOL0     C66171   0.414  11.093   7.164  0.0509  0.4942 -0.0819
  491MOL0     C66172   0.389  10.986   7.278 -0.8788 -0.8360 -0.7109
  491MOL0     C66173   0.496  10.880   7.254 -0.1277  0.9761 -0.5788
  491MOL0     O66174   0.613  10.887   7.325 -0.5530 -0.2446 -1.0508
  491MOL0     C66175   0.603  10.850   7.460 -1.2526  0.0108 -0.0569
  491MOL0     C66176   0.724  10.842   7.532  0.1408 -0.2175  0.1213
  491MOL0     C66177   0.740  10.796   7.662 -0.1893 -0.4707  0.0303
  491MOL0     C66178   0.870  10.809   7.736 -0.9819 -0.0005  0.2127
  491MOL0     C66179   0.623  10.746   7.724 -0.6690 -0.4278 -0.2504
  491MOL0     C66180   0.621  10.714   7.870 -0.1393 -0.8416 -0.9810
  491MOL0     O66181   0.675  10.808   7.961 -0.3852 -0.0524  0.0720
  491MOL0     C66182   0.679  10.756   8.087 -0.4222 -0.7607  0.3961
  491MOL0     C66183   0.731  10.636   8.137  0.1971  0.0603  0.9856
  491MOL0     C66184   0.719  10.602   8.275  0.1977  0.5398 -1.1673
  491MOL0     C66185   0.655  10.679   8.369 -0.0733 -1.1797  0.2673
  491MOL0     O66186   0.652  10.658   8.500  1.1278  0.9243  0.1354
  491MOL0     C66187   0.729  10.547   8.557  0.2091 -0.6379  0.1854
  491MOL0     C66188   0.742  10.586   8.700  0.1100 -0.5185  0.4964
  491MOL0     C66189   0.603  10.581   8.770 -0.7937 -0.0111 -0.4093
  491MOL0     C66190   0.591  10.687   8.881 -0.0738  0.3046  0.3705
  491MOL0     C66191   0.605  10.638   9.025 -0.6449 -0.2890 -0.6702
  491MOL0     C66192   0.758  10.610   9.061 -0.4308  0.7996 -1.2591
  491MOL0     C66193   0.782  10.563   9.205  0.6456  0.6010  0.1828
  491MOL0     C66194   0.799  10.687   9.308  0.3230 -0.6642  0.6391
  491MOL0    Cl66195   0.634  10.769   9.324  0.1271  0.3025 -0.3702
  491MOL0     C66196   0.600  10.803   8.313 -0.3120  0.6613 -0.4849
  491MOL0     C66197   0.627  10.844   8.181  0.2716  0.4029  1.0089
  491MOL0     O66198   0.571  10.609   7.899 -0.6251 -0.5540 -0.1514
  491MOL0     C66199   0.499  10.758   7.662 -0.6048 -1.0560  0.5205
  491MOL0     C66200   0.484  10.807   7.528 -1.2180  0.1115 -0.5601
  491MOL0     N66201   0.308  11.344   6.967 -0.3830 -0.2362 -0.8437
  491MOL0     N66202   0.360  11.439   6.898 -0.0032  0.6241  0.7415
  491MOL0     C66203   1.178  11.488   6.286 -0.2020 -0.0984  0.0075
  491MOL0     C66204   1.266  11.388   6.277  0.9008 -0.0615  0.7461
  491MOL0     C66205   1.540  11.056   6.333 -0.8527 -0.2899  0.0827
  491MOL0     C66206   1.507  10.920   6.335  0.5507  0.5825  0.9448
  491MOL0     C66207   1.580  10.822   6.270  0.0444 -1.0963 -0.0532
  491MOL0     C66208   1.699  10.857   6.216 -0.6430 -0.0304 -0.2688
  491MOL0     O66209   1.750  10.750   6.148  0.3612  1.6270 -0.7271
  491MOL0     C66210   1.867  10.763   6.061  0.1983  1.1776  0.0552
  491MOL0     C66211   1.819  10.815   5.923 -0.6709 -0.7986 -0.7769
  491MOL0     C66212   1.935  10.831   5.831 -0.5057 -1.5923  0.3490
  491MOL0     C66213   1.887  10.859   5.685  0.2235 -0.0414 -0.3377
  491MOL0     C66214   1.822  10.987   5.668  0.1500 -0.4196  0.2178
  491MOL0     C66215   1.768  11.090   5.654  0.4159 -0.3788  0.2248
  491MOL0     C66216   1.754  10.984   6.219  1.6371  0.2864  0.5993
  491MOL0     C66217   1.667  11.089   6.270 -0.5438 -0.6533 -0.0014
  491MOL0     H66218   1.520  11.532   6.445  0.9911  0.3665 -1.3224
  491MOL0     H66219   1.356  11.713   6.459 -0.6644 -2.4465  1.5931
  491MOL0     H66220   1.205  11.862   6.454  2.2348 -2.3752  1.8409
  491MOL0     H66221   1.038  11.865   6.400 -0.4306 -1.8846 -2.4217
  491MOL0     H66222   1.151  11.675   6.603  1.7782  4.0812  2.5743
  491MOL0     H66223   1.053  11.810   6.643  1.7447 -0.1066 -0.2726
  491MOL0     H66224   0.857  11.709   6.540 -2.4632 -2.6496 -2.3859
  491MOL0     H66225   0.944  11.579   6.460  2.3230  2.2784 -2.3498
  491MOL0     H66226   1.027  11.508   6.695 -1.1031 -1.8204 -0.3686
  491MOL0     H66227   0.934  11.645   6.749  0.6519 -1.3980  1.1956
  491MOL0     H66228   0.799  11.424   6.581 -1.0274  3.5081 -2.9714
  491MOL0     H66229   0.845  11.379   6.741  2.2251  2.0828  2.1218
  491MOL0     H66230   0.670  11.616   6.663 -2.9053 -2.3104 -3.6874
  491MOL0     H66231   0.604  11.463   6.680  0.1101  1.8776 -0.7448
  491MOL0     H66232   0.734  11.489   6.921  2.7427  2.1557 -0.4728
  491MOL0     H66233   0.741  11.662   6.871  1.6554 -0.6622 -1.7049
  491MOL0     H66234   0.485  11.661   6.858 -5.4727 -1.8533  1.5213
  491MOL0     H66235   0.557  11.638   7.024 -0.8571  0.0531  0.4157
  491MOL0     H66236   0.572  11.419   7.146 -0.8706 -0.9538  1.7995
  491MOL0     H66237   0.405  11.267   7.285  2.9378  0.8008 -2.1376
  491MOL0     H66238   0.248  11.207   7.197 -0.1711  1.0065 -3.9459
  491MOL0     H66239   0.523  11.101   7.161  0.4346 -2.2039  2.0789
  491MOL0     H66240   0.368  11.054   7.073  1.6505 -0.6253 -0.4516
  491MOL0     H66241   0.289  10.945   7.262  0.4970 -5.7786  1.2414
  491MOL0     H66242   0.419  11.028   7.374  1.0617 -1.4257 -1.0205
  491MOL0     H66243   0.535  10.886   7.152  1.6059  2.2192  0.1123
  491MOL0     H66244   0.443  10.784   7.248 -1.1708  1.4520  0.5969
  491MOL0     H66245   0.820  10.851   7.482  3.6189 -2.6865  5.4808
  491MOL0     H66246   0.890  10.911   7.768  0.7270  0.5374 -2.3001
  491MOL0     H66247   0.869  10.763   7.835 -1.7787 -0.1490  0.1430
  491MOL0     H66248   0.952  10.771   7.675  1.0079  1.1822  2.0248
  491MOL0     H66249   0.787  10.576   8.065  2.5183  1.9055  1.1267
  491MOL0     H66250   0.757  10.510   8.319  1.2349  2.1932  1.7372
  491MOL0     H66251   0.683  10.450   8.534  1.3008 -1.2606  0.5602
  491MOL0     H66252   0.825  10.550   8.506 -0.0223 -1.5042 -0.3400
  491MOL0     H66253   0.806  10.513   8.750  1.9731  0.9001  0.2937
  491MOL0     H66254   0.805  10.675   8.711  2.1345 -1.3765 -2.6165
  491MOL0     H66255   0.581  10.478   8.798  0.8762 -0.1094  0.7243
  491MOL0     H66256   0.532  10.607   8.692  0.0624  2.3118 -0.4967
  491MOL0     H66257   0.670  10.763   8.875 -1.1240  1.4858  0.9926
  491MOL0     H66258   0.494  10.735   8.867 -0.7916 -1.3394 -0.5684
  491MOL0     H66259   0.535  10.556   9.044  2.3534 -2.6609  0.8146
  491MOL0     H66260   0.569  10.727   9.079 -1.4902  2.7745 -5.6019
  491MOL0     H66261   0.793  10.535   8.989  2.8575  2.0818 -1.1557
  491MOL0     H66262   0.825  10.694   9.037 -0.0740  0.3995 -1.6854
  491MOL0     H66263   0.863  10.490   9.206 -0.6379 -0.9426 -1.8886
  491MOL0     H66264   0.685  10.515   9.216  0.5546 -0.6186 -4.1023
  491MOL0     H66265   0.870  10.760   9.267 -1.4457  0.9465  0.2961
  491MOL0     H66266   0.839  10.653   9.404 -0.2171 -2.2852  0.3179
  491MOL0     H66267   0.558  10.873   8.384 -1.2538  0.7643 -1.1221
  491MOL0     H66268   0.606  10.946   8.150 -1.6968  0.1945  1.5084
  491MOL0     H66269   0.412  10.717   7.713 -0.5798  0.2212  1.6497
  491MOL0     H66270   0.384  10.809   7.485 -1.0463  1.2938 -0.9419
  491MOL0     H66271   1.085  11.468   6.233 -2.4261  0.1410  3.4785
  491MOL0     H66272   1.240  11.296   6.226 -1.7289  2.7872 -3.8282
  491MOL0     H66273   1.416  10.880   6.379  1.7320 -1.9934  1.2015
  491MOL0     H66274   1.543  10.720   6.271 -0.9709 -0.7398 -0.2090
  491MOL0     H66275   1.938  10.841   6.092 -1.2074  2.7568 -0.5459
  491MOL0     H66276   1.912  10.665   6.042  0.3122  1.4865 -1.3975
  491MOL0     H66277   1.772  10.913   5.940  0.9890  0.2391 -1.9551
  491MOL0     H66278   1.748  10.741   5.885 -2.4835 -2.8479  5.2847
  491MOL0     H66279   2.000  10.744   5.836 -1.5003 -2.5904 -2.2660
  491MOL0     H66280   1.993  10.915   5.872  0.7147 -2.6320  0.8090
  491MOL0     H66281   1.818  10.779   5.656  0.6776 -0.2420 -0.8866
  491MOL0     H66282   1.980  10.860   5.628  1.4415  2.5003  1.4873
  491MOL0     H66283   1.713  11.181   5.660  0.7559 -0.1381 -0.1920
  491MOL0     H66284   1.843  11.022   6.169  1.3027 -0.1365 -0.3368
  491MOL0     H66285   1.722  11.182   6.276 -1.2904 -0.2878  2.8587
  492MOL0     O66286  10.113   9.627   0.360  0.1136 -0.4819 -0.4910
  492MOL0     C66287  10.094   9.732   0.305  0.4246 -0.9335 -0.0601
  492MOL0     O66288   9.987   9.756   0.225 -0.2916  0.2832 -0.0300
  492MOL0     C66289   9.902   9.646   0.197 -0.0657 -1.3198  0.3491
  492MOL0     C66290   9.949   9.538   0.113  0.9092 -0.4240 -0.2084
  492MOL0     C66291   9.845   9.463   0.060  0.2650 -0.1202 -0.5143
  492MOL0     C66292   9.707   9.484   0.082 -0.3798  0.6691  0.1634
  492MOL0     O66293   9.613   9.402   0.018  0.0726 -0.4290 -0.7670
  492MOL0     C66294   9.500   9.341   0.092  0.3148 -0.5677  0.2141
  492MOL0     C66295   9.368   9.420   0.078  0.5195  0.8935  0.2523
  492MOL0     C66296   9.345   9.472  -0.060  0.4474  0.6879  0.3857
  492MOL0     C66297   9.328   9.366  -0.158 -0.3493  0.0199 -0.1457
  492MOL0     C66298   9.315   9.409  -0.307 -0.4678 -0.8042 -0.1218
  492MOL0     C66299   9.165   9.437  -0.361  0.0480 -0.1724 -0.4744
  492MOL0     C66300   9.146   9.423  -0.510 -0.6439  0.2679  0.9469
  492MOL0     C66301   9.252   9.492  -0.591 -0.4093 -0.3223 -0.4326
  492MOL0     N66302   9.240   9.458  -0.730 -0.3438 -0.7194  0.0928
  492MOL0     C66303   9.326   9.375  -0.801 -0.2929 -0.3148  0.3794
  492MOL0     C66304   9.257   9.372  -0.922 -0.0562  0.1299 -0.3877
  492MOL0     C66305   9.293   9.318  -1.060  0.5012 -0.5104 -0.6274
  492MOL0     C66306   9.417   9.395  -1.124  0.0919 -0.0178  0.5286
  492MOL0     C66307   9.437   9.360  -1.272 -0.1892  0.3156 -0.6120
  492MOL0     C66308   9.328   9.431  -1.351  0.3625 -0.8764  0.4445
  492MOL0     O66309   9.321   9.581  -1.348  0.5484 -0.5046  0.1689
  492MOL0     C66310   9.218   9.631  -1.420 -1.1172  0.3991  1.0266
  492MOL0     C66311   9.245   9.679  -1.548 -0.1577 -0.1055 -0.4228
  492MOL0     C66312   9.144   9.739  -1.624  0.4329  0.9342 -0.2183
  492MOL0     C66313   9.184   9.794  -1.750  0.3261  0.0502 -0.0738
  492MOL0     C66314   9.009   9.743  -1.577  1.1865  0.8226  0.3312
  492MOL0     C66315   8.889   9.775  -1.655  0.0903 -0.6503 -0.2232
  492MOL0     O66316   8.773   9.805  -1.591 -0.5270  0.4906 -0.5659
  492MOL0     C66317   8.649   9.761  -1.635 -0.2820 -0.3297 -0.5300
  492MOL0     C66318   8.541   9.823  -1.567  0.0104 -0.2882  0.5877
  492MOL0     C66319   8.416   9.772  -1.588 -0.2954 -0.3291 -0.8704
  492MOL0     C66320   8.398   9.665  -1.673 -0.4366  0.6908  1.4719
  492MOL0     O66321   8.262   9.636  -1.690 -0.2122  0.6896  0.1754
  492MOL0     C66322   8.228   9.493  -1.724 -0.2042 -0.3936 -0.0332
  492MOL0     C66323   8.222   9.491  -1.884 -0.3343  0.8686 -0.5902
  492MOL0     C66324   8.200   9.361  -1.958 -0.4562  0.0702 -0.4480
  492MOL0     C66325   8.335   9.299  -1.981 -0.0414  0.0003 -0.1186
  492MOL0     C66326   8.315   9.157  -2.035 -0.2446  0.4674 -0.3060
  492MOL0     C66327   8.448   9.072  -2.047  0.2863 -1.1795  0.7220
  492MOL0     C66328   8.559   9.140  -2.125  0.0186  0.6595 -0.6762
  492MOL0     C66329   8.538   9.182  -2.264  0.2316 -0.4838  0.9714
  492MOL0    Cl66330   8.699   9.223  -2.343 -0.1075  0.2957 -0.1629
  492MOL0     C66331   8.505   9.587  -1.725 -0.2013  1.3707 -0.9398
  492MOL0     C66332   8.629   9.646  -1.718  0.8538 -0.9247  0.4314
  492MOL0     O66333   8.899   9.761  -1.779  0.5562  0.4575  0.3152
  492MOL0     C66334   8.983   9.704  -1.451 -0.2681 -0.6761  0.9160
  492MOL0     C66335   9.088   9.647  -1.374  0.9902 -0.1176 -0.0408
  492MOL0     N66336   9.145   9.446  -0.921 -0.8231  0.4595  0.5051
  492MOL0     N66337   9.144   9.506  -0.814 -0.2882 -0.3184 -0.0676
  492MOL0     C66338   9.675   9.586   0.168  1.1028  1.0477 -0.5695
  492MOL0     C66339   9.764   9.673   0.220 -0.2462  0.8259  0.2589
  492MOL0     C66340  10.175   9.855   0.332  0.7724 -0.4871 -0.8415
  492MOL0     C66341  10.126   9.988   0.299  0.7316  1.1042 -0.9337
  492MOL0     C66342  10.201  10.102   0.316  0.0820  0.1574 -0.4449
  492MOL0     C66343  10.325  10.095   0.378  0.1061  0.6877  0.2732
  492MOL0     O66344  10.388  10.218   0.404  0.2611 -0.2666 -0.0945
  492MOL0     C66345  10.524  10.201   0.458  0.8650  0.0123  0.5200
  492MOL0     C66346  10.603  10.330   0.472 -0.0272 -0.1268  1.0618
  492MOL0     C66347  10.611  10.411   0.343 -0.2271 -0.2588  0.0112
  492MOL0     C66348  10.726  10.514   0.339  0.0863 -0.3517 -0.1336
  492MOL0     C66349  10.753  10.611   0.449  0.3409 -0.0574  0.7180
  492MOL0     C66350  10.760  10.685   0.552 -0.3840 -0.0022 -0.0484
  492MOL0     C66351  10.375   9.968   0.426  1.0913  1.0092  0.5110
  492MOL0     C66352  10.294   9.849   0.404 -0.4082  0.0574  1.0241
  492MOL0     H66353  10.054   9.536   0.086  0.3392 -2.7016 -2.5745
  492MOL0     H66354   9.875   9.387  -0.012 -1.3848 -0.7006 -0.6158
  492MOL0     H66355   9.484   9.246   0.040  0.4706  1.0134 -2.9929
  492MOL0     H66356   9.520   9.353   0.198 -2.6143  3.0254  0.5982
  492MOL0     H66357   9.283   9.361   0.115  0.5682  0.6015 -0.1015
  492MOL0     H66358   9.367   9.513   0.136 -0.4143  0.8757  0.2919
  492MOL0     H66359   9.251   9.527  -0.060  0.5574  0.9395 -1.8786
  492MOL0     H66360   9.427   9.538  -0.090 -0.3338  2.9681  2.8449
  492MOL0     H66361   9.414   9.301  -0.171  1.5968  2.7579 -2.2870
  492MOL0     H66362   9.236   9.308  -0.147  1.0008 -1.9383  1.4798
  492MOL0     H66363   9.375   9.501  -0.315 -0.7032 -0.3651  2.2933
  492MOL0     H66364   9.357   9.336  -0.376 -1.6344  0.3626 -2.1722
  492MOL0     H66365   9.090   9.372  -0.315 -0.2154  0.6402  0.2683
  492MOL0     H66366   9.140   9.537  -0.324  0.1258  0.1720 -1.3243
  492MOL0     H66367   9.136   9.318  -0.539 -3.8144  0.7750 -0.1582
  492MOL0     H66368   9.053   9.468  -0.544 -0.5657 -0.5457 -0.4357
  492MOL0     H66369   9.351   9.465  -0.554 -0.1726 -1.8165 -2.0381
  492MOL0     H66370   9.233   9.600  -0.590 -1.7361 -0.5182  1.7282
  492MOL0     H66371   9.419   9.328  -0.770 -2.1677 -2.7483  2.7616
  492MOL0     H66372   9.323   9.214  -1.040 -0.0920 -0.9249 -1.8024
  492MOL0     H66373   9.205   9.307  -1.123 -0.1028 -0.6597  0.2216
  492MOL0     H66374   9.508   9.359  -1.074  0.1007  0.0007  0.5254
  492MOL0     H66375   9.422   9.503  -1.109 -0.7201  0.2588 -1.0064
  492MOL0     H66376   9.422   9.252  -1.280 -0.8823  0.4821 -2.1201
  492MOL0     H66377   9.540   9.375  -1.304  0.5385 -0.6862  1.1414
  492MOL0     H66378   9.226   9.410  -1.315 -0.2051 -2.9362 -2.0685
  492MOL0     H66379   9.345   9.395  -1.453 -0.0021  0.1018  0.0250
  492MOL0     H66380   9.345   9.661  -1.587  0.4897 -2.4490  1.9940
  492MOL0     H66381   9.125   9.885  -1.764 -1.1616  0.2729  5.4893
  492MOL0     H66382   9.293   9.798  -1.751  0.3208  0.9212  1.0163
  492MOL0     H66383   9.159   9.724  -1.831  0.2877 -0.1132  0.0785
  492MOL0     H66384   8.558   9.907  -1.500 -0.7416 -0.3885  0.9153
  492MOL0     H66385   8.336   9.833  -1.550  0.5110 -0.5705  1.3296
  492MOL0     H66386   8.307   9.424  -1.695 -0.5228 -1.5510 -1.8034
  492MOL0     H66387   8.128   9.462  -1.691 -0.7090 -1.0209 -2.0288
  492MOL0     H66388   8.128   9.541  -1.911 -1.9028 -1.9843 -0.7614
  492MOL0     H66389   8.310   9.537  -1.929 -1.7859  2.9670 -1.4772
  492MOL0     H66390   8.159   9.380  -2.058  0.7157 -3.3661 -1.7365
  492MOL0     H66391   8.140   9.290  -1.901  0.2928 -0.4537 -0.2993
  492MOL0     H66392   8.395   9.361  -2.048  0.9342 -0.4448  0.3194
  492MOL0     H66393   8.387   9.297  -1.884  2.7416 -3.8295 -1.4471
  492MOL0     H66394   8.261   9.169  -2.129  1.4625 -0.1028 -1.4113
  492MOL0     H66395   8.244   9.105  -1.971  0.1133 -1.5087 -1.4563
  492MOL0     H66396   8.474   9.045  -1.945  0.7205  0.1867  0.9943
  492MOL0     H66397   8.416   8.982  -2.101  0.4528 -1.5488  1.2286
  492MOL0     H66398   8.632   9.058  -2.133  0.5381  0.7094  2.2339
  492MOL0     H66399   8.610   9.220  -2.071  4.1088 -1.3172 -1.2415
  492MOL0     H66400   8.474   9.270  -2.265 -1.2964 -1.5313 -1.1301
  492MOL0     H66401   8.492   9.105  -2.326  0.8018 -0.4023  0.4373
  492MOL0     H66402   8.487   9.489  -1.768  1.0145 -0.9010  3.1535
  492MOL0     H66403   8.712   9.599  -1.769  1.2329 -0.6963  0.8208
  492MOL0     H66404   8.890   9.720  -1.398  0.4560  1.6839  1.5799
  492MOL0     H66405   9.066   9.609  -1.274 -1.1678 -1.0191 -0.7974
  492MOL0     H66406   9.568   9.596   0.187  0.8619 -0.7251 -0.8700
  492MOL0     H66407   9.722   9.753   0.280 -0.1177  1.7451 -0.8394
  492MOL0     H66408  10.033   9.989   0.243  0.0933 -0.4828  0.0492
  492MOL0     H66409  10.173  10.203   0.289 -1.6233 -0.8888 -3.0275
  492MOL0     H66410  10.522  10.156   0.558  2.3963  2.4644  1.7487
  492MOL0     H66411  10.563  10.126   0.389 -1.2084  0.8325 -1.7040
  492MOL0     H66412  10.707  10.304   0.492 -0.6333 -2.2046  1.7744
  492MOL0     H66413  10.564  10.388   0.556 -5.0199  0.3494 -1.2196
  492MOL0     H66414  10.513  10.460   0.336 -0.5408 -1.0928 -3.0441
  492MOL0     H66415  10.618  10.341   0.259  4.2811  2.1466 -1.9385
  492MOL0     H66416  10.711  10.580   0.253 -0.7860  1.0303  1.0324
  492MOL0     H66417  10.820  10.466   0.307  0.1622  0.4264 -1.1067
  492MOL0     H66418  10.769  10.732   0.648 -0.1287 -0.9520  0.4045
  492MOL0     H66419  10.472   9.948   0.471  2.5106  1.0544 -2.2955
  492MOL0     H66420  10.328   9.754   0.446  1.3418 -0.0678 -0.5564
  493MOL0     O66421  10.323   8.554   0.223 -0.1619  0.2644 -0.5581
  493MOL0     C66422  10.308   8.661   0.160  0.4226 -0.0135 -0.3725
  493MOL0     O66423  10.198   8.693   0.082 -0.5704  0.5744 -0.2250
  493MOL0     C66424  10.103   8.600   0.064 -0.3230 -0.6156  0.2876
  493MOL0     C66425  10.140   8.476   0.009  0.0188 -0.1535  0.6846
  493MOL0     C66426  10.040   8.378  -0.011  0.3791  0.4247  0.6413
  493MOL0     C66427   9.900   8.420   0.007 -0.1463 -0.5462  0.0176
  493MOL0     O66428   9.787   8.344  -0.009 -0.9479 -0.3908  0.1441
  493MOL0     C66429   9.805   8.203  -0.037 -0.2047 -0.1132 -0.3041
  493MOL0     C66430   9.672   8.132  -0.044 -0.6898 -0.5168  0.4153
  493MOL0     C66431   9.567   8.198  -0.136  0.6184  0.2263  0.6806
  493MOL0     C66432   9.445   8.101  -0.179  0.8336 -0.6848  0.4631
  493MOL0     C66433   9.328   8.176  -0.257  0.4113  0.2569  1.2832
  493MOL0     C66434   9.221   8.078  -0.295 -0.2374  0.3641  0.0588
  493MOL0     C66435   9.100   8.154  -0.343  0.0055  0.1219  0.2784
  493MOL0     C66436   8.992   8.059  -0.394  0.3369  0.1548  0.0115
  493MOL0     N66437   8.873   8.129  -0.432 -0.2852  0.1820  0.6896
  493MOL0     C66438   8.781   8.170  -0.346 -0.2427 -0.2855 -0.1567
  493MOL0     C66439   8.692   8.241  -0.418 -0.4033  0.6066 -0.7789
  493MOL0     C66440   8.567   8.322  -0.366  0.2542  0.6165  0.3420
  493MOL0     C66441   8.599   8.391  -0.224  0.3054 -0.0872 -0.2495
  493MOL0     C66442   8.686   8.517  -0.264 -0.0873 -0.4389 -0.5082
  493MOL0     C66443   8.751   8.591  -0.144  0.4568 -0.1284  0.4393
  493MOL0     O66444   8.806   8.719  -0.191  0.3260  0.5552 -0.1516
  493MOL0     C66445   8.862   8.798  -0.099  0.1611  0.6158 -1.2593
  493MOL0     C66446   8.924   8.757   0.029  0.6392  0.1746 -0.2109
  493MOL0     C66447   8.988   8.857   0.107 -0.3658 -0.6524  0.9929
  493MOL0     C66448   9.074   8.806   0.217  0.2619 -0.4492  0.1310
  493MOL0     C66449   8.983   9.001   0.065  0.7245  0.9846  0.0730
  493MOL0     C66450   9.054   9.112   0.122 -0.5249  0.2901  0.8904
  493MOL0     O66451   9.153   9.074   0.208  0.1323  0.1255  0.1656
  493MOL0     C66452   9.207   9.168   0.292 -0.3324 -0.0845 -0.3526
  493MOL0     C66453   9.156   9.294   0.338  0.5183 -0.4572 -0.4968
  493MOL0     C66454   9.229   9.373   0.430  0.3229 -0.3194 -0.4122
  493MOL0     C66455   9.363   9.334   0.456  0.6615  0.2733  0.5200
  493MOL0     O66456   9.426   9.413   0.548 -0.0781 -0.5483  0.1749
  493MOL0     C66457   9.563   9.431   0.538 -0.3782 -1.0736 -0.7267
  493MOL0     C66458   9.609   9.571   0.600  0.0460  0.6344 -0.1958
  493MOL0     C66459   9.584   9.584   0.747 -0.3072  0.1852  0.7948
  493MOL0     C66460   9.561   9.724   0.794 -1.3254  0.0232  1.1421
  493MOL0     C66461   9.659   9.766   0.901  0.3809  0.6342  0.5234
  493MOL0     C66462   9.618   9.897   0.946  0.2589  0.3510 -1.2302
  493MOL0     C66463   9.703   9.936   1.071 -0.0776  0.1061  0.3197
  493MOL0     C66464   9.655  10.056   1.151  1.0965  0.0263  0.8652
  493MOL0    Cl66465   9.789  10.113   1.248  0.1095 -0.3959  0.4255
  493MOL0     C66466   9.420   9.217   0.408 -0.4719 -0.5785  0.3125
  493MOL0     C66467   9.343   9.134   0.327 -0.0840 -0.8867 -0.3385
  493MOL0     O66468   9.045   9.229   0.068 -0.1008  0.7751 -0.3888
  493MOL0     C66469   8.926   9.022  -0.060  0.3257  0.1679 -0.1522
  493MOL0     C66470   8.862   8.922  -0.143  0.1445  0.1813 -0.0060
  493MOL0     N66471   8.719   8.229  -0.552 -0.4880 -0.6947 -0.2719
  493MOL0     N66472   8.836   8.165  -0.555  0.5869 -0.0156 -0.4991
  493MOL0     C66473   9.866   8.547   0.051 -0.0499 -0.1100  1.7828
  493MOL0     C66474   9.967   8.641   0.076 -0.0444  0.1369 -0.4200
  493MOL0     C66475  10.402   8.761   0.181 -0.3948 -0.3018 -1.1055
  493MOL0     C66476  10.470   8.767   0.304 -0.3722  0.8758 -0.4904
  493MOL0     C66477  10.559   8.873   0.326  1.1385 -1.1426 -0.4271
  493MOL0     C66478  10.592   8.969   0.235 -0.0875 -1.3319  0.0982
  493MOL0     O66479  10.670   9.070   0.278  0.1375 -0.4050 -0.3607
  493MOL0     C66480  10.755   9.143   0.187  0.1885  0.0929  0.4044
  493MOL0     C66481  10.872   9.210   0.251 -0.9144 -0.7491 -0.1236
  493MOL0     C66482  10.831   9.315   0.365 -1.0233  0.8345 -0.1610
  493MOL0     C66483  10.941   9.420   0.375  0.6043 -0.2181  0.6264
  493MOL0     C66484  10.922   9.512   0.481 -0.1035 -0.2351 -0.4843
  493MOL0     C66485  10.906   9.604   0.560 -0.8593  0.1088  0.1800
  493MOL0     C66486  10.524   8.960   0.111  0.1697  0.2320 -0.9391
  493MOL0     C66487  10.420   8.865   0.089  0.3996 -0.4183  0.4309
  493MOL0     H66488  10.236   8.437  -0.023 -0.6939 -1.4185  0.0201
  493MOL0     H66489  10.060   8.275  -0.038 -0.7203 -0.3037  2.3919
  493MOL0     H66490   9.848   8.191  -0.137 -0.9175  2.0357 -0.9292
  493MOL0     H66491   9.868   8.162   0.043 -2.0685 -0.4869  1.0539
  493MOL0     H66492   9.692   8.039  -0.099  1.4881 -0.5994  1.2719
  493MOL0     H66493   9.633   8.103   0.053 -1.3506  0.0777  0.3391
  493MOL0     H66494   9.530   8.282  -0.077 -1.8009  2.2878 -3.4073
  493MOL0     H66495   9.608   8.252  -0.222  1.0047  1.4208  1.5779
  493MOL0     H66496   9.488   8.019  -0.237  0.1184  0.0787 -1.2275
  493MOL0     H66497   9.398   8.062  -0.088  0.1481  3.5102  2.1264
  493MOL0     H66498   9.280   8.254  -0.196  1.6226  1.4656  0.7319
  493MOL0     H66499   9.372   8.227  -0.343  1.1037  0.4520  1.7514
  493MOL0     H66500   9.263   8.014  -0.373 -0.7686  1.6322 -1.3253
  493MOL0     H66501   9.198   8.010  -0.213 -2.8889 -0.4038 -1.1968
  493MOL0     H66502   9.057   8.211  -0.261  2.3458 -2.3110  3.4751
  493MOL0     H66503   9.133   8.216  -0.427  1.2296  2.2062  2.1990
  493MOL0     H66504   8.982   7.968  -0.334  0.4356  1.9077  2.8431
  493MOL0     H66505   9.028   8.021  -0.491  0.8130 -2.7012  1.2058
  493MOL0     H66506   8.767   8.158  -0.239 -1.7484 -0.6553 -0.3691
  493MOL0     H66507   8.557   8.399  -0.443  1.1991  0.7427  0.3313
  493MOL0     H66508   8.480   8.256  -0.362  0.4622  0.2969 -0.2328
  493MOL0     H66509   8.652   8.318  -0.163  0.4060  0.3849  0.2370
  493MOL0     H66510   8.511   8.417  -0.163 -0.7877 -0.7804 -1.4805
  493MOL0     H66511   8.627   8.592  -0.318  1.3430  4.2519  3.6716
  493MOL0     H66512   8.761   8.497  -0.342  0.1007  2.0432 -1.0721
  493MOL0     H66513   8.821   8.518  -0.103 -1.7696 -1.5732  1.8742
  493MOL0     H66514   8.674   8.606  -0.067 -1.1174 -4.3782 -0.0677
  493MOL0     H66515   8.934   8.653   0.059  1.9397  0.9397  2.2840
  493MOL0     H66516   9.178   8.797   0.184 -0.1912 -0.0630 -1.5114
  493MOL0     H66517   9.050   8.868   0.303  1.0905  0.0677 -0.0033
  493MOL0     H66518   9.054   8.705   0.254 -0.7146 -0.1684  0.3975
  493MOL0     H66519   9.056   9.331   0.319  1.0978  1.5788  0.1115
  493MOL0     H66520   9.196   9.468   0.470  0.6226 -0.3606 -0.0643
  493MOL0     H66521   9.614   9.353   0.594  3.6595  1.9578  0.2420
  493MOL0     H66522   9.603   9.421   0.437  5.7043 -2.0365  1.3918
  493MOL0     H66523   9.711   9.600   0.573  0.0823  2.0125  1.2469
  493MOL0     H66524   9.540   9.640   0.552 -3.5496 -0.8523  2.4217
  493MOL0     H66525   9.675   9.543   0.792 -1.2583 -2.3998  0.5586
  493MOL0     H66526   9.497   9.525   0.779  0.0486 -0.0045  1.4373
  493MOL0     H66527   9.568   9.793   0.709 -3.7507 -0.8305  0.1584
  493MOL0     H66528   9.457   9.739   0.826 -3.0700 -5.7876 -0.5056
  493MOL0     H66529   9.759   9.781   0.860  0.1246 -0.0522 -0.3911
  493MOL0     H66530   9.667   9.694   0.983 -1.5129  0.6044  0.7280
  493MOL0     H66531   9.635   9.971   0.868  1.2577  3.8519  1.9698
  493MOL0     H66532   9.513   9.892   0.975 -0.3322  2.0982 -2.9235
  493MOL0     H66533   9.799   9.964   1.028 -0.8031 -1.2735 -2.4447
  493MOL0     H66534   9.719   9.841   1.122  0.0570 -1.7540 -2.9207
  493MOL0     H66535   9.574  10.030   1.219  3.1096 -0.3100  3.2495
  493MOL0     H66536   9.629  10.127   1.071  1.7544  0.4709  1.0370
  493MOL0     H66537   9.518   9.186   0.443  0.3075  1.4369  0.0807
  493MOL0     H66538   9.370   9.035   0.293 -1.8042 -1.6505  0.4207
  493MOL0     H66539   8.923   9.119  -0.107 -1.4924  0.2014 -0.0411
  493MOL0     H66540   8.820   8.944  -0.240  0.2787  3.3862  0.5520
  493MOL0     H66541   9.760   8.572   0.054 -0.1024  0.3905 -0.9554
  493MOL0     H66542   9.949   8.744   0.104 -0.4260 -0.4755  1.7557
  493MOL0     H66543  10.474   8.701   0.390  3.2187  1.0974 -0.3080
  493MOL0     H66544  10.611   8.880   0.420  0.8917 -0.0020 -0.3570
  493MOL0     H66545  10.795   9.071   0.115 -0.3696  0.1057  0.0820
  493MOL0     H66546  10.697   9.211   0.124 -0.2354  1.7131  2.4381
  493MOL0     H66547  10.930   9.265   0.177 -0.3414  1.8946  2.0869
  493MOL0     H66548  10.931   9.131   0.299  0.5122  0.8388  0.8901
  493MOL0     H66549  10.824   9.268   0.464 -0.8985  0.5479 -0.2875
  493MOL0     H66550  10.731   9.354   0.342 -0.9233 -0.0507 -2.3115
  493MOL0     H66551  10.958   9.479   0.285 -0.9091 -0.9103 -0.1521
  493MOL0     H66552  11.031   9.364   0.400  1.1346  0.1933 -0.3201
  493MOL0     H66553  10.901   9.692   0.621 -1.4737  0.3743 -0.2504
  493MOL0     H66554  10.539   9.037   0.036 -0.5791 -0.0697 -1.4182
  493MOL0     H66555  10.351   8.864   0.006 -2.3970  1.2409  2.5587
  494MOL0     O66556   7.647   1.795   3.878 -1.1700 -0.5219 -0.1736
  494MOL0     C66557   7.763   1.752   3.866  0.4854  0.1258 -0.0655
  494MOL0     O66558   7.875   1.823   3.875 -0.2472 -0.4709 -0.4956
  494MOL0     C66559   7.873   1.963   3.845  0.4565  0.4056 -0.4069
  494MOL0     C66560   7.773   2.022   3.758 -1.0378 -0.5951 -0.5243
  494MOL0     C66561   7.781   2.157   3.723 -0.5227 -0.3307  0.0957
  494MOL0     C66562   7.884   2.233   3.775  0.4845  0.5187  0.6110
  494MOL0     O66563   7.882   2.358   3.722  0.7157 -0.2643  1.4739
  494MOL0     C66564   7.992   2.399   3.651  0.1598  0.3392  0.6757
  494MOL0     C66565   7.966   2.507   3.551 -0.0416 -0.0756 -0.7481
  494MOL0     C66566   7.899   2.627   3.632  1.0176 -1.0758  0.0041
  494MOL0     C66567   7.992   2.711   3.731 -0.1200  0.4678 -0.3840
  494MOL0     C66568   7.918   2.831   3.806 -1.0330  0.7663  0.1145
  494MOL0     C66569   7.988   2.848   3.945  0.5015  0.2334  0.2302
  494MOL0     C66570   7.900   2.917   4.050  0.4827 -0.1033 -0.2896
  494MOL0     C66571   7.839   3.049   3.982 -0.5586 -0.2651  0.0081
  494MOL0     N66572   7.796   3.149   4.082 -0.3683  0.4678 -0.2134
  494MOL0     C66573   7.832   3.153   4.212 -0.8338 -0.3923  1.6362
  494MOL0     C66574   7.735   3.226   4.268  0.4839  0.0151 -0.1726
  494MOL0     C66575   7.709   3.249   4.415 -0.8016 -0.0959  0.1934
  494MOL0     C66576   7.696   3.395   4.462 -0.6142 -0.6935  0.3204
  494MOL0     C66577   7.693   3.405   4.617  0.5567  0.3053  0.0200
  494MOL0     C66578   7.825   3.377   4.679 -0.7816 -0.8182  0.4976
  494MOL0     O66579   7.821   3.362   4.822  0.3981 -0.7389  0.0364
  494MOL0     C66580   7.733   3.258   4.861 -1.2275  0.1261  0.6091
  494MOL0     C66581   7.717   3.138   4.793 -0.0879 -0.5793  0.0349
  494MOL0     C66582   7.628   3.039   4.832  1.0584 -1.1261  0.4562
  494MOL0     C66583   7.626   2.913   4.745  0.4243  0.3360  0.9148
  494MOL0     C66584   7.547   3.054   4.950 -1.0233 -0.7542  0.0821
  494MOL0     C66585   7.461   2.953   5.003  0.1055  0.4133 -1.2604
  494MOL0     O66586   7.493   2.822   4.982 -0.3534 -0.8007 -0.0820
  494MOL0     C66587   7.402   2.738   5.036  1.3966  0.3370  0.4243
  494MOL0     C66588   7.263   2.739   5.013 -1.0539 -0.2891  1.0251
  494MOL0     C66589   7.192   2.622   5.034  0.0064 -0.1257 -0.1180
  494MOL0     C66590   7.238   2.507   5.101  0.8542  0.7398 -0.2518
  494MOL0     O66591   7.149   2.407   5.145 -0.5984  0.0230 -1.0524
  494MOL0     C66592   7.116   2.397   5.287  0.2752 -0.5052 -0.3596
  494MOL0     C66593   7.000   2.300   5.329 -0.0328  0.1391  0.3662
  494MOL0     C66594   7.020   2.193   5.439 -0.1255  0.0811 -0.1429
  494MOL0     C66595   7.140   2.216   5.524 -0.2921  0.1126 -0.9344
  494MOL0     C66596   7.169   2.125   5.647  0.6372  0.0438 -0.2199
  494MOL0     C66597   7.144   1.980   5.628 -0.2253  0.1429  0.4825
  494MOL0     C66598   7.223   1.916   5.510 -0.6571 -0.1873 -1.0871
  494MOL0     C66599   7.152   1.786   5.470 -0.4186 -0.6578 -0.3037
  494MOL0    Cl66600   7.123   1.685   5.614 -0.3956 -0.3400  0.0651
  494MOL0     C66601   7.376   2.514   5.131 -0.3745 -0.0233 -0.6782
  494MOL0     C66602   7.457   2.620   5.100 -0.0764 -0.7514  0.3224
  494MOL0     O66603   7.362   3.002   5.069  0.2442 -0.4574  0.3192
  494MOL0     C66604   7.570   3.173   5.027 -0.3185  0.4586 -0.7590
  494MOL0     C66605   7.664   3.271   4.980 -0.4050 -0.5230 -0.1650
  494MOL0     N66606   7.639   3.262   4.172 -0.5604  0.6266  0.6565
  494MOL0     N66607   7.681   3.212   4.056 -0.1765 -0.6334  0.3545
  494MOL0     C66608   7.981   2.176   3.862  0.3832 -0.5839  0.4823
  494MOL0     C66609   7.967   2.048   3.902 -0.6317  0.6553  0.4070
  494MOL0     C66610   7.780   1.605   3.851 -0.8968 -0.4023  0.8713
  494MOL0     C66611   7.885   1.540   3.916 -0.2429  0.0261  0.1139
  494MOL0     C66612   7.888   1.402   3.938 -0.0129 -0.2279 -0.3458
  494MOL0     C66613   7.791   1.333   3.866 -0.3359  0.0155  0.9259
  494MOL0     O66614   7.809   1.200   3.883  0.5948 -1.0918  0.0138
  494MOL0     C66615   7.722   1.101   3.829  0.5829 -1.0560 -1.1636
  494MOL0     C66616   7.745   1.071   3.678 -0.4918 -0.4231  0.0420
  494MOL0     C66617   7.882   1.008   3.666 -0.4818 -1.2305 -0.4469
  494MOL0     C66618   7.898   0.965   3.522  0.5184 -0.3198 -0.2791
  494MOL0     C66619   7.945   1.074   3.440  0.4500  0.2747  0.4989
  494MOL0     C66620   7.982   1.158   3.364 -0.6471 -1.1907 -0.1276
  494MOL0     C66621   7.685   1.391   3.795 -0.4309  0.0566 -0.7120
  494MOL0     C66622   7.681   1.529   3.792 -0.3751 -0.2538  0.9162
  494MOL0     H66623   7.695   1.960   3.715  0.8339 -3.1312 -0.4888
  494MOL0     H66624   7.725   2.202   3.642 -1.0663 -1.6933 -0.3261
  494MOL0     H66625   8.062   2.438   3.726  0.1279 -0.1043  0.9416
  494MOL0     H66626   8.052   2.322   3.600  1.5535  2.4523 -1.0726
  494MOL0     H66627   8.053   2.550   3.500  1.4933  0.8436  2.4209
  494MOL0     H66628   7.896   2.465   3.478  0.8592 -1.6644 -0.7358
  494MOL0     H66629   7.870   2.703   3.559 -0.5561 -1.0325  0.6463
  494MOL0     H66630   7.812   2.587   3.684  0.7416 -2.3663 -1.3924
  494MOL0     H66631   8.024   2.637   3.805  0.6767  1.3827  0.2125
  494MOL0     H66632   8.087   2.737   3.685  0.1369  1.7096  0.7845
  494MOL0     H66633   7.917   2.917   3.738  0.7878  1.1630  0.5451
  494MOL0     H66634   7.817   2.795   3.829 -2.1352  2.6138 -1.4716
  494MOL0     H66635   8.012   2.749   3.984 -0.6467 -0.6396 -1.1433
  494MOL0     H66636   8.077   2.909   3.930 -1.1423  2.4306 -1.2453
  494MOL0     H66637   7.811   2.855   4.062  1.2279 -1.5188 -1.5887
  494MOL0     H66638   7.959   2.934   4.141 -2.5909  0.0904  1.8148
  494MOL0     H66639   7.750   3.018   3.928 -1.7470  3.5505 -0.4367
  494MOL0     H66640   7.912   3.101   3.919  2.2345 -1.8067  1.7642
  494MOL0     H66641   7.923   3.123   4.264 -1.3409 -1.0601  2.1463
  494MOL0     H66642   7.620   3.191   4.439 -0.0378 -0.7101  1.6279
  494MOL0     H66643   7.775   3.184   4.473 -2.4186 -1.3155  0.7266
  494MOL0     H66644   7.598   3.422   4.421 -0.5513 -1.4855 -0.3676
  494MOL0     H66645   7.768   3.458   4.409 -1.1228 -1.1414 -0.9333
  494MOL0     H66646   7.622   3.330   4.654  2.6838 -2.0234 -0.3388
  494MOL0     H66647   7.659   3.507   4.638  1.4434  0.4827  0.6615
  494MOL0     H66648   7.888   3.464   4.658 -0.6215 -0.6364  1.7021
  494MOL0     H66649   7.880   3.294   4.633 -0.7524 -0.9366  0.7443
  494MOL0     H66650   7.787   3.124   4.711  2.5661  0.6863  1.9460
  494MOL0     H66651   7.680   2.830   4.791 -0.8291 -1.2243 -0.3048
  494MOL0     H66652   7.522   2.881   4.730  1.2685 -1.4443 -1.7593
  494MOL0     H66653   7.669   2.943   4.649  0.1003  1.7825  1.1979
  494MOL0     H66654   7.225   2.824   4.958  1.7646 -2.1692 -4.5392
  494MOL0     H66655   7.084   2.621   5.017  0.1784 -2.2367 -1.4299
  494MOL0     H66656   7.205   2.384   5.350 -0.2154  0.2919  0.5275
  494MOL0     H66657   7.082   2.492   5.329 -0.5925 -0.8448 -0.2694
  494MOL0     H66658   6.913   2.354   5.368  0.1886 -1.6653  3.6609
  494MOL0     H66659   6.962   2.254   5.237  1.3049 -0.9418  0.3258
  494MOL0     H66660   7.021   2.098   5.385 -0.7071 -0.3376  0.5713
  494MOL0     H66661   6.932   2.192   5.504  0.4779  1.2566  0.7361
  494MOL0     H66662   7.231   2.214   5.464 -0.4772  0.5805 -1.2376
  494MOL0     H66663   7.132   2.318   5.563  1.1837 -1.1248  3.0767
  494MOL0     H66664   7.095   2.158   5.721 -0.4627 -0.8440 -0.8941
  494MOL0     H66665   7.273   2.136   5.680  1.2650  0.6433 -2.2885
  494MOL0     H66666   7.153   1.919   5.719 -1.8777  0.5731  0.9777
  494MOL0     H66667   7.040   1.979   5.593  0.0733 -0.7485 -0.4313
  494MOL0     H66668   7.321   1.899   5.556 -0.0936  3.5785 -0.6135
  494MOL0     H66669   7.233   1.981   5.422 -0.6678  0.1126 -0.8681
  494MOL0     H66670   7.218   1.726   5.407 -2.1537 -3.6893  0.5479
  494MOL0     H66671   7.065   1.800   5.405 -0.2924 -1.5541 -0.6797
  494MOL0     H66672   7.433   2.439   5.186 -2.8990 -1.3834  0.2785
  494MOL0     H66673   7.561   2.621   5.128  0.7056  0.2099 -2.2716
  494MOL0     H66674   7.528   3.183   5.126  2.8932 -4.3690  1.5037
  494MOL0     H66675   7.688   3.349   5.052 -0.0861 -0.6154 -0.1695
  494MOL0     H66676   8.056   2.242   3.903 -0.8447  2.2324 -1.4664
  494MOL0     H66677   8.031   2.017   3.984  1.1851  3.4737  0.2389
  494MOL0     H66678   7.952   1.608   3.967 -0.5300 -0.8156  1.6794
  494MOL0     H66679   7.967   1.353   3.993 -0.0810 -1.6087 -1.4309
  494MOL0     H66680   7.727   1.008   3.885 -1.0120 -0.5548 -0.1138
  494MOL0     H66681   7.617   1.130   3.844  1.1170 -0.0445  1.0241
  494MOL0     H66682   7.734   1.151   3.603  2.4566 -0.8804 -1.0324
  494MOL0     H66683   7.669   1.001   3.643  1.7950 -2.6999 -0.6978
  494MOL0     H66684   7.891   0.922   3.733 -2.2554 -1.5663 -0.5782
  494MOL0     H66685   7.966   1.075   3.685  0.5908 -2.8024  0.6511
  494MOL0     H66686   7.804   0.928   3.481  0.2214  1.0117 -0.8530
  494MOL0     H66687   7.970   0.882   3.520  1.3304  0.3351 -3.3180
  494MOL0     H66688   8.019   1.225   3.289  0.0486 -1.3004  0.1130
  494MOL0     H66689   7.607   1.336   3.744 -2.6339  0.5501  1.8668
  494MOL0     H66690   7.596   1.576   3.745  1.0577  3.0663  1.3319
  495MOL0     O66691   3.295   0.068   3.010 -0.0856  0.9167  0.2796
  495MOL0     C66692   3.230   0.147   3.070  0.2273  0.3633  0.0373
  495MOL0     O66693   3.192   0.130   3.199  0.2004 -0.2581  0.2527
  495MOL0     C66694   3.187   0.003   3.251  0.1107 -0.8227  0.0013
  495MOL0     C66695   3.095  -0.007   3.357 -0.5913  0.9697  0.0490
  495MOL0     C66696   3.077  -0.135   3.418  0.0811  0.1368 -0.6351
  495MOL0     C66697   3.152  -0.243   3.380 -0.5275  1.4389  1.0150
  495MOL0     O66698   3.121  -0.371   3.421  0.0421  0.1558  1.1100
  495MOL0     C66699   2.986  -0.420   3.391 -0.1193 -0.1584  0.3452
  495MOL0     C66700   2.988  -0.578   3.379  0.8312 -1.2166  1.4614
  495MOL0     C66701   2.843  -0.628   3.371  0.5674  0.4094  0.3263
  495MOL0     C66702   2.858  -0.778   3.340 -0.6053  1.0698  0.0853
  495MOL0     C66703   2.733  -0.858   3.317 -0.6289  0.5152 -0.6243
  495MOL0     C66704   2.657  -0.883   3.448  0.0236  0.4710  0.4297
  495MOL0     C66705   2.517  -0.942   3.423 -0.4147  0.3141  1.0488
  495MOL0     C66706   2.521  -1.096   3.380  0.4993 -0.2138 -0.2718
  495MOL0     N66707   2.387  -1.146   3.408 -0.2253 -0.1678  0.2824
  495MOL0     C66708   2.338  -1.198   3.524  0.5928 -0.7115  0.1794
  495MOL0     C66709   2.207  -1.213   3.503 -0.0783 -1.2008 -0.2853
  495MOL0     C66710   2.118  -1.253   3.615 -0.0609  0.0186 -0.3506
  495MOL0     C66711   1.971  -1.230   3.596  0.4107 -0.4744  1.0787
  495MOL0     C66712   1.896  -1.278   3.718  0.6526  0.2741 -0.3025
  495MOL0     C66713   1.870  -1.430   3.727  0.1243  0.0575  0.2905
  495MOL0     O66714   1.778  -1.466   3.835 -1.3911  0.4649  0.5007
  495MOL0     C66715   1.657  -1.500   3.795  0.0010  0.3971  0.0068
  495MOL0     C66716   1.565  -1.402   3.751  0.0880 -0.4172 -0.6026
  495MOL0     C66717   1.441  -1.449   3.708 -0.2646 -0.4221  0.4531
  495MOL0     C66718   1.347  -1.357   3.639  1.2135 -0.7502  0.2446
  495MOL0     C66719   1.411  -1.593   3.712 -0.2054 -0.4027  0.6214
  495MOL0     C66720   1.286  -1.649   3.660 -0.6103  0.3198 -0.1187
  495MOL0     O66721   1.261  -1.602   3.537  0.8088 -0.1057  0.2970
  495MOL0     C66722   1.151  -1.644   3.463 -0.2135 -0.3329 -0.3600
  495MOL0     C66723   1.160  -1.598   3.326 -0.7243  0.4326 -0.4730
  495MOL0     C66724   1.050  -1.617   3.245  0.2849 -0.5660  0.2533
  495MOL0     C66725   0.931  -1.691   3.287 -0.2989  0.3917 -0.4051
  495MOL0     O66726   0.844  -1.731   3.186 -0.2786 -0.4858 -0.2158
  495MOL0     C66727   0.708  -1.717   3.215  0.1427 -0.6409 -0.8111
  495MOL0     C66728   0.620  -1.786   3.116  0.1057 -0.0411  0.5346
  495MOL0     C66729   0.604  -1.720   2.975 -0.0077 -0.8777  0.0184
  495MOL0     C66730   0.706  -1.761   2.867 -0.1396  0.3032  0.7443
  495MOL0     C66731   0.658  -1.726   2.723 -1.0793 -0.8206 -0.0869
  495MOL0     C66732   0.706  -1.822   2.616 -0.4299 -1.3646 -0.0822
  495MOL0     C66733   0.675  -1.761   2.475  0.7285  0.1755 -0.1077
  495MOL0     C66734   0.530  -1.754   2.438  0.5069 -0.5828 -0.6368
  495MOL0    Cl66735   0.527  -1.726   2.250 -0.3187 -0.4884 -0.1939
  495MOL0     C66736   0.921  -1.721   3.426  0.9678 -0.3886  0.1066
  495MOL0     C66737   1.026  -1.688   3.515  0.2161 -0.7939 -0.0696
  495MOL0     O66738   1.221  -1.739   3.724 -0.2792 -0.0632  0.7558
  495MOL0     C66739   1.509  -1.687   3.756 -0.4460 -1.0857 -0.3256
  495MOL0     C66740   1.635  -1.638   3.796  0.2290  0.2746  0.3832
  495MOL0     N66741   2.176  -1.184   3.371  1.3158 -0.3110 -0.0711
  495MOL0     N66742   2.288  -1.145   3.315 -0.0173 -0.3369  0.7276
  495MOL0     C66743   3.244  -0.244   3.273 -0.6695 -0.4363 -0.6809
  495MOL0     C66744   3.254  -0.117   3.211 -0.8686  0.6308  0.4479
  495MOL0     C66745   3.161   0.253   2.988  0.6671  0.1073  0.5210
  495MOL0     C66746   3.205   0.299   2.860  0.0143  0.6343  0.2773
  495MOL0     C66747   3.134   0.395   2.791  0.5908 -1.6839 -0.4149
  495MOL0     C66748   3.016   0.447   2.837 -0.8222 -0.8561 -0.0024
  495MOL0     O66749   2.925   0.533   2.775  0.3329 -0.3341  0.8320
  495MOL0     C66750   2.969   0.614   2.658  0.2093 -0.8212 -0.0764
  495MOL0     C66751   2.851   0.697   2.601  0.2447  1.0457  0.2408
  495MOL0     C66752   2.761   0.598   2.518  0.0491  0.1410  1.0587
  495MOL0     C66753   2.656   0.679   2.438  1.1366  0.6602  0.7572
  495MOL0     C66754   2.710   0.764   2.329 -0.1268 -0.1066 -0.0846
  495MOL0     C66755   2.729   0.852   2.249 -1.0785  0.6125  0.7003
  495MOL0     C66756   2.968   0.396   2.956  0.4596 -0.0739 -0.0366
  495MOL0     C66757   3.036   0.298   3.029  0.3115  0.5781  0.3935
  495MOL0     H66758   3.021   0.063   3.397 -4.0677 -2.8069  0.9185
  495MOL0     H66759   3.004  -0.156   3.496  1.2286 -3.0448 -0.2765
  495MOL0     H66760   2.916  -0.398   3.472 -0.2382 -5.5517  2.1150
  495MOL0     H66761   2.968  -0.383   3.290  0.0550  0.0455  0.3894
  495MOL0     H66762   3.046  -0.610   3.292 -1.9226 -3.3611  0.2774
  495MOL0     H66763   3.039  -0.621   3.466  1.3243  1.6876  2.7025
  495MOL0     H66764   2.794  -0.613   3.468 -0.6468 -2.8677  0.3299
  495MOL0     H66765   2.776  -0.580   3.299 -1.4524  0.7219  2.2899
  495MOL0     H66766   2.928  -0.788   3.256 -0.7613 -0.7113  0.1393
  495MOL0     H66767   2.911  -0.831   3.418  1.5080  1.7904 -0.7795
  495MOL0     H66768   2.671  -0.788   3.260  3.0521  3.2549 -1.6285
  495MOL0     H66769   2.764  -0.953   3.272  0.6814 -0.5266  2.2228
  495MOL0     H66770   2.706  -0.937   3.530 -3.1502 -2.2079  0.7916
  495MOL0     H66771   2.642  -0.781   3.486  3.3939  0.3532  2.4098
  495MOL0     H66772   2.466  -0.934   3.519  0.1162 -0.6040  1.4183
  495MOL0     H66773   2.458  -0.883   3.352  1.1911  0.3737 -0.3227
  495MOL0     H66774   2.590  -1.159   3.436  0.9731 -0.7840 -1.4659
  495MOL0     H66775   2.534  -1.125   3.275 -0.3153 -0.1411 -0.4010
  495MOL0     H66776   2.403  -1.215   3.609  2.2532  2.9144 -0.1632
  495MOL0     H66777   2.140  -1.356   3.644 -1.4371  0.0989  1.1048
  495MOL0     H66778   2.149  -1.188   3.697 -2.4398 -1.0083  1.5014
  495MOL0     H66779   1.950  -1.279   3.501  3.3271 -1.2687  0.7408
  495MOL0     H66780   1.957  -1.122   3.582  0.5205 -0.6113 -0.1786
  495MOL0     H66781   1.798  -1.229   3.724  0.6038  0.4217 -1.8838
  495MOL0     H66782   1.941  -1.244   3.811  1.8004 -0.1867 -0.6746
  495MOL0     H66783   1.969  -1.476   3.730 -0.2444 -0.9090 -1.1819
  495MOL0     H66784   1.821  -1.439   3.629  1.6259  1.3398 -0.6323
  495MOL0     H66785   1.605  -1.301   3.748 -0.0637 -0.3215  0.4670
  495MOL0     H66786   1.357  -1.251   3.665 -0.6716 -0.5412  0.2232
  495MOL0     H66787   1.353  -1.373   3.531  1.4508  1.1191 -0.0555
  495MOL0     H66788   1.249  -1.382   3.679  0.3297  2.0576  0.0857
  495MOL0     H66789   1.246  -1.537   3.303 -0.5913  2.3197  4.0554
  495MOL0     H66790   1.068  -1.585   3.144 -0.7662 -0.3899  0.1079
  495MOL0     H66791   0.688  -1.756   3.315 -1.1242 -1.9109 -1.5150
  495MOL0     H66792   0.684  -1.610   3.220  1.9002 -0.2423 -0.2506
  495MOL0     H66793   0.656  -1.889   3.117  3.6009  1.0507  1.8409
  495MOL0     H66794   0.517  -1.781   3.152 -0.7514  2.1169 -1.9074
  495MOL0     H66795   0.622  -1.612   2.975  3.2091 -1.2973  1.3638
  495MOL0     H66796   0.507  -1.752   2.935 -0.0586 -3.2814  1.8426
  495MOL0     H66797   0.792  -1.695   2.880  0.5670 -0.5613  0.5621
  495MOL0     H66798   0.734  -1.864   2.892 -1.4214  0.2019  1.9346
  495MOL0     H66799   0.683  -1.624   2.691  0.2994 -1.2603 -0.4695
  495MOL0     H66800   0.549  -1.733   2.723 -1.3301  1.8141 -0.4659
  495MOL0     H66801   0.813  -1.840   2.627 -0.1390 -0.1566 -0.7680
  495MOL0     H66802   0.644  -1.912   2.626 -0.0419 -1.6940 -0.5861
  495MOL0     H66803   0.718  -1.830   2.402  0.0567 -0.1003 -0.2475
  495MOL0     H66804   0.737  -1.670   2.474  1.3023 -0.1760  1.3086
  495MOL0     H66805   0.479  -1.677   2.497  2.6113 -0.5693  1.3275
  495MOL0     H66806   0.474  -1.844   2.462  0.1550 -0.2104 -0.0400
  495MOL0     H66807   0.819  -1.745   3.456  0.1528  1.9887 -0.5938
  495MOL0     H66808   1.002  -1.698   3.621  1.7274 -1.7773  0.1992
  495MOL0     H66809   1.487  -1.792   3.739 -0.6317 -0.7016 -2.9003
  495MOL0     H66810   1.716  -1.699   3.836 -1.6318 -2.9545 -0.4118
  495MOL0     H66811   3.289  -0.334   3.231  1.3709  0.4988 -0.5789
  495MOL0     H66812   3.335  -0.134   3.141 -0.6862 -1.6817  1.1345
  495MOL0     H66813   3.304   0.274   2.824 -0.5915  0.6105 -1.4236
  495MOL0     H66814   3.176   0.431   2.698  2.4624  0.7369  1.2579
  495MOL0     H66815   3.061   0.672   2.675 -0.7375  0.0408  2.7573
  495MOL0     H66816   3.003   0.546   2.579  2.1598  0.3995 -0.3558
  495MOL0     H66817   2.899   0.762   2.527  2.1608 -0.9009 -0.3334
  495MOL0     H66818   2.784   0.743   2.674 -2.4051 -2.2558  0.1539
  495MOL0     H66819   2.732   0.511   2.576  4.0437 -0.8545  1.8736
  495MOL0     H66820   2.834   0.565   2.443  1.6934 -1.0192  3.0774
  495MOL0     H66821   2.579   0.727   2.500  0.1937 -2.9499  2.7110
  495MOL0     H66822   2.593   0.604   2.389  1.5358  2.3601 -2.5701
  495MOL0     H66823   2.773   0.927   2.186  3.0032 -0.2953  2.1207
  495MOL0     H66824   2.871   0.432   2.990  0.2033 -0.8257  0.0622
  495MOL0     H66825   2.983   0.263   3.117 -3.0375 -0.3235 -1.7853
  496MOL0     O66826   5.559   8.615   1.420 -0.0923 -0.6645  0.5085
  496MOL0     C66827   5.532   8.678   1.520 -0.5169  1.1358 -0.0363
  496MOL0     O66828   5.409   8.711   1.558  0.0363  0.6426 -0.4060
  496MOL0     C66829   5.294   8.658   1.496  0.0166  0.1060  1.2095
  496MOL0     C66830   5.284   8.533   1.433  0.8007  0.9952  0.0489
  496MOL0     C66831   5.159   8.484   1.398 -0.0177  0.3770  0.0127
  496MOL0     C66832   5.046   8.563   1.408 -0.8049  0.6154 -0.3542
  496MOL0     O66833   4.937   8.500   1.351  0.3903  0.1381  0.1691
  496MOL0     C66834   4.806   8.563   1.360 -0.3314  0.5279  0.6454
  496MOL0     C66835   4.721   8.510   1.249  0.4518 -0.0910  0.5613
  496MOL0     C66836   4.577   8.570   1.248 -0.4589  0.2136  0.1878
  496MOL0     C66837   4.488   8.517   1.137 -1.3051 -0.7650 -0.0306
  496MOL0     C66838   4.340   8.570   1.155  0.7008  0.9887  0.1686
  496MOL0     C66839   4.234   8.474   1.099 -0.0974  1.1855  0.0635
  496MOL0     C66840   4.237   8.334   1.174 -0.4001 -0.2228  0.0049
  496MOL0     C66841   4.170   8.230   1.093 -0.2933  0.3675  0.1086
  496MOL0     N66842   4.141   8.118   1.195 -1.1175  0.1232 -0.5608
  496MOL0     C66843   4.032   8.047   1.218  0.0009 -0.2429 -0.0779
  496MOL0     C66844   4.066   7.962   1.318  0.5546 -0.0618  0.0641
  496MOL0     C66845   3.973   7.879   1.397 -0.2113  0.1882  0.0752
  496MOL0     C66846   4.026   7.727   1.412  0.8399 -0.1652 -0.6333
  496MOL0     C66847   4.090   7.701   1.552 -0.1555  0.1927 -0.4435
  496MOL0     C66848   4.198   7.796   1.603 -0.9594  0.6892 -0.2664
  496MOL0     O66849   4.235   7.768   1.742 -0.2903  0.8006  0.0558
  496MOL0     C66850   4.290   7.642   1.773  0.6309  0.0149  1.0589
  496MOL0     C66851   4.375   7.579   1.684 -0.6188 -1.1870 -0.9749
  496MOL0     C66852   4.445   7.462   1.720  0.4336 -0.3231  0.4804
  496MOL0     C66853   4.555   7.424   1.621 -0.8308  0.2080 -0.0055
  496MOL0     C66854   4.411   7.395   1.834 -0.0381 -0.0554 -0.4053
  496MOL0     C66855   4.473   7.269   1.877  0.9896  0.4993 -1.1668
  496MOL0     O66856   4.436   7.234   2.008 -0.1654 -0.3648 -0.4652
  496MOL0     C66857   4.465   7.115   2.062 -0.3020  0.5878 -0.2227
  496MOL0     C66858   4.482   7.005   1.977 -0.3613 -0.6949 -0.1591
  496MOL0     C66859   4.513   6.878   2.022 -0.0493 -0.4695  0.4335
  496MOL0     C66860   4.533   6.861   2.163  0.0030 -0.0549  0.9059
  496MOL0     O66861   4.548   6.735   2.214 -0.3423 -0.3370 -0.2124
  496MOL0     C66862   4.691   6.709   2.236 -0.6899 -0.6768 -0.4924
  496MOL0     C66863   4.752   6.616   2.128 -0.0210  0.2492 -0.5979
  496MOL0     C66864   4.780   6.684   1.989  0.1386 -0.1428  1.0062
  496MOL0     C66865   4.885   6.608   1.916 -0.0497  0.0265 -0.6310
  496MOL0     C66866   4.929   6.672   1.785  0.3800 -0.2040 -0.9900
  496MOL0     C66867   5.005   6.584   1.689  0.0095 -0.0270  1.1788
  496MOL0     C66868   5.038   6.665   1.562 -1.0855  0.5085 -0.3378
  496MOL0     C66869   5.120   6.592   1.464  0.6916 -0.2409  0.0050
  496MOL0    Cl66870   5.039   6.433   1.430  0.2008 -0.0485 -0.7254
  496MOL0     C66871   4.521   6.974   2.248  0.4010  0.3101 -0.3087
  496MOL0     C66872   4.478   7.102   2.204 -0.4384  0.4677 -0.4942
  496MOL0     O66873   4.557   7.211   1.814 -0.7865 -0.2597 -0.7805
  496MOL0     C66874   4.321   7.456   1.926 -0.0404 -0.5809  0.7366
  496MOL0     C66875   4.257   7.577   1.891  0.0951  0.3434  1.0228
  496MOL0     N66876   4.206   7.963   1.336  0.2746 -0.4489 -0.3640
  496MOL0     N66877   4.237   8.066   1.272  0.2290  0.4731  0.0611
  496MOL0     C66878   5.055   8.687   1.477 -0.2388  0.6432 -0.5146
  496MOL0     C66879   5.186   8.732   1.508  0.6969 -0.5332 -0.0655
  496MOL0     C66880   5.650   8.716   1.607  0.4998 -0.0486 -0.0090
  496MOL0     C66881   5.783   8.674   1.565  0.1236  1.2360  0.2211
  496MOL0     C66882   5.894   8.721   1.632 -0.4929  0.1021  0.2730
  496MOL0     C66883   5.885   8.799   1.740 -0.4646  0.2918  0.5226
  496MOL0     O66884   6.010   8.824   1.795 -0.8715 -0.2544 -0.4208
  496MOL0     C66885   6.024   8.893   1.920 -0.0321 -0.3762  0.3604
  496MOL0     C66886   6.152   8.967   1.948 -0.7517  0.9239 -0.0659
  496MOL0     C66887   6.204   9.072   1.850  0.2217  0.4797  0.7705
  496MOL0     C66888   6.258   9.202   1.929 -0.1260  0.0302 -1.7662
  496MOL0     C66889   6.384   9.192   2.000  0.8310 -0.3273  0.3560
  496MOL0     C66890   6.492   9.187   2.061 -0.1009  0.7107  0.3719
  496MOL0     C66891   5.758   8.833   1.795  0.1898  0.8276  0.3344
  496MOL0     C66892   5.639   8.792   1.726 -0.5926  0.0962 -0.7043
  496MOL0     H66893   5.365   8.471   1.397  0.0452  1.3489 -2.4677
  496MOL0     H66894   5.156   8.383   1.360 -0.9463  0.9817 -1.6062
  496MOL0     H66895   4.761   8.554   1.459  1.4104  3.0150  1.7686
  496MOL0     H66896   4.812   8.670   1.338 -0.3392  0.7227  1.5376
  496MOL0     H66897   4.755   8.531   1.147  1.1588  1.3331  1.0671
  496MOL0     H66898   4.706   8.402   1.255 -1.4178 -0.0480 -1.8578
  496MOL0     H66899   4.532   8.547   1.345 -0.0205  0.7977  0.5378
  496MOL0     H66900   4.590   8.677   1.230  0.7970  0.4083  1.9692
  496MOL0     H66901   4.530   8.553   1.043  0.1879 -2.4605 -0.0470
  496MOL0     H66902   4.490   8.408   1.144 -0.6525 -0.6763  1.6224
  496MOL0     H66903   4.315   8.582   1.260  1.0819  0.1056  0.3676
  496MOL0     H66904   4.322   8.667   1.108 -3.2892  0.6944  0.7112
  496MOL0     H66905   4.131   8.511   1.105 -0.2081  1.4695 -2.5510
  496MOL0     H66906   4.256   8.461   0.993 -2.3043  2.3853 -0.6000
  496MOL0     H66907   4.336   8.294   1.198 -0.8753 -0.3211  1.9474
  496MOL0     H66908   4.185   8.341   1.270  1.4475  1.3765  0.9466
  496MOL0     H66909   4.242   8.198   1.017  0.2694  1.4502  0.1611
  496MOL0     H66910   4.080   8.259   1.038  0.7157 -1.1240 -2.5183
  496MOL0     H66911   3.935   8.078   1.180  1.2525  2.1098 -1.5693
  496MOL0     H66912   3.942   7.924   1.492 -1.9406  0.7747 -0.7243
  496MOL0     H66913   3.887   7.871   1.329 -0.4537  3.7867 -0.2402
  496MOL0     H66914   4.084   7.710   1.321  0.5074 -1.4185 -0.6241
  496MOL0     H66915   3.935   7.666   1.410  1.2236 -0.7206 -1.2538
  496MOL0     H66916   4.131   7.600   1.552 -2.1937 -0.6829 -0.0162
  496MOL0     H66917   4.021   7.696   1.636  2.5403 -1.4577  1.8664
  496MOL0     H66918   4.166   7.900   1.607  4.0834  2.7470 -3.7778
  496MOL0     H66919   4.285   7.788   1.538  1.6027 -0.8232  3.0493
  496MOL0     H66920   4.411   7.636   1.598  0.6717 -2.3228 -1.2279
  496MOL0     H66921   4.584   7.507   1.556  0.5030  0.0939  0.4234
  496MOL0     H66922   4.646   7.412   1.680  0.5298  1.3888 -1.7706
  496MOL0     H66923   4.523   7.336   1.563 -0.6126  0.1242 -0.0004
  496MOL0     H66924   4.460   6.995   1.871  0.7961 -0.2860 -0.4483
  496MOL0     H66925   4.526   6.798   1.949 -0.0548  0.6228 -0.8070
  496MOL0     H66926   4.750   6.801   2.247  3.1263 -2.8533 -0.7337
  496MOL0     H66927   4.696   6.665   2.336 -7.2915  1.6719  1.3759
  496MOL0     H66928   4.840   6.566   2.168  0.0613  1.5358  0.9464
  496MOL0     H66929   4.684   6.532   2.114  0.4698 -0.0164 -1.4815
  496MOL0     H66930   4.804   6.791   1.994  0.3407 -0.2308  2.1622
  496MOL0     H66931   4.701   6.681   1.913  2.4983 -0.2820 -1.5854
  496MOL0     H66932   4.982   6.605   1.968 -1.0076  2.2237  1.4907
  496MOL0     H66933   4.855   6.504   1.904 -0.1376 -0.1637  1.0474
  496MOL0     H66934   4.985   6.763   1.805 -2.8595  1.5707  0.8066
  496MOL0     H66935   4.840   6.710   1.733  0.5196  3.6435  1.2530
  496MOL0     H66936   5.102   6.555   1.729  0.2395 -1.6027 -0.4156
  496MOL0     H66937   4.959   6.488   1.663  0.7470 -0.3613  1.1020
  496MOL0     H66938   5.089   6.759   1.586 -0.9158 -0.4054  3.5992
  496MOL0     H66939   4.941   6.691   1.519 -1.2272  0.2265 -0.1924
  496MOL0     H66940   5.221   6.576   1.503  1.2658  0.3867 -1.1738
  496MOL0     H66941   5.138   6.655   1.376 -0.0244  1.9679  1.3556
  496MOL0     H66942   4.538   6.951   2.353  1.1213  1.5966 -0.1212
  496MOL0     H66943   4.452   7.192   2.257 -2.1300  0.8852 -1.9385
  496MOL0     H66944   4.305   7.407   2.021  1.2133 -1.5398  0.4812
  496MOL0     H66945   4.189   7.611   1.968 -0.8653 -2.7612  1.6654
  496MOL0     H66946   4.972   8.756   1.474  1.1766  2.4185 -3.5869
  496MOL0     H66947   5.200   8.827   1.558  0.4723 -0.2585 -0.5292
  496MOL0     H66948   5.797   8.613   1.476 -4.2635  1.0589 -0.5789
  496MOL0     H66949   5.991   8.693   1.592  0.5089 -1.3844  3.4178
  496MOL0     H66950   5.952   8.975   1.907  2.6153  1.8652 -1.4988
  496MOL0     H66951   5.996   8.827   2.002  3.3872 -0.0886  1.8910
  496MOL0     H66952   6.228   8.888   1.951 -2.2726 -0.6354 -0.9112
  496MOL0     H66953   6.150   9.011   2.049 -0.8648 -0.7229  0.6913
  496MOL0     H66954   6.120   9.109   1.791 -1.3489 -2.3108  1.0920
  496MOL0     H66955   6.283   9.030   1.787  0.5731  0.6909  1.0677
  496MOL0     H66956   6.184   9.248   1.994  2.1094  1.8370 -0.3145
  496MOL0     H66957   6.286   9.280   1.858 -0.6033  1.1753 -0.7381
  496MOL0     H66958   6.571   9.215   2.128  1.3459 -1.8934 -0.1005
  496MOL0     H66959   5.738   8.874   1.893  4.1491  0.4588  1.4504
  496MOL0     H66960   5.539   8.807   1.765  0.4451  1.0133  1.8227
  497MOL0     O66961  11.484   6.881   3.144  1.0333 -0.0556 -0.1555
  497MOL0     C66962  11.530   6.800   3.065 -0.2403  0.4175  0.3792
  497MOL0     O66963  11.579   6.833   2.938 -0.3082 -1.1028  0.5703
  497MOL0     C66964  11.550   6.967   2.897  0.4942  0.3947 -0.4849
  497MOL0     C66965  11.429   6.992   2.835  0.3716  0.0124  0.1669
  497MOL0     C66966  11.404   7.122   2.771  0.6798  0.1236 -0.1617
  497MOL0     C66967  11.505   7.220   2.783 -0.5091 -0.7491  0.4462
  497MOL0     O66968  11.476   7.327   2.707  0.2393 -0.2714 -0.5587
  497MOL0     C66969  11.510   7.454   2.760 -0.0211  0.0839  0.2112
  497MOL0     C66970  11.461   7.580   2.686  0.1384 -0.3685 -1.2299
  497MOL0     C66971  11.315   7.591   2.710 -0.2928 -0.2160 -0.1411
  497MOL0     C66972  11.282   7.623   2.849  0.0560  0.0270  0.3312
  497MOL0     C66973  11.158   7.708   2.882  0.5010  0.6614  0.0988
  497MOL0     C66974  11.031   7.650   2.815  0.2148  0.5902  0.4462
  497MOL0     C66975  11.000   7.509   2.867  1.3963  0.4222  0.0408
  497MOL0     C66976  10.884   7.444   2.793 -0.1209 -0.0623  0.5439
  497MOL0     N66977  10.863   7.297   2.825 -0.0739 -0.3987 -0.1093
  497MOL0     C66978  10.733   7.241   2.818 -1.2250  0.1052  0.1399
  497MOL0     C66979  10.753   7.116   2.785 -0.6260  0.7565 -0.3592
  497MOL0     C66980  10.647   7.005   2.779 -0.7829 -0.3880  0.2657
  497MOL0     C66981  10.665   6.918   2.895 -0.0520  0.1340 -0.8698
  497MOL0     C66982  10.580   6.796   2.887 -0.2522  0.3494 -1.7700
  497MOL0     C66983  10.614   6.711   2.773 -0.4530  0.0143 -0.6405
  497MOL0     O66984  10.749   6.696   2.744 -0.5890 -0.5746 -0.8588
  497MOL0     C66985  10.781   6.692   2.613 -1.1325  1.0496  0.4818
  497MOL0     C66986  10.861   6.791   2.559 -0.6612  0.0377  0.6906
  497MOL0     C66987  10.887   6.786   2.422 -0.6832  0.1016 -1.0500
  497MOL0     C66988  10.988   6.892   2.374 -0.0570 -0.4392 -0.0079
  497MOL0     C66989  10.828   6.695   2.337 -0.6203 -0.1103 -0.0951
  497MOL0     C66990  10.830   6.696   2.195 -0.2532 -0.2289 -0.0462
  497MOL0     O66991  10.818   6.573   2.132  0.3442  0.4499  0.5134
  497MOL0     C66992  10.762   6.571   2.009 -0.5745  0.0107 -0.3884
  497MOL0     C66993  10.629   6.608   1.980 -0.1150  0.4595 -0.1610
  497MOL0     C66994  10.579   6.577   1.860  0.2207  0.6658 -0.3310
  497MOL0     C66995  10.656   6.521   1.756  0.0234  0.1181 -0.4601
  497MOL0     O66996  10.587   6.475   1.648 -0.0594  0.0937 -0.1958
  497MOL0     C66997  10.650   6.410   1.531  0.7304  0.7695 -0.3867
  497MOL0     C66998  10.690   6.496   1.415 -0.0829  0.6236 -0.2452
  497MOL0     C66999  10.566   6.554   1.347 -0.3529 -0.5108  0.1011
  497MOL0     C67000  10.586   6.598   1.205 -1.0304 -0.3080 -0.4186
  497MOL0     C67001  10.476   6.687   1.158 -0.2210  0.4318  0.5003
  497MOL0     C67002  10.496   6.713   1.004 -0.2700  0.5840 -0.3263
  497MOL0     C67003  10.388   6.814   0.969  0.6233  0.4020 -0.4281
  497MOL0     C67004  10.416   6.869   0.828 -0.2180 -0.6376  0.6358
  497MOL0    Cl67005  10.382   6.743   0.705 -0.2493 -0.3724 -0.0209
  497MOL0     C67006  10.794   6.492   1.782 -0.2865  0.6835 -0.4574
  497MOL0     C67007  10.838   6.522   1.907 -0.0450 -0.7105 -0.0664
  497MOL0     O67008  10.814   6.806   2.137  0.0850  0.1520 -0.9896
  497MOL0     C67009  10.762   6.586   2.401  1.6953 -0.1220 -0.4462
  497MOL0     C67010  10.735   6.584   2.531  0.5328 -0.0084 -0.1628
  497MOL0     N67011  10.889   7.091   2.776  0.4589  0.3439  0.2866
  497MOL0     N67012  10.959   7.203   2.804 -0.5662 -0.4564  0.2906
  497MOL0     C67013  11.614   7.191   2.853 -0.0306  0.2965 -0.5456
  497MOL0     C67014  11.640   7.069   2.907 -0.3985  0.0685 -1.1238
  497MOL0     C67015  11.547   6.661   3.107  0.5493  0.2122  0.2082
  497MOL0     C67016  11.521   6.617   3.239 -0.0574  0.4681  0.1105
  497MOL0     C67017  11.552   6.485   3.281 -0.5429  0.6094 -0.1345
  497MOL0     C67018  11.612   6.389   3.200 -0.1793 -0.2801 -0.9683
  497MOL0     O67019  11.644   6.258   3.249 -0.1682  0.5648 -0.2440
  497MOL0     C67020  11.576   6.205   3.367  0.4513  0.2053 -0.5019
  497MOL0     C67021  11.432   6.182   3.332 -0.9156  0.4506 -0.0815
  497MOL0     C67022  11.358   6.086   3.421  1.0332  0.8913 -0.8273
  497MOL0     C67023  11.379   6.113   3.571 -0.2576  0.8992  0.6624
  497MOL0     C67024  11.302   6.044   3.669 -0.8918  0.8630 -0.1662
  497MOL0     C67025  11.229   5.984   3.750 -0.5799 -0.1805 -0.3911
  497MOL0     C67026  11.635   6.438   3.068  0.4323 -0.7586 -0.7475
  497MOL0     C67027  11.613   6.570   3.022 -0.1813 -0.1687 -0.8326
  497MOL0     H67028  11.357   6.911   2.834 -0.7522  0.9698  1.1441
  497MOL0     H67029  11.314   7.120   2.711 -0.8039  0.3680  1.9346
  497MOL0     H67030  11.502   7.453   2.869 -0.3204 -0.4049  0.1885
  497MOL0     H67031  11.618   7.467   2.749  0.3625 -0.6365  2.5525
  497MOL0     H67032  11.512   7.670   2.723  1.0294  0.0132 -3.2498
  497MOL0     H67033  11.484   7.574   2.579 -0.6738  4.4869 -1.9168
  497MOL0     H67034  11.281   7.669   2.642 -0.0868  2.8855  2.9931
  497MOL0     H67035  11.271   7.492   2.697  0.3144 -1.4043  4.7319
  497MOL0     H67036  11.287   7.529   2.905  1.8949 -0.5972 -0.7806
  497MOL0     H67037  11.367   7.676   2.893  0.9090 -2.0308  1.3399
  497MOL0     H67038  11.148   7.711   2.991  1.1621 -1.5639  0.2562
  497MOL0     H67039  11.166   7.806   2.833  1.1042 -0.5604 -2.3803
  497MOL0     H67040  10.947   7.720   2.828 -0.9473 -1.1375  3.2914
  497MOL0     H67041  11.068   7.645   2.712  3.2599 -2.3558  1.5294
  497MOL0     H67042  11.085   7.441   2.871 -0.5697 -2.2216 -0.4138
  497MOL0     H67043  10.971   7.516   2.972  1.4483  2.3164 -0.0361
  497MOL0     H67044  10.898   7.467   2.687 -1.7591  0.3150  0.3797
  497MOL0     H67045  10.798   7.506   2.822  1.0045  1.8976 -0.1397
  497MOL0     H67046  10.635   7.284   2.833 -2.4250 -2.6972  1.1062
  497MOL0     H67047  10.553   7.059   2.766 -0.4447 -0.3938 -3.1740
  497MOL0     H67048  10.662   6.961   2.680 -0.0098  2.1777 -0.8544
  497MOL0     H67049  10.654   6.965   2.992 -0.6433  0.6916 -1.1998
  497MOL0     H67050  10.769   6.884   2.900  0.0939 -1.4498 -6.7168
  497MOL0     H67051  10.475   6.823   2.898 -0.7301 -1.8976 -0.0807
  497MOL0     H67052  10.612   6.739   2.974  0.6040 -0.0982 -2.3659
  497MOL0     H67053  10.559   6.758   2.691 -1.8148 -1.0324 -0.3810
  497MOL0     H67054  10.564   6.613   2.778 -2.2642  0.8007 -1.9683
  497MOL0     H67055  10.893   6.873   2.622 -1.6985  1.3029 -0.3548
  497MOL0     H67056  10.935   6.958   2.305  4.7378  1.2531 -2.5355
  497MOL0     H67057  11.020   6.970   2.444  0.4267  0.7863 -1.5411
  497MOL0     H67058  11.080   6.856   2.326  0.5100 -2.4892  2.4121
  497MOL0     H67059  10.563   6.652   2.054 -3.1888  0.2185 -2.5722
  497MOL0     H67060  10.473   6.581   1.839 -1.9067 -4.5216  6.1509
  497MOL0     H67061  10.741   6.355   1.561 -0.5690 -1.5670 -0.4686
  497MOL0     H67062  10.576   6.344   1.484 -1.7368  2.1162  1.3920
  497MOL0     H67063  10.755   6.576   1.451 -1.2569  0.3887  2.6163
  497MOL0     H67064  10.740   6.428   1.345 -0.1436  0.7085 -0.3701
  497MOL0     H67065  10.537   6.642   1.406  1.2398  1.9156 -2.4568
  497MOL0     H67066  10.483   6.482   1.345 -0.2951 -0.5729 -0.0791
  497MOL0     H67067  10.683   6.648   1.209 -0.3339 -1.4711 -1.6991
  497MOL0     H67068  10.603   6.518   1.132  0.6690 -1.8329  1.4995
  497MOL0     H67069  10.488   6.777   1.219 -1.3543  0.3391  0.8789
  497MOL0     H67070  10.380   6.643   1.186  1.6688 -2.9034  2.3086
  497MOL0     H67071  10.597   6.744   0.976  0.9668 -4.7440 -3.0817
  497MOL0     H67072  10.495   6.621   0.945  0.9078  0.7939 -0.6969
  497MOL0     H67073  10.405   6.893   1.042 -0.4576 -0.2717  0.5882
  497MOL0     H67074  10.285   6.780   0.980  1.0582 -0.5710  0.8620
  497MOL0     H67075  10.522   6.894   0.827  0.1320 -2.0075  0.9580
  497MOL0     H67076  10.356   6.959   0.813  0.6213  0.1422  1.7653
  497MOL0     H67077  10.848   6.440   1.704 -1.5554 -1.7431  0.1803
  497MOL0     H67078  10.939   6.502   1.942 -1.2358 -3.1103  2.3965
  497MOL0     H67079  10.739   6.490   2.356  4.4836 -2.0091  1.8269
  497MOL0     H67080  10.679   6.507   2.583 -0.8669  0.5761 -0.7607
  497MOL0     H67081  11.690   7.267   2.860 -0.1498  0.3328  0.4500
  497MOL0     H67082  11.732   7.040   2.957 -1.0202  0.6197  0.3754
  497MOL0     H67083  11.483   6.689   3.311 -2.3937  1.6577 -2.1917
  497MOL0     H67084  11.521   6.449   3.378 -0.3023 -1.4321 -0.7662
  497MOL0     H67085  11.614   6.108   3.399  1.6915  1.0897  0.8424
  497MOL0     H67086  11.572   6.271   3.454 -3.9107 -0.3628 -0.0342
  497MOL0     H67087  11.439   6.140   3.231 -2.7296  1.8516 -0.8432
  497MOL0     H67088  11.380   6.278   3.321 -0.1288  1.1670  1.9335
  497MOL0     H67089  11.390   5.985   3.395  0.0965  0.3776 -0.0194
  497MOL0     H67090  11.254   6.100   3.389  0.2042 -0.8348  0.9442
  497MOL0     H67091  11.364   6.221   3.581 -0.1179  0.8902  0.9994
  497MOL0     H67092  11.481   6.093   3.604  1.2360  2.0461 -2.7747
  497MOL0     H67093  11.168   5.949   3.831  2.6580 -1.9592  1.4782
  497MOL0     H67094  11.688   6.372   3.000  2.9866 -0.8233  1.2019
  497MOL0     H67095  11.661   6.590   2.927  3.0806 -1.3615  0.3965
  498MOL0     O67096  10.362   2.300   8.062 -0.4800 -0.3651  0.3317
  498MOL0     C67097  10.392   2.188   8.062 -0.8348  0.1068  0.0273
  498MOL0     O67098  10.506   2.129   7.997  0.6558  0.7068  0.4606
  498MOL0     C67099  10.556   2.186   7.878 -0.7444  0.7766 -0.8545
  498MOL0     C67100  10.494   2.276   7.797  0.6180 -0.1267  0.3885
  498MOL0     C67101  10.541   2.318   7.671 -0.1668 -0.4211  1.2283
  498MOL0     C67102  10.664   2.264   7.618 -0.1743 -0.1743 -0.8716
  498MOL0     O67103  10.722   2.289   7.495  0.0531 -1.1941 -0.2231
  498MOL0     C67104  10.652   2.392   7.430  0.6518  0.4241 -0.1493
  498MOL0     C67105  10.712   2.402   7.294  0.7264 -1.0549 -0.3441
  498MOL0     C67106  10.856   2.454   7.272 -0.1384  0.0381  0.3598
  498MOL0     C67107  10.920   2.380   7.154  0.6866  0.6694 -0.1621
  498MOL0     C67108  11.044   2.454   7.114  0.4875  0.0777  0.1254
  498MOL0     C67109  11.136   2.495   7.223 -0.3321 -0.1621 -0.4513
  498MOL0     C67110  11.166   2.362   7.308 -0.3920 -0.5681 -0.3059
  498MOL0     C67111  11.247   2.251   7.240  1.1066 -0.4079 -0.8607
  498MOL0     N67112  11.396   2.270   7.220 -1.0172  0.5516 -0.5481
  498MOL0     C67113  11.487   2.296   7.316 -0.1721 -0.6610 -0.0522
  498MOL0     C67114  11.597   2.318   7.246  0.2713 -1.0178 -0.4828
  498MOL0     C67115  11.724   2.370   7.305  0.1052  0.2935  1.7289
  498MOL0     C67116  11.834   2.380   7.189  0.1469  0.2392 -0.2092
  498MOL0     C67117  11.961   2.464   7.218  0.4928  0.0933  0.2142
  498MOL0     C67118  12.073   2.392   7.293 -0.8712 -0.5553 -0.6221
  498MOL0     O67119  12.005   2.341   7.414 -0.2476  0.3749 -0.7795
  498MOL0     C67120  12.078   2.289   7.522 -0.4592  0.2801 -0.0895
  498MOL0     C67121  12.212   2.309   7.545 -0.5779 -0.1834 -0.2433
  498MOL0     C67122  12.287   2.261   7.648  0.1387  0.0273  0.0413
  498MOL0     C67123  12.430   2.303   7.659  0.0889 -1.3101 -0.3240
  498MOL0     C67124  12.214   2.173   7.737 -0.3572  0.0065  0.2793
  498MOL0     C67125  12.289   2.113   7.862  0.3082  0.2143 -0.6353
  498MOL0     O67126  12.212   2.032   7.936  0.2619  0.3247  0.0059
  498MOL0     C67127  12.260   2.009   8.066 -0.0128 -0.8902 -0.1144
  498MOL0     C67128  12.184   2.062   8.168 -0.2928 -0.0097 -0.1358
  498MOL0     C67129  12.219   2.024   8.298  0.2868 -0.3773  0.3652
  498MOL0     C67130  12.327   1.946   8.325 -0.3012  0.5517  0.2251
  498MOL0     O67131  12.346   1.909   8.455 -0.1767 -1.2001  0.1666
  498MOL0     C67132  12.469   1.842   8.490 -0.2100 -0.3418 -0.9200
  498MOL0     C67133  12.486   1.858   8.639  0.1258  0.8132  0.4319
  498MOL0     C67134  12.606   1.765   8.691 -0.6262  0.1885  0.4847
  498MOL0     C67135  12.568   1.619   8.682 -0.8285 -0.0058  0.1090
  498MOL0     C67136  12.682   1.544   8.742  0.1433 -0.2444 -0.8327
  498MOL0     C67137  12.657   1.388   8.739 -0.8493 -0.1625 -0.0662
  498MOL0     C67138  12.789   1.321   8.778 -0.0370  0.3046  0.0138
  498MOL0     C67139  12.771   1.182   8.724 -1.2322  0.8733 -0.1154
  498MOL0    Cl67140  12.913   1.090   8.756  0.3132  0.1227  0.0591
  498MOL0     C67141  12.413   1.905   8.218 -1.0973 -0.3538  0.5890
  498MOL0     C67142  12.380   1.936   8.089  0.0080  0.1033 -0.0006
  498MOL0     O67143  12.402   2.136   7.886 -0.7119  0.0022 -0.3339
  498MOL0     C67144  12.078   2.148   7.711  0.2106  0.7072  0.7859
  498MOL0     C67145  12.013   2.208   7.605  0.2811 -0.6784  0.4055
  498MOL0     N67146  11.570   2.301   7.114 -0.5285 -0.4908 -0.3583
  498MOL0     N67147  11.448   2.284   7.098  0.0710 -0.2169  0.3279
  498MOL0     C67148  10.736   2.191   7.710 -0.2474 -0.9471  0.8293
  498MOL0     C67149  10.680   2.144   7.828  0.0274 -0.2937 -0.0124
  498MOL0     C67150  10.317   2.106   8.161  1.3634  0.2687  0.7379
  498MOL0     C67151  10.355   1.977   8.176  0.4865  0.0045 -0.8075
  498MOL0     C67152  10.282   1.882   8.259 -0.4056 -0.2411 -0.0373
  498MOL0     C67153  10.179   1.933   8.343  0.4436  0.1865  0.1348
  498MOL0     O67154  10.119   1.842   8.424  0.3385  0.0486  0.8511
  498MOL0     C67155  10.058   1.890   8.550 -0.1762  0.2041  0.1045
  498MOL0     C67156  10.007   1.779   8.646  0.2753  0.7455  0.1700
  498MOL0     C67157  10.124   1.700   8.710  0.1857  0.3318 -1.0303
  498MOL0     C67158  10.092   1.627   8.828  0.7790  0.0109 -0.3694
  498MOL0     C67159  10.157   1.688   8.940  0.4090 -0.8624 -0.9552
  498MOL0     C67160  10.207   1.727   9.039 -1.3575 -0.3091 -0.7833
  498MOL0     C67161  10.149   2.062   8.330 -0.1657 -0.8493  0.8165
  498MOL0     C67162  10.216   2.146   8.236 -0.4858  0.4254 -0.7195
  498MOL0     H67163  10.394   2.313   7.817 -0.5093 -0.3176 -3.8582
  498MOL0     H67164  10.468   2.357   7.601  2.4554 -0.3587 -1.6799
  498MOL0     H67165  10.545   2.368   7.421  0.5122  0.3048  1.5040
  498MOL0     H67166  10.662   2.486   7.485  2.1230 -0.5140  1.2614
  498MOL0     H67167  10.695   2.312   7.235 -1.1236 -1.6848  1.0457
  498MOL0     H67168  10.648   2.479   7.248 -0.2327 -2.2163 -1.0202
  498MOL0     H67169  10.851   2.560   7.247 -0.8323 -0.0105  0.2770
  498MOL0     H67170  10.907   2.439   7.368 -0.4658 -2.1302  0.2622
  498MOL0     H67171  10.950   2.281   7.189 -0.5472  0.8162  1.4291
  498MOL0     H67172  10.843   2.371   7.078  1.6975 -0.8092 -1.0732
  498MOL0     H67173  11.101   2.400   7.038 -1.9941  0.0920 -1.8877
  498MOL0     H67174  11.014   2.543   7.057  1.1237  0.9268  1.0846
  498MOL0     H67175  11.232   2.527   7.180 -0.4616  0.8651  0.0094
  498MOL0     H67176  11.095   2.577   7.282  0.1792  0.1239 -0.4845
  498MOL0     H67177  11.219   2.401   7.395 -0.2890  1.3320 -1.1763
  498MOL0     H67178  11.078   2.310   7.349  0.3253 -0.8813  0.8662
  498MOL0     H67179  11.205   2.218   7.144  1.0122  0.6406 -1.1900
  498MOL0     H67180  11.235   2.172   7.314  0.6654  1.8856  1.6739
  498MOL0     H67181  11.471   2.311   7.422 -4.7171 -1.1286 -0.4600
  498MOL0     H67182  11.699   2.468   7.348 -0.5588  1.1847 -0.5469
  498MOL0     H67183  11.761   2.301   7.382  1.3954 -2.1931 -0.9419
  498MOL0     H67184  11.793   2.430   7.102 -0.1352  0.8891  0.2883
  498MOL0     H67185  11.862   2.281   7.153 -0.7500  0.2242 -0.8786
  498MOL0     H67186  11.928   2.552   7.274  2.1672  0.8871  0.0061
  498MOL0     H67187  12.003   2.499   7.123  2.2287  1.1394  1.3161
  498MOL0     H67188  12.153   2.466   7.311  0.7423 -2.6480  1.4975
  498MOL0     H67189  12.126   2.317   7.235  0.2275 -1.5718  1.5709
  498MOL0     H67190  12.256   2.383   7.479 -1.4758  0.6245  0.0377
  498MOL0     H67191  12.452   2.365   7.746  2.6698 -0.3926 -1.5174
  498MOL0     H67192  12.492   2.215   7.676 -0.1092 -1.2087  1.0132
  498MOL0     H67193  12.464   2.366   7.576 -1.5166  1.6508  1.0998
  498MOL0     H67194  12.105   2.135   8.155 -2.6941 -2.3095  0.6179
  498MOL0     H67195  12.149   2.049   8.377  0.7893 -0.4615  0.8492
  498MOL0     H67196  12.458   1.738   8.459 -0.1304 -0.5473 -0.2763
  498MOL0     H67197  12.546   1.891   8.429 -0.1651 -1.1534 -1.5257
  498MOL0     H67198  12.507   1.961   8.669  3.2543 -0.2757  2.4830
  498MOL0     H67199  12.388   1.826   8.677 -0.7476 -0.3059 -2.4984
  498MOL0     H67200  12.600   1.803   8.794 -3.2428 -1.6206  1.1025
  498MOL0     H67201  12.703   1.784   8.646 -1.6250  0.3970 -1.7087
  498MOL0     H67202  12.473   1.596   8.730  0.1984 -4.1819  0.4972
  498MOL0     H67203  12.567   1.589   8.577  1.5779  0.9709 -0.2679
  498MOL0     H67204  12.679   1.574   8.847  0.3963 -0.3756 -0.7872
  498MOL0     H67205  12.782   1.560   8.701 -0.4242 -0.1612 -2.2803
  498MOL0     H67206  12.573   1.364   8.805 -0.0617  0.1042  1.0688
  498MOL0     H67207  12.622   1.362   8.639 -0.1779  2.2679 -1.0123
  498MOL0     H67208  12.785   1.321   8.887  0.7232  3.5962  0.1484
  498MOL0     H67209  12.886   1.357   8.742  0.3914 -1.8019 -1.0737
  498MOL0     H67210  12.738   1.165   8.621 -1.8909 -4.4499  0.6969
  498MOL0     H67211  12.695   1.130   8.784  0.2798 -2.0922 -0.6239
  498MOL0     H67212  12.504   1.853   8.243 -1.5302  0.3511  4.1395
  498MOL0     H67213  12.452   1.904   8.015  1.6387  0.6244  1.2816
  498MOL0     H67214  12.005   2.098   7.775 -2.7152  3.1319 -0.3838
  498MOL0     H67215  11.912   2.180   7.575 -0.2033  1.4366 -0.0964
  498MOL0     H67216  10.834   2.151   7.687 -0.8943 -1.5230 -1.0825
  498MOL0     H67217  10.725   2.066   7.889 -1.2118 -1.3625 -0.4317
  498MOL0     H67218  10.431   1.925   8.118  2.6456 -1.5595  3.0545
  498MOL0     H67219  10.299   1.775   8.256  1.2560 -0.0687  1.3318
  498MOL0     H67220  10.135   1.943   8.607  0.3784 -1.2234  0.7516
  498MOL0     H67221   9.977   1.960   8.534  0.4518  1.1951  1.1208
  498MOL0     H67222   9.942   1.711   8.590  2.0304  1.0338 -2.4092
  498MOL0     H67223   9.955   1.832   8.726  0.0784 -1.2189  1.4064
  498MOL0     H67224  10.213   1.761   8.729 -1.6316  2.1927  2.6049
  498MOL0     H67225  10.157   1.626   8.637 -0.0442 -3.1007  2.0421
  498MOL0     H67226  10.114   1.523   8.806  1.0200  0.7798 -4.6615
  498MOL0     H67227   9.989   1.641   8.861  0.3910  3.4031 -2.4648
  498MOL0     H67228  10.248   1.738   9.137  1.8950 -1.5557 -1.8657
  498MOL0     H67229  10.064   2.087   8.393  1.3706  0.0090  2.6707
  498MOL0     H67230  10.182   2.249   8.234 -2.8281 -0.2637 -0.0635
  499MOL0     O67231   2.735   3.194   9.075  0.4580  0.2468 -0.1268
  499MOL0     C67232   2.841   3.222   9.026 -1.3522  0.4639 -0.7041
  499MOL0     O67233   2.963   3.196   9.090  0.1499  0.1961  0.1110
  499MOL0     C67234   2.971   3.125   9.207 -0.5442  0.7431 -0.5883
  499MOL0     C67235   2.926   2.995   9.223 -0.3650  0.6682  0.1463
  499MOL0     C67236   2.929   2.925   9.345  0.0795  0.9192  0.4699
  499MOL0     C67237   2.978   2.981   9.458  0.0117  0.0629  0.0206
  499MOL0     O67238   3.001   2.890   9.563 -0.0143 -0.3680  0.1537
  499MOL0     C67239   3.054   2.942   9.685 -0.0552 -0.6475  0.2001
  499MOL0     C67240   3.071   2.831   9.788  0.8384 -0.3771  0.6362
  499MOL0     C67241   3.219   2.778   9.803 -0.5713  0.0874  0.0863
  499MOL0     C67242   3.260   2.754   9.944 -0.1450 -0.1988 -0.9731
  499MOL0     C67243   3.359   2.626   9.945  0.2794  0.4985  0.6328
  499MOL0     C67244   3.455   2.605  10.065 -1.1544 -0.5433 -0.3186
  499MOL0     C67245   3.375   2.635  10.203  0.2485  0.3321 -0.6039
  499MOL0     C67246   3.264   2.530  10.212  0.4047 -0.1528  0.4171
  499MOL0     N67247   3.178   2.545  10.330 -0.8856 -0.0377  0.3556
  499MOL0     C67248   3.220   2.560  10.461 -0.2052  0.7641  0.3782
  499MOL0     C67249   3.110   2.553  10.541 -0.0340 -0.1118  0.2660
  499MOL0     C67250   3.121   2.544  10.694  0.0662  0.4661  1.0496
  499MOL0     C67251   3.209   2.435  10.740  0.1554  0.3427 -0.8553
  499MOL0     C67252   3.238   2.437  10.895 -0.6608 -0.1295 -0.9702
  499MOL0     C67253   3.344   2.344  10.926 -0.0340  0.1372 -0.1731
  499MOL0     O67254   3.454   2.406  10.985  0.2856  0.5834 -0.4256
  499MOL0     C67255   3.558   2.418  10.892 -0.1212  0.4480  0.7970
  499MOL0     C67256   3.563   2.536  10.807  0.2162  0.3622  0.4642
  499MOL0     C67257   3.671   2.550  10.712 -0.1912 -0.5283  0.4102
  499MOL0     C67258   3.663   2.683  10.632  0.6577 -0.3024 -0.1133
  499MOL0     C67259   3.770   2.447  10.694  0.8619 -0.3328 -0.1395
  499MOL0     C67260   3.889   2.458  10.602  0.5981  0.0758  0.1358
  499MOL0     O67261   3.956   2.344  10.574  0.1638 -0.3758  0.0088
  499MOL0     C67262   4.070   2.355  10.494 -0.0487 -0.4242 -0.1928
  499MOL0     C67263   4.109   2.235  10.440  0.0857 -0.0422  0.2144
  499MOL0     C67264   4.241   2.215  10.383  0.2014  0.4518 -0.2541
  499MOL0     C67265   4.343   2.310  10.405  0.0623  0.1745  0.3968
  499MOL0     O67266   4.477   2.291  10.367  0.5920 -0.0729  0.8917
  499MOL0     C67267   4.508   2.167  10.290  0.8562 -0.5123  0.0317
  499MOL0     C67268   4.654   2.168  10.251  0.5780 -0.0431  0.7347
  499MOL0     C67269   4.676   2.045  10.148  0.7120  0.7407  0.4744
  499MOL0     C67270   4.580   2.047  10.020 -0.7591  0.5038  0.0986
  499MOL0     C67271   4.506   1.912  10.007  0.0111  0.1566 -0.0111
  499MOL0     C67272   4.408   1.925   9.885  0.2654 -0.4286  0.8967
  499MOL0     C67273   4.327   1.801   9.865  1.2730  0.2580 -0.6222
  499MOL0     C67274   4.225   1.800   9.752  0.4268 -0.4837  0.8213
  499MOL0    Cl67275   4.315   1.811   9.605  0.0494  0.0680  0.1636
  499MOL0     C67276   4.305   2.429  10.461  0.3763  0.0623  0.4891
  499MOL0     C67277   4.176   2.454  10.500 -0.1529 -0.1957 -1.1333
  499MOL0     O67278   3.916   2.565  10.554  0.3139 -0.5300  0.4579
  499MOL0     C67279   3.752   2.332  10.771 -0.0551 -0.1530 -1.4902
  499MOL0     C67280   3.659   2.318  10.873 -0.3788 -0.0038 -0.0288
  499MOL0     N67281   3.002   2.530  10.458  0.2508  0.0533 -0.2824
  499MOL0     N67282   3.044   2.533  10.331  0.2198  0.5992 -0.3996
  499MOL0     C67283   3.037   3.109   9.439  0.5303 -0.0595 -0.8032
  499MOL0     C67284   3.022   3.180   9.320 -0.2769 -0.1492 -0.5979
  499MOL0     C67285   2.839   3.281   8.891 -0.5546  0.6756  0.7167
  499MOL0     C67286   2.727   3.301   8.815  0.7323  0.4750 -0.4993
  499MOL0     C67287   2.724   3.345   8.681  0.4184 -0.2677  0.6253
  499MOL0     C67288   2.842   3.375   8.615 -0.3552  0.5579 -0.8306
  499MOL0     O67289   2.834   3.418   8.493 -0.3805  0.6315  0.2527
  499MOL0     C67290   2.957   3.423   8.412 -0.2950  0.7462  0.2749
  499MOL0     C67291   3.028   3.559   8.417 -0.1235 -1.4571 -0.9299
  499MOL0     C67292   3.140   3.573   8.313 -0.7095 -0.2947 -0.0671
  499MOL0     C67293   3.223   3.693   8.313 -0.1221  1.0071  0.3064
  499MOL0     C67294   3.301   3.711   8.431  0.0702  0.9910 -0.6650
  499MOL0     C67295   3.362   3.726   8.532 -0.2320 -0.9481  0.1517
  499MOL0     C67296   2.958   3.342   8.687  0.6794 -0.3242 -0.0711
  499MOL0     C67297   2.959   3.289   8.817  0.2457  0.5318  0.0347
  499MOL0     H67298   2.872   2.952   9.140 -1.8903  2.1666  0.3015
  499MOL0     H67299   2.885   2.826   9.354  1.2499  0.2058 -1.2603
  499MOL0     H67300   3.154   2.985   9.675  0.2610 -1.9701 -4.4384
  499MOL0     H67301   2.986   3.018   9.724 -1.6222 -2.0368  0.3064
  499MOL0     H67302   3.022   2.847   9.885  1.0217 -4.2562  1.5507
  499MOL0     H67303   3.003   2.749   9.761 -0.9223  1.6186 -1.4286
  499MOL0     H67304   3.221   2.682   9.751 -0.6931 -0.6478  1.3812
  499MOL0     H67305   3.290   2.848   9.758 -0.1738 -1.4163 -1.6830
  499MOL0     H67306   3.298   2.844   9.994  0.3277 -1.0762  0.2935
  499MOL0     H67307   3.176   2.730  10.009 -2.3849  0.9308 -3.2790
  499MOL0     H67308   3.304   2.535   9.920 -0.9726  1.3425  0.1711
  499MOL0     H67309   3.429   2.638   9.862 -0.9486 -1.6790 -0.8222
  499MOL0     H67310   3.508   2.510  10.070 -0.1590 -0.1974 -2.9458
  499MOL0     H67311   3.528   2.687  10.061 -2.5633  1.1942  3.7788
  499MOL0     H67312   3.438   2.633  10.292  0.2996 -0.0114 -0.6454
  499MOL0     H67313   3.333   2.736  10.205 -0.5442  0.0187  1.7672
  499MOL0     H67314   3.307   2.430  10.203  1.0953 -0.0369  2.0600
  499MOL0     H67315   3.201   2.548  10.124 -0.5178 -0.1113  1.0804
  499MOL0     H67316   3.326   2.565  10.483 -0.2670 -0.6452  1.0893
  499MOL0     H67317   3.159   2.641  10.727  1.9881  1.2678 -2.9294
  499MOL0     H67318   3.023   2.518  10.736 -0.7101 -0.9338 -1.3865
  499MOL0     H67319   3.306   2.429  10.691  1.1799 -3.9660  1.1984
  499MOL0     H67320   3.163   2.339  10.713 -4.3361  1.6849  1.0806
  499MOL0     H67321   3.150   2.415  10.957 -2.7374  1.2335 -3.2527
  499MOL0     H67322   3.260   2.541  10.918 -5.5908  0.1359  5.7005
  499MOL0     H67323   3.369   2.288  10.835 -0.6870 -2.8268  1.3145
  499MOL0     H67324   3.310   2.267  10.997  1.6969  0.7520  1.4215
  499MOL0     H67325   3.488   2.614  10.813 -1.9439 -1.2651 -2.3948
  499MOL0     H67326   3.694   2.670  10.528  2.8766 -1.6559  0.6581
  499MOL0     H67327   3.562   2.724  10.640  0.7062  0.2100 -1.7533
  499MOL0     H67328   3.742   2.752  10.664  1.9131  0.2851 -3.9320
  499MOL0     H67329   4.038   2.153  10.444  2.5109 -2.2212  1.5604
  499MOL0     H67330   4.255   2.127  10.321 -2.8820 -1.0461  0.9287
  499MOL0     H67331   4.486   2.076  10.346  1.8067 -1.2981 -0.8305
  499MOL0     H67332   4.450   2.181  10.198  2.3007 -0.7437 -0.9558
  499MOL0     H67333   4.682   2.259  10.198  1.8121 -0.2223  1.0543
  499MOL0     H67334   4.723   2.154  10.335 -0.3907  2.2514  2.0000
  499MOL0     H67335   4.660   1.954  10.206  0.6753 -0.0160 -0.7032
  499MOL0     H67336   4.781   2.044  10.116  0.3895 -1.9503 -0.7730
  499MOL0     H67337   4.515   2.135  10.024 -0.8888  0.3808  4.0301
  499MOL0     H67338   4.631   2.057   9.923 -0.0984  1.5714  0.5316
  499MOL0     H67339   4.438   1.893  10.090 -1.2216 -1.4816 -1.3268
  499MOL0     H67340   4.568   1.823   9.991 -0.0473  0.2012 -0.5200
  499MOL0     H67341   4.353   2.019   9.887 -0.4227 -0.8205  0.7100
  499MOL0     H67342   4.473   1.937   9.797  1.0149 -2.8062  1.0524
  499MOL0     H67343   4.271   1.781   9.957 -1.5221  2.5953 -1.6481
  499MOL0     H67344   4.405   1.726   9.853 -0.2470 -1.4953  0.0672
  499MOL0     H67345   4.152   1.881   9.754 -0.7010 -1.4447  0.0990
  499MOL0     H67346   4.166   1.707   9.752  1.7043 -1.3509  2.3181
  499MOL0     H67347   4.379   2.509  10.463 -1.2957  1.6898  2.7585
  499MOL0     H67348   4.168   2.544  10.560  2.0944 -1.6743  1.5797
  499MOL0     H67349   3.814   2.245  10.752  2.1619  0.8753  0.4414
  499MOL0     H67350   3.663   2.220  10.920 -0.7928  1.4469  3.2972
  499MOL0     H67351   3.087   3.160   9.521 -0.6996  1.1487 -0.7653
  499MOL0     H67352   3.066   3.279   9.308 -3.9855  1.4329 -2.9582
  499MOL0     H67353   2.636   3.269   8.865  2.4211 -0.7267  2.0618
  499MOL0     H67354   2.635   3.354   8.620  2.2285  1.8030 -1.9280
  499MOL0     H67355   3.027   3.342   8.435 -0.4065  0.9120  1.2298
  499MOL0     H67356   2.933   3.392   8.310 -0.6100 -2.8481  1.3227
  499MOL0     H67357   3.063   3.577   8.519 -2.6513  3.3274 -0.5944
  499MOL0     H67358   2.957   3.642   8.408  2.9834  1.6445  0.8563
  499MOL0     H67359   3.098   3.570   8.212  0.8812  3.2997 -0.9912
  499MOL0     H67360   3.208   3.488   8.327  0.6310  0.6764 -0.4484
  499MOL0     H67361   3.160   3.777   8.283 -1.3790 -1.2886 -4.4782
  499MOL0     H67362   3.293   3.671   8.231 -2.4762  1.3986 -1.9640
  499MOL0     H67363   3.416   3.726   8.624  3.0209 -1.8567 -1.5840
  499MOL0     H67364   3.056   3.350   8.640  0.9853  1.1778  0.7540
  499MOL0     H67365   3.054   3.255   8.857  0.1996 -0.5918 -0.7801
  500MOL0     O67366   6.479   7.098   6.132  0.0958  0.1956 -0.2022
  500MOL0     C67367   6.589   7.047   6.149 -0.0060  0.0209 -0.6168
  500MOL0     O67368   6.621   6.916   6.131 -0.1647 -0.3794 -0.3439
  500MOL0     C67369   6.528   6.813   6.113 -0.0590 -0.0837  0.2299
  500MOL0     C67370   6.578   6.702   6.028  0.9538 -0.8095  0.0111
  500MOL0     C67371   6.508   6.580   6.030 -0.2846 -0.3223  0.0180
  500MOL0     C67372   6.373   6.574   6.080 -0.4586  0.3155  0.1852
  500MOL0     O67373   6.300   6.458   6.077 -0.4109 -0.6228 -0.1467
  500MOL0     C67374   6.375   6.354   6.137 -0.0760  0.1561 -0.7069
  500MOL0     C67375   6.296   6.228   6.178 -0.7172 -0.2782  0.0014
  500MOL0     C67376   6.365   6.126   6.256 -0.4349 -1.0179  0.1407
  500MOL0     C67377   6.294   5.996   6.258  0.0893 -0.0488 -0.7867
  500MOL0     C67378   6.383   5.866   6.291 -0.1368  0.2810 -0.7560
  500MOL0     C67379   6.466   5.892   6.423 -0.6493  0.8710  0.6535
  500MOL0     C67380   6.519   5.755   6.467  0.1948 -0.4736 -0.1038
  500MOL0     C67381   6.601   5.760   6.597 -0.1905  0.7919  0.3636
  500MOL0     N67382   6.643   5.634   6.648  0.8687  0.0732  0.4804
  500MOL0     C67383   6.568   5.514   6.662  0.8387 -0.0124 -0.3317
  500MOL0     C67384   6.661   5.421   6.665  0.1414 -0.2947  0.7393
  500MOL0     C67385   6.632   5.268   6.662 -0.2768 -0.3665 -0.7734
  500MOL0     C67386   6.598   5.214   6.803  0.7171  0.7697  0.7374
  500MOL0     C67387   6.717   5.233   6.890 -0.2211  0.4846  0.1941
  500MOL0     C67388   6.708   5.156   7.023 -0.4833 -1.0444  0.2972
  500MOL0     O67389   6.749   5.021   7.019 -0.2662 -0.7022  0.6531
  500MOL0     C67390   6.661   4.918   7.019 -0.2815 -0.1257 -0.8759
  500MOL0     C67391   6.526   4.919   7.000  0.0821 -0.7890  0.0636
  500MOL0     C67392   6.452   4.804   7.011  0.3960  0.1906  0.3710
  500MOL0     C67393   6.303   4.809   7.014 -0.3365  0.8098  1.2004
  500MOL0     C67394   6.520   4.677   7.032 -0.5991 -0.0381  0.0981
  500MOL0     C67395   6.453   4.555   7.064 -0.2472  0.6026 -0.2022
  500MOL0     O67396   6.507   4.476   7.170 -0.1956 -0.1736  0.1554
  500MOL0     C67397   6.494   4.337   7.173  0.5397  0.6311 -0.2337
  500MOL0     C67398   6.519   4.267   7.288 -0.9242 -0.7762 -0.0260
  500MOL0     C67399   6.526   4.117   7.287 -0.3005 -1.5895 -0.3570
  500MOL0     C67400   6.508   4.052   7.175  0.3409  0.4497 -0.1565
  500MOL0     O67401   6.506   3.910   7.187 -0.4294 -0.3828 -0.2314
  500MOL0     C67402   6.427   3.824   7.112 -0.4969  0.5381  0.1978
  500MOL0     C67403   6.284   3.837   7.160 -0.4816  0.7653  0.0649
  500MOL0     C67404   6.263   3.811   7.315 -1.3396  0.3973  0.0280
  500MOL0     C67405   6.125   3.866   7.371  0.5483  0.7287  0.1717
  500MOL0     C67406   6.024   3.757   7.383 -0.1487  0.3767  0.6032
  500MOL0     C67407   5.881   3.811   7.347 -0.5257  0.0583 -0.1630
  500MOL0     C67408   5.791   3.680   7.321  0.3819 -0.2924 -0.5267
  500MOL0     C67409   5.687   3.714   7.215  0.5206  0.8775  0.4816
  500MOL0    Cl67410   5.596   3.851   7.265 -0.4653  0.1937 -0.3593
  500MOL0     C67411   6.507   4.123   7.049 -0.4112  0.9929 -0.4189
  500MOL0     C67412   6.491   4.261   7.048 -0.0612 -0.6875 -0.2336
  500MOL0     O67413   6.367   4.521   6.985  1.2034 -0.0264  0.0843
  500MOL0     C67414   6.665   4.678   7.047 -0.1808  0.1131 -0.3078
  500MOL0     C67415   6.733   4.802   7.057  0.0448  0.2304 -0.3446
  500MOL0     N67416   6.786   5.478   6.662  0.2951 -0.0646 -0.0933
  500MOL0     N67417   6.773   5.605   6.661 -0.2433  0.3254 -0.9653
  500MOL0     C67418   6.325   6.681   6.147 -0.1531 -0.1134  0.6001
  500MOL0     C67419   6.398   6.801   6.173 -0.1867 -0.9299  0.4346
  500MOL0     C67420   6.706   7.132   6.162  0.6759  0.8741 -0.2822
  500MOL0     C67421   6.820   7.083   6.102  0.6508 -0.1125  0.5608
  500MOL0     C67422   6.934   7.159   6.102  0.0957  0.2480 -1.1169
  500MOL0     C67423   6.931   7.284   6.153 -0.4180  0.2639  0.4975
  500MOL0     O67424   7.040   7.366   6.152  0.1567 -0.0885  0.2370
  500MOL0     C67425   7.139   7.335   6.247 -0.0855  0.6220 -0.3280
  500MOL0     C67426   7.229   7.451   6.269  0.5650  0.6561 -0.1833
  500MOL0     C67427   7.333   7.455   6.155 -0.5459  0.0172  0.6323
  500MOL0     C67428   7.470   7.507   6.197 -0.1387  0.1008 -0.1996
  500MOL0     C67429   7.562   7.517   6.086 -0.0286 -1.1215 -0.3744
  500MOL0     C67430   7.636   7.524   5.995  0.3962  0.1943  0.0761
  500MOL0     C67431   6.811   7.346   6.200 -0.4062  0.4930  0.8052
  500MOL0     C67432   6.696   7.270   6.199  0.4667  0.4740  0.3136
  500MOL0     H67433   6.685   6.692   6.011  0.9475 -1.5327  0.3431
  500MOL0     H67434   6.567   6.508   5.974  1.4507  0.5078  0.7188
  500MOL0     H67435   6.459   6.326   6.072  1.7063 -0.8644  1.8547
  500MOL0     H67436   6.417   6.395   6.229  0.0878 -0.7686 -0.3546
  500MOL0     H67437   6.211   6.259   6.239 -1.3272 -0.6629 -0.6434
  500MOL0     H67438   6.268   6.169   6.091 -0.6376  1.5521 -1.3270
  500MOL0     H67439   6.453   6.109   6.193  0.8770  0.5111  1.4418
  500MOL0     H67440   6.404   6.160   6.353  2.2324 -0.4105 -1.0397
  500MOL0     H67441   6.214   5.989   6.333 -2.6868  1.4951 -3.3777
  500MOL0     H67442   6.249   5.977   6.160 -0.7049  0.6580 -0.5704
  500MOL0     H67443   6.324   5.776   6.310  1.3472 -0.5361  0.0631
  500MOL0     H67444   6.450   5.854   6.206  1.7009 -0.0562  0.6957
  500MOL0     H67445   6.552   5.956   6.403  0.8837 -1.2769 -0.0722
  500MOL0     H67446   6.403   5.931   6.503 -2.6332 -2.4766  0.9283
  500MOL0     H67447   6.448   5.672   6.480 -0.1853  0.2965  3.9270
  500MOL0     H67448   6.584   5.726   6.384 -0.7596  1.7331 -1.7259
  500MOL0     H67449   6.543   5.796   6.682 -0.5979  2.9681 -0.7535
  500MOL0     H67450   6.695   5.815   6.582 -0.2154  1.8325  3.3106
  500MOL0     H67451   6.461   5.498   6.671  0.1804  1.2408 -3.9112
  500MOL0     H67452   6.545   5.246   6.600 -1.5739 -2.0767  1.4690
  500MOL0     H67453   6.725   5.235   6.616  2.0280  4.8497 -0.6211
  500MOL0     H67454   6.575   5.108   6.785  2.0830  1.0669 -4.6076
  500MOL0     H67455   6.512   5.266   6.846  1.2386  2.6546 -0.4150
  500MOL0     H67456   6.740   5.339   6.903  3.0203 -0.0390 -0.5530
  500MOL0     H67457   6.803   5.187   6.840 -1.0341 -1.0855  0.1636
  500MOL0     H67458   6.608   5.174   7.063 -0.3116  5.3330 -1.0998
  500MOL0     H67459   6.775   5.210   7.090 -0.6156  2.6924 -2.2745
  500MOL0     H67460   6.477   5.016   6.998  0.3005 -0.5888  1.9242
  500MOL0     H67461   6.267   4.752   6.928  0.9678  0.6956  0.7038
  500MOL0     H67462   6.263   4.764   7.105  0.2434 -2.4578 -0.0231
  500MOL0     H67463   6.264   4.911   7.017 -4.5854 -0.6136  1.1232
  500MOL0     H67464   6.526   4.309   7.388 -2.2409 -1.5778  0.4233
  500MOL0     H67465   6.546   4.066   7.380 -2.8193 -1.1583  0.4739
  500MOL0     H67466   6.430   3.833   7.003 -0.8903  2.0865  0.2907
  500MOL0     H67467   6.448   3.722   7.145 -3.7873 -0.6428 -0.9960
  500MOL0     H67468   6.251   3.940   7.144  0.6368  1.2536  0.7385
  500MOL0     H67469   6.215   3.769   7.109 -0.8179  1.9314 -1.0824
  500MOL0     H67470   6.347   3.857   7.367 -0.8097 -0.9081  0.3558
  500MOL0     H67471   6.277   3.706   7.340  3.0114  0.7180 -0.2983
  500MOL0     H67472   6.140   3.920   7.465  0.2975  0.6041  0.2854
  500MOL0     H67473   6.085   3.940   7.300  0.1414 -1.1643 -1.6748
  500MOL0     H67474   6.019   3.723   7.486 -1.2535 -0.2232  0.3646
  500MOL0     H67475   6.055   3.670   7.323 -0.9254  0.0119  0.7236
  500MOL0     H67476   5.829   3.859   7.430 -0.3815 -1.5719  0.9255
  500MOL0     H67477   5.888   3.880   7.263 -0.1406  2.6325  1.8737
  500MOL0     H67478   5.734   3.654   7.411 -0.1289 -2.1021 -1.3368
  500MOL0     H67479   5.848   3.590   7.299  0.0414 -0.3689 -1.1423
  500MOL0     H67480   5.613   3.635   7.200 -0.6994  1.8407  1.2405
  500MOL0     H67481   5.733   3.729   7.117 -0.1625 -2.5251 -0.4732
  500MOL0     H67482   6.511   4.065   6.958 -0.8891 -0.7430  0.6062
  500MOL0     H67483   6.491   4.320   6.957  2.5248  1.0587  0.7708
  500MOL0     H67484   6.721   4.586   7.061 -0.4362  0.1146  0.7930
  500MOL0     H67485   6.839   4.800   7.078  0.6190  2.1778 -2.6367
  500MOL0     H67486   6.233   6.666   6.203 -0.8888  1.4757 -0.1474
  500MOL0     H67487   6.362   6.887   6.230  4.4906  0.7161  1.3593
  500MOL0     H67488   6.836   6.985   6.058  2.5841  0.0796  0.7410
  500MOL0     H67489   7.027   7.114   6.072  0.7653  1.4613 -0.9264
  500MOL0     H67490   7.092   7.297   6.338  3.1312 -2.1442  0.3784
  500MOL0     H67491   7.205   7.251   6.222 -1.1303 -0.2824 -0.1201
  500MOL0     H67492   7.271   7.449   6.370 -0.2779  3.4606  0.3159
  500MOL0     H67493   7.163   7.539   6.265 -2.5476 -1.2973  2.7195
  500MOL0     H67494   7.293   7.523   6.079  0.4697 -0.0533  0.0265
  500MOL0     H67495   7.346   7.353   6.118  0.2114 -0.5884  2.4593
  500MOL0     H67496   7.518   7.439   6.269 -1.3500 -3.8538 -2.8399
  500MOL0     H67497   7.459   7.604   6.248 -2.6590 -0.1410 -0.1681
  500MOL0     H67498   7.710   7.523   5.917  0.0692 -1.5655 -0.2602
  500MOL0     H67499   6.800   7.448   6.235 -2.1340  1.2565 -1.6541
  500MOL0     H67500   6.606   7.329   6.215  1.6308  2.9927 -1.7723
  501MOL0     O67501   3.547   8.080   2.754  0.0591  0.6115 -0.1899
  501MOL0     C67502   3.563   8.096   2.875 -0.3674 -0.1116 -0.0856
  501MOL0     O67503   3.671   8.082   2.945  0.7967 -0.8611  0.1579
  501MOL0     C67504   3.781   8.015   2.883 -0.0502 -0.1477  0.4311
  501MOL0     C67505   3.880   8.084   2.815 -0.6019  0.5331 -0.3507
  501MOL0     C67506   3.973   8.012   2.744  0.7271  0.3889  0.1158
  501MOL0     C67507   3.988   7.877   2.748 -0.3270  0.3518 -0.5126
  501MOL0     O67508   4.087   7.803   2.696  0.2240 -0.2033  0.1098
  501MOL0     C67509   4.164   7.865   2.585 -0.5157 -0.1656 -0.6281
  501MOL0     C67510   4.262   7.762   2.533  0.0646 -0.0366  0.4674
  501MOL0     C67511   4.349   7.841   2.434  1.0453 -1.5905 -1.1964
  501MOL0     C67512   4.451   7.761   2.367 -0.1035  0.5010  0.4427
  501MOL0     C67513   4.407   7.704   2.230  0.0228 -0.2616 -1.2665
  501MOL0     C67514   4.529   7.643   2.164 -0.5701 -0.3303  0.0843
  501MOL0     C67515   4.608   7.738   2.072 -0.2861  0.0618  0.1026
  501MOL0     C67516   4.688   7.678   1.965  1.0215  0.2115  1.2627
  501MOL0     N67517   4.802   7.591   2.013  0.8085  1.8436  0.2145
  501MOL0     C67518   4.794   7.456   2.000  0.3747  0.2499  0.0755
  501MOL0     C67519   4.924   7.420   1.986 -0.2847  0.1362 -0.4468
  501MOL0     C67520   4.970   7.280   1.999  0.4546  0.9814 -0.0724
  501MOL0     C67521   4.992   7.226   1.854 -0.3942  0.1802 -0.9261
  501MOL0     C67522   4.863   7.203   1.775  1.1086 -0.0999  0.1278
  501MOL0     C67523   4.859   7.066   1.699 -0.4526 -0.4959 -0.6034
  501MOL0     O67524   4.959   7.054   1.597  0.2677  0.4055  0.4378
  501MOL0     C67525   4.941   7.140   1.488 -0.0050  0.5887 -0.6790
  501MOL0     C67526   5.047   7.178   1.403  0.5448  0.5038  0.4867
  501MOL0     C67527   5.036   7.261   1.287  1.0237 -0.1787 -0.1313
  501MOL0     C67528   5.161   7.276   1.204  1.0020  0.3399 -1.1433
  501MOL0     C67529   4.912   7.328   1.266 -0.1676 -0.0128  0.2643
  501MOL0     C67530   4.892   7.412   1.144  0.2393 -0.3583  0.2652
  501MOL0     O67531   4.975   7.404   1.039  0.5309  0.0671 -0.3480
  501MOL0     C67532   4.931   7.444   0.917  1.4132 -0.9235  0.2737
  501MOL0     C67533   4.878   7.578   0.892  0.4585  1.0125 -0.4376
  501MOL0     C67534   4.834   7.609   0.760 -0.0696 -0.1519 -0.5993
  501MOL0     C67535   4.849   7.514   0.655 -0.2128  0.0568  0.3730
  501MOL0     O67536   4.803   7.560   0.535  0.7536 -0.0264 -0.3630
  501MOL0     C67537   4.895   7.557   0.423  0.3351  0.5560  0.3845
  501MOL0     C67538   4.955   7.696   0.423  0.0642  0.2185 -0.3958
  501MOL0     C67539   5.065   7.726   0.327 -0.6557  0.0758  0.2971
  501MOL0     C67540   5.199   7.664   0.367  0.4994  0.0537 -0.2595
  501MOL0     C67541   5.321   7.735   0.313  0.1766 -0.8475  0.1046
  501MOL0     C67542   5.437   7.667   0.373  0.6206  0.1124 -1.2442
  501MOL0     C67543   5.572   7.729   0.337 -0.3631 -0.6636 -0.6846
  501MOL0     C67544   5.677   7.631   0.405  0.0687 -0.0416  0.0958
  501MOL0    Cl67545   5.693   7.502   0.282  0.4589  0.4014  0.1241
  501MOL0     C67546   4.904   7.390   0.673 -0.3181  0.4701  0.8572
  501MOL0     C67547   4.946   7.356   0.803 -0.1062 -0.2137 -0.6825
  501MOL0     O67548   4.794   7.483   1.157 -0.3077  0.0201 -0.4384
  501MOL0     C67549   4.801   7.293   1.350 -0.0819 -0.3850  0.1268
  501MOL0     C67550   4.822   7.202   1.454  0.8188 -0.5575  0.4990
  501MOL0     N67551   5.007   7.535   1.987  0.7753 -0.0797 -0.1300
  501MOL0     N67552   4.939   7.639   2.003  0.7237  0.1039 -0.5787
  501MOL0     C67553   3.891   7.812   2.825  0.5849  0.7120  0.7128
  501MOL0     C67554   3.786   7.875   2.895  0.5695 -0.0191 -1.2541
  501MOL0     C67555   3.445   8.108   2.963 -0.4426 -0.5316  1.0894
  501MOL0     C67556   3.434   8.057   3.092  0.2422  0.1182  0.3864
  501MOL0     C67557   3.311   8.074   3.158  0.8456 -0.1878 -0.3947
  501MOL0     C67558   3.201   8.147   3.107 -0.0770  0.6372 -0.0539
  501MOL0     O67559   3.090   8.159   3.186 -0.0438  0.2193  0.1708
  501MOL0     C67560   2.984   8.253   3.175  0.5399  0.4960  0.4623
  501MOL0     C67561   3.053   8.386   3.182  0.2814 -0.7119  0.6793
  501MOL0     C67562   2.954   8.510   3.177  0.0069  0.3449  0.8935
  501MOL0     C67563   3.011   8.648   3.220 -0.8080  0.1008 -0.6069
  501MOL0     C67564   2.906   8.735   3.264 -1.1531 -0.0575 -0.1961
  501MOL0     C67565   2.821   8.821   3.301 -0.7613  0.2257 -0.8906
  501MOL0     C67566   3.211   8.189   2.976  0.8051 -0.7328  0.7372
  501MOL0     C67567   3.329   8.181   2.904 -0.0738 -0.1561 -0.9160
  501MOL0     H67568   3.884   8.193   2.816  0.8080  0.6237  3.5175
  501MOL0     H67569   4.042   8.069   2.683  0.8100  0.6760  0.4746
  501MOL0     H67570   4.097   7.898   2.504 -1.0297  2.5223  0.7596
  501MOL0     H67571   4.210   7.959   2.616 -2.3046 -0.5153  3.8088
  501MOL0     H67572   4.308   7.713   2.620 -2.3598 -2.0655  0.7198
  501MOL0     H67573   4.208   7.686   2.476  4.2116 -3.8225  1.0084
  501MOL0     H67574   4.299   7.900   2.357  0.8526  1.8462  1.3119
  501MOL0     H67575   4.401   7.928   2.477 -3.3525  0.8005 -0.0430
  501MOL0     H67576   4.527   7.837   2.349 -2.8519  3.3283 -0.2654
  501MOL0     H67577   4.494   7.690   2.438  0.3610 -1.2106 -1.4418
  501MOL0     H67578   4.323   7.644   2.264 -2.7713  5.2542  3.3240
  501MOL0     H67579   4.365   7.782   2.165 -0.2689 -1.1083 -2.1088
  501MOL0     H67580   4.594   7.614   2.247  0.2345  1.8779  0.3119
  501MOL0     H67581   4.490   7.552   2.117 -0.0101  0.0025 -1.0679
  501MOL0     H67582   4.539   7.803   2.018  1.8540  1.8127 -0.7119
  501MOL0     H67583   4.674   7.802   2.132 -2.2957  1.9214  0.4652
  501MOL0     H67584   4.725   7.754   1.896  1.7276 -1.7527 -0.6352
  501MOL0     H67585   4.618   7.617   1.907 -0.3272  2.2294  0.6823
  501MOL0     H67586   4.715   7.383   2.002 -1.1391  1.8229  0.2278
  501MOL0     H67587   5.061   7.272   2.059  0.3590 -3.0091 -0.1674
  501MOL0     H67588   4.893   7.218   2.045  1.0241 -1.2490 -1.9117
  501MOL0     H67589   5.064   7.143   1.853 -1.0869 -0.4614  0.3074
  501MOL0     H67590   5.041   7.310   1.803  1.1695 -1.3174 -2.0023
  501MOL0     H67591   4.838   7.288   1.711 -1.7210 -1.1615 -0.3368
  501MOL0     H67592   4.789   7.201   1.856  0.8740  0.4150 -0.0686
  501MOL0     H67593   4.761   7.047   1.656 -0.8515 -1.3752  0.6505
  501MOL0     H67594   4.876   6.980   1.764 -0.4797 -2.8513 -3.4835
  501MOL0     H67595   5.139   7.129   1.436  1.8225  2.4380 -0.0101
  501MOL0     H67596   5.147   7.301   1.098 -0.3127  2.0764 -0.6227
  501MOL0     H67597   5.224   7.356   1.243 -0.7071  0.8060  0.8469
  501MOL0     H67598   5.223   7.187   1.210 -0.8127 -0.9848 -1.0124
  501MOL0     H67599   4.868   7.653   0.971 -0.8245  0.0872  0.3120
  501MOL0     H67600   4.787   7.704   0.737 -3.3208 -1.8398 -1.5306
  501MOL0     H67601   4.966   7.474   0.427 -0.2561  0.0505  0.3682
  501MOL0     H67602   4.843   7.544   0.328 -0.4277  1.4829  0.6558
  501MOL0     H67603   4.873   7.768   0.420  2.6069  3.3679 -0.4058
  501MOL0     H67604   4.995   7.706   0.525  0.7250  1.7348 -0.7809
  501MOL0     H67605   5.074   7.833   0.305  1.2987 -0.0441  0.3611
  501MOL0     H67606   5.035   7.677   0.233 -1.1359 -1.5934  1.2783
  501MOL0     H67607   5.198   7.653   0.476 -1.9060 -2.3572 -0.4301
  501MOL0     H67608   5.208   7.557   0.350  1.3741 -0.3755  2.4192
  501MOL0     H67609   5.315   7.837   0.351 -0.5670 -1.5504  1.9933
  501MOL0     H67610   5.320   7.739   0.204 -2.7466 -0.2693  0.0835
  501MOL0     H67611   5.428   7.671   0.482 -3.2906 -1.3203 -1.3782
  501MOL0     H67612   5.435   7.561   0.344  2.0796  0.0792 -1.3290
  501MOL0     H67613   5.584   7.829   0.379 -0.0031 -1.4511  1.1988
  501MOL0     H67614   5.587   7.733   0.229  0.3333  0.6094 -0.5547
  501MOL0     H67615   5.663   7.600   0.509  4.9557  0.3215  1.1404
  501MOL0     H67616   5.779   7.668   0.420  1.3027 -3.1885  0.2025
  501MOL0     H67617   4.917   7.313   0.598  1.5558  1.1738  0.4009
  501MOL0     H67618   4.999   7.265   0.826  1.4989  1.0301  0.8009
  501MOL0     H67619   4.705   7.337   1.326  1.7001  2.1084 -3.4261
  501MOL0     H67620   4.726   7.180   1.499  0.8314 -0.3444  0.6345
  501MOL0     H67621   3.888   7.705   2.836 -0.3716  0.7494  0.9045
  501MOL0     H67622   3.715   7.807   2.941 -0.0177  1.0373 -0.5523
  501MOL0     H67623   3.523   8.018   3.140  1.7089  0.8680 -1.6068
  501MOL0     H67624   3.298   8.037   3.259 -6.0556  0.1207 -0.6795
  501MOL0     H67625   2.943   8.250   3.074  5.1030  3.6676 -1.8391
  501MOL0     H67626   2.913   8.238   3.258  0.6309 -0.9241  0.2989
  501MOL0     H67627   3.126   8.398   3.102  0.6955  0.8695  1.2612
  501MOL0     H67628   3.114   8.403   3.270 -1.7124 -1.8375  2.3745
  501MOL0     H67629   2.869   8.494   3.245  0.6529  0.3715  1.7150
  501MOL0     H67630   2.915   8.527   3.076  0.8259 -3.0434 -0.1257
  501MOL0     H67631   3.070   8.689   3.138 -1.8299  2.9861 -0.0182
  501MOL0     H67632   3.075   8.631   3.308 -1.5208 -0.8070 -0.2413
  501MOL0     H67633   2.742   8.882   3.339 -3.2953 -2.4240 -1.5307
  501MOL0     H67634   3.126   8.238   2.929  0.8144 -1.3457  0.0755
  501MOL0     H67635   3.331   8.220   2.802 -1.5604 -2.3403 -1.8521
  502MOL0     O67636   8.927   9.720   7.825 -0.2725  0.1378 -0.1992
  502MOL0     C67637   9.029   9.662   7.871  0.3818 -1.1073 -0.4598
  502MOL0     O67638   9.154   9.713   7.880 -0.4339 -1.0157  0.5184
  502MOL0     C67639   9.175   9.844   7.844  0.2096 -1.4373  0.3987
  502MOL0     C67640   9.095   9.961   7.846 -0.3473  0.0026  0.5020
  502MOL0     C67641   9.144  10.082   7.806 -0.0363 -0.5443 -0.5278
  502MOL0     C67642   9.277  10.103   7.788  0.0182 -0.0343 -0.4168
  502MOL0     O67643   9.312  10.225   7.751 -0.6825 -0.0681 -0.1191
  502MOL0     C67644   9.448  10.277   7.743 -0.2300  0.0255 -0.2749
  502MOL0     C67645   9.514  10.264   7.603  0.4407 -0.1188 -1.1215
  502MOL0     C67646   9.648  10.336   7.607 -0.0704 -0.2789  0.1526
  502MOL0     C67647   9.705  10.324   7.474  0.4081  0.6478  0.2764
  502MOL0     C67648   9.852  10.367   7.493  0.1275 -0.3574 -0.9463
  502MOL0     C67649   9.865  10.518   7.517  0.6221 -0.1572 -0.1239
  502MOL0     C67650   9.799  10.605   7.400 -0.2575 -0.0863 -0.0540
  502MOL0     C67651   9.856  10.573   7.265 -1.1308 -0.2547 -0.1902
  502MOL0     N67652   9.813  10.670   7.168 -0.3654 -0.3355  0.0849
  502MOL0     C67653   9.682  10.713   7.150  1.1495 -0.4261  0.8368
  502MOL0     C67654   9.689  10.838   7.084  0.0345  0.9927 -1.2040
  502MOL0     C67655   9.566  10.927   7.055 -0.1351  0.7087  0.2123
  502MOL0     C67656   9.543  11.028   7.166  0.8984 -0.4399  0.0520
  502MOL0     C67657   9.462  11.148   7.104  0.6636  0.6924 -0.2483
  502MOL0     C67658   9.376  11.215   7.217 -0.3084 -0.6644  0.1704
  502MOL0     O67659   9.267  11.299   7.167 -0.3743  0.0516 -0.2003
  502MOL0     C67660   9.136  11.254   7.190 -0.1380 -0.6676 -0.4804
  502MOL0     C67661   9.103  11.114   7.174  0.9607 -0.3244  0.4208
  502MOL0     C67662   8.961  11.070   7.174  0.2396  0.1536  0.3084
  502MOL0     C67663   8.932  10.923   7.155 -0.2279  0.1957 -0.4425
  502MOL0     C67664   8.861  11.165   7.191 -0.4196  0.1307 -0.3024
  502MOL0     C67665   8.714  11.129   7.199  0.9365  0.1269 -0.1451
  502MOL0     O67666   8.622  11.230   7.193  0.1468  0.3661 -0.0544
  502MOL0     C67667   8.497  11.214   7.235  0.1538 -0.2930  0.3117
  502MOL0     C67668   8.453  11.275   7.352  0.2502 -0.6335 -0.2496
  502MOL0     C67669   8.323  11.265   7.402  0.5037 -0.5988  0.2915
  502MOL0     C67670   8.230  11.215   7.316 -0.4726 -0.3738  0.1681
  502MOL0     O67671   8.110  11.182   7.382  0.7495 -0.8097  0.8125
  502MOL0     C67672   8.032  11.080   7.334  0.4168  0.1091  0.5521
  502MOL0     C67673   7.910  11.055   7.417  0.6025 -0.2537  0.4489
  502MOL0     C67674   7.804  11.165   7.414 -0.4161  0.3929  1.3894
  502MOL0     C67675   7.835  11.300   7.476  0.6539  0.4685  0.4108
  502MOL0     C67676   7.721  11.402   7.475  0.1476  0.1474 -0.3931
  502MOL0     C67677   7.629  11.405   7.349 -0.6052 -0.4263  0.4450
  502MOL0     C67678   7.519  11.506   7.355 -0.6620 -0.1499  0.3065
  502MOL0     C67679   7.429  11.485   7.478 -0.5689  0.2506 -0.3473
  502MOL0    Cl67680   7.270  11.551   7.439  0.4355 -0.1115 -0.3340
  502MOL0     C67681   8.266  11.163   7.184  0.5629 -0.6915 -0.5950
  502MOL0     C67682   8.399  11.163   7.145  0.0243 -0.4553 -0.4055
  502MOL0     O67683   8.681  11.010   7.217 -0.1921  0.0508 -0.3505
  502MOL0     C67684   8.904  11.306   7.210  0.2185  0.8723  0.4562
  502MOL0     C67685   9.033  11.340   7.220 -0.5066 -0.0919  1.2745
  502MOL0     N67686   9.816  10.868   7.078  0.0814  0.3504  0.9338
  502MOL0     N67687   9.883  10.780   7.136 -0.5980 -0.1499 -0.5538
  502MOL0     C67688   9.363   9.996   7.814  0.3057  0.1072  0.0022
  502MOL0     C67689   9.309   9.868   7.820 -0.2609  0.2576  0.4377
  502MOL0     C67690   9.014   9.516   7.907  1.3184 -0.0253 -0.0034
  502MOL0     C67691   8.884   9.464   7.901 -0.9085 -0.1856 -0.6742
  502MOL0     C67692   8.869   9.324   7.916  0.6770  0.0963  0.5217
  502MOL0     C67693   8.981   9.236   7.930  0.1091 -0.9458 -0.4074
  502MOL0     O67694   8.943   9.097   7.930 -0.0456 -0.0672  0.1929
  502MOL0     C67695   9.043   9.003   7.932 -0.3848 -0.0962  0.4761
  502MOL0     C67696   9.105   8.950   8.057 -1.1497  0.3747  0.4346
  502MOL0     C67697   9.009   8.887   8.165  0.1430  0.0386 -0.1921
  502MOL0     C67698   9.088   8.816   8.287  0.5373  0.2084 -0.2981
  502MOL0     C67699   9.122   8.920   8.382 -0.3265 -0.5055  0.1422
  502MOL0     C67700   9.158   9.012   8.452  0.2973  1.1059 -1.2386
  502MOL0     C67701   9.107   9.292   7.932 -0.1039 -0.0274  0.4433
  502MOL0     C67702   9.126   9.428   7.927 -0.1169 -0.5027  0.8887
  502MOL0     H67703   8.987   9.954   7.854 -1.0225  2.8560 -3.3347
  502MOL0     H67704   9.075  10.166   7.795  0.9821  0.5578  1.0960
  502MOL0     H67705   9.438  10.384   7.761  1.1247 -0.0547  1.1581
  502MOL0     H67706   9.507  10.232   7.823 -0.3330 -2.2449 -1.3906
  502MOL0     H67707   9.529  10.162   7.568 -0.5938 -0.1613 -1.4678
  502MOL0     H67708   9.443  10.312   7.535 -2.3095  1.0065  2.2133
  502MOL0     H67709   9.622  10.441   7.623 -2.1132  0.0633 -3.9541
  502MOL0     H67710   9.713  10.294   7.684  1.0169 -0.7264 -0.9807
  502MOL0     H67711   9.696  10.219   7.442 -1.9995  1.3977 -1.8972
  502MOL0     H67712   9.648  10.386   7.404  1.3911  1.7265  0.4057
  502MOL0     H67713   9.909  10.325   7.577  4.4871  0.1504 -3.3386
  502MOL0     H67714   9.906  10.360   7.398 -2.8187 -1.9111 -2.6424
  502MOL0     H67715   9.819  10.549   7.611  0.8107  1.1130 -0.4280
  502MOL0     H67716   9.968  10.553   7.530  1.2258 -1.0958 -1.9921
  502MOL0     H67717   9.690  10.600   7.407 -0.1191 -1.7423  2.5329
  502MOL0     H67718   9.823  10.710   7.419 -1.8042  0.1989  0.4994
  502MOL0     H67719   9.835  10.475   7.220 -1.1124 -0.3134 -0.0703
  502MOL0     H67720   9.965  10.566   7.267 -1.2117 -1.6150  1.5665
  502MOL0     H67721   9.593  10.666   7.191  0.0441 -0.1150 -1.0766
  502MOL0     H67722   9.607  10.967   6.961 -3.2422  1.0047 -1.1338
  502MOL0     H67723   9.479  10.869   7.024  1.0283 -0.6752 -0.6040
  502MOL0     H67724   9.638  11.067   7.203  0.5409 -0.6768  1.2640
  502MOL0     H67725   9.493  10.973   7.245 -1.3149  0.8502 -0.3440
  502MOL0     H67726   9.394  11.102   7.032 -0.0357  0.7193  0.3829
  502MOL0     H67727   9.521  11.223   7.051 -2.3259  3.2952 -0.2337
  502MOL0     H67728   9.444  11.268   7.284 -1.8903  4.1048 -1.5632
  502MOL0     H67729   9.340  11.133   7.280 -1.8334 -2.2821 -2.6318
  502MOL0     H67730   9.175  11.040   7.140 -0.3264 -0.9463 -1.0748
  502MOL0     H67731   9.018  10.866   7.120  0.8969 -0.6784  3.2792
  502MOL0     H67732   8.906  10.884   7.254 -0.0039  3.1227  0.9046
  502MOL0     H67733   8.844  10.912   7.091 -0.8165  1.4068  0.1122
  502MOL0     H67734   8.520  11.332   7.416 -0.5896  0.3157 -0.2003
  502MOL0     H67735   8.301  11.292   7.504 -0.6690  0.0182 -0.1067
  502MOL0     H67736   7.995  11.097   7.232  1.6421  1.3487  0.2934
  502MOL0     H67737   8.093  10.990   7.326 -2.8401 -2.1829 -0.8065
  502MOL0     H67738   7.865  10.961   7.384 -0.2004  0.1409  0.4109
  502MOL0     H67739   7.932  11.052   7.525  0.9020  1.9543  0.4937
  502MOL0     H67740   7.716  11.126   7.467  0.4611 -0.3765  2.3114
  502MOL0     H67741   7.785  11.171   7.306  3.9370 -0.4929  0.3976
  502MOL0     H67742   7.869  11.295   7.580  0.2051  1.5359  0.6137
  502MOL0     H67743   7.912  11.354   7.420 -0.5748  2.1695  0.2961
  502MOL0     H67744   7.766  11.499   7.494  1.5900 -0.5313 -0.1990
  502MOL0     H67745   7.641  11.380   7.547  1.3718 -1.1155  0.6428
  502MOL0     H67746   7.696  11.425   7.265 -0.7675  0.2161  0.4679
  502MOL0     H67747   7.578  11.309   7.331 -1.8105  0.3062 -0.1866
  502MOL0     H67748   7.461  11.488   7.263  3.4977 -4.7711 -1.8543
  502MOL0     H67749   7.565  11.605   7.349  1.2920 -1.1098 -3.4605
  502MOL0     H67750   7.471  11.519   7.573  0.3477 -2.7543  0.4336
  502MOL0     H67751   7.402  11.380   7.482 -0.9999  0.3455 -0.6505
  502MOL0     H67752   8.188  11.122   7.120 -3.1305  2.9331  1.1378
  502MOL0     H67753   8.418  11.131   7.042 -1.2741  0.7601 -1.0530
  502MOL0     H67754   8.822  11.375   7.225 -0.2468  0.6069 -0.7586
  502MOL0     H67755   9.057  11.445   7.236 -2.7340  0.7255 -0.1781
  502MOL0     H67756   9.470  10.003   7.800  0.2924  1.1433  0.3108
  502MOL0     H67757   9.382   9.788   7.819 -0.4946 -0.1091 -3.4482
  502MOL0     H67758   8.793   9.519   7.876 -1.1989 -0.9581 -1.3368
  502MOL0     H67759   8.771   9.279   7.910 -1.5772  4.5629 -0.3540
  502MOL0     H67760   8.996   8.915   7.887 -0.5170  0.3037 -0.1690
  502MOL0     H67761   9.117   9.034   7.858  1.2331 -2.8270  0.8043
  502MOL0     H67762   9.173   9.027   8.096  1.5405 -0.8205 -1.5589
  502MOL0     H67763   9.173   8.868   8.031 -0.6328 -0.5926  4.2261
  502MOL0     H67764   8.953   8.814   8.107 -0.7288  0.4116  0.1656
  502MOL0     H67765   8.937   8.955   8.210 -0.2046 -0.8020  0.5437
  502MOL0     H67766   9.185   8.769   8.266  1.8500  1.7256  1.8873
  502MOL0     H67767   9.027   8.737   8.332 -1.7885  2.1010  0.0731
  502MOL0     H67768   9.187   9.104   8.498  0.8097 -0.8272  2.6739
  502MOL0     H67769   9.187   9.221   7.949  1.1909  1.7113  2.0895
  502MOL0     H67770   9.227   9.469   7.926 -0.3291  0.0354  0.5111
  503MOL0     O67771   8.541   5.256   1.610  0.2754  0.2352  0.3225
  503MOL0     C67772   8.662   5.243   1.610 -0.0700 -0.6535  0.6427
  503MOL0     O67773   8.733   5.149   1.533  0.1989  0.1323 -0.0638
  503MOL0     C67774   8.658   5.048   1.467  0.3974  0.2365 -0.3661
  503MOL0     C67775   8.608   4.929   1.525 -0.8457 -0.2744 -0.5537
  503MOL0     C67776   8.523   4.841   1.466  0.7344  0.9235 -0.0712
  503MOL0     C67777   8.490   4.860   1.326 -0.8993  0.1843 -0.0309
  503MOL0     O67778   8.405   4.777   1.261 -0.7255 -0.4216 -1.4203
  503MOL0     C67779   8.302   4.724   1.344  0.8565 -0.5932 -0.5951
  503MOL0     C67780   8.194   4.658   1.253 -0.2292  0.4234  0.4935
  503MOL0     C67781   8.158   4.512   1.307  0.4980 -0.8839  0.4491
  503MOL0     C67782   8.267   4.414   1.256 -0.6979  0.0291 -0.9399
  503MOL0     C67783   8.363   4.363   1.371 -1.2949  0.2235  1.6027
  503MOL0     C67784   8.468   4.273   1.306 -0.6879 -0.4000  0.0131
  503MOL0     C67785   8.408   4.135   1.255 -0.4452 -0.8624  0.5792
  503MOL0     C67786   8.507   4.058   1.173  1.1728 -0.2112 -0.0937
  503MOL0     N67787   8.625   4.011   1.242 -0.4948  0.0537  0.8270
  503MOL0     C67788   8.625   3.886   1.301 -0.5961  0.5633  0.0075
  503MOL0     C67789   8.744   3.899   1.372  0.1690  0.2181  0.8324
  503MOL0     C67790   8.777   3.804   1.484 -1.4240 -0.3053  1.1731
  503MOL0     C67791   8.933   3.775   1.504  0.2184 -0.3826 -0.0075
  503MOL0     C67792   8.951   3.696   1.633 -1.4323 -0.8270 -0.8927
  503MOL0     C67793   8.959   3.769   1.766  0.2034  0.1621 -0.1937
  503MOL0     O67794   9.065   3.866   1.783  0.0848  0.2800  0.6645
  503MOL0     C67795   9.081   3.929   1.894 -0.3141  0.8720 -0.3578
  503MOL0     C67796   8.990   3.940   2.000  0.7515  0.3216 -0.1835
  503MOL0     C67797   9.013   4.015   2.110  0.6979 -0.7807  0.7027
  503MOL0     C67798   8.904   4.032   2.217 -0.6501 -0.0718  0.3239
  503MOL0     C67799   9.147   4.074   2.125 -0.9831 -0.2233  0.6021
  503MOL0     C67800   9.180   4.177   2.228  0.4541  1.0477  0.2845
  503MOL0     O67801   9.277   4.268   2.204  0.5259  0.2059  0.8422
  503MOL0     C67802   9.278   4.385   2.271 -0.2576 -0.7613 -0.2484
  503MOL0     C67803   9.397   4.438   2.310 -0.6407  0.7892 -0.4958
  503MOL0     C67804   9.403   4.550   2.399  0.1522  0.0105 -0.2155
  503MOL0     C67805   9.284   4.612   2.453  0.2476 -0.0994 -0.6663
  503MOL0     O67806   9.294   4.706   2.548 -0.4140 -0.3599 -0.2253
  503MOL0     C67807   9.283   4.654   2.685 -0.5303 -0.1478  0.4479
  503MOL0     C67808   9.332   4.774   2.759 -0.8614  0.4810 -1.2213
  503MOL0     C67809   9.289   4.774   2.902 -0.1462 -0.5068 -0.5560
  503MOL0     C67810   9.357   4.891   2.963 -0.9603  0.3455 -0.3870
  503MOL0     C67811   9.347   4.904   3.119  0.6383  0.8238  0.4481
  503MOL0     C67812   9.206   4.957   3.165 -0.5368 -0.7876 -0.1309
  503MOL0     C67813   9.200   5.011   3.302  0.3950  0.8381  0.0864
  503MOL0     C67814   9.059   5.024   3.363 -0.2597 -0.5038 -0.3634
  503MOL0    Cl67815   9.060   5.050   3.541  0.1917 -0.0801 -0.0857
  503MOL0     C67816   9.162   4.561   2.409 -0.2437  0.0134 -0.2928
  503MOL0     C67817   9.162   4.454   2.320  0.3354 -0.2360 -0.3217
  503MOL0     O67818   9.117   4.174   2.334 -0.0067  0.1609  0.2890
  503MOL0     C67819   9.241   4.056   2.020 -0.0726 -0.0764 -0.3605
  503MOL0     C67820   9.207   3.984   1.914 -0.1532 -0.3130  0.3115
  503MOL0     N67821   8.807   4.017   1.330 -0.0575  0.0036 -0.7647
  503MOL0     N67822   8.741   4.085   1.255  0.5679 -0.1780  0.2267
  503MOL0     C67823   8.544   4.972   1.265  1.0781 -0.8603  0.2101
  503MOL0     C67824   8.620   5.068   1.334  0.3791  0.2861  0.2164
  503MOL0     C67825   8.747   5.331   1.700 -0.6191  1.2558  0.0219
  503MOL0     C67826   8.888   5.324   1.701  0.2821 -0.5426  0.2663
  503MOL0     C67827   8.954   5.399   1.795 -0.5965 -0.2403  0.6727
  503MOL0     C67828   8.895   5.489   1.883  1.0418  0.1892 -0.3414
  503MOL0     O67829   8.971   5.571   1.962  0.2421 -0.2514 -0.0420
  503MOL0     C67830   9.096   5.619   1.900  0.1937  0.1084  0.5686
  503MOL0     C67831   9.185   5.725   1.966  0.5888  0.4067 -0.0226
  503MOL0     C67832   9.102   5.836   2.026  0.7716  0.1797 -0.6234
  503MOL0     C67833   9.189   5.913   2.126 -0.6682  0.2277  0.0584
  503MOL0     C67834   9.114   6.009   2.205 -0.1860 -0.9459 -0.5851
  503MOL0     C67835   9.050   6.072   2.289 -0.1152  0.0239  0.2284
  503MOL0     C67836   8.755   5.499   1.878 -0.4419 -0.9947 -0.1215
  503MOL0     C67837   8.683   5.432   1.778  1.0273  0.9627  0.1859
  503MOL0     H67838   8.640   4.911   1.627  1.8319 -0.7439 -1.4026
  503MOL0     H67839   8.483   4.754   1.517 -0.9889  1.7202 -0.0137
  503MOL0     H67840   8.345   4.651   1.413 -0.0196 -1.1625 -0.6343
  503MOL0     H67841   8.240   4.795   1.399  3.1502  1.5674 -0.6307
  503MOL0     H67842   8.111   4.729   1.249 -0.3183  0.2957 -2.4558
  503MOL0     H67843   8.237   4.649   1.152  0.4238 -1.7663  0.9070
  503MOL0     H67844   8.131   4.512   1.413 -3.8562  4.2053 -0.1920
  503MOL0     H67845   8.069   4.484   1.249  1.6886  0.6636 -2.3346
  503MOL0     H67846   8.220   4.328   1.209 -1.6020 -1.3515  2.2581
  503MOL0     H67847   8.332   4.474   1.191  0.6769  1.6923  1.7352
  503MOL0     H67848   8.409   4.448   1.422  0.6779  1.7624 -2.2776
  503MOL0     H67849   8.301   4.291   1.424 -1.5941 -2.8139 -2.3617
  503MOL0     H67850   8.533   4.328   1.237 -0.9967  0.5537  0.4648
  503MOL0     H67851   8.534   4.249   1.389 -0.8672 -3.2666 -0.5701
  503MOL0     H67852   8.388   4.081   1.348  1.5687  0.6195  1.9597
  503MOL0     H67853   8.325   4.148   1.185  1.2133 -0.9525 -1.4946
  503MOL0     H67854   8.537   4.137   1.103 -1.4169  1.9450  1.0628
  503MOL0     H67855   8.456   3.982   1.113 -0.6285 -1.0264  2.3314
  503MOL0     H67856   8.543   3.815   1.308  0.0708 -0.1858  0.3510
  503MOL0     H67857   8.729   3.835   1.577 -0.2366 -0.5245  1.8730
  503MOL0     H67858   8.736   3.710   1.443  0.2624 -0.8548  0.6787
  503MOL0     H67859   9.002   3.859   1.498 -0.5290  0.1534 -4.2016
  503MOL0     H67860   8.971   3.713   1.423 -0.6017  1.8960 -2.2617
  503MOL0     H67861   9.053   3.656   1.631  0.2646  2.8777  1.0215
  503MOL0     H67862   8.880   3.613   1.642 -2.9400  0.4328 -0.7461
  503MOL0     H67863   8.969   3.700   1.850  1.6055 -0.4900 -0.8699
  503MOL0     H67864   8.860   3.815   1.778 -0.7550 -2.2436  2.1385
  503MOL0     H67865   8.891   3.897   1.985  0.8046 -0.4752  1.4567
  503MOL0     H67866   8.883   4.136   2.241  1.8555  0.3076  1.2032
  503MOL0     H67867   8.814   3.988   2.173  0.8858  0.4878 -3.7674
  503MOL0     H67868   8.927   3.985   2.313  3.8022  1.4801  0.2428
  503MOL0     H67869   9.488   4.387   2.280 -2.8757 -1.5754 -3.9202
  503MOL0     H67870   9.500   4.587   2.428 -0.3771 -0.4060  2.2837
  503MOL0     H67871   9.180   4.632   2.715 -1.2038 -1.5837 -2.5928
  503MOL0     H67872   9.352   4.572   2.709  2.1423  1.8634  0.1265
  503MOL0     H67873   9.441   4.767   2.764 -0.8754  1.0309  0.4851
  503MOL0     H67874   9.312   4.865   2.701 -0.7694 -0.0812 -2.1457
  503MOL0     H67875   9.315   4.679   2.950 -1.7029  0.3195  2.1535
  503MOL0     H67876   9.181   4.789   2.912 -0.5428 -1.5545 -2.6736
  503MOL0     H67877   9.462   4.890   2.933 -0.3137 -1.4783  1.6576
  503MOL0     H67878   9.311   4.985   2.930  1.0590  1.0301 -1.3763
  503MOL0     H67879   9.430   4.960   3.162  2.1677 -1.0018 -0.0198
  503MOL0     H67880   9.356   4.802   3.158 -1.4474  0.4701  0.1206
  503MOL0     H67881   9.185   5.035   3.091  3.2231 -0.3443 -0.9385
  503MOL0     H67882   9.142   4.869   3.152  0.1242 -1.3982  0.6326
  503MOL0     H67883   9.248   5.109   3.292  0.4303  0.7341 -0.8520
  503MOL0     H67884   9.251   4.951   3.378  2.1486  3.9129  1.5768
  503MOL0     H67885   9.000   4.932   3.357  0.5924 -0.9776 -2.2900
  503MOL0     H67886   8.996   5.097   3.312 -0.8653  0.7168  2.0007
  503MOL0     H67887   9.070   4.609   2.441  1.8962  3.6391  1.0912
  503MOL0     H67888   9.069   4.415   2.280  0.0574  0.6693 -0.5772
  503MOL0     H67889   9.342   4.096   2.016 -0.4046  0.6847 -1.3524
  503MOL0     H67890   9.279   3.986   1.832 -0.3094  1.1646  0.1920
  503MOL0     H67891   8.507   4.994   1.166  1.7300  1.1828  0.3910
  503MOL0     H67892   8.650   5.164   1.292 -0.7894  1.1438  1.2368
  503MOL0     H67893   8.943   5.247   1.648  1.5715  1.3587 -1.2849
  503MOL0     H67894   9.060   5.380   1.808 -0.4109  1.3951  2.0209
  503MOL0     H67895   9.153   5.527   1.889  0.4336  0.2021  0.9867
  503MOL0     H67896   9.075   5.648   1.797  1.8854 -5.9276 -1.8431
  503MOL0     H67897   9.250   5.768   1.888  0.5940  0.8518  0.2223
  503MOL0     H67898   9.252   5.673   2.034 -1.4441 -3.0019 -0.4031
  503MOL0     H67899   9.026   5.793   2.091  3.9875 -1.4719  2.4174
  503MOL0     H67900   9.056   5.895   1.946  0.6634  0.5344 -0.3028
  503MOL0     H67901   9.265   5.966   2.068  1.1643 -3.5251 -1.3203
  503MOL0     H67902   9.250   5.847   2.187  3.5311  1.2081 -2.6985
  503MOL0     H67903   8.993   6.139   2.349  1.9427  0.8511  1.3842
  503MOL0     H67904   8.699   5.581   1.923  0.5837  1.5246 -3.0674
  503MOL0     H67905   8.576   5.442   1.768  0.8487 -1.9477 -2.7291
  504MOL0     O67906   1.137  11.532   2.514  0.3090  0.0671 -0.0782
  504MOL0     C67907   1.193  11.417   2.506 -0.6514 -0.3338 -0.1408
  504MOL0     O67908   1.233  11.365   2.393  0.8544 -0.4812  0.7919
  504MOL0     C67909   1.170  11.422   2.277 -0.5932  0.2206  0.1895
  504MOL0     C67910   1.033  11.421   2.258  0.0765  0.4148  0.3702
  504MOL0     C67911   0.981  11.488   2.148 -0.1444 -0.0956 -1.0132
  504MOL0     C67912   1.068  11.545   2.050  0.4887 -0.0931  0.5203
  504MOL0     O67913   1.029  11.606   1.933 -0.0457  0.2617  1.4159
  504MOL0     C67914   0.885  11.620   1.908 -0.0550  0.1576  0.3539
  504MOL0     C67915   0.837  11.737   1.987  0.7627  0.2047  0.0673
  504MOL0     C67916   0.883  11.868   1.924 -0.3638 -0.5183 -0.0128
  504MOL0     C67917   0.854  11.994   2.016  1.6955  0.6009  0.7223
  504MOL0     C67918   0.821  12.099   1.912 -0.4850  0.1954 -0.4267
  504MOL0     C67919   0.829  12.243   1.968 -0.5929 -1.0951  0.5567
  504MOL0     C67920   0.812  12.354   1.856  0.2750 -1.2158 -0.5484
  504MOL0     C67921   0.926  12.361   1.749  0.6299  0.2362  0.3401
  504MOL0     N67922   0.939  12.496   1.695  0.8611  0.2832 -0.5756
  504MOL0     C67923   1.054  12.555   1.645 -0.0425  1.1471 -0.7271
  504MOL0     C67924   1.010  12.664   1.582 -0.4812 -0.8063 -0.2844
  504MOL0     C67925   1.101  12.755   1.492  0.1218  1.2973 -0.4596
  504MOL0     C67926   1.133  12.892   1.540  0.0439 -0.7977  0.7330
  504MOL0     C67927   1.191  12.897   1.690 -0.5320  0.3534 -0.2900
  504MOL0     C67928   1.196  13.032   1.750 -1.0861  0.3260  0.2550
  504MOL0     O67929   1.304  13.103   1.689 -0.2787  0.1246 -0.5680
  504MOL0     C67930   1.311  13.236   1.725 -0.3140 -0.7294  0.7111
  504MOL0     C67931   1.444  13.285   1.715 -0.6036  0.3113  0.3747
  504MOL0     C67932   1.483  13.419   1.731  0.8167  0.1025 -0.4071
  504MOL0     C67933   1.619  13.460   1.684  0.7650 -0.0861 -0.2282
  504MOL0     C67934   1.377  13.514   1.762 -0.4427  0.1461  0.4290
  504MOL0     C67935   1.411  13.658   1.778 -0.7294  0.5177 -0.0140
  504MOL0     O67936   1.332  13.714   1.881 -0.4329  0.2523  0.4064
  504MOL0     C67937   1.344  13.852   1.899 -0.0106  0.4655 -0.0137
  504MOL0     C67938   1.333  13.946   1.796  0.3973 -0.4265  0.0126
  504MOL0     C67939   1.341  14.082   1.830  0.4123 -0.4363 -1.6675
  504MOL0     C67940   1.370  14.113   1.961 -0.9460 -0.1048 -0.6831
  504MOL0     O67941   1.388  14.245   1.996  0.3436 -0.0431  0.7373
  504MOL0     C67942   1.491  14.308   1.911  0.9153 -0.3272 -0.8189
  504MOL0     C67943   1.474  14.463   1.897  0.2723 -0.4021 -1.0843
  504MOL0     C67944   1.341  14.491   1.825 -0.5783  0.1254  0.3833
  504MOL0     C67945   1.337  14.627   1.771 -0.2699  0.1714 -0.0617
  504MOL0     C67946   1.199  14.653   1.712 -0.3133  0.4153 -0.9234
  504MOL0     C67947   1.205  14.737   1.588  0.3708  0.6304  0.4509
  504MOL0     C67948   1.255  14.892   1.604  1.1070 -0.1509 -0.0130
  504MOL0     C67949   1.161  14.968   1.693  0.1269  0.6344  0.7762
  504MOL0    Cl67950   1.186  15.148   1.682 -0.1505  0.0553  0.7179
  504MOL0     C67951   1.382  14.019   2.054 -0.1117  0.0352 -0.2741
  504MOL0     C67952   1.382  13.886   2.027 -0.8415 -0.2029  0.1170
  504MOL0     O67953   1.473  13.724   1.701  0.1985 -0.2254  0.7875
  504MOL0     C67954   1.242  13.469   1.775  0.0222  0.5554 -0.6456
  504MOL0     C67955   1.210  13.331   1.757 -0.6476 -0.4532 -0.2897
  504MOL0     N67956   0.871  12.671   1.611 -0.1758  0.1117 -0.0803
  504MOL0     N67957   0.831  12.573   1.671  0.5166 -0.0989 -0.4292
  504MOL0     C67958   1.202  11.537   2.071 -0.3001  0.8614 -0.1643
  504MOL0     C67959   1.252  11.479   2.188 -0.3003 -1.3521  0.2715
  504MOL0     C67960   1.203  11.339   2.630 -0.4671 -0.8632  0.3199
  504MOL0     C67961   1.182  11.201   2.635  0.4962  0.0270 -0.5064
  504MOL0     C67962   1.200  11.142   2.761 -0.7099 -0.0836  0.9547
  504MOL0     C67963   1.239  11.207   2.875 -0.0423 -0.0323  0.4248
  504MOL0     O67964   1.257  11.151   2.997 -0.0299 -0.2709 -0.3286
  504MOL0     C67965   1.220  11.018   3.040 -0.5742 -0.7611 -0.7659
  504MOL0     C67966   1.070  11.022   3.072 -0.2904  0.2389  0.1734
  504MOL0     C67967   1.013  10.910   3.152 -0.2841 -0.1355  0.5458
  504MOL0     C67968   1.040  10.918   3.303  0.2335 -0.5138 -0.0888
  504MOL0     C67969   1.178  10.894   3.338  0.3171 -0.3655  0.4360
  504MOL0     C67970   1.289  10.855   3.365  0.2576  0.2645  0.0997
  504MOL0     C67971   1.278  11.340   2.870  0.4992 -0.2091  0.4846
  504MOL0     C67972   1.246  11.410   2.747 -0.2462  0.5574 -0.2019
  504MOL0     H67973   0.970  11.388   2.340  1.6928 -0.2088  1.4060
  504MOL0     H67974   0.873  11.495   2.139 -0.6234 -1.8403  1.9537
  504MOL0     H67975   0.867  11.640   1.802 -0.8303  3.0463  0.9554
  504MOL0     H67976   0.824  11.531   1.928 -2.9619  2.0847  0.6707
  504MOL0     H67977   0.729  11.744   2.000  1.0510  2.0808  1.8311
  504MOL0     H67978   0.873  11.738   2.090  0.1929  3.4555  0.3181
  504MOL0     H67979   0.992  11.864   1.914 -0.0995 -3.2272  2.6162
  504MOL0     H67980   0.845  11.876   1.822  2.6238 -1.5157 -1.3073
  504MOL0     H67981   0.765  11.983   2.079  0.9576  2.8471  0.1862
  504MOL0     H67982   0.930  12.013   2.093  0.5376 -0.8879  2.3078
  504MOL0     H67983   0.881  12.090   1.821 -1.4940 -1.5235 -0.9777
  504MOL0     H67984   0.719  12.083   1.874  0.6962 -0.2505 -3.7815
  504MOL0     H67985   0.746  12.246   2.039 -1.3483 -0.4917 -0.3308
  504MOL0     H67986   0.915  12.269   2.030 -0.3215  1.3005 -0.7197
  504MOL0     H67987   0.711  12.342   1.816  0.6546 -1.8388 -1.3684
  504MOL0     H67988   0.823  12.444   1.917 -0.3747 -0.4584 -1.5076
  504MOL0     H67989   0.905  12.289   1.668  0.8911  1.9971 -1.3727
  504MOL0     H67990   1.023  12.329   1.787 -0.3821 -5.6922 -1.0438
  504MOL0     H67991   1.155  12.517   1.634 -0.4424  0.5872 -3.1217
  504MOL0     H67992   1.198  12.705   1.485 -1.4575 -2.1341  0.0567
  504MOL0     H67993   1.064  12.753   1.390  0.9251  1.1885 -0.7576
  504MOL0     H67994   1.042  12.949   1.521 -1.8079 -4.5219 -3.6278
  504MOL0     H67995   1.206  12.930   1.467 -2.1131 -2.9781 -2.9166
  504MOL0     H67996   1.293  12.859   1.682 -0.3495  1.0298 -1.3928
  504MOL0     H67997   1.135  12.838   1.763  2.4218 -1.6146  0.5703
  504MOL0     H67998   1.189  13.026   1.859  2.5238 -0.1044  0.5971
  504MOL0     H67999   1.104  13.080   1.716 -0.7287  0.5412 -0.4301
  504MOL0     H68000   1.524  13.217   1.688 -3.1222 -1.7255 -2.7712
  504MOL0     H68001   1.634  13.480   1.577 -0.8557  2.5842 -0.0613
  504MOL0     H68002   1.657  13.548   1.737  1.2412 -0.8699  0.7535
  504MOL0     H68003   1.689  13.381   1.709  1.5199 -0.4121 -3.0133
  504MOL0     H68004   1.313  13.912   1.695 -1.8556  2.3457 -0.6182
  504MOL0     H68005   1.314  14.166   1.766 -1.7936  2.4431  2.5699
  504MOL0     H68006   1.590  14.298   1.956 -1.4221 -2.2966  4.7699
  504MOL0     H68007   1.496  14.269   1.809 -0.9165  2.0231 -1.8893
  504MOL0     H68008   1.471  14.525   1.987 -2.7729 -1.2578 -0.4836
  504MOL0     H68009   1.553  14.496   1.829 -0.7457  0.4900 -1.8865
  504MOL0     H68010   1.262  14.480   1.900  1.0063  1.0134  2.3059
  504MOL0     H68011   1.324  14.428   1.738  3.2244  0.0345 -0.4861
  504MOL0     H68012   1.373  14.695   1.848 -0.7506  0.5282 -0.1426
  504MOL0     H68013   1.408  14.637   1.688 -0.9208 -1.1243 -0.8092
  504MOL0     H68014   1.132  14.694   1.788 -0.6862 -2.4915  0.4646
  504MOL0     H68015   1.159  14.555   1.684  1.9426 -2.2519  3.8656
  504MOL0     H68016   1.262  14.687   1.509  0.1752 -1.3076  1.4672
  504MOL0     H68017   1.102  14.751   1.553  1.5692 -0.6184 -4.3353
  504MOL0     H68018   1.265  14.941   1.507 -2.9547  2.4628  0.6144
  504MOL0     H68019   1.351  14.887   1.657  1.5169  1.7695 -0.5044
  504MOL0     H68020   1.187  14.926   1.790  0.6684 -2.7871 -0.6943
  504MOL0     H68021   1.056  14.952   1.666 -0.0290  0.8014  1.2739
  504MOL0     H68022   1.397  14.039   2.160  0.7555 -2.1002  0.0657
  504MOL0     H68023   1.409  13.828   2.114  1.5347  2.6399  1.4719
  504MOL0     H68024   1.152  13.528   1.788 -0.4882 -0.4415  0.6337
  504MOL0     H68025   1.103  13.317   1.768 -1.6035  2.5673 -3.8625
  504MOL0     H68026   1.263  11.572   1.988  2.3656 -1.9961  0.4232
  504MOL0     H68027   1.359  11.470   2.201 -0.1735  2.3307  3.7514
  504MOL0     H68028   1.152  11.160   2.539  1.1531  0.5080 -0.9215
  504MOL0     H68029   1.189  11.035   2.758 -0.8180 -0.1090  2.0373
  504MOL0     H68030   1.236  10.926   2.981  1.4882  0.3309 -2.0323
  504MOL0     H68031   1.267  11.005   3.138  0.4088  3.4186 -0.5233
  504MOL0     H68032   1.015  11.029   2.978  2.0619 -1.2079 -1.4090
  504MOL0     H68033   1.045  11.119   3.116 -2.3936 -0.1116 -0.0970
  504MOL0     H68034   1.038  10.810   3.115  1.0782  0.5498 -0.5140
  504MOL0     H68035   0.907  10.905   3.128  0.3028  1.0446 -2.8798
  504MOL0     H68036   0.998  10.825   3.343  0.1784 -0.0167  1.0520
  504MOL0     H68037   1.005  11.008   3.354  0.4621  0.4913 -1.6366
  504MOL0     H68038   1.390  10.839   3.396  0.7237  3.9991  1.0000
  504MOL0     H68039   1.313  11.375   2.966  1.4330 -1.5411  0.6594
  504MOL0     H68040   1.259  11.518   2.753 -0.4612  0.5470  0.5196
  505MOL0     O68041   3.833   2.287   4.871  0.2327  0.7482 -0.5774
  505MOL0     C68042   3.897   2.384   4.820 -0.3482 -0.1854  0.1591
  505MOL0     O68043   3.893   2.419   4.687 -0.4364  0.1912  0.3117
  505MOL0     C68044   3.815   2.333   4.615 -0.0658 -0.4318 -0.6751
  505MOL0     C68045   3.702   2.385   4.550  0.7264  0.7826  0.2008
  505MOL0     C68046   3.639   2.302   4.459 -0.7728 -0.1422  0.7287
  505MOL0     C68047   3.660   2.168   4.445  0.5689 -0.5878 -0.2762
  505MOL0     O68048   3.564   2.098   4.385 -0.3663  0.5579  0.7164
  505MOL0     C68049   3.473   2.051   4.477  0.4857  0.1968 -0.8703
  505MOL0     C68050   3.357   2.141   4.493  0.6468  0.0331 -0.6350
  505MOL0     C68051   3.242   2.052   4.552 -0.6700 -0.1734 -0.2518
  505MOL0     C68052   3.111   2.122   4.577 -0.5344  0.1090  0.1230
  505MOL0     C68053   3.014   2.037   4.660 -0.0020 -0.1646 -0.4218
  505MOL0     C68054   2.881   2.085   4.705 -0.0142 -1.2169 -0.3748
  505MOL0     C68055   2.786   2.114   4.585  0.5164  1.1689 -0.0617
  505MOL0     C68056   2.756   1.970   4.529 -0.1559 -0.1460  0.3954
  505MOL0     N68057   2.711   1.875   4.628 -0.6050  0.3349  0.2541
  505MOL0     C68058   2.765   1.751   4.641  1.0882 -0.8616 -0.0791
  505MOL0     C68059   2.701   1.710   4.756  0.0446  0.2143 -0.9502
  505MOL0     C68060   2.710   1.576   4.825 -0.7346 -0.8680 -0.3487
  505MOL0     C68061   2.829   1.559   4.921 -0.3461 -0.1566  0.0488
  505MOL0     C68062   2.800   1.646   5.050 -0.4388  0.3555  0.5280
  505MOL0     C68063   2.929   1.733   5.093  0.6209 -0.3539  0.7411
  505MOL0     O68064   3.026   1.645   5.140 -0.8769 -0.0813  0.1329
  505MOL0     C68065   3.120   1.724   5.202 -0.0083  0.3531 -0.5973
  505MOL0     C68066   3.220   1.661   5.284  0.0994 -0.2268 -0.7230
  505MOL0     C68067   3.317   1.725   5.361 -0.1044 -0.6068 -0.6145
  505MOL0     C68068   3.417   1.633   5.433  1.1131 -0.1906  0.2476
  505MOL0     C68069   3.323   1.868   5.363  0.3857  0.4294  0.2776
  505MOL0     C68070   3.400   1.946   5.468 -0.1422  1.1784  0.9220
  505MOL0     O68071   3.489   1.884   5.537  0.8184  0.1845  0.1005
  505MOL0     C68072   3.578   1.945   5.616 -0.0689  0.8713 -0.0155
  505MOL0     C68073   3.690   2.010   5.569  0.5680  0.1541  0.6260
  505MOL0     C68074   3.780   2.077   5.649  0.2613  0.8430 -0.1944
  505MOL0     C68075   3.772   2.071   5.789  1.2810  0.7040  0.0015
  505MOL0     O68076   3.873   2.111   5.871  0.0942 -0.7897  0.7796
  505MOL0     C68077   3.863   2.089   6.014 -0.1434 -0.7580 -0.1481
  505MOL0     C68078   4.000   2.120   6.087 -0.6314 -0.1270 -0.8268
  505MOL0     C68079   4.006   2.099   6.242  0.7199 -1.3000 -0.1241
  505MOL0     C68080   3.950   2.214   6.328  0.0470 -0.4257  0.5749
  505MOL0     C68081   3.981   2.204   6.478  0.4538 -0.5136  0.3157
  505MOL0     C68082   4.102   2.283   6.538 -0.4914 -0.2118  0.5845
  505MOL0     C68083   4.091   2.434   6.537  0.2898  0.5571 -1.2983
  505MOL0     C68084   4.166   2.494   6.655 -0.4244  0.7367 -0.4176
  505MOL0    Cl68085   4.327   2.425   6.646 -0.3613 -0.5403  0.3745
  505MOL0     C68086   3.658   2.001   5.838  0.6649 -0.0247  0.6419
  505MOL0     C68087   3.553   1.956   5.755 -0.7560  0.3416 -0.1562
  505MOL0     O68088   3.369   2.066   5.489  0.4768  0.4613  0.2122
  505MOL0     C68089   3.239   1.927   5.266 -0.5278  0.0570  0.4124
  505MOL0     C68090   3.144   1.862   5.184 -0.5185  0.4847 -0.5763
  505MOL0     N68091   2.611   1.802   4.803 -0.6229  0.2115 -0.5484
  505MOL0     N68092   2.615   1.900   4.725 -0.0596 -0.6536  0.3978
  505MOL0     C68093   3.764   2.112   4.513  0.8803 -0.2726  1.1575
  505MOL0     C68094   3.850   2.196   4.589  0.1244  0.5471 -0.7405
  505MOL0     C68095   3.958   2.481   4.917  0.3437  0.2783  0.7435
  505MOL0     C68096   4.030   2.423   5.024 -0.3198  0.0500 -0.0718
  505MOL0     C68097   4.076   2.503   5.127 -0.4582  0.9953 -1.1683
  505MOL0     C68098   4.052   2.644   5.128 -1.1232 -0.1259 -0.2307
  505MOL0     O68099   4.094   2.739   5.226  0.5011 -0.2735  0.0488
  505MOL0     C68100   4.119   2.688   5.356 -0.5304  0.1351 -0.2223
  505MOL0     C68101   4.172   2.799   5.459  0.6376 -0.0321 -0.8253
  505MOL0     C68102   4.094   2.929   5.463  0.2548  0.5310  1.1038
  505MOL0     C68103   4.097   3.003   5.595 -0.1409 -0.6135 -0.0973
  505MOL0     C68104   3.997   3.109   5.595 -0.5912 -0.7014  1.0991
  505MOL0     C68105   3.920   3.200   5.583  1.1406 -0.4515 -0.4510
  505MOL0     C68106   3.984   2.698   5.019  0.0035 -0.1651  0.2909
  505MOL0     C68107   3.937   2.612   4.913  0.5065 -0.8198 -0.7532
  505MOL0     H68108   3.664   2.486   4.558  0.6007  0.8797 -1.4366
  505MOL0     H68109   3.554   2.330   4.398  0.4638 -0.2557 -1.1413
  505MOL0     H68110   3.429   1.956   4.445 -1.5084  0.6773  0.2718
  505MOL0     H68111   3.528   2.025   4.567 -0.1419 -3.9095 -1.4625
  505MOL0     H68112   3.380   2.226   4.558 -1.3917 -1.2284  1.9272
  505MOL0     H68113   3.322   2.179   4.396 -2.2168  0.5595  0.5139
  505MOL0     H68114   3.219   1.976   4.477 -2.3288 -0.4555  0.5008
  505MOL0     H68115   3.282   2.017   4.647 -1.3570  1.4831  0.6812
  505MOL0     H68116   3.127   2.221   4.622  1.9314 -0.2869  0.2831
  505MOL0     H68117   3.075   2.159   4.480  0.9071  1.8975  0.2157
  505MOL0     H68118   2.981   1.943   4.615 -1.5303  0.1196  0.0398
  505MOL0     H68119   3.076   2.021   4.749 -1.1589 -1.3499  0.2063
  505MOL0     H68120   2.838   2.018   4.780  1.9182  0.9849  2.9539
  505MOL0     H68121   2.895   2.183   4.752 -1.1036 -0.9035 -0.6649
  505MOL0     H68122   2.697   2.166   4.621 -1.2967 -1.0510 -1.0852
  505MOL0     H68123   2.836   2.168   4.504 -0.9391 -3.0026 -4.1647
  505MOL0     H68124   2.844   1.948   4.468  0.0992  2.3683 -0.2602
  505MOL0     H68125   2.672   1.974   4.459 -0.3535  2.9794  0.6626
  505MOL0     H68126   2.847   1.708   4.585  1.1570  1.6673 -2.1081
  505MOL0     H68127   2.614   1.570   4.878 -0.3240  1.8908  0.8745
  505MOL0     H68128   2.724   1.501   4.747  0.9949 -2.0808  1.0527
  505MOL0     H68129   2.922   1.585   4.870 -0.9004  0.7309 -0.5365
  505MOL0     H68130   2.819   1.453   4.946 -4.0451 -0.4033 -1.7254
  505MOL0     H68131   2.771   1.568   5.121  1.2307 -3.7466 -2.9104
  505MOL0     H68132   2.724   1.723   5.033  1.4419  1.6845 -2.6502
  505MOL0     H68133   2.894   1.813   5.159 -0.8154  0.1921 -0.6059
  505MOL0     H68134   2.970   1.780   5.004 -1.3902 -0.9708 -0.5911
  505MOL0     H68135   3.218   1.554   5.273  2.7347 -0.1603 -2.6884
  505MOL0     H68136   3.418   1.670   5.536  0.7868 -0.6368  0.4112
  505MOL0     H68137   3.383   1.530   5.443 -1.3118  0.7155  2.6322
  505MOL0     H68138   3.513   1.621   5.381  1.9281 -1.9884  2.0332
  505MOL0     H68139   3.707   1.995   5.463 -0.2970  2.0250  0.1773
  505MOL0     H68140   3.868   2.128   5.609 -0.1603  1.3112 -0.5377
  505MOL0     H68141   3.783   2.154   6.050 -0.4579  0.6775 -3.1524
  505MOL0     H68142   3.827   1.989   6.042 -0.1612 -0.6020  0.4053
  505MOL0     H68143   4.084   2.070   6.038  1.3133 -0.5992  2.6615
  505MOL0     H68144   4.006   2.229   6.079 -3.0628  0.1925  0.7412
  505MOL0     H68145   4.112   2.086   6.264  1.3779 -1.5384 -2.9912
  505MOL0     H68146   3.950   2.006   6.253  2.2026 -2.1853  0.1807
  505MOL0     H68147   3.998   2.309   6.303 -3.0807  1.1982  0.3130
  505MOL0     H68148   3.842   2.217   6.311  0.6961  0.8674 -5.6982
  505MOL0     H68149   4.006   2.098   6.492 -2.8403 -1.5845 -0.8184
  505MOL0     H68150   3.895   2.225   6.543  1.1105 -0.8480  1.3308
  505MOL0     H68151   4.116   2.238   6.637 -0.1573  2.9016  2.1055
  505MOL0     H68152   4.187   2.260   6.475 -0.9722  4.6451 -2.3815
  505MOL0     H68153   3.989   2.472   6.529 -0.5777 -0.3418  3.0415
  505MOL0     H68154   4.149   2.466   6.450  3.0745  2.0672  0.9308
  505MOL0     H68155   4.134   2.470   6.756 -1.8757  1.1635 -0.7521
  505MOL0     H68156   4.155   2.602   6.638 -3.8866  0.2761 -1.7553
  505MOL0     H68157   3.624   1.989   5.941 -1.2563 -2.2718 -0.1340
  505MOL0     H68158   3.454   1.930   5.789 -1.2693  0.8933 -1.1921
  505MOL0     H68159   3.229   2.035   5.269  1.6084  0.2996  0.6961
  505MOL0     H68160   3.087   1.918   5.110 -0.5175 -0.2885 -1.1886
  505MOL0     H68161   3.786   2.008   4.491 -1.3311 -0.5417 -0.0655
  505MOL0     H68162   3.946   2.170   4.631 -0.4584  0.0307  0.3064
  505MOL0     H68163   4.060   2.320   5.040  1.2727  0.1951 -1.7310
  505MOL0     H68164   4.123   2.458   5.214 -2.5637  0.6309 -0.1599
  505MOL0     H68165   4.021   2.660   5.394 -2.7527  4.5761 -1.9511
  505MOL0     H68166   4.191   2.606   5.355 -1.1565 -0.4273 -1.2416
  505MOL0     H68167   4.278   2.816   5.441  0.4446  1.5195 -0.5784
  505MOL0     H68168   4.160   2.753   5.558 -3.9945 -2.3969 -2.2086
  505MOL0     H68169   3.992   2.888   5.469  1.6762 -3.4647  0.9868
  505MOL0     H68170   4.111   2.987   5.372  2.4448 -2.4400 -0.5662
  505MOL0     H68171   4.193   3.055   5.600 -2.1682  3.7103 -0.9015
  505MOL0     H68172   4.079   2.937   5.680  0.5830  1.8319  2.0852
  505MOL0     H68173   3.864   3.290   5.567  2.4836  0.2579 -1.3126
  505MOL0     H68174   3.953   2.801   5.012 -2.2355 -0.7758  0.6642
  505MOL0     H68175   3.881   2.650   4.828 -0.0907 -2.5294 -1.1522
  506MOL0     O68176   1.454   8.379  10.849  0.2219  0.2925  0.1768
  506MOL0     C68177   1.346   8.321  10.878  0.1091  0.5201  0.3272
  506MOL0     O68178   1.295   8.324  11.005  0.3238  1.2690 -0.5047
  506MOL0     C68179   1.361   8.383  11.113 -0.4207 -0.0233 -0.2249
  506MOL0     C68180   1.471   8.324  11.172  1.4543 -0.1474 -0.5642
  506MOL0     C68181   1.532   8.373  11.290  0.3523 -0.1234  0.0195
  506MOL0     C68182   1.500   8.499  11.341  0.4966  0.8088  0.2505
  506MOL0     O68183   1.560   8.549  11.448  0.6030  0.0739 -0.2702
  506MOL0     C68184   1.568   8.692  11.475 -0.3646  0.0831  0.1929
  506MOL0     C68185   1.650   8.730  11.603  0.7855  0.6861 -0.2403
  506MOL0     C68186   1.802   8.714  11.588 -0.1256 -0.8650 -0.3035
  506MOL0     C68187   1.872   8.736  11.716 -0.8127 -0.1184  0.0231
  506MOL0     C68188   1.938   8.879  11.740  0.1314  0.0240  0.5796
  506MOL0     C68189   1.982   8.899  11.877 -1.3193  0.0443 -0.7056
  506MOL0     C68190   2.046   9.030  11.893 -1.1180  0.6380 -0.6601
  506MOL0     C68191   1.987   9.131  11.998 -0.5044 -0.6193  0.1968
  506MOL0     N68192   2.013   9.108  12.140 -0.2987 -1.0126 -0.0793
  506MOL0     C68193   2.056   8.985  12.188 -0.2601 -0.8825  0.8651
  506MOL0     C68194   2.083   9.005  12.322  0.0334 -0.2476  0.6547
  506MOL0     C68195   2.135   8.890  12.409 -0.0752 -0.1577  0.3131
  506MOL0     C68196   2.192   8.934  12.539 -0.4594  1.0082  0.0768
  506MOL0     C68197   2.191   8.818  12.640  0.5476  0.2364 -0.5402
  506MOL0     C68198   2.272   8.859  12.754  0.0480  0.0619  0.5594
  506MOL0     O68199   2.274   8.738  12.844 -0.2666 -0.1890  0.3940
  506MOL0     C68200   2.320   8.754  12.972 -0.1649 -0.0427 -0.0149
  506MOL0     C68201   2.378   8.865  13.035 -0.0015 -0.4662 -0.0063
  506MOL0     C68202   2.428   8.859  13.166 -0.8396  0.0104  0.1067
  506MOL0     C68203   2.452   8.992  13.238  0.2975 -0.8044 -0.4452
  506MOL0     C68204   2.429   8.735  13.232 -0.1708 -0.1874  0.0303
  506MOL0     C68205   2.515   8.726  13.348  0.5395  0.6323 -0.3680
  506MOL0     O68206   2.632   8.794  13.343 -0.1416  0.0263  0.2492
  506MOL0     C68207   2.721   8.756  13.437 -0.0821 -0.1662 -0.9896
  506MOL0     C68208   2.718   8.773  13.577  0.4123 -0.8582 -0.0436
  506MOL0     C68209   2.828   8.738  13.649 -0.1050  0.5588  0.5483
  506MOL0     C68210   2.940   8.677  13.593 -0.9501  0.2005 -0.2005
  506MOL0     O68211   3.045   8.624  13.674  0.3178  0.3057 -0.4977
  506MOL0     C68212   3.114   8.715  13.772  0.5966 -0.5010  0.6230
  506MOL0     C68213   3.239   8.644  13.820 -0.8991 -0.4096 -0.1172
  506MOL0     C68214   3.326   8.585  13.707 -0.3080  0.7658  1.2090
  506MOL0     C68215   3.419   8.484  13.756 -0.9963  0.0192 -1.1722
  506MOL0     C68216   3.549   8.535  13.816 -0.5020  0.2551  0.2156
  506MOL0     C68217   3.640   8.418  13.841  0.8351 -0.8138  0.7097
  506MOL0     C68218   3.590   8.313  13.934 -0.9565  0.3297 -0.4241
  506MOL0     C68219   3.557   8.361  14.077 -0.0108 -0.6703 -0.5130
  506MOL0    Cl68220   3.704   8.422  14.173 -0.2790  0.2292 -0.0255
  506MOL0     C68221   2.939   8.653  13.462  0.5423  0.7411  0.7883
  506MOL0     C68222   2.826   8.687  13.378  0.1022 -0.0390  0.1130
  506MOL0     O68223   2.484   8.635  13.432  0.3966  0.1161  0.1687
  506MOL0     C68224   2.373   8.628  13.170 -0.7870  1.0874 -0.9004
  506MOL0     C68225   2.316   8.637  13.042  0.4533 -0.7181 -0.1389
  506MOL0     N68226   2.018   9.128  12.361 -0.3372 -0.4954 -0.7386
  506MOL0     N68227   1.992   9.194  12.244 -0.2153 -0.1548 -0.1879
  506MOL0     C68228   1.402   8.570  11.273  0.4339 -0.1186  0.1412
  506MOL0     C68229   1.333   8.511  11.166 -0.5971 -1.0662 -0.0089
  506MOL0     C68230   1.282   8.247  10.763 -1.0360 -0.4226 -0.7110
  506MOL0     C68231   1.170   8.174  10.790  0.5923 -0.4251  0.4004
  506MOL0     C68232   1.115   8.099  10.687 -0.1176  0.1593 -0.0601
  506MOL0     C68233   1.167   8.109  10.554 -0.5190  0.0737 -0.7743
  506MOL0     O68234   1.116   8.032  10.452  0.2915  0.4110  0.0870
  506MOL0     C68235   1.017   7.930  10.476  1.0889  0.2709  0.0711
  506MOL0     C68236   1.026   7.822  10.360 -0.2462  0.1758 -1.1220
  506MOL0     C68237   1.000   7.872  10.217 -0.5426  0.0841 -0.3532
  506MOL0     C68238   1.034   7.752  10.116  0.3457 -0.1783 -0.0044
  506MOL0     C68239   0.928   7.653  10.123  0.1039 -0.4913 -0.4702
  506MOL0     C68240   0.843   7.566  10.135 -1.1445  0.5370  0.2521
  506MOL0     C68241   1.278   8.184  10.532 -0.0385  0.6548 -0.3032
  506MOL0     C68242   1.341   8.259  10.634  0.0803 -0.0235 -0.8192
  506MOL0     H68243   1.503   8.229  11.132 -1.9718 -1.5641 -0.2937
  506MOL0     H68244   1.599   8.308  11.344 -1.3552 -0.4914  1.8250
  506MOL0     H68245   1.619   8.734  11.387 -0.8590 -1.9012 -1.1022
  506MOL0     H68246   1.468   8.736  11.483 -1.9689 -2.4644 -3.2648
  506MOL0     H68247   1.622   8.831  11.633  4.9129  1.1954  2.7047
  506MOL0     H68248   1.602   8.669  11.681  0.4726  1.8585  0.5149
  506MOL0     H68249   1.835   8.615  11.552  0.9982 -0.7494  0.3775
  506MOL0     H68250   1.836   8.788  11.515 -1.8349 -1.5518 -1.8868
  506MOL0     H68251   1.805   8.738  11.803  1.9738  0.6821  2.3268
  506MOL0     H68252   1.947   8.664  11.750 -0.6718  0.3348  0.7120
  506MOL0     H68253   2.012   8.899  11.661  2.5885  0.3938  2.8339
  506MOL0     H68254   1.868   8.962  11.730  0.9428  0.5540 -1.2934
  506MOL0     H68255   1.896   8.892  11.945 -2.0624 -1.4873 -1.7543
  506MOL0     H68256   2.049   8.815  11.894  0.1099  1.4381  0.9197
  506MOL0     H68257   2.147   9.013  11.933 -0.0609  2.5502 -2.2910
  506MOL0     H68258   2.050   9.091  11.802  0.0248  1.5121 -0.0574
  506MOL0     H68259   1.878   9.128  11.983 -0.4702  1.1493 -0.6636
  506MOL0     H68260   2.007   9.237  11.979  0.2159  0.2073  4.5560
  506MOL0     H68261   2.058   8.896  12.126 -3.1800 -3.5371  4.1289
  506MOL0     H68262   2.040   8.838  12.423 -0.1315 -0.3448 -0.6867
  506MOL0     H68263   2.210   8.826  12.363 -1.2381  0.1104 -2.1696
  506MOL0     H68264   2.135   9.020  12.575  2.4678  2.3962  1.7988
  506MOL0     H68265   2.295   8.965  12.518 -1.1794  1.5602 -3.0636
  506MOL0     H68266   2.235   8.727  12.598  1.0452  1.0213 -1.7651
  506MOL0     H68267   2.085   8.801  12.664 -0.0756  1.5252 -2.1544
  506MOL0     H68268   2.237   8.939  12.820  4.1774  1.1915  1.6661
  506MOL0     H68269   2.378   8.878  12.738  1.0955 -4.7375  0.2298
  506MOL0     H68270   2.365   8.959  12.982  0.4087 -2.3102 -3.7207
  506MOL0     H68271   2.412   8.994  13.340 -0.3302 -0.6295 -0.6887
  506MOL0     H68272   2.554   9.025  13.219  0.4853 -0.6429  0.7961
  506MOL0     H68273   2.393   9.064  13.181 -1.8069 -2.5327 -0.5820
  506MOL0     H68274   2.630   8.808  13.631  1.5363 -1.5184  2.3429
  506MOL0     H68275   2.823   8.741  13.758  0.1861  0.4593  0.5664
  506MOL0     H68276   3.141   8.810  13.723  0.3304 -0.7566 -0.0427
  506MOL0     H68277   3.056   8.758  13.854  0.3291  3.2427 -1.2781
  506MOL0     H68278   3.303   8.711  13.877  1.8195 -2.9580  0.0676
  506MOL0     H68279   3.211   8.555  13.878  1.6393 -1.6738 -0.7032
  506MOL0     H68280   3.394   8.658  13.664  2.8774 -2.4996  0.1946
  506MOL0     H68281   3.272   8.542  13.622 -1.8374  2.3645  1.3190
  506MOL0     H68282   3.371   8.426  13.835  1.4054  0.6642  0.8819
  506MOL0     H68283   3.451   8.415  13.677  0.3391 -1.9220  0.9550
  506MOL0     H68284   3.520   8.573  13.914 -0.6962 -0.9392  0.6342
  506MOL0     H68285   3.593   8.613  13.753 -0.6639  1.2880  1.3605
  506MOL0     H68286   3.665   8.379  13.742 -1.6100 -0.4425 -0.1125
  506MOL0     H68287   3.733   8.450  13.889  0.3037 -1.0474  1.9340
  506MOL0     H68288   3.677   8.250  13.952 -1.0000  0.8703  1.9434
  506MOL0     H68289   3.510   8.248  13.897 -0.2325 -1.7407  1.4716
  506MOL0     H68290   3.509   8.276  14.127 -2.4762  0.2843 -1.0949
  506MOL0     H68291   3.484   8.443  14.078  1.9443  1.1934  2.1496
  506MOL0     H68292   3.015   8.598  13.407 -1.2111  2.1313 -3.3916
  506MOL0     H68293   2.836   8.691  13.270  3.4130  0.5898  0.3398
  506MOL0     H68294   2.375   8.523  13.196  4.5153  0.3191 -3.1637
  506MOL0     H68295   2.277   8.546  12.999  2.4296 -2.2847  1.1832
  506MOL0     H68296   1.377   8.673  11.297  0.6571 -0.2659  1.0348
  506MOL0     H68297   1.251   8.563  11.117  0.0031 -0.4891 -0.4112
  506MOL0     H68298   1.124   8.166  10.888  1.8613 -1.9143  0.9031
  506MOL0     H68299   1.036   8.027  10.704  0.7193 -1.3619 -2.2464
  506MOL0     H68300   1.041   7.876  10.568  1.9567 -2.2875 -1.5291
  506MOL0     H68301   0.918   7.976  10.484 -0.0110 -2.0251  0.3708
  506MOL0     H68302   0.948   7.746  10.377  1.5604 -1.4962  0.1277
  506MOL0     H68303   1.130   7.789  10.364  0.2719  1.2033 -4.0404
  506MOL0     H68304   1.071   7.955  10.209 -3.9257  3.0581 -2.1533
  506MOL0     H68305   0.910   7.932  10.206 -1.0244 -0.6949 -0.7639
  506MOL0     H68306   1.133   7.709  10.131  0.1227 -1.3929 -1.7133
  506MOL0     H68307   1.046   7.788  10.014 -0.5338 -0.4889 -0.2265
  506MOL0     H68308   0.758   7.501  10.144 -0.2576 -0.5264  1.3852
  506MOL0     H68309   1.323   8.184  10.434 -1.6339  2.1643 -1.0887
  506MOL0     H68310   1.437   8.297  10.602 -0.2711  0.3618 -1.4286
  507MOL0     O68311  11.500   9.220   6.311 -0.9621 -0.5490 -0.4024
  507MOL0     C68312  11.540   9.104   6.325 -0.5144 -0.6199 -0.3584
  507MOL0     O68313  11.637   9.039   6.258  0.3601  0.2780 -0.0933
  507MOL0     C68314  11.722   9.093   6.164  0.3512 -0.3857 -0.3232
  507MOL0     C68315  11.759   9.227   6.153  0.3355 -0.1336  0.2325
  507MOL0     C68316  11.863   9.257   6.065 -0.0005  0.0231  0.1087
  507MOL0     C68317  11.931   9.156   5.984  0.4915  0.5048  0.3772
  507MOL0     O68318  12.015   9.201   5.890 -0.3926  0.4600  0.5990
  507MOL0     C68319  12.052   9.124   5.769 -0.7593 -0.5997 -0.5481
  507MOL0     C68320  12.148   9.213   5.692  0.0147 -0.7808 -0.3797
  507MOL0     C68321  12.165   9.154   5.547 -0.0031  0.8393 -0.2746
  507MOL0     C68322  12.238   9.253   5.466  0.0266 -0.5628 -0.5299
  507MOL0     C68323  12.395   9.248   5.494  0.7194 -0.9902 -0.2364
  507MOL0     C68324  12.434   9.391   5.544 -0.2785 -0.9942  0.0355
  507MOL0     C68325  12.586   9.401   5.528  0.8850 -0.7008 -0.5392
  507MOL0     C68326  12.626   9.547   5.556  0.1447 -0.1279  0.1463
  507MOL0     N68327  12.773   9.570   5.543 -0.2131 -0.4496 -0.1650
  507MOL0     C68328  12.870   9.489   5.507  0.0072  0.2831  0.1432
  507MOL0     C68329  12.986   9.565   5.506 -0.8123  0.9475 -0.4513
  507MOL0     C68330  13.114   9.515   5.453 -0.8992 -0.0719  0.8005
  507MOL0     C68331  13.166   9.579   5.323  0.7979  0.2027  0.8621
  507MOL0     C68332  13.229   9.722   5.353  0.1308 -0.9886  0.8512
  507MOL0     C68333  13.276   9.785   5.222 -0.5099 -0.2271  0.1460
  507MOL0     O68334  13.411   9.745   5.188  0.0060  0.8884  0.3328
  507MOL0     C68335  13.515   9.822   5.211  0.3274  0.7401 -0.0952
  507MOL0     C68336  13.510   9.916   5.310 -0.1912  0.1165 -0.5972
  507MOL0     C68337  13.616  10.011   5.336  0.8489  0.3006 -0.6513
  507MOL0     C68338  13.604  10.093   5.456  0.0679  0.5221 -0.3025
  507MOL0     C68339  13.721  10.019   5.243 -0.1850 -0.1123  0.0989
  507MOL0     C68340  13.846  10.105   5.249 -0.5230  0.6431  0.7030
  507MOL0     O68341  13.860  10.207   5.342  0.0265 -0.0736 -0.4186
  507MOL0     C68342  13.951  10.309   5.318 -0.4138  0.6517  0.2789
  507MOL0     C68343  14.071  10.283   5.387  0.1108  0.5846 -0.5497
  507MOL0     C68344  14.183  10.368   5.375  0.5719 -0.8557 -0.4744
  507MOL0     C68345  14.174  10.484   5.296  0.4403  1.0894  0.6351
  507MOL0     O68346  14.280  10.569   5.288 -1.3639  0.8335 -0.2643
  507MOL0     C68347  14.290  10.687   5.198  0.4918  0.2549 -0.3883
  507MOL0     C68348  14.426  10.743   5.191  0.4165  0.5747 -0.0561
  507MOL0     C68349  14.451  10.832   5.075  0.0629  0.3227 -0.5293
  507MOL0     C68350  14.544  10.933   5.104 -0.0049  0.1080 -0.3917
  507MOL0     C68351  14.578  11.026   4.979  0.5224 -1.1701  0.2515
  507MOL0     C68352  14.638  11.157   5.026  0.1341  0.1968  0.2836
  507MOL0     C68353  14.693  11.248   4.916  0.2009  0.9222  0.2697
  507MOL0     C68354  14.592  11.348   4.872  0.6234 -0.6773  0.9091
  507MOL0    Cl68355  14.598  11.480   4.999 -0.2863  0.0895  0.2691
  507MOL0     C68356  14.056  10.503   5.230  0.1008  0.2940  0.7990
  507MOL0     C68357  13.939  10.419   5.239  0.7443 -0.3874 -0.3577
  507MOL0     O68358  13.927  10.091   5.151 -0.0499  0.5938  0.2727
  507MOL0     C68359  13.729   9.915   5.145  0.4051 -0.4619 -1.0846
  507MOL0     C68360  13.631   9.821   5.131  0.2511 -0.7300  0.1986
  507MOL0     N68361  12.958   9.694   5.538 -0.3916 -1.2199 -0.4559
  507MOL0     N68362  12.826   9.700   5.564 -0.6359 -0.3313 -0.6106
  507MOL0     C68363  11.861   9.036   5.971 -0.3778  0.2400  0.2028
  507MOL0     C68364  11.772   9.000   6.071 -0.4404  0.0238 -0.3479
  507MOL0     C68365  11.474   9.034   6.435  0.6974  0.6809 -0.3003
  507MOL0     C68366  11.358   9.085   6.500  0.7043 -0.1467 -0.5882
  507MOL0     C68367  11.269   9.008   6.582  0.1597 -0.1024 -0.4593
  507MOL0     C68368  11.304   8.875   6.604  0.3934  0.6578 -0.5295
  507MOL0     O68369  11.210   8.781   6.664 -0.4480  0.3903  0.0297
  507MOL0     C68370  11.184   8.652   6.603  0.2642 -0.0308 -0.1444
  507MOL0     C68371  11.061   8.586   6.655  0.3093  0.1776  0.4517
  507MOL0     C68372  11.039   8.598   6.799 -0.2265 -0.2314  0.2757
  507MOL0     C68373  10.904   8.590   6.852  0.0008  0.2560 -0.3331
  507MOL0     C68374  10.898   8.537   6.992  0.6001  0.4633 -0.1642
  507MOL0     C68375  10.895   8.474   7.091 -0.0593  0.2411 -0.6094
  507MOL0     C68376  11.430   8.828   6.568  0.0945  1.5702  0.1228
  507MOL0     C68377  11.515   8.902   6.482 -0.1781 -0.2570  0.3821
  507MOL0     H68378  11.725   9.305   6.222 -4.1226 -0.3385 -1.3857
  507MOL0     H68379  11.905   9.357   6.063  1.7839 -0.7029 -1.2792
  507MOL0     H68380  12.099   9.027   5.788 -3.6600 -2.0925 -0.4344
  507MOL0     H68381  11.958   9.110   5.714 -1.7987 -1.7976  1.3968
  507MOL0     H68382  12.097   9.309   5.679 -1.1859 -0.7087  3.3934
  507MOL0     H68383  12.238   9.224   5.753 -0.3954 -3.5025  0.8648
  507MOL0     H68384  12.231   9.067   5.548 -0.9192  0.1402  0.5600
  507MOL0     H68385  12.068   9.132   5.500  1.1090 -3.1950 -1.0415
  507MOL0     H68386  12.234   9.235   5.358  2.9066 -0.5296 -0.7197
  507MOL0     H68387  12.180   9.345   5.483  1.5126  0.3976 -0.4804
  507MOL0     H68388  12.424   9.172   5.568 -3.9152 -1.0393  1.8456
  507MOL0     H68389  12.439   9.239   5.394 -3.6055 -3.4006 -2.1710
  507MOL0     H68390  12.378   9.469   5.493  0.9668  0.9801  1.5277
  507MOL0     H68391  12.408   9.402   5.650  0.7437 -0.7798  0.2735
  507MOL0     H68392  12.641   9.330   5.592  0.8528 -1.3806 -1.2497
  507MOL0     H68393  12.607   9.370   5.426  0.2680  0.4225 -1.0243
  507MOL0     H68394  12.602   9.562   5.661 -0.3598 -1.1428  0.1900
  507MOL0     H68395  12.569   9.611   5.488  1.4849 -1.1068 -1.9990
  507MOL0     H68396  12.862   9.385   5.480  0.7856  0.8986 -2.7444
  507MOL0     H68397  13.191   9.533   5.529 -1.5283 -1.7534  1.9090
  507MOL0     H68398  13.104   9.407   5.438 -1.7929  0.1359 -0.2161
  507MOL0     H68399  13.081   9.590   5.255 -1.9363 -2.2834  3.5930
  507MOL0     H68400  13.239   9.516   5.272 -0.1240 -1.5328  1.5858
  507MOL0     H68401  13.324   9.712   5.407  0.3225 -1.9308  0.3666
  507MOL0     H68402  13.160   9.781   5.413 -0.6173 -1.8558  0.8638
  507MOL0     H68403  13.269   9.894   5.225  1.8460 -0.0233 -0.2627
  507MOL0     H68404  13.198   9.743   5.157 -1.2809  1.2995  0.0413
  507MOL0     H68405  13.445   9.889   5.393 -3.0386 -0.5443 -2.8876
  507MOL0     H68406  13.579  10.199   5.446 -0.6213  0.5674  1.5146
  507MOL0     H68407  13.539  10.056   5.536  4.0498 -2.7647  1.7965
  507MOL0     H68408  13.700  10.086   5.508 -0.6547 -0.2431  0.9716
  507MOL0     H68409  14.089  10.196   5.450  1.2462  3.3094  3.2074
  507MOL0     H68410  14.274  10.363   5.433  0.2413  2.8279  0.6622
  507MOL0     H68411  14.265  10.657   5.095  1.4176 -0.4352 -0.4255
  507MOL0     H68412  14.222  10.763   5.237 -3.1261 -3.1619  0.6217
  507MOL0     H68413  14.428  10.794   5.288 -1.9278 -0.1702  0.4703
  507MOL0     H68414  14.496  10.659   5.193 -0.0582  0.1146 -1.5288
  507MOL0     H68415  14.358  10.881   5.048 -0.5384 -1.1072 -1.1827
  507MOL0     H68416  14.492  10.767   4.996  1.7936  1.1812 -0.3973
  507MOL0     H68417  14.505  11.006   5.176  3.0750  1.9589 -0.4534
  507MOL0     H68418  14.638  10.889   5.139  0.4682  1.0066 -0.5145
  507MOL0     H68419  14.486  11.059   4.929  0.6863 -2.1177 -0.7193
  507MOL0     H68420  14.631  10.968   4.903  2.0490 -2.4409  2.2094
  507MOL0     H68421  14.562  11.206   5.089 -1.3382 -1.1184 -0.3959
  507MOL0     H68422  14.721  11.130   5.092  0.1805  1.1770  0.6425
  507MOL0     H68423  14.718  11.179   4.835  3.0499 -0.1166  1.8675
  507MOL0     H68424  14.787  11.296   4.944 -0.3700  0.8679  2.5094
  507MOL0     H68425  14.488  11.317   4.885  0.2221  0.1335 -0.2044
  507MOL0     H68426  14.605  11.389   4.772 -0.1699  3.6859  2.3585
  507MOL0     H68427  14.042  10.595   5.175 -4.5023 -1.1247 -0.8346
  507MOL0     H68428  13.848  10.448   5.188 -0.1854 -0.7400  1.0489
  507MOL0     H68429  13.822   9.897   5.091  1.4156  1.4603 -0.1232
  507MOL0     H68430  13.636   9.739   5.059  1.3738  0.0262 -0.6155
  507MOL0     H68431  11.894   8.966   5.894 -1.1699  0.3171 -0.2226
  507MOL0     H68432  11.729   8.900   6.072  0.8276 -0.6807 -3.7460
  507MOL0     H68433  11.315   9.182   6.477 -3.4908 -1.1465  1.8794
  507MOL0     H68434  11.175   9.049   6.616  1.0625  0.1736  1.8457
  507MOL0     H68435  11.178   8.654   6.494 -4.5693 -3.6847 -0.2957
  507MOL0     H68436  11.273   8.594   6.630  1.5871  1.9059 -0.1637
  507MOL0     H68437  11.062   8.478   6.644  2.0469  0.1217  0.9727
  507MOL0     H68438  10.974   8.626   6.601  0.6216  1.3311  0.7746
  507MOL0     H68439  11.082   8.690   6.840  0.5909 -0.6012  0.2696
  507MOL0     H68440  11.106   8.534   6.858  1.9581  1.0824 -0.6564
  507MOL0     H68441  10.835   8.535   6.788  1.4619 -0.8550 -1.0018
  507MOL0     H68442  10.867   8.693   6.847  0.4570  0.5037  0.9091
  507MOL0     H68443  10.895   8.409   7.176 -2.7861  1.1503  0.1498
  507MOL0     H68444  11.455   8.728   6.601 -2.2173  0.9989  0.3075
  507MOL0     H68445  11.607   8.860   6.444 -0.0329  1.4044 -1.2662
  508MOL0     O68446  10.223   4.899  11.385 -0.3938  0.3152  1.0016
  508MOL0     C68447  10.199   4.865  11.273  0.3281 -0.4395  1.3379
  508MOL0     O68448  10.135   4.941  11.174  0.6019  0.4082  0.5708
  508MOL0     C68449  10.107   5.063  11.212  0.0846  0.1464  0.2729
  508MOL0     C68450  10.010   5.088  11.317 -0.2866  0.4617 -0.7665
  508MOL0     C68451   9.964   5.217  11.342  1.2682 -0.3178 -0.1428
  508MOL0     C68452  10.011   5.323  11.262 -0.0898  0.7013 -0.2150
  508MOL0     O68453   9.976   5.459  11.270  0.2906  0.1493  0.1531
  508MOL0     C68454   9.886   5.507  11.366 -0.4043 -1.0497 -0.4944
  508MOL0     C68455   9.770   5.591  11.306 -0.5796 -0.3764 -0.6218
  508MOL0     C68456   9.681   5.644  11.413 -0.2172 -0.5993 -0.2708
  508MOL0     C68457   9.587   5.747  11.350  0.0002 -0.4556 -0.3989
  508MOL0     C68458   9.459   5.787  11.432  0.2879 -0.0980  0.7953
  508MOL0     C68459   9.482   5.919  11.499  0.2855  0.9217 -0.2735
  508MOL0     C68460   9.354   5.987  11.564  0.1217  0.5202 -0.1164
  508MOL0     C68461   9.381   6.136  11.579  1.0084  0.4918 -0.7459
  508MOL0     N68462   9.273   6.194  11.655 -0.1247 -0.5902 -0.2537
  508MOL0     C68463   9.270   6.187  11.795 -0.8636  0.1413 -0.0685
  508MOL0     C68464   9.180   6.276  11.843  0.2944 -0.3781 -0.4773
  508MOL0     C68465   9.145   6.296  11.986  0.5811 -0.1580 -0.0548
  508MOL0     C68466   9.114   6.435  12.031 -0.2677 -0.3216  0.2649
  508MOL0     C68467   9.234   6.536  12.020 -0.2686  0.2931 -0.3587
  508MOL0     C68468   9.294   6.564  11.882  0.7638  0.8785  0.0760
  508MOL0     O68469   9.376   6.677  11.901 -0.5807  0.0046 -0.6383
  508MOL0     C68470   9.333   6.801  11.858  0.2977  0.1919 -0.3385
  508MOL0     C68471   9.200   6.839  11.860  0.1925 -0.0278 -0.4588
  508MOL0     C68472   9.152   6.961  11.807 -0.3370 -0.3284 -0.3747
  508MOL0     C68473   9.005   6.981  11.803 -0.2395 -0.4400  0.6832
  508MOL0     C68474   9.254   7.052  11.758  0.1884 -0.5361  0.1604
  508MOL0     C68475   9.223   7.189  11.723  0.4132 -0.7559 -1.2151
  508MOL0     O68476   9.125   7.256  11.799 -0.3009 -0.4473 -0.7898
  508MOL0     C68477   9.102   7.384  11.770 -0.0749  0.8546 -1.2856
  508MOL0     C68478   9.204   7.468  11.796  0.9310 -0.5698 -0.0459
  508MOL0     C68479   9.185   7.609  11.796 -0.3122 -0.4968  0.4438
  508MOL0     C68480   9.062   7.664  11.777  1.2229  0.0535  0.3696
  508MOL0     O68481   9.037   7.800  11.768  0.5247  0.4070 -0.0466
  508MOL0     C68482   8.966   7.831  11.646 -0.4732  0.4796  0.3546
  508MOL0     C68483   8.971   7.977  11.618 -1.2091 -0.0816  0.8017
  508MOL0     C68484   8.925   8.074  11.730  0.7214  0.8227  0.5289
  508MOL0     C68485   8.947   8.224  11.691 -0.0607  0.5452  0.1233
  508MOL0     C68486   8.924   8.303  11.810 -0.2600 -1.3884  0.9601
  508MOL0     C68487   9.039   8.329  11.907 -0.2250  0.4396  0.1496
  508MOL0     C68488   9.138   8.428  11.860 -0.0869 -1.0255  0.0926
  508MOL0     C68489   9.197   8.506  11.972  0.0742 -0.4770 -0.2816
  508MOL0    Cl68490   9.082   8.614  12.055 -0.3014  0.1711 -0.1545
  508MOL0     C68491   8.953   7.573  11.774  0.3922  0.7076  0.4705
  508MOL0     C68492   8.975   7.433  11.755  0.4422  0.1671  0.3555
  508MOL0     O68493   9.282   7.241  11.628 -0.4504 -0.0922  0.2111
  508MOL0     C68494   9.390   7.012  11.766  0.7168  0.2821 -0.7405
  508MOL0     C68495   9.420   6.885  11.819 -0.5996 -0.8212 -0.4506
  508MOL0     N68496   9.124   6.329  11.730 -0.1802  0.0348 -0.3866
  508MOL0     N68497   9.186   6.301  11.622 -0.7243 -0.6212 -0.0039
  508MOL0     C68498  10.106   5.303  11.168 -0.2798 -0.5674 -0.4303
  508MOL0     C68499  10.158   5.175  11.145 -0.5487  0.0922 -0.0464
  508MOL0     C68500  10.235   4.717  11.231 -0.7285 -0.0724  0.1802
  508MOL0     C68501  10.161   4.639  11.140 -0.4256 -1.0785 -1.2945
  508MOL0     C68502  10.188   4.500  11.145  0.5111  0.1098 -0.4388
  508MOL0     C68503  10.298   4.442  11.210 -0.2446 -0.8557 -0.3181
  508MOL0     O68504  10.327   4.305  11.203 -0.9023  0.3681  0.6012
  508MOL0     C68505  10.286   4.228  11.092  0.1064  0.2347  0.1043
  508MOL0     C68506  10.378   4.245  10.964 -0.1510 -0.3654 -0.2237
  508MOL0     C68507  10.519   4.249  11.021  0.0871 -0.0546 -0.0487
  508MOL0     C68508  10.566   4.131  11.102 -0.4913  0.1181 -0.5896
  508MOL0     C68509  10.549   4.004  11.026 -0.1964 -0.7487 -0.0817
  508MOL0     C68510  10.512   3.911  10.954  0.2886  0.5810 -0.1853
  508MOL0     C68511  10.379   4.527  11.293 -0.0618 -0.0045 -0.5029
  508MOL0     C68512  10.337   4.662  11.304 -0.8767  0.3336 -1.0749
  508MOL0     H68513   9.969   4.998  11.361  1.9632 -1.3640 -2.2041
  508MOL0     H68514   9.879   5.233  11.407  1.7567  2.6371 -0.0859
  508MOL0     H68515   9.834   5.428  11.421  0.9386 -2.4950 -1.2143
  508MOL0     H68516   9.939   5.563  11.443 -1.4504  2.3291 -2.0294
  508MOL0     H68517   9.805   5.676  11.247 -1.1105 -1.0587 -1.9709
  508MOL0     H68518   9.711   5.542  11.228 -1.9551  0.6950 -0.3011
  508MOL0     H68519   9.611   5.564  11.443  1.0384 -1.1454  1.3705
  508MOL0     H68520   9.730   5.680  11.504  1.6106 -1.0057 -1.0492
  508MOL0     H68521   9.639   5.831  11.302 -1.9225  1.8120  1.2506
  508MOL0     H68522   9.547   5.707  11.256  4.0729 -1.2921 -2.0134
  508MOL0     H68523   9.372   5.798  11.367 -1.1637  2.3358  2.9423
  508MOL0     H68524   9.435   5.708  11.503  1.8353 -0.5844  0.8096
  508MOL0     H68525   9.562   5.911  11.573 -0.0395  0.8429  0.0715
  508MOL0     H68526   9.525   5.991  11.429  2.0705  1.6515  1.4727
  508MOL0     H68527   9.258   5.965  11.517 -2.1709  1.9374  3.4610
  508MOL0     H68528   9.345   5.941  11.663 -0.2062 -0.3405 -0.5392
  508MOL0     H68529   9.378   6.188  11.483 -2.0953 -0.5251 -1.3253
  508MOL0     H68530   9.475   6.130  11.634 -0.1631 -0.9836  1.2541
  508MOL0     H68531   9.331   6.125  11.860 -2.1223  0.1261  1.1584
  508MOL0     H68532   9.047   6.254  12.010  0.9263 -0.5705  0.6611
  508MOL0     H68533   9.224   6.247  12.044 -0.3190 -0.6592  0.7675
  508MOL0     H68534   9.089   6.415  12.136 -4.5734  0.1426 -0.4773
  508MOL0     H68535   9.034   6.470  11.965 -0.8321 -2.7701 -0.4419
  508MOL0     H68536   9.322   6.500  12.074  0.4740  1.2251 -0.9287
  508MOL0     H68537   9.198   6.634  12.054 -4.0688 -0.8692 -0.5263
  508MOL0     H68538   9.221   6.577  11.801  0.5097 -0.4155  0.0857
  508MOL0     H68539   9.346   6.474  11.849 -0.1357 -0.3720  1.9266
  508MOL0     H68540   9.120   6.777  11.900  0.1860  1.7875  2.6380
  508MOL0     H68541   8.958   7.025  11.891  0.0960 -1.0219  1.1586
  508MOL0     H68542   8.977   7.033  11.711  3.8183  0.0912 -0.4368
  508MOL0     H68543   8.959   6.882  11.787  4.2994 -2.9336  1.3029
  508MOL0     H68544   9.306   7.431  11.800  1.7945  1.7044  0.6500
  508MOL0     H68545   9.277   7.666  11.803  0.9121 -2.5107  2.0783
  508MOL0     H68546   9.012   7.774  11.564  0.3085  1.8470 -0.1868
  508MOL0     H68547   8.862   7.802  11.667 -0.2969  1.6497  3.2147
  508MOL0     H68548   9.074   8.002  11.592 -1.4158  1.3760  1.2924
  508MOL0     H68549   8.916   7.996  11.525  0.0097  0.6204  0.2065
  508MOL0     H68550   8.978   8.048  11.822  1.5252 -1.5107 -0.5085
  508MOL0     H68551   8.817   8.060  11.736  0.7273  1.2686  1.8794
  508MOL0     H68552   9.047   8.246  11.652 -0.4294  3.5756  0.6779
  508MOL0     H68553   8.875   8.264  11.619  1.7771  1.6599 -1.1659
  508MOL0     H68554   8.841   8.261  11.867 -1.1151  0.4434  1.1276
  508MOL0     H68555   8.880   8.399  11.781  0.8573 -0.4710  2.1617
  508MOL0     H68556   9.005   8.364  12.004 -0.6246 -3.4581  1.6190
  508MOL0     H68557   9.092   8.237  11.934 -1.5243  0.1885  2.0713
  508MOL0     H68558   9.096   8.502  11.791 -2.3718  1.6047  3.8960
  508MOL0     H68559   9.219   8.372  11.814  1.3895 -1.5363  3.0656
  508MOL0     H68560   9.280   8.575  11.952 -0.7105  1.3806  2.3553
  508MOL0     H68561   9.237   8.438  12.048  0.6337  0.9782  0.7915
  508MOL0     H68562   8.854   7.617  11.773 -0.7254 -1.5160 -2.7254
  508MOL0     H68563   8.897   7.369  11.717  0.7190  1.2340 -2.1622
  508MOL0     H68564   9.476   7.070  11.736  1.0136 -0.9105 -2.3299
  508MOL0     H68565   9.525   6.862  11.833 -0.7036 -1.6255 -0.9668
  508MOL0     H68566  10.155   5.381  11.109  2.7880 -2.4751 -0.6376
  508MOL0     H68567  10.222   5.167  11.058 -1.8136  1.2746 -1.1218
  508MOL0     H68568  10.079   4.683  11.084 -0.4410  2.4284  1.1381
  508MOL0     H68569  10.120   4.439  11.086 -2.9597  0.0218  3.2466
  508MOL0     H68570  10.282   4.123  11.124 -2.2111  0.2805  0.1370
  508MOL0     H68571  10.186   4.259  11.061  0.1340  0.5330  0.3098
  508MOL0     H68572  10.358   4.342  10.917  1.1187 -0.1858 -0.4521
  508MOL0     H68573  10.374   4.162  10.893  1.9850 -2.9816  2.4335
  508MOL0     H68574  10.528   4.344  11.075 -0.7260 -0.0033  0.0098
  508MOL0     H68575  10.581   4.264  10.933  1.8511 -1.1670  0.9566
  508MOL0     H68576  10.514   4.122  11.198 -1.9740  0.8761 -1.2736
  508MOL0     H68577  10.673   4.146  11.114 -0.5091  0.6077 -0.9999
  508MOL0     H68578  10.479   3.834  10.888  0.0897  2.6445 -2.6302
  508MOL0     H68579  10.459   4.481  11.350  0.5944  3.9302  2.1629
  508MOL0     H68580  10.380   4.716  11.388  1.2100 -2.0999 -0.4238
  509MOL0     O68581   8.202   6.872   2.878  0.6661  1.3558 -0.1458
  509MOL0     C68582   8.114   6.939   2.827  0.5762 -0.0479  0.1370
  509MOL0     O68583   7.987   6.961   2.882  0.0905  0.7803 -0.7234
  509MOL0     C68584   7.977   6.909   3.011  0.2947  0.7825  0.4173
  509MOL0     C68585   8.055   6.967   3.115  0.6733 -0.1235 -0.2925
  509MOL0     C68586   8.061   6.906   3.242  1.1245  0.3689  0.7165
  509MOL0     C68587   7.971   6.797   3.271 -0.3640 -0.4204 -0.0525
  509MOL0     O68588   7.961   6.736   3.394 -0.6700 -0.2821  0.0084
  509MOL0     C68589   8.037   6.783   3.509 -0.8479 -1.2920 -0.0367
  509MOL0     C68590   7.996   6.704   3.631  0.0112 -0.2634 -1.3053
  509MOL0     C68591   7.845   6.679   3.676 -0.8857  0.4092  0.4454
  509MOL0     C68592   7.758   6.802   3.677 -0.1879  0.6377 -0.0838
  509MOL0     C68593   7.613   6.747   3.696 -0.2468  0.4795  0.7054
  509MOL0     C68594   7.524   6.875   3.682 -0.6682 -0.2525 -0.0424
  509MOL0     C68595   7.377   6.834   3.727 -0.8857 -0.0868 -0.0632
  509MOL0     C68596   7.288   6.949   3.770 -0.2600 -0.4801 -0.4699
  509MOL0     N68597   7.240   7.024   3.658 -0.7961  0.3844 -0.2982
  509MOL0     C68598   7.218   6.981   3.531  0.1101 -0.0112 -0.0949
  509MOL0     C68599   7.150   7.085   3.468 -0.5517 -0.6430  0.2202
  509MOL0     C68600   7.110   7.073   3.321  0.4818 -0.4023  0.1095
  509MOL0     C68601   6.975   7.128   3.301  0.4417 -0.7596 -0.8375
  509MOL0     C68602   6.929   7.091   3.156  0.1631 -0.4337 -0.3656
  509MOL0     C68603   6.984   7.182   3.048 -0.1790 -0.5348  0.2285
  509MOL0     O68604   6.991   7.326   3.071 -0.5952 -0.1891 -0.4655
  509MOL0     C68605   7.115   7.389   3.088 -0.5523 -1.2705  0.8722
  509MOL0     C68606   7.108   7.519   3.119  1.2151 -0.5637 -0.4470
  509MOL0     C68607   7.220   7.602   3.133  0.2589  0.0057 -0.8762
  509MOL0     C68608   7.190   7.743   3.172  0.4612  0.0839  0.3065
  509MOL0     C68609   7.347   7.562   3.094  0.6293 -0.0518  0.1740
  509MOL0     C68610   7.477   7.643   3.097  1.3178  0.6921 -0.4082
  509MOL0     O68611   7.582   7.560   3.110 -0.5955  0.5841  0.0698
  509MOL0     C68612   7.701   7.627   3.136  0.6899 -0.0231  0.4664
  509MOL0     C68613   7.776   7.659   3.018 -0.4691  0.7262  0.4517
  509MOL0     C68614   7.901   7.716   3.022  1.2761  0.4516  0.1111
  509MOL0     C68615   7.955   7.747   3.146 -0.2937  0.1188 -0.6268
  509MOL0     O68616   8.084   7.799   3.168  0.4775 -1.0886  0.1245
  509MOL0     C68617   8.112   7.913   3.086  0.7734  0.3315 -0.1033
  509MOL0     C68618   8.263   7.922   3.045 -0.2437  0.0594  0.1150
  509MOL0     C68619   8.325   8.071   3.045 -0.1088 -0.4667  1.3432
  509MOL0     C68620   8.264   8.169   2.937  0.4521 -0.4548  0.2187
  509MOL0     C68621   8.337   8.190   2.809 -0.5497  0.9532  0.4253
  509MOL0     C68622   8.319   8.071   2.717  1.0221 -0.6863 -0.8734
  509MOL0     C68623   8.405   8.078   2.592 -0.5547 -0.7855 -0.1519
  509MOL0     C68624   8.369   7.952   2.513 -0.4653  0.0641  0.8539
  509MOL0    Cl68625   8.391   7.788   2.594 -0.3695 -0.3260  0.1462
  509MOL0     C68626   7.877   7.715   3.258  0.2877  0.0062 -1.1482
  509MOL0     C68627   7.749   7.662   3.258 -0.2782 -0.1492 -1.1673
  509MOL0     O68628   7.482   7.761   3.061 -0.1074  0.2668 -0.2598
  509MOL0     C68629   7.357   7.423   3.057  0.4090 -0.6187  0.4906
  509MOL0     C68630   7.243   7.338   3.047 -0.7032  0.7023 -0.1819
  509MOL0     N68631   7.143   7.191   3.559  1.2899  0.8513  0.2983
  509MOL0     N68632   7.186   7.155   3.671 -0.5131  0.2908 -1.0999
  509MOL0     C68633   7.892   6.741   3.165  0.8083 -1.3047  0.6499
  509MOL0     C68634   7.894   6.805   3.035 -0.5875  0.2401  0.3467
  509MOL0     C68635   8.128   6.962   2.680 -0.1123 -0.5170 -0.1325
  509MOL0     C68636   8.028   7.038   2.614 -0.7533 -0.2567  0.4468
  509MOL0     C68637   8.046   7.070   2.474 -0.7155 -0.4555  0.5146
  509MOL0     C68638   8.155   7.021   2.397  0.5131 -0.4064 -0.7475
  509MOL0     O68639   8.164   7.015   2.261 -0.3868  0.3246  0.0790
  509MOL0     C68640   8.127   7.123   2.185 -0.3694 -1.3260  0.2303
  509MOL0     C68641   8.182   7.129   2.045 -0.1400  0.8024 -0.8771
  509MOL0     C68642   8.169   6.992   1.977  0.2514 -1.0271  0.1761
  509MOL0     C68643   8.265   6.986   1.850  0.2450 -0.2159 -0.0100
  509MOL0     C68644   8.266   6.862   1.786 -0.5418 -0.0420 -0.2704
  509MOL0     C68645   8.293   6.776   1.710 -0.7562 -0.0437 -0.2720
  509MOL0     C68646   8.241   6.940   2.459 -0.3803  1.0581  0.5963
  509MOL0     C68647   8.233   6.906   2.600  0.5196 -1.4934 -0.7276
  509MOL0     H68648   8.116   7.050   3.081 -1.0453 -0.1998 -4.1463
  509MOL0     H68649   8.137   6.952   3.304  0.3365  4.2671 -0.9548
  509MOL0     H68650   8.145   6.783   3.491 -0.6818  0.7909  0.7353
  509MOL0     H68651   8.001   6.882   3.536 -3.7037 -2.2915  0.1212
  509MOL0     H68652   8.051   6.610   3.627  2.3702  1.0588 -4.8563
  509MOL0     H68653   8.039   6.768   3.709  2.4544 -0.4794 -2.3946
  509MOL0     H68654   7.807   6.615   3.597  0.9197  1.4775 -1.3694
  509MOL0     H68655   7.843   6.630   3.774 -1.3972  0.0481  0.2596
  509MOL0     H68656   7.804   6.871   3.748  1.2880 -1.1188  0.7457
  509MOL0     H68657   7.765   6.839   3.574  3.9367 -1.3134 -0.7391
  509MOL0     H68658   7.578   6.665   3.632 -0.6245 -3.1517  5.0374
  509MOL0     H68659   7.613   6.690   3.790  3.5481 -1.7253 -0.4235
  509MOL0     H68660   7.551   6.960   3.746 -1.4046  1.5629 -2.0088
  509MOL0     H68661   7.537   6.918   3.582  1.3507  1.2216  0.7789
  509MOL0     H68662   7.334   6.779   3.643  0.9386  1.4527 -2.1233
  509MOL0     H68663   7.384   6.769   3.815  0.5893 -0.8566 -0.6969
  509MOL0     H68664   7.338   7.014   3.842  2.4866 -2.0816 -0.7570
  509MOL0     H68665   7.204   6.904   3.824  0.4633 -2.6892 -1.0581
  509MOL0     H68666   7.243   6.886   3.485 -0.5504 -2.9855  4.9641
  509MOL0     H68667   7.190   7.125   3.268  0.4388  2.9313  2.9430
  509MOL0     H68668   7.106   6.968   3.293  1.1765 -1.4526  3.4628
  509MOL0     H68669   6.982   7.236   3.322  1.5076 -1.0606  0.4842
  509MOL0     H68670   6.902   7.087   3.371 -0.3675 -0.4597 -1.4911
  509MOL0     H68671   6.821   7.107   3.166  0.7039  3.4303  1.0356
  509MOL0     H68672   6.945   6.985   3.133  0.9436 -0.4130  0.0469
  509MOL0     H68673   6.901   7.182   2.977  1.0336 -0.3223 -1.2577
  509MOL0     H68674   7.073   7.150   2.991  0.2142  2.0811 -0.7533
  509MOL0     H68675   7.006   7.546   3.146 -0.0210 -3.9433 -1.2171
  509MOL0     H68676   7.281   7.791   3.210  1.6519 -0.3057 -1.8833
  509MOL0     H68677   7.152   7.789   3.080  0.1299 -1.4938 -0.3771
  509MOL0     H68678   7.114   7.748   3.250 -1.5518  1.8011 -1.5927
  509MOL0     H68679   7.731   7.637   2.922  2.6296  2.3021 -1.5359
  509MOL0     H68680   7.950   7.730   2.926  1.0683  2.2480  0.2398
  509MOL0     H68681   8.056   7.907   2.991  0.9921  0.2493 -0.2269
  509MOL0     H68682   8.083   8.008   3.132 -2.3943  1.6072 -4.0720
  509MOL0     H68683   8.315   7.859   3.118 -0.5988 -0.4178 -0.0426
  509MOL0     H68684   8.280   7.871   2.950  0.3572 -2.7420  1.6117
  509MOL0     H68685   8.428   8.074   3.010 -0.5174  1.0198  0.1573
  509MOL0     H68686   8.333   8.125   3.139 -1.2871  1.1685  0.5696
  509MOL0     H68687   8.161   8.137   2.920  0.5112  0.1915 -1.5566
  509MOL0     H68688   8.254   8.267   2.985 -1.8675 -0.9967  0.9527
  509MOL0     H68689   8.443   8.208   2.826 -0.0922  1.0063 -2.1630
  509MOL0     H68690   8.314   8.284   2.759  3.4756  1.3061 -1.1135
  509MOL0     H68691   8.346   7.983   2.776  0.5278 -2.2784 -2.9093
  509MOL0     H68692   8.214   8.058   2.690  0.8366 -1.2478  0.0695
  509MOL0     H68693   8.511   8.075   2.618 -0.5017 -0.0597 -0.2628
  509MOL0     H68694   8.386   8.171   2.538  0.0204  0.7355  2.1408
  509MOL0     H68695   8.428   7.944   2.421 -0.6484  0.0044  0.7416
  509MOL0     H68696   8.265   7.961   2.480 -0.2185 -1.0087 -0.2876
  509MOL0     H68697   7.924   7.730   3.355 -1.3537  3.3885 -0.7512
  509MOL0     H68698   7.704   7.637   3.354  0.6959  1.3068 -0.2735
  509MOL0     H68699   7.452   7.377   3.034 -0.0466 -0.9526 -0.8212
  509MOL0     H68700   7.277   7.237   3.025  0.1388  0.1827  3.0184
  509MOL0     H68701   7.826   6.655   3.172 -1.3208  0.1413 -0.3437
  509MOL0     H68702   7.842   6.769   2.947 -1.8204  1.6935  0.4450
  509MOL0     H68703   7.958   7.101   2.667 -1.2323 -0.3596 -0.0561
  509MOL0     H68704   7.974   7.133   2.423  1.3337  2.5156  1.0497
  509MOL0     H68705   8.017   7.127   2.181 -0.3445  2.5820 -0.4643
  509MOL0     H68706   8.162   7.219   2.225  0.6923 -2.2190  1.5108
  509MOL0     H68707   8.284   7.168   2.046 -0.7995  2.6053  0.5289
  509MOL0     H68708   8.122   7.206   1.996 -0.6493  0.8817 -0.1424
  509MOL0     H68709   8.069   6.984   1.933 -1.0043 -0.9258  2.8019
  509MOL0     H68710   8.196   6.914   2.049  1.4730 -0.5446  0.2582
  509MOL0     H68711   8.371   7.006   1.865  0.3115 -1.2226  1.0182
  509MOL0     H68712   8.224   7.059   1.779 -3.1622 -1.3570  0.5817
  509MOL0     H68713   8.312   6.706   1.631 -4.2047 -1.2133 -0.2470
  509MOL0     H68714   8.294   6.873   2.393 -0.3414  1.2920  0.3876
  509MOL0     H68715   8.304   6.835   2.640  1.0142 -0.4684  0.2699
  510MOL0     O68716   7.236   3.019   7.254 -0.2567  0.6710  0.2283
  510MOL0     C68717   7.190   3.035   7.144  0.2405 -0.4395  0.5556
  510MOL0     O68718   7.133   2.939   7.069  0.7745  0.9449  0.4004
  510MOL0     C68719   7.105   2.814   7.123  0.8645 -0.0994 -0.6479
  510MOL0     C68720   7.131   2.704   7.049  0.3087  0.3545  1.3583
  510MOL0     C68721   7.095   2.576   7.090  0.5126 -0.4839  0.4999
  510MOL0     C68722   7.042   2.562   7.220  0.0077  0.4650 -0.1368
  510MOL0     O68723   7.026   2.426   7.256 -0.0784  0.2162 -0.5177
  510MOL0     C68724   6.963   2.384   7.382 -0.1177  0.6656  0.9695
  510MOL0     C68725   6.945   2.233   7.373 -0.5400 -0.1968  1.0409
  510MOL0     C68726   6.834   2.171   7.448  0.5188  0.2516 -0.1975
  510MOL0     C68727   6.810   2.020   7.418  0.4197  0.1762 -0.0107
  510MOL0     C68728   6.730   1.946   7.535 -0.7835  0.1357  0.1509
  510MOL0     C68729   6.749   1.792   7.528  0.1345 -0.4403  0.2521
  510MOL0     C68730   6.682   1.703   7.645 -0.6550 -0.2531  0.0745
  510MOL0     C68731   6.670   1.550   7.603  0.8396 -0.3328  0.6269
  510MOL0     N68732   6.797   1.491   7.564 -0.1619  0.3074 -0.5724
  510MOL0     C68733   6.855   1.476   7.442  0.2360 -1.4945  0.4898
  510MOL0     C68734   6.962   1.396   7.450  0.4996 -0.2232  0.6341
  510MOL0     C68735   7.044   1.338   7.339  1.7259 -0.1576 -0.8598
  510MOL0     C68736   7.085   1.442   7.240  0.0276 -0.6865 -0.1066
  510MOL0     C68737   7.194   1.389   7.140  0.0082 -0.0513 -0.2902
  510MOL0     C68738   7.196   1.495   7.032 -0.0238 -0.5693  0.1693
  510MOL0     O68739   7.325   1.494   6.969  0.9241  0.0465 -0.7167
  510MOL0     C68740   7.346   1.597   6.872 -0.4370 -0.1284 -0.1833
  510MOL0     C68741   7.245   1.653   6.796  0.7793 -0.6837 -1.2819
  510MOL0     C68742   7.266   1.745   6.697  0.4246 -1.1676  0.0703
  510MOL0     C68743   7.153   1.784   6.606  0.7613  0.8265 -0.6351
  510MOL0     C68744   7.399   1.786   6.681  0.1563  0.7509  0.0714
  510MOL0     C68745   7.456   1.901   6.612 -0.0180  0.1193  0.6974
  510MOL0     O68746   7.586   1.902   6.571 -0.2366 -0.8939  0.3066
  510MOL0     C68747   7.631   1.997   6.487 -0.3161 -0.6118 -0.5382
  510MOL0     C68748   7.641   1.967   6.351  0.0109 -0.3441 -0.0714
  510MOL0     C68749   7.696   2.056   6.261 -0.4895 -0.7746 -0.3309
  510MOL0     C68750   7.725   2.188   6.306 -0.0404 -0.3654  0.0239
  510MOL0     O68751   7.775   2.277   6.206  0.2142  0.2926 -0.4970
  510MOL0     C68752   7.730   2.420   6.214  0.1152 -0.4494 -0.0092
  510MOL0     C68753   7.776   2.509   6.097  0.3502  1.4938  0.7186
  510MOL0     C68754   7.699   2.633   6.084  0.1163  0.4066 -0.7094
  510MOL0     C68755   7.751   2.711   5.963 -1.4913  0.2246  0.7652
  510MOL0     C68756   7.684   2.844   5.937 -0.6895 -0.3462 -0.8934
  510MOL0     C68757   7.739   2.957   6.034 -0.3708  1.0798 -0.3398
  510MOL0     C68758   7.855   3.031   5.973  0.2780  0.1306 -0.7470
  510MOL0     C68759   7.900   3.121   6.087  0.4094  0.4332  0.1191
  510MOL0    Cl68760   7.794   3.254   6.115  0.4680 -0.4492  0.6724
  510MOL0     C68761   7.702   2.225   6.441 -0.5300  0.0371 -0.1687
  510MOL0     C68762   7.653   2.129   6.527  0.1813  0.2677  0.4471
  510MOL0     O68763   7.373   1.977   6.566 -0.3676  0.2507  0.3781
  510MOL0     C68764   7.497   1.726   6.754 -0.8441 -0.7448 -1.1825
  510MOL0     C68765   7.473   1.640   6.857 -0.0456 -0.5007  0.3739
  510MOL0     N68766   6.980   1.374   7.585  0.0066 -0.1181  0.5424
  510MOL0     N68767   6.879   1.420   7.644 -0.6701 -0.0311  0.3651
  510MOL0     C68768   7.021   2.670   7.295 -0.7723 -0.2634  0.0994
  510MOL0     C68769   7.058   2.796   7.258  0.2469 -1.0656  0.0403
  510MOL0     C68770   7.215   3.157   7.079 -0.1655 -0.3034  0.3782
  510MOL0     C68771   7.300   3.254   7.139 -0.0112 -0.1908 -0.7113
  510MOL0     C68772   7.321   3.384   7.073 -0.8758  0.5388 -0.0257
  510MOL0     C68773   7.256   3.409   6.949  0.2713  0.4119  0.9076
  510MOL0     O68774   7.282   3.530   6.890 -0.7107  0.0046  0.3810
  510MOL0     C68775   7.205   3.580   6.789  0.9272 -0.5086 -0.3922
  510MOL0     C68776   7.262   3.532   6.653  0.6026 -0.2845 -0.6906
  510MOL0     C68777   7.390   3.609   6.612 -0.4768 -1.2157  0.5626
  510MOL0     C68778   7.425   3.612   6.458  0.2129  1.1923 -0.4087
  510MOL0     C68779   7.569   3.617   6.435 -0.3656 -0.3185 -0.1103
  510MOL0     C68780   7.688   3.635   6.403 -1.0428  0.8450 -1.0515
  510MOL0     C68781   7.160   3.319   6.902 -1.0364 -0.2625  0.9384
  510MOL0     C68782   7.138   3.201   6.969 -0.1058 -0.6836 -1.6074
  510MOL0     H68783   7.192   2.721   6.961  0.3840  0.9597  1.5292
  510MOL0     H68784   7.123   2.487   7.035  1.2458 -0.2951  0.5611
  510MOL0     H68785   7.035   2.410   7.460  0.7142  0.8408  0.1597
  510MOL0     H68786   6.865   2.433   7.388 -1.2501 -1.2680 -0.4641
  510MOL0     H68787   6.923   2.212   7.268 -0.8227  1.1430  0.8122
  510MOL0     H68788   7.033   2.172   7.395 -0.1331 -0.8345 -1.9433
  510MOL0     H68789   6.848   2.196   7.553 -0.1832  1.0285 -0.2762
  510MOL0     H68790   6.746   2.232   7.426  0.5109  1.4221  2.7218
  510MOL0     H68791   6.760   2.012   7.321  0.6860  2.2934 -0.3676
  510MOL0     H68792   6.904   1.967   7.399  2.1423  3.2481 -0.6271
  510MOL0     H68793   6.755   1.979   7.636  0.5619 -0.5684  0.0707
  510MOL0     H68794   6.623   1.967   7.520 -1.0603  2.2706  3.8756
  510MOL0     H68795   6.697   1.765   7.435 -1.2843 -1.5220  1.3042
  510MOL0     H68796   6.856   1.774   7.516 -0.0642 -0.7155 -1.3674
  510MOL0     H68797   6.742   1.718   7.735 -1.1077 -0.3865  0.4012
  510MOL0     H68798   6.583   1.738   7.676 -0.2033  1.7880 -0.5736
  510MOL0     H68799   6.606   1.554   7.515  0.0213 -1.1780  1.1679
  510MOL0     H68800   6.620   1.494   7.683 -1.6247  2.1713  1.0026
  510MOL0     H68801   6.831   1.516   7.343  3.1729 -1.3929 -0.2762
  510MOL0     H68802   7.129   1.286   7.382  2.2700 -0.5737 -2.3608
  510MOL0     H68803   6.994   1.255   7.287  3.6787 -2.2111  0.3911
  510MOL0     H68804   7.134   1.530   7.283  1.1048 -2.4506  2.5393
  510MOL0     H68805   6.996   1.468   7.181  0.0162  1.7081  0.8436
  510MOL0     H68806   7.165   1.287   7.113  3.6802 -0.9890 -1.1936
  510MOL0     H68807   7.291   1.386   7.189  0.6648 -0.1945 -1.5796
  510MOL0     H68808   7.181   1.595   7.075 -0.7695 -0.5946 -0.0195
  510MOL0     H68809   7.110   1.463   6.973 -0.5248 -5.1159  2.8988
  510MOL0     H68810   7.148   1.607   6.806 -0.0152  0.6771 -2.3455
  510MOL0     H68811   7.063   1.726   6.631  0.4263  2.0073  1.0774
  510MOL0     H68812   7.124   1.887   6.630 -1.8828  0.4749 -1.9060
  510MOL0     H68813   7.191   1.771   6.504  1.9123 -3.5266  0.1401
  510MOL0     H68814   7.612   1.867   6.321 -2.1575  0.0500  0.5713
  510MOL0     H68815   7.725   2.022   6.162 -0.0700 -0.4841 -0.3109
  510MOL0     H68816   7.621   2.419   6.221 -0.0691 -2.9103 -2.1485
  510MOL0     H68817   7.767   2.457   6.311  0.4065 -1.9061  0.4512
  510MOL0     H68818   7.881   2.533   6.115  0.0660  2.4103  1.2350
  510MOL0     H68819   7.779   2.445   6.008  3.5662  2.1135  0.2622
  510MOL0     H68820   7.712   2.692   6.175 -1.0560 -0.2806 -0.0763
  510MOL0     H68821   7.594   2.613   6.059  0.8000 -1.0840 -2.6249
  510MOL0     H68822   7.859   2.723   5.979 -0.9310 -3.0775  0.2168
  510MOL0     H68823   7.732   2.651   5.873  0.8537  1.2278 -0.4950
  510MOL0     H68824   7.576   2.831   5.950 -1.2289  1.1236 -3.2560
  510MOL0     H68825   7.701   2.873   5.833  2.2341  2.5974  0.2114
  510MOL0     H68826   7.659   3.030   6.049 -0.3815  0.9319  0.3316
  510MOL0     H68827   7.768   2.903   6.124 -1.6960  0.9624  0.0430
  510MOL0     H68828   7.823   3.089   5.886 -1.2964 -0.8513 -0.8507
  510MOL0     H68829   7.930   2.963   5.932 -0.7383 -1.8489  0.5504
  510MOL0     H68830   8.001   3.160   6.070  1.2664 -1.3469  0.8318
  510MOL0     H68831   7.899   3.063   6.179  0.0498  0.7491  0.3178
  510MOL0     H68832   7.724   2.321   6.487 -0.0156 -0.9029  1.6577
  510MOL0     H68833   7.636   2.145   6.633 -2.8257  2.8004 -0.2416
  510MOL0     H68834   7.596   1.772   6.754 -0.8387 -0.5219  2.4002
  510MOL0     H68835   7.560   1.609   6.914  0.9017  0.2751 -0.5899
  510MOL0     H68836   6.982   2.660   7.396 -3.2466  3.2744 -0.3049
  510MOL0     H68837   7.045   2.886   7.317 -0.2071 -0.1196 -1.4462
  510MOL0     H68838   7.348   3.251   7.237  2.6458  0.0243 -1.9258
  510MOL0     H68839   7.389   3.455   7.118  0.1793 -0.9173  0.7696
  510MOL0     H68840   7.104   3.541   6.802 -0.0690  1.0303 -2.8549
  510MOL0     H68841   7.194   3.689   6.793 -3.9990 -0.8271  1.7688
  510MOL0     H68842   7.190   3.564   6.578  0.3255  2.9258  0.7932
  510MOL0     H68843   7.288   3.426   6.655  1.9574  0.0054  2.0206
  510MOL0     H68844   7.473   3.560   6.663 -1.7613 -1.2641  2.7399
  510MOL0     H68845   7.391   3.713   6.645 -3.0193 -0.0895 -2.4159
  510MOL0     H68846   7.377   3.701   6.417 -2.8956  1.0903  2.4983
  510MOL0     H68847   7.390   3.523   6.405 -2.3642  2.0161 -0.2726
  510MOL0     H68848   7.793   3.655   6.393  0.0875 -1.8975  2.7950
  510MOL0     H68849   7.107   3.333   6.808  1.5474 -0.7974 -0.7162
  510MOL0     H68850   7.078   3.128   6.916 -3.0561  1.7741 -1.8792
  511MOL0     O68851   9.771   7.687   5.570  0.4721 -0.0070  0.8740
  511MOL0     C68852   9.672   7.685   5.497 -0.0912  0.4010 -0.3461
  511MOL0     O68853   9.595   7.580   5.479 -0.1007 -0.6301  0.8191
  511MOL0     C68854   9.624   7.463   5.539 -0.7617  1.9715 -0.1186
  511MOL0     C68855   9.742   7.385   5.507 -0.3736  0.0050  0.0009
  511MOL0     C68856   9.761   7.259   5.559  0.8998  0.6127  0.0833
  511MOL0     C68857   9.666   7.210   5.648  0.3150 -0.7268  0.1257
  511MOL0     O68858   9.697   7.095   5.716  0.2320 -0.2595  0.0998
  511MOL0     C68859   9.682   6.973   5.639  1.1721 -0.1659 -0.2395
  511MOL0     C68860   9.612   6.867   5.724 -0.2009  0.5170 -0.0075
  511MOL0     C68861   9.457   6.899   5.726 -0.7892  0.0896 -0.0437
  511MOL0     C68862   9.372   6.800   5.812  0.1947  0.6750 -0.4548
  511MOL0     C68863   9.228   6.845   5.831 -0.3568 -0.1333 -0.7493
  511MOL0     C68864   9.160   6.719   5.876  0.0725 -0.1728  0.4195
  511MOL0     C68865   9.007   6.733   5.894 -0.2504  0.2253 -0.2484
  511MOL0     C68866   8.930   6.612   5.858  0.0385  0.1022 -0.7465
  511MOL0     N68867   8.964   6.536   5.738 -0.1129 -0.8685  0.0836
  511MOL0     C68868   9.007   6.406   5.745  0.7981 -1.0262 -0.5818
  511MOL0     C68869   9.012   6.369   5.615 -0.0429 -0.3201 -0.7334
  511MOL0     C68870   9.105   6.261   5.572  0.0546 -0.6455  0.2160
  511MOL0     C68871   9.041   6.179   5.461 -1.0545  0.0374 -0.8378
  511MOL0     C68872   9.125   6.073   5.392  0.3011  0.6520  0.0248
  511MOL0     C68873   9.121   5.941   5.473  0.1016  0.1400  0.3847
  511MOL0     O68874   9.122   5.943   5.617  0.1791 -0.3762  0.3267
  511MOL0     C68875   9.053   5.855   5.691  0.5584  0.0810 -0.3175
  511MOL0     C68876   9.027   5.715   5.658 -0.3775 -1.2775  0.3389
  511MOL0     C68877   8.971   5.624   5.748  0.6750 -0.3691  0.0314
  511MOL0     C68878   8.959   5.473   5.700  0.0013 -0.2002  0.4398
  511MOL0     C68879   8.929   5.670   5.879 -0.6421 -1.0194  0.2200
  511MOL0     C68880   8.865   5.579   5.985 -0.0635  0.4542  0.5762
  511MOL0     O68881   8.781   5.622   6.075 -0.3911  0.8275 -0.0985
  511MOL0     C68882   8.664   5.690   6.061 -0.0744  0.1784  0.3706
  511MOL0     C68883   8.602   5.750   6.172  0.9283  0.1729  0.5166
  511MOL0     C68884   8.478   5.816   6.160 -0.9426 -0.1867 -0.1160
  511MOL0     C68885   8.414   5.837   6.033  0.4330  0.1599  0.4652
  511MOL0     O68886   8.285   5.898   6.029  0.6183  0.4100  0.5617
  511MOL0     C68887   8.236   5.961   5.915 -0.4374  0.2380  0.4437
  511MOL0     C68888   8.295   6.104   5.903 -0.0145 -0.9109  0.5726
  511MOL0     C68889   8.204   6.210   5.836  0.1662 -0.3458  0.3929
  511MOL0     C68890   8.253   6.238   5.698 -0.7120 -0.5587 -0.0583
  511MOL0     C68891   8.177   6.352   5.636  0.4405 -0.8530  0.9371
  511MOL0     C68892   8.234   6.385   5.494 -0.0240 -0.3116 -0.0776
  511MOL0     C68893   8.368   6.460   5.503  0.3270 -0.5741  0.7981
  511MOL0     C68894   8.473   6.391   5.418 -0.2568 -0.6539 -0.0031
  511MOL0    Cl68895   8.634   6.458   5.453 -0.1542  0.1130 -0.2857
  511MOL0     C68896   8.473   5.780   5.919 -0.9998  0.5954  0.0489
  511MOL0     C68897   8.594   5.706   5.932 -0.1354  0.2968 -0.8495
  511MOL0     O68898   8.925   5.477   5.993  0.1108  0.1752  0.5322
  511MOL0     C68899   8.944   5.810   5.905 -0.3337 -0.3900  0.1285
  511MOL0     C68900   9.009   5.898   5.816  0.0436 -0.8058  1.6359
  511MOL0     N68901   8.972   6.471   5.529  0.4337 -0.5273  0.0762
  511MOL0     N68902   8.948   6.568   5.608 -0.3871  0.2923  0.6415
  511MOL0     C68903   9.554   7.288   5.694  0.5147  0.2279  0.2417
  511MOL0     C68904   9.533   7.416   5.637  0.6056  0.2218 -0.3386
  511MOL0     C68905   9.658   7.798   5.406  0.0696  0.2882 -0.0272
  511MOL0     C68906   9.766   7.878   5.389 -0.3264  0.4757  0.5099
  511MOL0     C68907   9.752   7.996   5.307  0.4053  1.2246  0.6236
  511MOL0     C68908   9.637   8.010   5.219  0.1087 -0.3954 -0.9917
  511MOL0     O68909   9.650   8.113   5.118  0.0582 -0.1417  0.1067
  511MOL0     C68910   9.575   8.118   4.993 -0.2355  0.1402 -0.6790
  511MOL0     C68911   9.638   8.208   4.886  0.4642  0.2829  0.2558
  511MOL0     C68912   9.664   8.355   4.925 -0.8753 -0.1632  0.1641
  511MOL0     C68913   9.761   8.431   4.825  0.1502  0.6033  0.0382
  511MOL0     C68914   9.750   8.572   4.844  0.8407  1.2764 -0.5141
  511MOL0     C68915   9.753   8.696   4.861  0.4354  0.3182  0.6787
  511MOL0     C68916   9.534   7.915   5.222 -0.2191  0.6546 -0.4656
  511MOL0     C68917   9.543   7.814   5.320 -0.7468 -0.4283 -0.3705
  511MOL0     H68918   9.823   7.428   5.449  0.9092 -0.1362  1.6159
  511MOL0     H68919   9.851   7.200   5.543  0.1813 -0.4523 -0.1155
  511MOL0     H68920   9.609   6.993   5.559 -0.4461  1.1384  1.4633
  511MOL0     H68921   9.777   6.942   5.594  1.3478 -1.4097  0.9121
  511MOL0     H68922   9.622   6.769   5.677 -2.0925  0.0134  0.5671
  511MOL0     H68923   9.663   6.876   5.821  0.0185  2.1041 -0.2565
  511MOL0     H68924   9.465   6.995   5.778  1.8053 -2.1281  4.3021
  511MOL0     H68925   9.410   6.904   5.628  2.4892 -0.4524 -1.7726
  511MOL0     H68926   9.374   6.704   5.759  0.1549  1.7800 -2.5278
  511MOL0     H68927   9.419   6.786   5.910 -1.7719  0.9892  0.5807
  511MOL0     H68928   9.220   6.922   5.909 -5.6445  1.8033 -2.7318
  511MOL0     H68929   9.190   6.883   5.735  0.1885  0.8245 -0.6014
  511MOL0     H68930   9.186   6.635   5.811  1.3665  1.8717 -1.8707
  511MOL0     H68931   9.206   6.704   5.974 -3.3570 -0.0831  2.1906
  511MOL0     H68932   8.985   6.764   5.997  2.7092  2.9965 -0.2999
  511MOL0     H68933   8.976   6.812   5.826  0.9281  0.8628 -0.0690
  511MOL0     H68934   8.826   6.645   5.854  0.7321  2.3586 -2.3351
  511MOL0     H68935   8.942   6.554   5.949 -4.1968  1.1014  0.6684
  511MOL0     H68936   9.029   6.345   5.832  1.8640 -0.3590 -0.3612
  511MOL0     H68937   9.190   6.323   5.542 -0.3392 -1.1617 -2.0931
  511MOL0     H68938   9.148   6.208   5.658  2.7609 -0.7595 -1.1155
  511MOL0     H68939   9.009   6.256   5.391 -2.2283 -1.3293 -1.8480
  511MOL0     H68940   8.957   6.128   5.507  0.7378 -0.9353  1.5727
  511MOL0     H68941   9.226   6.114   5.395 -0.0851  1.5996  3.4678
  511MOL0     H68942   9.097   6.050   5.288 -1.3201 -0.1341  0.6051
  511MOL0     H68943   9.207   5.882   5.440 -0.9168 -0.4396 -1.3824
  511MOL0     H68944   9.030   5.888   5.443  0.6269 -1.3003  1.2345
  511MOL0     H68945   9.040   5.683   5.555 -1.5822 -1.9519  0.3795
  511MOL0     H68946   8.994   5.396   5.770  2.1317  1.7257  1.6668
  511MOL0     H68947   8.852   5.459   5.684  0.2725 -0.8971 -0.9126
  511MOL0     H68948   9.012   5.462   5.605 -0.6843  0.1221  0.0173
  511MOL0     H68949   8.653   5.737   6.267  3.2910 -0.1578 -0.7241
  511MOL0     H68950   8.446   5.866   6.251  0.0859 -0.6623  0.5287
  511MOL0     H68951   8.247   5.890   5.832  0.7223  1.3693 -0.4156
  511MOL0     H68952   8.127   5.968   5.922 -0.6245 -2.8009  2.6316
  511MOL0     H68953   8.309   6.149   6.002 -1.4882  1.3326 -0.1386
  511MOL0     H68954   8.398   6.103   5.865  0.3281  0.4114  1.3976
  511MOL0     H68955   8.201   6.302   5.896 -0.7192  0.4550 -0.8280
  511MOL0     H68956   8.104   6.167   5.830 -0.7779  1.6216  0.9465
  511MOL0     H68957   8.352   6.284   5.705 -1.6269  1.3242  2.1500
  511MOL0     H68958   8.259   6.158   5.624 -1.0622  0.0983 -0.8036
  511MOL0     H68959   8.190   6.437   5.703  0.0329  0.5457 -0.6849
  511MOL0     H68960   8.070   6.326   5.629  0.5844 -1.1993 -0.2860
  511MOL0     H68961   8.252   6.286   5.451 -1.6296 -0.8166  0.3580
  511MOL0     H68962   8.164   6.449   5.440 -0.1328  2.5171  3.0230
  511MOL0     H68963   8.403   6.463   5.607  4.0429  1.5731 -0.3265
  511MOL0     H68964   8.355   6.561   5.462  1.8372 -1.0612 -1.0076
  511MOL0     H68965   8.444   6.398   5.313 -3.7752 -1.6726  0.7689
  511MOL0     H68966   8.471   6.289   5.459  3.0929 -0.0878  1.9171
  511MOL0     H68967   8.425   5.776   5.821  2.1902  1.5642 -1.6730
  511MOL0     H68968   8.639   5.669   5.841  1.1318  0.9778 -0.5172
  511MOL0     H68969   8.913   5.843   6.004  0.5978 -3.2285  1.5091
  511MOL0     H68970   9.014   6.003   5.844  1.3826 -0.7329  1.2083
  511MOL0     H68971   9.485   7.252   5.770  2.6799 -1.1927  1.6376
  511MOL0     H68972   9.443   7.472   5.663 -0.6662 -3.1293  3.4449
  511MOL0     H68973   9.865   7.872   5.432  0.2177  1.1698 -0.6229
  511MOL0     H68974   9.843   8.056   5.300 -0.3323  2.2171 -1.7005
  511MOL0     H68975   9.571   8.014   4.959 -2.5306 -1.1036  2.7629
  511MOL0     H68976   9.473   8.152   5.017  0.3901  1.5328  0.1062
  511MOL0     H68977   9.578   8.205   4.794  1.5503  1.0513 -0.4958
  511MOL0     H68978   9.730   8.163   4.846 -1.7572 -3.3760 -1.3481
  511MOL0     H68979   9.715   8.367   5.021  3.6037  1.7187 -2.1420
  511MOL0     H68980   9.569   8.410   4.926 -0.8753 -0.1496 -0.3268
  511MOL0     H68981   9.742   8.405   4.720  0.2763 -4.3222  0.9911
  511MOL0     H68982   9.859   8.390   4.853  0.0220  0.3443  0.1109
  511MOL0     H68983   9.761   8.800   4.883 -1.2000  0.8399 -0.9219
  511MOL0     H68984   9.455   7.935   5.149  1.5634 -1.1342 -3.0623
  511MOL0     H68985   9.458   7.748   5.338 -0.9928  0.0262  0.1685
  512MOL0     O68986   5.250   9.256   2.916 -0.2929 -0.3329  0.3122
  512MOL0     C68987   5.240   9.146   2.971 -0.0943 -0.4646  0.4500
  512MOL0     O68988   5.261   9.021   2.916  0.5601 -0.1254  0.1813
  512MOL0     C68989   5.284   8.991   2.781 -1.2172  0.1134  0.5549
  512MOL0     C68990   5.264   9.066   2.666  0.7011  0.3286 -0.6509
  512MOL0     C68991   5.281   9.004   2.545 -0.3334  0.8062  0.1146
  512MOL0     C68992   5.331   8.872   2.534 -0.5360  0.6652  0.0935
  512MOL0     O68993   5.331   8.791   2.417 -0.7675 -0.3099  0.2142
  512MOL0     C68994   5.257   8.831   2.301 -0.5376 -0.2077 -0.1467
  512MOL0     C68995   5.261   8.737   2.176  0.2530 -0.6819 -0.7990
  512MOL0     C68996   5.168   8.808   2.075  0.7914 -0.1995  0.0058
  512MOL0     C68997   5.176   8.710   1.952 -1.4996 -0.2991 -0.5340
  512MOL0     C68998   5.062   8.712   1.852 -0.8526  0.3155 -0.1650
  512MOL0     C68999   4.940   8.650   1.901  0.5290 -0.0057 -0.3960
  512MOL0     C69000   4.840   8.617   1.778 -0.5514  0.0701 -0.4202
  512MOL0     C69001   4.702   8.562   1.820 -1.3106 -0.1560 -1.4363
  512MOL0     N69002   4.597   8.580   1.723 -0.1754  0.9017  0.0940
  512MOL0     C69003   4.510   8.475   1.682  0.4572  0.3344 -0.0935
  512MOL0     C69004   4.402   8.537   1.617 -0.6808  0.0909  0.0153
  512MOL0     C69005   4.291   8.457   1.552  0.0731 -0.3088 -0.0257
  512MOL0     C69006   4.201   8.390   1.650  0.0751 -0.0005 -0.7190
  512MOL0     C69007   4.150   8.251   1.596  0.1775  1.2120 -0.9214
  512MOL0     C69008   4.074   8.176   1.710  0.8377  0.2179 -0.7289
  512MOL0     O69009   3.986   8.268   1.781 -0.0792  0.1876  0.1291
  512MOL0     C69010   3.855   8.236   1.765  0.0220 -0.1941  0.0796
  512MOL0     C69011   3.795   8.194   1.648  0.0851 -0.2009 -0.4679
  512MOL0     C69012   3.659   8.178   1.650 -0.7729  0.3283 -0.6690
  512MOL0     C69013   3.611   8.147   1.504  0.1913  0.4803 -0.8435
  512MOL0     C69014   3.571   8.192   1.764  0.5221  0.1779 -0.9156
  512MOL0     C69015   3.423   8.152   1.778  0.1772 -0.0467 -0.7160
  512MOL0     O69016   3.366   8.169   1.899  0.0522  0.0154 -0.4775
  512MOL0     C69017   3.226   8.172   1.915 -0.0397 -0.3249 -0.0135
  512MOL0     C69018   3.166   8.137   2.037  1.0571 -0.1060 -0.1196
  512MOL0     C69019   3.030   8.140   2.061  0.7632  0.1580 -0.3166
  512MOL0     C69020   2.945   8.186   1.960  0.7020 -0.0999 -0.3987
  512MOL0     O69021   2.809   8.189   1.981  0.1973 -0.1540 -0.7518
  512MOL0     C69022   2.751   8.320   1.995 -0.5596 -0.1972 -0.0264
  512MOL0     C69023   2.774   8.392   2.129 -0.7764  1.2151  0.4599
  512MOL0     C69024   2.724   8.313   2.258  0.2981  0.0318  0.9571
  512MOL0     C69025   2.757   8.393   2.378  0.8781  0.7543 -0.0423
  512MOL0     C69026   2.902   8.376   2.406 -0.8692 -0.0901 -0.3334
  512MOL0     C69027   2.945   8.467   2.525 -0.7004  0.1560 -0.0126
  512MOL0     C69028   3.081   8.416   2.580 -0.4342  0.4122  0.1796
  512MOL0     C69029   3.168   8.524   2.655  0.0204 -0.8718 -0.3020
  512MOL0    Cl69030   3.090   8.556   2.825  0.0792  0.1805  0.1200
  512MOL0     C69031   3.000   8.240   1.848 -0.5828 -0.2548  0.0230
  512MOL0     C69032   3.137   8.240   1.830  0.5646 -0.6346 -0.0001
  512MOL0     O69033   3.367   8.088   1.686  0.5704 -0.1341 -0.1676
  512MOL0     C69034   3.634   8.247   1.880  0.8113 -0.0121  0.7744
  512MOL0     C69035   3.772   8.267   1.883 -0.1413 -1.1057  0.0820
  512MOL0     N69036   4.422   8.667   1.612 -0.1188  0.2909  0.1865
  512MOL0     N69037   4.537   8.695   1.676 -1.0817 -0.8181  0.2599
  512MOL0     C69038   5.373   8.800   2.649 -0.0225 -0.0695 -0.0423
  512MOL0     C69039   5.340   8.855   2.776  0.2159  0.7284  1.5632
  512MOL0     C69040   5.162   9.138   3.100 -0.4492 -0.3869  0.0152
  512MOL0     C69041   5.089   9.018   3.129  0.4316  0.7876 -0.2688
  512MOL0     C69042   5.015   9.012   3.242 -0.4139  0.2175  0.1083
  512MOL0     C69043   5.007   9.107   3.339 -0.5598  0.6835 -0.0036
  512MOL0     O69044   4.935   9.071   3.454  0.1719 -0.1283  0.9907
  512MOL0     C69045   4.924   9.174   3.558  0.1138  0.4805  0.1296
  512MOL0     C69046   4.831   9.112   3.659 -0.2775  1.0879 -0.0959
  512MOL0     C69047   4.756   9.199   3.757 -0.5665 -0.1123 -0.5409
  512MOL0     C69048   4.605   9.217   3.714 -1.0325  0.2512 -0.8144
  512MOL0     C69049   4.606   9.301   3.597  0.7566 -0.4186 -0.4450
  512MOL0     C69050   4.606   9.362   3.493  0.0404 -0.6842  0.0034
  512MOL0     C69051   5.083   9.228   3.320  0.0270  0.1437  0.6229
  512MOL0     C69052   5.158   9.244   3.200  0.4384  0.4802  0.3241
  512MOL0     H69053   5.209   9.159   2.670 -0.5584 -0.3851 -0.7496
  512MOL0     H69054   5.249   9.053   2.453  0.0069 -0.4824 -0.7071
  512MOL0     H69055   5.161   8.873   2.332  0.3120  3.9934 -2.3941
  512MOL0     H69056   5.297   8.927   2.266 -1.6176  0.8653  1.4236
  512MOL0     H69057   5.364   8.718   2.144  0.6189 -1.7683  0.8491
  512MOL0     H69058   5.227   8.637   2.205 -1.5749  0.6098  1.9869
  512MOL0     H69059   5.067   8.804   2.116  1.5828 -0.4334  2.0452
  512MOL0     H69060   5.193   8.911   2.046  0.1116 -0.2994 -0.9587
  512MOL0     H69061   5.262   8.744   1.892 -0.5309  1.3169  1.6260
  512MOL0     H69062   5.175   8.609   1.993 -0.6008  0.4574  1.5207
  512MOL0     H69063   5.028   8.814   1.834 -0.8182  0.1856 -0.9939
  512MOL0     H69064   5.094   8.677   1.753  0.3912  1.6313 -0.2607
  512MOL0     H69065   4.960   8.553   1.949 -0.2898 -0.6308 -1.2728
  512MOL0     H69066   4.897   8.716   1.977 -0.8079  0.1453 -1.2481
  512MOL0     H69067   4.827   8.710   1.722  0.9086  0.9456  0.6361
  512MOL0     H69068   4.885   8.545   1.709 -0.6068  0.1172 -0.5051
  512MOL0     H69069   4.664   8.619   1.905 -0.5711 -0.1224 -1.1206
  512MOL0     H69070   4.711   8.459   1.856 -0.4917  0.3925 -0.0149
  512MOL0     H69071   4.532   8.371   1.700 -2.0809 -0.3723 -0.7541
  512MOL0     H69072   4.234   8.532   1.496  0.6558 -0.3984 -0.7526
  512MOL0     H69073   4.335   8.401   1.469  0.0175  0.6107 -0.6930
  512MOL0     H69074   4.129   8.469   1.670  2.1150  1.7234  0.1665
  512MOL0     H69075   4.258   8.377   1.742 -1.6349 -0.4772  0.3218
  512MOL0     H69076   4.227   8.178   1.570 -0.7869 -0.2267  0.0834
  512MOL0     H69077   4.088   8.255   1.506  0.7489 -0.6115 -1.4462
  512MOL0     H69078   4.156   8.143   1.776 -2.7534 -0.1646  4.1048
  512MOL0     H69079   4.022   8.094   1.661  1.6336 -0.0596 -1.1171
  512MOL0     H69080   3.863   8.178   1.565  1.7845  0.5764  0.7236
  512MOL0     H69081   3.676   8.071   1.458 -2.1048 -1.7996 -0.5942
  512MOL0     H69082   3.514   8.098   1.491  1.4764 -2.5887  0.1308
  512MOL0     H69083   3.596   8.238   1.446 -1.5225  1.6230  1.2539
  512MOL0     H69084   3.231   8.092   2.111  1.6111 -0.0039 -0.5334
  512MOL0     H69085   3.003   8.110   2.161  1.5320  0.2097 -0.0874
  512MOL0     H69086   2.793   8.380   1.913 -1.9079  0.8419 -0.0037
  512MOL0     H69087   2.642   8.312   1.981 -0.5833 -0.8945  0.4914
  512MOL0     H69088   2.881   8.411   2.141 -0.6895  0.5362  0.8143
  512MOL0     H69089   2.714   8.482   2.112 -0.1587  1.5907  0.2366
  512MOL0     H69090   2.768   8.213   2.256 -1.8556 -1.0258  2.4020
  512MOL0     H69091   2.618   8.286   2.251  0.0772  1.0483  0.1513
  512MOL0     H69092   2.722   8.496   2.368  2.1399  1.5020  2.4170
  512MOL0     H69093   2.697   8.352   2.460  0.9607  1.5074  0.4049
  512MOL0     H69094   2.963   8.412   2.322 -2.7703  2.1727 -0.8392
  512MOL0     H69095   2.927   8.271   2.426 -2.3529  0.1120  3.2221
  512MOL0     H69096   2.948   8.570   2.490 -1.6923  0.2336  0.1246
  512MOL0     H69097   2.870   8.466   2.604  0.9528  1.4236  1.6793
  512MOL0     H69098   3.147   8.378   2.502 -1.0967 -1.2422  0.3730
  512MOL0     H69099   3.068   8.326   2.640  0.6982  1.1534  1.6045
  512MOL0     H69100   3.173   8.611   2.590  0.2690 -0.2090  0.5811
  512MOL0     H69101   3.273   8.496   2.671  0.6702  1.5173  0.0206
  512MOL0     H69102   2.940   8.306   1.785  1.8997  1.9655 -0.1798
  512MOL0     H69103   3.173   8.305   1.751 -1.8793  0.0408 -0.6335
  512MOL0     H69104   3.579   8.259   1.973  0.1071  1.2689  0.2237
  512MOL0     H69105   3.809   8.326   1.967 -0.3758  3.3978 -2.6288
  512MOL0     H69106   5.403   8.696   2.637 -2.2373 -0.6227 -1.3271
  512MOL0     H69107   5.351   8.804   2.871  2.2870  1.3758  1.7079
  512MOL0     H69108   5.085   8.932   3.063  1.7630 -0.8607  1.6541
  512MOL0     H69109   4.979   8.912   3.265  1.8503 -0.6162  0.2283
  512MOL0     H69110   5.022   9.194   3.603  0.1346 -1.3556  0.9705
  512MOL0     H69111   4.873   9.259   3.511  1.4547 -0.2274 -2.8301
  512MOL0     H69112   4.898   9.047   3.717  0.8943  0.2163 -2.3087
  512MOL0     H69113   4.753   9.059   3.604 -0.8555  2.7377 -0.9029
  512MOL0     H69114   4.795   9.301   3.749  0.8428 -0.5740 -0.0067
  512MOL0     H69115   4.757   9.149   3.854 -1.2397 -1.3129 -1.1458
  512MOL0     H69116   4.551   9.267   3.794 -0.3152 -0.1246 -0.0871
  512MOL0     H69117   4.558   9.124   3.680 -0.6973  0.7741 -2.8495
  512MOL0     H69118   4.612   9.424   3.406 -1.1666  0.2249  0.5382
  512MOL0     H69119   5.083   9.310   3.391  2.8079 -1.9469  3.3193
  512MOL0     H69120   5.213   9.337   3.196 -0.3809  0.9520 -2.5398
  513MOL0     O69121   3.991   4.974  10.912 -0.3016 -0.1008 -0.1412
  513MOL0     C69122   3.968   4.861  10.963  0.2395 -0.3295 -0.1351
  513MOL0     O69123   3.987   4.736  10.898 -0.4989 -0.4263  0.3445
  513MOL0     C69124   4.047   4.752  10.780 -0.3817 -0.5556  0.8154
  513MOL0     C69125   4.179   4.764  10.774  0.6644  0.0163  0.3022
  513MOL0     C69126   4.245   4.787  10.648  0.6596 -1.2012  0.0175
  513MOL0     C69127   4.177   4.806  10.524 -0.1753 -1.0231  0.0636
  513MOL0     O69128   4.254   4.837  10.408 -0.0852  0.1342 -0.4992
  513MOL0     C69129   4.203   4.912  10.296  0.1002  0.4087 -1.0042
  513MOL0     C69130   4.293   4.889  10.179  1.0210 -0.7474 -0.2199
  513MOL0     C69131   4.289   4.741  10.140 -0.7509  0.6753  0.6894
  513MOL0     C69132   4.374   4.728  10.013  0.8721 -0.3033  0.1455
  513MOL0     C69133   4.366   4.588   9.966 -0.7444 -0.7368 -0.1656
  513MOL0     C69134   4.453   4.571   9.846  0.3965 -0.2076 -0.0769
  513MOL0     C69135   4.431   4.432   9.776  0.2841  0.3064 -0.2506
  513MOL0     C69136   4.302   4.414   9.695 -0.4808  0.4787  0.1849
  513MOL0     N69137   4.282   4.301   9.594 -0.0417  0.6316 -0.1229
  513MOL0     C69138   4.170   4.285   9.513 -0.3436 -0.2870 -0.2148
  513MOL0     C69139   4.196   4.190   9.424 -0.9959  0.0444  0.3240
  513MOL0     C69140   4.101   4.137   9.324 -0.3808 -1.0210 -0.1854
  513MOL0     C69141   4.008   4.037   9.378  0.0416 -0.1410  0.1929
  513MOL0     C69142   3.875   4.012   9.309  0.4113  0.0809  0.4755
  513MOL0     C69143   3.770   4.100   9.367  0.4176  0.3465  0.3283
  513MOL0     O69144   3.813   4.234   9.407 -0.2749 -0.3141  0.1173
  513MOL0     C69145   3.721   4.320   9.463  0.0492 -0.6239  0.2193
  513MOL0     C69146   3.763   4.452   9.477 -0.1242 -0.0391 -0.0967
  513MOL0     C69147   3.679   4.547   9.533  0.4100 -0.2382  1.6260
  513MOL0     C69148   3.741   4.684   9.542  0.5921 -0.1226  0.3611
  513MOL0     C69149   3.546   4.510   9.587  0.2607 -1.1889  0.4634
  513MOL0     C69150   3.459   4.600   9.646 -0.0127  0.1844 -0.2456
  513MOL0     O69151   3.350   4.545   9.702  0.0681  0.2575 -0.2377
  513MOL0     C69152   3.251   4.629   9.759 -0.7392 -1.2391  0.4573
  513MOL0     C69153   3.120   4.627   9.718 -0.2844 -0.0178  0.0253
  513MOL0     C69154   3.019   4.678   9.790  0.2360 -0.1511 -0.4311
  513MOL0     C69155   3.042   4.747   9.907 -0.6941  0.1046 -0.0868
  513MOL0     O69156   2.934   4.793   9.973  0.6901  0.0319  0.1169
  513MOL0     C69157   2.920   4.724  10.090 -0.2873  0.5042  0.0450
  513MOL0     C69158   2.830   4.793  10.184 -0.5262  0.1040 -0.0408
  513MOL0     C69159   2.866   4.939  10.204  0.6490  0.0328 -0.3234
  513MOL0     C69160   2.804   4.994  10.336 -0.7664  0.0256  0.0074
  513MOL0     C69161   2.652   5.006  10.344  1.5643  0.2683 -0.9072
  513MOL0     C69162   2.595   5.021  10.491  0.0202 -0.7373  0.6019
  513MOL0     C69163   2.472   5.118  10.493  0.1732  0.6240  0.4934
  513MOL0     C69164   2.354   5.031  10.432 -0.7954 -0.0255  0.6497
  513MOL0    Cl69165   2.335   4.871  10.508  0.1379 -0.3215  0.2002
  513MOL0     C69166   3.175   4.753   9.959  0.3219 -0.2434  1.0430
  513MOL0     C69167   3.272   4.700   9.876 -0.4750 -1.3062 -0.6009
  513MOL0     O69168   3.477   4.717   9.636  0.0008 -0.2403  0.7673
  513MOL0     C69169   3.510   4.374   9.577  0.1555 -0.3013  0.1925
  513MOL0     C69170   3.592   4.277   9.500 -0.6326  0.2350 -1.0274
  513MOL0     N69171   4.323   4.137   9.466  0.2363 -0.8114  0.0777
  513MOL0     N69172   4.375   4.210   9.564  1.3652  0.8260 -0.5763
  513MOL0     C69173   4.041   4.767  10.536 -0.6288  0.8096  0.2850
  513MOL0     C69174   3.977   4.743  10.662 -0.2119  0.1796 -0.1755
  513MOL0     C69175   3.890   4.857  11.094  0.2689 -0.1890  0.1195
  513MOL0     C69176   3.876   4.735  11.160 -0.2000 -0.1951 -0.2356
  513MOL0     C69177   3.806   4.721  11.282  0.2912 -1.1382  0.4899
  513MOL0     C69178   3.737   4.831  11.341 -0.5774  0.4333  0.3283
  513MOL0     O69179   3.663   4.806  11.451  0.7789  1.1011 -1.1890
  513MOL0     C69180   3.656   4.909  11.545 -0.4575  0.2749  0.3050
  513MOL0     C69181   3.796   4.927  11.613 -0.4237  0.1784  0.4543
  513MOL0     C69182   3.829   4.801  11.701 -0.2612 -0.3308  0.2468
  513MOL0     C69183   3.944   4.827  11.803 -0.4395  0.0904  0.2988
  513MOL0     C69184   3.932   4.722  11.902  0.6293 -1.0812 -0.1197
  513MOL0     C69185   3.906   4.649  11.997  0.0564  0.1292  0.5461
  513MOL0     C69186   3.757   4.955  11.271  0.5316  0.1684  0.2758
  513MOL0     C69187   3.830   4.969  11.152  0.5230 -0.3630  0.4667
  513MOL0     H69188   4.223   4.762  10.873 -2.6836 -1.9524  1.9155
  513MOL0     H69189   4.352   4.799  10.641  1.0581 -2.2209  3.0201
  513MOL0     H69190   4.099   4.880  10.286 -0.2428  0.3218  1.9441
  513MOL0     H69191   4.220   5.017  10.321  0.3065  1.0456 -3.5217
  513MOL0     H69192   4.262   4.954  10.097  0.9331  0.3758  0.6711
  513MOL0     H69193   4.394   4.918  10.211  0.0038  5.1955 -1.1807
  513MOL0     H69194   4.325   4.681  10.224  0.8654  1.4363  0.5823
  513MOL0     H69195   4.186   4.707  10.128 -1.1039  1.1885  2.0645
  513MOL0     H69196   4.336   4.795   9.935 -1.1983  1.3558  2.4183
  513MOL0     H69197   4.475   4.754  10.043  0.2932  2.6540 -0.2159
  513MOL0     H69198   4.393   4.510  10.038 -0.9818  0.0873  0.8408
  513MOL0     H69199   4.264   4.568   9.934 -1.3847  2.2459 -0.2420
  513MOL0     H69200   4.432   4.647   9.771  0.0755 -3.1388 -3.2176
  513MOL0     H69201   4.561   4.578   9.865  0.4021  1.7781 -0.6150
  513MOL0     H69202   4.515   4.430   9.705  0.6097  1.3821  0.0850
  513MOL0     H69203   4.441   4.359   9.857 -1.1983 -0.0596 -0.3776
  513MOL0     H69204   4.298   4.505   9.635  1.9009 -0.8948 -2.3104
  513MOL0     H69205   4.217   4.410   9.764 -0.4046  0.3995  0.2740
  513MOL0     H69206   4.085   4.352   9.512 -1.5534 -1.7069  1.7043
  513MOL0     H69207   4.056   4.225   9.277  2.7017  1.4221  1.0921
  513MOL0     H69208   4.154   4.081   9.247 -1.0784 -1.3081 -0.4665
  513MOL0     H69209   3.989   4.066   9.482  1.4051  0.8601  0.1898
  513MOL0     H69210   4.065   3.944   9.384 -0.7149 -0.9078 -2.8082
  513MOL0     H69211   3.846   3.907   9.309 -0.7386  0.3740 -0.2224
  513MOL0     H69212   3.889   4.032   9.202  0.4093  0.2566  0.5068
  513MOL0     H69213   3.724   4.046   9.450  0.4502 -0.7855 -0.3716
  513MOL0     H69214   3.692   4.110   9.291  0.9170 -0.9699 -0.3937
  513MOL0     H69215   3.865   4.472   9.444 -0.1293 -1.8377 -1.3024
  513MOL0     H69216   3.846   4.665   9.516 -0.0866  0.0271 -3.0214
  513MOL0     H69217   3.702   4.756   9.469  0.5319 -2.2840 -1.8812
  513MOL0     H69218   3.736   4.718   9.646 -0.5461 -0.8059  0.5471
  513MOL0     H69219   3.110   4.588   9.617  2.2698  2.8820 -1.5270
  513MOL0     H69220   2.918   4.674   9.749 -1.0007 -2.4975  2.5138
  513MOL0     H69221   2.887   4.621  10.072  0.7923  0.2096 -0.3411
  513MOL0     H69222   3.012   4.708  10.148 -0.7660 -1.1773  0.4079
  513MOL0     H69223   2.734   4.804  10.133  1.9505 -2.0298 -6.1037
  513MOL0     H69224   2.824   4.739  10.278 -0.1681  1.9025  1.0712
  513MOL0     H69225   2.826   5.002  10.124 -1.8622  1.2362  1.7250
  513MOL0     H69226   2.976   4.943  10.209  0.6438  0.1729 -0.3153
  513MOL0     H69227   2.831   4.936  10.425 -0.8376 -0.1634 -0.0948
  513MOL0     H69228   2.841   5.097  10.331  1.2026 -0.6849 -0.8260
  513MOL0     H69229   2.604   4.914  10.308 -0.2568  0.1173  1.6714
  513MOL0     H69230   2.620   5.091  10.283  0.9220  1.2601  0.7576
  513MOL0     H69231   2.586   4.921  10.535  3.2750 -1.2873  0.2728
  513MOL0     H69232   2.677   5.067  10.547  0.1751 -1.2011  0.7602
  513MOL0     H69233   2.482   5.218  10.449 -1.4982 -0.3135 -2.3136
  513MOL0     H69234   2.450   5.123  10.600  1.2656  0.0881  0.7558
  513MOL0     H69235   2.353   5.024  10.323  0.6498  0.1116  0.6011
  513MOL0     H69236   2.273   5.102  10.453 -0.8476  0.5291 -1.2638
  513MOL0     H69237   3.197   4.803  10.053  1.0837 -0.1189  0.8070
  513MOL0     H69238   3.375   4.712   9.909 -0.6408  0.7841 -0.7473
  513MOL0     H69239   3.411   4.338   9.603 -0.4451  0.3111 -1.1423
  513MOL0     H69240   3.559   4.177   9.475 -0.2689  0.0151 -0.6423
  513MOL0     H69241   3.991   4.748  10.442  0.7851  0.2716 -0.3766
  513MOL0     H69242   3.871   4.722  10.665 -0.1046 -0.3475  0.0565
  513MOL0     H69243   3.917   4.649  11.107 -1.4898  0.3032 -2.1577
  513MOL0     H69244   3.780   4.635  11.342  1.3399 -1.7138  0.1345
  513MOL0     H69245   3.623   5.008  11.511 -0.6348  0.4109  0.8593
  513MOL0     H69246   3.579   4.891  11.621 -1.8845  3.0253 -0.3306
  513MOL0     H69247   3.803   5.016  11.677 -0.7367  1.3969 -1.1435
  513MOL0     H69248   3.864   4.955  11.533 -0.3805  0.6117  0.6406
  513MOL0     H69249   3.862   4.723  11.631  0.3297  1.2116 -1.2495
  513MOL0     H69250   3.739   4.768  11.753  2.3261 -3.7441  3.0653
  513MOL0     H69251   3.934   4.924  11.852 -4.6134  1.7357 -3.1972
  513MOL0     H69252   4.049   4.824  11.773  0.5392  1.7101  3.1181
  513MOL0     H69253   3.896   4.577  12.075  3.8954 -0.3749  0.7653
  513MOL0     H69254   3.701   5.038  11.312  1.0914  0.4747  0.4261
  513MOL0     H69255   3.844   5.058  11.092  0.5111 -0.7631 -0.1330
  514MOL0     O69256   6.921   8.906   7.496  0.0977 -0.0162  1.0712
  514MOL0     C69257   6.830   8.873   7.576 -0.4696 -0.1030  0.5935
  514MOL0     O69258   6.793   8.751   7.608  0.0643 -0.3669 -0.2031
  514MOL0     C69259   6.873   8.644   7.565 -0.2093 -0.2561 -0.6618
  514MOL0     C69260   6.897   8.624   7.427  0.4351 -0.7849 -0.7705
  514MOL0     C69261   6.991   8.528   7.392  0.0108  0.2833 -0.0926
  514MOL0     C69262   7.062   8.451   7.483  0.0841  0.2060 -0.1177
  514MOL0     O69263   7.148   8.356   7.443 -0.1919 -0.0402  0.6274
  514MOL0     C69264   7.256   8.407   7.364  0.0058  0.3294 -0.6429
  514MOL0     C69265   7.338   8.290   7.321  0.4796 -0.8551 -0.4375
  514MOL0     C69266   7.465   8.341   7.252 -0.0800  1.0914 -0.2067
  514MOL0     C69267   7.563   8.222   7.235 -0.1476 -0.1544 -0.2687
  514MOL0     C69268   7.691   8.270   7.162 -0.2119  0.1076  0.3404
  514MOL0     C69269   7.684   8.252   7.008  1.5618 -0.1595  0.0500
  514MOL0     C69270   7.710   8.106   6.974 -0.2675 -0.2553 -0.0537
  514MOL0     C69271   7.796   8.090   6.849 -0.1412 -0.7678  1.3405
  514MOL0     N69272   7.868   7.955   6.851  0.2282 -0.1801 -0.2322
  514MOL0     C69273   7.803   7.828   6.847 -0.0488  0.1123 -0.1577
  514MOL0     C69274   7.895   7.739   6.858 -0.4138 -0.3921 -0.2067
  514MOL0     C69275   7.871   7.587   6.866 -0.0975 -0.3172  0.8956
  514MOL0     C69276   7.791   7.525   6.990 -0.0079 -0.9448 -0.1358
  514MOL0     C69277   7.886   7.551   7.108 -0.6658  0.0659 -0.2111
  514MOL0     C69278   7.843   7.465   7.223 -0.2450  0.3089 -0.6671
  514MOL0     O69279   7.911   7.493   7.345 -0.3181 -0.1410 -0.1589
  514MOL0     C69280   7.868   7.434   7.463  1.4285 -0.1552  0.4311
  514MOL0     C69281   7.757   7.342   7.485 -0.6897  0.8267  0.8694
  514MOL0     C69282   7.730   7.292   7.611  0.3699 -0.0449 -0.7113
  514MOL0     C69283   7.609   7.208   7.632 -0.2117  0.9368 -0.9736
  514MOL0     C69284   7.809   7.330   7.719  0.2005 -0.3004 -0.8879
  514MOL0     C69285   7.783   7.283   7.861 -0.0948 -0.1675 -0.2609
  514MOL0     O69286   7.894   7.240   7.923  0.0579 -0.0998  0.4865
  514MOL0     C69287   7.865   7.173   8.041  0.5424 -0.0021 -0.4074
  514MOL0     C69288   7.936   7.192   8.156  0.5415 -0.8658  0.4577
  514MOL0     C69289   7.924   7.113   8.270 -1.7140  0.1846 -0.1437
  514MOL0     C69290   7.828   7.003   8.279 -0.0207  0.4571  0.5640
  514MOL0     O69291   7.801   6.918   8.385 -0.2831 -0.0937  0.6403
  514MOL0     C69292   7.850   6.947   8.512 -0.0572 -0.9156  0.1358
  514MOL0     C69293   7.778   7.063   8.571 -0.3064 -0.0612 -0.6573
  514MOL0     C69294   7.833   7.100   8.717  0.4390 -0.9301  0.0461
  514MOL0     C69295   7.729   7.185   8.784 -0.7753  0.6286 -0.9455
  514MOL0     C69296   7.764   7.214   8.931 -0.0830  0.4368  0.4588
  514MOL0     C69297   7.885   7.313   8.936  0.0996  0.5816 -0.4215
  514MOL0     C69298   7.935   7.346   9.079 -0.0229 -0.2259 -0.1765
  514MOL0     C69299   8.009   7.482   9.095  0.3998  0.4203  0.2311
  514MOL0    Cl69300   7.940   7.638   9.021 -0.0729 -0.4126 -0.5594
  514MOL0     C69301   7.758   6.981   8.158 -0.0848  0.2673 -0.2641
  514MOL0     C69302   7.788   7.057   8.039  0.1151 -0.2116  0.8662
  514MOL0     O69303   7.678   7.300   7.909  0.0908  0.5890 -0.3895
  514MOL0     C69304   7.916   7.418   7.697 -0.2812  0.3211 -0.3013
  514MOL0     C69305   7.948   7.471   7.574  0.4404  0.0943 -0.0829
  514MOL0     N69306   8.015   7.808   6.875 -1.0795  0.0536 -0.5057
  514MOL0     N69307   8.000   7.935   6.875  0.0986  0.2542 -0.9701
  514MOL0     C69308   7.010   8.456   7.619  0.2174 -0.3485  0.6582
  514MOL0     C69309   6.923   8.554   7.659 -0.7387 -0.7466 -0.3833
  514MOL0     C69310   6.732   8.984   7.617  0.5845 -0.3144 -0.3285
  514MOL0     C69311   6.654   8.983   7.733  0.5240 -0.2025  0.2752
  514MOL0     C69312   6.578   9.089   7.776  0.3289 -0.5225  1.5550
  514MOL0     C69313   6.574   9.203   7.708  1.0813 -1.2012  0.0095
  514MOL0     O69314   6.481   9.294   7.748 -0.4535  0.2102 -0.6991
  514MOL0     C69315   6.452   9.401   7.664  0.1884 -0.0190 -0.2904
  514MOL0     C69316   6.329   9.485   7.727  0.1539  0.1430  0.5810
  514MOL0     C69317   6.213   9.404   7.773  0.0005 -0.8745  0.0971
  514MOL0     C69318   6.090   9.498   7.791 -0.3632 -0.7986  0.2389
  514MOL0     C69319   5.988   9.462   7.891  0.6118  1.2292  0.7757
  514MOL0     C69320   5.896   9.418   7.962 -0.5570  0.2790  0.6243
  514MOL0     C69321   6.650   9.217   7.585  0.3851 -0.6132  0.6439
  514MOL0     C69322   6.729   9.112   7.541  1.0228  0.6837 -0.1042
  514MOL0     H69323   6.853   8.681   7.346  2.0232  0.0930 -1.0585
  514MOL0     H69324   7.009   8.515   7.286  4.5161 -1.2782  0.6516
  514MOL0     H69325   7.218   8.458   7.275  0.9784  0.1601 -1.1757
  514MOL0     H69326   7.313   8.483   7.419  1.8285 -1.0220 -0.5790
  514MOL0     H69327   7.375   8.229   7.405  1.1965 -0.4862 -0.4721
  514MOL0     H69328   7.286   8.225   7.251 -0.0340 -0.8849 -0.0340
  514MOL0     H69329   7.443   8.375   7.151 -1.5680 -0.4403 -0.4389
  514MOL0     H69330   7.508   8.417   7.318  0.4017 -1.4933  2.7332
  514MOL0     H69331   7.602   8.189   7.332  3.7902 -1.3341 -2.0477
  514MOL0     H69332   7.512   8.134   7.196  0.5090 -1.7068  2.1432
  514MOL0     H69333   7.700   8.377   7.186 -2.6771  0.3190  0.5583
  514MOL0     H69334   7.782   8.219   7.193 -0.4807 -0.5333  0.0805
  514MOL0     H69335   7.588   8.282   6.964  2.0367 -0.3221 -1.1496
  514MOL0     H69336   7.768   8.308   6.965  1.4325  1.8954  2.3062
  514MOL0     H69337   7.759   8.059   7.059  0.8154  0.6138 -0.1684
  514MOL0     H69338   7.614   8.056   6.957 -2.1707  2.9190  0.4299
  514MOL0     H69339   7.871   8.170   6.845 -0.3276 -0.5888  1.3880
  514MOL0     H69340   7.725   8.102   6.767 -0.9498  0.2528  2.1584
  514MOL0     H69341   7.701   7.792   6.841  0.6861 -2.4862  1.6125
  514MOL0     H69342   7.826   7.554   6.771  0.9167  0.2217  0.2013
  514MOL0     H69343   7.969   7.539   6.857  1.8441  3.4045  0.2398
  514MOL0     H69344   7.771   7.418   6.981 -1.6051 -0.9731  2.7217
  514MOL0     H69345   7.689   7.565   6.997  1.2316  2.2718  1.7120
  514MOL0     H69346   7.875   7.654   7.144 -0.7712 -0.5145  1.4882
  514MOL0     H69347   7.993   7.544   7.088  0.0404  1.7660  2.5078
  514MOL0     H69348   7.851   7.359   7.195 -3.9082 -0.0358 -0.8641
  514MOL0     H69349   7.738   7.487   7.241 -0.0198 -0.1654  1.4301
  514MOL0     H69350   7.711   7.299   7.397  0.3043 -0.9208  1.1579
  514MOL0     H69351   7.658   7.124   7.682 -1.2964  1.5445  1.2433
  514MOL0     H69352   7.540   7.254   7.703 -0.3895  2.8695 -2.3174
  514MOL0     H69353   7.549   7.180   7.545 -2.2674 -1.5346  1.0793
  514MOL0     H69354   8.007   7.274   8.160  2.1099 -2.2100  1.6346
  514MOL0     H69355   7.998   7.127   8.348  2.7133  0.8666 -4.0065
  514MOL0     H69356   7.836   6.854   8.566 -2.2958 -0.0094  1.2142
  514MOL0     H69357   7.957   6.970   8.516  0.2263 -1.6835 -1.8297
  514MOL0     H69358   7.793   7.154   8.513  1.8261 -1.0368 -1.7395
  514MOL0     H69359   7.670   7.045   8.583 -0.3425 -0.4971 -1.5512
  514MOL0     H69360   7.913   7.169   8.688 -0.5650  1.8027  3.1708
  514MOL0     H69361   7.859   7.012   8.776 -0.4847 -0.5644  1.0211
  514MOL0     H69362   7.716   7.280   8.730 -0.7315 -0.0855 -2.2715
  514MOL0     H69363   7.643   7.118   8.786  0.3258 -0.9171 -2.2821
  514MOL0     H69364   7.806   7.122   8.972 -1.9920 -0.7463 -0.1443
  514MOL0     H69365   7.677   7.254   8.982  0.2478  1.4267  0.2774
  514MOL0     H69366   7.978   7.270   8.895 -0.1625 -2.4753  1.8446
  514MOL0     H69367   7.866   7.401   8.875  1.3450  0.0520 -1.6396
  514MOL0     H69368   8.003   7.268   9.115  0.0669  0.0747  0.3262
  514MOL0     H69369   7.858   7.334   9.156 -1.6771  2.1293 -1.3390
  514MOL0     H69370   8.111   7.478   9.055 -0.1309  1.5812 -1.3536
  514MOL0     H69371   8.012   7.492   9.203 -3.4462 -2.9142  0.9136
  514MOL0     H69372   7.678   6.908   8.160  0.3871 -0.2667  1.6185
  514MOL0     H69373   7.734   7.033   7.948  2.0021 -0.8582 -0.1268
  514MOL0     H69374   7.971   7.440   7.788 -3.3430 -1.1058  2.0836
  514MOL0     H69375   8.042   7.523   7.558  1.7622 -1.9458  0.5878
  514MOL0     H69376   7.047   8.391   7.698 -0.7981 -2.6164 -0.6606
  514MOL0     H69377   6.912   8.562   7.767  1.7046  1.5832 -0.2150
  514MOL0     H69378   6.657   8.890   7.789  1.8033 -1.8131 -2.2844
  514MOL0     H69379   6.522   9.088   7.870 -1.4450  2.6379  0.6877
  514MOL0     H69380   6.537   9.469   7.649  2.2310 -2.3158  0.1691
  514MOL0     H69381   6.422   9.368   7.564 -1.8368  1.7527 -0.3321
  514MOL0     H69382   6.311   9.565   7.655 -0.1422 -0.6406 -0.2299
  514MOL0     H69383   6.375   9.536   7.813  1.3412 -1.0749  0.7079
  514MOL0     H69384   6.232   9.348   7.865  0.2527  1.6243  1.6483
  514MOL0     H69385   6.181   9.325   7.704  1.4076 -0.5263 -1.0136
  514MOL0     H69386   6.049   9.506   7.689  1.4315  0.2094 -0.4496
  514MOL0     H69387   6.123   9.600   7.813  0.8697 -0.6935 -1.8118
  514MOL0     H69388   5.808   9.376   8.008 -0.1753 -1.1230  0.1272
  514MOL0     H69389   6.650   9.311   7.530  2.2294 -0.8582  0.1537
  514MOL0     H69390   6.781   9.106   7.445  1.3693 -6.5276 -0.0532
  515MOL0     O69391   0.287   6.678   1.536 -0.4320 -0.2342  0.3340
  515MOL0     C69392   0.279   6.724   1.418  0.6771  0.9597  0.1781
  515MOL0     O69393   0.172   6.780   1.371  0.3396  0.8178  0.0739
  515MOL0     C69394   0.077   6.850   1.444  0.1533 -1.1609  0.7538
  515MOL0     C69395   0.112   6.914   1.566  0.9742  0.7219  0.0549
  515MOL0     C69396   0.014   7.007   1.614 -0.6645 -0.1474 -0.4397
  515MOL0     C69397  -0.114   7.024   1.564 -0.5424  0.4616 -0.8551
  515MOL0     O69398  -0.201   7.117   1.612  0.7254 -0.8662  0.0186
  515MOL0     C69399  -0.251   7.202   1.509 -0.3073 -0.4052  0.4255
  515MOL0     C69400  -0.319   7.326   1.574 -0.9143  0.0052  0.6599
  515MOL0     C69401  -0.466   7.303   1.592  0.1930 -0.1091  1.2990
  515MOL0     C69402  -0.540   7.435   1.634 -0.1973  0.7394 -0.5748
  515MOL0     C69403  -0.695   7.423   1.645 -0.3832  0.2677 -0.7081
  515MOL0     C69404  -0.750   7.322   1.760  0.1231 -0.6042  0.6219
  515MOL0     C69405  -0.711   7.367   1.905 -0.0202  0.0087  0.3702
  515MOL0     C69406  -0.818   7.313   2.002 -0.4098  0.9156  0.7049
  515MOL0     N69407  -0.766   7.327   2.136  0.5502  0.7374  0.6781
  515MOL0     C69408  -0.667   7.263   2.198  1.3373  0.1066  0.9373
  515MOL0     C69409  -0.672   7.315   2.329  0.0678 -0.4639  0.6655
  515MOL0     C69410  -0.587   7.278   2.445  0.6843 -0.4857 -0.1181
  515MOL0     C69411  -0.445   7.272   2.407  0.1544 -0.3101  0.0467
  515MOL0     C69412  -0.390   7.405   2.394 -0.2167  0.5178  0.2545
  515MOL0     C69413  -0.237   7.387   2.347  0.4340 -0.6450  0.0292
  515MOL0     O69414  -0.174   7.514   2.327 -0.1522  0.6252 -0.0248
  515MOL0     C69415  -0.040   7.508   2.304  0.1938  0.7869  1.0862
  515MOL0     C69416   0.011   7.626   2.246  2.2089  0.6795  0.3724
  515MOL0     C69417   0.138   7.635   2.201  0.3109 -0.2559 -0.1116
  515MOL0     C69418   0.174   7.759   2.127  0.3985  0.1122  1.2191
  515MOL0     C69419   0.236   7.528   2.237  0.6491 -0.6819  0.7124
  515MOL0     C69420   0.382   7.534   2.209  0.1812  0.7285  0.0209
  515MOL0     O69421   0.451   7.422   2.257 -0.1308  0.0752  0.4712
  515MOL0     C69422   0.595   7.421   2.262  0.3328  1.0823  0.4420
  515MOL0     C69423   0.681   7.537   2.279  1.0469  0.1597  0.0975
  515MOL0     C69424   0.812   7.531   2.259  0.5262  0.1473 -0.1184
  515MOL0     C69425   0.871   7.408   2.209 -0.3353 -0.3651  0.8425
  515MOL0     O69426   1.002   7.384   2.183 -0.8074 -0.4156 -0.0439
  515MOL0     C69427   1.111   7.478   2.191  0.4521 -0.5014  1.5668
  515MOL0     C69428   1.124   7.562   2.064  0.5935 -1.1041 -0.3933
  515MOL0     C69429   1.139   7.460   1.950  0.5279 -0.6396 -1.1021
  515MOL0     C69430   1.203   7.526   1.824 -0.1425  0.6145 -0.1394
  515MOL0     C69431   1.187   7.433   1.701  0.5091 -0.0786  0.9340
  515MOL0     C69432   1.272   7.493   1.593  0.5953 -0.1540 -0.2429
  515MOL0     C69433   1.269   7.402   1.463  0.6697  0.1431  0.3774
  515MOL0     C69434   1.374   7.448   1.363  0.5244  0.1929  0.6518
  515MOL0    Cl69435   1.364   7.326   1.232  0.1255 -0.3847  0.6453
  515MOL0     C69436   0.792   7.299   2.202  0.4928  1.1752  0.2002
  515MOL0     C69437   0.652   7.301   2.213  0.6827  0.1480  0.1137
  515MOL0     O69438   0.436   7.635   2.157  0.2940 -0.3756  0.0748
  515MOL0     C69439   0.174   7.405   2.269 -0.2118 -0.0702  0.2690
  515MOL0     C69440   0.042   7.396   2.314  0.7735  0.0629  1.0027
  515MOL0     N69441  -0.777   7.412   2.332 -0.2362 -0.6550  0.3941
  515MOL0     N69442  -0.822   7.423   2.213 -0.7143  1.4797 -0.3556
  515MOL0     C69443  -0.144   6.944   1.451 -0.2764  0.1558  0.3950
  515MOL0     C69444  -0.048   6.862   1.383 -0.5612  0.1219  0.6100
  515MOL0     C69445   0.393   6.692   1.335 -0.6908 -0.3420  0.2353
  515MOL0     C69446   0.403   6.738   1.203 -0.1405  0.7173 -0.7878
  515MOL0     C69447   0.516   6.720   1.130  0.4477  0.0145  0.0831
  515MOL0     C69448   0.633   6.649   1.173  0.3733  0.6150 -0.0530
  515MOL0     O69449   0.738   6.635   1.090  0.5056 -0.1083  0.6252
  515MOL0     C69450   0.873   6.613   1.139  0.0400  0.4310  0.4186
  515MOL0     C69451   0.968   6.644   1.022  0.4553  0.1151 -0.0118
  515MOL0     C69452   1.046   6.526   0.956  0.5434  0.1528  0.9158
  515MOL0     C69453   1.177   6.475   1.029 -0.0088  0.2990 -0.1534
  515MOL0     C69454   1.252   6.367   0.956  0.3021  0.1680 -0.2249
  515MOL0     C69455   1.319   6.290   0.894 -0.5870  0.6068  0.8030
  515MOL0     C69456   0.620   6.592   1.304 -0.1807 -0.1953  0.0964
  515MOL0     C69457   0.506   6.613   1.377 -0.0838 -0.5339 -0.0418
  515MOL0     H69458   0.201   6.908   1.628  0.0106  0.7297  1.4643
  515MOL0     H69459   0.051   7.075   1.689  1.3952 -1.5710 -0.0788
  515MOL0     H69460  -0.175   7.246   1.442 -0.9174  4.3048  2.4088
  515MOL0     H69461  -0.330   7.150   1.455  0.7306 -1.6372  0.0487
  515MOL0     H69462  -0.264   7.337   1.668  0.8378 -0.4865 -0.2756
  515MOL0     H69463  -0.303   7.418   1.517 -1.5245 -1.6439 -2.3458
  515MOL0     H69464  -0.514   7.266   1.501  1.8511  1.8200 -0.4451
  515MOL0     H69465  -0.473   7.220   1.663  2.8819 -3.1717 -1.6729
  515MOL0     H69466  -0.492   7.468   1.726 -0.5678 -1.6914  0.5523
  515MOL0     H69467  -0.527   7.519   1.565  1.2727  0.4408 -0.6923
  515MOL0     H69468  -0.730   7.523   1.672  0.3734 -0.0635  1.7424
  515MOL0     H69469  -0.744   7.393   1.552  0.2314  0.1807 -1.0077
  515MOL0     H69470  -0.858   7.335   1.755 -0.0769  0.2551  4.3449
  515MOL0     H69471  -0.722   7.219   1.734 -0.2573  0.0052 -2.6674
  515MOL0     H69472  -0.612   7.328   1.930  1.6669  3.1668 -0.8452
  515MOL0     H69473  -0.709   7.476   1.917  1.8020 -0.1568  2.1347
  515MOL0     H69474  -0.827   7.205   1.989  0.4713  0.9915 -0.9248
  515MOL0     H69475  -0.904   7.373   1.972  0.0699  1.4835  0.4463
  515MOL0     H69476  -0.600   7.182   2.171  1.1471 -0.7006  2.7045
  515MOL0     H69477  -0.601   7.350   2.526 -0.7934 -1.5517  0.6333
  515MOL0     H69478  -0.628   7.184   2.483  0.4893 -0.8306 -1.1454
  515MOL0     H69479  -0.430   7.212   2.317 -1.7212 -0.7773  0.0125
  515MOL0     H69480  -0.397   7.209   2.483 -0.2786 -2.5117 -1.4137
  515MOL0     H69481  -0.390   7.452   2.493  4.6381 -0.1828  0.8332
  515MOL0     H69482  -0.436   7.470   2.319  2.2068  2.4424  0.3244
  515MOL0     H69483  -0.232   7.325   2.256  3.5247  1.4687 -1.4407
  515MOL0     H69484  -0.175   7.341   2.424  4.1861  4.2585  0.4714
  515MOL0     H69485  -0.054   7.712   2.237  2.3527  0.7511  0.0068
  515MOL0     H69486   0.252   7.815   2.180 -0.4067  1.6773  0.8084
  515MOL0     H69487   0.216   7.738   2.028 -0.2165  2.6229  0.3650
  515MOL0     H69488   0.096   7.831   2.102 -0.1478 -1.1107 -0.8285
  515MOL0     H69489   0.647   7.627   2.330  2.7797  0.5657  0.6111
  515MOL0     H69490   0.866   7.622   2.280 -1.1063  1.4303 -1.2139
  515MOL0     H69491   1.098   7.545   2.276 -0.8082 -0.8665  1.6860
  515MOL0     H69492   1.204   7.424   2.208  1.7054  0.6113 -1.1375
  515MOL0     H69493   1.030   7.613   2.042  0.1401 -1.7180  0.0751
  515MOL0     H69494   1.213   7.625   2.067  1.1121 -1.8436  0.0667
  515MOL0     H69495   1.044   7.418   1.915 -0.9482  2.3026 -0.9092
  515MOL0     H69496   1.202   7.375   1.980 -0.5374 -1.1257 -0.1508
  515MOL0     H69497   1.154   7.620   1.797 -0.3893  0.0658 -1.7553
  515MOL0     H69498   1.307   7.548   1.850  0.2520  0.0368 -1.1863
  515MOL0     H69499   1.085   7.433   1.661  1.4061  0.0521 -1.5096
  515MOL0     H69500   1.205   7.329   1.727  0.8361 -0.3688 -0.3683
  515MOL0     H69501   1.245   7.596   1.565  2.8107  0.4330 -0.4392
  515MOL0     H69502   1.375   7.499   1.628  0.8446  0.1814 -0.9942
  515MOL0     H69503   1.168   7.402   1.420  0.1102  0.5707  1.6514
  515MOL0     H69504   1.282   7.297   1.489 -1.6769 -0.4805 -0.6483
  515MOL0     H69505   1.470   7.434   1.413  0.7837  2.3545  0.8219
  515MOL0     H69506   1.355   7.550   1.330  2.2564  0.6497  0.9781
  515MOL0     H69507   0.842   7.208   2.170  2.3071  2.0512  0.4370
  515MOL0     H69508   0.598   7.207   2.207  0.8242  0.0809 -0.1074
  515MOL0     H69509   0.233   7.314   2.270  1.1536  0.7524  1.7215
  515MOL0     H69510   0.015   7.295   2.345  0.5670 -1.0747 -2.4834
  515MOL0     H69511  -0.244   6.944   1.410  0.4036 -2.1966 -1.4825
  515MOL0     H69512  -0.069   6.801   1.296  1.0695 -0.1723  0.3974
  515MOL0     H69513   0.318   6.793   1.164 -0.6443  0.4324 -0.1069
  515MOL0     H69514   0.521   6.768   1.033 -1.6053 -1.4184 -0.8093
  515MOL0     H69515   0.886   6.673   1.230  0.0244  0.1664  0.5993
  515MOL0     H69516   0.874   6.505   1.156 -0.1729  0.2153 -0.8391
  515MOL0     H69517   1.019   6.733   1.058 -1.4610  0.1073  3.1149
  515MOL0     H69518   0.903   6.686   0.944  2.0778  1.5258 -0.6497
  515MOL0     H69519   1.082   6.563   0.860 -1.2359 -2.1943 -0.7632
  515MOL0     H69520   0.977   6.443   0.940  0.0673  0.4875  1.1994
  515MOL0     H69521   1.153   6.449   1.133 -0.7346  0.6386 -0.2301
  515MOL0     H69522   1.243   6.559   1.049  2.0611 -0.9436 -1.4007
  515MOL0     H69523   1.377   6.214   0.845  1.2101  2.1617  0.3653
  515MOL0     H69524   0.690   6.518   1.340 -0.7282 -1.7067 -1.7714
  515MOL0     H69525   0.486   6.558   1.468 -4.5057  1.6217  0.5537
  516MOL0     O69526   8.570   3.756  10.842  0.0806  0.5008  0.4029
  516MOL0     C69527   8.470   3.690  10.819 -0.3115  0.3564 -0.4819
  516MOL0     O69528   8.354   3.704  10.890 -0.5521  0.2187  0.1019
  516MOL0     C69529   8.344   3.762  11.017  0.1055 -1.2372 -0.2991
  516MOL0     C69530   8.217   3.737  11.079 -0.9781 -0.4653  0.5676
  516MOL0     C69531   8.188   3.778  11.206  1.2111  0.4904 -0.1074
  516MOL0     C69532   8.293   3.857  11.277  0.1828 -0.2383 -1.0865
  516MOL0     O69533   8.268   3.899  11.405 -0.2109  0.2500 -0.4755
  516MOL0     C69534   8.375   3.925  11.513 -0.2831  0.5329  0.4505
  516MOL0     C69535   8.371   4.074  11.543  0.1387 -0.0800  0.3291
  516MOL0     C69536   8.421   4.168  11.431 -0.1822  0.6555  0.6594
  516MOL0     C69537   8.394   4.319  11.449  0.1053 -0.0094 -0.0882
  516MOL0     C69538   8.364   4.387  11.312 -0.0552 -0.2335  0.7707
  516MOL0     C69539   8.359   4.546  11.328  0.4548  0.0957  0.2243
  516MOL0     C69540   8.487   4.621  11.335 -0.3295 -0.6608  0.3688
  516MOL0     C69541   8.577   4.633  11.209  0.1333  0.3791  0.2001
  516MOL0     N69542   8.694   4.719  11.226  0.0743 -0.3360  0.3837
  516MOL0     C69543   8.801   4.668  11.293  0.5319 -0.0173 -1.1812
  516MOL0     C69544   8.894   4.756  11.271  0.4060 -0.5932 -0.2461
  516MOL0     C69545   9.026   4.747  11.353 -0.2184 -1.3336  0.0049
  516MOL0     C69546   9.046   4.860  11.457 -0.1174  0.3201  0.1033
  516MOL0     C69547   9.102   4.994  11.390  1.2580 -0.0748 -0.4568
  516MOL0     C69548   9.067   5.110  11.483 -0.8726 -0.0627 -0.0539
  516MOL0     O69549   9.138   5.111  11.607 -0.6887 -0.0254 -0.2039
  516MOL0     C69550   9.099   5.203  11.699  0.6712  0.0006 -0.2394
  516MOL0     C69551   9.055   5.162  11.821 -0.6763  0.5521  0.3378
  516MOL0     C69552   8.995   5.248  11.918  1.3072  0.0935  1.0383
  516MOL0     C69553   8.944   5.185  12.050  0.6111  0.5891 -0.9642
  516MOL0     C69554   8.965   5.384  11.887  0.0763  0.0885  0.3474
  516MOL0     C69555   8.884   5.473  11.976  0.2157 -0.5049  0.3864
  516MOL0     O69556   8.922   5.473  12.105  0.4131 -0.0728 -0.1765
  516MOL0     C69557   8.867   5.553  12.202  0.7650 -0.1341 -0.0374
  516MOL0     C69558   8.733   5.602  12.212  0.1147  0.8106 -0.0446
  516MOL0     C69559   8.700   5.682  12.323  0.3487  0.4293  0.2131
  516MOL0     C69560   8.799   5.723  12.414  0.3059 -0.4053  0.1391
  516MOL0     O69561   8.769   5.790  12.524 -0.4374 -0.7517 -0.3174
  516MOL0     C69562   8.743   5.927  12.506 -0.2909  0.4424  0.6989
  516MOL0     C69563   8.705   5.991  12.633 -0.4718  0.0466  0.1421
  516MOL0     C69564   8.798   5.965  12.755  0.9359 -0.1787  0.4731
  516MOL0     C69565   8.921   6.066  12.768 -0.5973  0.1220 -0.1835
  516MOL0     C69566   9.007   6.008  12.884  0.6861 -0.1015 -0.3854
  516MOL0     C69567   9.157   6.015  12.876 -0.6939 -0.2431 -0.0903
  516MOL0     C69568   9.213   6.159  12.890 -0.7401  0.5999  0.1577
  516MOL0     C69569   9.289   6.160  13.024 -0.0945 -0.5266  0.9389
  516MOL0    Cl69570   9.434   6.069  13.021 -0.7881  0.3096  0.0032
  516MOL0     C69571   8.928   5.678  12.399 -0.4839  0.1059 -0.3711
  516MOL0     C69572   8.959   5.594  12.299 -0.0273  0.2052 -0.5682
  516MOL0     O69573   8.801   5.548  11.922 -0.1316  0.5446  0.1650
  516MOL0     C69574   9.013   5.424  11.759  0.4823 -0.0859 -0.2878
  516MOL0     C69575   9.072   5.337  11.666 -0.0664 -0.4692  0.5572
  516MOL0     N69576   8.846   4.860  11.190  0.4612 -0.6503  0.3245
  516MOL0     N69577   8.728   4.834  11.156 -0.3503  0.3638 -0.9088
  516MOL0     C69578   8.419   3.879  11.216  0.4719 -0.3327  0.5396
  516MOL0     C69579   8.442   3.830  11.087 -0.5218  0.1708  0.0087
  516MOL0     C69580   8.459   3.577  10.723  0.2466 -0.3889 -0.1827
  516MOL0     C69581   8.574   3.490  10.701 -0.7926  0.4480 -0.6727
  516MOL0     C69582   8.567   3.381  10.619  0.5955  0.3262 -0.4773
  516MOL0     C69583   8.443   3.365  10.549  0.1065 -0.5857  0.1383
  516MOL0     O69584   8.429   3.269  10.453 -0.3458  0.0812 -0.7342
  516MOL0     C69585   8.433   3.308  10.313 -0.2445  0.8248 -0.6440
  516MOL0     C69586   8.576   3.310  10.253 -1.6866 -0.0673 -0.2414
  516MOL0     C69587   8.658   3.190  10.303  0.1257  0.7843 -1.0650
  516MOL0     C69588   8.801   3.219  10.296  0.0689  0.1348 -0.7675
  516MOL0     C69589   8.885   3.097  10.320  0.1267 -0.4471 -0.5002
  516MOL0     C69590   8.943   2.994  10.310  0.3258  0.1347 -0.3028
  516MOL0     C69591   8.334   3.434  10.583 -0.1951 -0.0586  0.5174
  516MOL0     C69592   8.335   3.538  10.672  0.1514 -0.3330  0.3340
  516MOL0     H69593   8.142   3.685  11.020  0.7729 -2.3096 -0.1320
  516MOL0     H69594   8.096   3.743  11.252  0.8912  1.5554  0.1016
  516MOL0     H69595   8.341   3.879  11.606 -5.1757  0.1554 -1.2664
  516MOL0     H69596   8.472   3.884  11.484 -1.8208 -3.0811 -0.0812
  516MOL0     H69597   8.273   4.112  11.574  0.6253  0.6367  1.0324
  516MOL0     H69598   8.437   4.078  11.630  0.1664 -3.4943  0.5981
  516MOL0     H69599   8.524   4.136  11.413 -1.4859 -1.8547 -3.5452
  516MOL0     H69600   8.364   4.147  11.341  0.4143  3.2075 -0.4120
  516MOL0     H69601   8.299   4.331  11.501  0.4025  1.2614  0.2153
  516MOL0     H69602   8.472   4.364  11.511 -1.0452  1.4499  0.3547
  516MOL0     H69603   8.438   4.349  11.242 -1.5140 -0.9265 -0.4435
  516MOL0     H69604   8.263   4.364  11.275 -0.5085  0.5544  1.4613
  516MOL0     H69605   8.296   4.586  11.247  1.7716  3.3670  0.6374
  516MOL0     H69606   8.296   4.562  11.416 -0.5175 -0.0133 -0.4361
  516MOL0     H69607   8.455   4.724  11.353 -0.7628 -0.5754 -0.7677
  516MOL0     H69608   8.547   4.589  11.421  0.0836  1.9661  1.1286
  516MOL0     H69609   8.520   4.678  11.127 -0.8794  2.9611  2.1946
  516MOL0     H69610   8.605   4.530  11.185 -2.4466 -0.0922 -1.2037
  516MOL0     H69611   8.801   4.581  11.357 -0.6463  0.6828 -0.1911
  516MOL0     H69612   9.044   4.656  11.410  4.4877 -0.8544 -0.3299
  516MOL0     H69613   9.109   4.755  11.282  0.3103  1.5041  0.8310
  516MOL0     H69614   9.116   4.823  11.532 -2.8381 -5.0026  0.4985
  516MOL0     H69615   8.955   4.878  11.515 -0.2360  4.1165 -0.9835
  516MOL0     H69616   9.049   5.001  11.294  0.0004 -0.0348  0.2129
  516MOL0     H69617   9.208   4.986  11.363  1.0823  0.6941 -1.4672
  516MOL0     H69618   8.963   5.109  11.517 -1.7863 -0.5951 -2.6261
  516MOL0     H69619   9.081   5.206  11.433  2.1359 -0.0086  0.7154
  516MOL0     H69620   9.067   5.058  11.848 -5.6656 -1.4404 -3.4428
  516MOL0     H69621   9.011   5.204  12.134 -2.2212  2.1187  1.1240
  516MOL0     H69622   8.843   5.224  12.067 -0.5663 -1.2100 -3.2479
  516MOL0     H69623   8.929   5.078  12.041  1.3203  0.2664  1.1898
  516MOL0     H69624   8.657   5.582  12.137  1.1376 -1.5484 -0.5404
  516MOL0     H69625   8.601   5.722  12.342 -1.2586 -2.0619 -2.0520
  516MOL0     H69626   8.827   5.983  12.464 -1.8123  2.1342 -0.2525
  516MOL0     H69627   8.666   5.946  12.430  3.5134  2.8625 -2.9829
  516MOL0     H69628   8.709   6.097  12.609  0.7531 -0.4791 -2.1694
  516MOL0     H69629   8.601   5.965  12.657 -0.6409  0.5327 -0.0397
  516MOL0     H69630   8.830   5.860  12.758 -1.7198 -1.0468  1.5091
  516MOL0     H69631   8.745   5.986  12.848  3.4400  1.5565  1.6094
  516MOL0     H69632   8.994   6.067  12.687 -1.9535  2.9452 -1.5348
  516MOL0     H69633   8.889   6.171  12.772  1.0526  0.5947  2.0295
  516MOL0     H69634   8.988   5.901  12.895 -0.1696  0.2664  2.5333
  516MOL0     H69635   8.985   6.058  12.978  1.9072  1.4943 -0.9109
  516MOL0     H69636   9.200   5.953  12.955  2.7264  2.2501  0.2340
  516MOL0     H69637   9.190   5.965  12.785  1.2972  1.1727 -0.2210
  516MOL0     H69638   9.131   6.232  12.888  0.3667  1.9128 -2.3198
  516MOL0     H69639   9.279   6.201  12.814  1.3318  1.1468  2.1596
  516MOL0     H69640   9.219   6.122  13.099  1.8857 -1.8325  2.2281
  516MOL0     H69641   9.302   6.268  13.041 -0.9216 -0.3568  0.5374
  516MOL0     H69642   9.006   5.688  12.473  1.8414 -5.9053 -1.4851
  516MOL0     H69643   9.060   5.554  12.293 -0.0879 -0.5807  2.1794
  516MOL0     H69644   9.012   5.529  11.731 -0.8306 -0.4607 -1.8682
  516MOL0     H69645   9.097   5.369  11.565  6.2389 -1.9985  1.2345
  516MOL0     H69646   8.493   3.920  11.283 -0.5847  2.8950 -0.0961
  516MOL0     H69647   8.542   3.850  11.051 -0.3269  0.3607  0.6382
  516MOL0     H69648   8.670   3.499  10.751 -1.8446 -1.8095  2.0142
  516MOL0     H69649   8.647   3.309  10.608 -0.3468 -0.6609 -1.1227
  516MOL0     H69650   8.380   3.239  10.247  3.8788 -1.6635 -1.7205
  516MOL0     H69651   8.389   3.408  10.317 -1.4546  0.3179 -0.9721
  516MOL0     H69652   8.619   3.399  10.299  0.5524 -0.7065 -0.9545
  516MOL0     H69653   8.576   3.306  10.144 -2.2103  1.8664 -0.3423
  516MOL0     H69654   8.620   3.107  10.244 -1.3678 -0.0929  1.0219
  516MOL0     H69655   8.633   3.161  10.406 -1.9643 -4.0180 -2.6660
  516MOL0     H69656   8.828   3.294  10.371 -2.8112 -2.2999  3.0930
  516MOL0     H69657   8.826   3.263  10.199 -1.7991  2.9589 -0.1060
  516MOL0     H69658   9.005   2.908  10.326 -0.0310  0.0681  0.7843
  516MOL0     H69659   8.237   3.417  10.536 -0.8621  2.6752  0.7322
  516MOL0     H69660   8.238   3.588  10.673 -0.6555 -1.8134 -0.4774
  517MOL0     O69661   7.248  10.972   1.218  0.1095 -0.3791 -1.4977
  517MOL0     C69662   7.267  11.080   1.167 -1.9256  0.3049  0.0646
  517MOL0     O69663   7.317  11.116   1.041  0.3753  0.3484 -0.2242
  517MOL0     C69664   7.369  11.032   0.949 -0.8870 -0.7748 -0.4914
  517MOL0     C69665   7.393  10.893   0.957  0.4262  0.8963 -0.5587
  517MOL0     C69666   7.457  10.822   0.858 -0.0051 -0.2224 -0.2442
  517MOL0     C69667   7.512  10.886   0.750  0.0176  0.6772 -0.6293
  517MOL0     O69668   7.596  10.805   0.673  0.0670 -0.5332  0.4484
  517MOL0     C69669   7.727  10.854   0.640  0.6297 -0.0320  0.1037
  517MOL0     C69670   7.807  10.740   0.577 -0.4369 -0.1305  0.2129
  517MOL0     C69671   7.934  10.786   0.508 -0.9285 -0.2740  0.5437
  517MOL0     C69672   7.986  10.655   0.447 -0.1994 -0.3215 -0.6329
  517MOL0     C69673   8.122  10.682   0.368  0.2048 -0.6513  0.7716
  517MOL0     C69674   8.157  10.577   0.270  0.1429  0.1343 -0.6896
  517MOL0     C69675   8.288  10.614   0.209 -0.2077  0.1364  0.2458
  517MOL0     C69676   8.309  10.535   0.076 -0.1124 -1.1963 -0.8353
  517MOL0     N69677   8.325  10.394   0.108 -0.6663  0.3503 -0.6947
  517MOL0     C69678   8.441  10.347   0.168  0.2995 -0.7049 -0.2756
  517MOL0     C69679   8.423  10.222   0.206 -0.0122  0.2840 -0.6052
  517MOL0     C69680   8.522  10.132   0.272 -1.1042 -0.5360  0.6214
  517MOL0     C69681   8.650  10.147   0.186 -0.2642  0.1569  0.5783
  517MOL0     C69682   8.735  10.021   0.206  0.5838 -0.0393 -0.0979
  517MOL0     C69683   8.876  10.043   0.172 -0.6167  0.2960 -0.2335
  517MOL0     O69684   8.887  10.113   0.043  0.3860  0.5937 -0.4726
  517MOL0     C69685   8.926  10.042  -0.067 -0.2891  0.3852  0.9923
  517MOL0     C69686   8.877   9.921  -0.103  0.3887  0.3741  1.1099
  517MOL0     C69687   8.911   9.850  -0.216 -0.0429 -0.4969  0.6870
  517MOL0     C69688   8.836   9.716  -0.235 -0.0639 -0.2267  0.7648
  517MOL0     C69689   8.997   9.912  -0.310 -0.5285  0.1030  0.7672
  517MOL0     C69690   9.025   9.860  -0.449  0.1265  0.3207  0.9243
  517MOL0     O69691   9.057   9.947  -0.545  0.4044  0.1074  0.0423
  517MOL0     C69692   9.088   9.915  -0.679  1.1195  1.5166  0.5418
  517MOL0     C69693   9.017   9.829  -0.757  0.1228  0.4698  0.1690
  517MOL0     C69694   9.051   9.826  -0.894  0.7001 -0.0308  0.0631
  517MOL0     C69695   9.156   9.900  -0.937  0.3994 -0.0392  1.1297
  517MOL0     O69696   9.192   9.878  -1.067  0.6027 -0.4227  0.1392
  517MOL0     C69697   9.128   9.968  -1.163 -0.0365  0.3499 -0.0703
  517MOL0     C69698   9.221   9.985  -1.277  0.2853 -0.3448  0.0501
  517MOL0     C69699   9.133  10.043  -1.389 -1.2887 -0.8220 -0.4507
  517MOL0     C69700   9.217  10.060  -1.511 -0.8129 -0.3171 -0.1048
  517MOL0     C69701   9.338  10.161  -1.489 -0.0647 -0.4932  0.2826
  517MOL0     C69702   9.364  10.246  -1.623  0.1509  0.2448  0.2764
  517MOL0     C69703   9.390  10.178  -1.757 -0.1826 -0.0831 -0.5538
  517MOL0     C69704   9.485  10.067  -1.746  0.9699 -0.6870  0.1747
  517MOL0    Cl69705   9.495  10.007  -1.910  0.2826  0.2403  0.0049
  517MOL0     C69706   9.215   9.997  -0.863 -0.0140 -0.1598 -0.2924
  517MOL0     C69707   9.181   9.997  -0.734 -0.0189  0.3722 -0.7254
  517MOL0     O69708   9.012   9.741  -0.469  0.0246  0.2117  0.3987
  517MOL0     C69709   9.054  10.036  -0.276  0.6663 -0.4172 -0.8211
  517MOL0     C69710   9.024  10.100  -0.157  0.8363 -0.1798 -0.7246
  517MOL0     N69711   8.300  10.182   0.161 -0.1070  0.1541  0.5831
  517MOL0     N69712   8.240  10.285   0.110  0.0483  0.0116  0.0185
  517MOL0     C69713   7.498  11.022   0.741  0.1517 -0.5620  1.1543
  517MOL0     C69714   7.420  11.091   0.835  0.3399  0.9192  1.0949
  517MOL0     C69715   7.229  11.198   1.254 -0.1744 -0.6097  0.6962
  517MOL0     C69716   7.246  11.329   1.210  0.4139  0.0873  0.6153
  517MOL0     C69717   7.199  11.440   1.279  0.0218  0.3450 -0.5998
  517MOL0     C69718   7.145  11.421   1.406  0.7102 -0.4608  0.9900
  517MOL0     O69719   7.085  11.524   1.470 -0.0148  0.5134  0.4119
  517MOL0     C69720   7.179  11.589   1.556  1.1598  0.4661 -0.7094
  517MOL0     C69721   7.248  11.707   1.484 -0.1307  0.5480 -0.6735
  517MOL0     C69722   7.142  11.825   1.484  0.5620 -0.0032  0.4110
  517MOL0     C69723   7.158  11.928   1.391  0.6055  0.2677 -0.7239
  517MOL0     C69724   7.289  11.992   1.405  0.1395 -0.0067 -0.6660
  517MOL0     C69725   7.395  12.059   1.419 -0.0740  0.2967 -0.1367
  517MOL0     C69726   7.134  11.288   1.457 -0.0744 -0.6805  0.0203
  517MOL0     C69727   7.170  11.181   1.382  0.2984  0.1739  0.3604
  517MOL0     H69728   7.359  10.844   1.048  0.1839  2.0591 -0.0071
  517MOL0     H69729   7.476  10.716   0.869 -1.9246 -0.5896 -0.1520
  517MOL0     H69730   7.713  10.940   0.573 -2.7565  0.1543  0.8763
  517MOL0     H69731   7.784  10.876   0.731  1.7397 -2.2894  0.0042
  517MOL0     H69732   7.832  10.655   0.641  0.2148 -1.5106 -1.7774
  517MOL0     H69733   7.755  10.680   0.502  4.1068 -1.7122 -1.9805
  517MOL0     H69734   7.924  10.865   0.433 -3.0338 -1.8596 -0.9642
  517MOL0     H69735   8.003  10.820   0.586  0.1205  1.9757 -1.2759
  517MOL0     H69736   8.002  10.582   0.527  1.7354  0.7977  0.0580
  517MOL0     H69737   7.904  10.607   0.392 -3.0769 -1.0499  3.7414
  517MOL0     H69738   8.122  10.783   0.326  3.8184 -0.5096  0.7533
  517MOL0     H69739   8.195  10.698   0.448 -0.1297  1.4518  0.7128
  517MOL0     H69740   8.158  10.474   0.305  1.1394 -0.6796 -2.9319
  517MOL0     H69741   8.072  10.577   0.201 -0.8146 -0.8557  0.4563
  517MOL0     H69742   8.292  10.722   0.195 -0.6355 -0.0057 -1.1710
  517MOL0     H69743   8.368  10.586   0.278  0.8573  0.4121 -0.8402
  517MOL0     H69744   8.406  10.573   0.042  0.6263 -1.3046  1.0331
  517MOL0     H69745   8.243  10.567  -0.005  0.1412  1.0619 -0.2106
  517MOL0     H69746   8.531  10.404   0.187 -0.9043  1.1591  0.0661
  517MOL0     H69747   8.541  10.164   0.374  0.8426  0.4362 -0.0130
  517MOL0     H69748   8.486  10.029   0.262 -0.2617 -0.8904  1.1457
  517MOL0     H69749   8.700  10.239   0.218 -0.6841 -0.0489  1.8890
  517MOL0     H69750   8.623  10.162   0.082  0.0151 -2.0336  0.1447
  517MOL0     H69751   8.696   9.942   0.142  1.3845 -0.4434 -0.0942
  517MOL0     H69752   8.724   9.981   0.307 -1.7324 -1.6045 -0.8813
  517MOL0     H69753   8.932   9.950   0.161  2.4366  1.8407  0.9615
  517MOL0     H69754   8.914  10.097   0.260  0.3525 -1.8427  0.7300
  517MOL0     H69755   8.809   9.870  -0.037 -0.5452  0.4367  0.2287
  517MOL0     H69756   8.903   9.636  -0.269  1.1778  0.0995  2.2982
  517MOL0     H69757   8.796   9.670  -0.144  0.2641  0.1838  1.1216
  517MOL0     H69758   8.751   9.727  -0.302 -0.8219 -1.2672  1.5163
  517MOL0     H69759   8.942   9.761  -0.718 -1.2897  1.4843 -0.6607
  517MOL0     H69760   9.001   9.749  -0.952 -2.1318  1.9375 -0.3616
  517MOL0     H69761   9.039   9.920  -1.206  2.4531 -0.8565 -4.4531
  517MOL0     H69762   9.107  10.066  -1.120 -2.1641 -0.1748  0.2304
  517MOL0     H69763   9.290  10.061  -1.239  0.3134 -1.0903  1.5993
  517MOL0     H69764   9.278   9.893  -1.293  0.1008 -0.7731  1.6601
  517MOL0     H69765   9.093  10.142  -1.365  1.7043  0.5458 -0.5589
  517MOL0     H69766   9.055   9.969  -1.406  1.1902 -4.1059  1.3720
  517MOL0     H69767   9.262   9.965  -1.540 -0.8659 -1.3912  2.9737
  517MOL0     H69768   9.154  10.099  -1.592  0.1046 -1.7299 -1.5429
  517MOL0     H69769   9.431  10.113  -1.456  0.3026  1.2187  1.8336
  517MOL0     H69770   9.313  10.242  -1.421  3.8976  1.7927 -0.6256
  517MOL0     H69771   9.279  10.314  -1.628 -0.5474 -0.6400  0.0285
  517MOL0     H69772   9.450  10.311  -1.602 -0.0426  0.7521 -0.4623
  517MOL0     H69773   9.425  10.263  -1.817  0.4861  0.6610  0.8471
  517MOL0     H69774   9.294  10.136  -1.788 -0.3237  0.9303 -1.5528
  517MOL0     H69775   9.459   9.994  -1.670  2.1467  0.4368  1.7216
  517MOL0     H69776   9.585  10.102  -1.718  1.7058  0.7083 -3.6009
  517MOL0     H69777   9.299  10.057  -0.897 -0.7191  1.7071  1.0849
  517MOL0     H69778   9.232  10.063  -0.666 -1.9425 -0.9318  2.1998
  517MOL0     H69779   9.137  10.086  -0.326  0.5817  1.0205  0.4335
  517MOL0     H69780   9.071  10.193  -0.129  0.2068  0.9264 -3.0771
  517MOL0     H69781   7.545  11.083   0.664  2.4797 -2.8093  0.6333
  517MOL0     H69782   7.415  11.198   0.822  0.9653  0.8341  0.0261
  517MOL0     H69783   7.275  11.350   1.107 -2.9469  2.0444 -0.0671
  517MOL0     H69784   7.195  11.536   1.230 -0.7073  0.5804 -0.0879
  517MOL0     H69785   7.121  11.624   1.641 -1.0509 -0.7418 -1.6438
  517MOL0     H69786   7.256  11.525   1.598  1.5112  1.5063  0.2878
  517MOL0     H69787   7.278  11.686   1.381 -1.2005 -2.6955 -0.4089
  517MOL0     H69788   7.340  11.734   1.536  0.6858 -0.3909 -1.5934
  517MOL0     H69789   7.138  11.868   1.584  0.4544 -4.4193  2.5193
  517MOL0     H69790   7.049  11.774   1.457  1.4618 -0.0521 -3.1161
  517MOL0     H69791   7.076  11.993   1.422 -0.6386 -0.6925 -1.8658
  517MOL0     H69792   7.133  11.906   1.287  0.8835 -3.4570 -0.1326
  517MOL0     H69793   7.484  12.117   1.434 -0.2384  0.9669 -1.5462
  517MOL0     H69794   7.088  11.275   1.554  1.6825 -1.4899  0.7920
  517MOL0     H69795   7.150  11.087   1.432  1.7004 -0.5423 -0.3841
  518MOL0     O69796  10.107  10.184   8.632  0.3153  0.0136 -0.5489
  518MOL0     C69797  10.230  10.182   8.599 -0.1235 -0.6459 -0.0399
  518MOL0     O69798  10.330  10.130   8.682  0.5728 -0.1798 -0.8964
  518MOL0     C69799  10.306  10.112   8.822  0.1055  0.5111 -0.5349
  518MOL0     C69800  10.206  10.183   8.891 -0.0079  0.5290 -0.7424
  518MOL0     C69801  10.179  10.168   9.031  0.4376 -0.3901  0.6856
  518MOL0     C69802  10.266  10.075   9.099  0.4891 -0.0319  0.4187
  518MOL0     O69803  10.246  10.042   9.233 -1.0289 -0.0389 -0.5320
  518MOL0     C69804  10.152  10.107   9.310  0.2288  0.3031  0.3350
  518MOL0     C69805  10.134  10.039   9.439  0.3304 -0.5036 -0.3012
  518MOL0     C69806  10.268  10.024   9.526 -1.0510  0.4377  0.7727
  518MOL0     C69807  10.340   9.903   9.496 -0.0828  0.7728 -0.0616
  518MOL0     C69808  10.466   9.893   9.585  0.2201 -1.0449  0.2266
  518MOL0     C69809  10.552   9.777   9.558 -0.0993  0.3008 -0.4818
  518MOL0     C69810  10.675   9.770   9.660  0.3572  0.1364  0.7825
  518MOL0     C69811  10.728   9.898   9.713  0.5824 -0.5264 -0.4656
  518MOL0     N69812  10.866   9.873   9.765 -0.1995  0.4386 -1.0003
  518MOL0     C69813  10.914   9.771   9.840 -0.7204  0.5562 -0.7222
  518MOL0     C69814  11.051   9.782   9.853  0.3398 -0.0899  0.1316
  518MOL0     C69815  11.148   9.697   9.921  0.1002  0.7787  0.4781
  518MOL0     C69816  11.292   9.749   9.907 -0.6429  0.3161  0.0457
  518MOL0     C69817  11.390   9.673   9.996 -0.0529 -0.1625 -0.5265
  518MOL0     C69818  11.532   9.641   9.944 -0.5538 -1.0346 -0.5294
  518MOL0     O69819  11.612   9.762   9.941 -0.1355  0.0141  0.2265
  518MOL0     C69820  11.739   9.758   9.896 -0.6760  0.2609 -0.5822
  518MOL0     C69821  11.770   9.788   9.759  0.5223  0.5876  0.2812
  518MOL0     C69822  11.895   9.770   9.698  0.2240  0.1442  0.2011
  518MOL0     C69823  11.911   9.824   9.553  0.2602 -0.5400  0.9529
  518MOL0     C69824  12.000   9.731   9.783  0.2924 -0.0301 -0.0564
  518MOL0     C69825  12.127   9.689   9.726 -0.3690  1.1809  0.0453
  518MOL0     O69826  12.238   9.702   9.808 -0.2507  0.7632 -0.3388
  518MOL0     C69827  12.365   9.658   9.780 -1.0385  0.2262  1.0438
  518MOL0     C69828  12.434   9.588   9.883  0.4058  0.5168 -0.8559
  518MOL0     C69829  12.563   9.552   9.875  0.2781 -0.2436  0.8898
  518MOL0     C69830  12.629   9.556   9.758  0.2363 -1.1117  0.2889
  518MOL0     O69831  12.749   9.503   9.747  0.6121 -0.4598 -0.1232
  518MOL0     C69832  12.846   9.600   9.736 -0.9699  0.4561  0.0726
  518MOL0     C69833  12.986   9.542   9.744 -0.0700  0.1632  0.2318
  518MOL0     C69834  13.095   9.646   9.743  1.3273 -0.2334 -0.5605
  518MOL0     C69835  13.234   9.598   9.781 -0.2687 -0.2784  0.2917
  518MOL0     C69836  13.332   9.710   9.752  0.2485  0.4200 -0.3800
  518MOL0     C69837  13.472   9.679   9.712  0.3902 -0.7760  0.5649
  518MOL0     C69838  13.473   9.584   9.588 -0.6897 -0.4002  1.1956
  518MOL0     C69839  13.627   9.565   9.558 -0.9744  0.3452  0.9201
  518MOL0    Cl69840  13.716   9.469   9.677 -0.0789  0.4347  0.0838
  518MOL0     C69841  12.568   9.618   9.653 -0.0752 -0.0473  0.6561
  518MOL0     C69842  12.434   9.661   9.656  0.3099 -0.4533  0.0177
  518MOL0     O69843  12.140   9.644   9.609  0.4643 -0.1219 -0.0213
  518MOL0     C69844  11.975   9.706   9.917  0.3386  0.0027  0.7423
  518MOL0     C69845  11.846   9.700   9.970 -0.1883 -0.6587  0.0691
  518MOL0     N69846  11.083   9.892   9.772  1.6528  0.5449  0.2867
  518MOL0     N69847  10.973   9.952   9.729  0.2987  0.7842 -0.0271
  518MOL0     C69848  10.385  10.033   9.037 -0.6707 -0.3499  0.2604
  518MOL0     C69849  10.396  10.033   8.901  0.1288 -0.8083 -0.0892
  518MOL0     C69850  10.264  10.236   8.469 -0.1194  0.2891 -0.0789
  518MOL0     C69851  10.175  10.237   8.356  0.0816 -1.1381  0.2623
  518MOL0     C69852  10.222  10.299   8.239 -0.1634 -0.2036 -0.2825
  518MOL0     C69853  10.356  10.351   8.218  0.4224  0.3426 -0.7379
  518MOL0     O69854  10.376  10.402   8.090 -0.2050 -0.1869 -0.2573
  518MOL0     C69855  10.493  10.480   8.074 -0.0357 -0.4909 -0.0470
  518MOL0     C69856  10.499  10.553   7.939 -0.2528  0.0134 -0.1557
  518MOL0     C69857  10.621  10.631   7.927 -0.1820 -0.6471  0.2000
  518MOL0     C69858  10.621  10.699   7.793  0.1189  0.9283  0.0520
  518MOL0     C69859  10.665  10.835   7.790  0.2530  0.3569 -0.3186
  518MOL0     C69860  10.675  10.957   7.801  0.0295  0.4911 -0.6533
  518MOL0     C69861  10.452  10.330   8.324  0.7030 -0.8383 -0.5136
  518MOL0     C69862  10.401  10.280   8.446  0.0440  0.3861  0.7564
  518MOL0     H69863  10.153  10.268   8.849 -0.3499  0.6668 -0.0629
  518MOL0     H69864  10.096  10.222   9.074  0.6056  0.7930 -0.4347
  518MOL0     H69865  10.172  10.214   9.319  1.9796 -0.0435  0.9791
  518MOL0     H69866  10.051  10.092   9.270  0.2647  0.2678  0.2570
  518MOL0     H69867  10.054  10.084   9.498  0.4425  0.2190 -0.6866
  518MOL0     H69868  10.089   9.940   9.437 -0.0457 -0.5424  3.3856
  518MOL0     H69869  10.331  10.110   9.504 -1.5807  1.9099  4.4272
  518MOL0     H69870  10.245  10.031   9.632  3.1654 -0.9574  1.9904
  518MOL0     H69871  10.281   9.812   9.505  1.1603 -0.1514 -0.9197
  518MOL0     H69872  10.378   9.907   9.393 -2.6929  0.6758 -1.0908
  518MOL0     H69873  10.527   9.982   9.570 -1.1382  0.0767  1.0884
  518MOL0     H69874  10.428   9.906   9.687  0.4929  0.2664  0.1827
  518MOL0     H69875  10.489   9.689   9.576  1.7190 -0.5167  2.7424
  518MOL0     H69876  10.573   9.776   9.451 -1.7059 -1.7818 -0.8548
  518MOL0     H69877  10.632   9.718   9.746 -0.3156 -0.6173  0.0025
  518MOL0     H69878  10.755   9.714   9.610  0.6796  0.1391  1.2866
  518MOL0     H69879  10.654   9.931   9.786  0.6881 -1.2259 -0.0378
  518MOL0     H69880  10.735   9.982   9.643 -2.3922  2.0603  2.0759
  518MOL0     H69881  10.867   9.689   9.893  0.2974 -1.0844 -2.2134
  518MOL0     H69882  11.120   9.689  10.027 -0.2012  1.3555  0.4458
  518MOL0     H69883  11.139   9.599   9.874 -1.4415  2.0170 -2.0560
  518MOL0     H69884  11.306   9.852   9.941  2.5416 -0.0362  0.0753
  518MOL0     H69885  11.321   9.735   9.802 -1.3743 -1.2509  0.0163
  518MOL0     H69886  11.345   9.575  10.012 -1.1770  0.2948 -0.8192
  518MOL0     H69887  11.405   9.722  10.093 -1.7868 -4.1551  2.0059
  518MOL0     H69888  11.527   9.590   9.847  1.0067 -0.4567 -0.9493
  518MOL0     H69889  11.586   9.566  10.003  0.4971  0.1944  0.1086
  518MOL0     H69890  11.685   9.830   9.707  0.3333 -0.7590 -0.5533
  518MOL0     H69891  11.921   9.933   9.556 -3.6632  0.0072  0.4003
  518MOL0     H69892  12.004   9.795   9.504  0.0643 -0.7903  0.7264
  518MOL0     H69893  11.831   9.797   9.483 -0.2286  0.3502  1.1488
  518MOL0     H69894  12.362   9.577   9.964  0.3317  1.2278 -0.8160
  518MOL0     H69895  12.609   9.493   9.954  0.1069  0.2279  1.3475
  518MOL0     H69896  12.836   9.646   9.637  0.4243 -1.6550 -1.1208
  518MOL0     H69897  12.830   9.669   9.820 -0.1645  0.9708 -0.1880
  518MOL0     H69898  12.988   9.473   9.829  0.4531 -2.3078 -1.6598
  518MOL0     H69899  13.005   9.476   9.659  1.1015 -0.1518  0.7171
  518MOL0     H69900  13.068   9.720   9.820 -2.7248 -2.5435  0.5152
  518MOL0     H69901  13.091   9.693   9.644 -0.2535  0.7652 -0.0649
  518MOL0     H69902  13.252   9.548   9.877 -1.7813 -4.3467 -1.3527
  518MOL0     H69903  13.261   9.517   9.713  0.3157  0.3122 -0.1898
  518MOL0     H69904  13.358   9.753   9.850 -0.7214  3.1036 -1.2116
  518MOL0     H69905  13.300   9.791   9.685 -0.9477  0.9697  0.8083
  518MOL0     H69906  13.516   9.775   9.683 -3.4279  0.6363 -1.2312
  518MOL0     H69907  13.523   9.631   9.796 -0.0202  2.5895  2.9252
  518MOL0     H69908  13.419   9.628   9.504 -0.2556  0.5470  1.3995
  518MOL0     H69909  13.432   9.487   9.619  0.8679 -1.5799 -0.2461
  518MOL0     H69910  13.677   9.662   9.556 -3.7270  1.8690  0.6100
  518MOL0     H69911  13.637   9.511   9.463 -0.4903 -1.6672  2.0568
  518MOL0     H69912  12.621   9.628   9.558 -0.2439 -0.1174  0.5538
  518MOL0     H69913  12.391   9.713   9.570  3.0736  3.0672  0.5380
  518MOL0     H69914  12.061   9.679   9.977  1.2945  2.0921  0.4075
  518MOL0     H69915  11.831   9.658  10.069 -1.8740  0.3624  0.2912
  518MOL0     H69916  10.454   9.958   9.075  2.3939  0.7250 -2.6767
  518MOL0     H69917  10.479   9.978   8.858 -0.1510 -1.0212 -0.3638
  518MOL0     H69918  10.070  10.213   8.366 -0.1104  0.2958  2.0825
  518MOL0     H69919  10.143  10.315   8.166  0.7963 -1.7095 -1.7173
  518MOL0     H69920  10.506  10.546   8.160  2.0419 -0.2204 -0.5215
  518MOL0     H69921  10.584  10.419   8.079  0.2905 -0.1652 -1.5887
  518MOL0     H69922  10.416  10.623   7.936 -1.7249 -0.8011  6.3780
  518MOL0     H69923  10.487  10.473   7.865 -3.4929 -3.7602  3.9329
  518MOL0     H69924  10.716  10.585   7.954  1.3380  3.4470  2.8800
  518MOL0     H69925  10.613  10.715   7.997  0.4588  2.8793 -3.5525
  518MOL0     H69926  10.524  10.688   7.744  0.5949  1.4888 -1.0361
  518MOL0     H69927  10.683  10.644   7.722  0.3795  1.2415  0.0349
  518MOL0     H69928  10.664  11.063   7.809 -2.6502  0.1514  1.7882
  518MOL0     H69929  10.552  10.364   8.299 -0.7490  1.1993 -4.3924
  518MOL0     H69930  10.477  10.291   8.522  0.3673 -0.5498  0.5834
  519MOL0     O69931   7.112   4.896   3.547  0.5300 -0.3001  0.4205
  519MOL0     C69932   7.113   4.893   3.425 -1.9061 -0.0492 -0.0898
  519MOL0     O69933   7.220   4.907   3.342  0.1114  0.2232  0.7133
  519MOL0     C69934   7.310   5.006   3.369  0.4491 -0.1594  0.7892
  519MOL0     C69935   7.269   5.138   3.370  0.4022 -0.1790 -0.1083
  519MOL0     C69936   7.358   5.240   3.374 -0.4141 -0.1530  0.5093
  519MOL0     C69937   7.497   5.207   3.366  0.5056  0.3436 -0.5914
  519MOL0     O69938   7.584   5.304   3.383 -0.4520  0.7881 -0.1265
  519MOL0     C69939   7.729   5.287   3.368  0.6269  0.9548 -0.0353
  519MOL0     C69940   7.809   5.398   3.438 -0.4198  0.4058  0.7628
  519MOL0     C69941   7.799   5.536   3.357 -1.3439  0.3997 -1.0708
  519MOL0     C69942   7.898   5.627   3.424 -0.4715 -0.4175 -0.3449
  519MOL0     C69943   7.881   5.761   3.357 -0.1265 -0.4403  0.0796
  519MOL0     C69944   7.973   5.871   3.426 -0.3786  0.0689  0.4939
  519MOL0     C69945   7.940   6.012   3.380 -0.5303  0.2155 -0.0731
  519MOL0     C69946   7.911   6.034   3.229  0.2110 -0.1467  0.2642
  519MOL0     N69947   7.892   6.183   3.196  0.6024 -0.2231  0.3088
  519MOL0     C69948   7.930   6.229   3.066 -0.1670 -0.3638 -1.0870
  519MOL0     C69949   7.873   6.351   3.055 -0.8019 -0.6181 -0.2352
  519MOL0     C69950   7.876   6.441   2.935  0.5967  0.6147  0.4200
  519MOL0     C69951   8.022   6.475   2.886 -0.0705  0.5357 -0.1991
  519MOL0     C69952   8.015   6.513   2.737  0.0467 -0.7220 -0.9495
  519MOL0     C69953   8.146   6.544   2.672 -0.3602 -1.2032  0.8581
  519MOL0     O69954   8.221   6.426   2.683 -0.1307 -0.7657 -0.3068
  519MOL0     C69955   8.339   6.409   2.613  0.8960  0.1882 -0.5516
  519MOL0     C69956   8.389   6.281   2.594 -0.0924 -0.2770 -0.4502
  519MOL0     C69957   8.511   6.261   2.526 -0.8723  0.7678 -0.2436
  519MOL0     C69958   8.560   6.112   2.503 -0.1414  0.2145 -0.9580
  519MOL0     C69959   8.592   6.369   2.488 -0.6067  0.4424 -0.5815
  519MOL0     C69960   8.728   6.356   2.422  0.8053 -0.3781 -1.8840
  519MOL0     O69961   8.746   6.417   2.296  0.3121 -0.6237 -0.6983
  519MOL0     C69962   8.873   6.433   2.261 -1.2696 -0.8539  0.2630
  519MOL0     C69963   8.957   6.530   2.315 -0.2309 -0.3952 -0.3122
  519MOL0     C69964   9.095   6.523   2.269  0.5292  0.2438  0.2485
  519MOL0     C69965   9.129   6.433   2.167 -0.0017 -0.3668 -0.2940
  519MOL0     O69966   9.262   6.438   2.128 -0.7285 -0.3097  0.0521
  519MOL0     C69967   9.315   6.324   2.069 -0.1460 -0.4461  0.7215
  519MOL0     C69968   9.464   6.343   2.047 -0.1382  0.6237 -0.3552
  519MOL0     C69969   9.515   6.295   1.912  0.0602 -0.0656  0.1477
  519MOL0     C69970   9.456   6.355   1.784 -0.4390 -1.0310  1.1332
  519MOL0     C69971   9.561   6.359   1.662  0.5878 -0.1450 -0.4493
  519MOL0     C69972   9.505   6.463   1.550 -0.3743 -0.4300 -0.0997
  519MOL0     C69973   9.578   6.599   1.568 -0.1123  0.2276  0.6601
  519MOL0     C69974   9.525   6.690   1.455 -0.6413 -0.0378  0.1735
  519MOL0    Cl69975   9.655   6.803   1.410 -0.5982  0.1783  0.4642
  519MOL0     C69976   9.044   6.347   2.111  0.3244 -0.1861 -0.1770
  519MOL0     C69977   8.919   6.350   2.154  0.0530  0.5893 -0.2361
  519MOL0     O69978   8.806   6.287   2.482 -0.4888  0.0577  0.2428
  519MOL0     C69979   8.549   6.496   2.511  0.0901  0.3266 -0.2004
  519MOL0     C69980   8.418   6.518   2.568 -0.0533  0.3692  0.2672
  519MOL0     N69981   7.779   6.369   3.158 -0.8644 -0.2186  0.5800
  519MOL0     N69982   7.787   6.267   3.235  0.1495 -0.3011 -0.2351
  519MOL0     C69983   7.533   5.081   3.361 -0.1112  0.2513 -0.4984
  519MOL0     C69984   7.438   4.974   3.358 -0.0729  0.9982 -0.4478
  519MOL0     C69985   6.986   4.886   3.362  0.9628  0.2946  0.0987
  519MOL0     C69986   6.968   4.928   3.221  1.3960 -0.2453 -0.0130
  519MOL0     C69987   6.834   4.925   3.170 -0.0312 -0.4273  0.8684
  519MOL0     C69988   6.721   4.893   3.239 -0.5503 -0.7388  0.3652
  519MOL0     O69989   6.598   4.893   3.181  0.4522  0.0614  0.4245
  519MOL0     C69990   6.498   4.794   3.216 -0.0899  0.0799  1.1308
  519MOL0     C69991   6.397   4.850   3.326  1.0253 -0.0627  0.5776
  519MOL0     C69992   6.282   4.940   3.266 -0.8179  0.2166 -0.0634
  519MOL0     C69993   6.153   4.856   3.266  0.5956 -0.5478 -0.2534
  519MOL0     C69994   6.058   4.943   3.206 -0.2548 -0.0618 -0.4581
  519MOL0     C69995   5.979   5.018   3.155 -0.5018 -0.0398  0.0693
  519MOL0     C69996   6.739   4.857   3.374 -2.0292  0.2461 -1.4531
  519MOL0     C69997   6.867   4.858   3.433  0.4483  0.4472 -0.0529
  519MOL0     H69998   7.163   5.163   3.364  0.7018  1.4079  0.5293
  519MOL0     H69999   7.333   5.344   3.358  0.0680 -0.1714 -0.4309
  519MOL0     H70000   7.760   5.198   3.423 -1.3570 -0.4786 -1.1344
  519MOL0     H70001   7.750   5.285   3.261  1.7262  0.6133  0.1769
  519MOL0     H70002   7.772   5.419   3.539 -1.8745 -0.4089  0.4203
  519MOL0     H70003   7.914   5.368   3.442 -1.0318 -2.3069 -1.0721
  519MOL0     H70004   7.843   5.532   3.257  2.7376  1.2332  0.4856
  519MOL0     H70005   7.698   5.576   3.350 -1.6568  0.2076  1.4449
  519MOL0     H70006   7.879   5.624   3.532  2.0731  3.2898  0.4047
  519MOL0     H70007   7.999   5.591   3.403  0.0417 -0.4735  1.9847
  519MOL0     H70008   7.900   5.762   3.249  2.0063 -0.0431  0.4219
  519MOL0     H70009   7.775   5.787   3.369 -1.1120 -2.5007 -2.9415
  519MOL0     H70010   7.957   5.863   3.534  2.7386 -1.7942  0.9523
  519MOL0     H70011   8.076   5.849   3.398  0.1660 -0.8521  2.9755
  519MOL0     H70012   7.862   6.055   3.444  2.1843  0.8706  3.0664
  519MOL0     H70013   8.028   6.073   3.401 -0.9504  0.2929  1.5879
  519MOL0     H70014   7.822   5.975   3.203  0.8727  0.4510 -4.0840
  519MOL0     H70015   7.985   5.982   3.169  1.1468 -0.0665  1.3069
  519MOL0     H70016   7.979   6.186   2.979  1.4497  0.2866 -0.5185
  519MOL0     H70017   7.815   6.381   2.866 -0.4584  3.7392 -1.5968
  519MOL0     H70018   7.821   6.534   2.954  1.6290  1.2522  0.3504
  519MOL0     H70019   8.082   6.385   2.899 -0.5484  0.6447  3.9856
  519MOL0     H70020   8.073   6.560   2.931  2.7648  0.3574 -2.7534
  519MOL0     H70021   7.927   6.572   2.710 -0.8143 -1.1495  0.7825
  519MOL0     H70022   7.983   6.421   2.687 -2.3766 -0.7646  0.4948
  519MOL0     H70023   8.199   6.629   2.716 -4.4100  0.9629  2.0374
  519MOL0     H70024   8.129   6.570   2.567 -0.8419 -0.2246  1.1697
  519MOL0     H70025   8.335   6.190   2.619 -0.9320  0.5289  0.7608
  519MOL0     H70026   8.483   6.052   2.454 -1.0770 -0.7649  1.5661
  519MOL0     H70027   8.641   6.105   2.430  1.0508 -2.5576  0.4762
  519MOL0     H70028   8.580   6.056   2.595  3.7732 -2.2341 -3.0430
  519MOL0     H70029   8.940   6.581   2.409  6.2917 -0.0620  1.1181
  519MOL0     H70030   9.171   6.589   2.309 -0.4636  0.3615  2.0540
  519MOL0     H70031   9.292   6.231   2.122  1.2563 -1.9020 -1.0822
  519MOL0     H70032   9.264   6.308   1.974  3.1270 -1.6065 -1.0076
  519MOL0     H70033   9.490   6.449   2.053  1.3359  0.2190  0.9918
  519MOL0     H70034   9.516   6.286   2.125  0.9736  0.1490 -1.4198
  519MOL0     H70035   9.524   6.186   1.900  5.2460 -0.0014  1.3780
  519MOL0     H70036   9.621   6.318   1.907  0.3683 -0.9392  1.8653
  519MOL0     H70037   9.373   6.294   1.749 -1.6444  2.3292 -2.5389
  519MOL0     H70038   9.426   6.459   1.796  0.7846 -0.4481 -0.4763
  519MOL0     H70039   9.570   6.258   1.621  2.3188 -0.9901  1.7794
  519MOL0     H70040   9.658   6.398   1.693  1.7308 -3.3620  0.3844
  519MOL0     H70041   9.523   6.418   1.452 -1.4803 -0.5257 -0.2661
  519MOL0     H70042   9.398   6.482   1.560 -0.4180  0.2120 -1.5722
  519MOL0     H70043   9.685   6.578   1.570 -0.5935 -2.8339  0.1714
  519MOL0     H70044   9.547   6.648   1.660  0.6648 -0.3312  1.2265
  519MOL0     H70045   9.440   6.739   1.503  0.0167 -0.9490  2.4636
  519MOL0     H70046   9.492   6.643   1.362  1.0518 -0.9580 -0.0098
  519MOL0     H70047   9.069   6.258   2.054  2.3594 -0.3692  0.9000
  519MOL0     H70048   8.847   6.283   2.108  3.9850 -2.6228 -2.3844
  519MOL0     H70049   8.604   6.584   2.478 -2.0128  1.1706 -1.6668
  519MOL0     H70050   8.393   6.622   2.584  0.5472  1.5645 -4.7559
  519MOL0     H70051   7.639   5.058   3.354  0.6307  3.4873 -1.5129
  519MOL0     H70052   7.471   4.873   3.337 -1.1058 -0.4762  3.9297
  519MOL0     H70053   7.056   4.943   3.159  1.2742 -2.3231 -0.7593
  519MOL0     H70054   6.824   4.943   3.063  2.2989  2.2893  0.9933
  519MOL0     H70055   6.452   4.761   3.123  3.1637  3.2825 -1.9089
  519MOL0     H70056   6.548   4.707   3.259 -3.4690 -1.7027  1.7902
  519MOL0     H70057   6.452   4.912   3.398  0.9257  0.9547 -0.1877
  519MOL0     H70058   6.356   4.770   3.387  0.3549 -1.1900 -1.2710
  519MOL0     H70059   6.316   4.978   3.170 -1.5816  0.6952 -0.1531
  519MOL0     H70060   6.263   5.030   3.324 -1.2363 -0.2792  0.5899
  519MOL0     H70061   6.111   4.827   3.363  0.1221  1.9129  0.3366
  519MOL0     H70062   6.170   4.772   3.198  1.4538  0.9611 -2.0010
  519MOL0     H70063   5.908   5.087   3.113 -1.2925 -0.3279  0.9082
  519MOL0     H70064   6.653   4.841   3.438 -0.3758  2.4268  1.5607
  519MOL0     H70065   6.874   4.827   3.537 -0.7752 -0.4358 -0.2122
  520MOL0     O70066   8.577   3.201   2.249 -0.5559  0.3822  0.5405
  520MOL0     C70067   8.571   3.141   2.140 -0.5403 -0.6975  0.7012
  520MOL0     O70068   8.499   3.026   2.124  0.8803  0.4416  0.4305
  520MOL0     C70069   8.442   2.974   2.240  0.3583  0.2846 -0.2604
  520MOL0     C70070   8.489   2.848   2.295 -0.5911 -0.0353 -1.1571
  520MOL0     C70071   8.442   2.807   2.424  0.0463 -0.9355 -0.0054
  520MOL0     C70072   8.353   2.884   2.494 -0.0112  0.3311 -0.0266
  520MOL0     O70073   8.311   2.829   2.611 -0.0039  0.3483 -0.3606
  520MOL0     C70074   8.306   2.917   2.723 -0.7346  0.7710 -0.6340
  520MOL0     C70075   8.240   2.843   2.848  0.7442 -0.3395  0.1542
  520MOL0     C70076   8.322   2.724   2.900 -0.0773 -0.4361 -0.1453
  520MOL0     C70077   8.454   2.746   2.985 -0.8062 -0.1744 -0.5056
  520MOL0     C70078   8.432   2.831   3.111  0.1585  0.9357  0.2490
  520MOL0     C70079   8.471   2.982   3.090 -0.4284 -0.2120 -0.0418
  520MOL0     C70080   8.405   3.063   3.200 -0.4776 -0.7197  0.5486
  520MOL0     C70081   8.415   3.209   3.156  0.1091 -0.5683  0.1584
  520MOL0     N70082   8.348   3.306   3.246 -0.2952 -0.1498 -0.1097
  520MOL0     C70083   8.308   3.294   3.379 -0.8996  0.3423 -0.1434
  520MOL0     C70084   8.273   3.415   3.417  0.3615  0.6320  1.1641
  520MOL0     C70085   8.212   3.451   3.551  0.2174 -0.5703 -0.3142
  520MOL0     C70086   8.065   3.495   3.546 -0.5113  0.1131 -0.9493
  520MOL0     C70087   7.949   3.404   3.489 -0.4104 -0.2081  1.6551
  520MOL0     C70088   7.885   3.309   3.591 -1.4970  0.0060 -1.0267
  520MOL0     O70089   7.994   3.216   3.616 -0.1341 -0.7621 -0.0349
  520MOL0     C70090   8.000   3.095   3.539  0.4259  0.3386 -0.0718
  520MOL0     C70091   8.114   3.010   3.550 -0.4311  0.1771  0.0766
  520MOL0     C70092   8.136   2.901   3.468 -0.0742  0.2235 -0.5217
  520MOL0     C70093   8.262   2.823   3.502  0.3017 -0.4173  0.0062
  520MOL0     C70094   8.042   2.854   3.373  0.2656 -0.0938  0.9394
  520MOL0     C70095   8.057   2.744   3.273  0.3246  0.2257 -0.5207
  520MOL0     O70096   8.153   2.655   3.298 -0.3073  0.4732 -0.1885
  520MOL0     C70097   8.162   2.523   3.252 -0.3700 -0.8138  0.4428
  520MOL0     C70098   8.049   2.445   3.207  0.7339  0.1169  0.3345
  520MOL0     C70099   8.065   2.314   3.153  1.0773 -0.9443 -0.1418
  520MOL0     C70100   8.188   2.257   3.168 -0.7218 -0.1482 -0.4030
  520MOL0     O70101   8.228   2.138   3.111  0.3042  0.2748 -0.5111
  520MOL0     C70102   8.131   2.055   3.045  0.2164 -0.1157 -0.2387
  520MOL0     C70103   8.188   1.918   3.008  0.4375  0.8185  0.1918
  520MOL0     C70104   8.094   1.848   2.908 -0.4554 -0.2754  0.1678
  520MOL0     C70105   7.965   1.809   2.972  0.2116 -1.5949  1.2015
  520MOL0     C70106   7.975   1.705   3.078  0.3113  0.1873  0.7055
  520MOL0     C70107   7.883   1.592   3.037  0.1936  0.4205 -0.3205
  520MOL0     C70108   7.928   1.465   3.104  0.8103 -0.6716  0.2992
  520MOL0     C70109   8.043   1.396   3.027  0.1318  0.2063 -0.3648
  520MOL0    Cl70110   8.196   1.453   3.106 -0.0930 -0.0338  0.3720
  520MOL0     C70111   8.303   2.337   3.211 -0.1297 -0.4942  0.3530
  520MOL0     C70112   8.287   2.461   3.263  0.8512  0.9723 -0.3371
  520MOL0     O70113   7.980   2.747   3.174  0.2856 -0.2475 -0.2916
  520MOL0     C70114   7.921   2.937   3.359  0.1766  0.8581 -0.2524
  520MOL0     C70115   7.916   3.052   3.441  1.0553 -0.1954  0.2809
  520MOL0     N70116   8.272   3.508   3.310  0.5754  0.3104 -1.1013
  520MOL0     N70117   8.318   3.433   3.212  0.6100  0.4320  0.4645
  520MOL0     C70118   8.303   2.999   2.445  0.2657  0.0316 -0.0263
  520MOL0     C70119   8.345   3.046   2.319 -0.2043  0.0939  0.2617
  520MOL0     C70120   8.637   3.212   2.023 -0.3128 -1.0619  0.2215
  520MOL0     C70121   8.704   3.341   2.028 -0.3384  0.3491 -1.2119
  520MOL0     C70122   8.762   3.401   1.912  0.6277 -0.3815  0.4746
  520MOL0     C70123   8.749   3.341   1.793  0.5247 -0.3397  1.2623
  520MOL0     O70124   8.804   3.385   1.675 -0.4669  0.7550  0.5319
  520MOL0     C70125   8.942   3.348   1.655 -0.3629  0.9494 -0.4419
  520MOL0     C70126   8.958   3.212   1.573  0.0425  0.3398 -0.0350
  520MOL0     C70127   8.925   3.230   1.422  0.0206 -0.0952  0.0937
  520MOL0     C70128   9.000   3.135   1.332  0.2515 -0.9536  0.6999
  520MOL0     C70129   8.968   2.996   1.376  0.2373 -0.3609  0.5900
  520MOL0     C70130   8.956   2.875   1.409  0.1174 -0.1932  0.0071
  520MOL0     C70131   8.687   3.213   1.788  0.7442  0.9844 -1.3448
  520MOL0     C70132   8.631   3.151   1.901  0.9227  0.1463  0.6892
  520MOL0     H70133   8.567   2.786   2.253 -2.3042 -3.3146  0.0818
  520MOL0     H70134   8.492   2.724   2.472 -0.2038 -0.6284  0.8013
  520MOL0     H70135   8.404   2.957   2.748 -0.7615  0.6672 -0.3538
  520MOL0     H70136   8.239   3.002   2.707 -1.7789 -0.0230 -0.6722
  520MOL0     H70137   8.223   2.920   2.924  2.4865  0.4287 -0.1900
  520MOL0     H70138   8.146   2.801   2.812  0.5005 -2.2227  2.6667
  520MOL0     H70139   8.253   2.667   2.962  2.2549 -2.3452  0.8282
  520MOL0     H70140   8.353   2.662   2.815  2.1354  0.5268 -0.1171
  520MOL0     H70141   8.491   2.650   3.021  1.6119  1.7243  2.5820
  520MOL0     H70142   8.527   2.789   2.915  0.1961  0.1004  0.6725
  520MOL0     H70143   8.329   2.820   3.147 -1.3714  0.8271 -3.6039
  520MOL0     H70144   8.492   2.782   3.188  2.1130 -1.7653 -2.7435
  520MOL0     H70145   8.580   2.996   3.082 -0.0390 -2.2233  1.1366
  520MOL0     H70146   8.441   3.012   2.989 -2.5074  1.6648  1.0439
  520MOL0     H70147   8.300   3.034   3.212 -0.8404  0.0813 -0.5850
  520MOL0     H70148   8.465   3.032   3.287  1.4633  1.2619 -0.0002
  520MOL0     H70149   8.386   3.219   3.051  2.0763 -2.2498 -0.6100
  520MOL0     H70150   8.522   3.231   3.153  0.3109 -1.6280 -1.2110
  520MOL0     H70151   8.317   3.199   3.430 -0.0146  1.3325  1.5963
  520MOL0     H70152   8.234   3.366   3.616  0.5409  1.0599  1.8351
  520MOL0     H70153   8.263   3.537   3.595 -0.1413 -0.0693 -0.8518
  520MOL0     H70154   8.074   3.580   3.477  2.5792 -0.5675 -1.5524
  520MOL0     H70155   8.040   3.541   3.642 -1.0513  1.1014 -1.5481
  520MOL0     H70156   7.993   3.354   3.402 -0.5608  2.9729 -0.3904
  520MOL0     H70157   7.865   3.461   3.448 -2.0212 -3.0050  0.7693
  520MOL0     H70158   7.803   3.248   3.551 -1.8555  0.3276 -0.7874
  520MOL0     H70159   7.855   3.365   3.680  1.3605 -1.0798  0.7428
  520MOL0     H70160   8.196   3.055   3.605 -0.1297  0.8872 -0.9296
  520MOL0     H70161   8.324   2.876   3.575 -0.5480  0.5305  0.0633
  520MOL0     H70162   8.253   2.719   3.534 -0.7918 -0.0638  0.9171
  520MOL0     H70163   8.316   2.829   3.407 -1.1567 -1.1899 -0.9249
  520MOL0     H70164   7.950   2.488   3.213  0.7954  0.6071 -1.4851
  520MOL0     H70165   7.976   2.264   3.115 -1.2567  0.6858  2.7010
  520MOL0     H70166   8.039   2.047   3.102 -0.4896 -1.3922 -1.5021
  520MOL0     H70167   8.097   2.104   2.953 -2.7982 -0.5288  0.5520
  520MOL0     H70168   8.289   1.939   2.971  1.2092 -0.3381  1.5498
  520MOL0     H70169   8.202   1.851   3.093 -3.3154  0.8367  0.9969
  520MOL0     H70170   8.141   1.755   2.875 -0.3249  0.3887 -1.6003
  520MOL0     H70171   8.072   1.904   2.817 -3.7860 -1.0569  0.3545
  520MOL0     H70172   7.915   1.897   3.014  0.5400 -0.4420 -0.6998
  520MOL0     H70173   7.903   1.780   2.886 -0.0790 -0.2061  0.9073
  520MOL0     H70174   7.927   1.741   3.170  0.0718 -2.5134  1.7147
  520MOL0     H70175   8.075   1.669   3.103  1.8744  1.4751 -2.9839
  520MOL0     H70176   7.789   1.616   3.086  0.4585 -1.9386  1.5144
  520MOL0     H70177   7.883   1.571   2.930  1.0459  0.8051 -0.4049
  520MOL0     H70178   7.849   1.389   3.109  1.2272 -1.0790  0.8720
  520MOL0     H70179   7.953   1.482   3.209 -2.0561  1.7419  0.7319
  520MOL0     H70180   8.031   1.409   2.919 -4.9257 -0.4743 -0.1473
  520MOL0     H70181   8.031   1.287   3.024  1.3140  0.0783 -1.3040
  520MOL0     H70182   8.398   2.285   3.211 -0.6462 -1.4611  1.0737
  520MOL0     H70183   8.372   2.511   3.309 -0.2391  1.1016  1.6113
  520MOL0     H70184   7.847   2.925   3.280  0.6195  1.4333 -0.7611
  520MOL0     H70185   7.820   3.094   3.415  0.1434 -3.0857 -1.4688
  520MOL0     H70186   8.226   3.055   2.496  0.3687 -0.1226  0.3018
  520MOL0     H70187   8.312   3.139   2.276 -2.4728 -0.6522  0.2424
  520MOL0     H70188   8.690   3.390   2.124  0.5594  2.0680 -1.9154
  520MOL0     H70189   8.798   3.502   1.894 -0.1003  0.0796  1.5279
  520MOL0     H70190   8.993   3.424   1.595 -1.8728 -0.1557 -3.3380
  520MOL0     H70191   8.987   3.328   1.752  0.8771 -0.4871 -1.2742
  520MOL0     H70192   8.902   3.133   1.624 -0.3751  1.6079  1.5375
  520MOL0     H70193   9.065   3.189   1.565 -0.2018 -0.2584 -2.3529
  520MOL0     H70194   8.966   3.326   1.388 -0.3746  0.1298  0.2553
  520MOL0     H70195   8.818   3.239   1.403  0.2098  2.1131 -0.2438
  520MOL0     H70196   9.109   3.144   1.335  0.3890 -2.2247  0.1591
  520MOL0     H70197   8.963   3.156   1.232 -2.8520  1.3164  2.1613
  520MOL0     H70198   8.956   2.775   1.448  1.8729 -0.2363 -0.0304
  520MOL0     H70199   8.685   3.154   1.697  1.0654 -3.2556  1.1264
  520MOL0     H70200   8.574   3.059   1.887  1.3454  0.3071 -3.6080
  521MOL0     O70201   9.373   0.895   4.229  0.2888  0.4601 -0.9917
  521MOL0     C70202   9.367   0.969   4.125  1.1838  0.2340  1.3867
  521MOL0     O70203   9.326   1.100   4.121  0.1816 -0.2596  0.6799
  521MOL0     C70204   9.291   1.145   4.242  0.7636 -0.0915 -0.2941
  521MOL0     C70205   9.169   1.127   4.313  1.1721  0.1309 -0.5739
  521MOL0     C70206   9.133   1.171   4.445  0.3246 -0.9426  0.9246
  521MOL0     C70207   9.231   1.239   4.518 -0.1198 -0.4084  0.7402
  521MOL0     O70208   9.221   1.269   4.650  0.9141  0.1390 -0.0032
  521MOL0     C70209   9.104   1.320   4.701  0.1437 -0.5846 -0.0324
  521MOL0     C70210   8.989   1.225   4.749  0.8201  0.1659  0.1025
  521MOL0     C70211   9.020   1.147   4.886 -0.3557  0.0425 -0.5291
  521MOL0     C70212   8.946   1.007   4.895 -0.1061  0.7055  0.2038
  521MOL0     C70213   8.939   0.950   5.039  0.3363 -0.3234  0.8869
  521MOL0     C70214   8.844   0.828   5.054 -0.6957 -0.6985  0.4121
  521MOL0     C70215   8.903   0.687   5.063 -0.2671  0.1249 -0.4913
  521MOL0     C70216   8.802   0.581   5.109 -0.6423 -0.3257  0.1166
  521MOL0     N70217   8.707   0.557   5.010 -0.2621 -0.5276  0.9909
  521MOL0     C70218   8.727   0.515   4.880  0.5165 -1.2506 -0.3394
  521MOL0     C70219   8.613   0.559   4.822  0.6892  0.2041 -0.5864
  521MOL0     C70220   8.572   0.499   4.690 -1.1856  0.0844  0.6633
  521MOL0     C70221   8.502   0.372   4.680 -0.0959  0.4324 -0.5659
  521MOL0     C70222   8.582   0.261   4.755  0.4632  0.5295 -1.1000
  521MOL0     C70223   8.508   0.191   4.876  0.6402  0.1064 -0.3027
  521MOL0     O70224   8.366   0.170   4.845  0.0984  0.2464  1.0713
  521MOL0     C70225   8.329   0.066   4.773  0.3173 -0.5150 -1.1569
  521MOL0     C70226   8.344   0.061   4.638 -0.0661  0.0187 -0.2009
  521MOL0     C70227   8.296  -0.041   4.553 -0.3043 -0.2934  0.4798
  521MOL0     C70228   8.319  -0.032   4.403  0.2530 -0.5849  0.8193
  521MOL0     C70229   8.244  -0.154   4.613 -1.0546  1.0200 -0.7717
  521MOL0     C70230   8.182  -0.275   4.542  0.5374  0.0313 -0.5149
  521MOL0     O70231   8.106  -0.357   4.623 -0.0344  0.2577 -0.0527
  521MOL0     C70232   8.085  -0.483   4.566  0.3339 -0.0916  1.0029
  521MOL0     C70233   8.189  -0.576   4.551 -0.3576 -0.1605 -0.1115
  521MOL0     C70234   8.173  -0.702   4.494  0.5873  0.2788 -0.4086
  521MOL0     C70235   8.041  -0.734   4.451 -0.5846 -1.1122 -0.1717
  521MOL0     O70236   8.013  -0.850   4.383 -0.1025  0.2139 -1.1796
  521MOL0     C70237   7.880  -0.896   4.351  0.3022 -0.0646  0.6927
  521MOL0     C70238   7.886  -1.005   4.239 -0.5850 -0.6039  0.4365
  521MOL0     C70239   7.935  -0.960   4.102  0.0142  0.1090  0.3282
  521MOL0     C70240   7.896  -1.050   3.981  0.5319 -0.6756 -0.2539
  521MOL0     C70241   7.937  -1.005   3.844 -0.4484 -1.1512 -0.0071
  521MOL0     C70242   7.886  -0.865   3.808 -0.4922  0.0864 -0.3480
  521MOL0     C70243   7.934  -0.827   3.669  0.0604  0.1887 -1.0212
  521MOL0     C70244   7.806  -0.775   3.601 -0.1930  0.2747 -0.5576
  521MOL0    Cl70245   7.709  -0.922   3.556 -0.6824  0.1042 -0.1031
  521MOL0     C70246   7.933  -0.642   4.476  0.4671  0.4296 -0.1445
  521MOL0     C70247   7.954  -0.524   4.533 -0.3111 -0.3313  0.1358
  521MOL0     O70248   8.190  -0.296   4.420  0.2308 -0.1553 -0.4442
  521MOL0     C70249   8.234  -0.157   4.756 -1.0737  0.1850 -0.6379
  521MOL0     C70250   8.275  -0.047   4.831 -0.7637 -1.1234 -0.2656
  521MOL0     N70251   8.529   0.614   4.912 -0.0508 -0.4151  1.2183
  521MOL0     N70252   8.586   0.613   5.027 -0.0787  0.3980 -0.6842
  521MOL0     C70253   9.355   1.259   4.457  0.0169  1.6319 -0.2104
  521MOL0     C70254   9.384   1.220   4.319 -0.1253  0.9763 -0.2709
  521MOL0     C70255   9.405   0.903   3.992  0.8952  0.1738  1.1858
  521MOL0     C70256   9.487   0.788   3.980 -0.1181  1.0401 -0.5070
  521MOL0     C70257   9.524   0.735   3.850  0.2931  1.0282 -0.2912
  521MOL0     C70258   9.487   0.795   3.737  0.4183 -0.1267  0.6668
  521MOL0     O70259   9.521   0.718   3.625 -0.1132  0.1760  0.9200
  521MOL0     C70260   9.481   0.766   3.494 -0.1449  0.5673  1.3596
  521MOL0     C70261   9.563   0.694   3.389  0.6582 -0.9586 -1.0078
  521MOL0     C70262   9.486   0.688   3.259 -0.2748 -0.1749 -0.4980
  521MOL0     C70263   9.568   0.626   3.144 -1.2534 -0.4936  0.1148
  521MOL0     C70264   9.493   0.603   3.021  1.0868  0.0222 -0.0587
  521MOL0     C70265   9.417   0.593   2.915  0.1677  0.5616 -0.5667
  521MOL0     C70266   9.401   0.907   3.745 -0.3486  0.6139  0.4162
  521MOL0     C70267   9.372   0.967   3.872 -0.2116  0.2638  0.4613
  521MOL0     H70268   9.094   1.064   4.265 -2.2304  2.8540  0.7680
  521MOL0     H70269   9.031   1.153   4.478 -0.0956  0.9706  0.7441
  521MOL0     H70270   9.127   1.389   4.782  0.1004  2.0873 -2.1542
  521MOL0     H70271   9.057   1.381   4.623 -1.9907 -0.8139  0.9897
  521MOL0     H70272   8.897   1.280   4.768  2.0454  2.4052 -0.0596
  521MOL0     H70273   8.980   1.143   4.677  0.4476  0.0092  0.3284
  521MOL0     H70274   9.128   1.131   4.885  0.6850  5.3174 -2.9659
  521MOL0     H70275   9.009   1.207   4.976 -0.7054  0.0134 -0.5483
  521MOL0     H70276   8.842   1.022   4.865  0.0638  0.2050 -0.6425
  521MOL0     H70277   8.981   0.932   4.825 -1.0566  0.7942 -0.3892
  521MOL0     H70278   9.039   0.934   5.082  2.1784  5.2691 -0.5657
  521MOL0     H70279   8.900   1.029   5.103  1.3822 -0.7857  2.1591
  521MOL0     H70280   8.790   0.843   5.148 -1.0369 -1.0363  0.2704
  521MOL0     H70281   8.765   0.836   4.980  0.6889  1.5337 -0.9284
  521MOL0     H70282   8.946   0.660   4.966  0.1242  2.1975 -0.9302
  521MOL0     H70283   8.993   0.686   5.126 -0.2925  0.2151 -0.4532
  521MOL0     H70284   8.758   0.609   5.206  0.0690 -0.0363  0.3711
  521MOL0     H70285   8.856   0.487   5.121  3.3568  1.5576 -1.3832
  521MOL0     H70286   8.810   0.452   4.850  1.2970 -0.7302  0.6607
  521MOL0     H70287   8.512   0.580   4.648 -0.2930  0.5016  0.1591
  521MOL0     H70288   8.662   0.490   4.627  1.1887 -1.4578  3.9675
  521MOL0     H70289   8.496   0.341   4.575  0.6513  0.7312 -0.6962
  521MOL0     H70290   8.399   0.382   4.718  0.3353 -1.7320  1.4098
  521MOL0     H70291   8.681   0.298   4.781 -0.2101  0.2274  2.5297
  521MOL0     H70292   8.602   0.182   4.683 -0.1656 -1.2298  0.5476
  521MOL0     H70293   8.507   0.258   4.963  0.6880 -1.1115  0.6587
  521MOL0     H70294   8.555   0.101   4.915 -0.3190  0.6311  2.2638
  521MOL0     H70295   8.391   0.145   4.588 -2.2801 -0.8823 -4.2328
  521MOL0     H70296   8.333   0.074   4.381  0.1036 -0.2981  2.0578
  521MOL0     H70297   8.410  -0.085   4.374  0.1723 -0.2472 -0.0901
  521MOL0     H70298   8.235  -0.065   4.340  1.9800  0.5320 -2.2592
  521MOL0     H70299   8.292  -0.547   4.569  0.4122 -2.3157 -0.6931
  521MOL0     H70300   8.259  -0.766   4.474  1.0243  1.1310 -1.3521
  521MOL0     H70301   7.833  -0.934   4.442  3.0083 -0.8224  1.8732
  521MOL0     H70302   7.824  -0.812   4.309  1.3202  1.1753  1.7432
  521MOL0     H70303   7.946  -1.094   4.265 -0.7327  0.1589  3.8182
  521MOL0     H70304   7.785  -1.043   4.220  0.0687 -1.7253 -1.0086
  521MOL0     H70305   8.044  -0.948   4.097  0.0835 -0.9265 -2.7706
  521MOL0     H70306   7.898  -0.858   4.086  2.4013  1.6827  3.5815
  521MOL0     H70307   7.935  -1.150   4.003  2.9391 -0.1785 -1.7908
  521MOL0     H70308   7.788  -1.062   3.990  0.3515  0.2489 -0.9765
  521MOL0     H70309   7.900  -1.080   3.774 -2.0148 -1.4788  1.1069
  521MOL0     H70310   8.046  -1.001   3.835 -0.5244 -0.7202 -0.7134
  521MOL0     H70311   7.778  -0.866   3.826 -0.0381 -1.0026  3.1138
  521MOL0     H70312   7.920  -0.781   3.869  0.5633 -0.1141 -0.6363
  521MOL0     H70313   7.978  -0.908   3.610 -0.9819 -0.6494 -0.6722
  521MOL0     H70314   8.003  -0.742   3.673  0.8377 -0.4221 -1.0524
  521MOL0     H70315   7.829  -0.716   3.512 -0.2867 -2.7467 -2.7346
  521MOL0     H70316   7.748  -0.712   3.669  3.2568  0.3658  2.6222
  521MOL0     H70317   7.831  -0.644   4.439  0.2773 -2.1153  0.3210
  521MOL0     H70318   7.869  -0.459   4.550 -1.1097 -0.9581 -1.2278
  521MOL0     H70319   8.203  -0.248   4.806  2.0065 -1.3125 -1.1914
  521MOL0     H70320   8.283  -0.045   4.939 -0.2861  2.5517 -0.2489
  521MOL0     H70321   9.438   1.310   4.504  1.8971 -0.4018 -1.1154
  521MOL0     H70322   9.485   1.234   4.284  1.2035 -1.7128  2.1078
  521MOL0     H70323   9.504   0.750   4.080 -0.0463 -0.1392 -0.9571
  521MOL0     H70324   9.569   0.637   3.841 -2.8466 -0.5828 -0.0253
  521MOL0     H70325   9.375   0.743   3.484  0.1339  0.1258 -2.0294
  521MOL0     H70326   9.508   0.871   3.481  2.1369  0.1990  2.5557
  521MOL0     H70327   9.571   0.589   3.420 -1.1620 -1.1442 -1.0312
  521MOL0     H70328   9.660   0.739   3.368 -0.1438 -0.1697 -3.3624
  521MOL0     H70329   9.463   0.790   3.226  3.4799  0.5109 -1.3911
  521MOL0     H70330   9.393   0.633   3.276  1.9019 -3.9904  0.0979
  521MOL0     H70331   9.608   0.532   3.181 -0.4958 -0.2911 -0.1716
  521MOL0     H70332   9.652   0.689   3.113  0.5764 -2.4597  0.8121
  521MOL0     H70333   9.348   0.571   2.837 -1.4798 -1.2123  1.2510
  521MOL0     H70334   9.369   0.964   3.658  1.7128  0.0785 -0.7706
  521MOL0     H70335   9.307   1.054   3.878 -0.8409 -0.2972  2.2028
  522MOL0     O70336   2.469   3.983  10.517 -0.3984  0.4053  0.0054
  522MOL0     C70337   2.540   3.943  10.418 -0.2011 -0.5034 -0.0740
  522MOL0     O70338   2.493   3.890  10.300 -0.0732  0.7140 -0.1397
  522MOL0     C70339   2.355   3.860  10.279 -1.0488 -0.9772  0.3261
  522MOL0     C70340   2.276   3.803  10.374 -0.5437 -0.3452 -0.2965
  522MOL0     C70341   2.136   3.808  10.349 -0.5944  1.0654 -0.0046
  522MOL0     C70342   2.090   3.836  10.220 -0.7205 -0.3728  0.2259
  522MOL0     O70343   1.955   3.808  10.218  0.0228 -0.3977  0.0070
  522MOL0     C70344   1.901   3.758  10.092  0.9283 -0.4101  0.2524
  522MOL0     C70345   1.785   3.672  10.133 -0.4329  0.5129  0.2629
  522MOL0     C70346   1.658   3.686  10.041 -0.2725  0.3406 -0.1236
  522MOL0     C70347   1.655   3.593   9.915  0.1774 -1.2907  0.1463
  522MOL0     C70348   1.545   3.661   9.822 -0.6912 -0.3278  0.0079
  522MOL0     C70349   1.554   3.608   9.676 -0.0266 -0.7442  0.6590
  522MOL0     C70350   1.696   3.629   9.610  0.1818  0.9062 -0.0817
  522MOL0     C70351   1.732   3.771   9.581  0.2477 -0.5937 -0.7153
  522MOL0     N70352   1.863   3.799   9.638 -0.3156  0.1795 -0.1508
  522MOL0     C70353   1.984   3.753   9.595 -1.2223 -0.2944  0.7084
  522MOL0     C70354   2.075   3.809   9.679  0.1243  1.3666 -0.0526
  522MOL0     C70355   2.214   3.760   9.681 -0.9801 -0.1156  0.0267
  522MOL0     C70356   2.242   3.678   9.803 -0.1533  0.2337 -0.7182
  522MOL0     C70357   2.388   3.616   9.790  0.7047  0.0963 -0.9019
  522MOL0     C70358   2.389   3.482   9.872  0.4355  0.0077  0.1202
  522MOL0     O70359   2.515   3.419   9.849  0.6080 -0.3157 -0.6295
  522MOL0     C70360   2.627   3.459   9.911  0.4543  0.9006  0.1941
  522MOL0     C70361   2.738   3.402   9.856 -0.0333 -0.0341  0.9403
  522MOL0     C70362   2.863   3.430   9.909  0.1766  1.1149  0.1096
  522MOL0     C70363   2.983   3.351   9.850  0.3444 -0.0391 -0.7900
  522MOL0     C70364   2.890   3.529  10.001  0.8638  0.2227 -0.2108
  522MOL0     C70365   3.020   3.573  10.034 -0.9047 -0.1477  0.1420
  522MOL0     O70366   3.132   3.482  10.025  0.5259 -0.0068  0.4300
  522MOL0     C70367   3.226   3.496  10.125 -0.5344 -0.0766 -0.2449
  522MOL0     C70368   3.196   3.487  10.263 -0.1180 -0.3294  0.8444
  522MOL0     C70369   3.295   3.504  10.352 -0.0186 -0.5898 -0.5844
  522MOL0     C70370   3.434   3.516  10.322 -0.4252  0.5477 -0.0044
  522MOL0     O70371   3.536   3.541  10.418 -0.8832  0.4800  0.1156
  522MOL0     C70372   3.519   3.491  10.554 -0.1620 -0.5927 -0.0526
  522MOL0     C70373   3.648   3.438  10.621 -0.3508  0.2849 -0.2516
  522MOL0     C70374   3.778   3.513  10.578 -0.0183 -1.0893 -0.9280
  522MOL0     C70375   3.773   3.649  10.639  0.4740 -0.2826  1.6472
  522MOL0     C70376   3.902   3.719  10.662 -0.1178 -0.7697 -1.0205
  522MOL0     C70377   3.977   3.741  10.525  0.0362  0.1844  0.5363
  522MOL0     C70378   3.936   3.878  10.470  1.1597  0.0297  0.2625
  522MOL0     C70379   4.003   3.921  10.341 -0.0553 -0.0467  0.0045
  522MOL0    Cl70380   4.176   3.949  10.369  0.0932 -0.2216 -0.0684
  522MOL0     C70381   3.469   3.529  10.184  0.6307  0.1204 -0.4276
  522MOL0     C70382   3.363   3.520  10.086  0.6006  0.5808 -0.3212
  522MOL0     O70383   3.037   3.687  10.079  0.5522 -0.0487 -0.1044
  522MOL0     C70384   2.771   3.587  10.056 -0.3571  0.3710 -0.5976
  522MOL0     C70385   2.648   3.557  10.011  1.0101 -0.0985  0.1680
  522MOL0     N70386   2.000   3.883   9.771  0.2141 -0.4689 -0.5961
  522MOL0     N70387   1.873   3.884   9.744  0.4672  0.8301  0.2958
  522MOL0     C70388   2.172   3.883  10.124 -0.5732  0.1831  0.2571
  522MOL0     C70389   2.311   3.892  10.143  0.2099  0.1231 -0.3888
  522MOL0     C70390   2.689   3.955  10.422  0.0299  0.6783  0.8149
  522MOL0     C70391   2.758   3.865  10.342 -0.2614  0.3520 -0.5683
  522MOL0     C70392   2.898   3.879  10.344 -0.3092 -0.1783 -0.9471
  522MOL0     C70393   2.968   3.967  10.420  0.6578  0.3649 -0.7878
  522MOL0     O70394   3.109   3.963  10.417  0.0216  0.0264 -0.1338
  522MOL0     C70395   3.179   3.878  10.317 -0.2201 -0.7466 -0.0946
  522MOL0     C70396   3.320   3.934  10.347  0.0925  0.9995 -0.3896
  522MOL0     C70397   3.417   3.882  10.243  0.4163  0.7639 -0.4812
  522MOL0     C70398   3.553   3.879  10.294 -0.7564  0.4865 -0.8824
  522MOL0     C70399   3.606   4.013  10.292 -0.5869  0.4077 -0.7829
  522MOL0     C70400   3.662   4.123  10.295  0.4702  0.9518 -0.7535
  522MOL0     C70401   2.896   4.051  10.502 -0.7337  0.1242 -0.6132
  522MOL0     C70402   2.752   4.048  10.502  0.3195  0.0967 -0.7408
  522MOL0     H70403   2.308   3.748  10.462 -4.5145  0.8160  2.1684
  522MOL0     H70404   2.068   3.770  10.424 -0.3771 -0.0288 -0.3386
  522MOL0     H70405   1.873   3.846  10.034 -1.1088 -0.0350  1.7203
  522MOL0     H70406   1.975   3.709  10.028  3.9652  2.4122  1.2664
  522MOL0     H70407   1.816   3.567  10.125 -1.1444  0.4515 -2.4430
  522MOL0     H70408   1.746   3.687  10.234 -0.6195 -0.6567  0.3781
  522MOL0     H70409   1.569   3.644  10.089 -0.8813  2.4604  0.7384
  522MOL0     H70410   1.637   3.793  10.028 -0.8983  0.1281 -0.9566
  522MOL0     H70411   1.756   3.598   9.874  1.1745  1.3404  2.6043
  522MOL0     H70412   1.634   3.487   9.933  2.7670 -2.1807 -1.5755
  522MOL0     H70413   1.439   3.637   9.835 -1.0505  0.8935 -0.4854
  522MOL0     H70414   1.558   3.770   9.820  0.6562 -0.3129  3.2976
  522MOL0     H70415   1.544   3.499   9.678 -1.3390 -0.6355  1.8751
  522MOL0     H70416   1.472   3.656   9.622  0.9060 -1.8364 -1.8645
  522MOL0     H70417   1.781   3.587   9.665 -1.8848 -3.0924  0.4892
  522MOL0     H70418   1.699   3.562   9.523 -1.2558  2.7596 -1.6554
  522MOL0     H70419   1.648   3.837   9.604  1.0967  0.3104 -0.1040
  522MOL0     H70420   1.751   3.793   9.476  1.9942  0.7912 -0.1553
  522MOL0     H70421   2.006   3.687   9.512  0.1581 -0.2130  0.9832
  522MOL0     H70422   2.238   3.712   9.585 -1.9269  1.8188 -1.2461
  522MOL0     H70423   2.276   3.850   9.679 -0.2855 -0.5919 -1.7526
  522MOL0     H70424   2.169   3.599   9.823  0.2244 -0.0061 -0.2351
  522MOL0     H70425   2.243   3.753   9.883 -1.4577 -1.1720  0.6946
  522MOL0     H70426   2.463   3.676   9.842 -1.4025 -1.0125  3.9972
  522MOL0     H70427   2.415   3.592   9.687 -0.9637 -2.2539 -0.8651
  522MOL0     H70428   2.308   3.414   9.843  0.0368  0.5188  0.0081
  522MOL0     H70429   2.365   3.497   9.978 -1.3631  0.8211 -0.3488
  522MOL0     H70430   2.724   3.328   9.779  1.9832 -0.3147  0.7834
  522MOL0     H70431   3.028   3.309   9.940 -0.4428  3.5556  1.4738
  522MOL0     H70432   2.965   3.269   9.781 -0.0288  0.7310 -1.6349
  522MOL0     H70433   3.058   3.420   9.808  0.8125  1.3910  2.1633
  522MOL0     H70434   3.091   3.466  10.281  0.2357 -2.5549  0.5828
  522MOL0     H70435   3.264   3.502  10.456  0.0819 -2.9673 -0.5542
  522MOL0     H70436   3.472   3.566  10.618 -0.2025 -0.2364 -0.4982
  522MOL0     H70437   3.454   3.403  10.555 -1.3080  0.2250 -1.0516
  522MOL0     H70438   3.637   3.439  10.730 -0.6528 -1.2320 -0.2423
  522MOL0     H70439   3.675   3.335  10.597 -0.1848  1.1376 -4.5443
  522MOL0     H70440   3.782   3.516  10.469  0.3593 -1.5019 -0.9280
  522MOL0     H70441   3.860   3.458  10.626  0.3746 -1.3677 -1.9016
  522MOL0     H70442   3.706   3.701  10.570  0.1107 -0.2623  2.0086
  522MOL0     H70443   3.724   3.654  10.737  2.2711  1.0877  2.5539
  522MOL0     H70444   3.953   3.645  10.724 -4.8215 -5.5553 -2.1210
  522MOL0     H70445   3.901   3.809  10.724 -0.9297 -1.6914  0.3527
  522MOL0     H70446   4.086   3.742  10.539  0.1166  0.2300 -0.0648
  522MOL0     H70447   3.953   3.659  10.458 -2.4641 -0.3709  1.9863
  522MOL0     H70448   3.942   3.952  10.551 -1.6045 -4.2934  5.0981
  522MOL0     H70449   3.828   3.875  10.451  0.9044  0.4212  1.5162
  522MOL0     H70450   3.956   4.012  10.303 -2.1150 -2.1239 -2.8007
  522MOL0     H70451   3.977   3.847  10.265  0.0572 -0.2694  0.1808
  522MOL0     H70452   3.573   3.536  10.153  0.9794 -0.7343  0.5031
  522MOL0     H70453   3.370   3.509   9.978 -1.3895  0.3171 -0.4598
  522MOL0     H70454   2.789   3.652  10.141  0.1564 -0.4848 -0.0301
  522MOL0     H70455   2.571   3.602  10.073  0.4440 -0.4237 -0.2890
  522MOL0     H70456   2.126   3.894  10.026  1.0128  0.5226 -0.4716
  522MOL0     H70457   2.382   3.916  10.065  2.4397 -0.2307  1.3974
  522MOL0     H70458   2.708   3.791  10.280  0.4885 -0.2242 -0.5038
  522MOL0     H70459   2.950   3.822  10.268  0.9230  0.6127 -0.7164
  522MOL0     H70460   3.173   3.770  10.327  0.0450 -0.7114  0.4749
  522MOL0     H70461   3.132   3.899  10.220  0.0669 -3.5851 -0.9348
  522MOL0     H70462   3.357   3.910  10.447 -0.6035 -2.7535 -0.8698
  522MOL0     H70463   3.320   4.043  10.340  1.9440  0.9245 -4.1470
  522MOL0     H70464   3.410   3.944  10.153 -0.5886  1.0140 -0.2482
  522MOL0     H70465   3.394   3.777  10.222 -4.1295  1.9877 -2.8356
  522MOL0     H70466   3.623   3.815  10.239  1.9506  1.0366  1.6826
  522MOL0     H70467   3.575   3.843  10.395  2.9191 -2.4936 -2.4743
  522MOL0     H70468   3.722   4.208  10.318 -0.2092  1.8655 -2.2504
  522MOL0     H70469   2.956   4.125  10.555  2.5225  0.7689 -4.6196
  522MOL0     H70470   2.702   4.115  10.571  0.6594 -0.8930  0.5100
  523MOL0     O70471   6.946   1.082   6.573 -0.4863 -0.1936 -0.2505
  523MOL0     C70472   6.961   1.141   6.470 -0.4171  0.4518  0.2611
  523MOL0     O70473   6.871   1.155   6.371  0.2411 -0.4950 -0.3535
  523MOL0     C70474   6.740   1.123   6.381 -0.4108  0.1044  1.1772
  523MOL0     C70475   6.678   1.090   6.260  0.9704  1.0134  0.1537
  523MOL0     C70476   6.538   1.061   6.252 -0.4578 -0.0575  0.6670
  523MOL0     C70477   6.461   1.075   6.373  0.6612 -0.5560 -0.1377
  523MOL0     O70478   6.326   1.065   6.383 -0.5918 -0.2506  0.7489
  523MOL0     C70479   6.240   1.105   6.271  0.0462 -0.1740  0.1399
  523MOL0     C70480   6.105   1.087   6.338 -0.4131 -1.1326  0.5887
  523MOL0     C70481   6.053   0.943   6.373  0.5733 -0.0107  0.3106
  523MOL0     C70482   6.018   0.853   6.261 -0.2358 -0.0936 -0.0753
  523MOL0     C70483   5.950   0.714   6.313 -0.5149  0.3750 -0.3435
  523MOL0     C70484   5.873   0.649   6.198 -0.8867 -0.8961 -0.5959
  523MOL0     C70485   5.854   0.499   6.213  0.2370 -0.2055  0.8770
  523MOL0     C70486   5.951   0.447   6.109 -0.0749  0.1382  0.7742
  523MOL0     N70487   5.935   0.294   6.101 -1.0394  0.0847 -0.8379
  523MOL0     C70488   5.964   0.205   6.204 -0.0251 -1.0932  0.4496
  523MOL0     C70489   5.912   0.093   6.167  0.0280  0.3351  0.8659
  523MOL0     C70490   5.905  -0.025   6.258  0.7228 -0.1682  0.0560
  523MOL0     C70491   6.026  -0.107   6.239 -0.2798  0.0989  0.3127
  523MOL0     C70492   6.002  -0.255   6.279 -0.9625 -0.3000 -0.5260
  523MOL0     C70493   6.129  -0.333   6.284 -0.8849 -0.4647  0.0370
  523MOL0     O70494   6.222  -0.270   6.371  0.0148 -0.3354  0.2321
  523MOL0     C70495   6.215  -0.300   6.509  0.2867  0.4111 -0.2664
  523MOL0     C70496   6.147  -0.396   6.586 -0.5751  0.6039  0.2212
  523MOL0     C70497   6.146  -0.392   6.730 -0.8262  0.8074  0.4258
  523MOL0     C70498   6.084  -0.507   6.813 -0.2911  0.0029  1.0109
  523MOL0     C70499   6.214  -0.294   6.799  0.9568 -0.8365 -0.0885
  523MOL0     C70500   6.236  -0.279   6.948  0.3885 -0.1788  0.1387
  523MOL0     O70501   6.275  -0.157   6.985 -0.5318  0.0372  0.3476
  523MOL0     C70502   6.311  -0.133   7.113  0.6873  0.1807 -0.4105
  523MOL0     C70503   6.411  -0.217   7.171 -0.5238 -0.5288  0.7302
  523MOL0     C70504   6.446  -0.197   7.304 -0.4941  1.3924 -0.6579
  523MOL0     C70505   6.387  -0.100   7.377  0.5485 -0.0282  0.2397
  523MOL0     O70506   6.434  -0.085   7.500  0.2307 -0.8475 -0.2247
  523MOL0     C70507   6.420   0.029   7.588  0.0959 -0.1779  0.6301
  523MOL0     C70508   6.506   0.148   7.536  0.0807  0.1698  0.5261
  523MOL0     C70509   6.661   0.115   7.557  1.2810 -0.3266 -0.2874
  523MOL0     C70510   6.739   0.250   7.555 -0.2417  0.4577  0.5803
  523MOL0     C70511   6.890   0.221   7.577 -0.3032  0.1982  0.5090
  523MOL0     C70512   6.956   0.323   7.667 -0.3255 -0.9006 -0.2316
  523MOL0     C70513   7.090   0.286   7.734 -0.4805  0.2295 -0.1738
  523MOL0     C70514   7.176   0.403   7.789 -0.1613 -0.0097  0.3220
  523MOL0    Cl70515   7.250   0.494   7.651 -0.1665 -0.2353  0.2693
  523MOL0     C70516   6.287  -0.016   7.323  1.2176  0.4381  0.0532
  523MOL0     C70517   6.245  -0.037   7.186  0.9405  1.0519  0.0942
  523MOL0     O70518   6.216  -0.370   7.034 -0.5329  0.1643  0.1530
  523MOL0     C70519   6.279  -0.197   6.722  0.2898 -0.6130  0.4984
  523MOL0     C70520   6.272  -0.197   6.580  0.5004  0.0100  0.5331
  523MOL0     N70521   5.865   0.098   6.037 -0.1833 -0.3381 -0.0184
  523MOL0     N70522   5.889   0.216   5.995  0.0897 -0.9659 -0.3889
  523MOL0     C70523   6.526   1.096   6.496 -1.1388  0.6475  0.4340
  523MOL0     C70524   6.663   1.125   6.497 -0.5464 -0.0379  0.3304
  523MOL0     C70525   7.087   1.214   6.429 -0.3195  0.0707 -0.9324
  523MOL0     C70526   7.192   1.205   6.528 -0.7450  0.9136  1.0471
  523MOL0     C70527   7.309   1.279   6.513  0.3494 -0.5087  0.3633
  523MOL0     C70528   7.312   1.374   6.411 -0.1190  0.4911 -1.3719
  523MOL0     O70529   7.425   1.463   6.430  0.5104 -0.3614  0.2888
  523MOL0     C70530   7.432   1.583   6.346  0.2637  0.7007 -0.0047
  523MOL0     C70531   7.522   1.554   6.226  1.5982 -0.1681  0.3909
  523MOL0     C70532   7.661   1.545   6.271  0.1546 -0.3181  0.2552
  523MOL0     C70533   7.746   1.509   6.155  0.7039  0.9605 -0.7371
  523MOL0     C70534   7.723   1.377   6.089 -0.0852 -0.7253  0.1157
  523MOL0     C70535   7.712   1.275   6.018  0.1897  0.6123 -0.2739
  523MOL0     C70536   7.219   1.369   6.317 -0.1370  0.2359  0.3234
  523MOL0     C70537   7.103   1.294   6.317  0.8039  0.6459 -0.1143
  523MOL0     H70538   6.728   1.074   6.165  1.2216 -0.7296  0.5392
  523MOL0     H70539   6.495   1.030   6.157  2.7293  1.6135 -1.5114
  523MOL0     H70540   6.255   1.210   6.243 -1.4328  0.3716  1.2769
  523MOL0     H70541   6.250   1.042   6.183 -1.6564  2.1889 -1.8638
  523MOL0     H70542   6.114   1.147   6.429  1.2100  3.1560 -2.0734
  523MOL0     H70543   6.031   1.141   6.278 -0.2469 -3.5305 -1.9824
  523MOL0     H70544   6.124   0.897   6.442 -1.3170  0.4502  2.7031
  523MOL0     H70545   5.961   0.957   6.430  0.7140 -0.1600  0.5697
  523MOL0     H70546   5.949   0.917   6.205  1.7185  0.3612 -2.0954
  523MOL0     H70547   6.109   0.834   6.204 -0.7488  1.5814 -1.5398
  523MOL0     H70548   6.023   0.645   6.358 -2.2357 -0.6732  0.9596
  523MOL0     H70549   5.875   0.732   6.390  2.6679 -2.7157  3.9948
  523MOL0     H70550   5.779   0.705   6.199  1.3953  3.4452 -1.2338
  523MOL0     H70551   5.913   0.681   6.101  0.3688 -1.1038 -0.1711
  523MOL0     H70552   5.858   0.467   6.318  0.5710 -0.6651  0.7262
  523MOL0     H70553   5.749   0.473   6.193 -0.6144  2.7414  1.0208
  523MOL0     H70554   6.053   0.483   6.129 -0.8827  1.4937  2.7042
  523MOL0     H70555   5.927   0.492   6.012  3.0878 -2.0202 -1.1961
  523MOL0     H70556   6.008   0.222   6.302 -0.8446  0.4531  0.5885
  523MOL0     H70557   5.888   0.008   6.361  1.7677 -1.1249  0.5634
  523MOL0     H70558   5.815  -0.073   6.219  1.9634 -1.8376 -0.9472
  523MOL0     H70559   6.099  -0.060   6.306 -0.5639  0.2026  0.5490
  523MOL0     H70560   6.051  -0.106   6.133 -4.4521 -1.6739 -0.8994
  523MOL0     H70561   5.935  -0.308   6.210  0.1711 -0.5696 -1.4695
  523MOL0     H70562   5.967  -0.267   6.381  3.4395 -3.1880  0.9511
  523MOL0     H70563   6.169  -0.339   6.183 -0.0259  1.8663  0.1901
  523MOL0     H70564   6.113  -0.433   6.326 -1.6799 -0.5436 -0.4510
  523MOL0     H70565   6.097  -0.482   6.541 -0.1317 -1.0017  2.6093
  523MOL0     H70566   6.162  -0.558   6.871 -0.0036 -1.8937 -0.9101
  523MOL0     H70567   6.016  -0.464   6.887 -0.1260  0.6638  0.7841
  523MOL0     H70568   6.048  -0.578   6.738  0.3167 -1.0416  1.6725
  523MOL0     H70569   6.451  -0.293   7.105 -5.4713  0.7410 -4.4991
  523MOL0     H70570   6.519  -0.255   7.359 -0.2570  2.1308 -0.1824
  523MOL0     H70571   6.316   0.061   7.591  0.0104 -0.4426  3.2945
  523MOL0     H70572   6.452  -0.018   7.682  1.1249 -3.8986 -1.3515
  523MOL0     H70573   6.488   0.181   7.434 -1.9413  2.4716  1.5288
  523MOL0     H70574   6.469   0.237   7.587 -0.3890  1.0524 -1.3120
  523MOL0     H70575   6.701   0.051   7.477  3.8954  2.8932 -1.8237
  523MOL0     H70576   6.671   0.083   7.661 -1.6891  0.3333  0.2743
  523MOL0     H70577   6.718   0.314   7.470 -2.1595 -0.7482  0.0962
  523MOL0     H70578   6.702   0.299   7.645  2.8135  2.1108  1.0962
  523MOL0     H70579   6.929   0.215   7.475 -0.2039  2.6942  0.3408
  523MOL0     H70580   6.897   0.124   7.627 -0.5397 -0.3452 -0.4815
  523MOL0     H70581   6.980   0.415   7.612  0.5465  0.6793  2.6202
  523MOL0     H70582   6.882   0.353   7.741  0.7064 -0.1212  0.5031
  523MOL0     H70583   7.156   0.229   7.668  0.3088 -0.1468  0.9245
  523MOL0     H70584   7.071   0.212   7.812 -1.6764  1.0244  0.3150
  523MOL0     H70585   7.255   0.359   7.851 -2.0260 -4.8105 -0.2752
  523MOL0     H70586   7.114   0.475   7.843  2.5915  1.7261  1.3840
  523MOL0     H70587   6.248   0.071   7.374  1.2333  0.2127  0.4502
  523MOL0     H70588   6.172   0.020   7.129 -1.2273 -1.2179  0.4320
  523MOL0     H70589   6.341  -0.126   6.776 -0.0282 -1.5554  2.1490
  523MOL0     H70590   6.309  -0.119   6.514 -0.1448 -1.8872 -2.2994
  523MOL0     H70591   6.475   1.112   6.591  0.0816  2.4339  0.8520
  523MOL0     H70592   6.706   1.151   6.593 -1.7175 -1.7806  1.3843
  523MOL0     H70593   7.192   1.139   6.614  1.4518  2.1282  2.0789
  523MOL0     H70594   7.392   1.278   6.582  1.3621  0.6461 -0.7924
  523MOL0     H70595   7.332   1.608   6.309 -2.0735 -1.6057  4.0317
  523MOL0     H70596   7.474   1.658   6.414 -0.6346  1.8437 -0.6757
  523MOL0     H70597   7.527   1.633   6.150  2.7385 -1.4406 -0.9035
  523MOL0     H70598   7.474   1.470   6.175 -0.3474  0.0640  1.7557
  523MOL0     H70599   7.662   1.477   6.357  0.3697 -2.8572 -1.6506
  523MOL0     H70600   7.697   1.644   6.300  2.6182 -0.7611 -1.0225
  523MOL0     H70601   7.852   1.524   6.176  1.1098 -0.3322 -1.7142
  523MOL0     H70602   7.726   1.584   6.078 -0.2909  0.3761 -1.0647
  523MOL0     H70603   7.701   1.184   5.963 -0.5280  0.6892 -0.2579
  523MOL0     H70604   7.228   1.434   6.230 -4.0724 -0.5491 -0.8965
  523MOL0     H70605   7.030   1.309   6.238  0.6802  2.6438  0.3268
  524MOL0     O70606   6.458   6.412   9.040  0.0574 -0.6716 -0.3612
  524MOL0     C70607   6.557   6.479   9.045 -0.6412 -0.1105 -0.1896
  524MOL0     O70608   6.684   6.453   9.093 -0.2337  0.5555  0.4724
  524MOL0     C70609   6.680   6.355   9.187  0.0116 -0.0073  0.3084
  524MOL0     C70610   6.703   6.383   9.322 -0.9516 -0.4243 -0.3338
  524MOL0     C70611   6.698   6.279   9.418 -0.2270  0.1013  0.3101
  524MOL0     C70612   6.658   6.147   9.387 -0.8565  1.0669  0.2136
  524MOL0     O70613   6.649   6.059   9.494  0.9174  0.2196 -0.0146
  524MOL0     C70614   6.591   5.928   9.478  0.3950  0.1075 -0.5384
  524MOL0     C70615   6.606   5.849   9.609 -0.2662 -0.3641  0.2930
  524MOL0     C70616   6.750   5.811   9.638  0.3560  0.1184  0.7807
  524MOL0     C70617   6.759   5.742   9.777 -0.0210  0.0261  0.0717
  524MOL0     C70618   6.911   5.707   9.812  0.2311 -1.6853 -0.2879
  524MOL0     C70619   6.921   5.637   9.950 -0.8950  0.3553  0.0528
  524MOL0     C70620   6.866   5.717  10.076  0.7831  0.5398  0.1279
  524MOL0     C70621   6.950   5.843  10.125 -0.5307 -0.1688 -0.5025
  524MOL0     N70622   7.090   5.805  10.162 -0.3673  0.4094 -0.1695
  524MOL0     C70623   7.143   5.756  10.285 -0.6378  0.4723 -1.0815
  524MOL0     C70624   7.278   5.787  10.275  0.1162 -0.0726  0.0219
  524MOL0     C70625   7.382   5.762  10.382  0.8803 -0.0057 -0.1334
  524MOL0     C70626   7.447   5.628  10.354 -0.6890 -0.3689 -0.5575
  524MOL0     C70627   7.527   5.628  10.228  1.5694 -0.2703 -0.1719
  524MOL0     C70628   7.594   5.494  10.214 -0.5456 -0.1326  0.2929
  524MOL0     O70629   7.713   5.512  10.141 -0.2813  0.1004 -0.0186
  524MOL0     C70630   7.745   5.422  10.043 -0.1049 -0.1518 -0.2538
  524MOL0     C70631   7.869   5.353  10.031 -0.0209 -0.6571  1.1219
  524MOL0     C70632   7.893   5.255   9.939 -0.0345  0.5962  0.0675
  524MOL0     C70633   8.028   5.192   9.933  0.2021 -0.4520 -0.3116
  524MOL0     C70634   7.796   5.216   9.848 -0.3203 -0.2264  0.1340
  524MOL0     C70635   7.814   5.098   9.747 -0.4258 -0.1369 -1.3679
  524MOL0     O70636   7.798   5.119   9.614  0.5941 -0.1264 -0.1220
  524MOL0     C70637   7.796   5.245   9.561 -0.2012 -0.8364 -0.0262
  524MOL0     C70638   7.671   5.298   9.515 -0.3154 -0.0809  0.7756
  524MOL0     C70639   7.665   5.417   9.445  0.5165 -0.6230 -0.0233
  524MOL0     C70640   7.775   5.498   9.425 -0.1170  0.2862 -0.5751
  524MOL0     O70641   7.776   5.623   9.370  0.9230  0.4244 -0.5872
  524MOL0     C70642   7.657   5.670   9.308 -0.0487 -0.3096 -0.3222
  524MOL0     C70643   7.697   5.809   9.237  0.2921  0.9300 -0.6761
  524MOL0     C70644   7.780   5.780   9.116 -0.8524  0.2755 -1.0984
  524MOL0     C70645   7.851   5.899   9.049  0.4269  0.2237  0.1734
  524MOL0     C70646   7.919   5.840   8.920 -0.1371 -0.6091 -0.4429
  524MOL0     C70647   7.997   5.946   8.838  0.6078 -0.1578 -0.4667
  524MOL0     C70648   8.063   5.885   8.708 -0.6646  0.2821 -0.9620
  524MOL0     C70649   8.146   5.991   8.637 -0.2653  0.0131 -0.2293
  524MOL0    Cl70650   8.186   5.944   8.481 -0.6110  0.2367  0.4214
  524MOL0     C70651   7.897   5.448   9.466 -0.7233 -0.8580 -0.2766
  524MOL0     C70652   7.911   5.323   9.535  0.0704  0.4765  0.3879
  524MOL0     O70653   7.841   4.990   9.799 -0.8241 -0.7236  0.1752
  524MOL0     C70654   7.688   5.305   9.835 -0.2984  0.1513  0.7959
  524MOL0     C70655   7.657   5.406   9.936 -0.0781  0.7135 -0.0706
  524MOL0     N70656   7.304   5.861  10.158 -0.7053 -0.8083 -0.5230
  524MOL0     N70657   7.194   5.861  10.093  0.7683 -0.1490 -0.3291
  524MOL0     C70658   6.643   6.119   9.245  0.3576  0.3353 -1.6459
  524MOL0     C70659   6.654   6.218   9.149 -0.0170  0.1071  0.4724
  524MOL0     C70660   6.552   6.602   8.972 -0.1706 -0.4913  0.1299
  524MOL0     C70661   6.451   6.631   8.879  0.6841 -0.0301  0.3717
  524MOL0     C70662   6.441   6.755   8.803 -0.3798  0.1918 -0.7982
  524MOL0     C70663   6.542   6.854   8.827  0.2272 -0.2740  0.1400
  524MOL0     O70664   6.541   6.975   8.760 -0.2879 -0.0189 -0.4929
  524MOL0     C70665   6.433   7.062   8.798 -0.6901  0.6322 -0.5466
  524MOL0     C70666   6.489   7.202   8.848 -0.1803 -0.4474 -0.2295
  524MOL0     C70667   6.563   7.194   8.989 -0.3490 -0.1330  0.2889
  524MOL0     C70668   6.604   7.336   9.028 -0.5257 -0.0295  0.8135
  524MOL0     C70669   6.747   7.346   8.978  0.0119 -0.5104 -0.9734
  524MOL0     C70670   6.847   7.364   8.926 -0.0741 -0.2320 -0.3853
  524MOL0     C70671   6.655   6.819   8.914  0.5422  0.2511  0.1465
  524MOL0     C70672   6.663   6.706   8.993  0.6286 -0.8012 -0.3827
  524MOL0     H70673   6.702   6.487   9.351  0.7264 -0.7375  1.0039
  524MOL0     H70674   6.724   6.283   9.523  1.7395 -3.6288  0.1338
  524MOL0     H70675   6.482   5.930   9.465  0.2621  0.0075  0.4832
  524MOL0     H70676   6.624   5.868   9.392  0.4310 -2.7172  1.3144
  524MOL0     H70677   6.574   5.917   9.688  0.7929 -1.6359  1.8855
  524MOL0     H70678   6.536   5.765   9.602 -0.4865 -0.3052  1.4812
  524MOL0     H70679   6.787   5.752   9.553 -0.0733 -0.2151  0.8263
  524MOL0     H70680   6.809   5.903   9.647 -1.3831  1.1773  1.7110
  524MOL0     H70681   6.720   5.817   9.846 -2.0619 -2.0496  1.3288
  524MOL0     H70682   6.703   5.649   9.788 -2.5283  1.6675  2.3794
  524MOL0     H70683   6.944   5.638   9.735  1.3735 -0.2430 -1.1304
  524MOL0     H70684   6.979   5.793   9.815  2.3771 -3.3116  3.1176
  524MOL0     H70685   6.892   5.532   9.940  1.0585 -0.0624 -2.0292
  524MOL0     H70686   7.030   5.632   9.958 -0.9429  1.3707  1.7517
  524MOL0     H70687   6.763   5.748  10.058  1.2794  0.5630 -3.5426
  524MOL0     H70688   6.865   5.648  10.161  3.0963 -0.9908 -0.9823
  524MOL0     H70689   6.913   5.873  10.224 -1.1053  1.3882 -1.1493
  524MOL0     H70690   6.956   5.927  10.055 -0.8617 -1.4423 -2.0966
  524MOL0     H70691   7.110   5.716  10.380  1.9970  4.2793  1.7584
  524MOL0     H70692   7.455   5.843  10.374 -2.4966  3.3127  0.1219
  524MOL0     H70693   7.334   5.761  10.480 -0.7939 -1.4230 -0.9082
  524MOL0     H70694   7.373   5.549  10.339  1.2559 -2.1447 -1.3804
  524MOL0     H70695   7.517   5.608  10.436 -1.6074  0.8578  0.5690
  524MOL0     H70696   7.605   5.704  10.224  0.6607  0.6523 -0.9590
  524MOL0     H70697   7.454   5.648  10.149 -0.3250  0.8791  1.7582
  524MOL0     H70698   7.522   5.421  10.176 -0.1186 -0.2284 -0.3328
  524MOL0     H70699   7.626   5.453  10.311 -2.3699  0.8510  1.3728
  524MOL0     H70700   7.945   5.375  10.106 -1.8061  1.9549  2.3228
  524MOL0     H70701   8.057   5.143   9.840  0.9349  0.4227 -0.5552
  524MOL0     H70702   8.110   5.262   9.949  1.2945 -1.6723 -0.3772
  524MOL0     H70703   8.031   5.118  10.014 -0.0902  1.7710  1.8498
  524MOL0     H70704   7.576   5.247   9.527 -1.1688  1.1873 -0.2601
  524MOL0     H70705   7.568   5.451   9.409  0.1317 -1.2717  0.3727
  524MOL0     H70706   7.609   5.596   9.242  3.2687 -1.7411 -1.3421
  524MOL0     H70707   7.573   5.698   9.372 -2.9311 -3.0073 -2.5368
  524MOL0     H70708   7.606   5.855   9.197  1.1810  1.3573 -2.2725
  524MOL0     H70709   7.743   5.878   9.307  1.4456 -1.6195  1.2171
  524MOL0     H70710   7.706   5.745   9.044 -2.6681  3.3144 -0.9150
  524MOL0     H70711   7.857   5.705   9.135  0.1412  1.0632 -1.9006
  524MOL0     H70712   7.779   5.974   9.015  0.2085 -0.3469 -0.6613
  524MOL0     H70713   7.927   5.947   9.112  2.2781 -0.9310 -1.0871
  524MOL0     H70714   7.844   5.800   8.850  2.3507  0.1653 -3.8191
  524MOL0     H70715   7.993   5.765   8.949 -0.3270 -0.7560 -0.3390
  524MOL0     H70716   7.929   6.022   8.798  1.5814  0.1509 -1.5893
  524MOL0     H70717   8.060   5.993   8.914 -0.6513 -0.6484  0.9365
  524MOL0     H70718   7.988   5.843   8.640  0.0417 -3.0385  0.0762
  524MOL0     H70719   8.122   5.797   8.738 -1.1575  0.0183 -0.7309
  524MOL0     H70720   8.235   5.984   8.699 -0.0951 -1.4404 -0.6124
  524MOL0     H70721   8.106   6.093   8.639 -1.6136 -0.4575 -1.5746
  524MOL0     H70722   7.991   5.500   9.453  1.0409 -3.3880  1.3693
  524MOL0     H70723   8.008   5.284   9.563  0.9423  3.0710  1.3023
  524MOL0     H70724   7.606   5.301   9.763  1.6154  1.4794 -1.6257
  524MOL0     H70725   7.567   5.466   9.927  1.5536  3.3149 -0.2506
  524MOL0     H70726   6.607   6.019   9.223 -1.8821  0.5591  0.5803
  524MOL0     H70727   6.652   6.213   9.040  1.7058  0.2388  0.4075
  524MOL0     H70728   6.374   6.555   8.872  0.3380  0.3918 -0.5649
  524MOL0     H70729   6.356   6.753   8.736  0.8004 -1.5748 -2.3599
  524MOL0     H70730   6.373   7.079   8.708 -0.3936  1.3824 -0.6149
  524MOL0     H70731   6.365   7.024   8.874  0.0764  2.2255  1.0078
  524MOL0     H70732   6.410   7.275   8.869  2.9059  2.1699  3.7186
  524MOL0     H70733   6.560   7.226   8.768 -1.2244 -1.8858 -1.6492
  524MOL0     H70734   6.641   7.117   8.994  0.2111  0.4375  0.5855
  524MOL0     H70735   6.488   7.167   9.064 -2.5146 -0.5461 -1.9238
  524MOL0     H70736   6.602   7.342   9.137 -1.8985 -0.1729  0.8147
  524MOL0     H70737   6.532   7.409   8.988 -1.3510 -2.1728 -1.9508
  524MOL0     H70738   6.937   7.393   8.876 -1.2866  2.4909 -1.1525
  524MOL0     H70739   6.730   6.898   8.911  2.2259 -1.3190 -1.5575
  524MOL0     H70740   6.741   6.689   9.067  0.5385  1.8942  0.4459
  525MOL0     O70741   0.452   2.205   3.307  0.1530  0.2278 -0.7302
  525MOL0     C70742   0.371   2.202   3.215  0.0419 -0.0639 -0.9502
  525MOL0     O70743   0.267   2.125   3.216  0.3442  0.6566 -0.4199
  525MOL0     C70744   0.277   2.007   3.284 -0.5101 -0.3452 -0.1941
  525MOL0     C70745   0.268   2.015   3.426 -0.2227 -0.0756 -0.3407
  525MOL0     C70746   0.265   1.897   3.517  0.3561  0.0714  0.1562
  525MOL0     C70747   0.265   1.776   3.449 -0.2584  0.9205 -0.1932
  525MOL0     O70748   0.250   1.651   3.516  0.0866 -0.1242  0.0575
  525MOL0     C70749   0.221   1.649   3.659 -0.8765 -0.5953 -0.0143
  525MOL0     C70750   0.173   1.496   3.672  0.0553 -0.3730 -0.3810
  525MOL0     C70751   0.038   1.467   3.615  0.5492  0.9356  0.2584
  525MOL0     C70752  -0.032   1.338   3.688 -0.2004 -0.2518 -0.2437
  525MOL0     C70753   0.054   1.213   3.667 -0.0979 -0.5329  0.0437
  525MOL0     C70754   0.071   1.157   3.525  0.2482  0.3416  0.8316
  525MOL0     C70755   0.195   1.063   3.506  0.1642  0.7091 -0.3227
  525MOL0     C70756   0.187   0.974   3.384 -0.5738  0.3766 -1.3383
  525MOL0     N70757   0.053   0.909   3.359 -0.8720 -0.3372  0.3243
  525MOL0     C70758  -0.044   0.945   3.268 -0.4719 -0.1973 -0.2657
  525MOL0     C70759  -0.135   0.845   3.280 -0.3508  0.0993 -0.7411
  525MOL0     C70760  -0.259   0.835   3.207  0.8085  0.5226 -0.4359
  525MOL0     C70761  -0.295   0.696   3.147  0.0308  0.7901  0.4904
  525MOL0     C70762  -0.432   0.702   3.084  1.3071 -0.3557 -0.6479
  525MOL0     C70763  -0.461   0.590   2.982 -1.0780 -0.0777  0.6599
  525MOL0     O70764  -0.599   0.586   2.940  0.9641  0.2285  1.1790
  525MOL0     C70765  -0.630   0.660   2.823  1.3671  1.7180 -0.5894
  525MOL0     C70766  -0.545   0.737   2.758  0.7793 -1.0267  1.1792
  525MOL0     C70767  -0.582   0.796   2.631 -0.1347  0.6455  0.1328
  525MOL0     C70768  -0.471   0.870   2.560  1.0945  0.8141 -0.8269
  525MOL0     C70769  -0.716   0.781   2.586  0.6197 -0.3782  0.3958
  525MOL0     C70770  -0.758   0.837   2.455 -0.1603  0.1091 -0.3731
  525MOL0     O70771  -0.766   0.974   2.447  0.6905 -0.0971  0.7162
  525MOL0     C70772  -0.787   1.030   2.320  1.0469 -0.2349 -0.2071
  525MOL0     C70773  -0.707   1.141   2.290  0.1212 -0.0721 -0.2953
  525MOL0     C70774  -0.738   1.212   2.176  1.3271 -0.1598  0.8912
  525MOL0     C70775  -0.842   1.183   2.085  0.1364 -0.4868  1.5911
  525MOL0     O70776  -0.881   1.259   1.980 -0.5067 -0.1134 -0.1474
  525MOL0     C70777  -0.997   1.233   1.903 -0.3826  0.6831 -0.6385
  525MOL0     C70778  -0.995   1.327   1.776 -0.6301 -0.4590  0.6716
  525MOL0     C70779  -0.905   1.264   1.674 -0.7875 -0.2287  0.6715
  525MOL0     C70780  -0.909   1.346   1.545 -0.2460  0.2918  0.6305
  525MOL0     C70781  -1.043   1.377   1.489 -0.8664 -0.8604  0.0475
  525MOL0     C70782  -1.144   1.261   1.469  0.2121 -0.5065  0.3994
  525MOL0     C70783  -1.086   1.151   1.382  0.4191  1.3642  0.4448
  525MOL0     C70784  -1.034   1.188   1.241  0.5479 -0.4963 -0.7524
  525MOL0    Cl70785  -1.150   1.300   1.147  0.1853 -0.3273 -0.1617
  525MOL0     C70786  -0.915   1.070   2.119 -0.1882 -1.0318  0.5543
  525MOL0     C70787  -0.901   0.999   2.238 -0.6889 -0.1116  0.5042
  525MOL0     O70788  -0.794   0.755   2.367 -0.2872  0.7947 -0.4569
  525MOL0     C70789  -0.803   0.716   2.671  0.0329  0.4902  0.8522
  525MOL0     C70790  -0.764   0.643   2.784 -0.2575 -0.5398  1.2380
  525MOL0     N70791  -0.099   0.764   3.376 -0.2797 -0.1865 -0.5325
  525MOL0     N70792   0.019   0.800   3.425 -0.3499  0.1432 -0.0790
  525MOL0     C70793   0.281   1.767   3.309 -0.3752 -0.4968 -0.4875
  525MOL0     C70794   0.287   1.886   3.228 -0.2978  0.1596 -0.2006
  525MOL0     C70795   0.387   2.295   3.107  0.3015  0.7017 -0.4050
  525MOL0     C70796   0.500   2.368   3.085 -0.7297  0.2983 -0.0185
  525MOL0     C70797   0.500   2.475   3.000 -0.6572 -0.0366  0.0251
  525MOL0     C70798   0.392   2.507   2.925  0.0009  0.0632 -0.0450
  525MOL0     O70799   0.393   2.626   2.855  0.4230  0.3204 -0.4460
  525MOL0     C70800   0.278   2.673   2.783 -0.3010  0.9087  0.9667
  525MOL0     C70801   0.307   2.802   2.716 -1.0695 -0.2559  0.5954
  525MOL0     C70802   0.191   2.858   2.627 -0.5687 -1.7561  0.1168
  525MOL0     C70803   0.085   2.904   2.724  0.0571 -0.1034  0.9174
  525MOL0     C70804  -0.023   2.983   2.665  0.1774  0.2203  0.5407
  525MOL0     C70805  -0.104   3.059   2.605  0.0385 -0.0194 -0.0026
  525MOL0     C70806   0.281   2.421   2.924 -0.4257  0.5654 -0.2720
  525MOL0     C70807   0.268   2.318   3.020 -0.0255 -0.2943 -0.5108
  525MOL0     H70808   0.256   2.112   3.475 -1.2750 -0.0214 -0.6713
  525MOL0     H70809   0.234   1.913   3.620 -0.4948 -1.8896  0.2516
  525MOL0     H70810   0.317   1.681   3.701 -0.9250  3.0126 -2.2364
  525MOL0     H70811   0.147   1.718   3.702 -0.5547  0.1406 -0.6284
  525MOL0     H70812   0.252   1.430   3.636  0.0077 -0.8236  0.3367
  525MOL0     H70813   0.172   1.467   3.777 -2.5014  0.3671 -0.1166
  525MOL0     H70814  -0.039   1.544   3.622 -0.2843  0.0639  1.0046
  525MOL0     H70815   0.046   1.448   3.508 -3.2077  0.2644 -0.0365
  525MOL0     H70816  -0.047   1.371   3.791  0.1331  1.9667 -0.8575
  525MOL0     H70817  -0.128   1.317   3.640 -1.0391 -0.5247  1.4923
  525MOL0     H70818   0.154   1.233   3.707 -0.4704  1.6374 -0.0101
  525MOL0     H70819   0.012   1.139   3.736 -2.2994  0.5021 -0.1028
  525MOL0     H70820  -0.017   1.099   3.495  1.2417  0.5366 -2.9023
  525MOL0     H70821   0.072   1.234   3.448 -2.3748  1.5037  1.8220
  525MOL0     H70822   0.272   1.139   3.496  0.1223  0.8304  0.2067
  525MOL0     H70823   0.205   0.993   3.589 -2.1838  0.0440 -0.5350
  525MOL0     H70824   0.258   0.890   3.380 -1.1343 -0.6108  3.7140
  525MOL0     H70825   0.218   1.027   3.293 -6.2905  1.5210 -3.0358
  525MOL0     H70826  -0.034   1.028   3.199  1.2451 -0.5172 -0.4352
  525MOL0     H70827  -0.328   0.853   3.289  3.3813  0.5768  1.8407
  525MOL0     H70828  -0.264   0.910   3.128 -0.6265 -1.4748 -2.3814
  525MOL0     H70829  -0.305   0.619   3.224 -1.2351  3.1869  2.8777
  525MOL0     H70830  -0.222   0.679   3.067 -2.4220  0.4022 -1.8008
  525MOL0     H70831  -0.458   0.801   3.046 -2.3341  0.1017  2.4726
  525MOL0     H70832  -0.507   0.692   3.163 -0.0482  1.9568 -1.5595
  525MOL0     H70833  -0.442   0.490   3.020  3.6691 -0.2269 -1.3187
  525MOL0     H70834  -0.389   0.606   2.900  0.7219  0.2661  2.2461
  525MOL0     H70835  -0.455   0.767   2.811 -1.1611  3.5168  2.4692
  525MOL0     H70836  -0.490   0.977   2.550  0.2900  0.6764 -0.8452
  525MOL0     H70837  -0.378   0.874   2.618  0.7748  3.7347 -0.3802
  525MOL0     H70838  -0.471   0.829   2.459 -1.5523  0.1683 -0.6380
  525MOL0     H70839  -0.634   1.180   2.360  1.1433 -3.4289  0.6492
  525MOL0     H70840  -0.684   1.304   2.154  0.7958  0.3038  1.4897
  525MOL0     H70841  -0.999   1.128   1.869  1.3693 -0.1329  1.5406
  525MOL0     H70842  -1.080   1.241   1.973  0.4258  1.4210  0.2480
  525MOL0     H70843  -1.096   1.338   1.738 -0.5121  0.9849  0.7226
  525MOL0     H70844  -0.957   1.425   1.808  0.0098 -0.2513 -0.6620
  525MOL0     H70845  -0.938   1.162   1.652  2.7983 -1.1892 -0.8981
  525MOL0     H70846  -0.810   1.258   1.726 -1.1348 -2.9209  1.1294
  525MOL0     H70847  -0.857   1.439   1.569 -0.9447 -0.1895  4.8395
  525MOL0     H70848  -0.842   1.289   1.479 -0.1340 -0.9801  1.8052
  525MOL0     H70849  -1.040   1.420   1.389 -0.6920 -0.9545  0.0126
  525MOL0     H70850  -1.078   1.453   1.559  0.0350 -0.0356 -0.3856
  525MOL0     H70851  -1.158   1.215   1.568 -1.0103 -0.8790  0.0692
  525MOL0     H70852  -1.243   1.288   1.431  0.2175 -0.9115  0.0953
  525MOL0     H70853  -1.173   1.086   1.366  0.0953  2.3092 -2.1222
  525MOL0     H70854  -1.016   1.082   1.429 -0.2262  0.4483  0.1083
  525MOL0     H70855  -1.008   1.096   1.187  1.9204  0.1063 -1.1631
  525MOL0     H70856  -0.947   1.253   1.248 -0.8118  1.2985  0.3608
  525MOL0     H70857  -1.000   1.041   2.059  0.9653 -3.5337  0.0268
  525MOL0     H70858  -0.969   0.916   2.251  2.1957 -2.4783  1.5518
  525MOL0     H70859  -0.906   0.717   2.637  1.1164  0.5689 -2.8889
  525MOL0     H70860  -0.847   0.604   2.841 -2.1062  2.2900  0.6836
  525MOL0     H70861   0.273   1.669   3.262 -1.6947  0.3307 -2.0885
  525MOL0     H70862   0.290   1.865   3.121 -2.5469 -1.8766  0.0467
  525MOL0     H70863   0.583   2.337   3.147  0.8742  0.2053 -2.1025
  525MOL0     H70864   0.591   2.535   2.997 -1.3557  1.0426 -1.1941
  525MOL0     H70865   0.256   2.597   2.708  2.8465  0.3808  0.4655
  525MOL0     H70866   0.191   2.690   2.848  0.2029  0.8400  1.6673
  525MOL0     H70867   0.398   2.790   2.656 -2.0909 -0.0553 -1.0517
  525MOL0     H70868   0.334   2.861   2.804  1.6205 -2.1429  1.1611
  525MOL0     H70869   0.170   2.768   2.569  0.8948 -0.9223 -1.8064
  525MOL0     H70870   0.221   2.948   2.572 -1.8617 -0.8654  0.8170
  525MOL0     H70871   0.134   2.964   2.801  1.4759 -2.0205  1.5849
  525MOL0     H70872   0.044   2.815   2.771 -2.9696  0.0019 -1.2295
  525MOL0     H70873  -0.178   3.118   2.556  0.5002 -0.4276 -1.2181
  525MOL0     H70874   0.190   2.446   2.870  1.0206  2.5094 -1.9323
  525MOL0     H70875   0.182   2.254   3.032  1.1731 -2.2168 -1.5233
  526MOL0     O70876   6.544   1.743   3.821  0.7474 -1.0496  0.4383
  526MOL0     C70877   6.628   1.827   3.839  0.1924 -0.2532 -0.3157
  526MOL0     O70878   6.658   1.879   3.953 -0.1067 -0.9586 -0.4643
  526MOL0     C70879   6.591   1.831   4.070  0.3616 -0.4394  0.6667
  526MOL0     C70880   6.624   1.705   4.117 -1.1332  0.2468 -0.2472
  526MOL0     C70881   6.560   1.646   4.227  0.9871  0.1271 -0.5926
  526MOL0     C70882   6.454   1.705   4.284  0.5760 -0.4884 -0.0677
  526MOL0     O70883   6.384   1.661   4.396  0.2826  0.5814  0.5080
  526MOL0     C70884   6.405   1.524   4.439 -0.5269  0.3030  0.0483
  526MOL0     C70885   6.303   1.491   4.549 -0.2103  0.6186  0.2615
  526MOL0     C70886   6.165   1.461   4.497 -0.5473  0.9349  0.1205
  526MOL0     C70887   6.158   1.333   4.403  0.1777  0.2281  0.1592
  526MOL0     C70888   6.005   1.273   4.401  0.0719  0.5559  0.1561
  526MOL0     C70889   5.905   1.375   4.343 -0.6229  0.2260  0.0923
  526MOL0     C70890   5.757   1.330   4.354 -1.6535  0.8638 -0.2094
  526MOL0     C70891   5.664   1.432   4.273 -0.3654 -0.0011  0.1299
  526MOL0     N70892   5.529   1.385   4.304  0.4292 -0.4888 -0.1924
  526MOL0     C70893   5.426   1.462   4.363  0.0783  0.0920  0.5138
  526MOL0     C70894   5.319   1.380   4.341  0.3698 -0.5930  0.0991
  526MOL0     C70895   5.182   1.410   4.404 -0.0308  1.2959  0.4365
  526MOL0     C70896   5.106   1.295   4.440  0.9142  0.1576 -0.2866
  526MOL0     C70897   4.992   1.313   4.542 -0.4719  0.1417 -0.0032
  526MOL0     C70898   5.033   1.414   4.644 -0.6211 -0.4503 -0.2798
  526MOL0     O70899   5.165   1.384   4.705  0.3865  0.6452 -0.4951
  526MOL0     C70900   5.239   1.480   4.773 -0.2428  0.6336  0.9367
  526MOL0     C70901   5.363   1.434   4.833  0.0297  0.0055  0.3570
  526MOL0     C70902   5.466   1.515   4.878 -0.2900 -1.3400 -0.6669
  526MOL0     C70903   5.592   1.453   4.934 -1.6634  0.7412  1.2879
  526MOL0     C70904   5.436   1.651   4.877 -0.4205 -0.4392 -0.4448
  526MOL0     C70905   5.535   1.755   4.931 -0.2867 -0.8342  1.4247
  526MOL0     O70906   5.535   1.869   4.866 -0.5221 -0.0305  0.6390
  526MOL0     C70907   5.624   1.973   4.881 -0.7355  0.3324 -0.0397
  526MOL0     C70908   5.568   2.100   4.879 -0.8359 -0.3329  0.4099
  526MOL0     C70909   5.636   2.219   4.902  0.2681 -0.7135  0.1121
  526MOL0     C70910   5.776   2.209   4.926  0.0483  0.0516  0.9668
  526MOL0     O70911   5.830   2.328   4.944  0.3243 -0.1755 -1.0642
  526MOL0     C70912   5.974   2.340   4.942 -0.9370  0.2304  0.3988
  526MOL0     C70913   6.012   2.486   4.965 -0.8229 -0.2615  1.2061
  526MOL0     C70914   5.964   2.582   4.848  0.5597  0.0821 -0.5071
  526MOL0     C70915   6.057   2.597   4.730  0.9551 -1.1766  0.6601
  526MOL0     C70916   6.014   2.725   4.643  0.1474  0.4523  0.0948
  526MOL0     C70917   6.067   2.855   4.715  0.2951  0.6958  0.0931
  526MOL0     C70918   6.014   2.978   4.644 -0.5912 -0.0364 -0.3001
  526MOL0     C70919   6.090   3.004   4.512  0.2311  0.7883  0.7360
  526MOL0    Cl70920   6.261   3.033   4.555 -0.0030 -0.3172 -0.0663
  526MOL0     C70921   5.843   2.082   4.938 -0.2602  0.0256 -0.1412
  526MOL0     C70922   5.761   1.969   4.913  0.6694 -0.0975  0.0019
  526MOL0     O70923   5.600   1.729   5.031 -0.2232  0.4717 -0.8000
  526MOL0     C70924   5.313   1.694   4.828 -0.0271 -1.2441 -0.3607
  526MOL0     C70925   5.217   1.614   4.772  0.7989 -0.1601  1.0384
  526MOL0     N70926   5.363   1.270   4.267 -0.8919  0.4356  0.2281
  526MOL0     N70927   5.491   1.267   4.243  0.2418 -0.7430 -0.3017
  526MOL0     C70928   6.430   1.832   4.243 -0.2667 -0.3320  0.4939
  526MOL0     C70929   6.494   1.901   4.140 -0.0217 -0.0449 -1.0232
  526MOL0     C70930   6.691   1.882   3.719  0.7257 -0.2378 -0.1062
  526MOL0     C70931   6.735   2.014   3.714  0.5918 -0.1100 -0.7011
  526MOL0     C70932   6.771   2.085   3.596 -0.2241 -0.5004 -0.1058
  526MOL0     C70933   6.795   2.014   3.482 -0.0220 -1.1365 -0.5289
  526MOL0     O70934   6.863   2.060   3.373 -0.1521 -0.8556  0.1981
  526MOL0     C70935   6.875   2.206   3.360 -0.9757  0.3160 -0.0235
  526MOL0     C70936   7.010   2.249   3.419  0.3743 -0.5270 -0.0516
  526MOL0     C70937   7.015   2.400   3.465  0.1612 -0.4739 -0.1592
  526MOL0     C70938   7.143   2.454   3.434  0.0295  0.0645  0.2476
  526MOL0     C70939   7.166   2.604   3.479 -0.1447  0.0788  0.4539
  526MOL0     C70940   7.194   2.718   3.506 -0.5817  0.3710  0.4792
  526MOL0     C70941   6.763   1.883   3.482 -0.0541 -0.7766 -0.7413
  526MOL0     C70942   6.708   1.817   3.596  1.6529 -1.3458 -0.1205
  526MOL0     H70943   6.710   1.654   4.073 -1.1427 -1.9377  2.0342
  526MOL0     H70944   6.588   1.547   4.261 -0.9611  0.1901  1.4266
  526MOL0     H70945   6.395   1.441   4.368  1.8278  1.1804 -1.4430
  526MOL0     H70946   6.498   1.510   4.494  0.4126 -1.6883 -1.9100
  526MOL0     H70947   6.341   1.403   4.602  0.2076  1.3438  1.1843
  526MOL0     H70948   6.288   1.574   4.618 -2.0364  0.9171 -0.4361
  526MOL0     H70949   6.103   1.435   4.583 -0.1320 -2.3938 -0.4532
  526MOL0     H70950   6.123   1.550   4.449  0.6638  0.1724 -2.5368
  526MOL0     H70951   6.190   1.361   4.303  0.7746 -2.5308 -0.4959
  526MOL0     H70952   6.235   1.269   4.447  1.1235  2.5905  2.1746
  526MOL0     H70953   6.018   1.186   4.336 -0.0707  2.1439 -2.1198
  526MOL0     H70954   5.958   1.247   4.496 -0.5362 -4.9110 -1.3032
  526MOL0     H70955   5.910   1.476   4.386 -3.0570 -0.0490  1.2268
  526MOL0     H70956   5.928   1.375   4.236  0.3297 -0.9115  0.2783
  526MOL0     H70957   5.749   1.231   4.307 -1.9966  0.3805  0.8371
  526MOL0     H70958   5.734   1.330   4.461  2.8155 -4.1730  1.2050
  526MOL0     H70959   5.680   1.434   4.165  1.8849  1.9866  0.4176
  526MOL0     H70960   5.679   1.531   4.315 -1.0671 -0.7898  2.3785
  526MOL0     H70961   5.428   1.556   4.417  2.4561 -0.9942  2.5171
  526MOL0     H70962   5.205   1.468   4.494  3.4465 -0.2797  0.7308
  526MOL0     H70963   5.131   1.470   4.328  2.1204  2.3173 -0.2756
  526MOL0     H70964   5.171   1.219   4.486 -2.1271 -1.7048  1.2822
  526MOL0     H70965   5.074   1.256   4.343 -0.3952  3.4951 -1.3058
  526MOL0     H70966   4.981   1.220   4.598 -1.3764  0.5081  0.4527
  526MOL0     H70967   4.896   1.340   4.497 -0.6307 -0.6072 -0.1184
  526MOL0     H70968   4.956   1.402   4.721 -2.7866  0.2482 -2.2493
  526MOL0     H70969   5.019   1.516   4.609  0.0582  0.0863  0.9520
  526MOL0     H70970   5.366   1.325   4.840  0.8525 -0.0302 -0.3539
  526MOL0     H70971   5.574   1.346   4.918 -1.4476  0.6271  1.7819
  526MOL0     H70972   5.687   1.479   4.888 -1.4755 -1.0913  0.5432
  526MOL0     H70973   5.614   1.469   5.040  1.6556  1.8405  0.5430
  526MOL0     H70974   5.460   2.095   4.871 -0.7436 -0.1811 -1.3007
  526MOL0     H70975   5.571   2.304   4.918 -0.6945 -1.3887 -0.0824
  526MOL0     H70976   6.017   2.273   5.016  2.0369  1.4960 -0.0473
  526MOL0     H70977   6.007   2.296   4.847  0.9134 -3.8772  2.7187
  526MOL0     H70978   5.966   2.522   5.057 -2.9561 -3.3805  1.5422
  526MOL0     H70979   6.119   2.475   4.982 -1.0290 -2.4553  1.4936
  526MOL0     H70980   5.939   2.683   4.883  0.2029  0.6752 -2.3648
  526MOL0     H70981   5.863   2.559   4.813 -0.9246  0.9898  2.7728
  526MOL0     H70982   6.157   2.605   4.773  0.2820 -1.3211  2.3236
  526MOL0     H70983   6.057   2.504   4.672  1.3298 -1.4423  1.0779
  526MOL0     H70984   5.908   2.736   4.619  0.9141  1.3873 -3.6614
  526MOL0     H70985   6.052   2.726   4.540 -1.2651  1.1175 -0.4544
  526MOL0     H70986   6.027   2.860   4.817 -0.2570  0.8960 -0.1315
  526MOL0     H70987   6.176   2.855   4.724  0.3522  0.7967 -0.5729
  526MOL0     H70988   6.036   3.059   4.714 -0.6697 -0.6177  0.4054
  526MOL0     H70989   5.905   2.968   4.634 -0.9928  2.2807  0.9741
  526MOL0     H70990   6.051   3.094   4.463  0.0172 -0.9864 -2.6956
  526MOL0     H70991   6.088   2.924   4.438  0.8270  2.0317 -0.6721
  526MOL0     H70992   5.948   2.070   4.964 -0.2402 -0.5087 -0.4513
  526MOL0     H70993   5.812   1.874   4.902 -2.0499 -1.6175 -0.4020
  526MOL0     H70994   5.279   1.797   4.841 -1.6041 -1.9054  1.2120
  526MOL0     H70995   5.129   1.660   4.728  2.0802 -0.6716 -2.4324
  526MOL0     H70996   6.338   1.862   4.292 -0.8438 -0.8234 -0.2737
  526MOL0     H70997   6.457   1.986   4.084 -2.5338 -0.4353 -0.0841
  526MOL0     H70998   6.719   2.076   3.802 -1.7434 -1.0592 -0.3880
  526MOL0     H70999   6.805   2.188   3.603  0.9853 -0.9012  0.1436
  526MOL0     H71000   6.877   2.229   3.253 -0.3347  3.0280  0.4985
  526MOL0     H71001   6.791   2.269   3.391 -0.9126  1.4299 -1.9242
  526MOL0     H71002   7.083   2.225   3.341 -0.9942  1.0667 -1.8985
  526MOL0     H71003   7.042   2.189   3.505  0.3278 -2.2080 -1.1667
  526MOL0     H71004   6.994   2.409   3.572  2.7367  0.2180  0.3468
  526MOL0     H71005   6.940   2.454   3.407 -0.2963  0.2196  1.0380
  526MOL0     H71006   7.173   2.443   3.329 -2.1818  0.0618 -0.4307
  526MOL0     H71007   7.218   2.403   3.495  0.1796 -1.1848 -0.9418
  526MOL0     H71008   7.205   2.815   3.549 -2.7799  0.3847  1.1388
  526MOL0     H71009   6.768   1.838   3.383 -0.5238  2.6756 -2.4639
  526MOL0     H71010   6.665   1.721   3.571 -1.8306  0.1842 -0.6914
  527MOL0     O71011  11.482   1.656   5.374  0.9137  0.4750 -0.5386
  527MOL0     C71012  11.450   1.775   5.384  0.1044 -0.3060  0.4739
  527MOL0     O71013  11.436   1.860   5.281  0.0964  0.6790 -0.5604
  527MOL0     C71014  11.486   1.815   5.157  0.6224  0.3580 -0.4770
  527MOL0     C71015  11.396   1.775   5.052 -0.5180 -1.1529  0.2408
  527MOL0     C71016  11.443   1.718   4.942 -0.5888  0.0017 -0.0105
  527MOL0     C71017  11.584   1.687   4.926  0.4230 -0.5476  0.0314
  527MOL0     O71018  11.615   1.640   4.803  0.0144  0.2047  0.1356
  527MOL0     C71019  11.698   1.519   4.808  0.5097 -0.6717 -0.6003
  527MOL0     C71020  11.674   1.436   4.681  0.4524 -0.6449  0.5409
  527MOL0     C71021  11.681   1.518   4.552 -0.2817  1.0870 -0.3014
  527MOL0     C71022  11.667   1.447   4.424 -0.0449  0.2729  1.0824
  527MOL0     C71023  11.690   1.556   4.311  0.3815 -0.4898 -0.3918
  527MOL0     C71024  11.643   1.497   4.181  0.2138  0.6249  0.2981
  527MOL0     C71025  11.690   1.568   4.049 -0.0820 -0.5480 -0.1864
  527MOL0     C71026  11.661   1.715   4.047  0.3365  0.4840  0.1119
  527MOL0     N71027  11.510   1.732   4.067  0.5217 -0.2231  0.3627
  527MOL0     C71028  11.407   1.694   3.995  0.1115 -1.2088 -0.0802
  527MOL0     C71029  11.302   1.775   4.037  0.7141 -0.1521  1.1250
  527MOL0     C71030  11.153   1.781   4.000 -0.2337  0.4883  0.1610
  527MOL0     C71031  11.137   1.788   3.849 -0.0596  0.6136 -0.3516
  527MOL0     C71032  11.035   1.674   3.792 -0.3073 -0.5195 -0.3510
  527MOL0     C71033  11.089   1.530   3.803 -1.0375 -0.5734 -0.4166
  527MOL0     O71034  10.993   1.438   3.761  0.2126 -0.0546  0.6783
  527MOL0     C71035  11.015   1.398   3.633 -0.3845 -0.3745  1.2200
  527MOL0     C71036  11.093   1.285   3.602  0.2575 -0.2094 -0.1011
  527MOL0     C71037  11.119   1.255   3.464 -0.2806 -0.1086  0.3375
  527MOL0     C71038  11.169   1.111   3.437 -0.4201 -0.0190 -0.1903
  527MOL0     C71039  11.077   1.348   3.364 -0.0442  0.6327  0.3095
  527MOL0     C71040  11.101   1.321   3.214 -0.0687  0.6752 -0.8047
  527MOL0     O71041  11.040   1.413   3.128  0.4480  0.4750  0.1689
  527MOL0     C71042  11.068   1.401   2.999  0.0872 -0.4975  0.0422
  527MOL0     C71043  11.125   1.506   2.939 -0.0657 -0.9518 -0.5688
  527MOL0     C71044  11.134   1.520   2.802  0.3705  1.0987 -0.0381
  527MOL0     C71045  11.086   1.419   2.729  0.0582  0.7013  1.4105
  527MOL0     O71046  11.109   1.429   2.596 -0.8477  0.6892  0.4716
  527MOL0     C71047  11.011   1.510   2.528  0.4481 -0.1025 -0.3224
  527MOL0     C71048  11.072   1.595   2.412  0.5221 -0.6969  0.0332
  527MOL0     C71049  10.970   1.688   2.349  0.1779 -0.3258  0.1603
  527MOL0     C71050  11.024   1.743   2.222  0.2133 -0.2145  0.1636
  527MOL0     C71051  10.927   1.846   2.152 -0.4599  0.9523 -0.7084
  527MOL0     C71052  10.804   1.799   2.088 -0.4139 -0.1234  0.1394
  527MOL0     C71053  10.834   1.753   1.947  0.1354 -0.5848 -0.2963
  527MOL0     C71054  10.718   1.701   1.859 -1.4321 -0.7951 -0.0305
  527MOL0    Cl71055  10.635   1.836   1.782  0.4039 -0.4368  0.0602
  527MOL0     C71056  11.037   1.303   2.777 -0.5454 -0.8371  0.2636
  527MOL0     C71057  11.027   1.295   2.920 -0.7806 -0.8504  0.0227
  527MOL0     O71058  11.183   1.238   3.181  0.0587 -0.2508 -0.0692
  527MOL0     C71059  11.006   1.460   3.407  0.4871 -0.5008  0.5305
  527MOL0     C71060  10.972   1.483   3.534  0.1371  0.1386  0.0904
  527MOL0     N71061  11.348   1.860   4.133  0.6462 -0.6663  0.5929
  527MOL0     N71062  11.479   1.832   4.145  0.7478 -1.1863  0.8475
  527MOL0     C71063  11.670   1.736   5.022  0.2111  0.6394  0.8929
  527MOL0     C71064  11.620   1.798   5.140  0.6334 -0.5031 -0.0319
  527MOL0     C71065  11.439   1.824   5.519 -0.5261  0.5321  0.6760
  527MOL0     C71066  11.414   1.962   5.543 -0.1426  0.6804 -0.7354
  527MOL0     C71067  11.407   2.015   5.671  0.3701 -0.2741 -0.0899
  527MOL0     C71068  11.455   1.933   5.772 -1.4638  0.3119 -0.3422
  527MOL0     O71069  11.480   1.975   5.902 -0.2542  0.0660 -1.0502
  527MOL0     C71070  11.454   2.112   5.917 -0.5948 -0.0131  0.2677
  527MOL0     C71071  11.462   2.146   6.072 -0.6393 -0.5473  0.6017
  527MOL0     C71072  11.351   2.088   6.157 -1.0858 -0.0854 -0.2941
  527MOL0     C71073  11.227   2.194   6.154 -0.2284 -0.0436  0.2413
  527MOL0     C71074  11.255   2.313   6.237  0.3042 -0.3061  0.5711
  527MOL0     C71075  11.293   2.408   6.308  0.1956  0.1779  0.7380
  527MOL0     C71076  11.491   1.799   5.754  0.0063  0.2587  0.0554
  527MOL0     C71077  11.489   1.745   5.624 -0.6468 -0.0685  1.0328
  527MOL0     H71078  11.288   1.778   5.064 -0.7370  0.4396 -1.5849
  527MOL0     H71079  11.372   1.678   4.870  0.6510  2.0207 -2.5608
  527MOL0     H71080  11.799   1.556   4.822  1.3418 -1.9720 -2.6976
  527MOL0     H71081  11.673   1.456   4.895  4.3174 -0.8624  0.5217
  527MOL0     H71082  11.743   1.351   4.674 -0.8202 -1.7175  0.4979
  527MOL0     H71083  11.586   1.371   4.689  0.1633 -0.5095 -1.1523
  527MOL0     H71084  11.601   1.592   4.565 -0.7690  0.6053 -0.5608
  527MOL0     H71085  11.779   1.568   4.548 -0.5536  1.6351 -0.2271
  527MOL0     H71086  11.735   1.364   4.401 -1.7874 -0.8463 -0.4029
  527MOL0     H71087  11.566   1.406   4.422 -0.7383  1.9274  0.6861
  527MOL0     H71088  11.635   1.649   4.330 -0.2211 -0.7602 -0.7690
  527MOL0     H71089  11.795   1.585   4.301  1.7356 -3.0683  3.5979
  527MOL0     H71090  11.676   1.393   4.174 -2.5871 -0.3948  1.0291
  527MOL0     H71091  11.534   1.492   4.179  0.2015  1.1565 -0.9287
  527MOL0     H71092  11.795   1.552   4.023  0.3165 -0.7082  1.4019
  527MOL0     H71093  11.636   1.515   3.970  2.2248 -1.1615 -1.4182
  527MOL0     H71094  11.684   1.758   3.949  0.8978 -1.1355 -0.4974
  527MOL0     H71095  11.720   1.777   4.115  1.2079 -0.4467  0.2230
  527MOL0     H71096  11.404   1.607   3.930  2.5305 -3.3020  2.3584
  527MOL0     H71097  11.113   1.685   4.034  3.1734 -1.4342 -0.7307
  527MOL0     H71098  11.128   1.871   4.058  2.6129  1.4356  0.1006
  527MOL0     H71099  11.229   1.768   3.794  0.0737 -3.3355  0.9517
  527MOL0     H71100  11.095   1.884   3.817 -3.2904 -0.2220  0.9259
  527MOL0     H71101  11.030   1.697   3.686  0.6835 -1.3550 -0.5914
  527MOL0     H71102  10.933   1.684   3.831 -0.2618  0.2137 -0.3982
  527MOL0     H71103  11.124   1.514   3.905 -0.8185  2.4754  0.0844
  527MOL0     H71104  11.180   1.513   3.746  0.7279  0.7880  1.8076
  527MOL0     H71105  11.117   1.221   3.685  2.4674 -2.7121 -2.4749
  527MOL0     H71106  11.270   1.135   3.402 -0.3319  0.2863  0.2570
  527MOL0     H71107  11.175   1.059   3.534 -1.1800 -0.3104 -0.2910
  527MOL0     H71108  11.100   1.060   3.370 -1.0871  1.8761 -1.0127
  527MOL0     H71109  11.161   1.588   3.000  2.6723 -2.8817  0.5973
  527MOL0     H71110  11.171   1.608   2.751  1.9637 -0.6223 -2.0533
  527MOL0     H71111  10.943   1.431   2.494 -0.9312 -1.0732  4.0264
  527MOL0     H71112  10.964   1.572   2.604  0.9054  0.1650 -0.2617
  527MOL0     H71113  11.160   1.642   2.456 -0.6840 -0.3453  2.2115
  527MOL0     H71114  11.114   1.531   2.334  0.0254 -0.8172 -0.1436
  527MOL0     H71115  10.937   1.773   2.410  0.0744 -0.3301  0.1105
  527MOL0     H71116  10.885   1.628   2.316  0.7372 -0.1285 -1.7710
  527MOL0     H71117  11.119   1.798   2.231 -0.8489  1.6995  0.1701
  527MOL0     H71118  11.048   1.674   2.140 -0.3362  0.3416 -0.4750
  527MOL0     H71119  10.992   1.896   2.079 -0.3571  1.7759 -0.0769
  527MOL0     H71120  10.889   1.918   2.225 -0.4763  2.2666 -1.9659
  527MOL0     H71121  10.771   1.715   2.150  2.7342 -1.3838  0.2996
  527MOL0     H71122  10.738   1.885   2.079  0.7317  0.7785  0.1391
  527MOL0     H71123  10.894   1.662   1.956 -0.3754 -0.9167 -0.2046
  527MOL0     H71124  10.887   1.837   1.901 -0.4929  1.4859  2.4854
  527MOL0     H71125  10.651   1.641   1.922 -0.6961 -1.4838  0.1032
  527MOL0     H71126  10.750   1.626   1.787 -0.9164 -0.2173 -0.4151
  527MOL0     H71127  11.005   1.223   2.711 -2.5765  0.3421 -0.2838
  527MOL0     H71128  10.971   1.217   2.971 -0.2761 -0.8345  0.6162
  527MOL0     H71129  10.959   1.517   3.327 -1.8613 -1.2818  1.2760
  527MOL0     H71130  10.916   1.575   3.549  0.6245  0.3607  0.5452
  527MOL0     H71131  11.772   1.701   5.023  1.0670  2.7423 -1.5412
  527MOL0     H71132  11.678   1.827   5.227 -2.2910  0.8032  1.6402
  527MOL0     H71133  11.392   2.037   5.468  0.5881 -1.1057 -2.8343
  527MOL0     H71134  11.377   2.119   5.679 -1.6511 -0.8355  0.3021
  527MOL0     H71135  11.535   2.168   5.870 -2.3010  1.8561 -0.5785
  527MOL0     H71136  11.367   2.154   5.865 -0.2975 -2.5334 -2.4973
  527MOL0     H71137  11.465   2.254   6.085 -2.7015 -0.3118 -0.4524
  527MOL0     H71138  11.561   2.112   6.104  0.7143  1.1753 -1.5381
  527MOL0     H71139  11.395   2.065   6.255  1.4009  1.1574 -1.0437
  527MOL0     H71140  11.316   1.991   6.120  0.0618 -0.6377  0.0127
  527MOL0     H71141  11.139   2.136   6.183  2.4843 -4.2985  0.8994
  527MOL0     H71142  11.200   2.222   6.052 -0.5846  0.5124  0.4849
  527MOL0     H71143  11.328   2.490   6.367 -0.8663  1.1998 -0.0122
  527MOL0     H71144  11.517   1.735   5.838  0.5761 -0.3550 -0.5796
  527MOL0     H71145  11.517   1.641   5.617 -0.8602 -0.4239  3.9829
  528MOL0     O71146  10.586   0.700   8.897 -0.2565  0.2046  0.2524
  528MOL0     C71147  10.537   0.633   8.988  0.1030  0.5433 -0.3101
  528MOL0     O71148  10.406   0.634   9.046  0.7335 -0.3365  0.2773
  528MOL0     C71149  10.295   0.714   9.004  0.2155  0.6315  0.0273
  528MOL0     C71150  10.290   0.806   8.898  0.1553  0.5742 -1.7379
  528MOL0     C71151  10.179   0.868   8.852  0.2340 -0.1843 -0.3041
  528MOL0     C71152  10.056   0.847   8.915 -0.2960 -0.5956  0.0067
  528MOL0     O71153   9.944   0.907   8.856  0.2696 -0.2666  1.1487
  528MOL0     C71154   9.815   0.894   8.923  0.5346 -0.4692 -0.2778
  528MOL0     C71155   9.739   1.026   8.898  0.3286  0.4492 -0.1900
  528MOL0     C71156   9.702   1.038   8.744  0.1172  0.7686 -1.0734
  528MOL0     C71157   9.573   0.964   8.721  0.1736 -1.0094  0.0315
  528MOL0     C71158   9.525   0.965   8.573  0.7345 -0.0971 -1.5459
  528MOL0     C71159   9.396   0.872   8.575 -0.3585 -0.2106 -1.2317
  528MOL0     C71160   9.304   0.886   8.447  0.0489 -0.2863  0.6637
  528MOL0     C71161   9.384   0.837   8.327 -0.4091 -0.2066  0.7210
  528MOL0     N71162   9.292   0.850   8.215 -0.2084  0.5647  0.4356
  528MOL0     C71163   9.299   0.947   8.117  0.1397  0.0587  1.0088
  528MOL0     C71164   9.200   0.904   8.021 -0.4391  0.0205 -1.2169
  528MOL0     C71165   9.157   0.965   7.900  0.3553 -0.2319  0.6086
  528MOL0     C71166   9.152   1.119   7.921  0.8695  0.4005 -1.3536
  528MOL0     C71167   9.102   1.216   7.804  0.0664 -0.0353 -0.0639
  528MOL0     C71168   9.153   1.169   7.672 -1.0686 -1.7605  0.1462
  528MOL0     O71169   9.291   1.134   7.673  0.4850 -0.4757 -0.0223
  528MOL0     C71170   9.379   1.189   7.588 -0.6919 -0.1456  0.6390
  528MOL0     C71171   9.354   1.264   7.468  0.6157  0.7243 -0.8858
  528MOL0     C71172   9.451   1.291   7.377  0.6230 -0.4526  0.4483
  528MOL0     C71173   9.406   1.334   7.241  0.1671 -0.4089 -0.6389
  528MOL0     C71174   9.584   1.284   7.416 -0.1314  0.1059  0.2726
  528MOL0     C71175   9.700   1.329   7.333  0.1684 -0.3795 -0.6423
  528MOL0     O71176   9.699   1.296   7.200  0.2065  0.3771  0.1285
  528MOL0     C71177   9.805   1.247   7.129  0.4540  0.2504  0.0139
  528MOL0     C71178   9.779   1.251   6.995 -0.6818 -0.3606  0.0752
  528MOL0     C71179   9.885   1.211   6.906  0.1347 -0.3202  0.5201
  528MOL0     C71180  10.005   1.151   6.949  0.3708 -0.5740 -0.6947
  528MOL0     O71181  10.097   1.116   6.856  0.6932 -0.5700 -0.1577
  528MOL0     C71182  10.238   1.112   6.888  0.1729  0.6989 -0.6477
  528MOL0     C71183  10.291   1.025   6.782 -0.3395 -0.3160 -0.0717
  528MOL0     C71184  10.439   0.999   6.821  0.2679 -0.4130 -0.6007
  528MOL0     C71185  10.496   0.889   6.731  0.3479  0.0124 -0.2372
  528MOL0     C71186  10.647   0.850   6.760 -0.0227 -0.0696 -0.0526
  528MOL0     C71187  10.690   0.735   6.667 -0.2054 -1.1798  0.2697
  528MOL0     C71188  10.831   0.678   6.687  0.0293 -0.6966 -0.2346
  528MOL0     C71189  10.946   0.781   6.665 -0.3127  0.5161  0.0526
  528MOL0    Cl71190  10.919   0.863   6.499 -0.3596 -0.0307 -0.6174
  528MOL0     C71191  10.027   1.159   7.086 -0.5665 -0.0959 -0.0029
  528MOL0     C71192   9.925   1.205   7.177 -0.9081  0.3499 -0.4057
  528MOL0     O71193   9.785   1.393   7.382  0.1570 -0.6345 -0.5308
  528MOL0     C71194   9.613   1.239   7.549  0.6129 -0.2403  0.3696
  528MOL0     C71195   9.508   1.182   7.629 -1.6200 -0.0807 -0.1414
  528MOL0     N71196   9.133   0.790   8.076 -0.2113 -0.7654  0.7998
  528MOL0     N71197   9.192   0.759   8.186  0.1239  0.4987 -1.3736
  528MOL0     C71198  10.047   0.750   9.023  0.2179  0.9443  0.0659
  528MOL0     C71199  10.172   0.685   9.059 -0.5818 -0.6954 -0.0523
  528MOL0     C71200  10.626   0.532   9.052 -0.5132 -0.1265 -0.2549
  528MOL0     C71201  10.610   0.501   9.185  0.1466 -0.4223 -0.1347
  528MOL0     C71202  10.698   0.420   9.259 -0.4001  0.1010  0.6989
  528MOL0     C71203  10.809   0.365   9.191 -0.1893  0.9654  0.1374
  528MOL0     O71204  10.893   0.287   9.262  0.8925  0.4386 -1.0178
  528MOL0     C71205  10.986   0.201   9.201  0.5086  0.8368  0.3917
  528MOL0     C71206  11.120   0.268   9.174 -0.6923 -0.5109 -0.5558
  528MOL0     C71207  11.195   0.294   9.314  0.2971 -0.0669 -0.4277
  528MOL0     C71208  11.327   0.374   9.294  0.5267 -0.1461  0.1559
  528MOL0     C71209  11.381   0.419   9.424 -0.3949 -0.4062 -0.7502
  528MOL0     C71210  11.432   0.454   9.532  1.1836  0.3884  0.3875
  528MOL0     C71211  10.831   0.405   9.053  0.6067  0.4440 -0.1150
  528MOL0     C71212  10.739   0.483   8.979  0.1523 -0.1311 -0.1102
  528MOL0     H71213  10.377   0.828   8.837  1.1134  4.2716  0.6883
  528MOL0     H71214  10.198   0.923   8.761  1.9487  0.2718  0.2830
  528MOL0     H71215   9.753   0.805   8.904 -1.1709  0.0942  2.2053
  528MOL0     H71216   9.817   0.888   9.032 -1.9690  0.0191 -0.1445
  528MOL0     H71217   9.652   1.046   8.961  0.8819  0.9973  0.4192
  528MOL0     H71218   9.821   1.095   8.919  1.6502 -2.0009  3.8629
  528MOL0     H71219   9.701   1.135   8.694 -2.1963  0.8713 -0.9180
  528MOL0     H71220   9.777   0.982   8.687  0.8381  2.0201 -1.3975
  528MOL0     H71221   9.593   0.859   8.742 -0.6924 -1.9445 -3.2127
  528MOL0     H71222   9.490   1.006   8.779 -1.8299 -2.9356 -1.2697
  528MOL0     H71223   9.505   1.068   8.541  2.1149  0.9637  0.7207
  528MOL0     H71224   9.606   0.928   8.509  1.9394  3.0244 -2.0131
  528MOL0     H71225   9.434   0.770   8.590 -1.6575 -0.3841  1.5730
  528MOL0     H71226   9.342   0.894   8.668 -3.4050 -2.1677 -2.3795
  528MOL0     H71227   9.210   0.830   8.457 -1.0401  1.4894  0.8843
  528MOL0     H71228   9.273   0.989   8.428 -0.1030  0.2955  3.5421
  528MOL0     H71229   9.417   0.734   8.342 -0.1726 -0.9275 -3.4164
  528MOL0     H71230   9.475   0.895   8.308  0.9706 -1.5129  2.9047
  528MOL0     H71231   9.370   1.029   8.110  1.2928 -1.0152 -1.2854
  528MOL0     H71232   9.229   0.955   7.818 -1.4590  0.3309 -1.1361
  528MOL0     H71233   9.057   0.932   7.869 -0.5439  3.7121 -1.4878
  528MOL0     H71234   9.251   1.160   7.946 -0.5188  1.5092  3.3835
  528MOL0     H71235   9.098   1.146   8.012  2.6333 -0.2659 -0.0558
  528MOL0     H71236   9.147   1.314   7.824 -2.7294  0.7745  3.2821
  528MOL0     H71237   8.994   1.231   7.800  0.1630  0.4035 -1.7784
  528MOL0     H71238   9.129   1.251   7.603 -2.8604  0.7361  3.4100
  528MOL0     H71239   9.099   1.077   7.646 -0.7998 -1.6044 -1.0174
  528MOL0     H71240   9.250   1.279   7.438  0.3815  2.5881  0.6323
  528MOL0     H71241   9.465   1.418   7.204 -0.3152  0.5974  0.7869
  528MOL0     H71242   9.403   1.256   7.164 -2.0295 -1.0597  0.0261
  528MOL0     H71243   9.305   1.376   7.245  0.3348  0.2143 -2.1118
  528MOL0     H71244   9.686   1.283   6.948  1.2392  1.3567 -2.8133
  528MOL0     H71245   9.881   1.233   6.799  1.7418  0.6485  0.6289
  528MOL0     H71246  10.282   1.212   6.883  1.6608  0.1057  0.0090
  528MOL0     H71247  10.250   1.066   6.986  4.8887  3.6756  0.4832
  528MOL0     H71248  10.237   0.930   6.777  0.6458 -0.9925  1.4234
  528MOL0     H71249  10.299   1.075   6.685 -2.5478 -0.5573 -0.4259
  528MOL0     H71250  10.448   0.971   6.926  3.4789 -1.0997 -0.9617
  528MOL0     H71251  10.499   1.089   6.804  0.5811 -0.0617  2.0490
  528MOL0     H71252  10.429   0.803   6.739 -2.7768  2.3811  2.1500
  528MOL0     H71253  10.482   0.930   6.631 -1.1892 -0.5837 -0.2843
  528MOL0     H71254  10.665   0.833   6.867  0.6873 -0.4294 -0.2202
  528MOL0     H71255  10.709   0.938   6.739 -0.3147  0.3023  0.6170
  528MOL0     H71256  10.627   0.648   6.689 -1.4603 -0.2553  0.3973
  528MOL0     H71257  10.675   0.753   6.560  2.4441  1.0576  0.1603
  528MOL0     H71258  10.848   0.600   6.612 -1.9631 -2.0778  0.6766
  528MOL0     H71259  10.841   0.641   6.789  3.4125  0.4602 -0.0182
  528MOL0     H71260  11.045   0.738   6.684  0.0933  0.4050 -2.0460
  528MOL0     H71261  10.948   0.857   6.743  1.2202 -0.7515  1.3269
  528MOL0     H71262  10.115   1.117   7.135 -3.0061 -1.5263  3.6414
  528MOL0     H71263   9.934   1.206   7.285  0.4086  0.4448 -0.4994
  528MOL0     H71264   9.719   1.249   7.573  1.0628 -1.3033 -1.0274
  528MOL0     H71265   9.534   1.126   7.718  1.8098 -0.0150 -0.9511
  528MOL0     H71266   9.954   0.719   9.068  1.6519 -2.5962  0.9172
  528MOL0     H71267  10.169   0.606   9.133 -0.1014  0.6950  1.5024
  528MOL0     H71268  10.543   0.558   9.249  1.4838 -0.7550  1.6161
  528MOL0     H71269  10.710   0.401   9.366  4.2051 -1.3290  0.1696
  528MOL0     H71270  10.990   0.111   9.263  0.2806  0.1395 -0.5787
  528MOL0     H71271  10.940   0.166   9.108 -0.6291 -0.1878  1.2957
  528MOL0     H71272  11.118   0.369   9.134 -1.4750  0.0103  0.7425
  528MOL0     H71273  11.188   0.205   9.115  0.7080  1.5048 -1.1947
  528MOL0     H71274  11.221   0.201   9.364 -1.7641  0.6782  2.2626
  528MOL0     H71275  11.128   0.339   9.388 -0.5070 -1.1415 -0.4783
  528MOL0     H71276  11.298   0.459   9.231 -2.5966 -1.4419 -0.3169
  528MOL0     H71277  11.395   0.308   9.239 -1.1098 -0.3838 -1.7096
  528MOL0     H71278  11.469   0.473   9.631  2.1781 -2.0229  0.5510
  528MOL0     H71279  10.919   0.366   9.004 -0.1024 -1.4118  0.0169
  528MOL0     H71280  10.771   0.500   8.876 -0.7051 -0.2583 -0.4006
  529MOL0     O71281   9.431   8.027   2.248  0.4556  0.1111  0.1931
  529MOL0     C71282   9.526   8.044   2.322 -0.5618 -0.2330  0.4085
  529MOL0     O71283   9.600   7.946   2.378  0.6640  0.4771  0.4255
  529MOL0     C71284   9.569   7.818   2.354  0.6414  0.2264  0.0494
  529MOL0     C71285   9.563   7.749   2.229  0.5236 -0.0216 -0.0325
  529MOL0     C71286   9.554   7.608   2.228  0.6121  0.1498  0.8165
  529MOL0     C71287   9.534   7.536   2.343 -0.5469  0.1310  0.0345
  529MOL0     O71288   9.530   7.396   2.346  0.2448  0.1538 -0.4037
  529MOL0     C71289   9.483   7.331   2.230  0.1451 -1.1296  0.0817
  529MOL0     C71290   9.343   7.371   2.182  0.1378 -0.5448  0.1044
  529MOL0     C71291   9.229   7.345   2.291  0.9209 -0.3030  1.0851
  529MOL0     C71292   9.173   7.205   2.261 -0.4324 -0.2924 -0.0973
  529MOL0     C71293   9.076   7.161   2.374 -0.0505  0.6714 -0.6973
  529MOL0     C71294   9.006   7.030   2.346  0.4457  0.5789  1.0271
  529MOL0     C71295   8.906   6.991   2.463 -0.1498  0.1262 -0.4130
  529MOL0     C71296   8.845   6.855   2.438 -1.1369  0.0542 -0.3483
  529MOL0     N71297   8.767   6.807   2.552 -0.0864 -0.8179 -0.0018
  529MOL0     C71298   8.809   6.730   2.662 -0.1822 -1.1641  0.0560
  529MOL0     C71299   8.696   6.712   2.745 -0.0504 -0.0578 -0.1544
  529MOL0     C71300   8.678   6.631   2.863  0.0954 -0.5574 -1.2814
  529MOL0     C71301   8.632   6.710   2.985  0.5012 -0.0002  0.0855
  529MOL0     C71302   8.713   6.840   3.003  0.1405 -0.0010  0.1387
  529MOL0     C71303   8.643   6.928   3.105  0.1605  0.7508 -0.1342
  529MOL0     O71304   8.631   6.855   3.225  0.3930 -0.2378 -0.4850
  529MOL0     C71305   8.533   6.901   3.322 -0.0775  0.2517  0.2091
  529MOL0     C71306   8.499   6.803   3.419  0.4401  0.1393  0.7352
  529MOL0     C71307   8.426   6.836   3.529  0.0853 -0.0025  0.4202
  529MOL0     C71308   8.402   6.718   3.624  0.0449 -0.1025  0.3194
  529MOL0     C71309   8.379   6.964   3.546 -0.2986  0.7031 -0.2485
  529MOL0     C71310   8.297   7.008   3.657  0.6905  0.3187 -0.5534
  529MOL0     O71311   8.266   7.143   3.664 -0.7338  0.5633 -0.5937
  529MOL0     C71312   8.175   7.198   3.754 -0.0744 -0.1431 -0.4309
  529MOL0     C71313   8.209   7.326   3.802 -0.2906  0.4299  0.8497
  529MOL0     C71314   8.123   7.396   3.881  0.8689 -0.3838 -1.0421
  529MOL0     C71315   7.995   7.352   3.925  0.2865  0.0234 -0.6770
  529MOL0     O71316   7.905   7.438   3.986  0.1327  0.0111 -0.3992
  529MOL0     C71317   7.784   7.372   4.030  0.3945 -0.6308 -1.0105
  529MOL0     C71318   7.709   7.481   4.112  0.0186 -0.2093 -0.4249
  529MOL0     C71319   7.629   7.586   4.031  0.0489 -0.2199  0.5008
  529MOL0     C71320   7.565   7.695   4.117 -0.1751 -1.2159  0.0727
  529MOL0     C71321   7.508   7.821   4.038  0.2337  0.6314  0.6913
  529MOL0     C71322   7.468   7.920   4.152  0.4391  0.2848  0.8303
  529MOL0     C71323   7.427   8.057   4.094  0.9358  0.4940  0.3773
  529MOL0     C71324   7.430   8.164   4.206 -0.0156 -0.2954 -0.0432
  529MOL0    Cl71325   7.406   8.314   4.122  0.5340 -0.2155 -0.1551
  529MOL0     C71326   7.960   7.228   3.873 -0.1632  0.2818  0.4016
  529MOL0     C71327   8.047   7.148   3.792 -0.2548  0.3907 -1.2455
  529MOL0     O71328   8.241   6.923   3.739 -0.3150 -0.5275 -0.6146
  529MOL0     C71329   8.407   7.061   3.443  0.1565  0.2817 -0.6583
  529MOL0     C71330   8.485   7.029   3.332 -0.2586  0.1779 -0.2867
  529MOL0     N71331   8.590   6.777   2.677  0.2976 -0.2740 -0.4777
  529MOL0     N71332   8.642   6.839   2.564 -0.6169  0.9438  0.4010
  529MOL0     C71333   9.535   7.596   2.459 -0.0978 -0.3993 -0.9144
  529MOL0     C71334   9.544   7.742   2.466  0.6071  0.6178 -0.0804
  529MOL0     C71335   9.579   8.177   2.328 -1.1272  0.5445 -0.1179
  529MOL0     C71336   9.539   8.296   2.258 -1.2577  1.7238  1.2260
  529MOL0     C71337   9.610   8.415   2.278 -0.1640 -0.7631  0.8464
  529MOL0     C71338   9.716   8.430   2.369 -0.5694  0.7955  0.4109
  529MOL0     O71339   9.785   8.546   2.398  0.1624  0.1777  0.3030
  529MOL0     C71340   9.768   8.658   2.314 -0.6788 -0.7023 -0.0108
  529MOL0     C71341   9.890   8.757   2.327  0.8243 -0.0755  0.4222
  529MOL0     C71342   9.910   8.829   2.466  0.3613  0.5957 -0.7308
  529MOL0     C71343   9.811   8.952   2.483  0.5296 -0.4390  0.8675
  529MOL0     C71344   9.839   9.056   2.382 -0.3242 -0.5062 -0.0081
  529MOL0     C71345   9.846   9.144   2.290  0.1858  0.6284 -0.0502
  529MOL0     C71346   9.739   8.325   2.457 -0.4805 -0.1214  0.3801
  529MOL0     C71347   9.680   8.203   2.427 -0.2050 -0.2275  0.2071
  529MOL0     H71348   9.576   7.800   2.134 -0.1306 -0.5971 -0.4418
  529MOL0     H71349   9.560   7.555   2.134 -0.7787 -0.4122  1.0334
  529MOL0     H71350   9.562   7.348   2.156  1.4873  0.8372  1.8436
  529MOL0     H71351   9.485   7.222   2.229  2.4743 -1.1451  0.5984
  529MOL0     H71352   9.341   7.479   2.161  0.2882 -0.6115 -0.2428
  529MOL0     H71353   9.314   7.319   2.091 -1.5817 -2.8572  1.8563
  529MOL0     H71354   9.267   7.348   2.393 -3.2518  1.4443  2.7941
  529MOL0     H71355   9.143   7.411   2.280  0.4040 -1.1586 -0.2848
  529MOL0     H71356   9.115   7.208   2.169  0.2971 -1.2777 -0.6079
  529MOL0     H71357   9.249   7.126   2.252 -1.4673 -1.3634  0.2512
  529MOL0     H71358   9.134   7.151   2.466  1.4092 -1.0601 -1.7403
  529MOL0     H71359   9.007   7.245   2.387  3.2506  3.5902 -0.5343
  529MOL0     H71360   8.949   7.032   2.253  2.1511  1.9697 -0.0502
  529MOL0     H71361   9.094   6.964   2.339  0.4825  0.7431 -0.2684
  529MOL0     H71362   8.947   7.008   2.563  0.6610  3.7076 -1.2132
  529MOL0     H71363   8.819   7.054   2.449 -0.0966 -0.0451 -1.6027
  529MOL0     H71364   8.926   6.781   2.429  1.1175  1.9361  2.4063
  529MOL0     H71365   8.781   6.864   2.350 -1.1329  0.3197 -0.3253
  529MOL0     H71366   8.903   6.683   2.687 -0.4930 -1.7257  0.2107
  529MOL0     H71367   8.617   6.545   2.835 -1.1416 -2.1640  4.8627
  529MOL0     H71368   8.776   6.590   2.892 -0.2745 -0.9196 -0.5236
  529MOL0     H71369   8.644   6.657   3.080 -2.2775  1.4453  1.3517
  529MOL0     H71370   8.526   6.738   2.980  0.5148  0.2192  0.9307
  529MOL0     H71371   8.704   6.904   2.914 -0.0423 -0.2546 -0.0253
  529MOL0     H71372   8.813   6.809   3.033 -0.5134  1.4647  4.6573
  529MOL0     H71373   8.546   6.951   3.061 -0.5720 -2.5089 -0.4652
  529MOL0     H71374   8.705   7.018   3.113  2.0716 -0.5370  0.2345
  529MOL0     H71375   8.542   6.703   3.422  0.1884  0.0435  2.6106
  529MOL0     H71376   8.430   6.744   3.726 -0.1148 -0.5147  0.4702
  529MOL0     H71377   8.301   6.678   3.628  0.1978 -0.4569  0.6196
  529MOL0     H71378   8.462   6.630   3.599  0.7509 -0.3687  2.6993
  529MOL0     H71379   8.305   7.367   3.771 -1.3126  3.1109  0.9971
  529MOL0     H71380   8.139   7.501   3.902 -0.5572 -0.4026  0.4002
  529MOL0     H71381   7.717   7.341   3.949 -2.9254  0.6493  1.0359
  529MOL0     H71382   7.795   7.287   4.097 -1.9189 -2.6685 -3.0110
  529MOL0     H71383   7.637   7.442   4.184  1.1169  0.7196  1.2786
  529MOL0     H71384   7.773   7.550   4.168 -0.7098  0.2718 -0.1724
  529MOL0     H71385   7.557   7.524   3.978 -0.8223 -0.0587  1.4668
  529MOL0     H71386   7.699   7.628   3.958 -1.5668 -3.0453 -2.9324
  529MOL0     H71387   7.489   7.650   4.181 -0.2313 -1.5074 -0.1979
  529MOL0     H71388   7.647   7.741   4.174 -0.0671  3.1334 -3.0595
  529MOL0     H71389   7.425   7.784   3.977 -1.1369  2.6815  1.2320
  529MOL0     H71390   7.595   7.846   3.977 -0.1533 -4.2164 -2.4397
  529MOL0     H71391   7.396   7.883   4.224  0.1625  0.6060  0.7233
  529MOL0     H71392   7.553   7.946   4.216 -1.0836  0.9207  2.7024
  529MOL0     H71393   7.324   8.053   4.058  1.3467 -4.0526 -1.0147
  529MOL0     H71394   7.488   8.089   4.010  0.6525  2.1955  0.7879
  529MOL0     H71395   7.528   8.155   4.254  1.6133 -0.0838 -3.0879
  529MOL0     H71396   7.353   8.159   4.284  1.4161  0.9485  1.5299
  529MOL0     H71397   7.859   7.187   3.868  0.3268 -0.8553 -1.2518
  529MOL0     H71398   8.005   7.054   3.758 -4.1223 -0.5077  4.5655
  529MOL0     H71399   8.366   7.160   3.462 -1.9137 -1.1597  3.6971
  529MOL0     H71400   8.500   7.110   3.262  1.7520  1.7149  1.7877
  529MOL0     H71401   9.519   7.541   2.552 -0.9167 -0.2372 -0.9471
  529MOL0     H71402   9.561   7.793   2.560 -1.0382  4.7293 -1.7702
  529MOL0     H71403   9.470   8.291   2.174  1.3668 -1.5918 -1.0040
  529MOL0     H71404   9.564   8.500   2.229  0.8055  0.0599  1.3268
  529MOL0     H71405   9.764   8.629   2.209  1.2070 -0.1314 -0.2670
  529MOL0     H71406   9.674   8.707   2.344  0.8812  1.7009  1.2942
  529MOL0     H71407   9.881   8.837   2.252  1.5092 -0.2715  0.1218
  529MOL0     H71408   9.974   8.694   2.298 -0.8758 -2.0732 -0.4513
  529MOL0     H71409  10.015   8.862   2.470  1.9628 -3.7153 -1.3726
  529MOL0     H71410   9.890   8.757   2.545 -2.3225 -1.4271 -3.0637
  529MOL0     H71411   9.817   8.999   2.582  1.0793  0.6295  0.3431
  529MOL0     H71412   9.705   8.925   2.473  0.1944 -0.2482  3.2310
  529MOL0     H71413   9.877   9.206   2.208  2.6852  1.6455  1.5366
  529MOL0     H71414   9.796   8.330   2.549  1.9749 -0.9331 -1.0163
  529MOL0     H71415   9.726   8.111   2.462 -2.5144 -2.0360 -1.2837
  530MOL0     O71416   6.122   9.108   0.776 -0.8148  0.0075  0.7860
  530MOL0     C71417   6.048   9.020   0.741  0.2790 -0.4729 -0.5433
  530MOL0     O71418   5.988   8.999   0.616 -0.0018  0.2515 -0.6607
  530MOL0     C71419   6.059   9.051   0.508 -0.2042 -0.3531  0.2978
  530MOL0     C71420   5.999   9.087   0.384  0.7734  0.2832 -0.3322
  530MOL0     C71421   6.070   9.129   0.268  0.7125 -0.3554 -0.8147
  530MOL0     C71422   6.212   9.142   0.277  0.2386  0.2413 -0.2586
  530MOL0     O71423   6.283   9.182   0.162 -0.8771  0.3038 -0.2302
  530MOL0     C71424   6.219   9.287   0.079 -0.6412 -0.1092  0.0483
  530MOL0     C71425   6.319   9.333  -0.031  0.0922 -0.2199 -0.1582
  530MOL0     C71426   6.353   9.226  -0.130 -0.3055  0.8503 -0.5668
  530MOL0     C71427   6.445   9.269  -0.245 -0.4284 -0.5374 -0.6748
  530MOL0     C71428   6.485   9.139  -0.329 -0.4800 -0.0071 -0.6033
  530MOL0     C71429   6.604   9.161  -0.417 -0.5446 -0.8124 -0.3521
  530MOL0     C71430   6.733   9.122  -0.346 -1.3428  0.3788 -0.1532
  530MOL0     C71431   6.853   9.100  -0.440 -0.1549 -0.0696  0.4132
  530MOL0     N71432   6.871   9.218  -0.526  0.3346 -0.0612  0.3945
  530MOL0     C71433   6.914   9.347  -0.483 -0.1602  0.5214  0.3344
  530MOL0     C71434   6.898   9.417  -0.598 -0.5273 -0.4774  1.5583
  530MOL0     C71435   6.903   9.562  -0.616 -0.5980 -0.1203 -0.3867
  530MOL0     C71436   6.773   9.639  -0.635 -0.5225 -0.2829 -0.1784
  530MOL0     C71437   6.688   9.603  -0.514  0.7649 -0.5099  0.3940
  530MOL0     C71438   6.721   9.660  -0.379  0.5461  0.9393 -0.3911
  530MOL0     O71439   6.611   9.666  -0.288 -0.1578 -0.0622 -1.3717
  530MOL0     C71440   6.623   9.728  -0.161 -0.5337  0.0566  0.1451
  530MOL0     C71441   6.731   9.824  -0.117 -0.1695  0.1087  0.5234
  530MOL0     C71442   6.732   9.870   0.011  0.0373  0.0940  0.0187
  530MOL0     C71443   6.845   9.958   0.052  0.2604  0.0352 -0.7508
  530MOL0     C71444   6.619   9.842   0.102  0.8092  0.5843  0.9054
  530MOL0     C71445   6.603   9.865   0.249 -0.5313  0.3504 -0.2686
  530MOL0     O71446   6.716   9.907   0.312  0.6629  0.4770 -0.0138
  530MOL0     C71447   6.702   9.989   0.426 -0.2421  0.7912  0.2740
  530MOL0     C71448   6.605  10.087   0.450 -0.2413 -0.2664 -0.0854
  530MOL0     C71449   6.597  10.161   0.570  0.9590 -0.2573  0.0985
  530MOL0     C71450   6.689  10.146   0.666 -1.4848  0.1897  0.3859
  530MOL0     O71451   6.671  10.224   0.780 -0.0619  0.0444 -0.3173
  530MOL0     C71452   6.782  10.245   0.873 -0.3766  0.2291 -0.6681
  530MOL0     C71453   6.714  10.271   1.010 -0.9773  0.6941  0.1880
  530MOL0     C71454   6.634  10.404   0.998  0.2075  0.1338  0.5172
  530MOL0     C71455   6.579  10.462   1.129  0.6303 -0.8456  1.2812
  530MOL0     C71456   6.502  10.593   1.109  0.7846 -0.3799  0.9032
  530MOL0     C71457   6.495  10.668   1.243 -0.0426 -0.2946 -0.2777
  530MOL0     C71458   6.440  10.810   1.218  1.2714 -0.2752 -0.5699
  530MOL0     C71459   6.282  10.801   1.212 -1.7282 -0.9749  0.6564
  530MOL0    Cl71460   6.225  10.963   1.133  0.2568  0.1926  0.7199
  530MOL0     C71461   6.798  10.054   0.642  0.3393  0.6252  0.0824
  530MOL0     C71462   6.808   9.976   0.523  1.0117 -0.1101 -0.4952
  530MOL0     O71463   6.492   9.857   0.304 -0.3737  0.9220  0.4375
  530MOL0     C71464   6.511   9.764   0.047 -0.4945  0.5765 -0.4231
  530MOL0     C71465   6.513   9.704  -0.076  0.4930 -0.1566 -0.6006
  530MOL0     N71466   6.867   9.325  -0.705 -0.3923 -0.3897  0.4707
  530MOL0     N71467   6.863   9.206  -0.663  0.0952 -1.6528 -0.0780
  530MOL0     C71468   6.271   9.102   0.392 -0.3597 -1.1738  0.6114
  530MOL0     C71469   6.201   9.064   0.505  1.2324 -0.4638 -0.3778
  530MOL0     C71470   6.019   8.915   0.845  0.4010 -0.8962 -0.0889
  530MOL0     C71471   6.022   8.959   0.977  1.2663 -0.6226 -0.5046
  530MOL0     C71472   6.003   8.871   1.079 -0.1035  0.3442 -0.3627
  530MOL0     C71473   5.965   8.733   1.049 -0.0369 -0.2103 -0.3286
  530MOL0     O71474   5.928   8.660   1.153  0.4469  1.0909 -0.2619
  530MOL0     C71475   5.921   8.522   1.121  0.6767 -0.4396  0.0996
  530MOL0     C71476   5.902   8.448   1.246 -1.1017 -0.9805  0.7087
  530MOL0     C71477   5.902   8.297   1.236 -1.2120 -0.0427  0.4600
  530MOL0     C71478   5.905   8.231   1.381  0.4447  0.1952 -0.1992
  530MOL0     C71479   5.848   8.091   1.390 -0.3397 -0.6376 -0.3672
  530MOL0     C71480   5.796   7.980   1.405  0.1515 -0.2727 -0.8648
  530MOL0     C71481   5.945   8.698   0.916 -0.5206  0.0450  0.3599
  530MOL0     C71482   5.982   8.782   0.809  0.1944 -0.0030 -0.3320
  530MOL0     H71483   5.891   9.086   0.377  0.5836  3.6655  0.7076
  530MOL0     H71484   6.008   9.153   0.182  0.9050  2.1253 -0.3427
  530MOL0     H71485   6.139   9.241   0.020  1.5388 -0.7280 -2.6437
  530MOL0     H71486   6.175   9.366   0.140  1.2738  0.7781  0.3343
  530MOL0     H71487   6.275   9.418  -0.084  0.1553 -2.1704 -3.6511
  530MOL0     H71488   6.413   9.358   0.019 -0.2691 -1.4094  1.1937
  530MOL0     H71489   6.404   9.150  -0.070 -2.0381  1.5211  1.9541
  530MOL0     H71490   6.259   9.187  -0.169  0.0318 -0.8185  0.2155
  530MOL0     H71491   6.387   9.346  -0.296  0.4402 -1.3939 -3.1186
  530MOL0     H71492   6.535   9.316  -0.205 -0.2137 -1.5104  0.0406
  530MOL0     H71493   6.494   9.057  -0.258 -3.0196 -0.4781 -0.7366
  530MOL0     H71494   6.396   9.115  -0.387 -0.2989  0.2382 -0.9866
  530MOL0     H71495   6.591   9.106  -0.511  0.3920  1.6207 -1.9885
  530MOL0     H71496   6.617   9.263  -0.453 -0.2883 -1.3609 -1.8970
  530MOL0     H71497   6.774   9.204  -0.286 -0.3149 -2.4671  3.3691
  530MOL0     H71498   6.733   9.041  -0.273  0.9281  1.7435  1.4726
  530MOL0     H71499   6.853   9.014  -0.508 -0.3313  0.6572 -0.5376
  530MOL0     H71500   6.945   9.098  -0.381  0.3763  0.4880 -0.3696
  530MOL0     H71501   6.956   9.374  -0.387  2.8410 -1.7421 -0.1958
  530MOL0     H71502   6.965   9.610  -0.540  0.5565  1.2866 -2.1418
  530MOL0     H71503   6.959   9.574  -0.709 -3.2685 -1.4748 -2.3333
  530MOL0     H71504   6.725   9.601  -0.726  0.7478  3.3370 -2.5965
  530MOL0     H71505   6.784   9.747  -0.653 -4.4008 -0.0171 -2.0423
  530MOL0     H71506   6.662   9.497  -0.513  1.1877 -0.6560  2.6834
  530MOL0     H71507   6.588   9.642  -0.534  0.9844  0.1163  0.4775
  530MOL0     H71508   6.751   9.764  -0.396  1.3967  0.6609 -0.6524
  530MOL0     H71509   6.798   9.595  -0.337 -0.6243 -1.3985 -1.6770
  530MOL0     H71510   6.808   9.857  -0.186 -2.3402  1.8708 -1.2196
  530MOL0     H71511   6.925   9.979  -0.020  3.4768 -0.5301  2.3918
  530MOL0     H71512   6.812  10.057   0.083  0.6895  0.8582 -2.7165
  530MOL0     H71513   6.909   9.913   0.128 -0.6421  0.9290  0.5805
  530MOL0     H71514   6.533  10.086   0.369  0.2666 -2.5468 -0.5747
  530MOL0     H71515   6.532  10.247   0.582  4.3614  2.5552  0.1760
  530MOL0     H71516   6.839  10.152   0.883 -3.2900 -1.7894 -1.4517
  530MOL0     H71517   6.854  10.319   0.838 -0.7293  0.9369  0.0782
  530MOL0     H71518   6.637  10.195   1.028 -2.7588  2.2443 -0.5780
  530MOL0     H71519   6.789  10.274   1.090 -0.6074 -0.2012 -0.1122
  530MOL0     H71520   6.549  10.392   0.930  0.8847 -1.6127 -0.0824
  530MOL0     H71521   6.700  10.477   0.950 -0.7711  0.2311 -0.7208
  530MOL0     H71522   6.513  10.391   1.180 -1.5174  1.0496  1.2981
  530MOL0     H71523   6.666  10.485   1.190  1.2547  1.0493 -0.2524
  530MOL0     H71524   6.400  10.582   1.072  0.0593  3.0139  1.5180
  530MOL0     H71525   6.554  10.656   1.037  0.6323 -0.6936  0.5170
  530MOL0     H71526   6.444  10.613   1.323  0.1547 -1.4701 -0.9369
  530MOL0     H71527   6.598  10.688   1.273 -0.3556 -0.7869  1.2183
  530MOL0     H71528   6.474  10.848   1.121 -0.2351  1.3517 -0.5008
  530MOL0     H71529   6.463  10.877   1.301  0.7205  0.7880 -1.2548
  530MOL0     H71530   6.238  10.769   1.307  1.5384 -2.1424  1.8955
  530MOL0     H71531   6.262  10.723   1.139  3.9586 -2.0568 -0.1672
  530MOL0     H71532   6.872  10.035   0.719 -0.0434  1.2452  0.6203
  530MOL0     H71533   6.893   9.911   0.503  2.1954  1.3757 -0.4955
  530MOL0     H71534   6.413   9.751   0.093 -0.2225  2.6969  0.9158
  530MOL0     H71535   6.427   9.644  -0.104  0.2583  1.0862 -2.7939
  530MOL0     H71536   6.379   9.089   0.390 -0.4900 -2.6597 -2.2389
  530MOL0     H71537   6.262   9.046   0.592  0.6593 -1.0316 -0.0865
  530MOL0     H71538   6.051   9.060   1.005  1.2433 -0.6094 -0.5281
  530MOL0     H71539   6.026   8.888   1.184  0.4398 -4.4393  0.5321
  530MOL0     H71540   5.831   8.502   1.061  0.6844  2.5687 -1.0709
  530MOL0     H71541   6.008   8.490   1.063  1.6258  0.0301  1.2311
  530MOL0     H71542   5.818   8.487   1.305  0.2847  4.5134 -0.4401
  530MOL0     H71543   5.982   8.476   1.315 -1.6597  0.4269  0.8172
  530MOL0     H71544   5.994   8.277   1.180 -1.6223  0.8689 -0.5909
  530MOL0     H71545   5.810   8.266   1.187 -3.0769  0.9528  3.1303
  530MOL0     H71546   5.853   8.306   1.442  0.6895  0.6171 -0.5055
  530MOL0     H71547   6.006   8.213   1.416  0.7225 -0.8262 -1.4361
  530MOL0     H71548   5.742   7.888   1.416  2.0349 -1.1267  2.4247
  530MOL0     H71549   5.902   8.602   0.888 -4.8959  1.3552  1.7668
  530MOL0     H71550   5.982   8.748   0.705  3.1855 -2.5174  0.3367
  531MOL0     O71551   9.846   9.058   8.551  0.4385 -0.0326  0.4264
  531MOL0     C71552   9.874   9.179   8.573 -0.1131 -0.1328  0.7136
  531MOL0     O71553   9.962   9.253   8.495  0.2527 -0.4531 -0.3776
  531MOL0     C71554  10.055   9.180   8.415  0.7269 -0.6009 -0.1497
  531MOL0     C71555  10.189   9.201   8.433 -0.6958 -0.6428  0.4143
  531MOL0     C71556  10.273   9.141   8.338  0.0531  0.4686  0.5649
  531MOL0     C71557  10.219   9.063   8.235  0.9323 -0.7754 -0.1822
  531MOL0     O71558  10.299   8.995   8.149 -0.2580 -0.8006  0.5470
  531MOL0     C71559  10.405   8.904   8.181 -0.3401 -0.1211 -0.0806
  531MOL0     C71560  10.364   8.773   8.245 -0.2641  0.9358 -0.2121
  531MOL0     C71561  10.277   8.692   8.148  0.4343 -0.9072 -0.4619
  531MOL0     C71562  10.246   8.548   8.192  0.6326  0.5320 -0.0741
  531MOL0     C71563  10.097   8.517   8.195 -0.9422  0.1887  0.2053
  531MOL0     C71564  10.037   8.600   8.301  0.1119 -0.0207 -0.7851
  531MOL0     C71565   9.888   8.583   8.294 -0.3585  0.0815  0.5059
  531MOL0     C71566   9.824   8.681   8.393 -0.2128 -0.3516 -0.5583
  531MOL0     N71567   9.675   8.671   8.386 -0.0087 -0.8134 -0.5063
  531MOL0     C71568   9.601   8.589   8.455  0.4081  0.0656 -0.3599
  531MOL0     C71569   9.470   8.599   8.416 -0.5059  0.7546  0.5737
  531MOL0     C71570   9.356   8.503   8.449 -0.0397 -0.5602 -0.1318
  531MOL0     C71571   9.387   8.367   8.518  0.8856 -0.0445 -0.5948
  531MOL0     C71572   9.301   8.250   8.477  0.4322 -0.0140 -0.6831
  531MOL0     C71573   9.355   8.191   8.351  0.0313  1.0088 -0.1764
  531MOL0     O71574   9.316   8.262   8.233 -0.1549  0.1775  0.2750
  531MOL0     C71575   9.192   8.248   8.170  0.2648 -0.4405  0.1430
  531MOL0     C71576   9.186   8.268   8.033  0.5387  0.6059 -0.3573
  531MOL0     C71577   9.071   8.250   7.953 -0.3965 -1.4305 -0.2862
  531MOL0     C71578   9.093   8.276   7.805  0.3447  0.9721 -0.6532
  531MOL0     C71579   8.941   8.233   8.014  0.7064 -0.5452  0.1182
  531MOL0     C71580   8.810   8.204   7.945 -0.0863  0.1499 -0.3793
  531MOL0     O71581   8.802   8.212   7.805 -0.2401 -0.7344 -0.2842
  531MOL0     C71582   8.678   8.209   7.736 -0.5433  0.4063 -0.4269
  531MOL0     C71583   8.556   8.263   7.774  0.3928  0.0080  0.0192
  531MOL0     C71584   8.438   8.241   7.696  1.3121 -0.1619 -0.9062
  531MOL0     C71585   8.443   8.166   7.577  0.0113 -0.7736  0.9850
  531MOL0     O71586   8.323   8.132   7.510 -0.1960 -0.8011 -0.0232
  531MOL0     C71587   8.218   8.238   7.516 -0.3500  0.0512 -0.1729
  531MOL0     C71588   8.107   8.208   7.412  0.0078 -0.0709 -0.0040
  531MOL0     C71589   7.971   8.256   7.456 -0.2876 -0.3287 -0.7359
  531MOL0     C71590   7.960   8.405   7.454  0.1530  1.1610  0.4126
  531MOL0     C71591   7.825   8.458   7.497  0.4198 -0.2762 -0.1504
  531MOL0     C71592   7.835   8.605   7.548 -1.6139 -0.2756 -0.6307
  531MOL0     C71593   7.921   8.697   7.453 -0.3899 -0.3821 -0.8276
  531MOL0     C71594   7.899   8.845   7.468 -0.8458 -0.8192 -0.5432
  531MOL0    Cl71595   7.732   8.893   7.421 -0.0471 -0.2359  0.1360
  531MOL0     C71596   8.564   8.125   7.534 -0.2019  0.3691 -0.2747
  531MOL0     C71597   8.681   8.139   7.616  0.9803 -1.2804  0.4907
  531MOL0     O71598   8.712   8.194   8.020 -0.1405  0.3536 -0.0699
  531MOL0     C71599   8.952   8.216   8.152  0.0628 -0.3848 -0.2128
  531MOL0     C71600   9.076   8.202   8.225 -0.5742 -0.9176  0.6709
  531MOL0     N71601   9.466   8.703   8.326 -0.2344  0.2901 -0.4103
  531MOL0     N71602   9.593   8.737   8.304  0.8222  0.5774 -0.3145
  531MOL0     C71603  10.082   9.037   8.222  0.7703 -0.4990 -0.1417
  531MOL0     C71604  10.000   9.104   8.314  0.7909 -0.1338 -0.3511
  531MOL0     C71605   9.794   9.252   8.665  0.6756  0.0446 -0.8404
  531MOL0     C71606   9.836   9.369   8.724 -0.2083  0.3320  0.4118
  531MOL0     C71607   9.759   9.448   8.818  0.8011 -0.1266  1.1734
  531MOL0     C71608   9.637   9.402   8.857  0.1003 -0.2806  0.4104
  531MOL0     O71609   9.550   9.452   8.947  0.3034 -0.0785  0.2077
  531MOL0     C71610   9.573   9.587   8.989  1.1701  0.2304 -0.3810
  531MOL0     C71611   9.457   9.637   9.081 -0.4461 -0.4245 -0.3058
  531MOL0     C71612   9.406   9.541   9.194 -0.3097 -0.7579 -0.1137
  531MOL0     C71613   9.288   9.604   9.270  0.1567 -0.3270  0.1464
  531MOL0     C71614   9.314   9.728   9.345  0.1873 -0.7259 -0.4006
  531MOL0     C71615   9.347   9.833   9.381  0.1277 -0.4903 -0.5229
  531MOL0     C71616   9.599   9.273   8.813  0.4324  0.1447  0.0095
  531MOL0     C71617   9.673   9.207   8.718 -0.9483 -0.2159  0.7320
  531MOL0     H71618  10.240   9.243   8.519 -0.3475  0.1717 -0.1771
  531MOL0     H71619  10.377   9.167   8.351 -0.1605  0.5101  2.3193
  531MOL0     H71620  10.457   8.881   8.087 -1.9591  0.6698 -1.2324
  531MOL0     H71621  10.474   8.952   8.250 -0.1653 -1.8863  1.0325
  531MOL0     H71622  10.445   8.706   8.276 -0.2645  0.2519 -1.6096
  531MOL0     H71623  10.302   8.793   8.333 -1.0422 -0.0504 -0.5242
  531MOL0     H71624  10.188   8.746   8.114 -0.8221 -3.5238 -1.5912
  531MOL0     H71625  10.328   8.691   8.052 -4.9266 -0.2968 -3.7200
  531MOL0     H71626  10.301   8.474   8.133  1.1712  0.5151  0.4372
  531MOL0     H71627  10.285   8.530   8.293  0.8506 -1.9495 -0.5238
  531MOL0     H71628  10.044   8.532   8.101 -2.6159 -2.3774  0.6262
  531MOL0     H71629  10.083   8.411   8.221 -1.7114  0.6389  1.7229
  531MOL0     H71630  10.089   8.582   8.395 -0.8262  2.1714  0.2200
  531MOL0     H71631  10.049   8.706   8.280  4.6686 -0.1896 -0.0183
  531MOL0     H71632   9.849   8.605   8.194 -1.5116  2.9206  1.5004
  531MOL0     H71633   9.861   8.479   8.316 -4.5496  1.4991  3.2406
  531MOL0     H71634   9.851   8.783   8.363 -1.0318 -0.0999 -0.4547
  531MOL0     H71635   9.852   8.666   8.497 -1.6396  2.4382  0.3262
  531MOL0     H71636   9.630   8.518   8.532  0.6149 -1.1922 -1.5607
  531MOL0     H71637   9.289   8.566   8.508  2.0487  2.0545 -0.3306
  531MOL0     H71638   9.298   8.487   8.358 -0.5373 -1.1829  0.2873
  531MOL0     H71639   9.366   8.383   8.624 -0.5229  4.2787 -1.3101
  531MOL0     H71640   9.492   8.342   8.500  1.0292 -0.7361  1.0803
  531MOL0     H71641   9.195   8.274   8.470  0.0847 -1.3949 -0.4252
  531MOL0     H71642   9.304   8.178   8.560 -0.5630 -1.1598 -1.5954
  531MOL0     H71643   9.333   8.086   8.331  1.0521  0.8093 -0.2584
  531MOL0     H71644   9.463   8.196   8.361 -0.0862 -1.0357  3.5452
  531MOL0     H71645   9.286   8.252   7.992  0.7280 -3.2542  1.2202
  531MOL0     H71646   9.043   8.370   7.781 -0.5522  0.3490 -1.2914
  531MOL0     H71647   9.198   8.274   7.774  0.3068  0.0031 -0.7682
  531MOL0     H71648   9.029   8.204   7.752 -0.9277 -0.6318  2.7796
  531MOL0     H71649   8.549   8.319   7.867 -2.9444  1.9278 -1.2221
  531MOL0     H71650   8.344   8.271   7.743  2.1187 -2.5359  2.6169
  531MOL0     H71651   8.177   8.248   7.616  1.3231  2.4002  0.3598
  531MOL0     H71652   8.268   8.332   7.489  0.3937 -0.4599 -0.6358
  531MOL0     H71653   8.126   8.233   7.307  2.9609 -4.3152 -0.7147
  531MOL0     H71654   8.106   8.099   7.406 -0.9492 -0.2091  2.0155
  531MOL0     H71655   7.965   8.238   7.563 -1.8568 -3.0673 -1.1821
  531MOL0     H71656   7.891   8.201   7.405  0.2334 -0.7454 -1.1170
  531MOL0     H71657   8.044   8.435   7.517  2.0056 -2.5668 -0.0217
  531MOL0     H71658   7.971   8.443   7.352  2.2014  1.5863  0.7522
  531MOL0     H71659   7.788   8.397   7.580  1.7534  0.2984  0.9047
  531MOL0     H71660   7.759   8.444   7.411 -1.2935 -4.0344  1.5492
  531MOL0     H71661   7.737   8.652   7.555 -1.2842  0.1748  2.6440
  531MOL0     H71662   7.879   8.601   7.648 -0.0602  2.6972 -1.0940
  531MOL0     H71663   7.890   8.674   7.351 -2.6549  1.7164 -0.6812
  531MOL0     H71664   8.029   8.684   7.470 -0.7936 -3.3075  0.1071
  531MOL0     H71665   7.968   8.911   7.415 -0.3087 -0.7594  0.2202
  531MOL0     H71666   7.905   8.863   7.575 -2.4067 -0.6170 -0.4612
  531MOL0     H71667   8.578   8.069   7.443 -3.3957 -2.3087  0.6862
  531MOL0     H71668   8.783   8.112   7.590  1.2972  0.9351 -0.7973
  531MOL0     H71669   8.867   8.230   8.218 -1.0146  1.3104 -1.8466
  531MOL0     H71670   9.083   8.172   8.329 -1.5772 -1.2181  0.6610
  531MOL0     H71671  10.044   8.980   8.138 -0.9155  3.7209 -2.5460
  531MOL0     H71672   9.892   9.102   8.317  0.7851 -2.4774 -0.2468
  531MOL0     H71673   9.932   9.405   8.689 -0.5694 -1.5639 -3.0046
  531MOL0     H71674   9.796   9.547   8.845  2.9159 -0.0291 -1.6412
  531MOL0     H71675   9.670   9.609   9.036  0.8240  1.8633 -0.3742
  531MOL0     H71676   9.573   9.653   8.901 -1.4926  1.2241  0.2673
  531MOL0     H71677   9.367   9.681   9.036  1.0764  4.7124  0.9378
  531MOL0     H71678   9.497   9.724   9.134 -1.2707 -0.1927 -0.0441
  531MOL0     H71679   9.489   9.513   9.260  0.0554  0.4801 -0.0205
  531MOL0     H71680   9.368   9.452   9.143 -0.5065 -1.4493  1.2008
  531MOL0     H71681   9.240   9.529   9.333 -0.1340 -0.9760 -0.8252
  531MOL0     H71682   9.219   9.624   9.187 -0.5804 -4.9740 -0.6143
  531MOL0     H71683   9.382   9.934   9.390  0.1899 -0.6282  1.0363
  531MOL0     H71684   9.509   9.225   8.849 -0.0551 -0.6129 -2.0516
  531MOL0     H71685   9.619   9.122   8.679 -1.6121  0.0228  1.1152
  532MOL0     O71686   3.290   2.104   1.790  0.3328  0.1402  0.2927
  532MOL0     C71687   3.212   2.065   1.701 -0.9335  0.4972  0.5675
  532MOL0     O71688   3.212   2.115   1.571 -0.8657  0.6684 -0.5770
  532MOL0     C71689   3.296   2.222   1.541 -0.2388  0.2755 -0.1232
  532MOL0     C71690   3.378   2.202   1.430  0.1592 -0.9643 -0.2034
  532MOL0     C71691   3.463   2.303   1.396 -0.3207 -0.2801  0.2380
  532MOL0     C71692   3.457   2.428   1.457 -0.2161 -0.0854 -0.1705
  532MOL0     O71693   3.566   2.513   1.435  0.1100  0.3454 -0.2385
  532MOL0     C71694   3.562   2.572   1.303 -0.1988 -0.2369 -0.4717
  532MOL0     C71695   3.697   2.546   1.242 -0.3858 -0.0373 -0.6923
  532MOL0     C71696   3.688   2.604   1.098  0.3043  0.7521 -0.3805
  532MOL0     C71697   3.823   2.588   1.024  0.4120 -0.0226 -1.5896
  532MOL0     C71698   3.825   2.660   0.895  1.0457 -0.7965 -0.3487
  532MOL0     C71699   3.956   2.614   0.832  0.4150  0.4719  0.5062
  532MOL0     C71700   3.998   2.695   0.709 -0.3987  1.1802 -0.5817
  532MOL0     C71701   4.102   2.807   0.744  0.4096 -0.1286  0.0785
  532MOL0     N71702   4.225   2.744   0.794  0.5417  0.1682 -0.6192
  532MOL0     C71703   4.297   2.656   0.719  0.7658 -0.4852  1.0358
  532MOL0     C71704   4.402   2.626   0.790  0.7766  0.4517  0.7769
  532MOL0     C71705   4.511   2.520   0.766 -0.4104 -0.4426 -0.3272
  532MOL0     C71706   4.448   2.382   0.710 -0.0390  0.7753  0.3713
  532MOL0     C71707   4.374   2.298   0.816 -0.1471  0.0669  0.5555
  532MOL0     C71708   4.228   2.305   0.796  0.1898  0.4106 -0.1531
  532MOL0     O71709   4.155   2.251   0.904  0.1468  1.0404  0.1473
  532MOL0     C71710   4.019   2.248   0.906 -0.6831 -0.3078 -0.1830
  532MOL0     C71711   3.945   2.264   0.791  0.4600 -0.5086 -0.2396
  532MOL0     C71712   3.803   2.285   0.800  0.7190  0.2873  0.7737
  532MOL0     C71713   3.740   2.355   0.687 -0.2439  0.0416  0.3916
  532MOL0     C71714   3.732   2.256   0.924  0.5175  0.1819  0.2510
  532MOL0     C71715   3.582   2.261   0.943  0.4033 -0.5369 -0.3321
  532MOL0     O71716   3.501   2.283   0.825  0.0651  0.0584  0.2275
  532MOL0     C71717   3.369   2.258   0.812 -0.7304  0.2038  0.7516
  532MOL0     C71718   3.310   2.296   0.688 -0.4414  0.7962  0.3215
  532MOL0     C71719   3.177   2.254   0.664 -0.2450  0.5361 -0.3719
  532MOL0     C71720   3.111   2.184   0.762 -0.2473 -0.6729 -0.0427
  532MOL0     O71721   2.979   2.168   0.745  0.5914  0.8417 -0.1065
  532MOL0     C71722   2.899   2.252   0.824 -0.3915  0.9030 -0.0641
  532MOL0     C71723   2.834   2.372   0.754 -0.4080  0.6429 -0.3900
  532MOL0     C71724   2.806   2.342   0.604 -0.5079  0.3447  1.1247
  532MOL0     C71725   2.760   2.466   0.530  0.4844  0.2831 -0.0754
  532MOL0     C71726   2.758   2.448   0.382  0.6543  0.2323  0.0792
  532MOL0     C71727   2.901   2.476   0.311  0.5487 -0.0086 -0.2269
  532MOL0     C71728   2.989   2.592   0.373  0.0364 -1.7628 -0.4394
  532MOL0     C71729   3.100   2.624   0.269 -0.5790 -1.1960  0.1200
  532MOL0    Cl71730   3.203   2.754   0.334 -0.0214  0.5295  0.2128
  532MOL0     C71731   3.173   2.135   0.873  0.9377 -0.9976  0.2562
  532MOL0     C71732   3.301   2.174   0.901 -0.5065 -0.7691 -0.9829
  532MOL0     O71733   3.539   2.264   1.057  0.3930 -1.0437  0.1513
  532MOL0     C71734   3.814   2.205   1.027 -0.0982 -0.4900  0.4434
  532MOL0     C71735   3.959   2.213   1.026  0.0030 -0.1894  0.2498
  532MOL0     N71736   4.396   2.694   0.908 -0.3149 -0.0865  0.4106
  532MOL0     N71737   4.294   2.772   0.915 -0.8915 -0.1067 -0.2266
  532MOL0     C71738   3.367   2.451   1.555 -0.5190 -0.3721  0.8067
  532MOL0     C71739   3.298   2.348   1.602  0.9340  0.5634 -1.5062
  532MOL0     C71740   3.124   1.951   1.730  0.2238  0.5538 -0.8443
  532MOL0     C71741   3.020   1.921   1.635 -0.3666  0.2566  0.4355
  532MOL0     C71742   2.933   1.810   1.663  0.3971  1.0252 -0.9963
  532MOL0     C71743   2.955   1.729   1.774 -0.4286 -0.9079 -1.0074
  532MOL0     O71744   2.888   1.627   1.821  0.1713 -0.1232 -0.3636
  532MOL0     C71745   2.748   1.601   1.780 -0.6585 -0.1299  0.7230
  532MOL0     C71746   2.682   1.495   1.857  0.4690  0.0540 -0.9798
  532MOL0     C71747   2.703   1.350   1.799  0.0571 -0.0767  0.1218
  532MOL0     C71748   2.829   1.273   1.833  0.3580  0.2761 -1.0839
  532MOL0     C71749   2.945   1.301   1.746 -0.8842  0.5333 -0.1174
  532MOL0     C71750   3.049   1.316   1.679  0.9067 -0.3785 -0.3646
  532MOL0     C71751   3.064   1.759   1.865 -0.5626  0.1210 -0.7447
  532MOL0     C71752   3.144   1.865   1.840  0.4584 -0.6795 -0.9252
  532MOL0     H71753   3.369   2.111   1.372  0.0187  1.2230 -3.9589
  532MOL0     H71754   3.535   2.285   1.317 -1.8224 -6.0023 -0.2884
  532MOL0     H71755   3.473   2.538   1.250  1.1983  0.5780 -3.5797
  532MOL0     H71756   3.546   2.679   1.317 -1.9596 -0.5642  0.2124
  532MOL0     H71757   3.772   2.601   1.298 -0.5185  1.3815 -1.8651
  532MOL0     H71758   3.714   2.438   1.250 -0.7999 -0.3845 -3.2886
  532MOL0     H71759   3.627   2.534   1.041  0.9924 -0.9009  0.8555
  532MOL0     H71760   3.648   2.706   1.095 -0.7038  0.3550 -2.1528
  532MOL0     H71761   3.906   2.639   1.075  0.0010  1.7980 -2.6512
  532MOL0     H71762   3.855   2.483   1.022  2.2227  0.4769 -1.1773
  532MOL0     H71763   3.745   2.614   0.836  1.3030  0.1373 -1.4471
  532MOL0     H71764   3.818   2.769   0.894 -1.3557 -0.8736 -2.4946
  532MOL0     H71765   4.041   2.608   0.900 -0.4842 -1.9381  1.5394
  532MOL0     H71766   3.949   2.511   0.796 -2.0650  0.6411  0.3195
  532MOL0     H71767   4.050   2.629   0.639  0.8585  2.7246 -1.1547
  532MOL0     H71768   3.919   2.733   0.643 -1.6616 -1.2615 -0.5996
  532MOL0     H71769   4.046   2.865   0.818  1.7096 -0.0566  1.0579
  532MOL0     H71770   4.123   2.887   0.673  2.5631 -0.2387  0.5131
  532MOL0     H71771   4.279   2.623   0.617  2.6368  1.6346 -0.0904
  532MOL0     H71772   4.597   2.552   0.707  0.7467 -0.0723  1.4743
  532MOL0     H71773   4.552   2.495   0.865  0.7913 -1.4931 -1.0652
  532MOL0     H71774   4.529   2.320   0.672  0.2340  0.0984  1.9861
  532MOL0     H71775   4.384   2.411   0.626  1.1514  0.7285 -0.5658
  532MOL0     H71776   4.414   2.327   0.914  4.3476  3.1481 -1.8297
  532MOL0     H71777   4.395   2.192   0.804  1.1771  0.4992 -1.2850
  532MOL0     H71778   4.205   2.263   0.698 -0.3244 -0.3213  0.2651
  532MOL0     H71779   4.196   2.410   0.797 -3.1800 -0.5088 -0.2845
  532MOL0     H71780   4.000   2.278   0.699  1.7645 -0.8958  0.4549
  532MOL0     H71781   3.815   2.388   0.616  0.8764 -1.3031  0.9109
  532MOL0     H71782   3.690   2.272   0.636  0.3976 -0.1528  0.0707
  532MOL0     H71783   3.671   2.435   0.715 -1.5718 -0.3642 -1.4979
  532MOL0     H71784   3.366   2.350   0.612 -2.0537  0.2825 -1.3131
  532MOL0     H71785   3.133   2.272   0.566 -3.0046 -2.3808  0.1695
  532MOL0     H71786   2.826   2.178   0.857  3.3731 -2.9150  0.5766
  532MOL0     H71787   2.936   2.287   0.920  2.1489  2.6888 -1.5592
  532MOL0     H71788   2.745   2.401   0.811  1.1063 -0.3237  2.6931
  532MOL0     H71789   2.900   2.460   0.762 -1.1601  1.4105 -2.1720
  532MOL0     H71790   2.723   2.271   0.611 -0.7098  0.4196 -0.1133
  532MOL0     H71791   2.889   2.292   0.553 -1.5213  0.3606 -0.6503
  532MOL0     H71792   2.661   2.492   0.569 -0.9717  1.8660 -4.1715
  532MOL0     H71793   2.819   2.552   0.561 -3.0335  1.9540  2.6692
  532MOL0     H71794   2.681   2.513   0.338 -0.8870  0.1296  2.4455
  532MOL0     H71795   2.743   2.343   0.357 -0.1153  0.9674 -2.9335
  532MOL0     H71796   2.962   2.385   0.321 -1.9360 -1.6907  0.8535
  532MOL0     H71797   2.895   2.498   0.204  0.2380  0.9615 -0.0107
  532MOL0     H71798   3.032   2.557   0.467 -2.1808 -2.9390  0.2102
  532MOL0     H71799   2.926   2.680   0.387 -0.5366 -2.1881 -0.3133
  532MOL0     H71800   3.052   2.651   0.174  0.3641  0.9826  0.2190
  532MOL0     H71801   3.158   2.533   0.252 -1.0704 -1.5421  0.2784
  532MOL0     H71802   3.119   2.083   0.952  0.3045  2.1266  2.0563
  532MOL0     H71803   3.345   2.137   0.993 -0.8406  3.6514  1.2219
  532MOL0     H71804   3.761   2.163   1.112  1.3152 -3.9653 -0.2449
  532MOL0     H71805   4.024   2.190   1.109  1.9791 -0.1840 -1.2089
  532MOL0     H71806   3.372   2.548   1.602  1.5724  0.2796 -0.5974
  532MOL0     H71807   3.231   2.370   1.684  3.9548 -1.9845  1.9789
  532MOL0     H71808   2.986   1.983   1.553  0.8554 -1.9559 -1.8849
  532MOL0     H71809   2.848   1.781   1.602 -0.5316  3.1941 -0.8327
  532MOL0     H71810   2.703   1.697   1.804  2.9235  1.8817  0.2075
  532MOL0     H71811   2.743   1.571   1.675  2.7058  3.5560 -0.7797
  532MOL0     H71812   2.576   1.521   1.867  0.6409  0.6721 -0.7272
  532MOL0     H71813   2.721   1.486   1.959 -2.2492 -1.4330  0.0264
  532MOL0     H71814   2.691   1.362   1.691 -1.9049  2.5862  0.5300
  532MOL0     H71815   2.615   1.293   1.830 -0.1287  0.8952  1.4703
  532MOL0     H71816   2.817   1.164   1.823 -0.2732  0.3589 -1.3316
  532MOL0     H71817   2.856   1.299   1.935 -3.8200  0.5628  0.1377
  532MOL0     H71818   3.137   1.342   1.623  0.9037  1.1319  0.2961
  532MOL0     H71819   3.090   1.689   1.943  0.4102 -1.8090 -2.7106
  532MOL0     H71820   3.228   1.876   1.907  0.3817 -1.2895 -0.7201
  533MOL0     O71821   7.601   5.699   4.210  0.1457 -0.0173 -0.4291
  533MOL0     C71822   7.686   5.669   4.123 -0.5935  0.1870 -0.2931
  533MOL0     O71823   7.670   5.568   4.026 -0.8347 -0.6120 -0.4929
  533MOL0     C71824   7.554   5.493   4.021 -0.4315 -0.4470 -0.0552
  533MOL0     C71825   7.505   5.466   3.891 -0.9513  0.0628  0.1029
  533MOL0     C71826   7.402   5.390   3.862  0.3064  0.1660  0.1432
  533MOL0     C71827   7.342   5.317   3.970 -0.0819  0.0564 -0.0472
  533MOL0     O71828   7.236   5.226   3.959 -0.7088  0.7115  0.4976
  533MOL0     C71829   7.242   5.140   3.841  0.0153 -0.4993  0.0073
  533MOL0     C71830   7.359   5.049   3.812  0.7195 -1.3300  0.4209
  533MOL0     C71831   7.401   4.975   3.938 -2.0768 -0.3892 -0.2525
  533MOL0     C71832   7.494   4.851   3.898  0.2851  0.2677 -0.3051
  533MOL0     C71833   7.491   4.736   3.998  0.8028  0.0171  0.1506
  533MOL0     C71834   7.609   4.647   3.977 -0.5245  0.8443  0.1614
  533MOL0     C71835   7.581   4.529   3.882 -0.1660 -0.3466 -0.3505
  533MOL0     C71836   7.480   4.429   3.949  0.0101  0.1596 -0.2949
  533MOL0     N71837   7.494   4.287   3.920 -0.4317  1.8666  0.4056
  533MOL0     C71838   7.612   4.228   3.886 -0.1558  0.5535  0.8120
  533MOL0     C71839   7.599   4.086   3.894  0.0076 -0.1557  0.0153
  533MOL0     C71840   7.707   3.993   3.844  0.1430 -0.4755  0.4565
  533MOL0     C71841   7.725   3.986   3.696  0.7523 -0.1227  0.0861
  533MOL0     C71842   7.869   4.006   3.673  0.1362  0.2522  0.3659
  533MOL0     C71843   7.911   4.154   3.677  0.1152 -0.7508  0.3948
  533MOL0     O71844   7.843   4.228   3.575 -0.2417  0.1378  0.2078
  533MOL0     C71845   7.904   4.352   3.542  0.6502  1.2603 -0.8455
  533MOL0     C71846   7.861   4.471   3.601  0.3694  0.4721  0.3816
  533MOL0     C71847   7.920   4.598   3.571 -0.5096 -0.6750  0.4602
  533MOL0     C71848   7.861   4.720   3.635  1.2394 -0.5272 -0.6264
  533MOL0     C71849   8.020   4.605   3.475  0.2155 -0.3823  0.0650
  533MOL0     C71850   8.082   4.734   3.418 -0.2478  0.0875 -0.2710
  533MOL0     O71851   7.989   4.827   3.392 -0.6103 -0.2946  0.1897
  533MOL0     C71852   8.031   4.959   3.363 -0.5361 -0.4759 -0.2977
  533MOL0     C71853   8.017   5.030   3.243 -0.5063  0.1903 -0.2295
  533MOL0     C71854   8.081   5.151   3.228  0.4538  0.0980  0.1909
  533MOL0     C71855   8.133   5.222   3.337  0.4369 -0.2044 -0.6578
  533MOL0     O71856   8.188   5.346   3.317  0.0431  0.0191  0.6575
  533MOL0     C71857   8.330   5.338   3.301  0.4649  0.5125 -0.1000
  533MOL0     C71858   8.403   5.334   3.440 -0.0371 -0.9759  0.4094
  533MOL0     C71859   8.525   5.428   3.447 -0.0347  0.8810 -0.7873
  533MOL0     C71860   8.643   5.359   3.381 -0.2041 -0.3065 -0.4939
  533MOL0     C71861   8.773   5.439   3.405 -0.0646 -0.2453 -0.1634
  533MOL0     C71862   8.894   5.353   3.402  0.1318  0.0871  0.8879
  533MOL0     C71863   9.024   5.431   3.440 -0.8310  1.0108 -0.3603
  533MOL0     C71864   9.106   5.457   3.309 -0.0739 -0.8445  0.4401
  533MOL0    Cl71865   9.010   5.550   3.186 -0.2499 -0.0289  0.0148
  533MOL0     C71866   8.139   5.159   3.461 -0.1843  0.2016  0.1877
  533MOL0     C71867   8.093   5.022   3.472 -0.3418  0.6389  0.3230
  533MOL0     O71868   8.199   4.738   3.384 -0.2872  0.5471 -0.6727
  533MOL0     C71869   8.073   4.475   3.425 -0.0262 -0.2032  0.6058
  533MOL0     C71870   8.022   4.357   3.468  0.7862  0.3972 -0.1701
  533MOL0     N71871   7.463   4.060   3.929  0.1864  0.3922  0.9429
  533MOL0     N71872   7.411   4.176   3.944 -0.2531 -1.2738  0.3440
  533MOL0     C71873   7.391   5.334   4.102  0.8042  0.6803 -0.0293
  533MOL0     C71874   7.490   5.426   4.129 -1.0929 -1.6681  1.2853
  533MOL0     C71875   7.818   5.756   4.124  0.4092  0.3173  0.0012
  533MOL0     C71876   7.850   5.822   4.240  0.6511  0.0124  0.3610
  533MOL0     C71877   7.968   5.894   4.239 -0.5092  0.1347  0.0195
  533MOL0     C71878   8.055   5.889   4.126  0.6890 -0.3621 -0.2934
  533MOL0     O71879   8.168   5.962   4.102 -0.0454 -0.0046 -0.3591
  533MOL0     C71880   8.203   6.079   4.181 -1.0760  0.4916 -0.1847
  533MOL0     C71881   8.334   6.144   4.143 -0.3321  0.8257 -0.1095
  533MOL0     C71882   8.461   6.066   4.192 -0.1482  0.7464 -0.3762
  533MOL0     C71883   8.583   6.097   4.093  0.3469 -0.1410 -0.0309
  533MOL0     C71884   8.636   6.231   4.096 -0.4451  0.0660 -0.1264
  533MOL0     C71885   8.683   6.346   4.103  0.4015 -0.0413 -0.4739
  533MOL0     C71886   8.020   5.819   4.008  0.2561  0.6187 -0.0830
  533MOL0     C71887   7.895   5.755   4.012 -0.0797  0.2412 -0.0941
  533MOL0     H71888   7.567   5.502   3.810  1.1554 -1.5897  0.8742
  533MOL0     H71889   7.370   5.370   3.760 -0.5599 -0.7127  0.5638
  533MOL0     H71890   7.145   5.089   3.846 -0.3963  0.4294  2.2943
  533MOL0     H71891   7.221   5.200   3.751  3.0061 -0.6972 -0.9208
  533MOL0     H71892   7.325   4.986   3.730 -3.3234  0.0765  0.7673
  533MOL0     H71893   7.452   5.094   3.778  0.5206 -0.6525  0.7643
  533MOL0     H71894   7.455   5.036   4.011  1.3545  1.6466 -4.0219
  533MOL0     H71895   7.317   4.944   4.000 -0.8064  2.9929  3.5926
  533MOL0     H71896   7.460   4.803   3.805 -4.7836  1.0717  0.8296
  533MOL0     H71897   7.592   4.896   3.884  1.1484 -1.5638 -0.4397
  533MOL0     H71898   7.495   4.782   4.097  0.9445  0.6587 -0.1489
  533MOL0     H71899   7.404   4.669   4.000  0.3839  0.5643  0.3200
  533MOL0     H71900   7.696   4.706   3.946  1.1868 -1.2686  0.6891
  533MOL0     H71901   7.641   4.602   4.071  1.5331  0.5681 -0.6342
  533MOL0     H71902   7.540   4.569   3.789 -1.0012 -3.7631 -1.6181
  533MOL0     H71903   7.668   4.469   3.855 -0.4695 -1.0125  0.1225
  533MOL0     H71904   7.377   4.452   3.923 -0.4485  0.3611  1.5463
  533MOL0     H71905   7.490   4.434   4.058  0.2731 -2.7998 -0.1012
  533MOL0     H71906   7.697   4.280   3.844 -0.3809  0.3179  0.0468
  533MOL0     H71907   7.786   4.041   3.903 -2.4170  1.1887  2.8226
  533MOL0     H71908   7.684   3.898   3.894 -2.2653 -0.4695 -0.5151
  533MOL0     H71909   7.664   4.059   3.643  1.1718  2.5086  2.9560
  533MOL0     H71910   7.685   3.890   3.659  1.9911 -0.2993 -0.8248
  533MOL0     H71911   7.891   3.971   3.571 -1.9758  0.5653 -0.2505
  533MOL0     H71912   7.933   3.954   3.744 -0.0113  3.9129  3.5121
  533MOL0     H71913   8.020   4.139   3.675 -0.0626 -2.3094  1.0235
  533MOL0     H71914   7.891   4.196   3.776 -0.8144 -3.6467  1.5620
  533MOL0     H71915   7.771   4.456   3.658 -1.1857 -1.8917 -2.3845
  533MOL0     H71916   7.764   4.703   3.683 -0.1851 -1.6210 -3.6396
  533MOL0     H71917   7.944   4.771   3.685  1.7861  0.3392 -2.3459
  533MOL0     H71918   7.841   4.798   3.562  1.6581  0.2159  0.0323
  533MOL0     H71919   7.983   4.980   3.152 -3.9474  2.5093 -0.3919
  533MOL0     H71920   8.071   5.196   3.130 -2.5115  1.0210  0.8117
  533MOL0     H71921   8.357   5.255   3.236 -0.9557 -0.1431  0.1135
  533MOL0     H71922   8.354   5.433   3.252 -1.0761  0.6044 -0.7255
  533MOL0     H71923   8.331   5.365   3.516  1.7251  0.7993  1.4302
  533MOL0     H71924   8.424   5.229   3.461 -0.9877 -1.2718 -0.0476
  533MOL0     H71925   8.547   5.444   3.553  0.3925 -0.6462 -0.6194
  533MOL0     H71926   8.509   5.528   3.404  0.8784  0.7567 -1.4495
  533MOL0     H71927   8.661   5.259   3.421  0.1082  0.2477  0.8128
  533MOL0     H71928   8.625   5.363   3.274 -3.3642 -0.2088 -0.0553
  533MOL0     H71929   8.763   5.476   3.508  0.3391 -2.6410  0.8246
  533MOL0     H71930   8.778   5.534   3.353 -1.9668  0.6686  1.1765
  533MOL0     H71931   8.881   5.267   3.467  1.1436 -2.3429 -1.8947
  533MOL0     H71932   8.900   5.308   3.302 -3.3361 -4.4711  2.3823
  533MOL0     H71933   9.092   5.372   3.502  0.7149  1.5020 -1.5157
  533MOL0     H71934   8.996   5.517   3.502 -0.2940  1.0698 -0.1969
  533MOL0     H71935   9.135   5.361   3.266 -1.8566  0.1004 -3.2444
  533MOL0     H71936   9.190   5.520   3.341  0.6551 -0.8030 -1.4261
  533MOL0     H71937   8.175   5.207   3.552 -1.6965  3.1783 -0.6546
  533MOL0     H71938   8.101   4.973   3.568  0.1823  1.9203  0.9611
  533MOL0     H71939   8.146   4.486   3.346 -1.1496 -3.1081 -0.9834
  533MOL0     H71940   8.063   4.267   3.423 -0.1955 -0.8420  1.3206
  533MOL0     H71941   7.350   5.293   4.194 -0.3294 -0.4761 -1.0262
  533MOL0     H71942   7.523   5.447   4.230  0.6736 -2.8352  1.0055
  533MOL0     H71943   7.788   5.822   4.329 -1.7317 -0.3546 -1.2065
  533MOL0     H71944   7.992   5.959   4.322 -0.7146  2.3216 -1.5324
  533MOL0     H71945   8.129   6.159   4.176 -0.3661  1.1277 -0.6342
  533MOL0     H71946   8.218   6.048   4.285  5.0132  2.6754  0.0193
  533MOL0     H71947   8.335   6.234   4.205  0.4626  1.9197 -1.6499
  533MOL0     H71948   8.334   6.175   4.038 -0.7592 -2.3531 -1.1643
  533MOL0     H71949   8.443   5.959   4.186 -1.3198  0.5599  3.6952
  533MOL0     H71950   8.471   6.086   4.299 -4.6439  0.8045  0.2348
  533MOL0     H71951   8.548   6.057   3.998 -1.8501  1.6483 -0.0656
  533MOL0     H71952   8.668   6.034   4.120  1.0621  1.9123  2.9921
  533MOL0     H71953   8.710   6.450   4.111  0.6806  0.1124 -2.7174
  533MOL0     H71954   8.064   5.822   3.909 -1.8535 -0.2686 -1.1183
  533MOL0     H71955   7.864   5.722   3.913  3.8719 -0.8304 -1.1672
  534MOL0     O71956   9.417   5.751   7.119 -0.0543  0.4209  0.2030
  534MOL0     C71957   9.306   5.743   7.076 -0.1808 -0.4533 -0.1164
  534MOL0     O71958   9.211   5.849   7.080  0.2794  0.5528 -0.7628
  534MOL0     C71959   9.252   5.965   7.144 -0.2221 -0.7284 -0.4184
  534MOL0     C71960   9.334   6.058   7.078 -0.3701  0.8316  0.4764
  534MOL0     C71961   9.371   6.176   7.137 -0.5743  0.0334  0.1792
  534MOL0     C71962   9.338   6.194   7.271  0.3099  0.5581 -0.3607
  534MOL0     O71963   9.390   6.320   7.311  0.9603  0.3311  0.5491
  534MOL0     C71964   9.423   6.333   7.449  0.4152  0.2623  0.4114
  534MOL0     C71965   9.536   6.233   7.484  0.6883  0.1387 -0.4760
  534MOL0     C71966   9.544   6.217   7.633 -0.1652 -0.6154  0.8556
  534MOL0     C71967   9.696   6.237   7.678 -0.1893  0.1369  0.8231
  534MOL0     C71968   9.762   6.375   7.651  0.1253  0.6483  0.1919
  534MOL0     C71969   9.860   6.408   7.762  0.0775 -0.4000 -0.0184
  534MOL0     C71970   9.933   6.535   7.741  0.1933  0.7731  0.0816
  534MOL0     C71971   9.844   6.659   7.761 -0.1054 -1.0500 -0.6110
  534MOL0     N71972   9.918   6.786   7.767 -0.8380  0.8949 -0.4078
  534MOL0     C71973  10.005   6.826   7.863  0.7167 -0.4326 -0.1028
  534MOL0     C71974  10.039   6.949   7.827  0.3433  0.0771  0.3425
  534MOL0     C71975  10.142   7.020   7.906  1.2599 -0.6655  0.0307
  534MOL0     C71976  10.254   7.081   7.817  0.5861 -0.3174  0.4337
  534MOL0     C71977  10.328   6.960   7.750 -0.1122  0.6264 -0.4338
  534MOL0     C71978  10.366   6.970   7.606 -0.5593 -1.3365  0.5746
  534MOL0     O71979  10.460   6.867   7.576 -0.9866  0.2559 -0.2059
  534MOL0     C71980  10.485   6.845   7.448  0.7159  0.0878  1.2711
  534MOL0     C71981  10.561   6.728   7.427 -0.4611  0.2896 -0.9541
  534MOL0     C71982  10.585   6.683   7.303  0.6133  1.1782 -0.3153
  534MOL0     C71983  10.666   6.551   7.289  0.3094 -0.7617  0.0063
  534MOL0     C71984  10.539   6.751   7.187  0.1019 -0.2500  0.3554
  534MOL0     C71985  10.572   6.714   7.041  0.5428  0.2550 -0.1697
  534MOL0     O71986  10.507   6.785   6.943  0.2256  0.5040 -0.1282
  534MOL0     C71987  10.494   6.721   6.823 -0.1947 -0.0680 -0.2712
  534MOL0     C71988  10.579   6.757   6.718  0.1801 -0.7406  1.0225
  534MOL0     C71989  10.557   6.714   6.585 -0.1357  0.7301  0.7436
  534MOL0     C71990  10.445   6.632   6.558 -0.3029 -0.5259  0.2211
  534MOL0     O71991  10.421   6.604   6.429  0.0641 -0.0618 -0.0762
  534MOL0     C71992  10.310   6.528   6.388  1.0013  0.4455  0.9670
  534MOL0     C71993  10.314   6.528   6.232  0.3982 -0.3813  0.0647
  534MOL0     C71994  10.429   6.446   6.178 -1.0572 -0.5074 -0.8434
  534MOL0     C71995  10.446   6.450   6.023  0.0455  0.5178  0.4204
  534MOL0     C71996  10.585   6.400   5.976  0.9205 -0.4308 -0.0180
  534MOL0     C71997  10.600   6.418   5.827 -0.1763 -0.0915 -0.0869
  534MOL0     C71998  10.604   6.564   5.781  0.7196  0.2629  1.1747
  534MOL0     C71999  10.641   6.575   5.631  0.8754  0.1828  0.6690
  534MOL0    Cl72000  10.792   6.481   5.596  0.0388  0.2598 -0.5239
  534MOL0     C72001  10.361   6.601   6.662  0.0375  0.5831 -0.3721
  534MOL0     C72002  10.390   6.639   6.793 -0.2140  0.0981 -0.0284
  534MOL0     O72003  10.637   6.611   7.027  0.4883 -0.7686 -0.1263
  534MOL0     C72004  10.459   6.863   7.205  1.0582 -0.2559 -0.0669
  534MOL0     C72005  10.437   6.912   7.338  0.0151 -0.7917  0.0160
  534MOL0     N72006   9.994   6.970   7.697  1.3608 -0.0435 -0.2365
  534MOL0     N72007   9.914   6.873   7.667 -0.2532 -0.0764 -1.4425
  534MOL0     C72008   9.262   6.098   7.338 -0.0960  0.5020 -0.4070
  534MOL0     C72009   9.215   5.985   7.277 -0.5698  0.5510  0.3796
  534MOL0     C72010   9.256   5.608   7.031 -0.2060 -0.3398  0.7324
  534MOL0     C72011   9.338   5.499   7.025  0.0216  0.4320  0.2803
  534MOL0     C72012   9.282   5.380   6.980 -0.9166  0.5550 -0.1488
  534MOL0     C72013   9.157   5.366   6.921  0.6747 -0.2791  1.1023
  534MOL0     O72014   9.108   5.260   6.853 -0.3943  0.0695  0.2405
  534MOL0     C72015   9.155   5.128   6.870 -0.9058 -0.9250 -0.4311
  534MOL0     C72016   9.050   5.034   6.822  0.2949  0.2597 -0.9440
  534MOL0     C72017   9.008   5.050   6.679 -0.1920 -0.0271 -0.2740
  534MOL0     C72018   9.106   4.983   6.575  0.4649 -0.2939 -0.2018
  534MOL0     C72019   9.089   4.837   6.546 -0.0925  0.2900 -0.3022
  534MOL0     C72020   9.077   4.717   6.535 -0.0798 -1.0951  0.0073
  534MOL0     C72021   9.079   5.491   6.910  0.2893 -0.3354 -0.0064
  534MOL0     C72022   9.125   5.599   6.978  0.1574 -0.3046 -1.0301
  534MOL0     H72023   9.378   6.042   6.980  2.2703  0.1915  1.6647
  534MOL0     H72024   9.426   6.256   7.088  0.8408  1.0935  3.2188
  534MOL0     H72025   9.475   6.424   7.478  4.2182 -1.2176 -1.0847
  534MOL0     H72026   9.337   6.309   7.512  0.9079  0.4265  1.1484
  534MOL0     H72027   9.525   6.132   7.443  0.0958 -0.3854  0.8990
  534MOL0     H72028   9.627   6.272   7.437  0.0009  1.6584 -0.5954
  534MOL0     H72029   9.477   6.283   7.688  0.4113  1.0160 -0.3271
  534MOL0     H72030   9.517   6.113   7.656  2.2130 -1.2552  1.0059
  534MOL0     H72031   9.697   6.225   7.787  2.3971 -1.1780  0.7342
  534MOL0     H72032   9.766   6.161   7.641 -0.4180 -1.6380  3.7334
  534MOL0     H72033   9.815   6.374   7.555  1.9449 -1.4594  1.1220
  534MOL0     H72034   9.684   6.451   7.662  0.2109  0.4976  2.4323
  534MOL0     H72035   9.801   6.429   7.852  1.2372 -2.8998  1.4279
  534MOL0     H72036   9.927   6.324   7.783  1.6612  1.4091  2.8643
  534MOL0     H72037  10.011   6.537   7.818 -0.2470  2.1874  0.5214
  534MOL0     H72038   9.983   6.539   7.644  1.0996  1.3767  0.5636
  534MOL0     H72039   9.792   6.643   7.856 -0.8130  3.7690  0.0616
  534MOL0     H72040   9.765   6.662   7.685 -0.3323 -2.5428 -0.4802
  534MOL0     H72041  10.028   6.761   7.946 -0.0572 -1.3788 -0.6150
  534MOL0     H72042  10.091   7.095   7.967  0.1791 -0.5811 -0.9267
  534MOL0     H72043  10.186   6.950   7.978  0.0207 -0.1165  1.3784
  534MOL0     H72044  10.328   7.130   7.881  1.0356 -1.3780  0.7543
  534MOL0     H72045  10.221   7.156   7.745 -0.4686 -1.0517  0.1349
  534MOL0     H72046  10.277   6.865   7.766  0.7944 -0.1039 -1.6876
  534MOL0     H72047  10.418   6.953   7.812  0.9960  1.3453 -1.9100
  534MOL0     H72048  10.426   7.061   7.596  0.6239 -2.2918 -2.1131
  534MOL0     H72049  10.277   6.964   7.542 -0.6723 -0.0310  0.5774
  534MOL0     H72050  10.598   6.679   7.516  1.9021  1.1658 -1.3750
  534MOL0     H72051  10.600   6.480   7.239  0.1683  0.9917 -2.4790
  534MOL0     H72052  10.759   6.564   7.232  0.2277  0.6559  0.1686
  534MOL0     H72053  10.690   6.512   7.388  0.1033  4.5646  2.5213
  534MOL0     H72054  10.653   6.832   6.742  0.2238 -1.4332  3.1960
  534MOL0     H72055  10.628   6.745   6.509 -0.9513  0.9591  0.0643
  534MOL0     H72056  10.322   6.425   6.423  0.8539  0.9947  2.7195
  534MOL0     H72057  10.221   6.574   6.431  0.3299 -0.6560  0.8050
  534MOL0     H72058  10.215   6.515   6.188 -1.2488  0.7135  3.1488
  534MOL0     H72059  10.326   6.635   6.219  0.8355 -0.1219  2.1502
  534MOL0     H72060  10.431   6.340   6.208 -2.7436 -0.1690  0.6129
  534MOL0     H72061  10.517   6.495   6.221 -0.5853 -1.0882 -1.1223
  534MOL0     H72062  10.364   6.397   5.973  1.1963  1.4601 -2.7263
  534MOL0     H72063  10.440   6.553   5.987 -0.0943 -0.9006 -4.3281
  534MOL0     H72064  10.608   6.300   6.013  0.3558 -0.3613  0.5411
  534MOL0     H72065  10.671   6.452   6.020  0.5002 -0.2989  0.6646
  534MOL0     H72066  10.694   6.366   5.802  0.9464  2.2125 -0.9266
  534MOL0     H72067  10.525   6.358   5.775 -0.1350 -0.4889  0.3128
  534MOL0     H72068  10.696   6.608   5.821  1.6747  0.8898 -1.4994
  534MOL0     H72069  10.518   6.624   5.814  0.7995 -0.0477  1.9862
  534MOL0     H72070  10.645   6.684   5.619  2.3122  0.0683 -0.1073
  534MOL0     H72071  10.559   6.536   5.570 -1.8080  1.9305  2.8948
  534MOL0     H72072  10.270   6.546   6.640 -0.8901  1.3631  1.3058
  534MOL0     H72073  10.315   6.608   6.865  0.2018  0.6738  0.6628
  534MOL0     H72074  10.407   6.914   7.125  0.2319 -3.0525 -1.4318
  534MOL0     H72075  10.386   7.008   7.348  1.1042 -0.0469 -1.2507
  534MOL0     H72076   9.243   6.112   7.444 -3.9604 -0.8851 -0.7557
  534MOL0     H72077   9.151   5.912   7.324 -0.6125  1.2781  1.4821
  534MOL0     H72078   9.443   5.487   7.050  0.8054 -0.5291 -2.9310
  534MOL0     H72079   9.338   5.287   6.973 -0.3516  0.4867  3.3744
  534MOL0     H72080   9.253   5.121   6.822  0.5322  0.9011  1.9883
  534MOL0     H72081   9.175   5.109   6.976 -2.8786  2.1782  0.6382
  534MOL0     H72082   8.966   5.052   6.889  2.2805 -0.3228  1.9159
  534MOL0     H72083   9.078   4.932   6.852 -0.1241  1.1224  3.0639
  534MOL0     H72084   9.008   5.158   6.662  2.5307  0.5868  2.5933
  534MOL0     H72085   8.905   5.015   6.667  0.2247 -1.4370  0.1102
  534MOL0     H72086   9.211   4.994   6.606  0.6790 -1.5627 -0.4538
  534MOL0     H72087   9.094   5.027   6.476  2.5735  0.4675 -0.1809
  534MOL0     H72088   9.056   4.614   6.515  3.7082 -1.5417 -2.6952
  534MOL0     H72089   8.980   5.508   6.869  0.3396  1.9793  0.6967
  534MOL0     H72090   9.060   5.686   6.985 -0.4665 -0.8507  0.4008
  535MOL0     O72091   2.530   8.677  11.227  1.7271  0.1915 -0.3904
  535MOL0     C72092   2.508   8.794  11.189 -0.3261  0.4075  0.3614
  535MOL0     O72093   2.556   8.916  11.223 -0.6516 -0.7230 -0.7911
  535MOL0     C72094   2.654   8.937  11.315 -0.8768  0.3265 -0.6641
  535MOL0     C72095   2.764   8.842  11.329  0.2019  0.1159  0.1135
  535MOL0     C72096   2.857   8.875  11.437  1.1810 -0.0178  0.0939
  535MOL0     C72097   2.861   8.992  11.509  0.1713  1.4049  1.3272
  535MOL0     O72098   2.977   9.015  11.573  0.2819 -0.1310 -0.0859
  535MOL0     C72099   2.976   9.120  11.673  0.3872  0.0159  0.0097
  535MOL0     C72100   3.099   9.128  11.734 -0.3288 -0.2338  1.3399
  535MOL0     C72101   3.225   9.119  11.641  0.2120 -0.1810 -0.1618
  535MOL0     C72102   3.272   9.256  11.596 -0.3954 -0.5477 -0.7409
  535MOL0     C72103   3.344   9.346  11.696 -0.4962  0.6394  0.0455
  535MOL0     C72104   3.384   9.480  11.645  0.2137  0.0019  0.0042
  535MOL0     C72105   3.261   9.573  11.632 -0.2950 -1.1023 -0.2588
  535MOL0     C72106   3.324   9.703  11.577  0.4905 -0.2435  0.6142
  535MOL0     N72107   3.223   9.812  11.574 -0.5430 -0.1917  0.0453
  535MOL0     C72108   3.105   9.797  11.513  0.9468 -0.6877  0.0309
  535MOL0     C72109   3.032   9.911  11.551  0.0992  0.5463  0.9444
  535MOL0     C72110   2.886   9.947  11.515  0.1125 -1.3936 -0.4804
  535MOL0     C72111   2.787   9.844  11.529 -0.3103  0.0816 -1.0185
  535MOL0     C72112   2.653   9.901  11.488 -0.0515  0.1893  0.4784
  535MOL0     C72113   2.584   9.996  11.587 -0.6314 -0.6196 -0.7201
  535MOL0     O72114   2.455  10.013  11.539 -0.3211 -0.1417 -0.7437
  535MOL0     C72115   2.379  10.114  11.593 -0.3644 -0.8698 -0.1461
  535MOL0     C72116   2.419  10.248  11.588 -0.9091  0.3008 -0.2237
  535MOL0     C72117   2.332  10.343  11.644 -0.6956 -0.0530 -0.6013
  535MOL0     C72118   2.380  10.487  11.672  0.7929  0.3246  0.6320
  535MOL0     C72119   2.215  10.304  11.707  0.9456  0.6300 -0.4264
  535MOL0     C72120   2.097  10.391  11.754 -0.2961 -0.2651  0.3257
  535MOL0     O72121   1.985  10.327  11.799 -0.4796 -0.0738 -0.3495
  535MOL0     C72122   1.863  10.382  11.810  0.1582 -0.9458  0.1282
  535MOL0     C72123   1.842  10.469  11.916  0.5323 -0.7391  0.1058
  535MOL0     C72124   1.718  10.545  11.926 -0.3858  0.2212 -0.5678
  535MOL0     C72125   1.624  10.544  11.823 -0.3083  0.8585 -0.9936
  535MOL0     O72126   1.513  10.620  11.845  0.2115 -0.1278  0.0119
  535MOL0     C72127   1.428  10.659  11.737 -0.6835  0.3514 -0.2191
  535MOL0     C72128   1.279  10.669  11.769  0.3950 -0.1018  0.6677
  535MOL0     C72129   1.187  10.671  11.646 -0.1521  0.9067  0.1382
  535MOL0     C72130   1.162  10.813  11.594  0.8125 -0.1550  0.1625
  535MOL0     C72131   1.036  10.816  11.506  0.2472 -0.1229 -0.2460
  535MOL0     C72132   1.033  10.940  11.414 -0.2474 -0.5620  0.0516
  535MOL0     C72133   0.897  10.965  11.350  0.2740  0.8240 -0.4261
  535MOL0     C72134   0.858  10.853  11.252 -0.6882 -0.2798  0.1065
  535MOL0    Cl72135   0.987  10.807  11.138  0.1406 -0.1833 -0.1282
  535MOL0     C72136   1.654  10.451  11.710  0.2016  1.5444 -0.3515
  535MOL0     C72137   1.766  10.361  11.710  0.2715 -0.0282  0.2874
  535MOL0     O72138   2.105  10.508  11.738  0.6199  0.9907  0.1101
  535MOL0     C72139   2.178  10.168  11.707  0.1747 -1.0401 -0.0986
  535MOL0     C72140   2.258  10.074  11.661 -0.5335 -0.8956  0.4255
  535MOL0     N72141   3.112   9.995  11.619  0.4195 -0.1137 -0.3205
  535MOL0     N72142   3.227   9.932  11.635 -0.4028  1.2494  0.3735
  535MOL0     C72143   2.751   9.075  11.490 -0.8122 -0.2091  1.0471
  535MOL0     C72144   2.651   9.051  11.393  0.0524  0.1469  0.7320
  535MOL0     C72145   2.410   8.798  11.076  0.0019  0.2721 -0.8538
  535MOL0     C72146   2.409   8.701  10.980 -0.2764 -0.2770  0.4292
  535MOL0     C72147   2.315   8.712  10.870 -0.3399 -0.9183  0.2577
  535MOL0     C72148   2.228   8.822  10.859  0.4088  0.7562  0.2151
  535MOL0     O72149   2.127   8.829  10.767 -0.1881 -0.3442  0.2866
  535MOL0     C72150   2.035   8.722  10.771 -0.1329 -0.2782 -1.8335
  535MOL0     C72151   1.895   8.755  10.698 -0.1146  0.2771 -0.0950
  535MOL0     C72152   1.884   8.693  10.549 -1.0827 -0.3788 -0.3231
  535MOL0     C72153   1.775   8.758  10.466  0.2476  0.5791 -0.0359
  535MOL0     C72154   1.639   8.700  10.493 -0.5420  0.0641  0.1004
  535MOL0     C72155   1.521   8.671  10.527  0.4488 -0.0787  0.2857
  535MOL0     C72156   2.232   8.926  10.953 -0.9533 -0.6431 -0.1029
  535MOL0     C72157   2.317   8.904  11.072 -0.7182 -0.7780 -0.0027
  535MOL0     H72158   2.771   8.745  11.281 -0.7551  0.6248 -1.1234
  535MOL0     H72159   2.943   8.810  11.448  0.1703 -1.8885 -2.4126
  535MOL0     H72160   2.967   9.216  11.622 -0.8284  0.5560  1.1756
  535MOL0     H72161   2.900   9.112  11.752  1.4421  2.1842  1.3276
  535MOL0     H72162   3.107   9.219  11.795  1.9441 -0.4278  1.4021
  535MOL0     H72163   3.103   9.046  11.807  0.0263 -0.8375  0.6514
  535MOL0     H72164   3.303   9.059  11.687 -0.2395 -0.8983 -0.3212
  535MOL0     H72165   3.206   9.075  11.543  0.7782 -0.8464  0.0171
  535MOL0     H72166   3.335   9.250  11.507  1.1659  3.2248 -0.1004
  535MOL0     H72167   3.179   9.309  11.574 -0.3165  2.1714  4.0099
  535MOL0     H72168   3.284   9.360  11.786  0.2211 -1.4502  0.9110
  535MOL0     H72169   3.432   9.299  11.741  0.2552  0.9124 -1.1057
  535MOL0     H72170   3.448   9.525  11.721 -0.5667  2.0179 -0.4547
  535MOL0     H72171   3.434   9.468  11.549  0.2325  0.4425 -0.0419
  535MOL0     H72172   3.184   9.523  11.573 -2.6144  1.5677  0.2834
  535MOL0     H72173   3.224   9.599  11.732  2.0398 -0.2505  0.4590
  535MOL0     H72174   3.349   9.672  11.475 -1.5867 -2.5886  0.7255
  535MOL0     H72175   3.405   9.721  11.649  3.7096 -1.0741 -2.4863
  535MOL0     H72176   3.061   9.721  11.449  1.5108 -0.9895 -0.0073
  535MOL0     H72177   2.871  10.036  11.578  0.4342 -2.0263  0.5189
  535MOL0     H72178   2.885   9.983  11.412 -2.2641  1.1831  0.2861
  535MOL0     H72179   2.783   9.814  11.634  2.5275 -0.7808 -1.0599
  535MOL0     H72180   2.823   9.756  11.474  1.2204  0.9206 -1.4265
  535MOL0     H72181   2.575   9.826  11.475 -0.4822  1.0100 -2.5136
  535MOL0     H72182   2.668   9.930  11.384  0.1860 -4.9528 -1.1828
  535MOL0     H72183   2.637  10.092  11.596 -2.5756  0.4427 -0.2002
  535MOL0     H72184   2.583   9.949  11.686 -0.8373 -1.5210 -1.1434
  535MOL0     H72185   2.506  10.288  11.536 -0.5710  1.2862  1.0366
  535MOL0     H72186   2.314  10.556  11.619  0.1387 -0.6532  0.1371
  535MOL0     H72187   2.376  10.503  11.780  1.5409 -3.1008  1.2853
  535MOL0     H72188   2.486  10.492  11.647  1.6087 -0.7809  3.4378
  535MOL0     H72189   1.918  10.472  11.994  0.4808  2.7600  0.1880
  535MOL0     H72190   1.711  10.609  12.013  0.1418 -1.6413  0.9224
  535MOL0     H72191   1.472  10.756  11.715  1.2462 -0.5535 -0.5785
  535MOL0     H72192   1.438  10.590  11.652  0.3818 -0.2034  0.3359
  535MOL0     H72193   1.262  10.575  11.822 -0.8959 -0.6333 -0.6218
  535MOL0     H72194   1.252  10.758  11.827 -1.2734  0.5124 -0.9239
  535MOL0     H72195   1.100  10.622  11.693  0.6121  0.8658  1.5882
  535MOL0     H72196   1.212  10.611  11.558 -2.9783 -1.6065  0.8765
  535MOL0     H72197   1.155  10.891  11.670 -1.9921  2.1122 -2.1761
  535MOL0     H72198   1.238  10.828  11.517 -1.9108  0.6988 -2.5995
  535MOL0     H72199   0.964  10.831  11.587  1.9438 -1.3180  1.5851
  535MOL0     H72200   1.029  10.728  11.441  2.8490 -0.2276 -0.5095
  535MOL0     H72201   1.065  11.029  11.469 -4.0295  0.0494  1.5894
  535MOL0     H72202   1.113  10.922  11.342  1.4059 -1.1988  1.9269
  535MOL0     H72203   0.888  11.058  11.293  1.2439  0.7222 -0.7628
  535MOL0     H72204   0.818  10.963  11.426  0.8860  0.9424  0.2222
  535MOL0     H72205   0.770  10.900  11.207 -0.0039  1.2378  0.2808
  535MOL0     H72206   0.826  10.769  11.314 -0.2381  1.6167  3.0866
  535MOL0     H72207   1.591  10.448  11.621  0.3655 -2.6973 -0.4944
  535MOL0     H72208   1.781  10.296  11.625  1.0815  1.3879 -0.6826
  535MOL0     H72209   2.077  10.134  11.730  0.0455  0.4748  1.7847
  535MOL0     H72210   2.224   9.971  11.667 -0.5623 -0.8388  1.4010
  535MOL0     H72211   2.745   9.172  11.538 -1.4510  0.3924 -0.1894
  535MOL0     H72212   2.564   9.115  11.381  0.8711  0.9638 -1.2423
  535MOL0     H72213   2.480   8.618  10.977  1.8534  1.4469  0.2603
  535MOL0     H72214   2.315   8.637  10.792  1.2593  0.4402 -1.1278
  535MOL0     H72215   2.078   8.632  10.727 -0.8171 -3.2418  2.8116
  535MOL0     H72216   2.022   8.704  10.878  1.1158  1.1011 -1.4180
  535MOL0     H72217   1.889   8.864  10.698  0.9217  0.3930  2.3994
  535MOL0     H72218   1.800   8.730  10.747 -0.0900  2.2633  1.1006
  535MOL0     H72219   1.887   8.583  10.552 -1.4047 -0.3721  1.9098
  535MOL0     H72220   1.978   8.715  10.497 -1.0489  3.0189  0.9666
  535MOL0     H72221   1.800   8.736  10.362 -1.4595 -0.3957 -0.2827
  535MOL0     H72222   1.788   8.866  10.470  0.7346  0.5456 -0.7045
  535MOL0     H72223   1.417   8.651  10.543  0.5179 -0.0869  0.7445
  535MOL0     H72224   2.163   9.011  10.949  0.4371  0.4705 -1.5256
  535MOL0     H72225   2.313   8.974  11.154 -2.9425 -2.4487  1.4138
  536MOL0     O72226   0.338   5.211  10.312  0.3127  0.7272 -0.3091
  536MOL0     C72227   0.336   5.295  10.216 -0.2258  0.6625 -0.7069
  536MOL0     O72228   0.435   5.386  10.173  0.4526 -0.2477  0.7745
  536MOL0     C72229   0.554   5.372  10.234  0.0074 -0.9412 -0.6652
  536MOL0     C72230   0.573   5.466  10.343 -0.2993  0.6656  0.1832
  536MOL0     C72231   0.701   5.460  10.405 -0.5129 -1.0689  0.2734
  536MOL0     C72232   0.808   5.383  10.356 -0.3113  0.5691 -0.1726
  536MOL0     O72233   0.918   5.400  10.434 -0.2424  0.6628  0.6152
  536MOL0     C72234   1.030   5.319  10.441  0.3376 -0.3632  0.1724
  536MOL0     C72235   1.146   5.398  10.372  0.4176 -0.1208  0.1878
  536MOL0     C72236   1.141   5.381  10.215  0.7006  0.4726 -0.4467
  536MOL0     C72237   1.234   5.471  10.142 -0.3114 -0.8141  0.4713
  536MOL0     C72238   1.253   5.430   9.988  0.5967  0.3597  0.1092
  536MOL0     C72239   1.375   5.503   9.927 -0.6203  0.6422 -0.8710
  536MOL0     C72240   1.357   5.653   9.942 -0.7747 -1.2955  0.1078
  536MOL0     C72241   1.463   5.732   9.867  0.2239  0.2529 -0.2271
  536MOL0     N72242   1.400   5.857   9.834  0.9688  0.4225  0.7518
  536MOL0     C72243   1.445   5.983   9.874 -0.1730 -0.8932 -0.0890
  536MOL0     C72244   1.383   6.069   9.788  0.4062 -0.4213  0.1122
  536MOL0     C72245   1.401   6.220   9.775 -0.6372 -0.8179  0.2530
  536MOL0     C72246   1.284   6.296   9.837 -0.7105  0.5238  0.0917
  536MOL0     C72247   1.301   6.453   9.830 -0.8731 -0.4979 -0.2564
  536MOL0     C72248   1.428   6.501   9.908 -0.4337  0.8493 -0.1482
  536MOL0     O72249   1.442   6.647   9.896 -0.5671 -0.0186  0.1887
  536MOL0     C72250   1.474   6.701   9.778 -0.4440  0.0213 -0.3987
  536MOL0     C72251   1.544   6.641   9.680  0.4717 -0.0473  0.1495
  536MOL0     C72252   1.547   6.697   9.548  1.2591  0.4662 -1.0982
  536MOL0     C72253   1.641   6.635   9.456  0.4869 -0.6471  0.6234
  536MOL0     C72254   1.479   6.822   9.529 -0.7182  0.6216  0.1525
  536MOL0     C72255   1.463   6.893   9.402  0.9302  0.0463 -0.0208
  536MOL0     O72256   1.372   6.995   9.394 -0.1697  0.2329 -0.4113
  536MOL0     C72257   1.391   7.099   9.302 -0.1368 -0.3719 -0.1967
  536MOL0     C72258   1.368   7.229   9.346 -0.2555 -0.7650 -0.0097
  536MOL0     C72259   1.370   7.335   9.260 -0.2651 -0.3293 -0.4837
  536MOL0     C72260   1.410   7.311   9.129 -0.8430 -0.4021  0.1516
  536MOL0     O72261   1.420   7.422   9.051  0.3037  0.3126  0.4296
  536MOL0     C72262   1.537   7.495   9.064  0.3797 -0.2135 -1.7031
  536MOL0     C72263   1.573   7.576   8.943  0.5716 -0.2979  0.8658
  536MOL0     C72264   1.498   7.709   8.953  0.7325  0.2086 -0.6598
  536MOL0     C72265   1.356   7.680   8.910  0.4728 -0.3015 -0.3851
  536MOL0     C72266   1.282   7.814   8.888  0.0465  0.6093  0.3296
  536MOL0     C72267   1.135   7.785   8.842 -0.3090  0.7562  0.5349
  536MOL0     C72268   1.045   7.707   8.938 -0.0296 -0.0253  0.8425
  536MOL0     C72269   0.896   7.730   8.898  0.7812 -0.1780  0.6182
  536MOL0    Cl72270   0.841   7.882   8.960 -0.3821  0.5165  0.1109
  536MOL0     C72271   1.433   7.182   9.077  0.1083  1.3020  1.2214
  536MOL0     C72272   1.416   7.077   9.163 -0.4911  0.6945 -0.5990
  536MOL0     O72273   1.549   6.866   9.315  0.4050  0.5805  0.1335
  536MOL0     C72274   1.423   6.889   9.643 -0.1359  0.4954  0.6358
  536MOL0     C72275   1.423   6.827   9.761  0.1123 -0.0671 -1.3445
  536MOL0     N72276   1.328   5.994   9.687  0.6725 -0.3517 -0.7942
  536MOL0     N72277   1.327   5.872   9.724  0.7636  0.4033  0.8578
  536MOL0     C72278   0.783   5.292  10.247 -0.1502  0.2377  0.7396
  536MOL0     C72279   0.656   5.286  10.184  0.2298  0.7988 -1.0058
  536MOL0     C72280   0.205   5.301  10.142 -1.1845 -0.2430 -0.1919
  536MOL0     C72281   0.097   5.230  10.187  0.8983  0.0988 -0.3822
  536MOL0     C72282  -0.016   5.231  10.112 -0.0058 -0.8336  1.1424
  536MOL0     C72283  -0.025   5.290   9.978  0.5365 -0.0941 -0.5109
  536MOL0     O72284  -0.119   5.280   9.889  0.5179  0.3774  0.3182
  536MOL0     C72285  -0.185   5.151   9.891 -0.2061 -0.5043  0.1079
  536MOL0     C72286  -0.246   5.128   9.756 -0.3881  0.2398  0.1653
  536MOL0     C72287  -0.362   5.226   9.725  0.0947  0.5775 -0.2623
  536MOL0     C72288  -0.403   5.233   9.575 -0.2004 -0.3911  0.0806
  536MOL0     C72289  -0.445   5.099   9.548  0.4349 -0.1776 -0.0165
  536MOL0     C72290  -0.485   4.988   9.531  0.7473 -0.0125 -0.1970
  536MOL0     C72291   0.086   5.368   9.939  0.0892 -0.8610  0.1022
  536MOL0     C72292   0.196   5.375  10.023 -0.1233  0.6410 -0.5856
  536MOL0     H72293   0.498   5.529  10.390 -0.5649 -0.0893  0.7818
  536MOL0     H72294   0.705   5.528  10.490 -4.4002 -2.7025  1.9975
  536MOL0     H72295   1.065   5.305  10.543  0.1387  0.5581  0.3780
  536MOL0     H72296   1.013   5.227  10.385 -1.6362  0.5536 -0.8458
  536MOL0     H72297   1.143   5.505  10.395 -2.8761  0.0528 -0.5099
  536MOL0     H72298   1.246   5.366  10.403 -0.0658  1.5878  4.0462
  536MOL0     H72299   1.169   5.281  10.182 -1.1691 -1.9574  4.2813
  536MOL0     H72300   1.040   5.402  10.179  0.7479  0.4214 -0.6082
  536MOL0     H72301   1.194   5.571  10.161 -2.8116 -2.0989  2.5467
  536MOL0     H72302   1.331   5.468  10.193 -0.1010  0.2614  0.1464
  536MOL0     H72303   1.283   5.325   9.982 -3.1020 -0.7752 -1.5363
  536MOL0     H72304   1.159   5.437   9.932  0.4321 -0.0308  0.3297
  536MOL0     H72305   1.464   5.465   9.977 -2.0729 -1.0588  0.5731
  536MOL0     H72306   1.378   5.472   9.822  2.7523 -2.6910 -0.0120
  536MOL0     H72307   1.255   5.673   9.908  0.2356  1.0625 -1.8212
  536MOL0     H72308   1.355   5.682  10.048 -0.0170  3.6207 -0.9687
  536MOL0     H72309   1.495   5.675   9.779  2.6203  2.1357 -0.6835
  536MOL0     H72310   1.557   5.751   9.920  1.8813 -0.2110 -2.7885
  536MOL0     H72311   1.504   6.012   9.960 -0.1815 -2.3797  0.4600
  536MOL0     H72312   1.494   6.234   9.832 -1.0564 -4.7149  2.2570
  536MOL0     H72313   1.401   6.249   9.669 -2.5251 -0.1788  0.4025
  536MOL0     H72314   1.272   6.270   9.942  0.4581 -0.1220  0.0794
  536MOL0     H72315   1.188   6.261   9.797 -1.2384  0.5638  1.2983
  536MOL0     H72316   1.222   6.520   9.865 -0.0648  0.6137 -0.5000
  536MOL0     H72317   1.328   6.473   9.726 -0.9081 -1.2315 -0.4111
  536MOL0     H72318   1.519   6.448   9.881 -1.1283 -0.9526  0.8843
  536MOL0     H72319   1.423   6.473  10.013  2.7203 -2.0163 -0.5988
  536MOL0     H72320   1.573   6.537   9.688 -2.1742 -0.9524 -0.9389
  536MOL0     H72321   1.721   6.703   9.426 -0.8229  2.2838  3.1951
  536MOL0     H72322   1.688   6.555   9.513 -0.6280  0.6993  3.6014
  536MOL0     H72323   1.591   6.587   9.371  4.4733 -2.1050 -1.1410
  536MOL0     H72324   1.327   7.240   9.446 -1.2616 -1.2845 -0.3558
  536MOL0     H72325   1.348   7.433   9.302 -2.9589 -1.1303  0.1693
  536MOL0     H72326   1.536   7.559   9.152 -0.5972 -1.0477 -1.0910
  536MOL0     H72327   1.614   7.419   9.082  2.5415  2.5116  1.7135
  536MOL0     H72328   1.680   7.597   8.937  0.8880 -2.1259 -0.4613
  536MOL0     H72329   1.558   7.528   8.846  3.3395  3.8129 -1.9698
  536MOL0     H72330   1.545   7.781   8.885 -2.4933  1.5379 -1.6784
  536MOL0     H72331   1.498   7.753   9.053 -0.6355 -2.2486  0.5082
  536MOL0     H72332   1.369   7.630   8.814 -0.4839  1.5373 -1.5392
  536MOL0     H72333   1.302   7.629   8.990 -0.4843  3.9005  1.9340
  536MOL0     H72334   1.319   7.874   8.804  0.2408  0.2494  0.1618
  536MOL0     H72335   1.290   7.868   8.983 -0.6431  0.7523  0.3178
  536MOL0     H72336   1.095   7.878   8.802  3.0868  0.7996 -3.3923
  536MOL0     H72337   1.135   7.720   8.754  2.4683 -2.2208  2.4611
  536MOL0     H72338   1.052   7.744   9.041 -1.8178  2.9661  0.0106
  536MOL0     H72339   1.070   7.600   8.937 -2.9072 -0.7818  1.5545
  536MOL0     H72340   0.827   7.646   8.914  0.5693 -0.7786 -2.6603
  536MOL0     H72341   0.890   7.747   8.790  4.1061  0.2733  0.3984
  536MOL0     H72342   1.467   7.168   8.975 -0.1479  0.9431  1.1856
  536MOL0     H72343   1.425   6.976   9.124 -0.6254  0.0514  0.9825
  536MOL0     H72344   1.378   6.986   9.626 -1.2700 -0.1314 -0.1152
  536MOL0     H72345   1.370   6.867   9.846  1.4624 -1.3542  0.1889
  536MOL0     H72346   0.863   5.226  10.215 -2.3010 -0.6409 -3.3607
  536MOL0     H72347   0.633   5.232  10.092 -1.3471  2.1861 -1.4582
  536MOL0     H72348   0.096   5.175  10.281  3.5043  2.1374  0.9719
  536MOL0     H72349  -0.112   5.198  10.153 -1.6016  3.5958  1.5645
  536MOL0     H72350  -0.100   5.081   9.899  0.4943 -0.5256 -4.7446
  536MOL0     H72351  -0.240   5.119   9.981  4.9918 -1.4121  3.4273
  536MOL0     H72352  -0.281   5.025   9.762 -0.2206  0.1014 -1.0064
  536MOL0     H72353  -0.167   5.129   9.680  1.1458  0.2790  1.6843
  536MOL0     H72354  -0.339   5.322   9.772 -0.0001 -0.5194  2.1369
  536MOL0     H72355  -0.451   5.193   9.778 -0.9303  0.5822 -1.9135
  536MOL0     H72356  -0.318   5.268   9.515  1.2138  1.6957  3.0178
  536MOL0     H72357  -0.479   5.306   9.544 -0.9557 -1.0010  0.4441
  536MOL0     H72358  -0.501   4.883   9.518 -2.5733  0.4444 -0.5116
  536MOL0     H72359   0.098   5.398   9.836  0.0122  1.0895  0.6135
  536MOL0     H72360   0.266   5.449   9.985 -0.4545  0.8467 -0.8036
  537MOL0     O72361   8.874   0.972  10.445  0.4008 -0.1428  0.7382
  537MOL0     C72362   8.761   1.004  10.411 -0.5221 -0.8915  0.2052
  537MOL0     O72363   8.730   1.117  10.336  1.0587 -0.4559  0.2014
  537MOL0     C72364   8.818   1.201  10.275  0.4279  0.5951 -0.1255
  537MOL0     C72365   8.958   1.189  10.269  0.2000  0.9304  0.3682
  537MOL0     C72366   9.038   1.286  10.203  0.8443  0.3243  0.4044
  537MOL0     C72367   8.976   1.394  10.142 -0.4203  0.6981  0.3659
  537MOL0     O72368   9.055   1.489  10.085  1.5598 -0.5420  0.2523
  537MOL0     C72369   9.027   1.543   9.957 -0.6003 -0.0188  0.0176
  537MOL0     C72370   9.011   1.444   9.843 -0.5009  0.5426 -0.2976
  537MOL0     C72371   9.021   1.507   9.704  0.7253 -0.6229 -0.0787
  537MOL0     C72372   9.160   1.502   9.645  0.0593 -0.1394  0.5127
  537MOL0     C72373   9.171   1.570   9.509 -0.4349  0.8836 -0.5059
  537MOL0     C72374   9.315   1.582   9.460 -0.0964 -0.1105  0.7579
  537MOL0     C72375   9.321   1.628   9.312 -0.0183  0.7583 -0.0314
  537MOL0     C72376   9.423   1.539   9.241 -0.0317 -0.4960 -0.6391
  537MOL0     N72377   9.413   1.568   9.103  0.0573 -0.4947 -0.3423
  537MOL0     C72378   9.442   1.690   9.037  0.0932 -0.1304  0.5612
  537MOL0     C72379   9.373   1.687   8.919  0.0371  0.9467 -0.7688
  537MOL0     C72380   9.365   1.793   8.819 -1.0348  0.0309 -0.1017
  537MOL0     C72381   9.448   1.764   8.693 -0.2205 -1.3509 -0.8535
  537MOL0     C72382   9.413   1.883   8.599 -0.9809 -0.4492  0.1533
  537MOL0     C72383   9.483   1.892   8.469 -0.6933  0.5691 -0.1665
  537MOL0     O72384   9.625   1.866   8.483  0.6998 -0.4661  0.5046
  537MOL0     C72385   9.699   1.887   8.370  0.0857  0.6287  0.8885
  537MOL0     C72386   9.777   1.789   8.318 -0.1674  0.8022  0.5207
  537MOL0     C72387   9.866   1.811   8.207  0.5349 -0.0771  0.9831
  537MOL0     C72388   9.947   1.685   8.163 -0.3849 -0.7186 -0.1267
  537MOL0     C72389   9.865   1.937   8.145 -0.4135 -0.6499  0.1217
  537MOL0     C72390   9.945   1.977   8.027  0.7604  0.3048 -0.6187
  537MOL0     O72391   9.928   2.105   7.981  0.3659 -0.1348 -0.2470
  537MOL0     C72392   9.988   2.139   7.863 -0.3634 -0.0324  0.3855
  537MOL0     C72393   9.971   2.077   7.738 -0.4335 -0.0486  0.1472
  537MOL0     C72394  10.011   2.125   7.617  0.1381 -0.4727  0.1945
  537MOL0     C72395  10.075   2.250   7.609  0.7810  0.1339  0.3537
  537MOL0     O72396  10.120   2.307   7.494  0.4467 -0.4582 -1.0466
  537MOL0     C72397  10.125   2.231   7.373  0.6181 -0.4509  0.4480
  537MOL0     C72398  10.207   2.325   7.284 -0.6458 -0.4997 -0.0872
  537MOL0     C72399  10.246   2.290   7.145  0.7770  0.5570  0.6288
  537MOL0     C72400  10.395   2.320   7.122  0.0628  0.3585 -0.4230
  537MOL0     C72401  10.431   2.286   6.983 -0.8741 -0.0570  0.0303
  537MOL0     C72402  10.532   2.388   6.931  0.5225  0.0497 -0.0395
  537MOL0     C72403  10.563   2.359   6.783  0.7170 -0.3529 -0.4417
  537MOL0     C72404  10.706   2.400   6.744  0.6274  0.1859 -0.2533
  537MOL0    Cl72405  10.823   2.284   6.798  0.3004  0.0435 -0.3836
  537MOL0     C72406  10.093   2.320   7.732  0.6922 -0.3735  0.4999
  537MOL0     C72407  10.054   2.266   7.853  0.4305 -0.4412 -1.5091
  537MOL0     O72408  10.029   1.899   7.985 -0.7565  0.2338 -0.1590
  537MOL0     C72409   9.784   2.035   8.204 -0.3853 -0.2757  0.5447
  537MOL0     C72410   9.710   2.013   8.314  0.0967 -0.2006  0.2881
  537MOL0     N72411   9.302   1.566   8.922  0.6094 -0.4895  1.2229
  537MOL0     N72412   9.336   1.493   9.018  0.1301  0.3397 -0.2577
  537MOL0     C72413   8.837   1.404  10.143  0.1898  1.3603  0.5776
  537MOL0     C72414   8.758   1.319  10.218 -0.1217  0.3621 -0.1799
  537MOL0     C72415   8.645   0.923  10.439  0.3938  0.2313 -0.3681
  537MOL0     C72416   8.644   0.793  10.492 -0.1548 -0.3428 -0.1124
  537MOL0     C72417   8.532   0.725  10.529  0.2886  0.7539 -0.5049
  537MOL0     C72418   8.406   0.791  10.527 -0.3790  0.1984 -0.1789
  537MOL0     O72419   8.312   0.720  10.594  0.5092  0.3632 -0.2986
  537MOL0     C72420   8.181   0.761  10.655 -0.9168  0.5778 -0.1366
  537MOL0     C72421   8.076   0.842  10.578 -0.4424 -0.6663 -0.3491
  537MOL0     C72422   8.051   0.781  10.445  0.4487 -0.1774 -0.5597
  537MOL0     C72423   7.931   0.834  10.366  0.0845  0.1515 -0.0318
  537MOL0     C72424   7.876   0.963  10.414 -0.0208 -0.4991 -0.7363
  537MOL0     C72425   7.831   1.067  10.463  0.2963  0.5306  0.2950
  537MOL0     C72426   8.396   0.921  10.477 -1.3599 -0.2973  0.8778
  537MOL0     C72427   8.514   0.979  10.427 -0.3253  0.5903  0.3779
  537MOL0     H72428   9.013   1.104  10.309  1.1584  0.6326 -1.4526
  537MOL0     H72429   9.146   1.292  10.210  1.1432 -1.8501 -1.2535
  537MOL0     H72430   8.948   1.616   9.970  0.0502  1.0302 -1.6155
  537MOL0     H72431   9.114   1.601   9.924  1.4476 -0.9380  3.3559
  537MOL0     H72432   9.087   1.365   9.849 -0.9352  0.0477 -1.1540
  537MOL0     H72433   8.921   1.383   9.856 -0.0530  0.3438  2.7371
  537MOL0     H72434   8.949   1.484   9.625  0.1912  0.6296  0.0280
  537MOL0     H72435   8.990   1.612   9.701  1.9002 -0.2529  0.0331
  537MOL0     H72436   9.228   1.552   9.714  1.1982 -0.6565 -0.2160
  537MOL0     H72437   9.202   1.401   9.640 -0.1634 -0.1638 -1.6819
  537MOL0     H72438   9.119   1.521   9.426 -0.6585  0.4497 -0.1144
  537MOL0     H72439   9.137   1.674   9.516 -3.6373 -0.1643  2.1486
  537MOL0     H72440   9.367   1.658   9.520  0.7753  0.0383 -0.1578
  537MOL0     H72441   9.374   1.491   9.473 -2.5560 -2.1126 -1.3273
  537MOL0     H72442   9.223   1.608   9.266  0.7435 -2.6334 -0.4520
  537MOL0     H72443   9.345   1.734   9.311  2.6121  0.2507 -2.3469
  537MOL0     H72444   9.422   1.430   9.249  1.4296 -0.5994 -1.5415
  537MOL0     H72445   9.516   1.567   9.291 -0.2593  0.7635 -0.8903
  537MOL0     H72446   9.497   1.777   9.073 -2.6806  3.1110 -2.3126
  537MOL0     H72447   9.261   1.804   8.790 -0.3703 -0.2671 -2.8292
  537MOL0     H72448   9.389   1.889   8.867 -3.9345  0.4973  0.5989
  537MOL0     H72449   9.413   1.668   8.656  1.5713 -2.7817  0.9535
  537MOL0     H72450   9.553   1.765   8.725 -0.9320  2.1030  2.0975
  537MOL0     H72451   9.438   1.979   8.646 -0.4525 -1.0424  1.1300
  537MOL0     H72452   9.306   1.892   8.578 -0.8530 -0.3253 -0.4457
  537MOL0     H72453   9.480   1.993   8.427 -0.5394  0.6476  0.0120
  537MOL0     H72454   9.445   1.812   8.404 -1.8515 -0.5896  1.8240
  537MOL0     H72455   9.764   1.695   8.371 -1.2469  0.7381  0.1771
  537MOL0     H72456  10.049   1.703   8.200 -0.5135  1.1104 -0.5559
  537MOL0     H72457   9.918   1.598   8.223  0.9333  0.8030  2.9713
  537MOL0     H72458   9.940   1.674   8.054  0.2548 -1.1105 -0.1320
  537MOL0     H72459   9.921   1.980   7.732 -1.9233  0.7466 -0.8244
  537MOL0     H72460   9.996   2.075   7.521 -1.6490 -0.2952  0.3491
  537MOL0     H72461  10.159   2.128   7.365 -0.7672 -0.9389  0.5251
  537MOL0     H72462  10.021   2.229   7.338  0.1497 -4.9889  1.5516
  537MOL0     H72463  10.145   2.413   7.298  0.6422  0.5303 -0.6924
  537MOL0     H72464  10.299   2.340   7.341  1.0583  0.6210 -2.9536
  537MOL0     H72465  10.183   2.350   7.078  0.5441 -2.0183 -1.6349
  537MOL0     H72466  10.219   2.185   7.131  0.0568  0.2549  3.5017
  537MOL0     H72467  10.394   2.428   7.138 -3.8034  0.2179  1.4056
  537MOL0     H72468  10.467   2.275   7.191  2.3468  0.6285 -2.5043
  537MOL0     H72469  10.346   2.262   6.919 -0.0935 -2.0540 -0.3245
  537MOL0     H72470  10.472   2.185   6.997 -1.0591  0.1385  2.3840
  537MOL0     H72471  10.514   2.495   6.946  0.4878 -0.1332  1.3685
  537MOL0     H72472  10.620   2.363   6.991 -1.7786 -1.7073  2.8645
  537MOL0     H72473  10.512   2.429   6.716  0.4062 -0.0958  0.0515
  537MOL0     H72474  10.534   2.257   6.757  0.4957 -1.4715  3.5164
  537MOL0     H72475  10.732   2.502   6.771  0.8682  0.2371 -0.6689
  537MOL0     H72476  10.708   2.408   6.635 -3.1223  1.4052 -0.3617
  537MOL0     H72477  10.142   2.417   7.734 -1.0970  0.5908  0.1535
  537MOL0     H72478  10.070   2.322   7.945  0.0311 -3.1911  0.3508
  537MOL0     H72479   9.767   2.134   8.165 -2.2080 -0.5195  0.6259
  537MOL0     H72480   9.658   2.094   8.363 -1.7750 -1.1721 -0.0069
  537MOL0     H72481   8.796   1.486  10.085  1.0640 -0.3953 -2.7647
  537MOL0     H72482   8.650   1.329  10.217 -0.1724  0.2988  1.5691
  537MOL0     H72483   8.742   0.746  10.500  0.9168  2.0219  2.0566
  537MOL0     H72484   8.543   0.623  10.566 -0.8332  0.4349 -1.0205
  537MOL0     H72485   8.126   0.674  10.691  1.9831 -1.1239  0.4580
  537MOL0     H72486   8.223   0.810  10.743 -0.5985 -2.2927  1.4074
  537MOL0     H72487   8.125   0.939  10.563  0.8458 -0.6614  2.9802
  537MOL0     H72488   7.988   0.859  10.641  0.9646  4.0651  0.8198
  537MOL0     H72489   8.036   0.674  10.462 -0.3402 -0.5514 -3.1594
  537MOL0     H72490   8.135   0.785  10.375 -0.8516 -0.6812 -2.2157
  537MOL0     H72491   7.851   0.759  10.369  0.3162 -0.1808 -1.4536
  537MOL0     H72492   7.952   0.854  10.261  2.1920  1.3369  0.5666
  537MOL0     H72493   7.783   1.155  10.502 -2.5300  0.5504 -2.8565
  537MOL0     H72494   8.309   0.984  10.464  1.2403  3.2908 -0.6072
  537MOL0     H72495   8.501   1.074  10.375 -0.6207 -0.7213 -2.1101
  538MOL0     O72496  10.101   4.930   7.909  0.8163 -0.4855 -0.5290
  538MOL0     C72497  10.032   4.955   8.007  0.2977 -0.3956 -0.7884
  538MOL0     O72498  10.060   5.045   8.103 -0.2107  0.0614 -0.0687
  538MOL0     C72499  10.177   5.119   8.097 -0.1042 -0.3907  0.2090
  538MOL0     C72500  10.175   5.253   8.140 -0.1576 -0.5634  0.0712
  538MOL0     C72501  10.286   5.339   8.159 -0.7802  0.2306  1.3990
  538MOL0     C72502  10.414   5.290   8.124 -0.3759  0.0183  0.4809
  538MOL0     O72503  10.528   5.352   8.135 -0.4891  0.0125 -0.5036
  538MOL0     C72504  10.519   5.484   8.073  0.6581 -1.0679  0.5833
  538MOL0     C72505  10.651   5.540   8.009 -1.0189 -0.8745 -0.4837
  538MOL0     C72506  10.777   5.536   8.098  0.4375 -0.6018 -0.9823
  538MOL0     C72507  10.772   5.608   8.237  0.2880 -0.4013 -0.0788
  538MOL0     C72508  10.902   5.600   8.326  0.4236  0.3182 -0.6477
  538MOL0     C72509  10.994   5.718   8.285 -0.1278 -0.2035 -0.1018
  538MOL0     C72510  11.138   5.725   8.345 -0.3035 -0.7919  0.4295
  538MOL0     C72511  11.133   5.759   8.498 -0.3389 -0.0280 -0.3418
  538MOL0     N72512  11.243   5.696   8.573 -0.5180 -0.1949  0.4024
  538MOL0     C72513  11.368   5.757   8.586  0.6196 -0.1984  0.2552
  538MOL0     C72514  11.443   5.658   8.642  0.1726  0.7502 -0.5175
  538MOL0     C72515  11.576   5.678   8.694 -1.3474 -0.2947  0.0178
  538MOL0     C72516  11.662   5.545   8.679  0.7195 -0.3532  0.6928
  538MOL0     C72517  11.666   5.456   8.800 -0.0748  0.1798  0.0834
  538MOL0     C72518  11.759   5.514   8.911  1.4021 -0.3174  0.4421
  538MOL0     O72519  11.898   5.489   8.882 -0.5296  0.7016  0.4609
  538MOL0     C72520  11.980   5.439   8.980 -0.4368  0.2931  0.6447
  538MOL0     C72521  12.110   5.409   8.939  0.2314 -0.0052 -0.1903
  538MOL0     C72522  12.219   5.369   9.018 -0.7719  0.5828 -0.1029
  538MOL0     C72523  12.352   5.348   8.943  0.5020 -0.3034  0.0712
  538MOL0     C72524  12.195   5.355   9.162  0.0045 -0.0674 -0.8357
  538MOL0     C72525  12.296   5.319   9.268  0.6935 -0.4817  0.3357
  538MOL0     O72526  12.248   5.322   9.395 -0.1552  0.7490 -0.4327
  538MOL0     C72527  12.317   5.244   9.487  0.1565  0.0619 -0.3380
  538MOL0     C72528  12.460   5.189   9.486  0.6311 -0.2981  0.2928
  538MOL0     C72529  12.509   5.125   9.604  0.2677  0.4528  0.1348
  538MOL0     C72530  12.425   5.121   9.725 -0.5487 -0.1057  0.2697
  538MOL0     O72531  12.470   5.056   9.844 -0.6231 -0.3437  0.7121
  538MOL0     C72532  12.608   5.025   9.859 -0.2724 -0.7794 -0.1985
  538MOL0     C72533  12.630   4.952   9.994  0.6728  0.1240 -0.3858
  538MOL0     C72534  12.558   4.818  10.015  0.3829  1.3993 -0.1161
  538MOL0     C72535  12.536   4.751  10.149  0.0358 -0.8111  0.0702
  538MOL0     C72536  12.672   4.693  10.192  0.2480 -0.4163 -0.6334
  538MOL0     C72537  12.668   4.605  10.315  0.9614  0.6159  0.0275
  538MOL0     C72538  12.797   4.524  10.344  1.4228  0.6085 -0.2736
  538MOL0     C72539  12.777   4.456  10.478  0.1861 -0.7417 -0.4515
  538MOL0    Cl72540  12.624   4.371  10.485  0.0426 -0.0475 -0.2493
  538MOL0     C72541  12.294   5.163   9.720  0.1740  0.3687  0.1207
  538MOL0     C72542  12.244   5.220   9.608  0.1107 -0.7343  1.0081
  538MOL0     O72543  12.411   5.313   9.233  0.1868 -0.1606  0.5539
  538MOL0     C72544  12.058   5.382   9.208 -0.3083  0.3391 -0.3039
  538MOL0     C72545  11.962   5.429   9.119 -0.6222  0.3570  0.1035
  538MOL0     N72546  11.359   5.551   8.677 -0.5014 -0.2582  0.4298
  538MOL0     N72547  11.246   5.577   8.639  1.0332  0.2396 -0.1859
  538MOL0     C72548  10.424   5.154   8.075  0.6645 -0.2155  0.0851
  538MOL0     C72549  10.309   5.073   8.063 -0.3179 -0.1910 -0.5991
  538MOL0     C72550   9.894   4.897   8.005 -1.1272  1.0305 -1.1738
  538MOL0     C72551   9.881   4.777   7.935 -0.5682 -0.6517 -1.1546
  538MOL0     C72552   9.749   4.726   7.920  0.3015  0.4961  0.4557
  538MOL0     C72553   9.641   4.780   7.979  0.2109 -1.2722  0.2340
  538MOL0     O72554   9.535   4.709   7.957 -0.2938  0.6917 -0.2910
  538MOL0     C72555   9.429   4.705   8.050  0.1678 -0.2430 -0.3165
  538MOL0     C72556   9.452   4.617   8.167  0.0305  0.4374  0.0185
  538MOL0     C72557   9.525   4.488   8.128  0.2562 -1.3792  0.8101
  538MOL0     C72558   9.515   4.390   8.246 -0.3813  0.1277  0.0038
  538MOL0     C72559   9.388   4.327   8.272  0.0624  0.1667 -0.4343
  538MOL0     C72560   9.291   4.254   8.294  0.3447  0.3787  0.3767
  538MOL0     C72561   9.659   4.900   8.059 -0.5116 -0.1480  1.0438
  538MOL0     C72562   9.789   4.948   8.067 -0.6928  0.7265 -0.1067
  538MOL0     H72563  10.082   5.305   8.164 -0.6277  0.3303 -3.1509
  538MOL0     H72564  10.274   5.434   8.210  1.3618  1.9738 -1.0548
  538MOL0     H72565  10.439   5.493   7.999 -1.5354  1.8924  3.0532
  538MOL0     H72566  10.498   5.565   8.143  3.0492  0.8110 -0.7197
  538MOL0     H72567  10.676   5.483   7.919  0.1589 -0.4816 -0.4197
  538MOL0     H72568  10.635   5.644   7.980  1.6860 -1.1929 -3.7345
  538MOL0     H72569  10.777   5.431   8.130 -1.2456 -1.5652 -3.7064
  538MOL0     H72570  10.869   5.553   8.040  2.5578  0.8774  2.5200
  538MOL0     H72571  10.745   5.713   8.223 -2.6147 -1.1241 -0.4996
  538MOL0     H72572  10.693   5.569   8.302  1.4849  0.1583  1.8147
  538MOL0     H72573  10.871   5.639   8.423  0.1171  1.7905 -1.3012
  538MOL0     H72574  10.946   5.500   8.328 -1.4652 -0.5917  2.9755
  538MOL0     H72575  11.003   5.731   8.176 -2.7190  1.0488 -0.2500
  538MOL0     H72576  10.941   5.814   8.292 -0.0934 -0.1072 -1.0178
  538MOL0     H72577  11.197   5.637   8.318  0.2179  0.7052 -4.1660
  538MOL0     H72578  11.188   5.803   8.286 -0.6038  1.0380  2.4424
  538MOL0     H72579  11.039   5.736   8.550 -1.5205 -1.3437 -2.8436
  538MOL0     H72580  11.136   5.868   8.502  0.5795 -0.0426 -0.4394
  538MOL0     H72581  11.408   5.853   8.552  2.0958  0.1659  2.7271
  538MOL0     H72582  11.630   5.755   8.640  3.6248 -0.7346  3.6596
  538MOL0     H72583  11.571   5.710   8.799 -0.0430  0.2457 -0.0651
  538MOL0     H72584  11.765   5.569   8.652  0.7614  0.9576  1.9108
  538MOL0     H72585  11.618   5.497   8.591  0.4008  0.8605  0.1651
  538MOL0     H72586  11.709   5.358   8.774  0.2196  0.5848 -1.0170
  538MOL0     H72587  11.566   5.441   8.841  0.0106  1.0196  0.6139
  538MOL0     H72588  11.725   5.464   9.002 -0.7498  2.6663  1.4099
  538MOL0     H72589  11.746   5.622   8.915  0.8842 -0.3258 -0.6478
  538MOL0     H72590  12.136   5.414   8.834  2.1973 -2.3651  0.0977
  538MOL0     H72591  12.334   5.310   8.842 -1.2706  3.2130 -1.1114
  538MOL0     H72592  12.402   5.445   8.929  1.8467 -1.0932 -0.8568
  538MOL0     H72593  12.436   5.299   8.994  3.0867  1.9406 -1.7014
  538MOL0     H72594  12.519   5.211   9.398  2.4076  0.2575  1.5561
  538MOL0     H72595  12.597   5.062   9.604 -2.1402 -3.2835 -0.3854
  538MOL0     H72596  12.645   4.961   9.778  1.7032  1.2113 -0.9918
  538MOL0     H72597  12.672   5.114   9.857 -1.4545  0.0970 -2.6705
  538MOL0     H72598  12.738   4.938  10.001  1.0467  2.5403 -0.2818
  538MOL0     H72599  12.606   5.019  10.077  4.6786  1.4699 -0.0907
  538MOL0     H72600  12.607   4.747   9.948  0.1991 -0.0821  1.2370
  538MOL0     H72601  12.457   4.825   9.973  1.5807 -2.9526 -4.6140
  538MOL0     H72602  12.506   4.834  10.214  0.9824  0.1372 -0.6741
  538MOL0     H72603  12.454   4.679  10.141  0.0366 -1.0584  1.9385
  538MOL0     H72604  12.740   4.778  10.204  2.0915 -1.8889 -0.1836
  538MOL0     H72605  12.715   4.627  10.118  0.0263  1.0790 -2.1624
  538MOL0     H72606  12.636   4.660  10.404  0.1225 -0.4571  0.4122
  538MOL0     H72607  12.585   4.536  10.301  2.1415 -0.9262  0.3121
  538MOL0     H72608  12.883   4.591  10.335  3.1736 -1.4718  0.2361
  538MOL0     H72609  12.816   4.441  10.275  2.0163  1.0752 -0.6755
  538MOL0     H72610  12.779   4.524  10.564 -0.9036 -0.5450 -0.5694
  538MOL0     H72611  12.852   4.383  10.510  0.0704 -0.5498  0.2882
  538MOL0     H72612  12.229   5.155   9.807 -0.4123  2.1040 -0.1256
  538MOL0     H72613  12.141   5.250   9.624 -0.1974  0.3905 -2.2772
  538MOL0     H72614  12.024   5.350   9.307  0.9196 -2.9737 -0.8257
  538MOL0     H72615  11.863   5.457   9.154 -1.1306 -0.5099 -0.6076
  538MOL0     H72616  10.523   5.114   8.053  0.0283 -2.8599  1.6451
  538MOL0     H72617  10.322   4.970   8.034  0.6002 -0.8118  1.7315
  538MOL0     H72618   9.973   4.733   7.898 -0.3285  1.2284 -3.0186
  538MOL0     H72619   9.736   4.648   7.846  1.8883 -1.7515  2.3923
  538MOL0     H72620   9.411   4.799   8.103  1.4771  0.3731 -0.9127
  538MOL0     H72621   9.335   4.674   8.005  0.5614  0.2224 -1.4905
  538MOL0     H72622   9.360   4.594   8.221 -0.4082  2.3339  0.1727
  538MOL0     H72623   9.510   4.666   8.245 -1.3420  1.6371  0.3352
  538MOL0     H72624   9.626   4.522   8.106 -1.3427  3.1745 -0.6475
  538MOL0     H72625   9.473   4.461   8.036  0.6435  4.7978 -1.6985
  538MOL0     H72626   9.539   4.432   8.344  0.6672 -1.5400  0.5141
  538MOL0     H72627   9.587   4.311   8.221 -1.2236 -0.3479 -0.9881
  538MOL0     H72628   9.215   4.185   8.328  1.6617 -1.0654  0.5315
  538MOL0     H72629   9.575   4.945   8.111  0.1805  0.9343  1.2583
  538MOL0     H72630   9.818   5.038   8.122  1.6699  0.1827 -0.3292
  539MOL0     O72631   8.562  10.318   4.348  0.0235 -0.2621  0.0915
  539MOL0     C72632   8.458  10.373   4.315 -0.2202  1.5485 -0.0613
  539MOL0     O72633   8.336  10.371   4.375 -0.0049 -0.0662  0.5032
  539MOL0     C72634   8.304  10.326   4.504  1.7401  0.4815  0.1636
  539MOL0     C72635   8.388  10.248   4.590  1.0196  0.6176 -0.4284
  539MOL0     C72636   8.341  10.218   4.723  0.4802  0.9342  1.6917
  539MOL0     C72637   8.219  10.266   4.766 -0.1967  0.7598 -0.9895
  539MOL0     O72638   8.157  10.214   4.880 -0.8434  1.1036  0.0227
  539MOL0     C72639   8.195  10.079   4.915 -0.0795  0.9955 -0.4116
  539MOL0     C72640   8.098  10.034   5.025  0.7556  0.7997 -0.0853
  539MOL0     C72641   8.103  10.109   5.162 -0.3183  0.3979  0.1141
  539MOL0     C72642   8.234  10.179   5.205 -0.0467 -0.8098 -0.2067
  539MOL0     C72643   8.212  10.258   5.327 -0.0186 -0.1789 -0.1158
  539MOL0     C72644   8.346  10.299   5.392 -0.1271  0.2862  0.5133
  539MOL0     C72645   8.333  10.397   5.510  0.6789 -0.1418 -0.0849
  539MOL0     C72646   8.324  10.315   5.637  0.3120 -1.6068  0.5748
  539MOL0     N72647   8.294  10.400   5.761  0.7022 -0.2829 -0.2535
  539MOL0     C72648   8.175  10.434   5.804  0.2586 -0.2569  0.0896
  539MOL0     C72649   8.202  10.503   5.919 -0.3713  0.2772  0.9345
  539MOL0     C72650   8.089  10.541   6.015 -0.0489 -0.0273 -0.7195
  539MOL0     C72651   8.108  10.459   6.146  1.2487 -0.5833  0.3595
  539MOL0     C72652   8.072  10.313   6.122  1.1711 -0.4283  0.3034
  539MOL0     C72653   7.938  10.292   6.049 -0.5602  0.0734  0.8278
  539MOL0     O72654   7.842  10.375   6.107  0.4689  0.5211  0.1338
  539MOL0     C72655   7.718  10.361   6.058  0.2620 -0.3749 -0.0473
  539MOL0     C72656   7.691  10.317   5.930  0.4774  0.3346  0.5055
  539MOL0     C72657   7.558  10.329   5.871 -0.6404 -0.4165 -1.2761
  539MOL0     C72658   7.541  10.275   5.734  0.0835  0.5014 -0.8815
  539MOL0     C72659   7.459  10.398   5.954  0.4381  0.2177 -0.4050
  539MOL0     C72660   7.331  10.424   5.895  0.6129 -0.1606  0.1802
  539MOL0     O72661   7.323  10.494   5.774 -0.1699  0.5174  0.6705
  539MOL0     C72662   7.195  10.537   5.736 -1.1900 -0.0882 -0.4197
  539MOL0     C72663   7.162  10.667   5.757  0.0891  0.7077  1.0411
  539MOL0     C72664   7.048  10.718   5.712  0.1942 -0.5716 -0.0065
  539MOL0     C72665   6.957  10.646   5.632  0.5200 -0.2621 -0.8392
  539MOL0     O72666   6.840  10.709   5.587 -0.1565 -0.1883  0.4720
  539MOL0     C72667   6.755  10.775   5.687 -0.0984  0.4680  0.0610
  539MOL0     C72668   6.778  10.926   5.687 -0.0637 -0.3032 -0.5386
  539MOL0     C72669   6.760  10.959   5.829 -0.2661 -0.6149 -0.1257
  539MOL0     C72670   6.754  11.117   5.836  0.1994 -0.1662  1.0914
  539MOL0     C72671   6.774  11.159   5.988  0.3118  0.0550  0.1751
  539MOL0     C72672   6.634  11.164   6.043  0.7476 -0.2432  0.1197
  539MOL0     C72673   6.640  11.167   6.197 -0.5706 -0.7678  0.4406
  539MOL0     C72674   6.684  11.303   6.257 -0.4041  0.5042 -1.0583
  539MOL0    Cl72675   6.777  11.299   6.412  0.6850  0.3416 -0.1435
  539MOL0     C72676   6.992  10.512   5.609  0.4116 -0.0937 -0.1343
  539MOL0     C72677   7.112  10.444   5.662 -0.3710  0.1966  0.5607
  539MOL0     O72678   7.238  10.397   5.970 -0.4772  0.7175  1.1175
  539MOL0     C72679   7.492  10.448   6.080 -0.3319  0.2174  0.3418
  539MOL0     C72680   7.621  10.417   6.128 -0.1669 -0.0516  0.3363
  539MOL0     N72681   8.338  10.507   5.942  0.0429  0.1251 -0.6327
  539MOL0     N72682   8.394  10.438   5.846 -0.6687  0.4741 -0.2219
  539MOL0     C72683   8.145  10.366   4.690  0.2021  0.1349  0.1347
  539MOL0     C72684   8.188  10.395   4.562 -0.3134  0.1019  0.1459
  539MOL0     C72685   8.462  10.451   4.187  0.2578 -1.0487  1.1273
  539MOL0     C72686   8.585  10.484   4.123 -0.3468  0.2392 -1.0167
  539MOL0     C72687   8.593  10.574   4.017 -0.6283  0.5872 -0.0618
  539MOL0     C72688   8.471  10.610   3.961  0.8536  0.6733  1.6392
  539MOL0     O72689   8.467  10.674   3.841  1.1018 -0.1922 -0.1943
  539MOL0     C72690   8.395  10.602   3.737  0.1501  0.2262 -0.1313
  539MOL0     C72691   8.420  10.676   3.609 -0.1219 -0.8378  0.0095
  539MOL0     C72692   8.357  10.816   3.607  0.2314  0.1766 -0.5496
  539MOL0     C72693   8.301  10.845   3.464  0.2646 -0.8099 -1.0874
  539MOL0     C72694   8.237  10.979   3.464 -0.1569 -0.1135  0.7483
  539MOL0     C72695   8.184  11.084   3.482 -0.1769 -0.2355 -0.2018
  539MOL0     C72696   8.352  10.550   4.006 -0.1238  0.2188  0.4858
  539MOL0     C72697   8.352  10.480   4.121  0.3760  0.6669 -0.3967
  539MOL0     H72698   8.484  10.206   4.561  0.4946  0.4456 -1.9779
  539MOL0     H72699   8.401  10.158   4.791  0.5593 -1.2574 -0.1924
  539MOL0     H72700   8.183  10.017   4.825 -1.2799  3.0063 -1.7236
  539MOL0     H72701   8.300  10.083   4.943  0.2934  1.1011 -1.7802
  539MOL0     H72702   8.000  10.042   4.976  0.5455 -1.6876 -0.1872
  539MOL0     H72703   8.107   9.927   5.046 -1.4321 -0.2742 -3.7416
  539MOL0     H72704   8.024  10.185   5.167 -0.0396  0.6341  3.3316
  539MOL0     H72705   8.073  10.036   5.238  0.0560 -0.1792 -0.2844
  539MOL0     H72706   8.311  10.103   5.222 -0.7164 -1.4694 -0.0840
  539MOL0     H72707   8.266  10.251   5.129 -1.2171  1.0980  1.0002
  539MOL0     H72708   8.155  10.347   5.299  2.4620  1.1935 -1.2245
  539MOL0     H72709   8.141  10.200   5.386 -1.6205 -2.2042 -3.6815
  539MOL0     H72710   8.404  10.219   5.438 -3.2854 -0.7096  3.1617
  539MOL0     H72711   8.397  10.351   5.309 -1.4530  1.2759  0.2846
  539MOL0     H72712   8.418  10.467   5.509  0.7085 -0.1567 -2.1513
  539MOL0     H72713   8.235  10.445   5.501  1.0619  0.5188 -0.8028
  539MOL0     H72714   8.414  10.255   5.655  1.3107 -0.7633 -1.2996
  539MOL0     H72715   8.243  10.243   5.625  0.4766 -1.5778 -0.9069
  539MOL0     H72716   8.079  10.392   5.773  1.1427 -3.7389  1.5787
  539MOL0     H72717   8.113  10.641   6.052  2.3296 -2.2379  4.6827
  539MOL0     H72718   7.985  10.533   5.980 -1.0864  2.0358  1.6435
  539MOL0     H72719   8.050  10.519   6.217  2.1132  2.8169 -1.5724
  539MOL0     H72720   8.207  10.458   6.192  2.4637  3.0965 -1.7907
  539MOL0     H72721   8.045  10.265   6.216  1.7431 -1.4617 -0.0444
  539MOL0     H72722   8.159  10.263   6.079 -1.3367 -3.5907 -1.6298
  539MOL0     H72723   7.907  10.188   6.060 -0.7736  0.1959  1.3985
  539MOL0     H72724   7.956  10.308   5.942 -2.2417 -2.1606  0.1562
  539MOL0     H72725   7.769  10.266   5.875 -0.7686 -2.3208  1.0453
  539MOL0     H72726   7.516  10.361   5.671  2.0383  0.7783 -1.3511
  539MOL0     H72727   7.633  10.231   5.693  0.8113  1.0099  0.1408
  539MOL0     H72728   7.468  10.195   5.744 -1.3692  1.6510 -1.9792
  539MOL0     H72729   7.239  10.726   5.807  2.6955 -0.6769 -1.0421
  539MOL0     H72730   7.037  10.825   5.699 -1.6858 -0.7214 -0.0278
  539MOL0     H72731   6.649  10.756   5.668  0.5138 -3.5355 -0.3991
  539MOL0     H72732   6.789  10.721   5.776  1.6537 -2.8825 -2.4018
  539MOL0     H72733   6.873  10.956   5.642 -0.6434  0.3683 -1.3613
  539MOL0     H72734   6.711  10.985   5.623  2.5231  1.9476 -1.3377
  539MOL0     H72735   6.843  10.930   5.894  0.7897  0.3926 -0.9822
  539MOL0     H72736   6.667  10.913   5.864 -1.3051  0.7378 -0.9696
  539MOL0     H72737   6.842  11.157   5.784 -0.4126  1.4418  1.2348
  539MOL0     H72738   6.664  11.151   5.784  0.8167  1.7363  1.1677
  539MOL0     H72739   6.825  11.256   5.994 -1.2885  0.9910 -0.7281
  539MOL0     H72740   6.824  11.082   6.048 -0.5795  0.5404  1.6064
  539MOL0     H72741   6.602  11.257   5.996  2.3824  2.2204  3.5186
  539MOL0     H72742   6.575  11.073   6.027 -0.2535  0.5311 -0.7746
  539MOL0     H72743   6.712  11.093   6.232  3.4883  3.6047  2.4082
  539MOL0     H72744   6.540  11.140   6.232  0.0734 -2.7699  0.8365
  539MOL0     H72745   6.599  11.372   6.267 -0.5441  0.6328 -2.7204
  539MOL0     H72746   6.754  11.354   6.190  0.2026 -1.3259 -1.8621
  539MOL0     H72747   6.925  10.463   5.540  0.2015  2.0330 -1.5394
  539MOL0     H72748   7.136  10.340   5.645  0.4924  0.6702 -1.3838
  539MOL0     H72749   7.433  10.517   6.140 -0.0558 -0.5904  1.5955
  539MOL0     H72750   7.639  10.460   6.226 -2.9967 -0.1357  0.9783
  539MOL0     H72751   8.050  10.400   4.729  1.1850  1.1143  1.8306
  539MOL0     H72752   8.128  10.458   4.497  0.8923  2.0809  0.8437
  539MOL0     H72753   8.678  10.478   4.177 -1.9938  1.6840  2.2345
  539MOL0     H72754   8.690  10.606   3.978  0.4685 -0.0171  1.9977
  539MOL0     H72755   8.430  10.499   3.728 -0.6150  0.1413 -3.4641
  539MOL0     H72756   8.287  10.593   3.754  0.4670 -1.6298  1.1251
  539MOL0     H72757   8.387  10.611   3.527 -0.1979 -1.9524  0.8961
  539MOL0     H72758   8.527  10.696   3.596  0.3039 -2.9062 -0.0340
  539MOL0     H72759   8.423  10.894   3.645  2.0298  0.2269 -3.4949
  539MOL0     H72760   8.268  10.811   3.671 -1.3759 -3.8479 -2.7507
  539MOL0     H72761   8.220  10.772   3.459 -0.4141 -0.2739  1.1819
  539MOL0     H72762   8.376  10.828   3.386  2.3859  0.5798  0.5303
  539MOL0     H72763   8.123  11.169   3.505 -3.3932 -1.8664 -2.0078
  539MOL0     H72764   8.260  10.565   3.950 -1.6211  2.7448  3.3937
  539MOL0     H72765   8.258  10.438   4.155  0.8487 -0.9194 -0.9659
  540MOL0     O72766   3.482   3.113   7.619 -0.2273  0.7172 -0.4561
  540MOL0     C72767   3.472   3.226   7.671 -1.2160 -0.5230 -0.1817
  540MOL0     O72768   3.569   3.295   7.733  0.7013 -1.1208  1.1209
  540MOL0     C72769   3.696   3.246   7.727 -0.5897 -0.0504  0.9256
  540MOL0     C72770   3.766   3.237   7.602  0.3206 -0.5537  0.0386
  540MOL0     C72771   3.890   3.181   7.595 -0.0569  0.3887 -0.4735
  540MOL0     C72772   3.954   3.129   7.702 -0.9377 -0.7666  0.0952
  540MOL0     O72773   4.085   3.089   7.683  0.3865  0.4971 -0.4615
  540MOL0     C72774   4.085   2.970   7.621 -0.6554  0.5509  0.4489
  540MOL0     C72775   4.081   2.859   7.728  0.4993 -0.1219 -0.0361
  540MOL0     C72776   4.189   2.860   7.834 -0.6290 -0.8880 -0.8785
  540MOL0     C72777   4.195   2.717   7.895 -0.7653 -0.8232  0.2060
  540MOL0     C72778   4.297   2.712   8.002 -0.4477  0.3638  0.0432
  540MOL0     C72779   4.261   2.619   8.117 -0.2349  1.5218  0.0584
  540MOL0     C72780   4.379   2.619   8.222 -1.0611  0.5532  0.9704
  540MOL0     C72781   4.356   2.525   8.348 -0.1982  0.8947  0.3924
  540MOL0     N72782   4.217   2.515   8.397 -0.9105 -0.0424 -0.5146
  540MOL0     C72783   4.148   2.617   8.439  0.9099 -0.1053  0.4730
  540MOL0     C72784   4.032   2.561   8.481 -0.1928  0.1856 -0.4825
  540MOL0     C72785   3.923   2.636   8.550 -0.6755  0.2212  0.0284
  540MOL0     C72786   3.823   2.544   8.619 -0.2397 -0.3314  0.6668
  540MOL0     C72787   3.711   2.629   8.692  0.3955  1.2788  0.2696
  540MOL0     C72788   3.744   2.667   8.829 -0.3813 -0.0800  0.6077
  540MOL0     O72789   3.627   2.733   8.887 -0.3151  0.0070 -1.2316
  540MOL0     C72790   3.650   2.829   8.990 -0.1313 -0.7205  0.1623
  540MOL0     C72791   3.768   2.824   9.072 -0.8112  1.9910  0.5195
  540MOL0     C72792   3.789   2.935   9.154  0.0994 -0.0032 -0.5610
  540MOL0     C72793   3.924   2.945   9.213  1.0897 -0.8865  0.0937
  540MOL0     C72794   3.696   3.040   9.171  0.3254  0.4976 -0.0337
  540MOL0     C72795   3.717   3.156   9.261 -0.6537  0.1417 -0.5177
  540MOL0     O72796   3.828   3.168   9.335 -0.5465 -0.1959  0.8297
  540MOL0     C72797   3.864   3.289   9.392 -0.5224  0.0213  0.0692
  540MOL0     C72798   3.995   3.278   9.460  0.3031 -1.0199 -0.4730
  540MOL0     C72799   4.056   3.388   9.533  1.1181 -0.1523  0.7102
  540MOL0     C72800   3.981   3.505   9.544 -0.1623  0.9644 -0.4368
  540MOL0     O72801   4.031   3.612   9.604  0.2662 -0.2277 -0.8011
  540MOL0     C72802   4.176   3.629   9.611  1.1702  1.2068 -0.7575
  540MOL0     C72803   4.206   3.782   9.640  0.0663 -0.5260  0.7586
  540MOL0     C72804   4.189   3.830   9.787  0.6341  0.3872  0.0369
  540MOL0     C72805   4.204   3.986   9.788  0.3061  0.6374 -0.1212
  540MOL0     C72806   4.160   4.029   9.929  0.0650  0.6105 -0.6211
  540MOL0     C72807   4.114   4.176   9.935 -0.0712 -0.0273  0.1684
  540MOL0     C72808   3.989   4.192   9.840 -0.1581  0.3026  0.1481
  540MOL0     C72809   3.855   4.136   9.885  0.4616 -0.6943  0.0074
  540MOL0    Cl72810   3.727   4.128   9.761  0.1212  0.0576 -0.0189
  540MOL0     C72811   3.854   3.524   9.477 -1.1249  0.8232 -0.7392
  540MOL0     C72812   3.800   3.414   9.405  0.2084  1.4983 -0.8334
  540MOL0     O72813   3.624   3.239   9.254  0.6131  0.0468  0.2587
  540MOL0     C72814   3.569   3.031   9.106 -0.0930  0.1654 -1.0779
  540MOL0     C72815   3.549   2.927   9.017  0.8114 -0.1525  0.2996
  540MOL0     N72816   4.031   2.431   8.436 -0.0485  1.0164 -0.4384
  540MOL0     N72817   4.142   2.402   8.383 -0.1202 -0.1133  0.2368
  540MOL0     C72818   3.903   3.157   7.827 -0.4319  0.5910 -0.4433
  540MOL0     C72819   3.772   3.216   7.840  0.1830  0.8933 -0.2151
  540MOL0     C72820   3.337   3.294   7.681  0.6252  1.0160  0.0302
  540MOL0     C72821   3.335   3.428   7.721 -0.1268 -2.1675 -0.1079
  540MOL0     C72822   3.215   3.493   7.707  0.1383  0.0270 -0.0020
  540MOL0     C72823   3.089   3.431   7.654 -0.1119 -0.9558 -0.1361
  540MOL0     O72824   2.969   3.485   7.622 -0.3606 -0.2464 -0.8005
  540MOL0     C72825   2.964   3.632   7.614  0.3494 -0.5125 -0.5006
  540MOL0     C72826   2.928   3.702   7.747 -0.2866 -0.1672 -0.7424
  540MOL0     C72827   2.941   3.856   7.737 -0.7901  0.0116 -0.4801
  540MOL0     C72828   3.059   3.905   7.820 -0.0548  0.1210  0.4939
  540MOL0     C72829   3.181   3.894   7.745  0.1759  1.1912 -0.2581
  540MOL0     C72830   3.276   3.890   7.664 -0.3800 -0.0479  0.2113
  540MOL0     C72831   3.092   3.293   7.637 -0.5933  0.6394 -0.7661
  540MOL0     C72832   3.212   3.229   7.653 -0.9819  0.0656 -0.1489
  540MOL0     H72833   3.719   3.275   7.512 -1.0933 -2.6788 -0.1825
  540MOL0     H72834   3.937   3.184   7.497 -0.5230 -1.1509 -0.7762
  540MOL0     H72835   4.015   2.952   7.539  0.8034  3.9202 -1.8185
  540MOL0     H72836   4.190   2.970   7.589 -0.2431  2.2302  1.6736
  540MOL0     H72837   3.978   2.865   7.766 -0.0449  1.6825 -1.6344
  540MOL0     H72838   4.093   2.764   7.675 -3.0226 -0.8100  0.1151
  540MOL0     H72839   4.281   2.894   7.785 -0.4020 -1.4042 -0.8123
  540MOL0     H72840   4.161   2.936   7.907 -0.9749  0.3397 -2.2316
  540MOL0     H72841   4.094   2.682   7.917 -1.9575  2.6898  0.9678
  540MOL0     H72842   4.233   2.648   7.818 -0.2296  0.2643 -0.5268
  540MOL0     H72843   4.392   2.678   7.959  0.0990 -0.1625  1.5881
  540MOL0     H72844   4.314   2.807   8.054  0.7237  0.6553 -0.8049
  540MOL0     H72845   4.165   2.645   8.163  0.4073  0.7331  1.9273
  540MOL0     H72846   4.249   2.521   8.071  1.1402  1.8690 -1.1470
  540MOL0     H72847   4.470   2.581   8.174  1.3126  2.0255  3.9682
  540MOL0     H72848   4.398   2.725   8.241 -0.6994  1.3825 -3.0991
  540MOL0     H72849   4.420   2.563   8.428  1.3701  0.5619 -0.6617
  540MOL0     H72850   4.388   2.426   8.313  1.5925  2.1457 -1.8029
  540MOL0     H72851   4.172   2.719   8.465  0.1703 -0.0614  1.0436
  540MOL0     H72852   3.971   2.712   8.612  3.1625  0.3385 -2.7008
  540MOL0     H72853   3.865   2.696   8.480 -0.8222  0.8855  0.7030
  540MOL0     H72854   3.870   2.476   8.690 -0.0675  0.6845  1.5594
  540MOL0     H72855   3.779   2.487   8.537 -0.6068  2.4364 -1.2052
  540MOL0     H72856   3.622   2.565   8.687  2.5613 -1.9313 -0.2001
  540MOL0     H72857   3.678   2.713   8.630 -1.1802 -0.2369 -1.0975
  540MOL0     H72858   3.826   2.738   8.813  1.6612 -2.7438 -1.5956
  540MOL0     H72859   3.778   2.584   8.891 -0.3750 -0.0418  0.6558
  540MOL0     H72860   3.851   2.756   9.060 -1.4547  1.2560  0.1420
  540MOL0     H72861   3.942   2.972   9.318 -1.4901 -0.3806  0.4706
  540MOL0     H72862   3.969   2.846   9.216 -0.8120 -1.7886  0.6450
  540MOL0     H72863   3.980   3.017   9.153 -0.8668  2.7889  2.2720
  540MOL0     H72864   4.053   3.190   9.435 -0.1027 -0.7434 -2.6178
  540MOL0     H72865   4.148   3.364   9.585  0.9245  2.2885  2.3852
  540MOL0     H72866   4.214   3.577   9.699  1.8460  2.0771 -0.5298
  540MOL0     H72867   4.215   3.588   9.517 -1.0612 -1.5890 -0.5943
  540MOL0     H72868   4.313   3.798   9.624  0.0966 -1.1406  0.2890
  540MOL0     H72869   4.158   3.848   9.568  1.0894  0.1822  0.7043
  540MOL0     H72870   4.260   3.787   9.858 -2.3257 -2.1199  1.7266
  540MOL0     H72871   4.086   3.813   9.819  0.3715  0.0676 -0.9648
  540MOL0     H72872   4.311   4.007   9.780  0.4746 -0.6400 -1.7483
  540MOL0     H72873   4.140   4.037   9.716 -0.8545 -0.3277  0.2029
  540MOL0     H72874   4.250   4.006   9.987  1.5711  0.7713 -2.7968
  540MOL0     H72875   4.085   3.969   9.982 -0.7695  0.7370 -1.6192
  540MOL0     H72876   4.083   4.204  10.036  2.2710  1.0647  0.6568
  540MOL0     H72877   4.194   4.236   9.891 -1.1132  0.7160 -0.7801
  540MOL0     H72878   4.015   4.176   9.734 -1.3121 -0.9578  0.0282
  540MOL0     H72879   3.976   4.300   9.834  0.2746  0.4547  1.6944
  540MOL0     H72880   3.809   4.196   9.964 -0.2005  2.0332 -2.2681
  540MOL0     H72881   3.871   4.035   9.924  0.8103 -0.5017  0.3625
  540MOL0     H72882   3.784   3.606   9.477 -2.3321 -0.1682 -1.4115
  540MOL0     H72883   3.697   3.431   9.376 -1.0230 -3.0714  0.0415
  540MOL0     H72884   3.495   3.110   9.104 -0.7088 -0.2246  1.8279
  540MOL0     H72885   3.464   2.941   8.950  0.3244  1.7924  1.2624
  540MOL0     H72886   3.956   3.128   7.918  1.5744  3.0233 -0.7240
  540MOL0     H72887   3.729   3.227   7.939  1.5116 -4.9381  1.3923
  540MOL0     H72888   3.424   3.475   7.761 -0.0118 -3.2566  0.9650
  540MOL0     H72889   3.224   3.598   7.733 -0.4104  1.3582 -4.4227
  540MOL0     H72890   3.061   3.668   7.576 -0.2531  0.8600 -0.8112
  540MOL0     H72891   2.895   3.668   7.538  0.0456  0.9171  0.4141
  540MOL0     H72892   2.993   3.653   7.820  0.0032 -2.7704 -2.6407
  540MOL0     H72893   2.827   3.664   7.764  0.5174 -2.9949 -1.6911
  540MOL0     H72894   2.853   3.918   7.753 -0.9475 -0.7225  1.8798
  540MOL0     H72895   2.969   3.892   7.637  0.2742  0.9382  0.1304
  540MOL0     H72896   3.066   3.870   7.923  1.4077  1.5225  0.9166
  540MOL0     H72897   3.037   4.011   7.831  0.9937  0.1953  2.1407
  540MOL0     H72898   3.350   3.903   7.588 -0.2936  3.1226  0.7108
  540MOL0     H72899   3.002   3.240   7.606 -0.2791 -0.8556  0.7669
  540MOL0     H72900   3.216   3.129   7.611  4.7810 -0.0280 -0.1945
  541MOL0     O72901  10.602   5.361   5.512 -0.1973  0.1113  0.0952
  541MOL0     C72902  10.706   5.385   5.453 -0.9180  0.2601  0.1098
  541MOL0     O72903  10.788   5.289   5.409  0.6067 -0.4626  0.1779
  541MOL0     C72904  10.782   5.152   5.438  0.1753  0.1307  0.6753
  541MOL0     C72905  10.713   5.103   5.540 -0.6009 -0.2842  0.1272
  541MOL0     C72906  10.736   4.970   5.568  0.1847  0.5266  0.5499
  541MOL0     C72907  10.811   4.880   5.489 -0.2325  0.7588 -0.4178
  541MOL0     O72908  10.839   4.748   5.518  0.0485 -0.5812  1.0966
  541MOL0     C72909  10.821   4.705   5.651 -0.2106  0.4787 -0.9036
  541MOL0     C72910  10.867   4.561   5.657  0.6511  0.3153  0.4187
  541MOL0     C72911  11.023   4.545   5.650 -0.0175 -0.6900  0.8948
  541MOL0     C72912  11.098   4.624   5.756  0.3248 -0.9591 -0.5026
  541MOL0     C72913  11.234   4.555   5.790  1.0201 -0.9795  0.5418
  541MOL0     C72914  11.334   4.651   5.863 -0.0543 -0.5081 -0.5418
  541MOL0     C72915  11.462   4.572   5.907  0.4317 -0.0910  0.5943
  541MOL0     C72916  11.553   4.530   5.791 -0.1251 -0.2795  0.1763
  541MOL0     N72917  11.675   4.479   5.854  0.6202  0.0001 -0.2744
  541MOL0     C72918  11.694   4.360   5.929  0.4252 -0.8728  0.4004
  541MOL0     C72919  11.824   4.367   5.976 -0.0589 -0.6076  0.3025
  541MOL0     C72920  11.866   4.268   6.079 -0.5541 -0.3274  0.2822
  541MOL0     C72921  12.002   4.300   6.152  0.4613  0.1657  0.6316
  541MOL0     C72922  12.022   4.207   6.263  0.4926  0.4936  0.5589
  541MOL0     C72923  12.044   4.067   6.208 -0.5401  0.1846 -0.6146
  541MOL0     O72924  12.163   4.041   6.156 -0.1158 -0.4704  0.2150
  541MOL0     C72925  12.228   3.927   6.202 -1.0001 -0.1467 -0.6924
  541MOL0     C72926  12.204   3.800   6.149 -0.5252 -0.4668 -0.4791
  541MOL0     C72927  12.251   3.685   6.210  0.8900 -0.1715  0.3334
  541MOL0     C72928  12.219   3.554   6.145  0.1475  0.0463 -0.3893
  541MOL0     C72929  12.325   3.703   6.334 -0.0361 -0.1710 -0.8606
  541MOL0     C72930  12.402   3.600   6.415 -0.3396  0.2981 -0.4819
  541MOL0     O72931  12.369   3.465   6.397  0.3803 -0.4745  0.4221
  541MOL0     C72932  12.451   3.370   6.450 -0.2492 -0.4877 -0.7957
  541MOL0     C72933  12.519   3.286   6.368  0.3223 -0.5125  0.6989
  541MOL0     C72934  12.615   3.201   6.424  1.6093 -0.0225 -0.2420
  541MOL0     C72935  12.648   3.206   6.559 -0.1218  0.5422 -0.1835
  541MOL0     O72936  12.747   3.117   6.602  0.2587  0.2940 -0.9209
  541MOL0     C72937  12.773   3.100   6.744 -0.8035  1.2371 -1.0733
  541MOL0     C72938  12.904   3.010   6.770 -1.1925  0.3006  0.2231
  541MOL0     C72939  12.869   2.865   6.737 -0.8179  0.4998  0.7423
  541MOL0     C72940  12.995   2.773   6.770  0.1256  0.6026 -0.1213
  541MOL0     C72941  12.966   2.619   6.767  0.7901 -0.6989 -0.2292
  541MOL0     C72942  13.093   2.537   6.751 -0.1117 -0.1998  0.1050
  541MOL0     C72943  13.181   2.536   6.875  0.0521  0.0303 -0.2238
  541MOL0     C72944  13.114   2.514   7.008 -0.0006 -1.3423  0.3623
  541MOL0    Cl72945  13.070   2.344   7.034  0.2022  0.2025 -0.3767
  541MOL0     C72946  12.567   3.292   6.648 -0.1760  0.6096 -0.0104
  541MOL0     C72947  12.466   3.369   6.591 -0.0295 -0.2929  0.0042
  541MOL0     O72948  12.499   3.643   6.484  0.5902 -0.1999 -0.3310
  541MOL0     C72949  12.349   3.837   6.380 -0.3551  0.0559 -0.6815
  541MOL0     C72950  12.311   3.940   6.305 -0.6005  0.0016 -0.0835
  541MOL0     N72951  11.877   4.490   5.943  0.1919 -0.0333  0.6538
  541MOL0     N72952  11.789   4.550   5.874 -1.0684  0.3875  0.5447
  541MOL0     C72953  10.872   4.938   5.385 -1.4548 -0.5894 -0.1410
  541MOL0     C72954  10.854   5.072   5.354 -0.0129 -0.8128 -1.4074
  541MOL0     C72955  10.746   5.526   5.438 -0.1100  0.1839  0.3615
  541MOL0     C72956  10.869   5.561   5.385 -0.5412  0.0717 -0.0663
  541MOL0     C72957  10.904   5.699   5.380  0.5425 -0.0411  0.4360
  541MOL0     C72958  10.822   5.802   5.434 -0.0427  0.0665  1.5070
  541MOL0     O72959  10.859   5.937   5.423 -0.1200 -0.7442 -1.1983
  541MOL0     C72960  10.767   6.046   5.426 -0.6630 -0.3182  1.0501
  541MOL0     C72961  10.672   6.065   5.303 -1.1785 -0.2853 -1.2080
  541MOL0     C72962  10.552   5.980   5.283  0.2263 -1.2508 -0.0120
  541MOL0     C72963  10.457   6.070   5.194  0.3153 -0.3072  0.8832
  541MOL0     C72964  10.382   6.160   5.278  0.0893  0.2261  0.1029
  541MOL0     C72965  10.336   6.239   5.360  0.0234 -0.1990 -0.3497
  541MOL0     C72966  10.702   5.754   5.488  0.1391 -0.4157 -0.2928
  541MOL0     C72967  10.668   5.621   5.499  0.2625  0.4412  0.5842
  541MOL0     H72968  10.655   5.164   5.609 -0.5953  1.3584 -1.2733
  541MOL0     H72969  10.710   4.929   5.666  3.6089 -0.1570  1.2927
  541MOL0     H72970  10.883   4.756   5.726  3.2468 -2.6335 -1.3366
  541MOL0     H72971  10.715   4.705   5.674  0.4496 -2.6160  3.2900
  541MOL0     H72972  10.827   4.514   5.747  0.2401 -0.3358 -0.0806
  541MOL0     H72973  10.815   4.506   5.578  0.2104 -2.3782  2.4375
  541MOL0     H72974  11.043   4.439   5.666 -0.1068 -0.7352  0.7173
  541MOL0     H72975  11.058   4.571   5.549  0.0685  1.8044  1.5152
  541MOL0     H72976  11.109   4.729   5.728 -0.2347 -0.7019  0.2248
  541MOL0     H72977  11.036   4.624   5.846  1.4531 -2.9199  0.3233
  541MOL0     H72978  11.218   4.475   5.863 -1.2226  2.5762  4.3800
  541MOL0     H72979  11.264   4.512   5.693 -2.7396 -0.5382 -0.9657
  541MOL0     H72980  11.363   4.733   5.796 -4.7895  1.2742 -0.7394
  541MOL0     H72981  11.299   4.697   5.955  0.2182 -0.7976 -0.2901
  541MOL0     H72982  11.519   4.634   5.978  0.8686  0.0563  0.1244
  541MOL0     H72983  11.415   4.485   5.952  0.9890 -0.5477  0.3116
  541MOL0     H72984  11.581   4.617   5.731  0.0005 -0.3399  0.1470
  541MOL0     H72985  11.498   4.470   5.718 -2.6661  1.6241  0.3805
  541MOL0     H72986  11.624   4.281   5.955 -1.5808  1.6135  3.2357
  541MOL0     H72987  11.793   4.260   6.161  0.6105 -1.6929  1.2236
  541MOL0     H72988  11.855   4.172   6.029 -1.9073 -1.6444  2.9002
  541MOL0     H72989  11.988   4.392   6.210 -0.7292 -0.9945  2.2805
  541MOL0     H72990  12.089   4.306   6.086 -1.0415  1.2474 -1.3703
  541MOL0     H72991  11.934   4.201   6.328  1.4783 -1.0981  1.8451
  541MOL0     H72992  12.107   4.232   6.328  3.4398 -1.1558 -2.3721
  541MOL0     H72993  11.974   4.051   6.125 -1.0221  2.1042 -0.6368
  541MOL0     H72994  12.017   3.995   6.286 -0.8448  0.8782 -0.0683
  541MOL0     H72995  12.129   3.798   6.070  0.6188  1.6810 -1.7330
  541MOL0     H72996  12.176   3.487   6.220 -1.3960  4.2611  2.9041
  541MOL0     H72997  12.142   3.565   6.068 -2.2146  1.0812  1.9453
  541MOL0     H72998  12.311   3.512   6.104  0.7477  0.3792  0.5851
  541MOL0     H72999  12.484   3.268   6.267 -0.8681 -0.2876  1.0596
  541MOL0     H73000  12.648   3.110   6.376  3.4181 -2.4265  4.9150
  541MOL0     H73001  12.783   3.193   6.801 -0.1070  0.6017 -0.1311
  541MOL0     H73002  12.684   3.050   6.784 -1.4094  0.9558 -2.6913
  541MOL0     H73003  12.993   3.047   6.719 -2.1958 -0.5269 -2.3111
  541MOL0     H73004  12.927   3.011   6.877  1.9500  0.1309 -0.3831
  541MOL0     H73005  12.842   2.863   6.631 -2.0271  2.4184  0.9817
  541MOL0     H73006  12.782   2.835   6.796 -1.8592  4.6928  1.6383
  541MOL0     H73007  13.066   2.801   6.691 -0.8296  4.2863  0.1413
  541MOL0     H73008  13.028   2.793   6.872 -1.9089  1.2411  0.4653
  541MOL0     H73009  12.911   2.605   6.673  1.9599  0.0749 -1.0496
  541MOL0     H73010  12.896   2.582   6.843  0.5882  0.8582  0.3750
  541MOL0     H73011  13.064   2.432   6.740  1.9269 -1.1200  2.4841
  541MOL0     H73012  13.146   2.571   6.662  1.7233 -1.2674  0.7399
  541MOL0     H73013  13.238   2.629   6.872  0.7680 -0.2387  2.6171
  541MOL0     H73014  13.256   2.457   6.866  3.2930  2.4965  2.3854
  541MOL0     H73015  13.020   2.570   7.019  0.8026  0.7179 -2.2124
  541MOL0     H73016  13.181   2.546   7.088  1.1648  0.6635 -1.2862
  541MOL0     H73017  12.585   3.290   6.755 -1.5988 -0.4854  0.2451
  541MOL0     H73018  12.410   3.435   6.657 -0.5092 -0.4327 -0.2574
  541MOL0     H73019  12.399   3.855   6.475 -2.7522 -2.2994  1.1815
  541MOL0     H73020  12.348   4.041   6.322  3.7705 -1.0715 -1.7921
  541MOL0     H73021  10.949   4.898   5.320 -0.6992  2.4617 -1.2764
  541MOL0     H73022  10.917   5.108   5.274 -0.1325  0.5322 -0.9396
  541MOL0     H73023  10.943   5.491   5.349  1.4499  2.7642 -1.6276
  541MOL0     H73024  11.003   5.731   5.348  0.3561  1.7414  1.4891
  541MOL0     H73025  10.719   6.042   5.524 -1.0638 -2.8443  0.8177
  541MOL0     H73026  10.821   6.141   5.429 -3.4781  1.3680  1.8104
  541MOL0     H73027  10.732   6.044   5.213  1.5539  2.3110 -0.1633
  541MOL0     H73028  10.658   6.173   5.315  4.6653  0.7106 -0.3772
  541MOL0     H73029  10.507   5.941   5.375 -1.2826  1.0677  0.3344
  541MOL0     H73030  10.580   5.898   5.217 -1.4521  0.0036 -2.4314
  541MOL0     H73031  10.379   6.009   5.146  2.7639 -1.7177 -1.6959
  541MOL0     H73032  10.514   6.105   5.106  1.1025  0.0221  1.5099
  541MOL0     H73033  10.286   6.317   5.414  0.7651 -2.0040  3.2362
  541MOL0     H73034  10.646   5.826   5.547  0.7515  0.3051 -0.5761
  541MOL0     H73035  10.578   5.581   5.545  1.7562 -4.6269 -0.2928
  542MOL0     O73036   5.838   0.632   6.885  0.6520 -0.8791  0.1842
  542MOL0     C73037   5.820   0.697   6.779  0.3672  0.1126  0.2734
  542MOL0     O73038   5.872   0.662   6.654 -0.0774 -0.0040  0.1057
  542MOL0     C73039   5.921   0.540   6.643  0.8066 -0.1006  0.6669
  542MOL0     C73040   5.829   0.438   6.663  0.1456  0.8735 -0.6015
  542MOL0     C73041   5.870   0.306   6.659 -0.1991 -0.9868 -0.2383
  542MOL0     C73042   6.001   0.280   6.631 -0.3798 -0.1958 -0.6707
  542MOL0     O73043   6.049   0.146   6.624  1.3580  0.2652  0.6125
  542MOL0     C73044   6.023   0.073   6.747 -0.2179  0.4709  0.2194
  542MOL0     C73045   5.937  -0.056   6.746 -0.1900  0.6167  0.0802
  542MOL0     C73046   5.794  -0.046   6.691  0.3989  0.5623 -1.0363
  542MOL0     C73047   5.748  -0.189   6.666 -0.0941 -0.3034 -0.0938
  542MOL0     C73048   5.592  -0.210   6.644  0.5650  0.1178  0.4984
  542MOL0     C73049   5.556  -0.138   6.511  0.2274 -0.7855  0.2973
  542MOL0     C73050   5.414  -0.170   6.475 -0.5393  0.2292 -0.1553
  542MOL0     C73051   5.350  -0.083   6.377  0.9234 -0.3316 -1.3182
  542MOL0     N73052   5.206  -0.093   6.345  0.6830 -0.3192 -1.5314
  542MOL0     C73053   5.111   0.001   6.291  0.3089  0.2422 -1.2012
  542MOL0     C73054   4.995  -0.056   6.326  0.5820 -0.7422 -0.3523
  542MOL0     C73055   4.854  -0.007   6.294  0.1682  0.5057  0.4939
  542MOL0     C73056   4.787   0.048   6.431  0.6950  0.1226  0.1020
  542MOL0     C73057   4.796  -0.033   6.557  0.0493 -1.0559  0.0114
  542MOL0     C73058   4.741   0.043   6.676  0.0259 -0.0458  0.5403
  542MOL0     O73059   4.630  -0.025   6.746  0.6756 -0.0606  0.3987
  542MOL0     C73060   4.570   0.046   6.853  0.3379 -0.0323  0.2796
  542MOL0     C73061   4.512  -0.030   6.959 -0.0573  0.5875 -1.2857
  542MOL0     C73062   4.453   0.032   7.077 -0.2145 -0.3803  0.2308
  542MOL0     C73063   4.404  -0.055   7.188 -0.4409 -0.1302 -0.0967
  542MOL0     C73064   4.433   0.174   7.077 -1.4215 -0.4413 -0.1128
  542MOL0     C73065   4.358   0.245   7.185  0.5018 -2.2640 -0.2197
  542MOL0     O73066   4.331   0.384   7.159  0.7507  0.5855  0.1261
  542MOL0     C73067   4.259   0.446   7.254 -0.4715 -0.5233  0.6707
  542MOL0     C73068   4.119   0.445   7.249 -0.5007 -0.0137 -1.1558
  542MOL0     C73069   4.040   0.516   7.349  0.4663  0.6555 -0.0344
  542MOL0     C73070   4.112   0.562   7.465 -0.8553 -1.1905  1.3810
  542MOL0     O73071   4.031   0.611   7.560 -1.0665 -0.9641 -0.4240
  542MOL0     C73072   3.948   0.717   7.525  0.0426 -0.6755 -0.5577
  542MOL0     C73073   3.936   0.807   7.645  0.0746  0.2823 -0.3768
  542MOL0     C73074   4.069   0.859   7.681 -0.0502  0.0278 -0.6413
  542MOL0     C73075   4.085   0.938   7.804 -0.1837  0.0882 -0.4585
  542MOL0     C73076   4.057   0.860   7.934  0.1118 -0.0704  0.2233
  542MOL0     C73077   4.086   0.955   8.047 -0.3350 -0.5235  0.1314
  542MOL0     C73078   4.082   0.897   8.194 -0.4165 -1.0804  0.0852
  542MOL0     C73079   3.983   0.968   8.281  0.7893 -0.9861  0.0399
  542MOL0    Cl73080   4.032   1.133   8.314 -0.2178 -0.2002 -0.5155
  542MOL0     C73081   4.256   0.559   7.471  0.4994  0.1613  0.5429
  542MOL0     C73082   4.319   0.504   7.367 -0.4159 -0.1624  1.1270
  542MOL0     O73083   4.327   0.190   7.289 -0.3207 -0.0107 -0.6373
  542MOL0     C73084   4.489   0.249   6.973 -0.4060  0.3386  0.9232
  542MOL0     C73085   4.556   0.191   6.858  0.6178 -0.2467 -0.5500
  542MOL0     N73086   5.010  -0.180   6.386 -0.5390 -0.1001  0.4816
  542MOL0     N73087   5.138  -0.200   6.392  0.3236 -0.5931  0.4894
  542MOL0     C73088   6.099   0.381   6.614  1.2047  0.8768  0.6933
  542MOL0     C73089   6.057   0.509   6.617 -0.4710 -1.0162 -1.1456
  542MOL0     C73090   5.736   0.823   6.780 -0.0848  0.3432  0.7912
  542MOL0     C73091   5.764   0.916   6.676 -0.8270 -0.0616 -0.4346
  542MOL0     C73092   5.692   1.037   6.670 -0.2095 -0.5096  0.2670
  542MOL0     C73093   5.586   1.068   6.758 -0.1652  0.3535 -0.0741
  542MOL0     O73094   5.510   1.181   6.735  0.5745 -0.8826 -0.2479
  542MOL0     C73095   5.381   1.155   6.691 -0.4848 -0.1560 -1.3980
  542MOL0     C73096   5.332   1.281   6.633 -0.3365 -0.1204  0.1156
  542MOL0     C73097   5.246   1.357   6.730  0.1360  1.1010  0.6860
  542MOL0     C73098   5.101   1.322   6.709  0.3428  0.1439  0.3128
  542MOL0     C73099   5.047   1.366   6.581  0.2088 -0.0049 -0.1341
  542MOL0     C73100   5.007   1.400   6.472  0.1573 -0.3529 -0.7894
  542MOL0     C73101   5.561   0.980   6.862 -0.9011 -0.0219  0.4973
  542MOL0     C73102   5.631   0.858   6.871 -0.7978  0.3451  0.5446
  542MOL0     H73103   5.722   0.451   6.677 -0.0662  0.5020 -1.7313
  542MOL0     H73104   5.809   0.218   6.678  1.1194 -1.5008  1.9880
  542MOL0     H73105   6.125   0.037   6.766 -0.9257 -2.6169 -1.2855
  542MOL0     H73106   5.986   0.138   6.827 -0.1286  1.9230 -0.8893
  542MOL0     H73107   5.984  -0.120   6.672  0.9421 -1.2179  2.2624
  542MOL0     H73108   5.946  -0.104   6.844 -1.3848  2.1682  1.0008
  542MOL0     H73109   5.729  -0.004   6.768  1.8503 -1.6455  1.5872
  542MOL0     H73110   5.793   0.018   6.603 -1.1378 -0.0941 -1.5379
  542MOL0     H73111   5.796  -0.216   6.572 -1.4014 -0.8189 -0.6414
  542MOL0     H73112   5.777  -0.254   6.750 -1.3885  1.6264  1.9705
  542MOL0     H73113   5.591  -0.319   6.634  1.7397  0.1664 -0.5010
  542MOL0     H73114   5.528  -0.175   6.725 -2.2768 -1.3973 -0.9033
  542MOL0     H73115   5.569  -0.031   6.527  0.6487 -1.0298  1.7268
  542MOL0     H73116   5.625  -0.157   6.428 -2.5803  0.0024 -2.3976
  542MOL0     H73117   5.408  -0.276   6.450 -0.0720  0.3744 -0.8943
  542MOL0     H73118   5.358  -0.156   6.568  1.3389  2.1242  0.7811
  542MOL0     H73119   5.393  -0.125   6.285  4.8416  1.1620 -0.3750
  542MOL0     H73120   5.370   0.023   6.391  1.6495 -0.6301 -0.0035
  542MOL0     H73121   5.112   0.095   6.237 -2.5158  0.5290 -0.8853
  542MOL0     H73122   4.854   0.081   6.230  1.0841 -1.3224 -2.1635
  542MOL0     H73123   4.782  -0.077   6.251  3.2057 -0.5006 -3.5301
  542MOL0     H73124   4.686   0.081   6.406  0.1598  0.4032  2.3742
  542MOL0     H73125   4.843   0.141   6.446 -0.9621  1.3359 -0.8956
  542MOL0     H73126   4.900  -0.054   6.583  0.0372  1.9382  3.0910
  542MOL0     H73127   4.750  -0.124   6.517  0.5703 -1.0594 -0.5965
  542MOL0     H73128   4.700   0.138   6.638  1.1026  0.5231  0.7759
  542MOL0     H73129   4.827   0.069   6.739  1.7338 -1.0486 -1.2893
  542MOL0     H73130   4.524  -0.137   6.969 -1.3611  0.6397  3.6951
  542MOL0     H73131   4.436  -0.024   7.288 -1.7026 -0.9801  0.6054
  542MOL0     H73132   4.298  -0.084   7.186 -0.5744  0.0037  2.3735
  542MOL0     H73133   4.442  -0.158   7.184 -1.0829 -0.4277  1.0564
  542MOL0     H73134   4.059   0.396   7.172  1.1356  0.7679 -3.0076
  542MOL0     H73135   3.934   0.522   7.328  1.2692  2.9065 -4.8267
  542MOL0     H73136   3.989   0.768   7.438 -1.6062  0.6798 -0.5837
  542MOL0     H73137   3.850   0.672   7.508 -1.0484  0.8342  1.2758
  542MOL0     H73138   3.870   0.893   7.639  0.8595  1.0966  1.7713
  542MOL0     H73139   3.894   0.741   7.721 -0.0214  0.8171  0.0319
  542MOL0     H73140   4.098   0.927   7.600  0.5327  0.1543 -0.3293
  542MOL0     H73141   4.149   0.785   7.682  1.4341  1.4723  2.2097
  542MOL0     H73142   4.193   0.957   7.800  0.3006 -2.4331 -2.3228
  542MOL0     H73143   4.021   1.026   7.805  0.7046  0.7363  0.0733
  542MOL0     H73144   4.123   0.775   7.955  2.5929  1.7095  0.0288
  542MOL0     H73145   3.951   0.833   7.931  0.0332  0.2969 -1.9374
  542MOL0     H73146   4.185   1.001   8.040 -0.7647  0.8519  2.0493
  542MOL0     H73147   4.025   1.045   8.038  1.2346  0.7062  1.1521
  542MOL0     H73148   4.178   0.919   8.241 -1.1516  1.3359  0.5728
  542MOL0     H73149   4.057   0.791   8.194 -2.5110 -0.6332  1.5691
  542MOL0     H73150   3.970   0.927   8.381 -2.0336  2.1728  1.1755
  542MOL0     H73151   3.885   0.950   8.234  1.4207 -3.7331 -0.4006
  542MOL0     H73152   4.320   0.583   7.555  0.3512  0.0259  0.6958
  542MOL0     H73153   4.428   0.508   7.372 -0.2418 -0.0385 -1.4517
  542MOL0     H73154   4.486   0.357   6.982 -2.0514  0.4889 -0.8737
  542MOL0     H73155   4.599   0.255   6.782  0.0858  0.4517 -0.2760
  542MOL0     H73156   6.202   0.366   6.584  0.8287 -0.6185  0.0477
  542MOL0     H73157   6.137   0.581   6.601  0.1651 -1.2345  0.8415
  542MOL0     H73158   5.854   0.897   6.619  0.5840 -1.2527  2.0590
  542MOL0     H73159   5.714   1.114   6.597  1.5767  0.4939  1.7680
  542MOL0     H73160   5.392   1.078   6.614 -0.9840 -1.1774 -0.4873
  542MOL0     H73161   5.323   1.119   6.776  2.2222  1.4026  1.3259
  542MOL0     H73162   5.273   1.258   6.544  0.9725 -0.0874 -0.7936
  542MOL0     H73163   5.415   1.341   6.596  0.1932 -2.9267 -4.0747
  542MOL0     H73164   5.258   1.464   6.709 -4.3821  1.3444 -1.9915
  542MOL0     H73165   5.269   1.330   6.834  1.6840  3.8843  1.1853
  542MOL0     H73166   5.040   1.364   6.789  3.5386  0.7347  2.6276
  542MOL0     H73167   5.083   1.215   6.719 -1.9720  0.5347  0.9240
  542MOL0     H73168   4.979   1.427   6.373  0.4898  4.4447  0.1787
  542MOL0     H73169   5.485   1.001   6.936  1.1138  0.7611  2.4660
  542MOL0     H73170   5.618   0.802   6.963  0.7334 -0.4606  0.3072
  543MOL0     O73171  11.217   6.656   9.633 -0.8233  0.5477 -0.4176
  543MOL0     C73172  11.276   6.767   9.647  1.0011  0.1777  0.5363
  543MOL0     O73173  11.223   6.875   9.701 -0.7779  0.1461  0.9415
  543MOL0     C73174  11.091   6.877   9.759 -0.1340  0.9236  0.5279
  543MOL0     C73175  11.020   6.780   9.824  0.0115  0.7216 -0.0420
  543MOL0     C73176  10.901   6.811   9.875 -0.4969  0.0939 -0.7717
  543MOL0     C73177  10.852   6.938   9.880 -0.0098 -0.2665 -0.4754
  543MOL0     O73178  10.737   6.929   9.943  0.5314 -0.3800 -0.5972
  543MOL0     C73179  10.657   7.051   9.953 -0.2133  0.8900  0.0606
  543MOL0     C73180  10.583   7.063   9.817 -0.4280 -0.6977  0.6653
  543MOL0     C73181  10.524   7.194   9.790  0.1028 -1.3973 -0.4461
  543MOL0     C73182  10.412   7.208   9.687 -0.8252 -0.0253 -0.0148
  543MOL0     C73183  10.358   7.354   9.684  0.6274  0.1859  0.2642
  543MOL0     C73184  10.252   7.376   9.572 -0.3360  0.3373  0.1705
  543MOL0     C73185  10.310   7.389   9.436 -0.3121 -0.6841 -0.0891
  543MOL0     C73186  10.227   7.470   9.337 -0.3692  0.2399  0.6621
  543MOL0     N73187  10.296   7.500   9.205 -0.8181  0.0657 -0.1996
  543MOL0     C73188  10.387   7.602   9.165  0.1768 -0.8150  0.3705
  543MOL0     C73189  10.409   7.574   9.029 -0.5272 -0.2064  0.5593
  543MOL0     C73190  10.514   7.644   8.947  0.2940 -0.3974  0.0796
  543MOL0     C73191  10.457   7.731   8.838  0.2714 -0.8952  1.2093
  543MOL0     C73192  10.517   7.719   8.699  0.1312  0.0325  0.2584
  543MOL0     C73193  10.663   7.756   8.701 -0.7493 -0.3005  1.1999
  543MOL0     O73194  10.700   7.775   8.560 -1.0074 -0.3192 -0.1723
  543MOL0     C73195  10.697   7.899   8.492 -0.3815 -0.7773 -0.0872
  543MOL0     C73196  10.778   7.928   8.378  0.1999 -0.8682 -0.0710
  543MOL0     C73197  10.790   8.058   8.322 -0.2454 -0.5839  0.1447
  543MOL0     C73198  10.902   8.093   8.233 -0.3856  0.7136  0.4774
  543MOL0     C73199  10.686   8.153   8.360 -0.1048 -0.9078 -0.3329
  543MOL0     C73200  10.663   8.292   8.299  0.9487 -0.3199 -0.1073
  543MOL0     O73201  10.749   8.334   8.200  0.2247 -0.1291 -0.1558
  543MOL0     C73202  10.751   8.470   8.176 -0.4759  0.3098  0.4961
  543MOL0     C73203  10.833   8.558   8.249  0.3289 -0.9234  0.2966
  543MOL0     C73204  10.824   8.693   8.216 -0.1033  1.1085 -0.1242
  543MOL0     C73205  10.729   8.747   8.125 -0.7887  0.9821 -0.7769
  543MOL0     O73206  10.712   8.877   8.100 -0.1527  0.6616 -0.0631
  543MOL0     C73207  10.830   8.971   8.112 -0.2392 -0.9585  0.1460
  543MOL0     C73208  10.814   9.086   8.220 -0.3921  0.3436 -0.2917
  543MOL0     C73209  10.802   9.030   8.368  0.2457 -0.1845 -0.1245
  543MOL0     C73210  10.817   9.138   8.472  0.9563  0.5444  0.7583
  543MOL0     C73211  10.725   9.255   8.450  0.6320  0.1626 -0.5714
  543MOL0     C73212  10.705   9.326   8.579  0.8643 -0.2217 -0.8337
  543MOL0     C73213  10.579   9.422   8.567 -0.4843  0.2676 -0.7533
  543MOL0     C73214  10.539   9.497   8.700  0.6548 -0.2678  0.7870
  543MOL0    Cl73215  10.386   9.551   8.669  0.4013  0.2023 -0.0549
  543MOL0     C73216  10.652   8.651   8.057  1.0241 -0.6725  0.6010
  543MOL0     C73217  10.654   8.518   8.089 -0.5276  0.1362 -0.1205
  543MOL0     O73218  10.573   8.360   8.344 -0.2555 -0.1868 -0.7676
  543MOL0     C73219  10.597   8.115   8.472 -0.0330 -0.1906  0.1781
  543MOL0     C73220  10.603   7.995   8.527 -0.4645  0.1942 -0.4713
  543MOL0     N73221  10.348   7.451   8.996 -0.0149  0.1576  0.4877
  543MOL0     N73222  10.294   7.406   9.105  0.3015 -0.1061  0.5421
  543MOL0     C73223  10.918   7.041   9.819  0.3059  0.0302 -0.3519
  543MOL0     C73224  11.037   7.013   9.759 -0.8161  0.6272  0.8560
  543MOL0     C73225  11.416   6.754   9.613  0.2197 -1.1688 -0.9005
  543MOL0     C73226  11.478   6.876   9.616 -0.0596  0.0637  0.0003
  543MOL0     C73227  11.617   6.875   9.578  0.6757 -0.6912 -0.4846
  543MOL0     C73228  11.679   6.771   9.513 -1.2655 -0.4178 -0.6435
  543MOL0     O73229  11.814   6.784   9.474  0.7301 -0.5742 -0.4530
  543MOL0     C73230  11.872   6.668   9.425 -0.0169  0.0761  0.2093
  543MOL0     C73231  11.994   6.713   9.344  0.7195  0.0265 -0.2884
  543MOL0     C73232  12.060   6.608   9.251 -0.3431 -0.4154 -0.1873
  543MOL0     C73233  12.081   6.477   9.329 -0.4849  0.2449  0.6947
  543MOL0     C73234  12.154   6.386   9.240 -0.7180 -0.6542 -0.2758
  543MOL0     C73235  12.219   6.309   9.169  0.4250 -0.2444 -0.3084
  543MOL0     C73236  11.616   6.647   9.520  0.9273  0.4236  0.3491
  543MOL0     C73237  11.486   6.643   9.569  0.5302 -0.9017 -0.4809
  543MOL0     H73238  11.063   6.681   9.830  0.1948  0.5306 -3.1405
  543MOL0     H73239  10.847   6.724   9.910 -0.2331 -1.0640 -3.1004
  543MOL0     H73240  10.586   7.047  10.036 -1.6690  0.4946 -1.1614
  543MOL0     H73241  10.732   7.127   9.979  2.6754 -1.2620 -1.4766
  543MOL0     H73242  10.646   7.047   9.729 -3.1649 -3.6940 -1.0037
  543MOL0     H73243  10.506   6.985   9.808 -1.3494  0.0883  1.5582
  543MOL0     H73244  10.482   7.226   9.885 -0.9684 -1.2852 -0.9431
  543MOL0     H73245  10.605   7.262   9.762 -0.1889 -0.5997  0.5986
  543MOL0     H73246  10.454   7.185   9.589  1.6859 -2.1374  1.4336
  543MOL0     H73247  10.326   7.144   9.711 -2.8743  0.7119 -4.4197
  543MOL0     H73248  10.312   7.368   9.782  2.3347  1.2783  0.9579
  543MOL0     H73249  10.445   7.420   9.676 -0.2186  1.6904  2.4551
  543MOL0     H73250  10.179   7.294   9.575 -0.7811  0.7010 -0.3392
  543MOL0     H73251  10.195   7.469   9.587 -2.2164 -0.5797 -0.8386
  543MOL0     H73252  10.403   7.443   9.455 -1.1574 -0.3188  3.7186
  543MOL0     H73253  10.321   7.298   9.377  0.2043  0.8098 -2.4549
  543MOL0     H73254  10.186   7.567   9.367 -0.3989  1.5817 -3.1200
  543MOL0     H73255  10.140   7.409   9.308 -0.2697  0.6134 -0.4877
  543MOL0     H73256  10.426   7.680   9.229 -1.3594  0.1076  0.2349
  543MOL0     H73257  10.585   7.696   9.012 -0.4064  1.6220 -0.6746
  543MOL0     H73258  10.569   7.562   8.900  0.6614 -1.0911  1.6812
  543MOL0     H73259  10.463   7.837   8.865 -3.2305 -0.0851 -0.5901
  543MOL0     H73260  10.351   7.714   8.821  0.2197 -1.6393  2.1983
  543MOL0     H73261  10.459   7.780   8.630  2.3965 -0.1834 -1.9956
  543MOL0     H73262  10.507   7.613   8.673 -0.6102  0.1262  0.1518
  543MOL0     H73263  10.721   7.686   8.762 -1.2185 -0.3882  1.5566
  543MOL0     H73264  10.678   7.856   8.745 -1.1680  0.4897 -0.3787
  543MOL0     H73265  10.852   7.849   8.366  3.6505  1.6279  2.5731
  543MOL0     H73266  10.989   8.027   8.246 -0.2327  0.9658  0.7332
  543MOL0     H73267  10.858   8.083   8.133  0.6238  1.6112 -0.0754
  543MOL0     H73268  10.932   8.196   8.253 -0.5264  1.0257 -0.8179
  543MOL0     H73269  10.906   8.520   8.319  1.6730  2.5009  0.9645
  543MOL0     H73270  10.892   8.764   8.262  1.0608 -1.1984  1.9626
  543MOL0     H73271  10.928   8.934   8.141  0.6425  2.2601  1.8475
  543MOL0     H73272  10.833   9.028   8.018 -2.3352  1.0021  1.1681
  543MOL0     H73273  10.896   9.159   8.212  1.4532 -1.6300 -0.3746
  543MOL0     H73274  10.720   9.136   8.196  0.2389  1.4405 -0.5525
  543MOL0     H73275  10.876   8.951   8.388 -0.1470 -0.5984 -0.2756
  543MOL0     H73276  10.704   8.980   8.375  0.2660 -0.1418  0.5472
  543MOL0     H73277  10.801   9.095   8.571  3.4791  0.2471  1.0971
  543MOL0     H73278  10.919   9.177   8.464 -0.0008  2.7498 -3.1063
  543MOL0     H73279  10.635   9.218   8.401  0.1750  1.2032 -0.5344
  543MOL0     H73280  10.760   9.323   8.372  4.2017 -2.7501 -1.7888
  543MOL0     H73281  10.677   9.270   8.669  1.9166 -2.1015 -1.6083
  543MOL0     H73282  10.791   9.389   8.603 -0.0136 -0.4319  3.5405
  543MOL0     H73283  10.490   9.369   8.532 -1.3002  0.4046  1.0093
  543MOL0     H73284  10.600   9.510   8.506  2.0495 -0.7024 -1.4040
  543MOL0     H73285  10.598   9.588   8.709 -0.1533  0.1607  1.9475
  543MOL0     H73286  10.540   9.439   8.792 -0.1716 -1.6484 -0.0274
  543MOL0     H73287  10.580   8.701   7.993  0.8710 -2.1532 -0.4354
  543MOL0     H73288  10.585   8.449   8.042  2.5662 -1.9885 -1.8696
  543MOL0     H73289  10.522   8.189   8.499  1.5637  1.3831  0.4472
  543MOL0     H73290  10.534   7.959   8.603  1.4986 -0.7266  0.9655
  543MOL0     H73291  10.901   7.147   9.836 -0.3701  0.3488 -2.6792
  543MOL0     H73292  11.100   7.097   9.731  0.0586  0.9241  3.4552
  543MOL0     H73293  11.445   6.967   9.665  1.7890  1.7780 -1.7200
  543MOL0     H73294  11.677   6.964   9.586 -2.2693  1.5291 -1.1143
  543MOL0     H73295  11.901   6.599   9.504  0.1234  1.2890  1.2553
  543MOL0     H73296  11.806   6.615   9.356 -0.3336 -0.4958  0.9419
  543MOL0     H73297  12.073   6.736   9.416 -0.2560 -1.8564  1.4979
  543MOL0     H73298  11.958   6.797   9.284 -1.1627 -0.2075  0.4464
  543MOL0     H73299  12.154   6.648   9.212 -0.4514  0.1029  0.0786
  543MOL0     H73300  11.991   6.598   9.167 -2.0136 -2.4168  1.2968
  543MOL0     H73301  11.980   6.439   9.350 -2.3441  3.6267 -1.2589
  543MOL0     H73302  12.127   6.487   9.428 -2.7510 -2.4946  2.1944
  543MOL0     H73303  12.277   6.237   9.115  0.2196 -0.7809  0.1823
  543MOL0     H73304  11.664   6.550   9.511  1.3661  0.2594  3.5176
  543MOL0     H73305  11.434   6.548   9.559 -1.3792 -0.2601  2.1952
  544MOL0     O73306   9.806   8.830   7.088  0.1930 -0.4289  0.3599
  544MOL0     C73307   9.904   8.902   7.055 -0.1894  0.8856 -0.9449
  544MOL0     O73308  10.032   8.868   7.091 -0.4404 -0.1416 -0.4326
  544MOL0     C73309  10.071   8.741   7.135  0.2654  0.4611 -0.0765
  544MOL0     C73310  10.029   8.620   7.076 -1.1653 -0.0992 -0.1655
  544MOL0     C73311  10.064   8.491   7.121  0.7079 -0.1653 -0.4826
  544MOL0     C73312  10.125   8.483   7.251  0.1769  0.4752 -0.1854
  544MOL0     O73313  10.173   8.370   7.326  0.1351 -1.1752  0.2072
  544MOL0     C73314  10.137   8.242   7.273  0.6589  0.2767  0.3244
  544MOL0     C73315  10.226   8.136   7.336  1.0001  0.4255  0.1397
  544MOL0     C73316  10.202   8.004   7.267  0.1655  0.3537 -0.7691
  544MOL0     C73317  10.288   7.892   7.326  0.2618 -0.4807 -0.2554
  544MOL0     C73318  10.348   7.786   7.230 -0.6258  0.4031  0.8600
  544MOL0     C73319  10.245   7.713   7.142 -0.7931 -0.2506 -0.2621
  544MOL0     C73320  10.311   7.623   7.035 -0.8613 -0.8886 -0.4693
  544MOL0     C73321  10.210   7.557   6.958 -0.4117 -0.0149  0.0571
  544MOL0     N73322  10.269   7.464   6.856  0.2166 -0.5201 -0.1138
  544MOL0     C73323  10.340   7.505   6.741 -0.9815  0.4799 -0.6183
  544MOL0     C73324  10.351   7.404   6.665  0.2928  0.7977  0.9281
  544MOL0     C73325  10.410   7.398   6.533 -0.3011  0.2108  0.7982
  544MOL0     C73326  10.541   7.311   6.522 -0.2239 -0.3804 -0.6346
  544MOL0     C73327  10.674   7.390   6.524  0.1525 -0.2494 -0.0148
  544MOL0     C73328  10.796   7.299   6.477  0.5414  0.1378 -0.3900
  544MOL0     O73329  10.793   7.169   6.547 -0.6586 -1.2844 -0.3525
  544MOL0     C73330  10.879   7.074   6.510  0.0138  0.8296 -0.6110
  544MOL0     C73331  10.984   7.084   6.419  0.2681  0.7194  0.6705
  544MOL0     C73332  11.061   6.979   6.381 -0.4870  0.7080 -0.6385
  544MOL0     C73333  11.167   7.003   6.282  0.4805 -0.2722 -1.1493
  544MOL0     C73334  11.037   6.853   6.446 -1.0557 -0.5278  0.5115
  544MOL0     C73335  11.116   6.732   6.424  0.2402 -0.2234  0.0421
  544MOL0     O73336  11.189   6.724   6.306 -0.3163  0.3314 -0.0158
  544MOL0     C73337  11.297   6.651   6.286 -0.5618  0.7901  0.5891
  544MOL0     C73338  11.327   6.632   6.148 -0.5580  0.2127 -0.6532
  544MOL0     C73339  11.442   6.578   6.113 -1.3603  0.5361 -0.3121
  544MOL0     C73340  11.539   6.531   6.208  0.1784  0.1013  0.9556
  544MOL0     O73341  11.658   6.468   6.160 -0.1462 -0.4195  0.5764
  544MOL0     C73342  11.706   6.341   6.235  1.0123 -0.6854 -0.3007
  544MOL0     C73343  11.859   6.368   6.249 -0.4366  0.1795 -0.5076
  544MOL0     C73344  11.942   6.340   6.118 -0.5575 -0.0557 -0.5832
  544MOL0     C73345  12.097   6.355   6.142 -0.1094  0.5551  0.4424
  544MOL0     C73346  12.179   6.348   6.010  0.9209  0.3103  0.2034
  544MOL0     C73347  12.324   6.401   6.028  0.1266  0.5774 -0.6264
  544MOL0     C73348  12.388   6.380   5.899 -0.6208  0.5671  0.6737
  544MOL0     C73349  12.486   6.500   5.861  0.0527  0.5322  0.4898
  544MOL0    Cl73350  12.588   6.436   5.742 -0.3679  0.1374  0.0186
  544MOL0     C73351  11.498   6.525   6.341 -0.6418 -0.0858  0.4018
  544MOL0     C73352  11.381   6.592   6.388 -1.0256  0.6742  0.0694
  544MOL0     O73353  11.120   6.646   6.515 -0.6194  0.0087  0.4376
  544MOL0     C73354  10.932   6.841   6.545  0.2726 -0.2733 -0.0952
  544MOL0     C73355  10.854   6.955   6.577 -0.0311  0.3514  0.2717
  544MOL0     N73356  10.283   7.298   6.724  1.2621  0.2869  0.6104
  544MOL0     N73357  10.230   7.336   6.842 -0.1470 -0.0231  0.7492
  544MOL0     C73358  10.163   8.600   7.313 -0.9122  0.0384  1.0596
  544MOL0     C73359  10.138   8.727   7.263 -0.2839  0.6715  0.2080
  544MOL0     C73360   9.877   9.033   7.002 -0.2190  0.0071 -0.5115
  544MOL0     C73361   9.983   9.119   6.982 -0.2364 -0.1914  0.2689
  544MOL0     C73362   9.962   9.242   6.924 -0.4690  0.9160 -0.1842
  544MOL0     C73363   9.833   9.294   6.910  0.2939 -0.3561  0.0817
  544MOL0     O73364   9.806   9.417   6.853  0.9362 -0.1800  1.1969
  544MOL0     C73365   9.718   9.509   6.917 -0.0292  0.2058 -0.1949
  544MOL0     C73366   9.676   9.620   6.830  0.2848 -0.4668  0.6920
  544MOL0     C73367   9.802   9.703   6.783  0.6817 -0.4708  0.6388
  544MOL0     C73368   9.769   9.829   6.703 -0.6550 -0.1179 -0.2698
  544MOL0     C73369   9.679   9.806   6.588 -0.4588  0.4756  0.3389
  544MOL0     C73370   9.634   9.767   6.482  1.0731  0.4539 -0.3730
  544MOL0     C73371   9.723   9.207   6.924  0.3188 -0.0522  0.4568
  544MOL0     C73372   9.740   9.079   6.975 -0.6982  0.5806 -1.5389
  544MOL0     H73373   9.978   8.626   6.981 -2.9921 -1.1298  0.6800
  544MOL0     H73374  10.021   8.403   7.075  0.3707 -1.4853  2.1210
  544MOL0     H73375  10.035   8.208   7.291  1.1157 -2.8711 -1.9976
  544MOL0     H73376  10.154   8.237   7.165  3.3105  1.4633  0.5971
  544MOL0     H73377  10.325   8.181   7.320 -1.0104  4.4751 -3.1316
  544MOL0     H73378  10.204   8.121   7.442 -0.5937 -1.7575 -0.4434
  544MOL0     H73379  10.095   7.979   7.273  0.2936  0.0155  0.3946
  544MOL0     H73380  10.244   8.021   7.168  0.9352 -0.9071 -0.6865
  544MOL0     H73381  10.374   7.938   7.376  2.7298 -0.4561 -4.1407
  544MOL0     H73382  10.235   7.854   7.414  1.8785 -0.8738  0.6045
  544MOL0     H73383  10.433   7.822   7.171  1.8190  0.3871  4.1091
  544MOL0     H73384  10.391   7.711   7.297  1.3009  0.2590 -0.4702
  544MOL0     H73385  10.162   7.663   7.193  0.9516  0.6668  3.8952
  544MOL0     H73386  10.194   7.792   7.086 -2.9304 -1.4466 -0.1299
  544MOL0     H73387  10.379   7.688   6.979  1.5694 -4.5154 -2.0880
  544MOL0     H73388  10.391   7.565   7.084 -0.2212  1.0386  0.8999
  544MOL0     H73389  10.160   7.643   6.913 -1.4791 -0.0004  1.1878
  544MOL0     H73390  10.147   7.489   7.016  1.4159 -3.0103 -1.2179
  544MOL0     H73391  10.370   7.607   6.723 -0.0464  0.2858 -0.1743
  544MOL0     H73392  10.340   7.353   6.461 -2.4478  1.6487  1.8789
  544MOL0     H73393  10.432   7.500   6.498 -0.4380  0.5895  1.7980
  544MOL0     H73394  10.536   7.244   6.436  1.2815 -0.6498 -0.5393
  544MOL0     H73395  10.532   7.234   6.600  2.3733 -1.1528 -1.0073
  544MOL0     H73396  10.698   7.434   6.621  2.2527  3.0543 -1.8751
  544MOL0     H73397  10.658   7.478   6.462 -6.1008  0.8726  2.3688
  544MOL0     H73398  10.890   7.353   6.493  0.1971  0.8282 -0.6721
  544MOL0     H73399  10.786   7.262   6.374 -0.5899  0.3416 -0.3656
  544MOL0     H73400  11.011   7.185   6.389  3.6840 -0.1340  0.4073
  544MOL0     H73401  11.178   7.100   6.232 -2.2024 -0.9807 -3.3566
  544MOL0     H73402  11.264   6.998   6.332 -0.4738  2.0999  1.1424
  544MOL0     H73403  11.157   6.935   6.197 -4.8426 -2.2439  0.6703
  544MOL0     H73404  11.263   6.669   6.069 -1.4354 -2.2057 -1.1304
  544MOL0     H73405  11.468   6.572   6.008 -1.5157  3.0537 -0.5676
  544MOL0     H73406  11.654   6.329   6.330 -1.6313  2.6526 -1.1168
  544MOL0     H73407  11.680   6.252   6.178 -1.6241 -1.1930  1.5210
  544MOL0     H73408  11.871   6.472   6.281 -3.1798  0.1549  0.9351
  544MOL0     H73409  11.902   6.315   6.335 -0.8654  1.7984  0.7762
  544MOL0     H73410  11.899   6.421   6.059 -5.3437 -1.1742  0.9578
  544MOL0     H73411  11.926   6.246   6.065 -2.6482 -0.2240  0.2496
  544MOL0     H73412  12.103   6.461   6.170  0.3122  0.3722  1.0500
  544MOL0     H73413  12.130   6.290   6.223 -1.3674  0.2545  0.7463
  544MOL0     H73414  12.126   6.411   5.937  2.2352  0.1131 -0.9737
  544MOL0     H73415  12.168   6.243   5.981 -2.2489 -0.0060  2.0736
  544MOL0     H73416  12.318   6.507   6.052  1.4374  0.3403  0.9426
  544MOL0     H73417  12.368   6.355   6.117 -1.0176 -2.7871 -1.6215
  544MOL0     H73418  12.313   6.374   5.819  1.2865 -1.3575 -1.0866
  544MOL0     H73419  12.432   6.281   5.885 -0.7017  0.6143  0.0150
  544MOL0     H73420  12.540   6.532   5.951 -1.0353  0.0418  1.3278
  544MOL0     H73421  12.414   6.572   5.821  0.3745  1.8300  2.1010
  544MOL0     H73422  11.559   6.492   6.424 -1.1013  0.7234  1.0739
  544MOL0     H73423  11.355   6.596   6.493 -0.4425  1.6818  0.1862
  544MOL0     H73424  10.907   6.743   6.585 -0.8184 -1.4116 -3.1925
  544MOL0     H73425  10.776   6.946   6.651  0.5308  1.4505  1.0211
  544MOL0     H73426  10.214   8.582   7.407  1.7766 -0.9034 -0.4753
  544MOL0     H73427  10.179   8.814   7.315  0.8410  1.8210 -2.4044
  544MOL0     H73428  10.085   9.080   6.986  0.5677 -0.5365 -7.4609
  544MOL0     H73429  10.046   9.305   6.894 -0.4777  1.2762  0.5206
  544MOL0     H73430   9.623   9.456   6.929 -0.3055  0.5984 -0.6695
  544MOL0     H73431   9.762   9.525   7.016 -0.7718 -1.7363  0.5118
  544MOL0     H73432   9.616   9.691   6.888  1.2805  3.5626 -2.7995
  544MOL0     H73433   9.620   9.577   6.746 -0.6743  1.8011  0.1042
  544MOL0     H73434   9.874   9.644   6.727  1.0986  1.9060 -1.5502
  544MOL0     H73435   9.847   9.746   6.873 -0.7545 -1.9441  2.1097
  544MOL0     H73436   9.861   9.879   6.671  0.1971  0.6837  2.9986
  544MOL0     H73437   9.713   9.903   6.761 -4.2587 -0.7444 -2.6234
  544MOL0     H73438   9.605   9.725   6.388  1.4329  1.7204 -1.0740
  544MOL0     H73439   9.618   9.230   6.907  0.4497 -1.1813 -2.3140
  544MOL0     H73440   9.665   9.006   7.003  2.4821 -2.6227 -0.5848
  545MOL0     O73441   5.828   5.999   7.373  0.3344 -0.5691 -0.5771
  545MOL0     C73442   5.844   5.999   7.498  0.2306 -0.1692  0.2317
  545MOL0     O73443   5.874   6.105   7.579  0.0845  0.7284  0.6877
  545MOL0     C73444   5.863   6.232   7.528 -0.7753 -0.5912  1.0035
  545MOL0     C73445   5.911   6.284   7.404 -0.5151  0.5014 -0.0605
  545MOL0     C73446   5.889   6.414   7.362  0.8113 -0.3800 -0.2524
  545MOL0     C73447   5.842   6.508   7.454 -0.6854  1.1020 -0.6078
  545MOL0     O73448   5.824   6.642   7.423 -0.4402 -0.3354  0.4983
  545MOL0     C73449   5.908   6.703   7.319  0.4445  0.0221 -1.2428
  545MOL0     C73450   5.904   6.866   7.335 -0.0232 -0.2595  0.5153
  545MOL0     C73451   6.034   6.914   7.268  0.4205  0.3746 -0.0217
  545MOL0     C73452   6.033   7.060   7.251 -1.0446  1.7753  0.3037
  545MOL0     C73453   6.166   7.112   7.188  0.2236 -0.1187 -0.2855
  545MOL0     C73454   6.157   7.263   7.179  0.5433  0.0581  0.1828
  545MOL0     C73455   6.264   7.329   7.090  0.2061  0.5721  0.7179
  545MOL0     C73456   6.406   7.307   7.144  0.4702 -0.5857 -0.3063
  545MOL0     N73457   6.465   7.183   7.094 -0.3819  0.9952 -0.0674
  545MOL0     C73458   6.505   7.090   7.183  0.6340  0.5926  1.0928
  545MOL0     C73459   6.565   6.998   7.104 -0.5128  0.0458 -0.3786
  545MOL0     C73460   6.631   6.877   7.145  0.2343  0.9804 -0.1876
  545MOL0     C73461   6.777   6.875   7.107  0.4901  0.4328  0.4881
  545MOL0     C73462   6.813   6.844   6.949  1.1765 -0.8162 -1.1792
  545MOL0     C73463   6.771   6.700   6.910 -0.2726 -0.8314  0.7424
  545MOL0     O73464   6.823   6.599   6.993 -0.2572 -0.1802  0.0374
  545MOL0     C73465   6.783   6.471   6.967 -0.2572 -0.3426  0.0611
  545MOL0     C73466   6.824   6.398   6.852  0.4518 -0.3600  0.8261
  545MOL0     C73467   6.803   6.255   6.838 -1.1157  0.0837  0.1609
  545MOL0     C73468   6.855   6.200   6.703  0.4678  0.7869 -0.0327
  545MOL0     C73469   6.718   6.188   6.930  0.4509 -0.5182  0.1354
  545MOL0     C73470   6.685   6.044   6.922 -0.2731 -0.1251 -0.0421
  545MOL0     O73471   6.663   5.981   7.035  0.5548 -0.4868  0.7299
  545MOL0     C73472   6.602   5.861   7.033  0.7952  0.3530 -0.5625
  545MOL0     C73473   6.660   5.751   6.967 -0.3928  0.1106  0.1827
  545MOL0     C73474   6.620   5.626   6.989  0.1724  0.2167  0.3315
  545MOL0     C73475   6.526   5.588   7.085 -0.8485 -0.5198  0.1055
  545MOL0     O73476   6.522   5.452   7.112 -0.3616  0.2499 -0.2523
  545MOL0     C73477   6.421   5.418   7.217 -0.1651 -0.3909  0.0677
  545MOL0     C73478   6.281   5.413   7.151  0.6868 -0.2754 -0.5162
  545MOL0     C73479   6.288   5.319   7.030  0.1409  0.3042 -0.0573
  545MOL0     C73480   6.152   5.293   6.955 -0.0213 -0.4578 -0.0188
  545MOL0     C73481   6.145   5.242   6.811  0.3330 -0.5545  0.5274
  545MOL0     C73482   6.199   5.102   6.795 -0.1815  0.6384  0.1580
  545MOL0     C73483   6.145   5.030   6.665  0.0707  0.7022  0.2000
  545MOL0     C73484   6.207   4.889   6.647 -0.0144 -0.4687 -0.9655
  545MOL0    Cl73485   6.088   4.799   6.745 -0.2076 -0.1404  0.0123
  545MOL0     C73486   6.472   5.694   7.160 -0.5064 -0.7824  0.2452
  545MOL0     C73487   6.509   5.829   7.131  0.2111  0.2123 -0.3179
  545MOL0     O73488   6.684   5.994   6.812  0.2932  0.2923  0.1357
  545MOL0     C73489   6.666   6.266   7.043 -0.1195  0.3199  0.0836
  545MOL0     C73490   6.694   6.403   7.052 -0.0033  0.7853 -0.5779
  545MOL0     N73491   6.554   7.026   6.975  0.2923 -0.1808 -0.5934
  545MOL0     N73492   6.486   7.140   6.965  0.7287 -0.3039 -0.5588
  545MOL0     C73493   5.779   6.457   7.564 -0.5559  0.2621 -0.1992
  545MOL0     C73494   5.802   6.326   7.610  0.3688 -0.0320  0.0832
  545MOL0     C73495   5.837   5.875   7.581  0.3123 -0.0779  0.4106
  545MOL0     C73496   5.789   5.762   7.514  0.0104 -0.2590 -0.0416
  545MOL0     C73497   5.802   5.639   7.578  0.2963 -0.6561  0.3967
  545MOL0     C73498   5.849   5.633   7.706  0.0149  1.1050 -0.5671
  545MOL0     O73499   5.869   5.503   7.742 -0.2433 -0.6045  0.4954
  545MOL0     C73500   5.913   5.481   7.882  0.6712 -0.1445 -0.4104
  545MOL0     C73501   5.951   5.336   7.910  0.1456  0.6614  0.4495
  545MOL0     C73502   6.039   5.315   8.034 -0.7890  0.7478  0.1888
  545MOL0     C73503   6.179   5.320   8.004  0.2419  0.8471  0.0795
  545MOL0     C73504   6.260   5.272   8.114  0.5074 -0.2523 -0.6888
  545MOL0     C73505   6.330   5.238   8.214  0.7112 -0.2308  0.5421
  545MOL0     C73506   5.888   5.749   7.772 -0.0681  0.6616 -0.9741
  545MOL0     C73507   5.887   5.871   7.707 -0.3445 -0.9452  0.8098
  545MOL0     H73508   5.962   6.218   7.334  1.9864  4.6793 -2.6267
  545MOL0     H73509   5.920   6.450   7.264 -1.1981 -1.6649 -1.4442
  545MOL0     H73510   6.009   6.663   7.330 -1.5491 -5.4605  0.7786
  545MOL0     H73511   5.851   6.678   7.229 -0.8120 -0.6180 -0.3010
  545MOL0     H73512   5.810   6.901   7.292 -1.4382 -1.9804  2.0336
  545MOL0     H73513   5.916   6.885   7.442  0.7760 -0.2160  0.4244
  545MOL0     H73514   6.118   6.884   7.331 -0.4018  2.6747  2.3575
  545MOL0     H73515   6.050   6.862   7.173 -1.0770  1.4543 -0.9127
  545MOL0     H73516   5.953   7.094   7.185 -1.2144  0.7785 -0.0185
  545MOL0     H73517   6.032   7.103   7.352  0.5734  2.6906 -0.0291
  545MOL0     H73518   6.260   7.091   7.240  1.5117  1.9903 -1.5897
  545MOL0     H73519   6.196   7.079   7.089  1.6436 -0.3637  0.2023
  545MOL0     H73520   6.059   7.282   7.136  2.4797 -0.5282 -5.3932
  545MOL0     H73521   6.161   7.304   7.281  0.8986 -2.5327  1.2821
  545MOL0     H73522   6.270   7.289   6.988  0.6693 -1.1098  1.3783
  545MOL0     H73523   6.234   7.434   7.089 -2.5574 -0.1422 -1.4149
  545MOL0     H73524   6.386   7.300   7.251  1.2321  1.3249 -0.0098
  545MOL0     H73525   6.469   7.390   7.111  0.0253 -0.8418 -1.8662
  545MOL0     H73526   6.502   7.095   7.292 -0.7360  4.4199  1.0354
  545MOL0     H73527   6.621   6.860   7.252  0.0392 -2.5612 -0.6394
  545MOL0     H73528   6.585   6.791   7.094 -0.5027  1.3453 -0.1498
  545MOL0     H73529   6.824   6.801   7.172  0.5681 -2.6296 -2.7930
  545MOL0     H73530   6.825   6.972   7.129  0.7273  1.0158 -2.2876
  545MOL0     H73531   6.923   6.847   6.943  1.1792 -1.0456 -1.2808
  545MOL0     H73532   6.781   6.925   6.884  2.6518  1.1496  0.4270
  545MOL0     H73533   6.814   6.691   6.810 -1.3608 -1.0836  0.2758
  545MOL0     H73534   6.668   6.672   6.884 -0.1810  0.3146 -1.0291
  545MOL0     H73535   6.893   6.453   6.788 -1.6142  0.0053 -1.2382
  545MOL0     H73536   6.770   6.211   6.635  0.1844  1.5600  0.4383
  545MOL0     H73537   6.933   6.265   6.660  0.5741  1.8328  1.6684
  545MOL0     H73538   6.881   6.094   6.714 -1.3367  0.2834 -0.3320
  545MOL0     H73539   6.745   5.766   6.901 -0.3569 -1.7311 -0.2261
  545MOL0     H73540   6.670   5.550   6.929  2.7642  0.3922  2.1418
  545MOL0     H73541   6.457   5.321   7.253 -1.1337 -0.6533  0.3739
  545MOL0     H73542   6.428   5.486   7.303  3.5637 -0.9043  0.3112
  545MOL0     H73543   6.215   5.369   7.226  1.4398 -1.4922 -0.5421
  545MOL0     H73544   6.237   5.511   7.129 -0.1511  0.1630  2.6570
  545MOL0     H73545   6.333   5.221   7.052 -1.2221  0.0520  1.7757
  545MOL0     H73546   6.348   5.365   6.951  3.1074 -1.7465  0.8139
  545MOL0     H73547   6.089   5.226   7.013 -0.8833 -0.4951 -0.9860
  545MOL0     H73548   6.113   5.395   6.950  1.2941  0.2509  2.4890
  545MOL0     H73549   6.206   5.309   6.750 -2.5792  1.7927 -0.0433
  545MOL0     H73550   6.046   5.254   6.765  0.3196  3.8071  1.2470
  545MOL0     H73551   6.308   5.101   6.804  0.0740 -2.4275 -1.7079
  545MOL0     H73552   6.149   5.040   6.870  2.1330 -1.2252  0.2775
  545MOL0     H73553   6.175   5.087   6.577 -2.8417 -0.3857 -1.6407
  545MOL0     H73554   6.037   5.013   6.674  0.3988 -3.8687 -1.9151
  545MOL0     H73555   6.302   4.861   6.693  0.2597 -1.6650 -2.1832
  545MOL0     H73556   6.211   4.859   6.542 -2.1595  0.7606 -1.4571
  545MOL0     H73557   6.418   5.673   7.252  0.0680 -0.8466  0.5678
  545MOL0     H73558   6.489   5.911   7.200  3.9472 -0.4403  1.7724
  545MOL0     H73559   6.612   6.214   7.122  0.8393 -0.9021 -0.0459
  545MOL0     H73560   6.648   6.459   7.133  0.9936  2.9074 -1.4171
  545MOL0     H73561   5.714   6.529   7.615 -0.6201  2.1878 -2.7978
  545MOL0     H73562   5.770   6.290   7.707  1.1279  2.1263  1.2033
  545MOL0     H73563   5.762   5.766   7.409 -0.4075 -3.6350 -0.1776
  545MOL0     H73564   5.786   5.561   7.505  1.4052 -1.7071  1.2419
  545MOL0     H73565   6.008   5.534   7.888  1.8832 -2.1179 -1.2981
  545MOL0     H73566   5.843   5.527   7.953 -1.3799 -0.6569 -2.0036
  545MOL0     H73567   6.004   5.293   7.824  2.3642  1.9535  1.0836
  545MOL0     H73568   5.862   5.275   7.926  1.7141 -2.7943 -2.3875
  545MOL0     H73569   6.007   5.216   8.068 -2.2064  0.8910 -0.6412
  545MOL0     H73570   6.019   5.388   8.113  2.3820 -1.1734  3.0193
  545MOL0     H73571   6.210   5.422   7.980  0.4559  0.7115 -0.2279
  545MOL0     H73572   6.207   5.256   7.920 -2.8754 -0.3670 -0.1736
  545MOL0     H73573   6.384   5.204   8.300  0.6457 -1.3875  0.1490
  545MOL0     H73574   5.928   5.740   7.872 -1.6799  2.7243 -0.0858
  545MOL0     H73575   5.935   5.956   7.754  1.9933 -2.0468  0.5770
  546MOL0     O73576   6.620   9.060   6.285 -0.0453  0.5015 -0.7021
  546MOL0     C73577   6.690   8.968   6.263 -0.2644 -0.1311 -0.7099
  546MOL0     O73578   6.706   8.850   6.342 -0.2179 -0.1650 -0.2224
  546MOL0     C73579   6.623   8.836   6.446 -0.7501 -0.2946  1.0750
  546MOL0     C73580   6.607   8.929   6.544  0.2345 -1.1700  0.6749
  546MOL0     C73581   6.509   8.915   6.639  1.0160 -0.0442  0.8491
  546MOL0     C73582   6.433   8.794   6.640  0.4985 -0.7354 -0.2068
  546MOL0     O73583   6.341   8.798   6.753 -0.4812 -0.1993 -0.4230
  546MOL0     C73584   6.214   8.744   6.735 -0.8836  0.0169 -0.0541
  546MOL0     C73585   6.217   8.603   6.784  0.1650 -0.0821  0.5119
  546MOL0     C73586   6.075   8.529   6.797 -0.4582  0.1823  0.5295
  546MOL0     C73587   6.020   8.550   6.933  0.1263 -0.2041  0.1197
  546MOL0     C73588   5.913   8.440   6.975 -0.7081  0.5732 -0.2333
  546MOL0     C73589   5.830   8.457   7.101  0.3551  1.4287  0.9379
  546MOL0     C73590   5.743   8.584   7.081  0.8494  0.1065 -0.3852
  546MOL0     C73591   5.649   8.596   7.200  0.4408  0.0725  0.7511
  546MOL0     N73592   5.529   8.672   7.165  0.5249 -0.0442 -0.0775
  546MOL0     C73593   5.502   8.809   7.166 -0.7443 -0.8841 -0.2679
  546MOL0     C73594   5.370   8.829   7.192  0.2650  0.0404 -0.7068
  546MOL0     C73595   5.300   8.953   7.195 -0.5902 -1.0185  0.7822
  546MOL0     C73596   5.287   9.007   7.053 -0.1158 -0.1290 -0.7941
  546MOL0     C73597   5.165   9.090   7.030 -0.9035 -0.5785 -0.6944
  546MOL0     C73598   5.180   9.154   6.893  0.2029  1.2557 -0.5041
  546MOL0     O73599   5.224   9.061   6.797 -0.9069  0.0803  0.3494
  546MOL0     C73600   5.278   9.127   6.683 -0.0544  0.7975 -0.4405
  546MOL0     C73601   5.259   9.255   6.640 -0.0275 -0.3052  0.0699
  546MOL0     C73602   5.314   9.303   6.517  0.6322  0.0997  1.3147
  546MOL0     C73603   5.307   9.453   6.481 -0.6345  0.5524  0.6900
  546MOL0     C73604   5.384   9.211   6.434  0.5741  0.7796 -0.6208
  546MOL0     C73605   5.407   9.242   6.296 -1.2614 -0.4804  0.6464
  546MOL0     O73606   5.539   9.200   6.250  0.0977 -0.3800  0.3870
  546MOL0     C73607   5.575   9.232   6.116 -0.2201 -1.0940 -0.7952
  546MOL0     C73608   5.699   9.288   6.090 -0.5419  0.2841  0.5544
  546MOL0     C73609   5.748   9.302   5.962  0.2307  0.2804  0.2090
  546MOL0     C73610   5.680   9.263   5.851 -0.7027 -0.4418 -0.2953
  546MOL0     O73611   5.725   9.278   5.726  0.1067  0.4336  0.4043
  546MOL0     C73612   5.841   9.184   5.717  0.1461 -0.9924 -0.8273
  546MOL0     C73613   5.846   9.125   5.574  0.4995  1.1879  0.5923
  546MOL0     C73614   5.986   9.059   5.558  0.4876  1.1032  0.6707
  546MOL0     C73615   6.001   8.936   5.646  0.2571 -0.1662 -0.1717
  546MOL0     C73616   6.152   8.893   5.627 -0.3918 -0.6218  0.6116
  546MOL0     C73617   6.185   8.844   5.481 -0.5735  0.0340 -0.1261
  546MOL0     C73618   6.306   8.759   5.452 -0.7342  1.2621 -0.2079
  546MOL0     C73619   6.437   8.835   5.482  0.2359 -0.8633  0.1870
  546MOL0    Cl73620   6.601   8.749   5.481  0.0767  0.0892  0.2402
  546MOL0     C73621   5.551   9.220   5.878  0.5221 -0.3364 -0.1461
  546MOL0     C73622   5.497   9.194   6.012  0.6137 -0.3607 -0.2795
  546MOL0     O73623   5.315   9.280   6.224 -0.5100  0.0547 -0.0842
  546MOL0     C73624   5.421   9.087   6.482  0.8573 -0.4215 -0.3776
  546MOL0     C73625   5.364   9.055   6.608  0.3595 -0.4617  0.3070
  546MOL0     N73626   5.314   8.709   7.213 -0.2457 -0.4441 -0.4161
  546MOL0     N73627   5.405   8.618   7.194 -0.6003 -0.1517 -0.0908
  546MOL0     C73628   6.452   8.696   6.540  0.4358 -0.3394 -0.2113
  546MOL0     C73629   6.549   8.719   6.442 -0.4508 -0.4372 -0.0511
  546MOL0     C73630   6.765   8.972   6.125 -0.3058 -0.4172  0.0593
  546MOL0     C73631   6.826   8.849   6.091  0.1813 -0.6906  1.0701
  546MOL0     C73632   6.886   8.837   5.966  0.0884 -0.1841 -0.6375
  546MOL0     C73633   6.892   8.945   5.878  0.6603  0.1313  0.7230
  546MOL0     O73634   6.957   8.947   5.759  0.4932  0.4844  0.8508
  546MOL0     C73635   6.897   8.877   5.650  0.3274 -0.6422  0.1502
  546MOL0     C73636   6.967   8.898   5.515  0.0884 -0.0269  0.1087
  546MOL0     C73637   7.124   8.864   5.520 -0.4796  0.0001 -0.0641
  546MOL0     C73638   7.196   8.897   5.385 -0.3690 -0.0465  0.5983
  546MOL0     C73639   7.328   8.834   5.386 -1.4960  0.0278  0.4881
  546MOL0     C73640   7.444   8.799   5.374  0.2226  0.9149 -0.6132
  546MOL0     C73641   6.836   9.071   5.907 -0.2780  0.0295 -0.3247
  546MOL0     C73642   6.774   9.083   6.034  0.4294 -0.1482  0.1009
  546MOL0     H73643   6.645   9.030   6.534  0.1326 -1.2294 -0.4380
  546MOL0     H73644   6.471   8.996   6.700  1.3255  0.6399  0.1441
  546MOL0     H73645   6.137   8.797   6.792  0.1304  1.8419 -0.3241
  546MOL0     H73646   6.180   8.735   6.631  2.3781  0.5615 -1.2642
  546MOL0     H73647   6.290   8.551   6.720 -0.6824 -0.0178 -0.5457
  546MOL0     H73648   6.259   8.595   6.885 -1.9261 -2.4725  1.3009
  546MOL0     H73649   6.012   8.547   6.709  2.6443 -2.4371 -2.5111
  546MOL0     H73650   6.096   8.422   6.784  2.2651  0.7284 -0.3265
  546MOL0     H73651   6.097   8.540   7.011  1.6438 -1.0788 -1.4102
  546MOL0     H73652   5.986   8.654   6.928 -0.1254 -0.2415  0.8792
  546MOL0     H73653   5.838   8.435   6.895 -1.2137 -0.1160  0.2756
  546MOL0     H73654   5.959   8.342   6.983  1.2699  1.6034  3.3186
  546MOL0     H73655   5.766   8.369   7.110  2.7132 -0.4556  0.1054
  546MOL0     H73656   5.896   8.467   7.188  1.2023 -2.5080  0.9194
  546MOL0     H73657   5.806   8.673   7.083  2.9396 -1.3070 -0.8171
  546MOL0     H73658   5.694   8.570   6.984 -0.1352  1.3672 -0.1135
  546MOL0     H73659   5.708   8.642   7.280  1.3406 -0.3679  0.3476
  546MOL0     H73660   5.620   8.493   7.222  0.3867 -0.6951 -2.3545
  546MOL0     H73661   5.584   8.880   7.153 -0.0782 -2.0207 -2.9599
  546MOL0     H73662   5.205   8.929   7.244 -0.5113 -4.1806 -0.3753
  546MOL0     H73663   5.361   9.027   7.248  1.3025  0.4462 -3.0525
  546MOL0     H73664   5.296   8.934   6.972 -0.8449 -0.6610 -0.4036
  546MOL0     H73665   5.377   9.069   7.044 -0.6365  0.6798 -0.5156
  546MOL0     H73666   5.152   9.169   7.105  0.2675 -1.2966  0.3077
  546MOL0     H73667   5.081   9.023   7.050  0.1469 -1.3344  1.4039
  546MOL0     H73668   5.249   9.239   6.900  0.2049  1.3674 -1.6534
  546MOL0     H73669   5.087   9.194   6.852 -1.1427  0.5276  1.6644
  546MOL0     H73670   5.198   9.319   6.703 -0.6643  0.9539 -1.7479
  546MOL0     H73671   5.400   9.497   6.517 -0.7028  2.1948 -1.0131
  546MOL0     H73672   5.313   9.477   6.375 -1.9557  2.2211  0.9649
  546MOL0     H73673   5.221   9.508   6.519 -0.3237  0.9560  0.8170
  546MOL0     H73674   5.753   9.315   6.180 -0.9121  0.4117  0.7397
  546MOL0     H73675   5.846   9.346   5.951  0.7026 -1.0880 -1.5334
  546MOL0     H73676   5.936   9.234   5.735 -0.0427 -0.8281 -0.2817
  546MOL0     H73677   5.825   9.095   5.779 -0.8736 -1.0960 -1.2162
  546MOL0     H73678   5.765   9.055   5.550  1.8279 -0.0397 -0.4452
  546MOL0     H73679   5.844   9.200   5.494  0.9650  2.3882  1.6690
  546MOL0     H73680   6.067   9.128   5.584  3.6727  0.1663 -5.0538
  546MOL0     H73681   6.000   9.028   5.454 -1.8994 -1.1287  0.9143
  546MOL0     H73682   5.978   8.961   5.750 -0.6798  1.9469 -0.8504
  546MOL0     H73683   5.941   8.856   5.603 -0.7367 -0.5676  1.8302
  546MOL0     H73684   6.173   8.813   5.697 -0.9264 -0.0205  1.4784
  546MOL0     H73685   6.227   8.967   5.658 -2.1166  1.3751  0.2858
  546MOL0     H73686   6.105   8.780   5.444 -0.0206 -1.5170  1.2332
  546MOL0     H73687   6.187   8.929   5.413  0.6672  0.3305  0.2629
  546MOL0     H73688   6.306   8.720   5.350  1.1461 -0.0862  0.2591
  546MOL0     H73689   6.305   8.675   5.521  3.0160  0.2172 -1.1754
  546MOL0     H73690   6.432   8.874   5.584  0.2610  3.4105 -1.2350
  546MOL0     H73691   6.441   8.923   5.417  0.1451 -0.2960  0.9416
  546MOL0     H73692   5.494   9.181   5.794 -1.9478 -2.6256  2.3622
  546MOL0     H73693   5.402   9.143   6.030 -0.4457  0.0696 -3.8454
  546MOL0     H73694   5.483   9.021   6.423  0.3248 -0.4660 -0.9045
  546MOL0     H73695   5.386   8.958   6.652  1.0109 -1.3969 -1.9419
  546MOL0     H73696   6.400   8.601   6.531  2.2052 -1.6892  2.2655
  546MOL0     H73697   6.562   8.639   6.369 -1.5520 -2.0299  1.4217
  546MOL0     H73698   6.840   8.772   6.166  1.0135 -3.1301 -1.4450
  546MOL0     H73699   6.938   8.751   5.927  0.7105  0.3476 -0.9977
  546MOL0     H73700   6.894   8.771   5.678 -1.2671  0.2026  3.7563
  546MOL0     H73701   6.793   8.909   5.642  0.3508 -0.6048 -0.0086
  546MOL0     H73702   6.949   8.998   5.475 -3.4563 -0.2810  0.8259
  546MOL0     H73703   6.911   8.831   5.449  0.9234  1.6804 -2.5054
  546MOL0     H73704   7.137   8.757   5.540 -0.9562  0.2765  1.9579
  546MOL0     H73705   7.177   8.912   5.603  0.1182 -2.0328  0.7819
  546MOL0     H73706   7.217   9.003   5.370 -1.7554  0.2557  0.6534
  546MOL0     H73707   7.139   8.846   5.307  2.0357 -3.4943  0.8814
  546MOL0     H73708   7.540   8.757   5.352 -1.0456 -4.1914  1.9918
  546MOL0     H73709   6.831   9.163   5.849 -2.8542 -0.1862 -0.5648
  546MOL0     H73710   6.725   9.173   6.068  1.5805 -0.1371  1.8263
  547MOL0     O73711   0.365   8.117   4.237 -0.1925  0.4682  0.1610
  547MOL0     C73712   0.461   8.102   4.164 -0.6663 -0.1417  1.0213
  547MOL0     O73713   0.591   8.102   4.204 -0.2934  0.0731  0.7651
  547MOL0     C73714   0.622   8.130   4.334  0.2962 -0.4219  0.6543
  547MOL0     C73715   0.697   8.250   4.369  0.1478  0.4584  0.1137
  547MOL0     C73716   0.735   8.276   4.506 -0.4589 -0.6603  0.2306
  547MOL0     C73717   0.686   8.193   4.610  0.1968  1.1884 -0.8035
  547MOL0     O73718   0.714   8.217   4.747 -0.0728  0.3722 -0.5898
  547MOL0     C73719   0.789   8.112   4.812  0.1367 -0.5374  1.4428
  547MOL0     C73720   0.886   8.186   4.901  0.2237 -0.2522 -0.3771
  547MOL0     C73721   0.819   8.246   5.034 -0.2022  0.4129  0.4321
  547MOL0     C73722   0.898   8.229   5.169  0.2737  0.2750 -0.5522
  547MOL0     C73723   0.813   8.277   5.288  0.0352  0.5534  0.7803
  547MOL0     C73724   0.886   8.245   5.412  0.1701  0.8701  0.3634
  547MOL0     C73725   0.872   8.095   5.450  0.5360 -1.0632  0.4152
  547MOL0     C73726   0.922   8.080   5.594 -0.4142 -0.1046 -0.1961
  547MOL0     N73727   0.882   7.957   5.660 -0.6085 -0.0402  0.2460
  547MOL0     C73728   0.939   7.829   5.637 -0.1064 -0.4967  0.1374
  547MOL0     C73729   0.838   7.738   5.674 -0.9677 -0.2299 -0.9161
  547MOL0     C73730   0.834   7.583   5.670 -0.5288 -0.2818 -0.4484
  547MOL0     C73731   0.971   7.523   5.683  0.1732 -0.0043 -0.8898
  547MOL0     C73732   0.977   7.367   5.680 -0.3876 -0.5263 -0.7428
  547MOL0     C73733   1.110   7.289   5.666 -0.1667  0.8303  0.3177
  547MOL0     O73734   1.190   7.305   5.794  0.5039  0.2808  0.4299
  547MOL0     C73735   1.319   7.247   5.782  0.6039 -0.3806  0.5377
  547MOL0     C73736   1.390   7.192   5.673  0.0103  0.7770  0.2384
  547MOL0     C73737   1.518   7.141   5.680  0.2186  0.3071  0.4974
  547MOL0     C73738   1.590   7.078   5.562  0.4109 -0.2161  0.3975
  547MOL0     C73739   1.577   7.138   5.810  0.0062  0.3862 -0.4847
  547MOL0     C73740   1.715   7.083   5.823 -0.1339  0.5938 -0.8136
  547MOL0     O73741   1.732   7.003   5.932  0.0644 -0.4502  0.5719
  547MOL0     C73742   1.855   6.992   5.986  0.2479 -0.2570  0.3361
  547MOL0     C73743   1.866   7.046   6.117 -0.1998  0.3714  0.5178
  547MOL0     C73744   1.982   7.008   6.191 -0.1975 -0.0148 -0.5401
  547MOL0     C73745   2.094   6.930   6.140  0.2893  0.6150  0.2979
  547MOL0     O73746   2.204   6.890   6.205  0.5127  0.2183 -0.3980
  547MOL0     C73747   2.205   6.917   6.348  0.7788 -0.0682 -0.4108
  547MOL0     C73748   2.320   6.835   6.411 -0.8458  0.2087  0.2964
  547MOL0     C73749   2.463   6.837   6.346 -0.0673  0.6245 -1.5628
  547MOL0     C73750   2.534   6.976   6.360  0.1320  1.3844  0.3112
  547MOL0     C73751   2.468   7.114   6.391 -0.4650  0.6566  0.3000
  547MOL0     C73752   2.584   7.216   6.410 -1.0544 -0.6543 -0.3558
  547MOL0     C73753   2.536   7.366   6.431  0.1559 -1.2248 -0.5299
  547MOL0     C73754   2.647   7.456   6.483 -0.0145 -0.3940 -0.9069
  547MOL0    Cl73755   2.685   7.410   6.658  0.1346 -0.2605  0.3900
  547MOL0     C73756   2.084   6.884   6.008  0.8820  0.4850  0.4848
  547MOL0     C73757   1.959   6.910   5.932  0.0417  0.3653  0.0200
  547MOL0     O73758   1.801   7.133   5.753  0.0980  0.9049  0.3778
  547MOL0     C73759   1.514   7.183   5.925  0.1536  0.0452 -0.2304
  547MOL0     C73760   1.387   7.238   5.906 -0.2586  0.5494  0.9791
  547MOL0     N73761   0.739   7.820   5.727 -0.3295  0.2867  0.3000
  547MOL0     N73762   0.760   7.943   5.719  0.1101 -0.8175  0.5232
  547MOL0     C73763   0.601   8.089   4.574  0.3387  0.0303 -0.4827
  547MOL0     C73764   0.580   8.050   4.441 -0.9395 -0.2802 -0.5246
  547MOL0     C73765   0.438   8.081   4.022 -0.0912  0.4227  0.8370
  547MOL0     C73766   0.314   8.124   3.963  0.1395 -0.3515  0.2466
  547MOL0     C73767   0.294   8.101   3.827 -0.3924  0.8057  0.5853
  547MOL0     C73768   0.392   8.046   3.747 -0.4455  0.6819 -0.1302
  547MOL0     O73769   0.358   8.017   3.615 -0.7015 -0.2697 -0.2712
  547MOL0     C73770   0.392   7.892   3.557  0.1651  1.0685 -0.0080
  547MOL0     C73771   0.294   7.839   3.450 -0.2159  0.8684 -0.2132
  547MOL0     C73772   0.315   7.906   3.308 -0.0461  0.3770 -0.5548
  547MOL0     C73773   0.190   7.888   3.222  0.2981  0.2596 -1.1057
  547MOL0     C73774   0.082   7.980   3.264 -0.3520  0.4080  0.5783
  547MOL0     C73775   0.001   8.058   3.297 -0.5815  0.5538 -0.4848
  547MOL0     C73776   0.508   8.009   3.804  0.5028 -0.3239 -0.4645
  547MOL0     C73777   0.534   8.024   3.938 -1.2005  0.2180 -0.0235
  547MOL0     H73778   0.717   8.326   4.294 -1.6879  1.8295  0.9145
  547MOL0     H73779   0.796   8.361   4.535  1.1386 -1.9423  0.7649
  547MOL0     H73780   0.738   8.035   4.871 -2.0277 -0.8498 -0.6517
  547MOL0     H73781   0.848   8.064   4.733  2.0558  3.0501  0.4709
  547MOL0     H73782   0.963   8.116   4.934  1.0250  0.4814 -0.6606
  547MOL0     H73783   0.939   8.265   4.848  0.6594  0.8047  1.5156
  547MOL0     H73784   0.787   8.351   5.026  2.1768  1.2136  0.7185
  547MOL0     H73785   0.728   8.186   5.044 -0.2911 -0.8287 -4.8350
  547MOL0     H73786   0.931   8.125   5.175 -0.5742  0.0279  0.0999
  547MOL0     H73787   0.986   8.293   5.162  1.5822 -1.5537 -1.5412
  547MOL0     H73788   0.798   8.385   5.290  5.5638  1.5756  1.9106
  547MOL0     H73789   0.715   8.228   5.288 -0.0283  0.6241  2.2454
  547MOL0     H73790   0.993   8.267   5.407  0.1287  1.1435  0.6729
  547MOL0     H73791   0.833   8.304   5.487  2.6223 -0.3294  3.2279
  547MOL0     H73792   0.769   8.063   5.434  0.7669 -0.5553 -2.6296
  547MOL0     H73793   0.941   8.039   5.386  0.3535  0.8011 -1.5286
  547MOL0     H73794   0.872   8.155   5.656  1.0463  0.5405  0.2471
  547MOL0     H73795   1.030   8.098   5.602 -0.5330  0.1904  0.8227
  547MOL0     H73796   1.032   7.809   5.585 -1.1027 -2.4013 -1.0348
  547MOL0     H73797   0.777   7.551   5.757  1.1010  1.1902  1.2495
  547MOL0     H73798   0.792   7.547   5.575 -0.2713 -0.5223 -0.4721
  547MOL0     H73799   1.012   7.568   5.774  1.0152 -1.7232 -0.3752
  547MOL0     H73800   1.025   7.564   5.597  0.4617 -1.2790 -1.3370
  547MOL0     H73801   0.913   7.329   5.599 -2.8326  0.0193  0.8326
  547MOL0     H73802   0.932   7.337   5.775  0.2405  2.2110  0.5097
  547MOL0     H73803   1.167   7.324   5.580  2.3287 -2.9706  0.1921
  547MOL0     H73804   1.087   7.182   5.661  1.8967  0.2463  1.9180
  547MOL0     H73805   1.349   7.194   5.573 -2.0423  1.0750  1.0445
  547MOL0     H73806   1.521   7.025   5.495  2.0227 -1.3073 -0.4541
  547MOL0     H73807   1.634   7.159   5.504  0.7200 -0.9548 -0.4349
  547MOL0     H73808   1.671   7.007   5.580  0.8168  0.3807  0.9429
  547MOL0     H73809   1.789   7.102   6.169  1.0848  2.1404  0.6269
  547MOL0     H73810   1.984   7.012   6.300 -3.1604  2.5238 -0.4197
  547MOL0     H73811   2.218   7.024   6.365  2.8621 -0.3453  0.0270
  547MOL0     H73812   2.117   6.873   6.397  0.0273 -0.5808 -2.1261
  547MOL0     H73813   2.345   6.869   6.513  0.6559  2.4807 -0.7329
  547MOL0     H73814   2.295   6.729   6.408 -0.8879  0.2375 -0.4318
  547MOL0     H73815   2.456   6.826   6.238 -0.9061  0.3092 -1.4802
  547MOL0     H73816   2.535   6.766   6.387 -0.4196  1.1377  0.0423
  547MOL0     H73817   2.605   6.949   6.439 -2.6387 -1.6357  2.0533
  547MOL0     H73818   2.587   6.983   6.265 -0.3889 -0.4892 -0.1578
  547MOL0     H73819   2.399   7.117   6.476 -1.2480  0.1806 -0.2993
  547MOL0     H73820   2.418   7.133   6.295 -1.1204 -3.3924 -0.3375
  547MOL0     H73821   2.639   7.188   6.501  1.8025 -0.7309 -1.9657
  547MOL0     H73822   2.648   7.214   6.321 -2.9128  0.7491 -1.8010
  547MOL0     H73823   2.456   7.364   6.505 -1.3580  2.3355 -1.8381
  547MOL0     H73824   2.489   7.392   6.335 -1.8285 -1.9100  0.2016
  547MOL0     H73825   2.613   7.560   6.487  0.1118 -0.3214 -1.5551
  547MOL0     H73826   2.735   7.443   6.419 -0.5565  1.5936 -2.1500
  547MOL0     H73827   2.161   6.813   5.979  0.6285  0.3243  0.1973
  547MOL0     H73828   1.942   6.862   5.836 -1.4460  0.5042  0.1954
  547MOL0     H73829   1.560   7.190   6.023  0.8908 -3.2040 -0.2389
  547MOL0     H73830   1.332   7.277   5.991 -1.9729  1.1440 -0.3288
  547MOL0     H73831   0.566   8.028   4.656 -2.3813  1.4980 -0.4180
  547MOL0     H73832   0.513   7.967   4.423 -0.5737 -0.6015 -0.4067
  547MOL0     H73833   0.243   8.185   4.018 -0.5001 -0.7419 -0.1267
  547MOL0     H73834   0.190   8.122   3.800 -0.9177  0.3263  2.1354
  547MOL0     H73835   0.498   7.890   3.532 -0.2356  1.0854 -1.8921
  547MOL0     H73836   0.378   7.822   3.640  2.7956  0.2078 -0.2004
  547MOL0     H73837   0.188   7.852   3.477 -0.7849 -2.9262 -0.0429
  547MOL0     H73838   0.312   7.732   3.444 -1.1454  0.6715  0.1749
  547MOL0     H73839   0.391   7.847   3.258  1.0275  1.3699 -0.1499
  547MOL0     H73840   0.350   8.010   3.306 -0.0385  0.3682 -0.9533
  547MOL0     H73841   0.145   7.790   3.232 -0.0964  0.6333  1.3641
  547MOL0     H73842   0.214   7.915   3.118 -1.4643  0.6141 -1.4582
  547MOL0     H73843  -0.078   8.123   3.327 -0.1824  0.3738  1.0103
  547MOL0     H73844   0.582   7.958   3.744 -0.6313 -2.7112  0.0826
  547MOL0     H73845   0.631   7.989   3.971 -2.5524 -4.1445 -0.1547
  548MOL0     O73846   3.104   0.355   0.879 -0.5577  0.6219 -0.5262
  548MOL0     C73847   3.020   0.396   0.803  0.1019  0.9532  0.3154
  548MOL0     O73848   3.040   0.482   0.695  0.1510 -0.3548  0.1031
  548MOL0     C73849   3.169   0.514   0.671 -0.5011  1.1771 -0.0464
  548MOL0     C73850   3.268   0.420   0.627  0.5385  0.6438 -0.5150
  548MOL0     C73851   3.398   0.451   0.595  1.0473 -1.0676  0.6114
  548MOL0     C73852   3.429   0.586   0.581  0.1101  0.1505  0.3465
  548MOL0     O73853   3.553   0.622   0.552 -0.8603  0.2943 -0.6142
  548MOL0     C73854   3.591   0.754   0.516 -0.0151  0.4495  0.0227
  548MOL0     C73855   3.739   0.763   0.533  0.1972 -0.4358 -0.1393
  548MOL0     C73856   3.806   0.896   0.517  0.1434 -0.3829  0.0304
  548MOL0     C73857   3.960   0.877   0.507 -0.2023 -0.1199 -0.1235
  548MOL0     C73858   4.037   1.006   0.493 -0.2071 -0.4042 -0.4342
  548MOL0     C73859   4.187   0.971   0.459  0.3063  0.3044  0.9345
  548MOL0     C73860   4.271   0.881   0.548  0.6700  0.3379  0.3946
  548MOL0     C73861   4.414   0.872   0.504 -0.5491  0.5350  0.0884
  548MOL0     N73862   4.489   0.777   0.593 -0.2817 -0.3907 -0.4764
  548MOL0     C73863   4.575   0.805   0.692  0.2025 -0.7308  0.7796
  548MOL0     C73864   4.603   0.689   0.752  0.0343  0.5687  0.3450
  548MOL0     C73865   4.654   0.685   0.890  0.6287  0.3299 -0.6347
  548MOL0     C73866   4.806   0.729   0.878 -0.2343  0.0353  0.9822
  548MOL0     C73867   4.873   0.755   1.016 -0.2660 -0.4249 -0.0322
  548MOL0     C73868   4.794   0.838   1.116 -0.1174  0.6304 -0.3742
  548MOL0     O73869   4.703   0.754   1.188  0.2703 -0.4262  0.1689
  548MOL0     C73870   4.609   0.832   1.263  0.2009 -0.2094  0.4341
  548MOL0     C73871   4.501   0.757   1.296 -0.0234 -0.4567  0.0485
  548MOL0     C73872   4.403   0.814   1.387  0.3719  1.2623 -0.3734
  548MOL0     C73873   4.318   0.713   1.462  0.1784  0.1199  0.0988
  548MOL0     C73874   4.404   0.954   1.418 -0.7176  0.0692  0.2667
  548MOL0     C73875   4.299   1.020   1.491  0.5912  0.2706 -0.0650
  548MOL0     O73876   4.197   0.949   1.546  0.2305 -1.1674 -0.7887
  548MOL0     C73877   4.078   1.019   1.578  0.3951 -0.5445  0.7780
  548MOL0     C73878   4.046   1.085   1.700 -0.2475 -0.4553  1.0183
  548MOL0     C73879   3.920   1.142   1.714  0.4806 -0.3109 -0.0716
  548MOL0     C73880   3.821   1.130   1.623  1.7288 -0.8341  0.3353
  548MOL0     O73881   3.699   1.176   1.671 -0.0261 -0.0972 -0.0829
  548MOL0     C73882   3.598   1.141   1.576 -0.2644 -0.8073 -0.9494
  548MOL0     C73883   3.453   1.169   1.626  0.4048 -1.1755  0.3878
  548MOL0     C73884   3.359   1.130   1.515  0.2482 -0.1023 -1.7149
  548MOL0     C73885   3.250   1.035   1.575  0.5906 -0.6937 -0.3616
  548MOL0     C73886   3.137   1.004   1.474 -1.3200  0.0894  0.2541
  548MOL0     C73887   3.024   0.924   1.530  0.1316  0.5176 -0.9506
  548MOL0     C73888   2.892   0.966   1.474 -0.1980  0.3669  0.6132
  548MOL0     C73889   2.779   0.902   1.562  0.0979  0.1108 -0.7709
  548MOL0    Cl73890   2.805   0.728   1.585  0.5978 -0.2440  0.1583
  548MOL0     C73891   3.854   1.074   1.498  0.3817 -0.5834  0.4656
  548MOL0     C73892   3.973   1.015   1.479  0.3453  0.7807  0.0726
  548MOL0     O73893   4.321   1.140   1.519 -0.1166  0.5148 -0.1633
  548MOL0     C73894   4.515   1.026   1.368  0.4485 -0.7930 -0.1723
  548MOL0     C73895   4.601   0.967   1.282  0.5182 -0.0753 -0.5474
  548MOL0     N73896   4.537   0.592   0.677 -0.0806  0.3309 -0.0868
  548MOL0     N73897   4.466   0.647   0.583  0.0044  0.0940  0.6552
  548MOL0     C73898   3.330   0.687   0.603  0.0086 -0.3785 -0.5833
  548MOL0     C73899   3.207   0.650   0.652  0.3903  0.3233  0.2778
  548MOL0     C73900   2.889   0.356   0.836 -0.1002 -0.8136 -0.0322
  548MOL0     C73901   2.778   0.399   0.764 -0.0718  0.1069  0.2094
  548MOL0     C73902   2.648   0.373   0.787  0.1327  0.5239  0.3941
  548MOL0     C73903   2.614   0.301   0.894 -0.1287 -0.1453 -0.2191
  548MOL0     O73904   2.482   0.270   0.926 -0.6120  0.5456  0.3365
  548MOL0     C73905   2.375   0.359   0.894 -0.5052 -0.1831  0.4995
  548MOL0     C73906   2.289   0.374   1.015 -0.2961  0.1000 -0.8649
  548MOL0     C73907   2.178   0.265   1.022  0.1699  0.5289  0.5666
  548MOL0     C73908   2.059   0.301   0.939 -0.1453  0.2046  0.1700
  548MOL0     C73909   1.943   0.230   0.978  0.4240  0.2224 -0.0994
  548MOL0     C73910   1.854   0.158   1.004 -0.4088  0.9319 -0.1441
  548MOL0     C73911   2.715   0.240   0.975 -0.2924  0.6736  0.6602
  548MOL0     C73912   2.848   0.263   0.939 -0.7088 -0.2822  0.4155
  548MOL0     H73913   3.233   0.317   0.617  0.7282  0.8518 -5.1979
  548MOL0     H73914   3.467   0.369   0.582  0.6739 -1.6391  2.0501
  548MOL0     H73915   3.564   0.784   0.415 -0.5813  2.0781  0.6166
  548MOL0     H73916   3.553   0.833   0.582  1.9903  1.1635  0.4190
  548MOL0     H73917   3.762   0.728   0.634 -1.7392 -1.7175 -0.0902
  548MOL0     H73918   3.767   0.689   0.458 -3.5509 -3.1641  0.8531
  548MOL0     H73919   3.772   0.952   0.429 -0.7271 -1.8023 -0.5733
  548MOL0     H73920   3.780   0.964   0.598  0.1016  0.6000 -0.7862
  548MOL0     H73921   3.986   0.819   0.596 -0.9838  0.5764  0.5720
  548MOL0     H73922   3.988   0.811   0.424  0.1315 -2.5833  1.8632
  548MOL0     H73923   3.993   1.068   0.415  3.3033 -0.0780 -2.3799
  548MOL0     H73924   4.028   1.063   0.586 -1.6914 -2.0393  0.4781
  548MOL0     H73925   4.189   0.924   0.361 -1.1011  1.6249  0.2365
  548MOL0     H73926   4.241   1.065   0.447 -0.0924  0.4304  0.0685
  548MOL0     H73927   4.265   0.901   0.655  0.0708  1.1421  0.2173
  548MOL0     H73928   4.233   0.778   0.542  2.8576 -0.4991  0.0504
  548MOL0     H73929   4.449   0.976   0.509  0.0936  0.3949 -1.1414
  548MOL0     H73930   4.426   0.847   0.398 -3.7835  1.3506 -0.5834
  548MOL0     H73931   4.605   0.901   0.733  3.2804 -0.6624 -1.3168
  548MOL0     H73932   4.604   0.759   0.953 -0.6307  0.8080 -2.1372
  548MOL0     H73933   4.643   0.587   0.937  0.7492  0.3084 -0.6519
  548MOL0     H73934   4.815   0.828   0.833 -0.9452 -0.5257 -0.4250
  548MOL0     H73935   4.865   0.647   0.836 -0.5692  0.2725  0.0316
  548MOL0     H73936   4.970   0.800   0.993 -0.1120 -1.2512 -1.1086
  548MOL0     H73937   4.889   0.655   1.059 -2.4186 -0.3847  0.9762
  548MOL0     H73938   4.755   0.930   1.071  1.3991  0.8636 -1.2830
  548MOL0     H73939   4.853   0.885   1.196 -1.3776  1.1269  0.2898
  548MOL0     H73940   4.515   0.651   1.280  0.1720 -0.4025 -0.1519
  548MOL0     H73941   4.359   0.612   1.452 -0.2891 -0.0203 -0.4773
  548MOL0     H73942   4.327   0.754   1.563  1.5240 -0.4599  0.2393
  548MOL0     H73943   4.217   0.712   1.421 -0.6448  2.1571  1.9275
  548MOL0     H73944   4.117   1.080   1.781  0.6232  0.5755  0.3487
  548MOL0     H73945   3.890   1.180   1.811 -1.6124 -0.8060 -0.4852
  548MOL0     H73946   3.609   1.190   1.479 -1.7799 -0.1765 -0.8268
  548MOL0     H73947   3.592   1.033   1.560  1.9606 -1.8125  3.4633
  548MOL0     H73948   3.429   1.114   1.717 -1.3860  2.0028  2.0074
  548MOL0     H73949   3.433   1.272   1.656 -0.0246 -1.0835 -0.1994
  548MOL0     H73950   3.417   1.097   1.427 -0.0310  1.5408 -2.5563
  548MOL0     H73951   3.304   1.219   1.485 -0.6996 -0.8698 -2.3079
  548MOL0     H73952   3.303   0.946   1.610  3.1345  0.7635 -0.2465
  548MOL0     H73953   3.210   1.088   1.662 -0.6796 -0.7691 -0.8736
  548MOL0     H73954   3.175   0.955   1.384  0.0345  4.4249 -1.8265
  548MOL0     H73955   3.092   1.101   1.450  0.4769  0.8390 -0.2141
  548MOL0     H73956   3.052   0.820   1.510  1.2047  0.1087  2.1431
  548MOL0     H73957   3.026   0.934   1.639 -0.6647  2.1027 -1.0637
  548MOL0     H73958   2.873   0.932   1.372  1.0987 -1.8373  1.0487
  548MOL0     H73959   2.878   1.075   1.481 -0.8498  0.1965  3.1444
  548MOL0     H73960   2.681   0.914   1.515  0.0024  1.0268 -0.3603
  548MOL0     H73961   2.782   0.949   1.661 -1.3911 -0.6245 -0.3427
  548MOL0     H73962   3.800   1.092   1.406 -1.4782  2.2962  1.9532
  548MOL0     H73963   3.985   0.947   1.395 -0.3954 -1.4708  1.6919
  548MOL0     H73964   4.531   1.132   1.385  0.6350 -0.0681 -4.0227
  548MOL0     H73965   4.675   1.036   1.245  0.1004 -0.8378 -3.0411
  548MOL0     H73966   3.345   0.794   0.599 -2.1834  0.1913  2.5962
  548MOL0     H73967   3.130   0.725   0.669  2.8352  3.0629  0.0178
  548MOL0     H73968   2.791   0.460   0.675 -1.1640  0.6624  0.4123
  548MOL0     H73969   2.571   0.406   0.719  0.6769  0.1545 -0.4307
  548MOL0     H73970   2.422   0.456   0.878  0.9334 -0.0300  4.5973
  548MOL0     H73971   2.330   0.318   0.803  1.4222 -2.4201  0.4503
  548MOL0     H73972   2.253   0.478   1.013 -1.7276 -0.1384  3.1831
  548MOL0     H73973   2.355   0.352   1.100 -0.2479 -1.0748 -1.1884
  548MOL0     H73974   2.148   0.255   1.127  0.9909 -2.0838  0.6163
  548MOL0     H73975   2.195   0.161   0.993 -1.0296  0.1124  1.2793
  548MOL0     H73976   2.070   0.291   0.830 -0.5289 -1.0452  0.2356
  548MOL0     H73977   2.046   0.408   0.957 -0.5054 -0.0877  1.7779
  548MOL0     H73978   1.771   0.096   1.031 -1.0083  1.2981 -1.0938
  548MOL0     H73979   2.688   0.175   1.058 -3.2276  1.8856  0.7508
  548MOL0     H73980   2.933   0.227   0.997  0.7216  0.1533 -1.3138
  549MOL0     O73981   6.218   7.573  10.216  0.2923 -0.0491 -0.5206
  549MOL0     C73982   6.158   7.610  10.315  0.6622  0.0429 -1.7705
  549MOL0     O73983   6.189   7.708  10.413  0.2307 -0.3647  0.2096
  549MOL0     C73984   6.304   7.772  10.376  0.0627 -0.7862 -0.8797
  549MOL0     C73985   6.293   7.897  10.323 -0.2645  0.1728  0.0527
  549MOL0     C73986   6.407   7.966  10.279 -0.7347  0.8065  0.2573
  549MOL0     C73987   6.529   7.922  10.310  0.1536 -0.1835  1.2019
  549MOL0     O73988   6.644   7.974  10.256 -0.0171  0.0364 -0.8095
  549MOL0     C73989   6.662   8.078  10.157 -0.5524 -1.0746 -0.6736
  549MOL0     C73990   6.815   8.113  10.133  0.7184  0.6549 -0.4140
  549MOL0     C73991   6.894   7.999  10.066  0.7077  0.0533 -0.2482
  549MOL0     C73992   6.899   7.884  10.162 -0.3064  0.0538  0.3792
  549MOL0     C73993   7.018   7.795  10.143  0.1474  0.3687  0.2182
  549MOL0     C73994   7.038   7.707  10.269  0.2095 -0.2442 -0.4481
  549MOL0     C73995   7.167   7.634  10.255 -0.0598 -1.2161 -0.1168
  549MOL0     C73996   7.164   7.526  10.142  0.2149  1.0698 -0.0415
  549MOL0     N73997   7.236   7.403  10.180  1.0090  0.3350  0.2932
  549MOL0     C73998   7.365   7.378  10.168 -1.0151 -0.3613 -0.3515
  549MOL0     C73999   7.378   7.258  10.206  0.1167  0.7864  0.6501
  549MOL0     C74000   7.518   7.215  10.215 -0.1084 -0.2850 -0.3947
  549MOL0     C74001   7.544   7.072  10.178  0.2382 -0.2373  0.8380
  549MOL0     C74002   7.695   7.032  10.174  0.2703  0.4509  0.0871
  549MOL0     C74003   7.734   6.911  10.100 -0.6972  0.9133  0.4128
  549MOL0     O74004   7.703   6.784  10.161 -0.3232 -0.0858  0.1670
  549MOL0     C74005   7.775   6.741  10.270 -0.9222  0.3096 -0.1735
  549MOL0     C74006   7.884   6.808  10.324 -0.2918 -0.4819 -1.0473
  549MOL0     C74007   7.951   6.760  10.438  0.1548 -0.1850 -0.4357
  549MOL0     C74008   8.074   6.834  10.475  0.0671  0.1441  0.0919
  549MOL0     C74009   7.905   6.647  10.514  0.8722 -0.7171 -0.1726
  549MOL0     C74010   7.967   6.596  10.633  0.2930  0.9270  0.1282
  549MOL0     O74011   7.899   6.502  10.707 -0.1337  0.5191 -0.1984
  549MOL0     C74012   7.945   6.481  10.834  0.1526  1.1099 -0.2404
  549MOL0     C74013   8.068   6.416  10.848 -0.4025 -0.1062  1.0034
  549MOL0     C74014   8.126   6.388  10.972  0.5186  0.9960  0.5950
  549MOL0     C74015   8.049   6.427  11.090 -1.2220  0.4776 -0.3226
  549MOL0     O74016   8.102   6.403  11.213 -0.4441 -0.4241 -0.6391
  549MOL0     C74017   8.233   6.455  11.246 -0.5475  0.4328  0.0354
  549MOL0     C74018   8.231   6.595  11.298 -0.3254  0.3211  0.3280
  549MOL0     C74019   8.361   6.654  11.362  0.9418 -0.7253  0.2607
  549MOL0     C74020   8.449   6.712  11.253 -0.0299 -0.3153  0.1370
  549MOL0     C74021   8.567   6.783  11.312  0.3624 -0.0494  0.5215
  549MOL0     C74022   8.548   6.924  11.379  0.5042  0.4953  0.1098
  549MOL0     C74023   8.682   6.992  11.411  0.0328 -0.2811 -0.3843
  549MOL0     C74024   8.648   7.134  11.468  0.3014  0.1029  0.2179
  549MOL0    Cl74025   8.806   7.215  11.495  0.2768  0.1761 -0.3514
  549MOL0     C74026   7.930   6.489  11.069 -0.1881  0.5432  0.1975
  549MOL0     C74027   7.869   6.516  10.940 -0.0497  0.1049 -0.0050
  549MOL0     O74028   8.080   6.628  10.642 -0.0838 -0.0135 -0.2322
  549MOL0     C74029   7.788   6.592  10.468  0.8137 -0.1305  0.6346
  549MOL0     C74030   7.729   6.634  10.342  0.6620 -0.4880  0.9345
  549MOL0     N74031   7.262   7.205  10.243 -0.0613 -0.3069  0.2394
  549MOL0     N74032   7.170   7.295  10.228 -0.3023  0.0891 -0.0599
  549MOL0     C74033   6.540   7.799  10.378  0.8926  1.0672 -0.2490
  549MOL0     C74034   6.426   7.725  10.412 -0.6361 -0.0828  0.4056
  549MOL0     C74035   6.042   7.533  10.354 -0.1080 -1.1140 -0.0596
  549MOL0     C74036   6.012   7.416  10.284 -0.5537 -1.2020 -0.2103
  549MOL0     C74037   5.911   7.335  10.329 -0.5449 -0.8330  0.6206
  549MOL0     C74038   5.831   7.366  10.446  0.1515 -0.3922 -0.5509
  549MOL0     O74039   5.735   7.267  10.478 -0.4018 -0.8910 -0.0937
  549MOL0     C74040   5.695   7.261  10.620 -0.4758 -0.6928 -0.1106
  549MOL0     C74041   5.742   7.118  10.672  0.2605  0.2998  0.6990
  549MOL0     C74042   5.677   7.059  10.795  0.7801  0.3113  0.0239
  549MOL0     C74043   5.706   7.147  10.918  0.2483 -0.9109  0.6620
  549MOL0     C74044   5.624   7.103  11.031  0.2598  0.3510  0.1430
  549MOL0     C74045   5.560   7.060  11.123  0.7447  0.5329 -0.2521
  549MOL0     C74046   5.851   7.486  10.509 -0.0371  0.2026  0.0656
  549MOL0     C74047   5.954   7.570  10.458 -0.1182 -0.5199 -0.3190
  549MOL0     H74048   6.202   7.950  10.298  0.1884  0.8185 -0.2509
  549MOL0     H74049   6.405   8.064  10.233 -2.4484 -0.6106 -3.0996
  549MOL0     H74050   6.612   8.046  10.065 -0.9057  0.7552 -1.1764
  549MOL0     H74051   6.606   8.169  10.182  0.4821 -1.1109  2.0403
  549MOL0     H74052   6.807   8.204  10.073  0.9289  2.0372  1.5555
  549MOL0     H74053   6.854   8.142  10.231  0.1847  1.1595 -0.3429
  549MOL0     H74054   6.864   7.979   9.963 -2.2510  4.2851 -0.4377
  549MOL0     H74055   6.997   8.036  10.068  1.3394 -1.6192  0.8411
  549MOL0     H74056   6.896   7.913  10.267 -0.3518 -0.4725  0.5289
  549MOL0     H74057   6.810   7.822  10.150  0.7932 -1.8006  1.3796
  549MOL0     H74058   7.000   7.731  10.056 -1.2186 -0.8061  1.3227
  549MOL0     H74059   7.105   7.861  10.131  1.3177 -1.5300 -2.6314
  549MOL0     H74060   7.050   7.778  10.352  1.5499  0.6646 -1.3774
  549MOL0     H74061   6.956   7.636  10.279  0.0510 -0.1997 -1.3686
  549MOL0     H74062   7.254   7.697  10.236  1.1337 -2.3813  1.2109
  549MOL0     H74063   7.180   7.595  10.356  0.1115 -0.1295  0.2924
  549MOL0     H74064   7.199   7.568  10.048  1.5455  3.5894  1.4781
  549MOL0     H74065   7.061   7.490  10.127  0.7231 -2.0493  2.8234
  549MOL0     H74066   7.436   7.453  10.134 -0.2304 -0.0572  1.8133
  549MOL0     H74067   7.588   7.274  10.154  1.5253 -0.9321  0.7844
  549MOL0     H74068   7.553   7.232  10.317  1.0900 -3.3656 -0.1992
  549MOL0     H74069   7.505   7.063  10.076  0.6071 -2.3786  0.8579
  549MOL0     H74070   7.490   6.999  10.240 -0.1105  0.4441  1.3616
  549MOL0     H74071   7.722   7.010  10.277 -1.6539 -2.5249  0.0658
  549MOL0     H74072   7.751   7.116  10.130 -2.5481  1.5935 -1.6247
  549MOL0     H74073   7.841   6.917  10.077 -1.0560 -1.9600 -2.9699
  549MOL0     H74074   7.685   6.924  10.003  1.6644  1.9805 -0.7345
  549MOL0     H74075   7.916   6.894  10.266  1.7635 -0.7995 -0.4583
  549MOL0     H74076   8.168   6.781  10.457 -0.4381  0.1834 -3.4272
  549MOL0     H74077   8.090   6.925  10.415  1.3517  0.7850  1.3412
  549MOL0     H74078   8.064   6.864  10.580 -3.4873 -0.4327  0.0403
  549MOL0     H74079   8.120   6.411  10.753  0.2273 -3.1766  1.4278
  549MOL0     H74080   8.216   6.328  10.981 -1.0989 -1.3659  2.1076
  549MOL0     H74081   8.273   6.394  11.327  0.3052  0.4320 -0.3791
  549MOL0     H74082   8.293   6.459  11.155 -2.5365  1.4891 -1.2976
  549MOL0     H74083   8.187   6.655  11.218 -2.9209  0.3655  1.6917
  549MOL0     H74084   8.153   6.604  11.374 -0.8498  0.6582 -0.2412
  549MOL0     H74085   8.410   6.576  11.422  1.2243  0.3109  1.4150
  549MOL0     H74086   8.327   6.733  11.430  3.2466 -1.8153  2.8691
  549MOL0     H74087   8.495   6.631  11.196  2.3945 -0.2950  1.8634
  549MOL0     H74088   8.408   6.785  11.183 -0.0277 -1.0220 -0.6193
  549MOL0     H74089   8.645   6.796  11.236 -1.1566 -1.4927 -1.3561
  549MOL0     H74090   8.594   6.707  11.386  0.0293  0.1922  0.8983
  549MOL0     H74091   8.490   6.982  11.306  0.7501 -0.5435 -0.9548
  549MOL0     H74092   8.484   6.926  11.467  1.6042  1.7750  0.9208
  549MOL0     H74093   8.729   7.002  11.314 -0.8879  1.4297 -0.6998
  549MOL0     H74094   8.743   6.934  11.481 -2.3507 -2.8111 -0.2070
  549MOL0     H74095   8.582   7.143  11.555 -1.3425  1.2036 -1.0934
  549MOL0     H74096   8.601   7.184  11.383  2.8318  1.0456 -0.7436
  549MOL0     H74097   7.878   6.511  11.161  0.2122 -0.7519  0.7592
  549MOL0     H74098   7.767   6.552  10.942  0.7368  2.5873  2.5611
  549MOL0     H74099   7.755   6.494  10.500 -0.6048 -0.0895 -0.6235
  549MOL0     H74100   7.634   6.589  10.314  0.2356  1.9516 -2.2009
  549MOL0     H74101   6.643   7.768  10.382  1.0291  1.2215 -1.8605
  549MOL0     H74102   6.442   7.634  10.467  0.6288 -1.5345 -2.1767
  549MOL0     H74103   6.068   7.391  10.195 -1.1272 -1.0025 -0.6322
  549MOL0     H74104   5.883   7.251  10.266  1.4458 -0.3400 -1.0277
  549MOL0     H74105   5.754   7.328  10.682 -1.5724  0.4696 -0.2921
  549MOL0     H74106   5.587   7.270  10.638 -0.6111 -0.2120 -1.1577
  549MOL0     H74107   5.847   7.118  10.704  0.3996  2.7873  0.3800
  549MOL0     H74108   5.734   7.038  10.598  0.2009 -1.3926  2.4555
  549MOL0     H74109   5.721   6.961  10.815  0.4405  0.7085  3.1775
  549MOL0     H74110   5.572   7.045  10.768  1.2546 -0.8680 -1.3605
  549MOL0     H74111   5.696   7.253  10.892  0.3062 -0.0530  3.7176
  549MOL0     H74112   5.811   7.146  10.949  0.1516  2.0735  1.3577
  549MOL0     H74113   5.514   7.021  11.211 -1.2083 -0.5287 -1.6902
  549MOL0     H74114   5.811   7.526  10.601  0.5828 -2.5607  1.6843
  549MOL0     H74115   5.991   7.661  10.505 -2.0243  1.9785 -3.2705
  550MOL0     O74116   7.150   3.818   9.517  0.4915 -0.2829 -0.5935
  550MOL0     C74117   7.166   3.729   9.607  1.0805  0.5647  0.5581
  550MOL0     O74118   7.228   3.745   9.725 -0.6914 -0.1718 -0.5598
  550MOL0     C74119   7.283   3.873   9.737  0.0937 -0.7023 -0.3736
  550MOL0     C74120   7.218   3.969   9.817 -0.3428  0.1194 -0.2489
  550MOL0     C74121   7.275   4.089   9.850 -0.4435  0.5185 -0.3265
  550MOL0     C74122   7.398   4.123   9.786  0.3303  1.3348 -0.6322
  550MOL0     O74123   7.470   4.234   9.823  0.0017 -0.2264  0.7043
  550MOL0     C74124   7.466   4.272   9.962  1.0876 -0.8834 -0.1841
  550MOL0     C74125   7.370   4.383   9.995  0.2880  0.0291  0.3058
  550MOL0     C74126   7.335   4.396  10.146 -1.0785 -0.6932 -0.0362
  550MOL0     C74127   7.288   4.279  10.233 -0.6335  0.1345  0.1954
  550MOL0     C74128   7.297   4.317  10.384  0.4302 -0.6237  0.8844
  550MOL0     C74129   7.245   4.225  10.487  0.4863  0.0581 -0.7276
  550MOL0     C74130   7.276   4.265  10.633 -0.5938  0.6569  0.0932
  550MOL0     C74131   7.190   4.389  10.674  0.5641 -0.3148  0.8280
  550MOL0     N74132   7.074   4.356  10.757 -0.6691 -0.5967 -0.5042
  550MOL0     C74133   7.068   4.296  10.879  0.1711  0.0087  0.3626
  550MOL0     C74134   6.957   4.330  10.932  0.4640 -0.2039 -0.4386
  550MOL0     C74135   6.931   4.309  11.078 -0.2095 -0.1334 -0.4079
  550MOL0     C74136   7.055   4.355  11.161  0.0131  0.0549  0.5518
  550MOL0     C74137   7.023   4.390  11.313 -0.5029  0.0906 -0.6408
  550MOL0     C74138   7.141   4.446  11.397 -0.5759 -0.1556 -0.3798
  550MOL0     O74139   7.148   4.584  11.359  0.3612 -0.4385 -0.6323
  550MOL0     C74140   7.197   4.679  11.441 -1.0071  0.4381 -0.1420
  550MOL0     C74141   7.283   4.641  11.553  1.4864 -0.1136  0.0283
  550MOL0     C74142   7.331   4.740  11.645  0.2712 -0.6314 -0.2003
  550MOL0     C74143   7.404   4.696  11.763 -0.1773  0.5053 -0.6047
  550MOL0     C74144   7.287   4.868  11.626  0.4588  0.2034  0.2545
  550MOL0     C74145   7.332   4.983  11.725  0.0663  0.0972 -0.8987
  550MOL0     O74146   7.459   4.993  11.769 -0.0577  0.7781 -0.1028
  550MOL0     C74147   7.486   5.076  11.879 -0.6000  1.1265 -0.6161
  550MOL0     C74148   7.469   5.215  11.867 -0.3529 -0.0663 -0.4029
  550MOL0     C74149   7.492   5.300  11.981 -0.4474  0.2191 -0.3518
  550MOL0     C74150   7.551   5.253  12.106  0.7029 -0.1435 -0.0499
  550MOL0     O74151   7.599   5.342  12.205 -0.0053  0.3467  0.5231
  550MOL0     C74152   7.679   5.451  12.155 -1.0222  0.7859  0.5796
  550MOL0     C74153   7.789   5.460  12.250 -0.0523  0.8409  0.8241
  550MOL0     C74154   7.894   5.349  12.221  0.2245  0.3596  0.3330
  550MOL0     C74155   8.044   5.391  12.244  0.6585 -0.8151  0.0721
  550MOL0     C74156   8.148   5.281  12.213  0.0894  0.9420  0.1078
  550MOL0     C74157   8.153   5.173  12.331 -0.4120 -0.2904 -1.3335
  550MOL0     C74158   8.206   5.039  12.281 -0.7112 -0.2686  0.7290
  550MOL0     C74159   8.216   4.946  12.404  0.2238  0.2675  0.5909
  550MOL0    Cl74160   8.308   5.005  12.558  0.3800 -0.5459  0.0963
  550MOL0     C74161   7.572   5.117  12.117  0.6505  0.5890 -0.7661
  550MOL0     C74162   7.545   5.028  12.005 -0.4030  0.3940  0.7100
  550MOL0     O74163   7.242   5.061  11.757  0.3256  0.4177  0.1014
  550MOL0     C74164   7.199   4.898  11.524  0.0748 -0.1052  0.2365
  550MOL0     C74165   7.159   4.808  11.428  0.0191 -0.0757 -0.5196
  550MOL0     N74166   6.884   4.402  10.840 -0.9137 -0.4280  0.4230
  550MOL0     N74167   6.950   4.405  10.730 -0.0155  0.4063 -0.1169
  550MOL0     C74168   7.464   4.028   9.701  0.5706 -0.1242 -0.8286
  550MOL0     C74169   7.404   3.905   9.680 -1.0595  0.5579 -0.6356
  550MOL0     C74170   7.099   3.594   9.598  0.5753  0.1357 -0.7192
  550MOL0     C74171   7.077   3.507   9.704 -0.1336  0.4166  0.3202
  550MOL0     C74172   7.021   3.379   9.682 -0.2172 -0.8298  0.4899
  550MOL0     C74173   6.982   3.346   9.557 -0.6983 -0.3764  0.3693
  550MOL0     O74174   6.954   3.213   9.514  0.4511  0.0197  0.0068
  550MOL0     C74175   6.954   3.103   9.598  0.6967  0.0878 -0.4478
  550MOL0     C74176   6.828   3.100   9.684 -0.2216  0.2181  0.3547
  550MOL0     C74177   6.706   3.128   9.596  0.5025  1.3276 -0.2747
  550MOL0     C74178   6.570   3.152   9.674 -1.1261 -0.2287 -0.4155
  550MOL0     C74179   6.529   3.033   9.764 -0.3654 -0.1872  0.7335
  550MOL0     C74180   6.501   2.933   9.834  0.2878 -0.2949  0.8150
  550MOL0     C74181   6.995   3.441   9.451  0.7652 -0.9697  0.1659
  550MOL0     C74182   7.052   3.563   9.475 -0.4805  0.4900 -0.4034
  550MOL0     H74183   7.126   3.929   9.858  1.3490 -0.9215  2.9133
  550MOL0     H74184   7.218   4.156   9.914  1.0083  0.6563  0.8743
  550MOL0     H74185   7.440   4.185  10.023 -0.1154  0.7652  1.8070
  550MOL0     H74186   7.556   4.321   9.998 -0.0973  4.5043 -3.4282
  550MOL0     H74187   7.412   4.473   9.950 -1.3556  0.1794 -1.0407
  550MOL0     H74188   7.278   4.350   9.944 -1.2753  0.5952  2.6336
  550MOL0     H74189   7.422   4.447  10.188  0.4828 -1.7371 -1.8178
  550MOL0     H74190   7.253   4.468  10.146 -0.8337 -0.3890 -1.4237
  550MOL0     H74191   7.194   4.237  10.196 -0.7524  0.4754  0.1151
  550MOL0     H74192   7.361   4.197  10.238 -1.2659 -0.4636 -0.1244
  550MOL0     H74193   7.398   4.349  10.410  0.8858  0.0875 -1.4794
  550MOL0     H74194   7.243   4.412  10.388  2.0954  0.5614 -1.7193
  550MOL0     H74195   7.136   4.212  10.478 -0.1346  2.8083  1.2372
  550MOL0     H74196   7.300   4.131  10.486  0.2659 -0.2973  3.0923
  550MOL0     H74197   7.278   4.177  10.699 -0.7676  1.3061  0.9935
  550MOL0     H74198   7.381   4.296  10.623 -1.0136  1.8918 -0.6431
  550MOL0     H74199   7.178   4.449  10.584  3.1457 -1.5767 -0.4790
  550MOL0     H74200   7.244   4.457  10.740 -1.0265  0.1964  1.6643
  550MOL0     H74201   7.150   4.237  10.918  0.2448 -1.7297 -2.1943
  550MOL0     H74202   6.851   4.375  11.113 -2.0542 -0.9510 -2.8878
  550MOL0     H74203   6.912   4.204  11.100  1.7739 -0.6964 -1.1961
  550MOL0     H74204   7.094   4.444  11.111 -4.4296  0.9691 -1.8177
  550MOL0     H74205   7.135   4.281  11.155  0.2777  0.4445 -1.5009
  550MOL0     H74206   6.987   4.311  11.379  3.0642  0.3791  1.9663
  550MOL0     H74207   6.949   4.470  11.316 -0.8261 -0.2350  0.6507
  550MOL0     H74208   7.234   4.389  11.393 -0.2423  0.4484 -2.1230
  550MOL0     H74209   7.115   4.441  11.503  2.0067  0.5905  0.3798
  550MOL0     H74210   7.315   4.538  11.563  0.7655 -0.4284 -0.8201
  550MOL0     H74211   7.427   4.774  11.836  2.0987  0.4667 -1.2168
  550MOL0     H74212   7.352   4.615  11.816 -1.1175 -0.5003 -2.9148
  550MOL0     H74213   7.495   4.643  11.736 -1.1395 -0.7558 -1.5213
  550MOL0     H74214   7.442   5.252  11.768  0.6740 -1.8595 -1.4134
  550MOL0     H74215   7.477   5.407  11.973  0.1544  0.2612 -0.9927
  550MOL0     H74216   7.714   5.452  12.052 -0.2982  1.3142  0.8250
  550MOL0     H74217   7.616   5.540  12.161 -1.0167  1.0766 -2.2639
  550MOL0     H74218   7.828   5.562  12.244 -1.7732  1.4733 -3.1765
  550MOL0     H74219   7.761   5.458  12.355  2.8940  0.4723  1.6987
  550MOL0     H74220   7.885   5.305  12.121  2.4455  1.0097 -0.2057
  550MOL0     H74221   7.884   5.273  12.299  4.9747  0.6808  1.5542
  550MOL0     H74222   8.053   5.475  12.174  0.4271 -0.9318 -0.0983
  550MOL0     H74223   8.063   5.435  12.342  3.6718 -2.1783  0.2187
  550MOL0     H74224   8.245   5.329  12.198  2.0493 -2.5956  0.2898
  550MOL0     H74225   8.123   5.231  12.119  0.9060 -1.0939  0.9207
  550MOL0     H74226   8.209   5.223  12.410  1.7766 -0.3688 -2.7470
  550MOL0     H74227   8.052   5.154  12.368 -0.0548  0.6106  0.1889
  550MOL0     H74228   8.304   5.045  12.233 -1.1534 -1.6383 -0.3923
  550MOL0     H74229   8.156   4.995  12.195  2.4103  0.3504 -1.5873
  550MOL0     H74230   8.272   4.859  12.371  3.6024  3.8111 -4.4833
  550MOL0     H74231   8.114   4.917  12.432 -0.8407  2.0160 -1.1840
  550MOL0     H74232   7.614   5.077  12.209 -2.3513  1.7285  1.2309
  550MOL0     H74233   7.556   4.920  12.013 -4.9570 -0.2044  1.3496
  550MOL0     H74234   7.151   4.996  11.527  2.1934  1.0087  2.7217
  550MOL0     H74235   7.099   4.839  11.343 -0.7224  1.8499  0.6447
  550MOL0     H74236   7.570   4.028   9.680  0.9439 -3.6980  0.3860
  550MOL0     H74237   7.437   3.835   9.604 -0.9319 -0.1121  0.0148
  550MOL0     H74238   7.124   3.523   9.800 -0.4272  3.9251  0.0050
  550MOL0     H74239   7.005   3.312   9.765  0.7918  1.6986  2.8850
  550MOL0     H74240   6.942   3.012   9.538  0.5713 -0.4447  0.3598
  550MOL0     H74241   7.046   3.092   9.656  0.8702  1.7432 -0.3499
  550MOL0     H74242   6.834   3.172   9.766  1.3650 -1.8658  2.1784
  550MOL0     H74243   6.820   3.005   9.739 -3.0539  0.9974  1.5001
  550MOL0     H74244   6.686   3.043   9.530  0.7730  1.4089 -0.4615
  550MOL0     H74245   6.731   3.212   9.530  1.3338 -0.9336 -3.0148
  550MOL0     H74246   6.495   3.168   9.597 -2.8685  1.9187  1.5880
  550MOL0     H74247   6.564   3.241   9.737 -3.2473 -1.0022  0.5896
  550MOL0     H74248   6.484   2.844   9.891  3.6712 -1.1306  0.7046
  550MOL0     H74249   6.966   3.401   9.355  1.0071 -1.4937  0.3096
  550MOL0     H74250   7.075   3.638   9.399 -0.1229  1.0563  0.2468
  551MOL0     O74251   5.615   6.864   2.404 -0.0770 -0.3106 -0.2420
  551MOL0     C74252   5.615   6.962   2.478 -0.1468  0.6477  0.4585
  551MOL0     O74253   5.583   6.970   2.618 -0.4101  0.9524  0.3198
  551MOL0     C74254   5.523   6.864   2.679  0.2109 -0.1598  0.4388
  551MOL0     C74255   5.602   6.787   2.755  0.4544  0.8648 -0.9062
  551MOL0     C74256   5.552   6.680   2.832 -0.0603 -0.9054  0.7051
  551MOL0     C74257   5.414   6.651   2.824 -0.7723 -0.3857 -1.0040
  551MOL0     O74258   5.361   6.528   2.863 -0.2386 -0.4796  1.0560
  551MOL0     C74259   5.400   6.494   2.998  0.2597 -0.6143  0.2635
  551MOL0     C74260   5.457   6.352   2.993 -0.3089 -1.1401 -0.5233
  551MOL0     C74261   5.506   6.305   3.141  0.7966 -0.7100  0.1444
  551MOL0     C74262   5.496   6.157   3.144  0.3325 -0.1414  0.3084
  551MOL0     C74263   5.522   6.097   3.277 -0.4256 -0.5073  0.0281
  551MOL0     C74264   5.483   5.957   3.292  0.4108 -0.3230  0.0069
  551MOL0     C74265   5.561   5.892   3.411  0.1026 -0.0444 -0.4855
  551MOL0     C74266   5.715   5.865   3.390 -0.2967  0.6812  0.8393
  551MOL0     N74267   5.764   5.782   3.508 -0.2217  0.1626  0.5140
  551MOL0     C74268   5.720   5.652   3.515 -0.5624 -0.3571  0.2440
  551MOL0     C74269   5.736   5.626   3.651  0.3050  0.0125 -0.6081
  551MOL0     C74270   5.704   5.487   3.712 -0.3116  0.7184  0.1806
  551MOL0     C74271   5.811   5.386   3.675  0.5492 -0.2273 -0.7354
  551MOL0     C74272   5.826   5.255   3.753  0.5427  0.4626  0.0845
  551MOL0     C74273   5.703   5.164   3.749  0.2186 -0.3829  0.0793
  551MOL0     O74274   5.701   5.064   3.846 -0.3243 -0.0315 -0.1236
  551MOL0     C74275   5.800   4.968   3.854 -0.3464  0.3769 -1.0830
  551MOL0     C74276   5.797   4.885   3.967 -0.5464 -0.1438 -0.0752
  551MOL0     C74277   5.896   4.776   3.985  0.6602  0.3129 -0.0345
  551MOL0     C74278   5.891   4.694   4.107 -0.1756 -0.9144 -0.4682
  551MOL0     C74279   5.992   4.749   3.874 -0.0765 -1.4621 -0.4697
  551MOL0     C74280   6.111   4.653   3.890  0.0432 -0.8191  0.1149
  551MOL0     O74281   6.187   4.640   3.772  0.6235  0.1234 -0.6316
  551MOL0     C74282   6.312   4.621   3.798  0.6741 -0.8361  0.1769
  551MOL0     C74283   6.397   4.704   3.877  0.5806 -0.0947  0.2995
  551MOL0     C74284   6.534   4.680   3.885 -0.5013  0.3789  0.1036
  551MOL0     C74285   6.586   4.564   3.822 -1.3780  0.2320  0.3366
  551MOL0     O74286   6.721   4.542   3.838  0.0137  0.2082 -1.1269
  551MOL0     C74287   6.803   4.532   3.720  0.4041 -0.1339 -0.3864
  551MOL0     C74288   6.953   4.517   3.738  0.5603 -0.7367  0.1285
  551MOL0     C74289   7.021   4.543   3.604  0.1603  0.1734  0.0718
  551MOL0     C74290   7.145   4.460   3.575 -0.1953 -0.1327  0.0007
  551MOL0     C74291   7.165   4.438   3.417  0.0796 -0.0664  0.0629
  551MOL0     C74292   7.283   4.354   3.388  0.1012 -0.2032 -0.2953
  551MOL0     C74293   7.427   4.418   3.407  0.8664 -0.3143  0.6769
  551MOL0     C74294   7.450   4.561   3.354  0.9670 -0.1844 -0.5795
  551MOL0    Cl74295   7.568   4.636   3.467  0.1179 -0.2336 -0.0693
  551MOL0     C74296   6.494   4.480   3.751  0.0124  0.1818 -0.0808
  551MOL0     C74297   6.363   4.505   3.738 -0.4276 -0.4781 -0.3097
  551MOL0     O74298   6.139   4.599   3.999  0.4473 -0.0325  0.1566
  551MOL0     C74299   5.983   4.832   3.759 -0.0379  0.2405  0.0987
  551MOL0     C74300   5.891   4.937   3.752 -0.0256  0.1733 -0.2084
  551MOL0     N74301   5.799   5.740   3.709  0.3262 -0.2533  0.4424
  551MOL0     N74302   5.820   5.829   3.617 -0.6419  0.0907 -0.3955
  551MOL0     C74303   5.332   6.736   2.748  0.5591  0.4973  0.5556
  551MOL0     C74304   5.391   6.842   2.675  0.1779  0.6066  1.0912
  551MOL0     C74305   5.630   7.098   2.403  0.3167 -0.6459  0.6012
  551MOL0     C74306   5.610   7.218   2.476 -0.6336  0.5589  0.4119
  551MOL0     C74307   5.618   7.345   2.428 -0.4367  0.6994 -0.0413
  551MOL0     C74308   5.646   7.364   2.284 -0.5029 -0.1126 -0.4095
  551MOL0     O74309   5.693   7.471   2.218 -0.1968  0.4806  0.4617
  551MOL0     C74310   5.664   7.602   2.280  0.0736 -0.7204  0.4161
  551MOL0     C74311   5.713   7.718   2.193  0.1638 -0.0949 -1.2173
  551MOL0     C74312   5.611   7.841   2.191 -0.6469  0.8312  0.9027
  551MOL0     C74313   5.634   7.947   2.080 -0.3743  0.0207 -0.5751
  551MOL0     C74314   5.773   7.991   2.086 -0.4093  0.9448  1.1560
  551MOL0     C74315   5.889   8.034   2.087 -0.1608 -0.0224 -0.3643
  551MOL0     C74316   5.651   7.252   2.201  0.1151  0.1541  0.3097
  551MOL0     C74317   5.659   7.126   2.259  0.0451 -0.4117 -0.7917
  551MOL0     H74318   5.710   6.798   2.766  0.2569  0.6032  1.7794
  551MOL0     H74319   5.625   6.623   2.889  0.8350  1.0349  1.6183
  551MOL0     H74320   5.485   6.547   3.043  0.9151 -2.4182  1.2581
  551MOL0     H74321   5.316   6.499   3.068 -0.3786  3.1918 -0.5458
  551MOL0     H74322   5.383   6.286   2.946 -0.8297 -0.1689 -1.1058
  551MOL0     H74323   5.542   6.349   2.924 -1.2045 -0.1002 -1.7343
  551MOL0     H74324   5.608   6.339   3.159  1.0411 -3.1163  4.7422
  551MOL0     H74325   5.457   6.360   3.222  1.6856 -0.6821  0.6725
  551MOL0     H74326   5.398   6.123   3.111  0.3663 -2.7868  2.5236
  551MOL0     H74327   5.574   6.121   3.075  0.5089 -0.4056  0.6393
  551MOL0     H74328   5.629   6.109   3.296  0.2270 -0.6383 -3.1003
  551MOL0     H74329   5.467   6.152   3.354 -1.0469  0.0966 -0.8299
  551MOL0     H74330   5.376   5.938   3.306  1.0169 -1.9182  3.8799
  551MOL0     H74331   5.511   5.901   3.202 -0.0055  2.6429 -2.0877
  551MOL0     H74332   5.528   5.946   3.501 -1.8987 -0.0035 -1.1844
  551MOL0     H74333   5.517   5.793   3.427  0.8530 -0.0912  1.7065
  551MOL0     H74334   5.776   5.955   3.374 -0.0438  0.1092 -1.8219
  551MOL0     H74335   5.712   5.799   3.303 -1.8590 -0.4593  1.7222
  551MOL0     H74336   5.688   5.590   3.431 -0.5433  1.1611 -0.9147
  551MOL0     H74337   5.704   5.497   3.821 -1.6511  1.1314  0.1681
  551MOL0     H74338   5.603   5.464   3.677 -0.3082  1.5511 -0.3987
  551MOL0     H74339   5.906   5.437   3.696 -0.1482  1.0263 -0.4938
  551MOL0     H74340   5.818   5.372   3.567  0.8151  1.3198 -0.9512
  551MOL0     H74341   5.838   5.282   3.858 -0.4412  0.5840  0.1780
  551MOL0     H74342   5.915   5.200   3.721  0.9988 -0.9856  3.4711
  551MOL0     H74343   5.683   5.118   3.652  0.9619 -2.4380  0.8592
  551MOL0     H74344   5.622   5.227   3.788 -0.1748 -2.1102  2.2705
  551MOL0     H74345   5.722   4.903   4.043  1.1999  0.4725  1.5812
  551MOL0     H74346   5.988   4.670   4.152 -1.2324 -2.6069  1.0443
  551MOL0     H74347   5.841   4.740   4.193  3.5428  0.6485  1.0790
  551MOL0     H74348   5.844   4.602   4.071  1.7033 -1.1999 -2.3725
  551MOL0     H74349   6.352   4.783   3.936  1.3597  1.1255 -0.7007
  551MOL0     H74350   6.596   4.741   3.950  0.0163 -1.9657  1.9483
  551MOL0     H74351   6.764   4.451   3.658 -0.0125  0.0823 -0.4090
  551MOL0     H74352   6.781   4.612   3.650 -0.8329 -0.9493 -0.9577
  551MOL0     H74353   6.982   4.593   3.812 -3.5674  0.1643  1.0793
  551MOL0     H74354   6.977   4.417   3.776  0.9193 -0.1604  1.4944
  551MOL0     H74355   7.037   4.649   3.585  1.4955  0.5364  2.7586
  551MOL0     H74356   6.961   4.522   3.515  2.7152 -2.6552 -1.1774
  551MOL0     H74357   7.232   4.520   3.605 -0.0098  0.3330 -1.3780
  551MOL0     H74358   7.132   4.368   3.633  0.7710 -2.1922 -2.8120
  551MOL0     H74359   7.165   4.541   3.382 -2.3022 -1.0399 -3.4388
  551MOL0     H74360   7.084   4.377   3.375  0.0118  0.0930 -0.0377
  551MOL0     H74361   7.282   4.266   3.454 -3.2563  1.7112  2.5870
  551MOL0     H74362   7.274   4.329   3.282 -0.6739 -2.8754  0.3296
  551MOL0     H74363   7.502   4.355   3.358  1.6468  0.4776  0.8228
  551MOL0     H74364   7.460   4.409   3.511  1.6346  0.8345  0.5564
  551MOL0     H74365   7.360   4.623   3.352  1.8179  1.2218  1.7149
  551MOL0     H74366   7.477   4.558   3.248 -1.0458  0.1181 -1.1381
  551MOL0     H74367   6.547   4.391   3.717  2.9554  1.3417  1.1005
  551MOL0     H74368   6.315   4.428   3.678  0.2408 -0.8254 -0.4053
  551MOL0     H74369   6.059   4.820   3.682  1.6573  3.1001  1.1718
  551MOL0     H74370   5.888   5.002   3.665 -0.6828  2.5529  1.4751
  551MOL0     H74371   5.225   6.719   2.753  0.5936 -1.7827 -3.2927
  551MOL0     H74372   5.325   6.913   2.626  0.4493  1.3194  1.7384
  551MOL0     H74373   5.598   7.206   2.583  0.2156 -0.4898  0.4126
  551MOL0     H74374   5.629   7.430   2.495  1.6338  1.1598 -0.8760
  551MOL0     H74375   5.558   7.602   2.307 -0.4040  1.2044 -1.2310
  551MOL0     H74376   5.707   7.608   2.380 -2.1864  3.1434  1.3285
  551MOL0     H74377   5.742   7.677   2.095  4.3948 -4.0642  1.3124
  551MOL0     H74378   5.809   7.754   2.229 -1.9135  2.7676  2.0888
  551MOL0     H74379   5.609   7.884   2.291 -3.1506 -1.6182  2.0333
  551MOL0     H74380   5.510   7.799   2.192 -0.4330  0.2978  0.6460
  551MOL0     H74381   5.577   8.039   2.095  1.2156  0.5856  2.8727
  551MOL0     H74382   5.602   7.892   1.991 -1.7445 -0.8546  0.4191
  551MOL0     H74383   5.992   8.060   2.076  1.0833 -3.3257  1.9151
  551MOL0     H74384   5.674   7.248   2.095 -1.0975 -1.9246  0.0822
  551MOL0     H74385   5.665   7.038   2.196 -1.4044  0.0133 -1.5505
  552MOL0     O74386   7.139   1.674  11.092  0.2905 -0.7273  0.3621
  552MOL0     C74387   7.220   1.665  11.006 -1.2523 -1.0054  0.3726
  552MOL0     O74388   7.272   1.549  10.951 -0.3531  1.1001 -0.3538
  552MOL0     C74389   7.242   1.425  11.002  0.0219  0.2635  0.1090
  552MOL0     C74390   7.325   1.365  11.101  0.2119 -0.3570 -0.0157
  552MOL0     C74391   7.290   1.236  11.149 -0.8896  0.5445 -0.2509
  552MOL0     C74392   7.172   1.171  11.110 -0.4170  0.1725 -0.3229
  552MOL0     O74393   7.130   1.047  11.152 -0.4741  0.3467 -0.2114
  552MOL0     C74394   7.188   0.996  11.265  0.5014 -1.1195 -0.1664
  552MOL0     C74395   7.129   0.873  11.321  0.2146 -0.2202 -0.1761
  552MOL0     C74396   7.165   0.855  11.466 -0.2418 -0.0715 -0.2624
  552MOL0     C74397   7.104   0.735  11.531  1.1396 -0.6011  0.1427
  552MOL0     C74398   6.958   0.739  11.559  0.7163  0.7199 -0.5285
  552MOL0     C74399   6.902   0.599  11.549  1.7191  0.8341 -0.5569
  552MOL0     C74400   6.772   0.595  11.642 -1.0291  0.0419 -0.3111
  552MOL0     C74401   6.808   0.566  11.785  0.6648 -0.2650 -0.5763
  552MOL0     N74402   6.681   0.574  11.874  0.5467 -0.7376  0.0294
  552MOL0     C74403   6.612   0.478  11.942  0.4094  0.7573  0.2364
  552MOL0     C74404   6.515   0.542  12.008  0.2077  0.5266  0.7382
  552MOL0     C74405   6.401   0.470  12.070  0.2999  0.1562 -0.1414
  552MOL0     C74406   6.270   0.550  12.067 -0.8217 -0.8449 -0.4549
  552MOL0     C74407   6.235   0.590  11.924 -1.1931 -0.4173 -0.3737
  552MOL0     C74408   6.123   0.705  11.914 -0.5605  0.0497  1.0391
  552MOL0     O74409   6.125   0.749  11.776  0.3113 -0.1863 -0.3093
  552MOL0     C74410   6.115   0.883  11.765 -0.3951  0.2249  0.1532
  552MOL0     C74411   6.248   0.947  11.765  0.9422 -0.3291 -0.5491
  552MOL0     C74412   6.247   1.088  11.762  0.5719  0.5054  0.0436
  552MOL0     C74413   6.389   1.147  11.781  0.6439 -0.6354  0.8311
  552MOL0     C74414   6.128   1.164  11.754 -0.0301 -0.2617 -0.0172
  552MOL0     C74415   6.109   1.318  11.755  0.7670 -0.0549 -0.8662
  552MOL0     O74416   6.224   1.396  11.774  0.1124 -1.2801 -0.0125
  552MOL0     C74417   6.210   1.531  11.763  0.1929 -0.3833 -0.3387
  552MOL0     C74418   6.135   1.599  11.658 -1.6131  0.3824  0.5711
  552MOL0     C74419   6.138   1.729  11.642  0.0131  0.0475  0.1803
  552MOL0     C74420   6.217   1.805  11.731 -0.1134 -1.0448  0.2056
  552MOL0     O74421   6.240   1.938  11.722 -0.0685 -0.1083 -0.0924
  552MOL0     C74422   6.258   2.003  11.595  0.3910 -0.1379  0.1771
  552MOL0     C74423   6.312   2.140  11.616  1.2302 -0.2576 -0.0900
  552MOL0     C74424   6.324   2.224  11.490 -0.4189 -1.3863 -0.3874
  552MOL0     C74425   6.189   2.298  11.458 -1.3139  0.3975 -0.0545
  552MOL0     C74426   6.196   2.415  11.353 -1.4759  0.0195  0.3473
  552MOL0     C74427   6.239   2.354  11.221  0.3826 -0.3454 -0.2242
  552MOL0     C74428   6.151   2.230  11.171  0.0016 -0.3110  0.6301
  552MOL0     C74429   6.180   2.202  11.026  0.6627  0.9190 -0.0016
  552MOL0    Cl74430   6.357   2.193  10.988  0.5940  0.0970 -0.2145
  552MOL0     C74431   6.278   1.752  11.847  0.6165  0.1172  0.6644
  552MOL0     C74432   6.276   1.610  11.860  0.9106 -0.3134 -0.1605
  552MOL0     O74433   5.994   1.366  11.748 -0.0692 -0.7287  0.1807
  552MOL0     C74434   6.013   1.097  11.741  0.7294  0.0668 -1.0692
  552MOL0     C74435   6.000   0.957  11.744  0.2806 -0.3872 -0.0268
  552MOL0     N74436   6.524   0.678  11.986 -0.3158  0.3053 -0.0553
  552MOL0     N74437   6.623   0.689  11.901 -0.1829  0.8634 -0.0667
  552MOL0     C74438   7.097   1.231  11.017  0.2513  0.0131  0.7263
  552MOL0     C74439   7.121   1.363  10.960  0.0534 -0.8469 -0.1375
  552MOL0     C74440   7.285   1.794  10.963  0.4079 -1.4517  0.1881
  552MOL0     C74441   7.263   1.917  11.028  0.5876 -0.4701  0.3307
  552MOL0     C74442   7.325   2.028  10.987 -0.4381 -0.5061 -0.1617
  552MOL0     C74443   7.405   2.027  10.880 -0.3485  0.2347  0.3253
  552MOL0     O74444   7.474   2.150  10.859  0.9021 -0.2198  0.2062
  552MOL0     C74445   7.581   2.159  10.763  0.3731 -0.7148 -0.2296
  552MOL0     C74446   7.616   2.291  10.710  0.0487 -0.7407 -0.1044
  552MOL0     C74447   7.739   2.311  10.630 -0.1217  0.4896 -0.3371
  552MOL0     C74448   7.749   2.445  10.556 -0.2372 -1.1732  0.7225
  552MOL0     C74449   7.718   2.560  10.641  1.3067 -0.3260 -0.0407
  552MOL0     C74450   7.672   2.645  10.718  0.3340  0.8425  1.2363
  552MOL0     C74451   7.422   1.906  10.807  0.2585 -0.5070  0.6198
  552MOL0     C74452   7.369   1.794  10.850  0.8408 -0.0785 -0.6608
  552MOL0     H74453   7.415   1.406  11.147 -1.9809  2.8915  1.7792
  552MOL0     H74454   7.353   1.196  11.227 -1.6487 -1.8312 -0.7719
  552MOL0     H74455   7.294   0.981  11.245  1.0781 -0.1693  1.9583
  552MOL0     H74456   7.181   1.077  11.338 -2.9284 -0.4983 -0.9889
  552MOL0     H74457   7.021   0.886  11.313  0.3668  1.2740  0.0022
  552MOL0     H74458   7.178   0.787  11.274  2.4162 -0.7907  2.8390
  552MOL0     H74459   7.273   0.843  11.477 -0.2961 -0.6859 -0.3465
  552MOL0     H74460   7.122   0.941  11.518 -1.5350  0.0299 -1.4376
  552MOL0     H74461   7.121   0.644  11.473 -1.2811 -2.5007  2.1291
  552MOL0     H74462   7.167   0.713  11.618  4.2365 -0.5250 -1.9350
  552MOL0     H74463   6.950   0.778  11.661  2.8364  0.8138 -0.3572
  552MOL0     H74464   6.909   0.806  11.487 -3.2040 -0.7726  0.5083
  552MOL0     H74465   6.881   0.582  11.443 -1.9374  0.2353  0.1213
  552MOL0     H74466   6.973   0.526  11.589  1.9599  0.5243 -1.5230
  552MOL0     H74467   6.728   0.694  11.626  0.7890  1.0573  0.6204
  552MOL0     H74468   6.714   0.508  11.610  2.2120 -1.4550 -2.7166
  552MOL0     H74469   6.880   0.641  11.820 -0.2595  0.3729  0.0054
  552MOL0     H74470   6.855   0.468  11.794  0.4263 -0.3003  0.4563
  552MOL0     H74471   6.625   0.373  11.919 -1.2243  0.8081 -1.0792
  552MOL0     H74472   6.383   0.371  12.028  3.5467  0.5342 -2.8526
  552MOL0     H74473   6.424   0.461  12.177  0.8245  0.5445 -0.2186
  552MOL0     H74474   6.289   0.647  12.115 -0.7345 -0.1176 -1.8888
  552MOL0     H74475   6.195   0.495  12.124  0.5520 -1.5158  0.7988
  552MOL0     H74476   6.205   0.492  11.885  3.6587 -2.0142 -0.7749
  552MOL0     H74477   6.324   0.625  11.871 -0.6262  0.7590  1.3052
  552MOL0     H74478   6.147   0.783  11.986 -1.4270 -0.2994  1.7157
  552MOL0     H74479   6.037   0.650  11.953  0.4764 -0.3614  2.8593
  552MOL0     H74480   6.340   0.890  11.757  2.4338  1.8639  0.0747
  552MOL0     H74481   6.413   1.203  11.690  0.8982  0.7502  1.7185
  552MOL0     H74482   6.389   1.216  11.866 -0.4588 -0.9771  1.1256
  552MOL0     H74483   6.469   1.075  11.797  2.9646  1.1133 -1.7381
  552MOL0     H74484   6.084   1.532  11.588 -1.0206  0.5430 -0.0163
  552MOL0     H74485   6.101   1.776  11.551  2.4271 -1.5217 -1.7433
  552MOL0     H74486   6.335   1.946  11.542  1.6406  1.2462  0.4359
  552MOL0     H74487   6.158   2.001  11.550 -0.6022  0.3599  2.2686
  552MOL0     H74488   6.250   2.184  11.694 -1.1796 -1.6703 -1.0882
  552MOL0     H74489   6.413   2.119  11.654  2.3356  0.9383 -2.1717
  552MOL0     H74490   6.358   2.171  11.401  1.1071 -1.7509  0.3781
  552MOL0     H74491   6.392   2.303  11.522 -0.9604 -1.3481  0.7094
  552MOL0     H74492   6.114   2.226  11.424 -1.2688 -0.1163  0.9006
  552MOL0     H74493   6.151   2.342  11.551  1.9858 -0.6147  1.9673
  552MOL0     H74494   6.256   2.494  11.398 -1.0118 -0.3690  0.4220
  552MOL0     H74495   6.097   2.461  11.345 -1.9978 -0.8750  1.4064
  552MOL0     H74496   6.245   2.425  11.138 -0.9952  0.8780  0.6611
  552MOL0     H74497   6.344   2.324  11.232  0.2027 -0.7250  0.5718
  552MOL0     H74498   6.046   2.251  11.192 -0.8417 -0.1645 -3.0283
  552MOL0     H74499   6.188   2.141  11.224 -1.7930 -2.1576 -1.0337
  552MOL0     H74500   6.144   2.281  10.960 -0.4112  4.8131  4.6540
  552MOL0     H74501   6.133   2.107  10.999  2.4925  0.0136 -0.0960
  552MOL0     H74502   6.329   1.816  11.919 -0.0103 -0.2361  1.4352
  552MOL0     H74503   6.319   1.565  11.949  3.8153  2.2147 -0.1244
  552MOL0     H74504   5.929   1.149  11.696 -0.9051 -2.9005 -1.6713
  552MOL0     H74505   5.905   0.906  11.731  0.8437 -1.4719  0.0300
  552MOL0     H74506   7.009   1.174  10.988  0.2866 -0.3010  1.2241
  552MOL0     H74507   7.047   1.398  10.889  0.2177  1.8307  0.9002
  552MOL0     H74508   7.197   1.926  11.114  0.3226  2.5220 -0.0753
  552MOL0     H74509   7.308   2.120  11.041 -0.6745 -0.7560  0.1943
  552MOL0     H74510   7.671   2.117  10.808  1.4027 -0.5764 -2.0801
  552MOL0     H74511   7.555   2.096  10.678  0.2044 -3.2521  1.5967
  552MOL0     H74512   7.636   2.358  10.795  2.3611 -0.1914 -0.9967
  552MOL0     H74513   7.541   2.329  10.640  4.1464  2.8929 -3.0746
  552MOL0     H74514   7.752   2.226  10.562 -0.9537 -0.3475  0.5291
  552MOL0     H74515   7.813   2.316  10.710 -2.6339 -4.2822  2.7959
  552MOL0     H74516   7.672   2.447  10.478 -0.2028  1.7295  0.6716
  552MOL0     H74517   7.841   2.463  10.499  0.9527 -1.3746  2.4744
  552MOL0     H74518   7.655   2.732  10.779 -1.3649  1.6688 -0.3051
  552MOL0     H74519   7.492   1.899  10.724  1.9950  0.7937  1.9063
  552MOL0     H74520   7.416   1.717  10.790  2.3249 -0.3392  0.7415
  553MOL0     O74521   8.246   2.387  10.494 -0.1947  0.4688  0.7998
  553MOL0     C74522   8.267   2.289  10.429  0.0681 -0.1155 -0.7054
  553MOL0     O74523   8.239   2.163  10.476 -0.2317 -0.0298 -0.2227
  553MOL0     C74524   8.197   2.142  10.610  0.2872 -0.0484 -0.1392
  553MOL0     C74525   8.065   2.118  10.644  0.0334  0.1669 -0.4760
  553MOL0     C74526   8.018   2.088  10.771  0.1420  0.3164 -0.3464
  553MOL0     C74527   8.111   2.104  10.874  0.0047  0.3920 -0.2856
  553MOL0     O74528   8.059   2.086  10.992  0.1685 -0.6028 -0.3277
  553MOL0     C74529   8.122   2.130  11.109  0.1995  1.0855 -0.0869
  553MOL0     C74530   8.065   2.084  11.239 -0.4279 -0.3141 -0.3162
  553MOL0     C74531   8.077   1.938  11.260 -1.0246  0.4489  0.6117
  553MOL0     C74532   7.990   1.913  11.378 -0.8255  0.2164  0.0639
  553MOL0     C74533   7.976   1.773  11.416  0.3798  0.2168  0.0401
  553MOL0     C74534   8.108   1.711  11.478 -0.6763  0.2722  0.3831
  553MOL0     C74535   8.084   1.564  11.539  0.3321 -1.1683 -0.3428
  553MOL0     C74536   8.047   1.462  11.431 -0.3409 -0.8399  0.3490
  553MOL0     N74537   8.042   1.333  11.493 -0.6373  0.0353  0.5285
  553MOL0     C74538   8.136   1.234  11.471 -0.3074  0.7408 -0.6572
  553MOL0     C74539   8.083   1.120  11.526 -0.4648  0.4114 -0.2238
  553MOL0     C74540   8.150   0.989  11.561 -0.6972 -1.1761 -0.0870
  553MOL0     C74541   8.298   0.977  11.508 -0.0949  0.3048  0.0052
  553MOL0     C74542   8.334   0.830  11.474 -0.5336  0.0767  0.0727
  553MOL0     C74543   8.273   0.763  11.350  0.0145 -0.0402  0.1295
  553MOL0     O74544   8.286   0.835  11.229 -0.8162 -0.1377  0.0585
  553MOL0     C74545   8.190   0.816  11.137  1.1278 -0.8293  0.0148
  553MOL0     C74546   8.124   0.692  11.116 -0.1393 -0.3857 -0.1686
  553MOL0     C74547   8.018   0.673  11.036  0.8021 -0.3821  0.8618
  553MOL0     C74548   7.978   0.526  11.015 -0.5195 -0.3944 -0.5111
  553MOL0     C74549   7.960   0.792  10.970 -0.1820 -0.0712 -0.6002
  553MOL0     C74550   7.836   0.776  10.875  0.3363 -0.5423 -0.0958
  553MOL0     O74551   7.800   0.898  10.820  0.2055 -0.3684 -0.0637
  553MOL0     C74552   7.704   0.894  10.725 -0.5975 -0.3986  0.9728
  553MOL0     C74553   7.658   0.786  10.642  0.4429 -0.0650  0.4978
  553MOL0     C74554   7.559   0.817  10.543 -0.5382  0.2485  0.2054
  553MOL0     C74555   7.498   0.940  10.534  0.5829 -0.1535  0.6963
  553MOL0     O74556   7.394   0.975  10.451  0.4987  0.6446 -0.2475
  553MOL0     C74557   7.440   0.985  10.317  0.5483 -0.4542  0.2663
  553MOL0     C74558   7.336   1.023  10.211  0.7803 -0.3590  0.3434
  553MOL0     C74559   7.346   0.969  10.068 -0.2721  1.1022  0.1022
  553MOL0     C74560   7.211   0.973  10.001  0.0873  0.0333  0.0799
  553MOL0     C74561   7.208   0.904   9.862  0.1503 -0.2501  0.9359
  553MOL0     C74562   7.191   0.999   9.739 -0.2522  0.2806  0.9428
  553MOL0     C74563   7.048   1.003   9.688  0.0374  1.2540  0.6280
  553MOL0     C74564   7.027   1.083   9.553 -1.4690 -0.3923  0.1430
  553MOL0    Cl74565   7.039   1.252   9.546  0.1467  0.2849 -0.0816
  553MOL0     C74566   7.534   1.042  10.623 -0.1005  0.5075  0.5772
  553MOL0     C74567   7.642   1.016  10.713  0.4190 -0.0784 -0.2235
  553MOL0     O74568   7.778   0.670  10.857 -0.1929  0.3818  0.1602
  553MOL0     C74569   8.029   0.911  10.984 -0.2981  0.3695  0.3639
  553MOL0     C74570   8.138   0.925  11.072  1.1966 -0.2128 -0.4922
  553MOL0     N74571   7.952   1.146  11.558 -0.1772 -0.2519 -0.4769
  553MOL0     N74572   7.928   1.276  11.541 -0.1432 -0.4520  0.5937
  553MOL0     C74573   8.243   2.132  10.842  0.1791 -0.9397  0.8283
  553MOL0     C74574   8.286   2.157  10.717 -0.2110  0.4571 -0.0634
  553MOL0     C74575   8.341   2.309  10.310  0.0293 -0.2589 -0.4217
  553MOL0     C74576   8.377   2.191  10.236  0.3724 -0.0165  0.3013
  553MOL0     C74577   8.442   2.195  10.113 -0.2604  0.1481 -0.1822
  553MOL0     C74578   8.467   2.322  10.057 -0.9724  0.6289  0.3069
  553MOL0     O74579   8.529   2.342   9.929  0.2647  0.2890  0.0147
  553MOL0     C74580   8.536   2.228   9.842  0.6638  1.2395  0.5890
  553MOL0     C74581   8.566   2.272   9.694 -0.5354 -0.1338  0.3188
  553MOL0     C74582   8.698   2.347   9.677 -1.2154 -0.9280 -0.1200
  553MOL0     C74583   8.719   2.421   9.546  0.0677 -0.1785 -0.0296
  553MOL0     C74584   8.860   2.431   9.519  0.0293  0.0689  0.3730
  553MOL0     C74585   8.977   2.448   9.504  0.7769 -0.4236  0.8609
  553MOL0     C74586   8.433   2.446  10.125  0.6809 -1.2033  0.3127
  553MOL0     C74587   8.363   2.440  10.251 -1.0192  0.2518  1.1447
  553MOL0     H74588   7.994   2.111  10.562 -0.6588  3.5711 -0.2958
  553MOL0     H74589   7.917   2.051  10.787  0.6825 -1.1630 -0.2284
  553MOL0     H74590   8.224   2.091  11.110  0.0287  0.6237  1.1113
  553MOL0     H74591   8.123   2.239  11.110 -1.3039  1.1147  0.3503
  553MOL0     H74592   8.112   2.141  11.319 -1.1215  0.7791 -0.6672
  553MOL0     H74593   7.962   2.118  11.224 -0.3365 -0.4609 -1.3933
  553MOL0     H74594   8.062   1.867  11.178  1.9460  0.2540  0.1425
  553MOL0     H74595   8.182   1.933  11.289 -0.9932 -3.0451  0.3836
  553MOL0     H74596   8.013   1.977  11.464 -0.2604 -0.5599  0.5093
  553MOL0     H74597   7.887   1.933  11.348 -0.9483  2.0820  1.5065
  553MOL0     H74598   7.893   1.760  11.487  0.5672  1.0099  0.4180
  553MOL0     H74599   7.963   1.719  11.322  3.6689  1.7713 -1.4879
  553MOL0     H74600   8.179   1.706  11.394 -4.2915 -1.2690 -2.8897
  553MOL0     H74601   8.146   1.766  11.565 -1.9148 -0.1535  1.2109
  553MOL0     H74602   8.175   1.541  11.594 -1.9491  0.6149  4.8483
  553MOL0     H74603   8.003   1.569  11.612 -1.8362 -2.4929 -2.4737
  553MOL0     H74604   8.122   1.462  11.351  0.8629 -2.9335  1.3736
  553MOL0     H74605   7.958   1.494  11.376  0.6478  3.2112  0.7396
  553MOL0     H74606   8.235   1.239  11.427 -0.9111 -1.4221 -2.4894
  553MOL0     H74607   8.156   0.995  11.670  1.1368  2.2094 -0.2635
  553MOL0     H74608   8.078   0.912  11.531 -1.3844 -0.3418 -0.6287
  553MOL0     H74609   8.370   1.028  11.573  0.9393 -0.7421 -0.2966
  553MOL0     H74610   8.305   1.028  11.412  0.1854 -0.2824 -0.2939
  553MOL0     H74611   8.331   0.763  11.561  0.4077 -1.4798 -1.0485
  553MOL0     H74612   8.442   0.828  11.460  0.6324 -3.4161  5.9948
  553MOL0     H74613   8.168   0.749  11.376  0.0736 -1.2313 -0.2291
  553MOL0     H74614   8.327   0.668  11.351 -0.0281 -0.1092 -1.4851
  553MOL0     H74615   8.145   0.616  11.190 -1.3587 -0.1534  0.4362
  553MOL0     H74616   8.053   0.461  11.059  1.6622  1.5319 -1.1595
  553MOL0     H74617   7.880   0.503  11.059 -1.1340  0.8925 -1.1424
  553MOL0     H74618   7.974   0.492  10.911 -2.3774 -0.1061 -0.5708
  553MOL0     H74619   7.682   0.682  10.662 -1.9243 -0.5116  1.3129
  553MOL0     H74620   7.521   0.740  10.478  1.2858 -0.0313 -0.5958
  553MOL0     H74621   7.525   1.053  10.304 -0.5765  0.7001 -1.5222
  553MOL0     H74622   7.482   0.890  10.284  2.8890  2.0176 -5.0333
  553MOL0     H74623   7.239   0.997  10.254  0.3861 -1.1067 -0.9420
  553MOL0     H74624   7.355   1.130  10.209 -0.8462 -0.0060  1.5672
  553MOL0     H74625   7.367   0.862  10.076  1.4043  1.3044 -0.9706
  553MOL0     H74626   7.428   1.014  10.010 -0.3338  0.5736 -0.4093
  553MOL0     H74627   7.142   0.929  10.074 -1.0864 -0.8797 -1.5287
  553MOL0     H74628   7.173   1.074   9.989 -1.7496 -0.5162  0.9126
  553MOL0     H74629   7.128   0.830   9.868  0.9481 -1.2589 -0.1791
  553MOL0     H74630   7.302   0.848   9.861 -0.2092 -0.8645  0.7201
  553MOL0     H74631   7.221   1.101   9.768 -1.0301  1.4133 -1.8677
  553MOL0     H74632   7.255   0.973   9.654 -2.7333 -0.7115 -0.7260
  553MOL0     H74633   6.968   1.034   9.756 -0.4114 -2.1177  1.8300
  553MOL0     H74634   7.015   0.900   9.670  1.4336  1.0452 -1.0409
  553MOL0     H74635   6.924   1.078   9.518 -0.6536  0.9969 -2.7161
  553MOL0     H74636   7.092   1.039   9.477  0.8836 -1.4845  2.6104
  553MOL0     H74637   7.471   1.129  10.619 -0.5203  0.2370  1.1577
  553MOL0     H74638   7.666   1.089  10.790  1.3632 -0.3494 -0.2469
  553MOL0     H74639   8.009   0.993  10.915  3.6053  0.3591 -1.0372
  553MOL0     H74640   8.177   1.026  11.077 -0.1093  0.2610  1.9900
  553MOL0     H74641   8.336   2.147  10.897  3.0504 -4.7822 -2.3917
  553MOL0     H74642   8.392   2.164  10.696 -0.9016 -0.2695 -5.0373
  553MOL0     H74643   8.339   2.097  10.275 -0.3091 -0.6157 -1.6968
  553MOL0     H74644   8.471   2.101  10.066 -2.3382 -0.8303  0.3496
  553MOL0     H74645   8.619   2.161   9.868 -0.9059 -1.9561 -1.9650
  553MOL0     H74646   8.445   2.168   9.839  2.5178 -1.8384 -3.0314
  553MOL0     H74647   8.484   2.333   9.653 -0.1641  1.9124  2.4379
  553MOL0     H74648   8.572   2.180   9.634 -2.7020  0.6546 -1.2617
  553MOL0     H74649   8.776   2.272   9.688  0.3360  0.3466 -1.8037
  553MOL0     H74650   8.720   2.425   9.751 -0.6580 -2.7458  1.7227
  553MOL0     H74651   8.676   2.522   9.550  1.2177  0.2936  1.1549
  553MOL0     H74652   8.660   2.375   9.467 -1.1993  2.8885 -1.0361
  553MOL0     H74653   9.083   2.456   9.499  0.7182 -0.3824 -0.8976
  553MOL0     H74654   8.453   2.541  10.078 -0.6970  0.5788  3.0875
  553MOL0     H74655   8.325   2.531  10.297  0.0970  0.3300  1.9407
  554MOL0     O74656   9.823   0.656  10.857  0.5697  0.0739 -0.2127
  554MOL0     C74657   9.881   0.618  10.955 -0.7250  0.3081 -0.4741
  554MOL0     O74658   9.900   0.487  10.984 -0.5265 -0.8429  0.0353
  554MOL0     C74659   9.846   0.400  10.894 -0.3498 -0.8419  0.3801
  554MOL0     C74660   9.907   0.367  10.773  0.6547 -0.0978  0.8088
  554MOL0     C74661   9.849   0.271  10.694 -1.0610  0.3061  0.1068
  554MOL0     C74662   9.723   0.211  10.728 -0.8498 -0.8018  0.8441
  554MOL0     O74663   9.674   0.123  10.637 -0.3908  0.6512 -0.1022
  554MOL0     C74664   9.555   0.045  10.666  0.5187  0.1555  0.6121
  554MOL0     C74665   9.440   0.121  10.599  0.3740  0.1062 -0.3218
  554MOL0     C74666   9.300   0.065  10.646  0.3124 -0.0750 -0.1855
  554MOL0     C74667   9.296  -0.087  10.661 -0.2030 -0.7428 -0.0002
  554MOL0     C74668   9.155  -0.146  10.644  0.0732  0.5504 -0.4908
  554MOL0     C74669   9.158  -0.293  10.612 -0.8234  0.0440 -0.2020
  554MOL0     C74670   9.010  -0.349  10.585  0.2943  0.2085 -0.6402
  554MOL0     C74671   9.014  -0.488  10.642  1.2782  0.0610 -1.1639
  554MOL0     N74672   8.917  -0.589  10.603 -0.1600  0.3851  0.0271
  554MOL0     C74673   8.928  -0.730  10.616  0.1042 -0.9147  1.1828
  554MOL0     C74674   8.796  -0.775  10.621 -0.9832  0.3161 -0.6746
  554MOL0     C74675   8.762  -0.912  10.659  0.8278  0.2715 -0.1801
  554MOL0     C74676   8.788  -1.005  10.546 -0.2994 -0.2412 -0.4575
  554MOL0     C74677   8.831  -1.150  10.597 -0.3116  0.5490 -0.5621
  554MOL0     C74678   8.901  -1.231  10.483 -0.3791  0.2122  0.3597
  554MOL0     O74679   9.037  -1.241  10.497 -0.0399 -0.3047  0.3172
  554MOL0     C74680   9.093  -1.117  10.499 -0.2445  0.5815 -0.1673
  554MOL0     C74681   9.098  -1.026  10.393 -0.1252  0.1931  1.0336
  554MOL0     C74682   9.166  -0.905  10.401  0.4973 -0.6196 -0.2172
  554MOL0     C74683   9.156  -0.808  10.287 -1.0404  0.4864  0.1954
  554MOL0     C74684   9.258  -0.875  10.507 -0.0884 -0.5869 -0.0790
  554MOL0     C74685   9.331  -0.748  10.534 -0.2048  0.1682 -0.4774
  554MOL0     O74686   9.418  -0.740  10.637  0.6967  0.5040 -0.0013
  554MOL0     C74687   9.480  -0.623  10.666 -0.5180  0.4822  0.2464
  554MOL0     C74688   9.428  -0.537  10.767  0.1914 -0.0884  1.0930
  554MOL0     C74689   9.498  -0.421  10.794 -0.5234  1.1188 -0.6758
  554MOL0     C74690   9.614  -0.385  10.721 -0.6423 -0.2032  0.1547
  554MOL0     O74691   9.674  -0.270  10.745 -0.5615  0.6395  0.4823
  554MOL0     C74692   9.815  -0.286  10.761 -0.0321  0.8775  0.4547
  554MOL0     C74693   9.877  -0.183  10.850 -1.0939  0.6959 -0.3158
  554MOL0     C74694   9.868  -0.230  10.996  0.8474  0.7313  0.3158
  554MOL0     C74695   9.729  -0.200  11.057  0.5483  0.6168 -0.4291
  554MOL0     C74696   9.718  -0.229  11.204 -0.1635 -0.0804 -0.4822
  554MOL0     C74697   9.824  -0.180  11.301 -0.6269 -0.5513  1.0315
  554MOL0     C74698   9.803  -0.245  11.444 -0.0613  0.9639  0.1337
  554MOL0     C74699   9.920  -0.224  11.542 -0.3314  0.1716  0.5660
  554MOL0    Cl74700   9.935  -0.058  11.597 -0.2174  0.0869 -0.1907
  554MOL0     C74701   9.649  -0.470  10.613  0.8645 -0.1015 -0.2784
  554MOL0     C74702   9.584  -0.590  10.594 -0.2396  0.1032  0.0797
  554MOL0     O74703   9.288  -0.643  10.471 -0.2252  0.0686  0.3031
  554MOL0     C74704   9.259  -0.976  10.607 -0.0821 -0.7674 -0.0110
  554MOL0     C74705   9.169  -1.077  10.618 -0.6683 -0.1950  0.5379
  554MOL0     N74706   8.717  -0.667  10.591 -1.5029 -0.1997  0.2811
  554MOL0     N74707   8.787  -0.563  10.595  0.6374 -0.2253 -0.9338
  554MOL0     C74708   9.661   0.258  10.845  0.5890  0.1358 -0.1233
  554MOL0     C74709   9.728   0.345  10.937  0.5684  0.3125  1.0370
  554MOL0     C74710   9.945   0.715  11.052 -0.9959 -0.7310  0.4625
  554MOL0     C74711  10.003   0.674  11.174  0.8032 -0.5669  0.2914
  554MOL0     C74712  10.041   0.772  11.267  1.1250 -0.1582  0.6838
  554MOL0     C74713  10.038   0.907  11.235  0.0253  0.3435  0.3479
  554MOL0     O74714  10.093   1.003  11.320 -0.0889  0.3892 -0.5964
  554MOL0     C74715  10.041   1.136  11.315 -0.2101  0.1196 -0.1963
  554MOL0     C74716   9.890   1.145  11.344  0.2256  0.0130  0.2489
  554MOL0     C74717   9.853   1.073  11.478 -0.6233 -0.0733 -0.3255
  554MOL0     C74718   9.929   1.132  11.598  0.3661  1.1278  0.4410
  554MOL0     C74719   9.861   1.114  11.731  0.4045 -0.9996 -0.5483
  554MOL0     C74720   9.836   1.105  11.850  0.6926 -0.2885  0.5668
  554MOL0     C74721   9.983   0.948  11.113  0.4578 -0.7753 -0.8018
  554MOL0     C74722   9.934   0.847  11.022  0.5196 -0.9776 -0.3296
  554MOL0     H74723   9.990   0.430  10.741 -0.1848 -0.2152 -1.8211
  554MOL0     H74724   9.891   0.239  10.599  1.1373  0.7787  0.8660
  554MOL0     H74725   9.561  -0.046  10.605 -1.3279  1.5124 -1.7965
  554MOL0     H74726   9.528   0.028  10.770  0.1018  1.1425  0.6683
  554MOL0     H74727   9.439   0.220  10.646  0.4439 -0.2482  0.4305
  554MOL0     H74728   9.467   0.122  10.493 -1.0442 -2.8950 -0.8095
  554MOL0     H74729   9.290   0.087  10.753  0.7758 -0.2237 -0.1109
  554MOL0     H74730   9.219   0.104  10.585 -1.6438 -2.9902  0.3404
  554MOL0     H74731   9.355  -0.135  10.582  1.6850 -2.8042  2.4885
  554MOL0     H74732   9.329  -0.131  10.756  0.5917 -0.2752 -0.0523
  554MOL0     H74733   9.085  -0.139  10.727  0.6739 -2.4143  0.3679
  554MOL0     H74734   9.112  -0.091  10.559  2.5744  1.3896 -1.3129
  554MOL0     H74735   9.217  -0.312  10.522 -1.1001  0.1361 -0.4016
  554MOL0     H74736   9.199  -0.341  10.702  1.0230 -1.4203 -1.7421
  554MOL0     H74737   8.926  -0.308  10.642 -0.8057  0.7787 -2.5597
  554MOL0     H74738   8.999  -0.351  10.476 -0.3377  3.1953 -0.7020
  554MOL0     H74739   9.002  -0.478  10.750  0.7584  1.7172 -1.3589
  554MOL0     H74740   9.113  -0.534  10.634  0.3104 -2.0917 -1.3787
  554MOL0     H74741   9.022  -0.783  10.631  1.3374  1.0716  0.8520
  554MOL0     H74742   8.825  -0.944  10.742 -0.5113  0.9006  1.1235
  554MOL0     H74743   8.659  -0.907  10.697  1.2626  2.5599  0.8460
  554MOL0     H74744   8.858  -0.958  10.476 -0.9710  0.8010 -0.4544
  554MOL0     H74745   8.696  -1.016  10.488  1.0364  0.4014 -2.8546
  554MOL0     H74746   8.737  -1.195  10.629 -1.5501  1.9034 -2.1684
  554MOL0     H74747   8.899  -1.147  10.683 -0.0388  1.4883 -0.8042
  554MOL0     H74748   8.862  -1.188  10.390 -0.4322  0.7809  0.6446
  554MOL0     H74749   8.870  -1.336  10.477  0.0762  0.0381 -5.4237
  554MOL0     H74750   9.039  -1.039  10.303  0.1891  2.3150  0.4623
  554MOL0     H74751   9.116  -0.848  10.194  2.9758 -0.2886 -1.3812
  554MOL0     H74752   9.099  -0.721  10.320  1.3045  0.9577  3.5463
  554MOL0     H74753   9.257  -0.789  10.252  0.3656 -3.8892  1.1977
  554MOL0     H74754   9.341  -0.570  10.823  0.7830  0.2722  2.2455
  554MOL0     H74755   9.466  -0.365  10.882  3.5585  2.5148  0.1185
  554MOL0     H74756   9.842  -0.391  10.773  0.4378  0.4628 -3.1906
  554MOL0     H74757   9.856  -0.257  10.664  1.3155 -0.4247  0.5978
  554MOL0     H74758   9.980  -0.164  10.819 -2.1153  1.4352 -3.5919
  554MOL0     H74759   9.827  -0.087  10.837 -0.5862  1.3007  1.7365
  554MOL0     H74760   9.944  -0.168  11.043  1.5946 -0.0276  0.1213
  554MOL0     H74761   9.899  -0.335  10.994  0.5632  0.6360 -2.5088
  554MOL0     H74762   9.699  -0.098  11.033  2.8187  1.7174  1.0540
  554MOL0     H74763   9.647  -0.262  11.021  0.2534 -1.5032  3.3619
  554MOL0     H74764   9.712  -0.338  11.215 -2.8769  0.0422  0.1410
  554MOL0     H74765   9.619  -0.198  11.239 -0.4867 -1.5730  0.0097
  554MOL0     H74766   9.929  -0.202  11.276 -1.1567 -0.4114 -1.6704
  554MOL0     H74767   9.825  -0.071  11.296  3.0030 -0.4843 -1.9498
  554MOL0     H74768   9.805  -0.354  11.434  0.7211  0.7936  1.7979
  554MOL0     H74769   9.705  -0.209  11.477 -0.9225  0.4468 -1.7511
  554MOL0     H74770  10.014  -0.259  11.499 -2.4621 -0.8892 -3.8460
  554MOL0     H74771   9.890  -0.271  11.636  1.5239  0.7196  1.4758
  554MOL0     H74772   9.732  -0.437  10.552  1.8979  1.8424  1.9788
  554MOL0     H74773   9.613  -0.656  10.512 -0.0105  1.4652 -0.9680
  554MOL0     H74774   9.329  -0.955  10.687 -0.5630  2.5023 -0.3039
  554MOL0     H74775   9.153  -1.139  10.706 -2.4701  1.4889  1.4606
  554MOL0     H74776   9.561   0.226  10.874  1.0212  0.2720  1.6078
  554MOL0     H74777   9.677   0.367  11.030  1.4355 -0.3108  1.6730
  554MOL0     H74778  10.013   0.569  11.198  1.6396 -0.7806 -0.9034
  554MOL0     H74779  10.078   0.748  11.367 -0.5845  0.6901  1.5729
  554MOL0     H74780  10.103   1.204  11.374 -0.3854  2.1286 -2.2125
  554MOL0     H74781  10.067   1.167  11.214  1.7165  1.8178  0.7519
  554MOL0     H74782   9.835   1.094  11.265 -0.8252  0.0270  0.9524
  554MOL0     H74783   9.866   1.251  11.353 -1.3726 -0.0196 -2.4933
  554MOL0     H74784   9.880   0.967  11.469  1.7597  0.5719 -1.5903
  554MOL0     H74785   9.744   1.082  11.477 -1.0508 -3.5180  0.6131
  554MOL0     H74786   9.954   1.238  11.585  0.5198  1.4023  2.6026
  554MOL0     H74787  10.027   1.083  11.594 -0.9855 -1.7705 -2.9830
  554MOL0     H74788   9.794   1.098  11.949  1.5289  0.9771  1.0242
  554MOL0     H74789   9.973   1.054  11.090  0.1233 -0.3321  1.2091
  554MOL0     H74790   9.884   0.885  10.933  0.9761  0.2758 -0.0733
  555MOL0     O74791   4.637   0.739   6.895  0.2210 -0.0016  0.2867
  555MOL0     C74792   4.615   0.654   6.810 -0.2381  0.4661  0.9179
  555MOL0     O74793   4.495   0.632   6.738  0.0883  0.4934  0.1042
  555MOL0     C74794   4.394   0.706   6.783 -0.0099  0.3700  0.7539
  555MOL0     C74795   4.363   0.826   6.724  0.5765 -0.5106 -0.0982
  555MOL0     C74796   4.234   0.891   6.748 -0.0147 -0.3716  0.5310
  555MOL0     C74797   4.143   0.843   6.830  1.1717 -0.5433 -0.5498
  555MOL0     O74798   4.020   0.901   6.857 -0.6826  0.2031 -0.1505
  555MOL0     C74799   3.989   1.024   6.805  0.0700  0.3223 -0.9331
  555MOL0     C74800   3.870   1.067   6.893  0.9617 -0.2526 -0.8980
  555MOL0     C74801   3.766   1.143   6.808  0.5295  0.1130 -0.7468
  555MOL0     C74802   3.807   1.282   6.767  0.7242  1.3888  1.5331
  555MOL0     C74803   3.707   1.382   6.699  0.4592  1.3235  0.1389
  555MOL0     C74804   3.610   1.307   6.602  0.4528 -0.1178  0.1264
  555MOL0     C74805   3.499   1.404   6.575 -0.2902  0.4518  0.2044
  555MOL0     C74806   3.381   1.331   6.502 -0.6728  0.3117  0.4098
  555MOL0     N74807   3.420   1.274   6.364  0.2637 -0.8354 -0.3320
  555MOL0     C74808   3.441   1.146   6.336 -0.3538  0.5466 -0.4345
  555MOL0     C74809   3.483   1.142   6.208 -0.5078  0.0976 -0.7722
  555MOL0     C74810   3.479   1.019   6.121 -0.9424  0.0638 -0.2295
  555MOL0     C74811   3.338   0.963   6.116  0.5518  0.1166  0.3114
  555MOL0     C74812   3.334   0.833   6.037 -1.0526  0.8472  0.9540
  555MOL0     C74813   3.202   0.760   6.051  0.7267 -0.7250 -0.6162
  555MOL0     O74814   3.173   0.699   6.181 -0.1657 -0.5345  0.4693
  555MOL0     C74815   3.041   0.676   6.204  0.9792 -0.1894  0.5561
  555MOL0     C74816   2.961   0.741   6.304  0.6083  0.3120 -0.1207
  555MOL0     C74817   2.829   0.718   6.334  0.0331 -0.2666 -0.8469
  555MOL0     C74818   2.763   0.816   6.439 -0.0945 -0.5347  0.1164
  555MOL0     C74819   2.756   0.633   6.246  0.6461 -0.5550  0.3184
  555MOL0     C74820   2.602   0.619   6.248 -0.1940  0.1933 -0.1526
  555MOL0     O74821   2.544   0.536   6.153  0.0775  0.1731 -0.1180
  555MOL0     C74822   2.408   0.542   6.145  0.0423  0.0488 -0.4516
  555MOL0     C74823   2.333   0.467   6.237  0.8903  0.8016  0.4247
  555MOL0     C74824   2.190   0.462   6.232  0.2387 -1.4201  0.3220
  555MOL0     C74825   2.117   0.531   6.130  0.0495 -0.1546  0.8157
  555MOL0     O74826   1.980   0.527   6.143 -0.3043  0.0964  0.3918
  555MOL0     C74827   1.882   0.577   6.037  0.1371 -0.1286  0.3030
  555MOL0     C74828   1.804   0.455   5.982 -0.0902  0.0273  0.8314
  555MOL0     C74829   1.713   0.397   6.093 -0.1054 -0.2362  0.2752
  555MOL0     C74830   1.699   0.243   6.048  0.7588  0.3070 -0.5532
  555MOL0     C74831   1.594   0.188   6.145  0.4268 -0.4085 -0.1553
  555MOL0     C74832   1.485   0.116   6.069  0.4299 -0.6505 -0.2964
  555MOL0     C74833   1.378   0.209   6.008  0.3027 -1.0415  0.2120
  555MOL0     C74834   1.275   0.122   5.934 -0.5135 -0.1607 -0.0789
  555MOL0    Cl74835   1.179   0.226   5.837  0.0717  0.2345 -0.1663
  555MOL0     C74836   2.193   0.618   6.050 -0.1734 -0.1978  0.3485
  555MOL0     C74837   2.333   0.617   6.055  0.1085  0.2550  1.1997
  555MOL0     O74838   2.541   0.669   6.344 -0.6291 -1.3845 -0.2158
  555MOL0     C74839   2.829   0.573   6.134  0.0436  0.1381  1.0298
  555MOL0     C74840   2.965   0.591   6.115  0.0065 -0.6348  0.9329
  555MOL0     N74841   3.501   1.273   6.161  0.0043  0.4790  0.3252
  555MOL0     N74842   3.456   1.352   6.255  0.4691  0.8517 -0.0338
  555MOL0     C74843   4.180   0.726   6.897  0.1836  0.0616  0.2503
  555MOL0     C74844   4.305   0.658   6.878  0.5593 -0.6134 -0.7778
  555MOL0     C74845   4.738   0.579   6.769 -0.1536  0.5242  0.8980
  555MOL0     C74846   4.737   0.503   6.650 -0.1981 -0.3157  0.4496
  555MOL0     C74847   4.831   0.411   6.625  0.5222 -0.2421  0.7566
  555MOL0     C74848   4.947   0.413   6.704 -0.2318 -0.3052  0.3338
  555MOL0     O74849   5.030   0.310   6.668 -0.4196 -0.3919 -0.5777
  555MOL0     C74850   5.146   0.274   6.743  0.8496  1.0238  0.1058
  555MOL0     C74851   5.200   0.149   6.687 -0.3167 -1.3197 -0.7124
  555MOL0     C74852   5.328   0.113   6.752  0.2014 -0.0064 -0.2216
  555MOL0     C74853   5.454   0.204   6.729 -0.2884  0.3703  0.7487
  555MOL0     C74854   5.491   0.225   6.591 -0.7376 -0.2225  0.3399
  555MOL0     C74855   5.533   0.252   6.479  0.0191  0.4235  1.0150
  555MOL0     C74856   4.961   0.490   6.816  0.9137 -0.9762  0.0654
  555MOL0     C74857   4.852   0.575   6.846  0.9088 -0.5047 -0.1948
  555MOL0     H74858   4.423   0.864   6.641  1.1230 -2.0445 -0.4264
  555MOL0     H74859   4.218   0.977   6.685  1.9495 -0.2987  0.0789
  555MOL0     H74860   4.062   1.106   6.807 -1.8128  2.0746 -0.2687
  555MOL0     H74861   3.963   1.006   6.700 -3.5573  0.2702 -0.1530
  555MOL0     H74862   3.819   0.978   6.931  0.4406 -1.4633 -4.1013
  555MOL0     H74863   3.909   1.124   6.978 -0.1954  0.3526 -0.7622
  555MOL0     H74864   3.747   1.085   6.717  0.5946  0.2628 -0.8560
  555MOL0     H74865   3.665   1.154   6.847  0.9028 -1.0292  0.6161
  555MOL0     H74866   3.841   1.340   6.853 -0.4450  1.0925  2.2157
  555MOL0     H74867   3.887   1.261   6.695  0.9235 -1.5858  2.5054
  555MOL0     H74868   3.646   1.431   6.775 -2.7666 -2.3284  0.1704
  555MOL0     H74869   3.764   1.448   6.633  3.0250 -0.5537  0.3004
  555MOL0     H74870   3.671   1.280   6.516  1.7119  0.5775  0.7829
  555MOL0     H74871   3.566   1.215   6.643 -2.8896  0.7776 -1.1443
  555MOL0     H74872   3.452   1.444   6.665  1.0933  4.4768 -0.6615
  555MOL0     H74873   3.524   1.492   6.515 -0.6931  1.2499  1.1743
  555MOL0     H74874   3.293   1.394   6.487 -0.2331  1.0284  0.7492
  555MOL0     H74875   3.352   1.253   6.573  0.2593  1.2590  1.8883
  555MOL0     H74876   3.431   1.055   6.394  1.1471 -0.6547 -1.9744
  555MOL0     H74877   3.502   1.047   6.018  0.0408  0.0734 -0.0100
  555MOL0     H74878   3.552   0.946   6.157  1.1967  2.0704 -0.3235
  555MOL0     H74879   3.267   1.033   6.070  3.0540  2.0991 -0.7665
  555MOL0     H74880   3.299   0.943   6.216  0.6413  2.1361  0.7862
  555MOL0     H74881   3.415   0.762   6.051 -1.5374 -0.2161 -1.2177
  555MOL0     H74882   3.348   0.866   5.934  0.9549  0.8879  1.2038
  555MOL0     H74883   3.184   0.687   5.972 -2.3920 -0.4710 -0.2820
  555MOL0     H74884   3.125   0.836   6.034  0.5050 -0.9843 -0.7684
  555MOL0     H74885   3.018   0.804   6.371 -0.6887  1.9483 -0.4701
  555MOL0     H74886   2.699   0.766   6.512 -2.6267 -1.8728 -2.7804
  555MOL0     H74887   2.838   0.859   6.505 -1.8192 -0.4066  2.1017
  555MOL0     H74888   2.714   0.906   6.400  1.6111  0.3976  0.0342
  555MOL0     H74889   2.373   0.421   6.327 -1.3182  0.6863  1.4170
  555MOL0     H74890   2.127   0.416   6.307 -2.9587  3.1099  0.8252
  555MOL0     H74891   1.812   0.635   6.097  1.2309  0.8623  0.6438
  555MOL0     H74892   1.923   0.639   5.957 -0.7595  0.1569  0.0474
  555MOL0     H74893   1.739   0.482   5.898  1.6733  1.2064 -0.2444
  555MOL0     H74894   1.875   0.380   5.944 -3.1491 -3.6173  1.7694
  555MOL0     H74895   1.617   0.449   6.081  0.6071  0.8263 -1.2183
  555MOL0     H74896   1.749   0.411   6.195 -1.0922  0.1744  0.5751
  555MOL0     H74897   1.663   0.245   5.945 -0.4298  0.0681 -0.1626
  555MOL0     H74898   1.791   0.188   6.067 -0.0038 -1.8181 -2.5350
  555MOL0     H74899   1.541   0.264   6.203  1.2337  1.3517 -1.6079
  555MOL0     H74900   1.640   0.119   6.217 -1.2391  1.0295  2.4247
  555MOL0     H74901   1.522   0.059   5.984  0.1076 -1.4275  0.0781
  555MOL0     H74902   1.429   0.052   6.138 -1.5642  1.0312 -0.2608
  555MOL0     H74903   1.433   0.260   5.928  1.2846 -3.1850 -0.5538
  555MOL0     H74904   1.337   0.276   6.083  4.0801  0.0893  1.5007
  555MOL0     H74905   1.207   0.075   6.006 -0.4871  1.1528  0.8373
  555MOL0     H74906   1.307   0.035   5.876 -1.3465  0.1475 -1.0191
  555MOL0     H74907   2.135   0.673   5.977 -4.7516 -0.0831  3.6168
  555MOL0     H74908   2.383   0.681   5.982  0.6887 -2.3890 -0.8565
  555MOL0     H74909   2.775   0.525   6.053  0.9509  0.4067  0.2427
  555MOL0     H74910   3.016   0.548   6.029  1.2870  1.0758  0.7818
  555MOL0     H74911   4.099   0.696   6.963 -1.0087  2.4667 -0.0046
  555MOL0     H74912   4.345   0.569   6.926  0.8462 -0.2528 -0.3478
  555MOL0     H74913   4.650   0.506   6.584  0.9011 -1.2375 -1.1045
  555MOL0     H74914   4.807   0.346   6.542 -0.3395  0.3509  0.5332
  555MOL0     H74915   5.210   0.362   6.732  2.2025  0.0598  0.1408
  555MOL0     H74916   5.141   0.251   6.850  2.4802  0.7733  0.1534
  555MOL0     H74917   5.217   0.154   6.579  2.2139  0.1918 -0.3274
  555MOL0     H74918   5.121   0.074   6.702 -1.1173 -0.4218 -0.2981
  555MOL0     H74919   5.365   0.014   6.723  1.6999  0.2170  0.8054
  555MOL0     H74920   5.325   0.098   6.860  0.4116 -1.4767 -0.4030
  555MOL0     H74921   5.544   0.154   6.767  0.5241  2.2655  1.4160
  555MOL0     H74922   5.431   0.299   6.777  0.4530 -1.4752  5.4034
  555MOL0     H74923   5.573   0.294   6.388  1.0011  0.4754  1.4609
  555MOL0     H74924   5.045   0.464   6.880 -0.9070 -2.5858  1.9165
  555MOL0     H74925   4.848   0.636   6.936  2.8226  1.5111 -1.3816
  556MOL0     O74926   8.968  10.529   4.318 -1.2208 -0.4659  0.0181
  556MOL0     C74927   9.042  10.451   4.249 -0.4036 -0.1546 -0.5834
  556MOL0     O74928   9.177  10.466   4.235 -0.8007  0.6295 -0.0554
  556MOL0     C74929   9.236  10.572   4.298  0.7369 -1.0244  0.5802
  556MOL0     C74930   9.298  10.542   4.421 -1.3453  0.6776  0.0952
  556MOL0     C74931   9.368  10.638   4.488 -0.6877  0.6451  0.3218
  556MOL0     C74932   9.384  10.772   4.437 -1.3990  0.2696 -0.1131
  556MOL0     O74933   9.468  10.856   4.521  0.3808 -1.0411  0.2261
  556MOL0     C74934   9.528  10.961   4.444  0.4520 -0.3611  0.2249
  556MOL0     C74935   9.652  11.018   4.517 -0.1842  0.2421 -0.1433
  556MOL0     C74936   9.752  10.914   4.574  0.1405 -0.0750  0.0278
  556MOL0     C74937   9.788  10.808   4.471 -0.1775  0.4157 -0.1532
  556MOL0     C74938   9.906  10.718   4.504 -0.4907 -0.0508 -0.6143
  556MOL0     C74939   9.972  10.627   4.396  0.5880 -0.4892 -0.5956
  556MOL0     C74940  10.099  10.552   4.430 -0.1563  1.3125 -0.5159
  556MOL0     C74941  10.167  10.508   4.300  0.6007 -0.2910 -0.1059
  556MOL0     N74942  10.306  10.471   4.325  0.0939  0.1854  0.6142
  556MOL0     C74943  10.396  10.549   4.385 -0.0716 -0.4196 -0.1319
  556MOL0     C74944  10.516  10.481   4.373 -0.1865 -0.6216  0.1514
  556MOL0     C74945  10.647  10.534   4.433  0.1247  0.2070  0.8111
  556MOL0     C74946  10.772  10.468   4.361 -0.2583  0.0120  0.4846
  556MOL0     C74947  10.898  10.563   4.368  0.6602 -0.2700  0.1376
  556MOL0     C74948  10.968  10.596   4.501 -0.2585 -0.2652  0.0754
  556MOL0     O74949  11.051  10.484   4.550  0.1887  0.6092 -0.7578
  556MOL0     C74950  11.163  10.525   4.614  0.7651  0.0824  0.3349
  556MOL0     C74951  11.180  10.629   4.698 -0.1107 -0.0741 -0.5851
  556MOL0     C74952  11.301  10.659   4.759  0.4449 -0.4519  1.6123
  556MOL0     C74953  11.310  10.767   4.857 -0.2316 -0.7106 -0.1468
  556MOL0     C74954  11.408  10.562   4.737 -0.0974 -0.3181  0.5040
  556MOL0     C74955  11.545  10.584   4.792 -0.4014  0.1126 -0.0729
  556MOL0     O74956  11.628  10.466   4.790  0.0062 -0.7289 -0.0173
  556MOL0     C74957  11.762  10.494   4.817 -0.1092  0.9168 -0.1816
  556MOL0     C74958  11.859  10.459   4.729  0.2972  0.4447  0.6138
  556MOL0     C74959  11.996  10.478   4.762  0.5845  0.1438  0.0717
  556MOL0     C74960  12.029  10.522   4.887  0.8251  0.2186 -0.3674
  556MOL0     O74961  12.164  10.523   4.927 -0.2403  0.1619  0.2752
  556MOL0     C74962  12.263  10.524   4.824  1.1236 -0.3090  0.4992
  556MOL0     C74963  12.395  10.579   4.891 -1.1836 -0.2251  0.6422
  556MOL0     C74964  12.512  10.570   4.789  0.2189  0.2162 -0.3809
  556MOL0     C74965  12.627  10.674   4.800  0.6702 -0.4267 -0.9805
  556MOL0     C74966  12.753  10.612   4.741 -0.6627 -0.5005 -0.3533
  556MOL0     C74967  12.822  10.504   4.825 -0.1979  0.0353 -0.3124
  556MOL0     C74968  12.908  10.419   4.729  0.1742 -0.5482 -0.3044
  556MOL0     C74969  12.997  10.504   4.633  0.0371 -0.6070 -1.1981
  556MOL0    Cl74970  13.128  10.581   4.738 -0.2784 -0.0636 -0.2304
  556MOL0     C74971  11.931  10.554   4.976  0.7532  0.6001  0.0075
  556MOL0     C74972  11.796  10.557   4.936 -0.7260  1.2240 -1.0510
  556MOL0     O74973  11.585  10.692   4.844  0.3361  0.0542 -1.0906
  556MOL0     C74974  11.389  10.458   4.648 -0.4933  0.1749  0.2252
  556MOL0     C74975  11.264  10.430   4.597 -0.1144  0.3173  0.5419
  556MOL0     N74976  10.488  10.358   4.306  0.3326 -0.0750  0.7257
  556MOL0     N74977  10.359  10.355   4.275 -0.3641 -0.7330 -0.8672
  556MOL0     C74978   9.320  10.797   4.314 -0.2782 -0.6838  0.3899
  556MOL0     C74979   9.238  10.701   4.248  0.4819  0.1557  0.6715
  556MOL0     C74980   8.978  10.329   4.186 -0.1003  0.3900 -0.4833
  556MOL0     C74981   8.848  10.285   4.224 -0.4474 -0.5223 -0.0238
  556MOL0     C74982   8.795  10.160   4.185  0.6318 -0.5740  0.5756
  556MOL0     C74983   8.860  10.077   4.099  0.8909 -0.1344  0.7724
  556MOL0     O74984   8.792   9.954   4.076 -0.1125 -0.6369 -0.1422
  556MOL0     C74985   8.836   9.871   3.963  0.4889 -0.9206 -0.0928
  556MOL0     C74986   8.787   9.942   3.831 -1.2983 -0.3757  0.0376
  556MOL0     C74987   8.638   9.970   3.808 -0.9504 -0.8576 -0.3956
  556MOL0     C74988   8.598  10.113   3.815 -0.6353  0.0971  0.6507
  556MOL0     C74989   8.475  10.137   3.882 -0.4624 -0.3102  0.0909
  556MOL0     C74990   8.362  10.156   3.927  0.1051  0.5743  0.1061
  556MOL0     C74991   8.978  10.123   4.049  0.8675  0.2772 -0.6527
  556MOL0     C74992   9.043  10.245   4.085  1.1391  0.0961 -0.7082
  556MOL0     H74993   9.270  10.448   4.469 -1.1651  1.1759  1.2169
  556MOL0     H74994   9.428  10.621   4.577  1.3334  3.4385 -0.3673
  556MOL0     H74995   9.564  10.929   4.346 -0.4237  2.7009 -1.2349
  556MOL0     H74996   9.452  11.038   4.424  1.9174  0.9742 -0.4551
  556MOL0     H74997   9.705  11.081   4.445  0.8106 -1.9860 -1.4520
  556MOL0     H74998   9.621  11.083   4.600  1.3989  1.2310 -0.2808
  556MOL0     H74999   9.846  10.964   4.600  0.4109 -0.8346  0.5874
  556MOL0     H75000   9.711  10.859   4.660  1.9880 -2.0340 -0.2478
  556MOL0     H75001   9.701  10.742   4.469  0.6546 -0.7535  0.9848
  556MOL0     H75002   9.795  10.850   4.370 -0.6396 -1.0016 -0.8117
  556MOL0     H75003   9.987  10.788   4.529  1.2668 -2.0384 -0.5462
  556MOL0     H75004   9.882  10.664   4.596  1.8224  0.5662  0.4416
  556MOL0     H75005   9.888  10.565   4.363  0.4600  0.1026 -1.4304
  556MOL0     H75006   9.988  10.688   4.306 -0.7959  3.8511  1.8066
  556MOL0     H75007  10.170  10.616   4.484  2.6605 -1.4584 -0.6608
  556MOL0     H75008  10.079  10.458   4.481  2.7757 -0.7981 -2.8877
  556MOL0     H75009  10.168  10.592   4.230 -0.2663  1.2010  1.5707
  556MOL0     H75010  10.107  10.424   4.264  0.7548 -0.8767  0.9653
  556MOL0     H75011  10.374  10.648   4.424  0.2731 -0.2073 -0.4653
  556MOL0     H75012  10.647  10.643   4.436  1.0218  0.3973 -2.3585
  556MOL0     H75013  10.645  10.505   4.539 -1.6525  0.2294  0.8238
  556MOL0     H75014  10.743  10.456   4.256 -3.9150 -1.4010  1.5122
  556MOL0     H75015  10.810  10.374   4.401 -0.9480  0.0150  1.1639
  556MOL0     H75016  10.857  10.649   4.314  1.8879  0.0624 -0.2983
  556MOL0     H75017  10.977  10.521   4.304  1.8647  0.1371  1.2988
  556MOL0     H75018  10.894  10.641   4.567  1.4006 -0.9408  2.5362
  556MOL0     H75019  11.046  10.670   4.480 -0.0390  0.5377  3.2567
  556MOL0     H75020  11.101  10.703   4.709  1.6315  1.7911  0.0813
  556MOL0     H75021  11.368  10.854   4.825  0.0091  0.0931  2.2410
  556MOL0     H75022  11.210  10.802   4.883  0.7398 -0.5943  4.2186
  556MOL0     H75023  11.365  10.736   4.946 -0.1545  0.9313  0.4062
  556MOL0     H75024  11.828  10.401   4.643  1.3066 -1.3396  1.3867
  556MOL0     H75025  12.061  10.439   4.684 -0.5473 -1.5528 -0.0804
  556MOL0     H75026  12.267  10.423   4.783  0.8616 -1.6391  3.4516
  556MOL0     H75027  12.223  10.592   4.749  2.6664  0.8613  0.6928
  556MOL0     H75028  12.371  10.683   4.916 -0.6587  0.9966 -3.2208
  556MOL0     H75029  12.429  10.530   4.982  0.0181  0.2569  0.4742
  556MOL0     H75030  12.472  10.565   4.687  0.4734  0.3717 -0.4896
  556MOL0     H75031  12.554  10.471   4.809  1.8761  0.6571 -1.4464
  556MOL0     H75032  12.594  10.753   4.732 -1.5258 -0.1539  0.3014
  556MOL0     H75033  12.651  10.711   4.901 -2.2977  0.3366 -0.4672
  556MOL0     H75034  12.823  10.696   4.736  0.5276 -1.3842  0.7068
  556MOL0     H75035  12.727  10.577   4.641 -0.0559  0.7420 -0.9618
  556MOL0     H75036  12.877  10.555   4.905 -1.9271 -0.3318  1.1960
  556MOL0     H75037  12.755  10.437   4.880  0.9188 -1.1945 -0.3990
  556MOL0     H75038  12.857  10.355   4.656  1.5891 -2.2081  0.1232
  556MOL0     H75039  12.959  10.351   4.798 -2.3892 -3.3351 -0.9418
  556MOL0     H75040  12.933  10.574   4.577 -1.1949  3.0145  3.9792
  556MOL0     H75041  13.040  10.438   4.558 -0.4211 -1.4292 -0.7588
  556MOL0     H75042  11.962  10.583   5.076 -0.8095  1.5949  0.2450
  556MOL0     H75043  11.710  10.578   4.998 -2.5151  1.3001 -3.4258
  556MOL0     H75044  11.471  10.391   4.623 -0.1967  1.2489 -1.9266
  556MOL0     H75045  11.257  10.347   4.528  0.5676 -0.2332  1.1184
  556MOL0     H75046   9.336  10.894   4.268  0.8574 -1.2919 -0.5512
  556MOL0     H75047   9.176  10.737   4.167  0.3581 -1.6122 -0.0624
  556MOL0     H75048   8.800  10.336   4.307 -2.2576  1.1567 -1.9927
  556MOL0     H75049   8.696  10.127   4.217  0.6566  0.6718  2.0231
  556MOL0     H75050   8.943   9.851   3.964  0.8384  0.1616 -3.4059
  556MOL0     H75051   8.775   9.781   3.973 -1.3741  0.3375  0.5318
  556MOL0     H75052   8.814   9.857   3.768  0.0165 -2.7830  3.5192
  556MOL0     H75053   8.849  10.030   3.810 -1.7829  0.6097  2.3427
  556MOL0     H75054   8.589   9.922   3.893  0.4951 -0.2228  0.8279
  556MOL0     H75055   8.621   9.930   3.707  0.1969 -3.3791  0.3417
  556MOL0     H75056   8.602  10.148   3.711  0.2969  0.1090  0.6886
  556MOL0     H75057   8.666  10.174   3.875 -2.3100  0.6013  2.1080
  556MOL0     H75058   8.258  10.173   3.946 -0.9666 -3.3584 -1.2791
  556MOL0     H75059   9.044  10.065   3.985 -1.2271 -1.4104 -1.3831
  556MOL0     H75060   9.135  10.274   4.035 -0.2315 -0.3989 -3.7397
  557MOL0     O75061   9.111   8.415  10.162  0.1901 -0.2778  0.4802
  557MOL0     C75062   9.082   8.293  10.144 -0.0539  0.1117  0.1436
  557MOL0     O75063   9.003   8.218  10.226 -0.1032 -0.2922 -0.1621
  557MOL0     C75064   8.920   8.271  10.323  0.1767 -1.3250 -0.1844
  557MOL0     C75065   8.925   8.220  10.453 -0.6062  0.5686  0.2092
  557MOL0     C75066   8.837   8.274  10.549 -0.0165 -0.3922  0.5630
  557MOL0     C75067   8.750   8.387  10.522 -0.7843  0.0532 -0.0140
  557MOL0     O75068   8.648   8.431  10.604 -0.3056  0.0489 -0.2371
  557MOL0     C75069   8.569   8.331  10.669 -0.0636 -0.5172 -0.1758
  557MOL0     C75070   8.417   8.354  10.658  1.0368 -0.3488  0.2956
  557MOL0     C75071   8.375   8.354  10.508 -0.3113 -1.5199  1.0237
  557MOL0     C75072   8.386   8.490  10.431  0.5344  1.1960 -1.0327
  557MOL0     C75073   8.330   8.478  10.282  0.8377  0.0437 -0.8230
  557MOL0     C75074   8.341   8.614  10.212 -0.2790 -0.1184  0.8868
  557MOL0     C75075   8.299   8.597  10.074  0.1440  0.5868  0.5571
  557MOL0     C75076   8.312   8.736  10.006  0.4938  0.0805 -0.4819
  557MOL0     N75077   8.295   8.730   9.867 -0.5393  0.1246  1.0565
  557MOL0     C75078   8.182   8.686   9.800 -1.2317  0.5493  0.6740
  557MOL0     C75079   8.201   8.702   9.666 -0.5147 -0.6566 -0.7040
  557MOL0     C75080   8.106   8.683   9.552  0.7483  0.6956 -0.2567
  557MOL0     C75081   7.979   8.773   9.559 -0.6581  0.1031  0.5546
  557MOL0     C75082   7.992   8.919   9.492  0.5723 -0.3104  0.3656
  557MOL0     C75083   7.993   8.915   9.340 -0.2098 -0.5003  0.4001
  557MOL0     O75084   8.032   9.039   9.282  0.7458 -1.1223  0.2990
  557MOL0     C75085   8.012   9.059   9.140  0.1683 -0.2264  0.4198
  557MOL0     C75086   8.115   9.120   9.057  0.3086 -0.4024 -0.6654
  557MOL0     C75087   8.107   9.134   8.920  0.3269  0.7295 -0.5817
  557MOL0     C75088   8.226   9.199   8.856  0.7501  0.0072  0.9504
  557MOL0     C75089   7.985   9.108   8.852  1.3887  0.5509  0.1396
  557MOL0     C75090   7.959   9.143   8.706  0.2181  0.4047  0.0022
  557MOL0     O75091   8.049   9.222   8.644 -0.3038 -0.2630 -0.5062
  557MOL0     C75092   8.040   9.224   8.504  0.5973  0.3753  0.3222
  557MOL0     C75093   8.033   9.357   8.457 -0.3728 -0.7539 -0.4473
  557MOL0     C75094   8.038   9.388   8.319  0.0134  0.0492  0.3298
  557MOL0     C75095   8.055   9.285   8.215 -0.5434  0.4919 -0.2888
  557MOL0     O75096   8.047   9.300   8.080  0.3584 -0.0826 -0.2198
  557MOL0     C75097   8.076   9.427   8.029 -0.1649 -1.1257 -1.2261
  557MOL0     C75098   8.038   9.445   7.883  0.8417 -0.4415 -0.3677
  557MOL0     C75099   8.159   9.405   7.799  0.1501 -1.1364 -0.4845
  557MOL0     C75100   8.280   9.502   7.810  0.2557 -0.3841 -0.2977
  557MOL0     C75101   8.384   9.450   7.708  0.3556 -0.2770  0.1054
  557MOL0     C75102   8.520   9.501   7.727  0.0060  0.0534 -0.0728
  557MOL0     C75103   8.541   9.649   7.692 -0.5958  0.0976 -0.2142
  557MOL0     C75104   8.564   9.734   7.817 -0.3702  0.1021 -0.4246
  557MOL0    Cl75105   8.417   9.792   7.886 -0.0319  0.1629  0.0029
  557MOL0     C75106   8.064   9.154   8.266 -0.5008  0.2578 -0.1415
  557MOL0     C75107   8.068   9.123   8.404 -0.1194  0.0872  0.9842
  557MOL0     O75108   7.861   9.091   8.650 -0.3408  0.1101  0.8184
  557MOL0     C75109   7.887   9.036   8.931  0.1094 -0.7344  0.7807
  557MOL0     C75110   7.901   9.005   9.069 -0.4704 -0.8904 -0.3627
  557MOL0     N75111   8.324   8.763   9.658 -0.6977 -0.0793 -0.6342
  557MOL0     N75112   8.380   8.782   9.773  0.3541  0.4465 -0.8935
  557MOL0     C75113   8.766   8.446  10.400 -0.1624  0.2488  0.4880
  557MOL0     C75114   8.852   8.397  10.300 -0.0407  0.1963  0.1529
  557MOL0     C75115   9.135   8.223  10.021 -0.1566 -0.3463  0.5691
  557MOL0     C75116   9.174   8.292   9.907 -0.1314 -0.7992 -0.0648
  557MOL0     C75117   9.221   8.221   9.797  0.7746 -0.2786  0.5421
  557MOL0     C75118   9.238   8.083   9.787  0.4399  0.1138  0.1913
  557MOL0     O75119   9.293   8.004   9.681 -0.5041  0.1314 -0.3487
  557MOL0     C75120   9.351   8.056   9.563 -1.1186 -0.6033  0.6214
  557MOL0     C75121   9.486   8.136   9.562 -1.5134  0.0184 -0.5892
  557MOL0     C75122   9.603   8.058   9.641  0.3694 -0.0208 -0.1254
  557MOL0     C75123   9.718   8.011   9.557  0.8219 -0.6359 -0.3592
  557MOL0     C75124   9.794   8.133   9.512 -0.4575  0.2510  0.0802
  557MOL0     C75125   9.844   8.233   9.476 -0.5034 -0.1118 -0.0366
  557MOL0     C75126   9.186   8.015   9.906  0.7654  0.4369 -0.1612
  557MOL0     C75127   9.130   8.079  10.016  0.3872 -0.1905  0.1345
  557MOL0     H75128   8.995   8.141  10.477  1.7163  1.8522 -1.8955
  557MOL0     H75129   8.827   8.237  10.650 -1.5413  2.5510  1.6056
  557MOL0     H75130   8.595   8.230  10.635 -2.8516 -2.1427  2.0549
  557MOL0     H75131   8.601   8.331  10.774 -1.7138  0.8141  0.3690
  557MOL0     H75132   8.362   8.269  10.700 -2.4984  1.1560 -0.9019
  557MOL0     H75133   8.389   8.444  10.714 -3.0207 -1.4170  0.2619
  557MOL0     H75134   8.427   8.277  10.451  3.5286  2.3172 -1.2932
  557MOL0     H75135   8.267   8.336  10.501 -1.0408  2.0542  0.9838
  557MOL0     H75136   8.330   8.574  10.474  0.0747  1.6517 -2.4738
  557MOL0     H75137   8.491   8.519  10.430  2.0160 -2.9470  2.1079
  557MOL0     H75138   8.371   8.385  10.241 -0.8105 -2.6762  3.0955
  557MOL0     H75139   8.222   8.462  10.288  0.3495  3.1936  2.7500
  557MOL0     H75140   8.276   8.685  10.264 -2.7641 -2.4421  1.1822
  557MOL0     H75141   8.444   8.648  10.220 -0.2358 -0.2613  0.9627
  557MOL0     H75142   8.366   8.521  10.034  1.1184  0.0298  3.0681
  557MOL0     H75143   8.199   8.553  10.066  1.1310 -1.7039  0.2034
  557MOL0     H75144   8.411   8.773  10.031  0.5908  0.5983 -1.5892
  557MOL0     H75145   8.247   8.814  10.046  1.9332  0.7089  0.7257
  557MOL0     H75146   8.088   8.662   9.849  0.6635  1.8855  5.6289
  557MOL0     H75147   8.148   8.705   9.453  0.7105 -0.8923 -0.6512
  557MOL0     H75148   8.079   8.577   9.551  0.4280  0.7728 -1.0022
  557MOL0     H75149   7.959   8.787   9.666 -0.9878 -0.0980  0.5203
  557MOL0     H75150   7.892   8.713   9.531 -1.7573  2.0438 -0.4351
  557MOL0     H75151   8.084   8.959   9.535  1.7423 -0.6131 -1.7021
  557MOL0     H75152   7.900   8.973   9.514  1.1232  1.6318 -1.7286
  557MOL0     H75153   7.906   8.858   9.307  0.5865 -1.8452  0.5818
  557MOL0     H75154   8.075   8.849   9.311  0.4790  0.6054 -0.2720
  557MOL0     H75155   8.207   9.154   9.105  0.5939 -3.3955  1.1910
  557MOL0     H75156   8.202   9.301   8.825  1.0026  0.0379  0.8510
  557MOL0     H75157   8.316   9.205   8.917  1.7766 -1.7231 -0.3054
  557MOL0     H75158   8.262   9.154   8.763  1.7018  3.4591 -0.4971
  557MOL0     H75159   8.017   9.436   8.530  2.0113 -1.4712  0.9518
  557MOL0     H75160   8.031   9.494   8.293 -1.3194 -0.4654 -1.6258
  557MOL0     H75161   8.017   9.500   8.086  0.2918 -0.4372 -1.6168
  557MOL0     H75162   8.176   9.468   8.046  1.1319 -4.7028  0.9039
  557MOL0     H75163   7.947   9.388   7.859 -0.5397  1.2399  0.5801
  557MOL0     H75164   8.015   9.546   7.848  0.2164 -1.3905 -2.8919
  557MOL0     H75165   8.115   9.414   7.699 -3.8708  0.5205  1.2413
  557MOL0     H75166   8.195   9.307   7.832  0.7778 -1.2082 -1.3552
  557MOL0     H75167   8.250   9.605   7.785 -1.4911 -0.7087  0.3114
  557MOL0     H75168   8.322   9.502   7.911 -1.2213  4.4607  0.6029
  557MOL0     H75169   8.347   9.478   7.609 -3.1857 -1.8715  0.7987
  557MOL0     H75170   8.391   9.341   7.708  2.3593 -0.1944 -1.4399
  557MOL0     H75171   8.568   9.493   7.825 -0.2399  1.4188  0.1710
  557MOL0     H75172   8.575   9.437   7.657 -0.7785 -1.3324  0.5274
  557MOL0     H75173   8.461   9.682   7.625 -1.4317 -1.4967 -0.0420
  557MOL0     H75174   8.634   9.659   7.635 -1.7150 -0.3511 -2.2164
  557MOL0     H75175   8.616   9.825   7.787 -2.3989  0.4993 -3.1676
  557MOL0     H75176   8.614   9.680   7.897 -3.6280 -0.3391  1.5226
  557MOL0     H75177   8.066   9.075   8.191 -3.6093  0.6356 -0.7610
  557MOL0     H75178   8.084   9.022   8.438  3.9723  0.9209  2.0209
  557MOL0     H75179   7.803   8.983   8.886  1.7592 -2.8778  0.0424
  557MOL0     H75180   7.807   8.967   9.106 -0.6988 -1.0042 -1.0422
  557MOL0     H75181   8.701   8.529  10.373 -0.3645 -0.3489 -0.9281
  557MOL0     H75182   8.853   8.442  10.201  2.9788 -1.6674 -0.8213
  557MOL0     H75183   9.167   8.401   9.911 -0.0923 -0.6400 -2.5986
  557MOL0     H75184   9.244   8.269   9.702 -1.5917 -2.4056 -1.2708
  557MOL0     H75185   9.368   7.961   9.512  0.7500  0.0603 -0.0874
  557MOL0     H75186   9.286   8.124   9.506 -0.5442  0.0712  0.7548
  557MOL0     H75187   9.478   8.232   9.614 -0.7919 -0.5635  0.6345
  557MOL0     H75188   9.512   8.159   9.458  0.6921  1.1963  0.1752
  557MOL0     H75189   9.549   7.972   9.680  1.3915  0.5705  2.8604
  557MOL0     H75190   9.634   8.121   9.725  2.6988 -0.4104 -0.6185
  557MOL0     H75191   9.684   7.940   9.480  1.6752 -3.5080  1.7231
  557MOL0     H75192   9.772   7.948   9.628 -0.9543  0.7034  2.3621
  557MOL0     H75193   9.889   8.329   9.457  1.8310 -1.6326 -3.0107
  557MOL0     H75194   9.202   7.909   9.915 -0.1625  0.2258 -0.8320
  557MOL0     H75195   9.098   8.017  10.099 -1.6010  0.9344  0.2587
  558MOL0     O75196   5.395   4.814   5.379  0.4091 -0.2205 -0.5550
  558MOL0     C75197   5.405   4.913   5.456  0.4995 -0.0337  0.3008
  558MOL0     O75198   5.377   4.913   5.594  0.3449 -0.4356 -0.4865
  558MOL0     C75199   5.340   4.799   5.654  0.3972 -0.0154 -0.1933
  558MOL0     C75200   5.268   4.815   5.770  1.1308  0.9747 -0.1351
  558MOL0     C75201   5.219   4.706   5.850  0.4410 -0.6140  1.3590
  558MOL0     C75202   5.257   4.573   5.809  0.5594  0.0970  0.3053
  558MOL0     O75203   5.210   4.460   5.882  0.2294 -0.0389  0.7922
  558MOL0     C75204   5.155   4.463   6.013  0.5564  0.0317 -0.0771
  558MOL0     C75205   4.998   4.449   6.018  0.3114 -0.1428  0.3732
  558MOL0     C75206   4.957   4.304   6.048  0.1093 -0.5497  1.0583
  558MOL0     C75207   4.812   4.269   6.061  1.0110  0.5342 -0.1787
  558MOL0     C75208   4.750   4.335   6.183  0.0030 -0.2637 -0.3300
  558MOL0     C75209   4.610   4.275   6.209 -0.3754  0.1889  0.4000
  558MOL0     C75210   4.560   4.333   6.339  0.0557 -0.5293  0.2986
  558MOL0     C75211   4.427   4.282   6.391 -0.0303 -0.4931 -0.6083
  558MOL0     N75212   4.395   4.326   6.527  0.3800  0.3499  0.0678
  558MOL0     C75213   4.361   4.453   6.569 -0.1866 -0.1523 -0.3888
  558MOL0     C75214   4.322   4.432   6.700  0.3630 -0.2987  0.1368
  558MOL0     C75215   4.267   4.537   6.794  0.1814  0.4847 -0.3179
  558MOL0     C75216   4.120   4.564   6.763 -0.3278 -0.1593  0.5664
  558MOL0     C75217   4.032   4.457   6.823  0.2567 -0.1565  0.4328
  558MOL0     C75218   3.888   4.478   6.780  0.0696  1.0351  1.7194
  558MOL0     O75219   3.848   4.609   6.830 -0.0512  0.4216 -0.7481
  558MOL0     C75220   3.751   4.630   6.924 -0.1672  0.3909 -0.0024
  558MOL0     C75221   3.728   4.541   7.022  0.3559 -0.1783  0.7263
  558MOL0     C75222   3.619   4.557   7.105  0.4662 -0.0965  0.2675
  558MOL0     C75223   3.600   4.448   7.205 -0.6899 -0.6457  0.0677
  558MOL0     C75224   3.529   4.665   7.087  1.0716 -0.4924  0.0119
  558MOL0     C75225   3.398   4.691   7.163 -0.3014  0.6750 -0.0564
  558MOL0     O75226   3.303   4.773   7.116 -0.1135  0.2092  0.0533
  558MOL0     C75227   3.227   4.842   7.205  0.5121  0.5685  0.0290
  558MOL0     C75228   3.267   4.865   7.337 -0.4112 -0.7470  0.7705
  558MOL0     C75229   3.196   4.953   7.427 -0.2022  0.3139  0.3520
  558MOL0     C75230   3.076   5.012   7.383  0.4352 -0.3034  0.2416
  558MOL0     O75231   2.996   5.099   7.448  0.4419  0.6641  0.2102
  558MOL0     C75232   3.017   5.096   7.585  0.6634  0.2900 -2.4194
  558MOL0     C75233   2.921   5.200   7.654 -0.6900  0.6702  0.0356
  558MOL0     C75234   2.777   5.152   7.611  0.7270  0.5444 -0.1222
  558MOL0     C75235   2.703   5.082   7.736 -0.1438 -0.0169  0.3751
  558MOL0     C75236   2.584   4.995   7.689  0.8174  0.0618 -0.1443
  558MOL0     C75237   2.508   4.910   7.795 -0.3143 -0.8363  0.0343
  558MOL0     C75238   2.602   4.808   7.851 -0.2034  0.4706 -0.0227
  558MOL0     C75239   2.540   4.686   7.920  0.4981  0.4817 -0.1495
  558MOL0    Cl75240   2.410   4.734   8.042 -0.3634 -0.4111  0.5355
  558MOL0     C75241   3.028   4.978   7.259 -0.5057 -0.0273  0.3596
  558MOL0     C75242   3.101   4.890   7.167  0.2457 -0.3873  0.3088
  558MOL0     O75243   3.392   4.623   7.268 -0.0906  0.4544  0.5849
  558MOL0     C75244   3.553   4.745   6.977  0.0126 -1.0503  0.1007
  558MOL0     C75245   3.660   4.721   6.896 -0.1933 -1.1759  0.2642
  558MOL0     N75246   4.336   4.301   6.731  0.6147  0.0835 -0.1616
  558MOL0     N75247   4.373   4.234   6.622  0.1183 -0.0642 -0.9283
  558MOL0     C75248   5.338   4.562   5.699  0.1005 -0.5118  0.3151
  558MOL0     C75249   5.380   4.666   5.624 -0.6092  1.1237 -0.6100
  558MOL0     C75250   5.419   5.048   5.388  0.9562 -0.1766 -0.1775
  558MOL0     C75251   5.424   5.162   5.472 -0.4765  0.3637  0.2158
  558MOL0     C75252   5.428   5.285   5.423 -0.4046 -0.8468 -0.8455
  558MOL0     C75253   5.428   5.306   5.283 -0.1459  0.1429  0.5271
  558MOL0     O75254   5.415   5.437   5.248  0.0165 -0.2787  0.2623
  558MOL0     C75255   5.437   5.475   5.109 -0.8651  1.1839 -0.1008
  558MOL0     C75256   5.306   5.451   5.035 -0.2251  0.7424 -0.3067
  558MOL0     C75257   5.327   5.468   4.883 -1.0812 -0.7322 -0.3667
  558MOL0     C75258   5.193   5.448   4.803 -0.2472  0.8250 -0.4643
  558MOL0     C75259   5.085   5.549   4.836 -0.2534 -0.1157  0.3385
  558MOL0     C75260   4.999   5.630   4.853  0.1940  0.0773 -0.4102
  558MOL0     C75261   5.428   5.196   5.191  0.6826  0.3701 -0.2071
  558MOL0     C75262   5.415   5.064   5.245  0.6822 -0.1980  0.0259
  558MOL0     H75263   5.233   4.918   5.779  1.8842  1.3939 -1.7311
  558MOL0     H75264   5.137   4.724   5.919 -0.5919  1.3872 -0.2643
  558MOL0     H75265   5.197   4.380   6.071 -2.1196 -1.0420  0.4751
  558MOL0     H75266   5.192   4.553   6.062  0.4553 -1.4476  2.9675
  558MOL0     H75267   4.950   4.519   6.088 -1.1498  0.4121 -1.1136
  558MOL0     H75268   4.958   4.488   5.924 -1.4798 -0.3537  0.9944
  558MOL0     H75269   5.008   4.248   5.969  0.4143  3.2839 -1.7736
  558MOL0     H75270   5.016   4.281   6.137  1.2232  0.8826  0.7317
  558MOL0     H75271   4.749   4.313   5.983  0.0097 -0.8401 -0.1707
  558MOL0     H75272   4.793   4.162   6.061 -1.5112  0.9027  1.3136
  558MOL0     H75273   4.820   4.308   6.262 -0.4871 -1.8599 -0.4104
  558MOL0     H75274   4.745   4.444   6.172  1.3274 -0.1851 -0.4132
  558MOL0     H75275   4.540   4.292   6.128  1.1714  2.6871 -0.5331
  558MOL0     H75276   4.630   4.168   6.214 -1.3296 -0.0812 -1.1123
  558MOL0     H75277   4.643   4.301   6.402 -1.0692 -2.1696  1.0236
  558MOL0     H75278   4.559   4.443   6.336 -0.8080 -0.4339  2.1257
  558MOL0     H75279   4.421   4.173   6.383  2.4297 -0.7988  0.6144
  558MOL0     H75280   4.345   4.323   6.332  1.0353  0.2265 -1.6276
  558MOL0     H75281   4.365   4.550   6.521  1.5518 -0.4374 -0.8650
  558MOL0     H75282   4.285   4.508   6.898 -1.6965  2.1680  0.5440
  558MOL0     H75283   4.324   4.630   6.782 -0.1642  1.0173  1.6788
  558MOL0     H75284   4.097   4.580   6.658 -2.4218  0.0725  1.0233
  558MOL0     H75285   4.095   4.660   6.809 -1.8688 -0.8893  1.3116
  558MOL0     H75286   4.035   4.458   6.932 -2.2977  4.4482  0.7507
  558MOL0     H75287   4.067   4.365   6.775 -2.6901 -0.2074 -1.9791
  558MOL0     H75288   3.817   4.396   6.798  1.3640 -1.4792 -2.8742
  558MOL0     H75289   3.891   4.482   6.671 -0.9686 -2.4161  1.4449
  558MOL0     H75290   3.793   4.454   7.025 -2.1725 -2.3964 -2.0518
  558MOL0     H75291   3.593   4.490   7.306 -1.9130 -4.6777  1.8831
  558MOL0     H75292   3.506   4.398   7.183 -2.0789  1.4781  0.9078
  558MOL0     H75293   3.693   4.391   7.217  1.2588  2.3189  0.2393
  558MOL0     H75294   3.356   4.821   7.380  1.7065  2.1048 -0.3557
  558MOL0     H75295   3.227   4.963   7.530 -2.7494 -0.3203  1.2476
  558MOL0     H75296   2.996   5.003   7.637  4.4970  0.9155  0.7317
  558MOL0     H75297   3.119   5.131   7.606 -0.2058  2.5375 -1.6492
  558MOL0     H75298   2.929   5.204   7.763  1.3712  0.8471 -0.0813
  558MOL0     H75299   2.939   5.304   7.627  0.1738  0.5584  0.1466
  558MOL0     H75300   2.769   5.083   7.526 -1.2128 -0.5617  0.8767
  558MOL0     H75301   2.723   5.244   7.583 -0.3497 -0.4993 -1.6539
  558MOL0     H75302   2.776   5.023   7.793  0.3570 -0.0833 -0.3236
  558MOL0     H75303   2.656   5.153   7.803 -0.7670 -1.9579  2.1143
  558MOL0     H75304   2.611   4.927   7.608 -0.5366 -1.3253  0.5300
  558MOL0     H75305   2.514   5.069   7.648  1.1525  0.3311 -0.2368
  558MOL0     H75306   2.472   4.973   7.877 -0.8334 -1.5588  0.3744
  558MOL0     H75307   2.418   4.866   7.752 -3.5295 -0.1862  5.1527
  558MOL0     H75308   2.655   4.854   7.935  0.2331  0.9701 -0.5562
  558MOL0     H75309   2.668   4.774   7.770 -2.0876 -3.2846 -0.1839
  558MOL0     H75310   2.608   4.615   7.969 -1.0136 -0.8216  0.1265
  558MOL0     H75311   2.489   4.637   7.837 -1.3211 -1.3329  1.9208
  558MOL0     H75312   2.933   5.025   7.237 -0.4491 -0.6570 -1.3890
  558MOL0     H75313   3.062   4.870   7.067  0.2700 -4.1427  0.9296
  558MOL0     H75314   3.476   4.819   6.956  0.0840 -1.0094 -0.0168
  558MOL0     H75315   3.675   4.776   6.803 -1.5891  1.4603  1.4845
  558MOL0     H75316   5.374   4.461   5.679 -0.4623 -0.7060  0.2676
  558MOL0     H75317   5.449   4.629   5.548  0.3058 -2.2271  1.6627
  558MOL0     H75318   5.425   5.151   5.580 -0.6417 -0.8917  0.1145
  558MOL0     H75319   5.430   5.370   5.491 -0.1477 -1.1266 -0.4996
  558MOL0     H75320   5.466   5.580   5.104  3.3767  0.1154 -2.4448
  558MOL0     H75321   5.518   5.420   5.062  0.4037  1.7607  1.3167
  558MOL0     H75322   5.226   5.508   5.082 -1.5155 -2.4820  1.6999
  558MOL0     H75323   5.272   5.348   5.050 -1.2836  0.9276 -1.2910
  558MOL0     H75324   5.400   5.397   4.844  0.2436  0.3063  0.1714
  558MOL0     H75325   5.370   5.569   4.877  0.4441 -1.2028  1.6244
  558MOL0     H75326   5.154   5.347   4.820  0.1589  0.4044 -1.8808
  558MOL0     H75327   5.221   5.450   4.697 -0.3382  1.0171 -0.4846
  558MOL0     H75328   4.927   5.707   4.872  0.5663  0.4083 -0.3394
  558MOL0     H75329   5.428   5.219   5.085 -1.6214  1.7830  0.0407
  558MOL0     H75330   5.402   4.977   5.181  1.3181 -0.5031  0.2996
  559MOL0     O75331   3.754  11.181   7.986 -0.1927  0.2846 -0.7068
  559MOL0     C75332   3.641  11.217   8.037 -0.4772  0.5061 -0.2613
  559MOL0     O75333   3.509  11.169   8.001 -0.5068 -0.0346 -0.4202
  559MOL0     C75334   3.488  11.084   7.894 -0.2618  0.3896  0.2703
  559MOL0     C75335   3.588  11.018   7.820  0.4082  0.3330  0.4658
  559MOL0     C75336   3.551  10.929   7.723  0.1947  1.6389 -0.8447
  559MOL0     C75337   3.423  10.893   7.693 -0.4713  1.0737 -0.2076
  559MOL0     O75338   3.396  10.808   7.592  0.2748  1.1825 -0.1088
  559MOL0     C75339   3.268  10.755   7.567 -0.0748  0.1785 -0.7317
  559MOL0     C75340   3.240  10.713   7.419 -0.7220  0.1745 -0.5177
  559MOL0     C75341   3.227  10.827   7.321 -0.3623  0.0701 -0.0598
  559MOL0     C75342   3.370  10.890   7.287  1.1093  0.6566  0.0295
  559MOL0     C75343   3.408  11.022   7.351  0.1221  0.5801  0.1387
  559MOL0     C75344   3.308  11.136   7.354  0.6779  0.5339 -0.2932
  559MOL0     C75345   3.354  11.256   7.433  1.3746  0.0168 -0.1311
  559MOL0     C75346   3.497  11.278   7.458  0.7342  0.1235 -0.4033
  559MOL0     N75347   3.530  11.393   7.538  0.6999  0.1495  0.8827
  559MOL0     C75348   3.546  11.386   7.673 -0.9165  0.3344 -0.0114
  559MOL0     C75349   3.553  11.522   7.707 -0.0371 -0.8820 -0.7762
  559MOL0     C75350   3.545  11.584   7.846 -0.7381 -0.2371 -0.1390
  559MOL0     C75351   3.399  11.603   7.888  0.0085 -0.1950  0.1057
  559MOL0     C75352   3.324  11.462   7.880  0.2291 -0.3122  0.6586
  559MOL0     C75353   3.178  11.501   7.934 -1.2195 -0.1552  0.7925
  559MOL0     O75354   3.141  11.400   8.033  0.3106 -0.3966  0.5967
  559MOL0     C75355   3.090  11.280   8.004  0.0769  0.0760  1.1356
  559MOL0     C75356   3.028  11.236   7.885 -0.0955 -0.0900  1.3759
  559MOL0     C75357   2.964  11.119   7.871  0.0717 -0.0106  0.2839
  559MOL0     C75358   2.889  11.087   7.741 -0.3156  0.2436 -0.0065
  559MOL0     C75359   2.978  11.027   7.978  0.4671  0.3599 -0.7349
  559MOL0     C75360   2.895  10.901   7.992 -0.0646  0.2759 -0.5081
  559MOL0     O75361   2.856  10.875   8.122  0.1317  1.3784  0.2539
  559MOL0     C75362   2.788  10.753   8.141 -0.5755 -0.0008 -0.8699
  559MOL0     C75363   2.658  10.738   8.100 -0.4461  0.4179 -0.2429
  559MOL0     C75364   2.601  10.612   8.118 -0.1197  0.2758 -0.1105
  559MOL0     C75365   2.659  10.511   8.197  0.4310 -1.3827 -0.3429
  559MOL0     O75366   2.590  10.395   8.209 -0.0580  0.8250  0.7412
  559MOL0     C75367   2.624  10.293   8.305  0.0663 -0.4903  0.3319
  559MOL0     C75368   2.546  10.165   8.248 -0.0228 -0.6537  0.2195
  559MOL0     C75369   2.584  10.040   8.321 -0.3883  0.8045  0.1704
  559MOL0     C75370   2.516   9.912   8.266 -0.5493  0.5785  0.4387
  559MOL0     C75371   2.511   9.799   8.359 -0.5055  0.3828 -0.0836
  559MOL0     C75372   2.443   9.674   8.295  0.3333  0.2040  0.5333
  559MOL0     C75373   2.393   9.577   8.400 -0.6139 -0.6151 -0.7291
  559MOL0     C75374   2.351   9.447   8.336  1.4672  0.1267  0.0501
  559MOL0    Cl75375   2.287   9.355   8.483  0.3144  0.4091 -0.1447
  559MOL0     C75376   2.782  10.537   8.253  0.5878  0.2449 -0.4624
  559MOL0     C75377   2.851  10.653   8.219  0.4116  0.2610 -0.0391
  559MOL0     O75378   2.888  10.827   7.901  0.0849 -0.3535  0.9214
  559MOL0     C75379   3.042  11.057   8.098 -0.2275 -0.2086 -0.0638
  559MOL0     C75380   3.105  11.183   8.104  0.7426 -0.1056  0.7277
  559MOL0     N75381   3.535  11.598   7.597 -0.4980 -1.0148 -1.1297
  559MOL0     N75382   3.513  11.525   7.499  0.5334 -0.5345 -0.2421
  559MOL0     C75383   3.326  10.960   7.771  0.1697 -0.2210  0.3856
  559MOL0     C75384   3.352  11.058   7.868 -0.5707  0.9864  0.1062
  559MOL0     C75385   3.654  11.322   8.136 -1.4747 -0.0998 -0.0474
  559MOL0     C75386   3.541  11.365   8.203 -0.7141  0.3752 -0.2725
  559MOL0     C75387   3.552  11.469   8.298  0.4393 -0.6555 -0.1135
  559MOL0     C75388   3.667  11.538   8.319  0.8678 -0.1944  0.5637
  559MOL0     O75389   3.690  11.647   8.407 -0.4475  0.0680  0.4121
  559MOL0     C75390   3.583  11.691   8.501  0.0170  0.6593  0.6426
  559MOL0     C75391   3.633  11.783   8.607 -0.5263  0.0588 -0.7957
  559MOL0     C75392   3.750  11.727   8.698 -0.1547  0.2091  0.1475
  559MOL0     C75393   3.698  11.629   8.799 -1.0200  0.6852 -0.1311
  559MOL0     C75394   3.804  11.568   8.891  1.0047  0.1535  0.4658
  559MOL0     C75395   3.845  11.494   8.982 -0.6596  0.0980  0.3984
  559MOL0     C75396   3.775  11.501   8.246  0.4023 -0.1651  0.6831
  559MOL0     C75397   3.778  11.390   8.158  0.3213  0.0664  0.3591
  559MOL0     H75398   3.692  11.043   7.837  0.2339  2.1604 -0.8381
  559MOL0     H75399   3.629  10.879   7.667  0.9489  1.1112  0.6214
  559MOL0     H75400   3.268  10.667   7.632  2.7396  1.3760  1.0860
  559MOL0     H75401   3.186  10.822   7.595 -1.0268 -0.6354 -1.5115
  559MOL0     H75402   3.319  10.649   7.379  0.1295  0.8566  0.0345
  559MOL0     H75403   3.154  10.647   7.418 -0.8957  0.3338 -3.6653
  559MOL0     H75404   3.190  10.793   7.224 -0.0152  0.8950 -0.4852
  559MOL0     H75405   3.163  10.901   7.371  0.4492  1.4367 -0.9824
  559MOL0     H75406   3.448  10.818   7.315  0.0664 -0.6825 -0.4407
  559MOL0     H75407   3.379  10.893   7.178  2.5521 -0.5892  0.0803
  559MOL0     H75408   3.443  11.000   7.452  1.6887 -0.3991 -0.5853
  559MOL0     H75409   3.493  11.055   7.290 -1.3102  0.3478 -2.0935
  559MOL0     H75410   3.275  11.160   7.252 -2.0488  0.1265  0.4217
  559MOL0     H75411   3.215  11.098   7.397 -0.9440  0.7743 -3.3010
  559MOL0     H75412   3.319  11.346   7.381  0.5043 -0.0081  0.3770
  559MOL0     H75413   3.300  11.248   7.528 -2.1393 -0.4788 -1.9824
  559MOL0     H75414   3.544  11.269   7.360 -0.9747  1.0941 -1.3657
  559MOL0     H75415   3.540  11.190   7.506  0.9863 -0.2991 -1.3807
  559MOL0     H75416   3.541  11.295   7.734 -2.6631  0.2761 -0.1942
  559MOL0     H75417   3.599  11.527   7.923  0.4019 -0.3140 -0.9707
  559MOL0     H75418   3.596  11.681   7.846 -1.0137  0.0070  2.5393
  559MOL0     H75419   3.366  11.677   7.816 -1.8641  2.6663  3.5798
  559MOL0     H75420   3.389  11.654   7.985 -2.0974  2.3636 -1.3307
  559MOL0     H75421   3.369  11.385   7.944 -2.1994 -2.6406 -0.2125
  559MOL0     H75422   3.325  11.412   7.782  1.4152 -1.8200  1.3973
  559MOL0     H75423   3.105  11.483   7.855 -0.2362 -1.4060  0.1391
  559MOL0     H75424   3.180  11.603   7.974 -0.6696 -0.7936  2.5173
  559MOL0     H75425   3.009  11.314   7.812  0.9885 -0.9200  0.1502
  559MOL0     H75426   2.781  11.102   7.749 -0.7032 -2.6353  1.0646
  559MOL0     H75427   2.907  11.167   7.667 -1.6143 -0.3391 -0.9898
  559MOL0     H75428   2.899  10.986   7.701 -2.8912  0.5500 -1.6694
  559MOL0     H75429   2.597  10.808   8.043 -1.9526 -0.0950  0.6652
  559MOL0     H75430   2.513  10.588   8.059  0.6816  0.1065 -1.2724
  559MOL0     H75431   2.732  10.278   8.296  0.1006 -0.8414  1.1678
  559MOL0     H75432   2.599  10.316   8.409  1.6348  0.4875  0.5287
  559MOL0     H75433   2.440  10.190   8.237 -0.2741 -1.5863  0.4081
  559MOL0     H75434   2.571  10.152   8.142 -2.2374 -4.1393 -0.0341
  559MOL0     H75435   2.553  10.056   8.424 -3.7916  1.8424 -0.8817
  559MOL0     H75436   2.690  10.016   8.308 -0.2830  2.5546 -3.4813
  559MOL0     H75437   2.409   9.931   8.259 -0.3510  1.8386  0.6044
  559MOL0     H75438   2.551   9.890   8.164 -1.1211  2.6323 -0.2516
  559MOL0     H75439   2.467   9.831   8.455  1.0472  0.4243  0.6418
  559MOL0     H75440   2.612   9.766   8.385  0.4133  2.2798 -1.0864
  559MOL0     H75441   2.361   9.698   8.227  2.2336 -1.0825 -2.3715
  559MOL0     H75442   2.515   9.623   8.231 -2.3209 -1.0911 -1.6178
  559MOL0     H75443   2.315   9.636   8.449 -1.4652 -1.5135 -0.9700
  559MOL0     H75444   2.475   9.558   8.469  0.2867 -1.6647 -2.0174
  559MOL0     H75445   2.444   9.412   8.290  1.1917  1.5731 -1.7157
  559MOL0     H75446   2.276   9.474   8.261 -0.9150  1.8737  2.8544
  559MOL0     H75447   2.820  10.454   8.312 -2.1444 -1.7923 -1.3895
  559MOL0     H75448   2.951  10.667   8.258  1.5965 -1.8550 -2.0356
  559MOL0     H75449   3.047  10.988   8.181  4.2638 -0.3008 -0.1930
  559MOL0     H75450   3.172  11.202   8.187  4.8604  2.5733 -2.7849
  559MOL0     H75451   3.221  10.935   7.767 -0.2092  1.0026  1.8845
  559MOL0     H75452   3.280  11.106   7.934  1.0776  0.5874  2.3298
  559MOL0     H75453   3.441  11.328   8.179 -0.6165  1.1305 -2.0141
  559MOL0     H75454   3.464  11.500   8.353  2.2640  0.2319  2.4900
  559MOL0     H75455   3.505  11.748   8.449 -0.3857 -1.6551 -1.4880
  559MOL0     H75456   3.535  11.604   8.545  0.6172  1.2272  2.5156
  559MOL0     H75457   3.547  11.809   8.670 -0.3903 -1.1448 -0.0840
  559MOL0     H75458   3.678  11.874   8.565 -0.9538 -0.0298 -1.4589
  559MOL0     H75459   3.808  11.815   8.728  1.9468 -0.6464 -1.2084
  559MOL0     H75460   3.819  11.671   8.635 -1.4565  0.3814 -1.5115
  559MOL0     H75461   3.640  11.550   8.751 -1.0748  0.2118  0.6996
  559MOL0     H75462   3.625  11.678   8.865 -0.7104  1.9121 -0.6635
  559MOL0     H75463   3.888  11.418   9.045 -0.7773  0.3810  0.8176
  559MOL0     H75464   3.861  11.565   8.256 -1.4789  2.5154  0.6759
  559MOL0     H75465   3.870  11.359   8.108 -0.6589 -3.8287  0.6354
  560MOL0     O75466   3.728   8.812   8.731  0.2402 -0.2755 -0.7278
  560MOL0     C75467   3.690   8.931   8.746 -0.9160  0.2448  0.7361
  560MOL0     O75468   3.603   8.980   8.837 -0.3604 -0.0695 -0.3540
  560MOL0     C75469   3.578   8.891   8.934 -0.3474  0.0826  0.1499
  560MOL0     C75470   3.658   8.889   9.045 -0.1247 -0.8255  1.1736
  560MOL0     C75471   3.628   8.815   9.152 -0.7264  1.5572  0.0761
  560MOL0     C75472   3.531   8.716   9.139  0.3239 -0.2103 -0.2506
  560MOL0     O75473   3.518   8.638   9.249  0.9508  0.1085 -0.1302
  560MOL0     C75474   3.461   8.508   9.239  0.5379  0.4996  0.1852
  560MOL0     C75475   3.319   8.534   9.278 -0.4931  0.4464  0.2291
  560MOL0     C75476   3.235   8.409   9.278 -0.0311 -0.0529 -0.0301
  560MOL0     C75477   3.152   8.398   9.149 -0.9600 -0.2123 -0.0838
  560MOL0     C75478   3.093   8.262   9.136  0.1004 -0.1278 -0.6533
  560MOL0     C75479   3.016   8.255   9.010  0.5067 -0.3391 -0.0525
  560MOL0     C75480   2.920   8.134   8.995 -0.6528  0.2389 -0.3444
  560MOL0     C75481   2.834   8.121   8.870  0.2476 -0.0083 -0.2989
  560MOL0     N75482   2.919   8.116   8.756 -0.6978 -0.2720  0.6421
  560MOL0     C75483   2.957   8.230   8.683  0.3974  0.1549 -0.9935
  560MOL0     C75484   3.048   8.179   8.595  0.5318  0.2922 -0.1717
  560MOL0     C75485   3.143   8.268   8.515  0.2632 -0.4082  0.4671
  560MOL0     C75486   3.100   8.358   8.394 -0.8789  0.5323  0.7644
  560MOL0     C75487   3.005   8.465   8.436 -0.0472 -0.2743 -0.6991
  560MOL0     C75488   2.957   8.552   8.324  0.0669  0.2699 -0.2856
  560MOL0     O75489   3.061   8.634   8.272  0.1471 -0.4734 -0.8390
  560MOL0     C75490   3.099   8.745   8.340 -1.9642  1.0332 -0.0519
  560MOL0     C75491   3.029   8.818   8.437 -0.1897 -0.4355  1.1625
  560MOL0     C75492   3.073   8.932   8.497 -1.3323 -0.2312 -0.3068
  560MOL0     C75493   2.994   9.011   8.586  0.1601 -0.2025  0.2907
  560MOL0     C75494   3.217   8.957   8.491  0.0556 -0.1287  0.4357
  560MOL0     C75495   3.291   9.050   8.588 -0.0769 -0.7505 -0.1647
  560MOL0     O75496   3.222   9.120   8.682 -0.4534  0.6119  0.0497
  560MOL0     C75497   3.304   9.197   8.758 -0.8257 -0.6171 -0.0263
  560MOL0     C75498   3.377   9.303   8.720  0.7087 -0.0853 -0.1815
  560MOL0     C75499   3.462   9.378   8.801  0.1920 -0.6739  0.6427
  560MOL0     C75500   3.478   9.335   8.931 -0.3302 -0.0300 -0.4463
  560MOL0     O75501   3.566   9.388   9.018 -0.5139 -0.1948  0.1935
  560MOL0     C75502   3.571   9.355   9.160  0.0479  0.3981  0.7482
  560MOL0     C75503   3.677   9.248   9.167  0.4943  0.0163 -0.2371
  560MOL0     C75504   3.817   9.324   9.160 -0.4692 -0.1451  0.0262
  560MOL0     C75505   3.933   9.222   9.135 -0.0319 -0.3422  0.1668
  560MOL0     C75506   3.976   9.240   8.987 -0.4100  1.1395 -0.0376
  560MOL0     C75507   4.061   9.118   8.951  0.2277 -0.7933 -0.1809
  560MOL0     C75508   4.109   9.145   8.813 -0.0485 -0.3781  0.9007
  560MOL0     C75509   4.228   9.050   8.790 -0.4487  0.8599 -0.7905
  560MOL0    Cl75510   4.292   9.083   8.632 -0.1747  0.0036  0.0108
  560MOL0     C75511   3.419   9.218   8.973  0.7249  0.3148 -0.9298
  560MOL0     C75512   3.319   9.161   8.898  0.0161  0.3997  1.2598
  560MOL0     O75513   3.408   9.068   8.560 -1.3688  0.2777 -0.5531
  560MOL0     C75514   3.293   8.870   8.404  0.2403  0.5271 -0.6942
  560MOL0     C75515   3.233   8.766   8.340 -0.5245  0.7689 -0.3561
  560MOL0     N75516   3.064   8.043   8.621  0.3809  0.9092 -0.3306
  560MOL0     N75517   2.976   8.008   8.701  0.4432 -0.5923 -0.6996
  560MOL0     C75518   3.438   8.713   9.027 -0.1816 -1.1552  0.4934
  560MOL0     C75519   3.452   8.812   8.931 -0.7501 -0.5146  0.7150
  560MOL0     C75520   3.745   9.028   8.652 -0.9756 -0.0783 -0.4081
  560MOL0     C75521   3.710   9.164   8.654  0.3597  0.0468 -0.1653
  560MOL0     C75522   3.768   9.257   8.567 -0.6440 -0.3255 -0.5970
  560MOL0     C75523   3.867   9.217   8.467  0.1872 -0.6249 -0.2993
  560MOL0     O75524   3.957   9.297   8.389 -0.5534  0.0005 -0.7437
  560MOL0     C75525   3.951   9.442   8.408  0.4999  0.2051  0.6644
  560MOL0     C75526   4.062   9.484   8.516 -0.1996  0.5535  0.2657
  560MOL0     C75527   4.059   9.635   8.547  0.2307 -0.3387 -1.1597
  560MOL0     C75528   3.923   9.671   8.618 -0.0118 -0.1777 -0.4112
  560MOL0     C75529   3.939   9.807   8.664  0.0791  0.0682  0.2270
  560MOL0     C75530   3.947   9.922   8.693  0.4053 -0.3581  0.6137
  560MOL0     C75531   3.894   9.081   8.468  0.0955  0.2355  0.4832
  560MOL0     C75532   3.831   8.984   8.551 -0.0418 -0.0959  0.1408
  560MOL0     H75533   3.740   8.960   9.057  1.0608 -2.0822  0.7380
  560MOL0     H75534   3.692   8.815   9.239 -0.2989  0.4913 -0.2191
  560MOL0     H75535   3.459   8.469   9.136  0.9153 -1.6726  0.9313
  560MOL0     H75536   3.511   8.432   9.301  1.2852  1.2657  0.5365
  560MOL0     H75537   3.319   8.573   9.380 -0.3588  0.3287  0.2745
  560MOL0     H75538   3.282   8.609   9.208 -1.6499 -1.0056 -0.7721
  560MOL0     H75539   3.294   8.320   9.300  1.7012  1.5069  1.9959
  560MOL0     H75540   3.170   8.419   9.366  1.7363 -0.6037  1.3814
  560MOL0     H75541   3.077   8.478   9.143 -1.4011 -0.2144  3.3466
  560MOL0     H75542   3.230   8.418   9.075  0.7534  2.5043  2.2119
  560MOL0     H75543   3.160   8.176   9.134  0.1047 -0.1013 -2.4474
  560MOL0     H75544   3.019   8.264   9.217 -2.1197  2.6163 -2.5623
  560MOL0     H75545   2.944   8.337   9.004 -4.8552 -4.5510 -1.8837
  560MOL0     H75546   3.085   8.252   8.925 -0.7612  2.3921 -1.3084
  560MOL0     H75547   2.983   8.044   8.996 -0.2841  0.4831 -1.2036
  560MOL0     H75548   2.867   8.138   9.091  2.7804 -1.0067  1.7734
  560MOL0     H75549   2.772   8.211   8.862  1.9590  1.5167  2.2504
  560MOL0     H75550   2.765   8.037   8.874 -0.7077  0.7892  0.4881
  560MOL0     H75551   2.932   8.331   8.714 -0.2993 -0.4590  0.5333
  560MOL0     H75552   3.198   8.339   8.577 -0.9851  0.9288  0.1029
  560MOL0     H75553   3.210   8.197   8.466 -1.5386 -0.9145 -1.4097
  560MOL0     H75554   3.057   8.299   8.312 -2.1176  2.9415 -0.4379
  560MOL0     H75555   3.194   8.395   8.351  0.8007 -2.7625  1.3074
  560MOL0     H75556   3.058   8.514   8.518 -3.2051  1.4468  0.5106
  560MOL0     H75557   2.914   8.428   8.485  1.2528 -0.8450  1.4407
  560MOL0     H75558   2.876   8.612   8.367 -0.5933 -0.0002 -1.1352
  560MOL0     H75559   2.906   8.490   8.250  0.4864  0.9708 -1.1818
  560MOL0     H75560   2.925   8.791   8.452 -0.3776  0.3825  1.3825
  560MOL0     H75561   3.003   9.114   8.549  5.1388 -1.4130 -2.8058
  560MOL0     H75562   2.894   8.968   8.575 -0.1329  0.1734  1.3356
  560MOL0     H75563   3.008   9.002   8.694 -2.2613  1.6168  0.8632
  560MOL0     H75564   3.365   9.338   8.618 -1.2090  3.2976  1.0370
  560MOL0     H75565   3.498   9.475   8.767  0.1821 -1.4574 -1.7822
  560MOL0     H75566   3.599   9.445   9.216 -1.4257  0.1043  2.0336
  560MOL0     H75567   3.472   9.323   9.194 -0.1805 -0.0042 -0.2603
  560MOL0     H75568   3.676   9.209   9.270 -0.2234 -1.2003 -0.6860
  560MOL0     H75569   3.663   9.171   9.090 -0.8343  1.8248 -1.8956
  560MOL0     H75570   3.838   9.385   9.248  1.4313  1.3801 -1.4022
  560MOL0     H75571   3.819   9.406   9.089 -3.4221  0.7840  0.8875
  560MOL0     H75572   4.028   9.245   9.183  0.7931  1.0602 -1.9576
  560MOL0     H75573   3.896   9.123   9.161 -0.3103 -0.8481 -1.9471
  560MOL0     H75574   4.030   9.334   8.972  0.4413  0.4499 -1.4134
  560MOL0     H75575   3.887   9.247   8.925 -0.4398 -2.6971 -0.6233
  560MOL0     H75576   4.144   9.104   9.022 -1.0867 -0.9811  1.3590
  560MOL0     H75577   3.993   9.033   8.943 -0.2215 -0.5326  0.7415
  560MOL0     H75578   4.141   9.249   8.801 -2.9871  0.4253 -1.2196
  560MOL0     H75579   4.032   9.135   8.736  1.5006 -2.1338 -0.5319
  560MOL0     H75580   4.186   8.949   8.796  1.7376 -0.0844 -0.6824
  560MOL0     H75581   4.308   9.060   8.864 -1.2544 -0.7758  0.3739
  560MOL0     H75582   3.435   9.172   9.070 -3.5678  3.5849  1.6889
  560MOL0     H75583   3.277   9.074   8.947  0.7398  0.7160  2.4687
  560MOL0     H75584   3.402   8.868   8.402  0.2335 -0.4981 -0.6878
  560MOL0     H75585   3.291   8.698   8.278 -0.7475  0.9743 -0.7933
  560MOL0     H75586   3.353   8.647   9.018 -0.8954 -0.0250 -2.1572
  560MOL0     H75587   3.372   8.810   8.857 -1.7700 -1.8281  1.8155
  560MOL0     H75588   3.639   9.210   8.722  1.9981 -0.0859  1.7144
  560MOL0     H75589   3.758   9.364   8.583  1.2670 -0.1074 -0.6484
  560MOL0     H75590   3.981   9.477   8.309  0.9136 -2.7288 -0.3380
  560MOL0     H75591   3.848   9.468   8.435  0.6360 -0.9256  2.4431
  560MOL0     H75592   4.160   9.454   8.479  0.3003  3.5546 -1.1979
  560MOL0     H75593   4.045   9.414   8.598 -2.8406  0.1489 -0.5190
  560MOL0     H75594   4.073   9.698   8.458 -1.9759  1.4168 -0.3616
  560MOL0     H75595   4.137   9.655   8.621 -0.4220  0.3884 -0.6416
  560MOL0     H75596   3.904   9.600   8.699 -0.3566  0.2893 -0.0759
  560MOL0     H75597   3.844   9.666   8.542 -0.7448 -2.6106  0.3992
  560MOL0     H75598   3.975  10.020   8.726 -0.9547 -0.8357  3.4168
  560MOL0     H75599   3.966   9.059   8.390  0.7606  2.3190  0.4509
  560MOL0     H75600   3.852   8.878   8.538 -0.7045 -0.2256  0.0514
  561MOL0     O75601   1.084   3.766   5.407  0.4097  0.0517 -0.1547
  561MOL0     C75602   1.095   3.650   5.441  0.4076 -0.2970  0.0230
  561MOL0     O75603   1.042   3.597   5.550  0.0409  0.0992  0.5126
  561MOL0     C75604   0.960   3.667   5.636  0.0386  0.5002  0.5176
  561MOL0     C75605   0.964   3.664   5.770  0.3397  0.1429 -0.1987
  561MOL0     C75606   0.867   3.734   5.849 -0.2595  0.5630  0.0743
  561MOL0     C75607   0.766   3.811   5.789 -0.4931 -0.0158  1.1996
  561MOL0     O75608   0.672   3.886   5.858 -0.1396 -0.2059 -0.3104
  561MOL0     C75609   0.647   4.015   5.801  0.1758  0.3985  0.8936
  561MOL0     C75610   0.498   4.020   5.746 -0.9813  0.1294  0.3108
  561MOL0     C75611   0.477   4.146   5.661  0.6697  0.1470  0.3511
  561MOL0     C75612   0.336   4.144   5.594  1.6303 -0.0038 -0.4836
  561MOL0     C75613   0.310   4.280   5.537  0.2218 -0.3412  0.3985
  561MOL0     C75614   0.178   4.276   5.461  0.7647  0.0814  0.3462
  561MOL0     C75615   0.143   4.410   5.401  0.5442  0.2183  0.0288
  561MOL0     C75616   0.074   4.382   5.266  0.0580  1.0456  0.7123
  561MOL0     N75617   0.161   4.345   5.146  0.2961  0.3995 -1.4406
  561MOL0     C75618   0.179   4.431   5.049 -0.3095 -0.7940  0.5018
  561MOL0     C75619   0.226   4.362   4.941 -0.7562 -1.1953 -0.2867
  561MOL0     C75620   0.273   4.424   4.808  0.3491  0.0311  0.2530
  561MOL0     C75621   0.353   4.329   4.721 -1.0717  0.9153 -0.3161
  561MOL0     C75622   0.385   4.399   4.588 -0.6179  0.0225  0.6865
  561MOL0     C75623   0.469   4.303   4.493 -0.1956 -0.3695  0.3796
  561MOL0     O75624   0.519   4.376   4.377  0.4352  0.1448 -0.4577
  561MOL0     C75625   0.551   4.295   4.275 -0.1151  0.2286  0.2117
  561MOL0     C75626   0.690   4.289   4.253 -0.3287 -0.9818  0.3588
  561MOL0     C75627   0.751   4.225   4.146 -0.8866  0.2893 -0.6914
  561MOL0     C75628   0.902   4.230   4.132 -0.1831  0.4830 -0.4625
  561MOL0     C75629   0.664   4.150   4.064 -0.2988  1.0404 -0.0091
  561MOL0     C75630   0.714   4.066   3.954  0.6145 -1.8799 -0.4531
  561MOL0     O75631   0.626   3.966   3.914 -0.6750  0.0548 -0.0738
  561MOL0     C75632   0.619   3.908   3.783 -0.3290 -0.7707 -0.0798
  561MOL0     C75633   0.542   3.798   3.773 -0.2963 -0.4264  0.0145
  561MOL0     C75634   0.545   3.706   3.664 -0.3784  1.1050  0.6542
  561MOL0     C75635   0.639   3.724   3.557 -0.3357  0.1226  0.0025
  561MOL0     O75636   0.645   3.651   3.445 -0.0077 -0.1263 -0.2273
  561MOL0     C75637   0.774   3.612   3.395  0.3049  0.0734  0.2966
  561MOL0     C75638   0.830   3.478   3.447  0.1602  0.0667  0.7621
  561MOL0     C75639   0.751   3.346   3.420  0.1680 -0.5571 -0.1153
  561MOL0     C75640   0.848   3.234   3.468  0.1879 -0.0856  0.2417
  561MOL0     C75641   0.771   3.107   3.469 -0.0595  0.2865 -0.3483
  561MOL0     C75642   0.873   2.992   3.484  0.0980  0.8419 -0.8566
  561MOL0     C75643   0.813   2.866   3.512 -0.2947  0.2603  0.2209
  561MOL0     C75644   0.711   2.823   3.407 -0.3436 -0.4240  0.5188
  561MOL0    Cl75645   0.665   2.657   3.418 -0.2482  0.2082  0.5947
  561MOL0     C75646   0.706   3.846   3.558  0.7488 -0.8455 -0.3778
  561MOL0     C75647   0.688   3.939   3.668  0.3038  0.1383 -0.2429
  561MOL0     O75648   0.816   4.103   3.897  0.2190 -0.7058  0.2065
  561MOL0     C75649   0.514   4.158   4.083 -0.5957 -0.6203  0.6474
  561MOL0     C75650   0.458   4.233   4.189 -0.3272  0.3466  0.3282
  561MOL0     N75651   0.232   4.231   4.980  0.0504  0.2958 -0.3508
  561MOL0     N75652   0.188   4.225   5.104 -0.3235 -0.0857 -1.1164
  561MOL0     C75653   0.738   3.786   5.656 -0.3299  0.6354 -0.1809
  561MOL0     C75654   0.848   3.731   5.579  0.3871  0.6187  0.6721
  561MOL0     C75655   1.172   3.558   5.346  0.0341 -0.4198 -0.3608
  561MOL0     C75656   1.239   3.607   5.233 -0.1437  0.4675 -0.3710
  561MOL0     C75657   1.307   3.530   5.136  0.3843  0.7912  0.3032
  561MOL0     C75658   1.323   3.395   5.168  0.0247  0.3745 -0.5394
  561MOL0     O75659   1.400   3.315   5.086  0.1653 -0.2058 -0.0748
  561MOL0     C75660   1.532   3.352   5.061 -0.5314  0.5984 -0.5751
  561MOL0     C75661   1.616   3.249   4.992  0.5815  0.4319  0.2945
  561MOL0     C75662   1.551   3.215   4.858  0.0932  0.6499  0.1918
  561MOL0     C75663   1.600   3.078   4.805 -0.3164  0.2403  0.1614
  561MOL0     C75664   1.600   3.059   4.656  0.3651 -0.9545 -0.1120
  561MOL0     C75665   1.594   3.015   4.547  0.6698  0.7284 -0.0479
  561MOL0     C75666   1.244   3.341   5.273  0.4548  0.1752  0.3900
  561MOL0     C75667   1.172   3.420   5.363  0.2956 -0.5819  0.3536
  561MOL0     H75668   1.046   3.618   5.825  1.2767  0.8545 -0.9796
  561MOL0     H75669   0.888   3.739   5.955  1.2736  2.7275 -0.2511
  561MOL0     H75670   0.654   4.098   5.872 -1.4971  1.4836 -0.1133
  561MOL0     H75671   0.717   4.038   5.721 -1.3376 -1.3117 -1.0357
  561MOL0     H75672   0.479   3.936   5.678 -1.8664 -1.5995  2.5765
  561MOL0     H75673   0.428   4.000   5.828 -0.8737 -0.6388  0.2241
  561MOL0     H75674   0.509   4.233   5.718  1.4490 -0.5386  0.9744
  561MOL0     H75675   0.548   4.156   5.578 -1.1340  1.2114 -1.1461
  561MOL0     H75676   0.325   4.079   5.507 -1.0776  0.1394 -0.3336
  561MOL0     H75677   0.259   4.118   5.668 -0.2310  2.2022 -1.5227
  561MOL0     H75678   0.319   4.357   5.614  2.0609 -1.9633  1.9232
  561MOL0     H75679   0.387   4.306   5.464  1.0547 -1.7818  0.7058
  561MOL0     H75680   0.197   4.206   5.379 -1.9377 -1.1843  0.6827
  561MOL0     H75681   0.109   4.221   5.526  2.0896  0.5167  2.1797
  561MOL0     H75682   0.070   4.458   5.466  1.2451  0.8847  0.3398
  561MOL0     H75683   0.226   4.478   5.377  1.9264 -2.3517 -3.3407
  561MOL0     H75684   0.023   4.473   5.232  0.5783  0.6567 -1.2245
  561MOL0     H75685  -0.003   4.304   5.276 -0.8793  1.7779 -0.5405
  561MOL0     H75686   0.148   4.534   5.039  4.0993  0.6141 -1.3013
  561MOL0     H75687   0.181   4.460   4.760  0.1865 -0.0621  0.4874
  561MOL0     H75688   0.329   4.514   4.835  0.0778  0.2170  0.1985
  561MOL0     H75689   0.305   4.232   4.706  2.2554 -0.7843 -1.0242
  561MOL0     H75690   0.447   4.307   4.773 -2.0169 -0.7660  0.7566
  561MOL0     H75691   0.451   4.486   4.594  0.0450 -0.4592  0.4676
  561MOL0     H75692   0.299   4.433   4.529 -2.9152 -4.6493  0.8859
  561MOL0     H75693   0.399   4.230   4.452  0.2322 -2.4281  3.0339
  561MOL0     H75694   0.546   4.246   4.546  1.4070  0.6575 -0.7595
  561MOL0     H75695   0.750   4.337   4.329 -1.5424  2.1025 -0.4790
  561MOL0     H75696   0.935   4.286   4.043  0.1165 -0.9531 -1.2830
  561MOL0     H75697   0.958   4.272   4.216  2.8436  1.1919 -2.6256
  561MOL0     H75698   0.933   4.126   4.116  3.0097  1.2338  0.0429
  561MOL0     H75699   0.465   3.765   3.842 -0.1618 -0.1449  0.2982
  561MOL0     H75700   0.486   3.616   3.652 -1.6595  2.1583 -1.6857
  561MOL0     H75701   0.753   3.608   3.288 -0.2740 -0.6387  0.4287
  561MOL0     H75702   0.852   3.688   3.404 -1.4377  2.0157 -0.3486
  561MOL0     H75703   0.934   3.463   3.416  0.0288  2.4352 -1.1266
  561MOL0     H75704   0.836   3.493   3.555  2.8566  2.9661  0.3549
  561MOL0     H75705   0.736   3.335   3.312 -3.0040 -0.9335  0.2610
  561MOL0     H75706   0.649   3.345   3.460  0.5820  0.6391  1.0213
  561MOL0     H75707   0.934   3.241   3.401 -1.7919  0.7618 -2.3664
  561MOL0     H75708   0.873   3.257   3.572 -2.8069 -0.9586  1.2685
  561MOL0     H75709   0.721   3.093   3.373  1.1093 -1.1651 -0.7758
  561MOL0     H75710   0.689   3.101   3.541 -1.2892 -2.3080 -1.8350
  561MOL0     H75711   0.926   2.986   3.388  2.1918  0.7987  0.2419
  561MOL0     H75712   0.936   3.030   3.565 -1.3764 -0.2724  0.8809
  561MOL0     H75713   0.771   2.877   3.613 -0.9430  0.0810 -0.0256
  561MOL0     H75714   0.889   2.788   3.524 -3.0776 -2.6803  0.3643
  561MOL0     H75715   0.756   2.834   3.307 -0.8177  2.0900  0.5215
  561MOL0     H75716   0.628   2.894   3.412 -1.3094 -1.4498 -0.3840
  561MOL0     H75717   0.763   3.863   3.467 -3.1533  1.5076 -2.6682
  561MOL0     H75718   0.754   4.026   3.674  1.8923 -1.0650  0.2959
  561MOL0     H75719   0.452   4.100   4.015  0.2023  1.6165 -2.1671
  561MOL0     H75720   0.352   4.253   4.202  0.0173  1.5938  1.3956
  561MOL0     H75721   0.656   3.843   5.613  0.1432 -0.3267 -2.5427
  561MOL0     H75722   0.841   3.723   5.471  0.4371 -0.4976  0.7384
  561MOL0     H75723   1.226   3.715   5.222  1.4523  0.8009  0.5881
  561MOL0     H75724   1.355   3.573   5.049  0.4794 -1.6313 -0.9421
  561MOL0     H75725   1.536   3.443   5.000  2.5695 -0.6318 -2.4108
  561MOL0     H75726   1.587   3.360   5.155  2.4680 -1.5470 -1.9738
  561MOL0     H75727   1.625   3.168   5.064 -0.9606 -1.0684 -1.1291
  561MOL0     H75728   1.711   3.302   4.977  0.2037  0.8802 -0.6453
  561MOL0     H75729   1.570   3.303   4.797 -2.8120  0.6165 -0.9263
  561MOL0     H75730   1.443   3.200   4.870 -0.3736  0.9007 -2.8529
  561MOL0     H75731   1.538   2.994   4.837  0.2519  0.0815  0.8674
  561MOL0     H75732   1.701   3.068   4.847 -0.2429  0.6244  0.0781
  561MOL0     H75733   1.576   2.977   4.448  0.0559 -0.3291  0.4494
  561MOL0     H75734   1.228   3.234   5.282  0.3993 -0.1035 -2.1834
  561MOL0     H75735   1.105   3.376   5.435 -0.8212  0.2745 -0.1250
  562MOL0     O75736   8.009  11.063   5.384  0.6273 -0.1192  0.1766
  562MOL0     C75737   8.050  10.989   5.469 -0.2434  0.5367  0.4227
  562MOL0     O75738   8.024  10.990   5.602 -0.3804  0.1730  0.4752
  562MOL0     C75739   7.928  11.065   5.650 -0.2386 -1.0514 -0.4671
  562MOL0     C75740   7.952  11.167   5.743  0.7350 -0.2147  0.3963
  562MOL0     C75741   7.848  11.257   5.785  0.4702  0.7069  0.5418
  562MOL0     C75742   7.721  11.243   5.727 -0.1674  0.1865 -0.1009
  562MOL0     O75743   7.638  11.344   5.763 -0.2627  0.7080 -0.2511
  562MOL0     C75744   7.520  11.361   5.682  0.8218  0.4923 -0.1457
  562MOL0     C75745   7.537  11.460   5.561 -0.6043 -0.7150 -0.0444
  562MOL0     C75746   7.407  11.490   5.481 -0.3627  1.0793  0.9273
  562MOL0     C75747   7.326  11.367   5.456  0.2628 -0.3793 -0.0983
  562MOL0     C75748   7.211  11.399   5.357 -0.4072  0.0752  0.6997
  562MOL0     C75749   7.083  11.450   5.416  0.8372 -0.6691  0.7061
  562MOL0     C75750   6.974  11.486   5.315 -0.1624 -0.2200 -0.1996
  562MOL0     C75751   6.997  11.612   5.236 -0.9384 -0.0025 -0.5805
  562MOL0     N75752   6.878  11.670   5.160 -0.1259 -0.0641  0.3001
  562MOL0     C75753   6.746  11.651   5.196 -1.1957 -0.9178  0.0229
  562MOL0     C75754   6.672  11.701   5.093 -1.0184  0.3917  0.1350
  562MOL0     C75755   6.525  11.696   5.105 -0.1778 -0.7808 -0.6139
  562MOL0     C75756   6.467  11.585   5.012 -0.7120  0.0965  0.9484
  562MOL0     C75757   6.514  11.564   4.871  0.8812  0.8795  1.3164
  562MOL0     C75758   6.458  11.434   4.790  0.3326 -0.1568 -1.2564
  562MOL0     O75759   6.451  11.313   4.869 -0.0959  0.9617 -0.6136
  562MOL0     C75760   6.396  11.199   4.821 -0.3818  0.9871  0.2577
  562MOL0     C75761   6.377  11.088   4.908 -0.9874  0.2782  0.6991
  562MOL0     C75762   6.307  10.977   4.866  0.0906  0.4519 -0.8505
  562MOL0     C75763   6.294  10.870   4.974 -0.5590 -0.4944  0.3242
  562MOL0     C75764   6.258  10.954   4.731  0.4379 -0.1703 -0.0418
  562MOL0     C75765   6.167  10.835   4.686 -0.1707 -0.8984 -0.3555
  562MOL0     O75766   6.130  10.840   4.557  0.0084  0.2583 -0.1180
  562MOL0     C75767   6.016  10.775   4.526  0.0601  0.0037  0.6937
  562MOL0     C75768   6.016  10.642   4.484 -0.6506 -0.0502 -0.1306
  562MOL0     C75769   5.894  10.578   4.441 -0.4268  0.0207 -0.4879
  562MOL0     C75770   5.774  10.647   4.452  0.3123  0.1556 -0.8497
  562MOL0     O75771   5.655  10.586   4.420 -0.5142  0.5967  0.1664
  562MOL0     C75772   5.543  10.663   4.365 -0.7113  0.2849  0.2159
  562MOL0     C75773   5.585  10.682   4.224 -0.1356  0.5702  0.6874
  562MOL0     C75774   5.612  10.567   4.121 -0.7861  0.2659 -0.0716
  562MOL0     C75775   5.664  10.622   3.984  0.6874 -0.2341  0.1048
  562MOL0     C75776   5.562  10.688   3.889  0.0312 -0.5026 -0.8425
  562MOL0     C75777   5.499  10.585   3.794 -0.6237 -0.4645  0.1202
  562MOL0     C75778   5.403  10.667   3.698 -1.1804  0.4044  0.3138
  562MOL0     C75779   5.292  10.587   3.635 -1.0292  0.0378  0.0235
  562MOL0    Cl75780   5.340  10.432   3.544 -0.4657 -0.2689 -0.2974
  562MOL0     C75781   5.781  10.770   4.516  0.1357 -0.1224  0.1423
  562MOL0     C75782   5.894  10.839   4.552  0.9082 -0.6193  0.4306
  562MOL0     O75783   6.116  10.768   4.771  0.4642  0.7265 -0.5134
  562MOL0     C75784   6.288  11.062   4.640 -0.5435  0.0273  0.1563
  562MOL0     C75785   6.357  11.180   4.688 -0.3968  1.0827 -0.0714
  562MOL0     N75786   6.760  11.757   4.998  0.4748 -0.1875 -0.2816
  562MOL0     N75787   6.881  11.726   5.040  0.2846 -0.0986 -0.7878
  562MOL0     C75788   7.696  11.138   5.636  0.3283  0.8069 -0.3799
  562MOL0     C75789   7.793  11.042   5.613 -0.6325 -0.8910 -1.3382
  562MOL0     C75790   8.164  10.901   5.445 -0.4579 -0.3800 -0.6795
  562MOL0     C75791   8.211  10.894   5.311  0.9675  0.0136  0.1926
  562MOL0     C75792   8.326  10.819   5.283 -0.2971  0.1049  0.7868
  562MOL0     C75793   8.413  10.768   5.390  0.0286 -0.1480 -0.2218
  562MOL0     O75794   8.525  10.693   5.365 -0.1852  0.8260 -0.0772
  562MOL0     C75795   8.548  10.627   5.232  0.0613  0.5308  0.1061
  562MOL0     C75796   8.610  10.707   5.127 -1.2854 -0.0505 -0.0023
  562MOL0     C75797   8.727  10.794   5.169  1.2838 -0.0327 -0.3203
  562MOL0     C75798   8.760  10.908   5.068  0.2152 -1.0459  1.0228
  562MOL0     C75799   8.853  10.857   4.963  1.2020 -0.3856  0.2032
  562MOL0     C75800   8.917  10.812   4.868 -0.2389 -0.2519 -0.0404
  562MOL0     C75801   8.370  10.784   5.526  0.6915  0.7206 -0.3290
  562MOL0     C75802   8.244  10.848   5.553 -0.3815  0.4650  0.4574
  562MOL0     H75803   8.049  11.188   5.788  0.7379  1.1199 -0.2054
  562MOL0     H75804   7.871  11.336   5.856  0.6824  2.1273 -1.0385
  562MOL0     H75805   7.467  11.271   5.647  0.9099  0.2805  0.2646
  562MOL0     H75806   7.449  11.414   5.747 -0.7289 -2.0680  0.3845
  562MOL0     H75807   7.583  11.546   5.610  0.8775 -0.3815 -1.9375
  562MOL0     H75808   7.605  11.423   5.484 -0.8259  3.6094 -2.6704
  562MOL0     H75809   7.357  11.560   5.549 -0.6176 -0.1854  2.0984
  562MOL0     H75810   7.422  11.538   5.384  1.7893 -0.5763  0.3728
  562MOL0     H75811   7.384  11.281   5.420 -3.0156 -4.1915  2.7850
  562MOL0     H75812   7.280  11.342   5.552  1.9794  1.8034  1.3768
  562MOL0     H75813   7.246  11.473   5.284  1.2982  0.9491  2.3340
  562MOL0     H75814   7.183  11.314   5.295 -0.9335  0.9989 -0.3735
  562MOL0     H75815   7.045  11.360   5.465  1.0125  0.1611  2.4502
  562MOL0     H75816   7.102  11.525   5.494  2.9640 -2.3756  1.9444
  562MOL0     H75817   6.941  11.400   5.255 -0.3767 -0.4315  0.2182
  562MOL0     H75818   6.891  11.505   5.384 -0.0566 -1.2246  0.2054
  562MOL0     H75819   7.078  11.594   5.164 -0.0766 -1.4608  0.6893
  562MOL0     H75820   7.023  11.675   5.321 -0.2091 -2.2303  0.9382
  562MOL0     H75821   6.716  11.596   5.285 -0.2922 -2.5763 -0.6443
  562MOL0     H75822   6.497  11.692   5.210  1.4850  0.6261 -0.0673
  562MOL0     H75823   6.488  11.793   5.069  0.4996  0.1837  1.1397
  562MOL0     H75824   6.359  11.597   4.999 -1.2922 -3.8052  1.0160
  562MOL0     H75825   6.476  11.488   5.063  2.6918  0.3784  1.0791
  562MOL0     H75826   6.623  11.571   4.865  0.7936  1.1073 -0.6017
  562MOL0     H75827   6.479  11.650   4.813  0.0333 -0.4893 -0.2698
  562MOL0     H75828   6.531  11.412   4.712  0.4457  2.8172 -2.0971
  562MOL0     H75829   6.367  11.466   4.739  0.4668  0.9444 -0.8279
  562MOL0     H75830   6.408  11.088   5.012 -1.9988  0.5737  1.0083
  562MOL0     H75831   6.372  10.883   5.050 -0.1780 -1.0684  0.0301
  562MOL0     H75832   6.202  10.894   5.028  0.3959  0.4925  1.5933
  562MOL0     H75833   6.296  10.770   4.932 -0.5641 -0.6546  0.6996
  562MOL0     H75834   6.112  10.594   4.494 -1.8916 -2.3538  1.8069
  562MOL0     H75835   5.889  10.477   4.403  2.7672  0.2009 -1.6596
  562MOL0     H75836   5.447  10.611   4.354 -1.8421  2.1268  0.9092
  562MOL0     H75837   5.519  10.754   4.420  1.0028  0.9398 -0.0500
  562MOL0     H75838   5.521  10.758   4.177 -2.2556 -1.7330 -0.3805
  562MOL0     H75839   5.681  10.734   4.228  2.3246 -3.5755  0.3979
  562MOL0     H75840   5.521  10.505   4.114  0.3826 -1.8920  2.1323
  562MOL0     H75841   5.688  10.504   4.167 -0.6527  0.1961 -0.3832
  562MOL0     H75842   5.747  10.692   3.999  0.0709  0.4524  0.3545
  562MOL0     H75843   5.715  10.544   3.928 -1.1492 -2.3321  1.1778
  562MOL0     H75844   5.628  10.742   3.820  0.2487 -0.7268 -0.8105
  562MOL0     H75845   5.491  10.756   3.937 -1.5334 -0.8464 -2.5378
  562MOL0     H75846   5.579  10.542   3.732  2.5244  4.1198  0.5256
  562MOL0     H75847   5.436  10.509   3.842 -1.9052  1.9382  2.4820
  562MOL0     H75848   5.459  10.713   3.616 -5.1660  3.0701 -1.2286
  562MOL0     H75849   5.348  10.738   3.759 -0.8661 -1.4649  2.9224
  562MOL0     H75850   5.233  10.650   3.568  2.8894  1.2915 -2.5735
  562MOL0     H75851   5.215  10.563   3.710 -3.5040  1.8934 -1.7432
  562MOL0     H75852   5.693  10.833   4.525 -2.3037 -3.4844  2.5821
  562MOL0     H75853   5.884  10.937   4.597  0.0718  0.0359 -1.1197
  562MOL0     H75854   6.251  11.057   4.538  0.3595  0.5223 -0.2065
  562MOL0     H75855   6.368  11.257   4.612  0.1625  1.7405  0.6586
  562MOL0     H75856   7.600  11.126   5.587  0.3959 -2.2189  0.0682
  562MOL0     H75857   7.775  10.957   5.548 -2.1707  0.2160 -2.4343
  562MOL0     H75858   8.152  10.940   5.231 -0.3408 -1.4296  0.2859
  562MOL0     H75859   8.333  10.807   5.175  2.7862  0.7092  0.8265
  562MOL0     H75860   8.616  10.543   5.249  0.0544  0.5891  0.4270
  562MOL0     H75861   8.453  10.584   5.199  1.0229 -1.6444 -0.0058
  562MOL0     H75862   8.525  10.765   5.089 -1.6748  0.0912  1.0354
  562MOL0     H75863   8.643  10.642   5.046 -0.6712  2.3867 -1.8286
  562MOL0     H75864   8.818  10.734   5.176  2.6228  1.4286 -3.4200
  562MOL0     H75865   8.718  10.834   5.271 -2.1223  1.9707 -1.2269
  562MOL0     H75866   8.819  10.986   5.117 -0.9905 -0.4288  1.5379
  562MOL0     H75867   8.672  10.949   5.017 -0.3813 -0.9884  2.0863
  562MOL0     H75868   8.982  10.781   4.789 -1.9431 -0.9528 -1.2387
  562MOL0     H75869   8.427  10.741   5.608  1.0671  0.6240 -0.6334
  562MOL0     H75870   8.209  10.848   5.655 -2.2745 -0.2963 -0.1392
  563MOL0     O75871  10.058   0.214   1.481 -0.4568 -0.1095  1.0811
  563MOL0     C75872   9.999   0.133   1.410 -0.0666 -1.1915  0.3227
  563MOL0     O75873  10.022   0.110   1.280 -0.3138 -1.3054  0.3633
  563MOL0     C75874  10.115   0.199   1.218  0.4387 -0.7500 -0.2068
  563MOL0     C75875  10.258   0.175   1.224  0.2178  1.1156 -0.4506
  563MOL0     C75876  10.343   0.261   1.154 -0.5822  1.0052  1.0278
  563MOL0     C75877  10.298   0.376   1.082 -0.4199  0.1263 -0.2546
  563MOL0     O75878  10.372   0.470   1.021  0.2060  0.2584 -0.6680
  563MOL0     C75879  10.504   0.434   0.963  0.8088 -0.7937 -0.5805
  563MOL0     C75880  10.505   0.373   0.820 -0.5924  0.1910  0.5650
  563MOL0     C75881  10.391   0.426   0.730  0.3271 -0.6079 -0.8670
  563MOL0     C75882  10.353   0.340   0.596 -0.3446 -0.2674 -0.8693
  563MOL0     C75883  10.257   0.414   0.502  0.2658  0.1426 -0.3813
  563MOL0     C75884  10.250   0.344   0.373 -0.5510 -0.1596  1.5432
  563MOL0     C75885  10.231   0.190   0.377  0.5397 -0.3124 -0.6113
  563MOL0     C75886  10.247   0.139   0.229  0.7346  0.5408  0.1997
  563MOL0     N75887  10.170   0.208   0.126  0.6781  0.3231 -0.0517
  563MOL0     C75888  10.037   0.247   0.127 -0.3123  0.8067  0.7593
  563MOL0     C75889  10.014   0.303   0.005  0.8046  0.2726  0.1719
  563MOL0     C75890   9.887   0.351  -0.057  0.6243  0.5889 -0.1424
  563MOL0     C75891   9.785   0.241  -0.107 -0.2520  0.7715 -0.3824
  563MOL0     C75892   9.712   0.180   0.026 -0.6085  0.2421  0.0234
  563MOL0     C75893   9.568   0.234   0.041 -0.0596  0.9924  0.6656
  563MOL0     O75894   9.499   0.198   0.160 -0.2948  0.8977 -0.7806
  563MOL0     C75895   9.444   0.077   0.178 -0.6244 -0.0540 -0.3551
  563MOL0     C75896   9.423  -0.029   0.082  0.5441  0.1284 -0.8684
  563MOL0     C75897   9.366  -0.150   0.109  0.4869 -0.4381  0.3249
  563MOL0     C75898   9.355  -0.250  -0.006 -0.2092 -0.2092  0.2927
  563MOL0     C75899   9.334  -0.178   0.246  0.7271 -0.5327 -0.6456
  563MOL0     C75900   9.282  -0.306   0.302  0.1605 -0.7842  0.1341
  563MOL0     O75901   9.196  -0.286   0.416  0.1517  0.8357 -0.5917
  563MOL0     C75902   9.141  -0.389   0.485  0.0295  0.7006 -0.8280
  563MOL0     C75903   9.167  -0.404   0.622  0.0194 -0.0718 -0.5135
  563MOL0     C75904   9.113  -0.512   0.698  0.4445 -0.4300 -0.2341
  563MOL0     C75905   9.036  -0.618   0.643  0.4989  0.2436 -0.9275
  563MOL0     O75906   8.962  -0.708   0.717 -0.1233 -0.2064 -0.7639
  563MOL0     C75907   9.030  -0.770   0.831 -0.2623 -0.8137 -0.4239
  563MOL0     C75908   8.948  -0.901   0.860  0.3674  0.4054  0.4375
  563MOL0     C75909   8.798  -0.880   0.876 -0.7345 -0.1705  0.4985
  563MOL0     C75910   8.734  -1.018   0.905  0.2430 -1.4268 -0.8095
  563MOL0     C75911   8.587  -1.008   0.952 -0.8202  0.0726  0.0144
  563MOL0     C75912   8.558  -1.152   1.012 -0.2962  0.0974 -0.3314
  563MOL0     C75913   8.414  -1.191   1.008  0.8256 -0.5749  0.0818
  563MOL0     C75914   8.334  -1.092   1.088  0.3755  0.4691 -0.6837
  563MOL0    Cl75915   8.182  -1.171   1.142 -0.1674  0.1815 -0.2348
  563MOL0     C75916   9.011  -0.604   0.508  0.1939 -0.1879  1.0506
  563MOL0     C75917   9.057  -0.488   0.438 -0.6827  0.0752  0.7276
  563MOL0     O75918   9.332  -0.409   0.254  0.1769  0.2897 -0.4810
  563MOL0     C75919   9.352  -0.071   0.338 -0.3100  0.3808 -0.9277
  563MOL0     C75920   9.393   0.054   0.304 -0.0704 -0.1700  0.7835
  563MOL0     N75921  10.140   0.322  -0.057 -0.0020  0.2511 -0.3099
  563MOL0     N75922  10.230   0.263   0.017 -0.1156  0.8548  0.1376
  563MOL0     C75923  10.164   0.408   1.089  0.4533  0.4508  0.0311
  563MOL0     C75924  10.070   0.313   1.151  0.2052 -2.0278  0.0534
  563MOL0     C75925   9.885   0.061   1.468  0.4411  0.4906 -0.1574
  563MOL0     C75926   9.842   0.071   1.602 -0.0946  0.1240  0.8109
  563MOL0     C75927   9.728   0.004   1.650 -0.3220  0.1309  0.2852
  563MOL0     C75928   9.663  -0.080   1.565 -0.1086  0.6358  0.3328
  563MOL0     O75929   9.558  -0.151   1.601  0.5664  0.3222 -0.4807
  563MOL0     C75930   9.535  -0.210   1.731 -0.5135 -0.1846  1.0072
  563MOL0     C75931   9.420  -0.133   1.786 -0.5018 -0.5369 -0.5432
  563MOL0     C75932   9.404  -0.172   1.934  0.0396  1.2052  0.2344
  563MOL0     C75933   9.459  -0.070   2.045 -0.9192  0.0022  0.6618
  563MOL0     C75934   9.602  -0.072   2.044 -0.0956  0.0657  0.1255
  563MOL0     C75935   9.722  -0.083   2.053 -0.0050 -0.1371 -0.0271
  563MOL0     C75936   9.693  -0.089   1.428 -0.5894  0.2567 -0.3437
  563MOL0     C75937   9.806  -0.021   1.381 -0.0451 -0.2396 -0.1952
  563MOL0     H75938  10.285   0.088   1.283 -1.9659 -0.1862 -1.2631
  563MOL0     H75939  10.451   0.250   1.157 -0.3232 -1.9495 -4.6103
  563MOL0     H75940  10.556   0.529   0.944  1.4332 -0.3123  2.8890
  563MOL0     H75941  10.576   0.385   1.028  3.2297  3.6093  0.4991
  563MOL0     H75942  10.608   0.383   0.787  0.2687 -3.7098  1.5543
  563MOL0     H75943  10.501   0.265   0.833  3.6433 -0.6151 -2.7249
  563MOL0     H75944  10.294   0.425   0.780  0.7955 -1.3458  0.0444
  563MOL0     H75945  10.398   0.531   0.699 -3.2278 -0.9233 -3.4364
  563MOL0     H75946  10.446   0.333   0.539 -1.1147 -0.1641 -2.1911
  563MOL0     H75947  10.313   0.245   0.630  0.3979  0.9522  4.2724
  563MOL0     H75948  10.153   0.417   0.536  0.2804  1.5744 -0.3876
  563MOL0     H75949  10.282   0.519   0.481  2.4883 -0.4200 -0.7860
  563MOL0     H75950  10.182   0.399   0.307  0.0566 -0.8414  0.3018
  563MOL0     H75951  10.346   0.352   0.320  0.4094 -1.6245  2.9671
  563MOL0     H75952  10.300   0.138   0.444  0.3586  0.8171  0.5011
  563MOL0     H75953  10.126   0.168   0.400 -0.1730  1.8452 -1.4682
  563MOL0     H75954  10.219   0.034   0.221 -1.3805  1.0523  0.2234
  563MOL0     H75955  10.353   0.148   0.203  0.6739  1.0032  0.0970
  563MOL0     H75956   9.968   0.208   0.201 -3.5024  1.4471 -1.6680
  563MOL0     H75957   9.850   0.426   0.013  2.2073  0.3496  1.0117
  563MOL0     H75958   9.901   0.410  -0.148 -1.4209  2.3916  0.6204
  563MOL0     H75959   9.829   0.170  -0.179 -0.8606 -1.0278  0.9345
  563MOL0     H75960   9.717   0.301  -0.168  0.7306 -0.2318 -2.5886
  563MOL0     H75961   9.767   0.207   0.116 -0.0177 -0.4490 -0.1203
  563MOL0     H75962   9.689   0.073   0.025 -2.9419  0.5179  3.9892
  563MOL0     H75963   9.512   0.222  -0.053 -1.3346  1.8897  1.2821
  563MOL0     H75964   9.567   0.341   0.061  3.0138  1.0285  1.1618
  563MOL0     H75965   9.466  -0.004  -0.015  3.4809  4.1412  1.1637
  563MOL0     H75966   9.305  -0.204  -0.092 -0.1863  0.0599  0.4221
  563MOL0     H75967   9.458  -0.271  -0.035 -0.0026 -1.6727  1.9493
  563MOL0     H75968   9.316  -0.348   0.025 -1.8554  0.7726  1.5120
  563MOL0     H75969   9.241  -0.340   0.668  0.1550  0.6576 -1.6742
  563MOL0     H75970   9.144  -0.512   0.802 -0.0542  1.2407 -0.0490
  563MOL0     H75971   9.137  -0.778   0.809  0.4154  3.6842  0.3236
  563MOL0     H75972   9.027  -0.701   0.916 -1.6337  0.1954 -1.2576
  563MOL0     H75973   8.949  -0.969   0.775 -1.3635  0.2965  0.4728
  563MOL0     H75974   8.980  -0.954   0.950 -2.1066 -0.3236  0.9589
  563MOL0     H75975   8.759  -0.846   0.780 -0.8493 -0.2189  0.5271
  563MOL0     H75976   8.775  -0.808   0.955 -1.1772 -1.3605  1.4960
  563MOL0     H75977   8.736  -1.080   0.815  0.0323 -4.4743  1.1413
  563MOL0     H75978   8.787  -1.070   0.985  0.0745 -2.6146 -1.4428
  563MOL0     H75979   8.522  -0.988   0.867  0.9727 -3.8049 -2.5641
  563MOL0     H75980   8.578  -0.919   1.014  1.7408 -0.0627  0.7100
  563MOL0     H75981   8.615  -1.226   0.955  1.2138  1.1161 -0.1959
  563MOL0     H75982   8.602  -1.152   1.112 -1.5478  1.0840  0.2432
  563MOL0     H75983   8.397  -1.294   1.041 -1.2702  0.6484  3.3782
  563MOL0     H75984   8.382  -1.181   0.904  5.0718  0.6831 -1.3019
  563MOL0     H75985   8.328  -0.994   1.041 -1.0261 -0.2039 -2.0043
  563MOL0     H75986   8.388  -1.072   1.181  1.7348 -6.1326  0.4348
  563MOL0     H75987   8.936  -0.659   0.452 -1.9235  3.4614 -0.0507
  563MOL0     H75988   9.021  -0.471   0.337  0.8033  5.2300  0.8011
  563MOL0     H75989   9.333  -0.087   0.444 -0.8619  0.7920 -0.9628
  563MOL0     H75990   9.401   0.137   0.374 -0.6855 -0.1240  0.8039
  563MOL0     H75991  10.145   0.501   1.035  0.3272 -0.6748 -1.9442
  563MOL0     H75992   9.966   0.344   1.158  0.4025 -1.2253 -0.4078
  563MOL0     H75993   9.899   0.132   1.671  4.8680 -1.2601 -1.6185
  563MOL0     H75994   9.682   0.018   1.748 -1.0211  4.6299 -0.4581
  563MOL0     H75995   9.517  -0.318   1.723 -1.1485  0.0889 -3.9547
  563MOL0     H75996   9.629  -0.201   1.787  0.6915  0.6936 -1.0486
  563MOL0     H75997   9.333  -0.162   1.726 -0.1179 -0.4441 -1.1593
  563MOL0     H75998   9.435  -0.025   1.775 -2.1807 -0.0664  1.2474
  563MOL0     H75999   9.443  -0.273   1.942 -0.8342  0.7603 -0.7607
  563MOL0     H76000   9.303  -0.175   1.976  1.2958  1.2411  3.5504
  563MOL0     H76001   9.425  -0.102   2.144 -1.3312  2.1776  1.2650
  563MOL0     H76002   9.426   0.034   2.036  0.1182  0.4436  1.6317
  563MOL0     H76003   9.829  -0.080   2.058  0.0007 -1.3401  1.2945
  563MOL0     H76004   9.627  -0.141   1.359 -1.8917 -0.8049  1.6072
  563MOL0     H76005   9.850  -0.041   1.284  1.0892 -0.3768  0.3354
  564MOL0     O76006   1.042  11.142   4.421 -0.9099 -0.0051  0.4633
  564MOL0     C76007   0.976  11.167   4.321 -0.8913  0.0359  0.5161
  564MOL0     O76008   1.027  11.202   4.199  0.3580  0.0137  0.0910
  564MOL0     C76009   1.162  11.170   4.182 -0.8013 -0.8046 -0.4033
  564MOL0     C76010   1.260  11.258   4.238  0.1259 -0.1865 -0.4713
  564MOL0     C76011   1.399  11.240   4.213  0.0118  0.7010  0.0958
  564MOL0     C76012   1.441  11.122   4.151 -0.5444 -1.2088 -0.4283
  564MOL0     O76013   1.580  11.104   4.123  0.5799 -0.0201 -0.4283
  564MOL0     C76014   1.672  11.200   4.178  0.2624  0.2752 -0.2182
  564MOL0     C76015   1.812  11.148   4.177 -0.3387  0.4169  0.5603
  564MOL0     C76016   1.900  11.240   4.259 -0.1260 -0.6508  0.8313
  564MOL0     C76017   2.050  11.228   4.215  0.0943 -0.1331 -0.3561
  564MOL0     C76018   2.160  11.297   4.307 -0.2351 -0.4660 -0.5270
  564MOL0     C76019   2.134  11.445   4.339 -0.2864 -0.1592 -0.7648
  564MOL0     C76020   2.236  11.497   4.445 -0.4607 -0.3802  0.6354
  564MOL0     C76021   2.267  11.641   4.453 -0.1191 -0.5457  0.6308
  564MOL0     N76022   2.299  11.701   4.582  0.4883  1.1865 -0.3708
  564MOL0     C76023   2.239  11.679   4.710  0.6581  1.1289 -0.3002
  564MOL0     C76024   2.315  11.751   4.792  0.8613 -0.8800  0.0771
  564MOL0     C76025   2.288  11.771   4.939  0.7387  0.5157 -0.3886
  564MOL0     C76026   2.135  11.783   4.971 -0.1519  0.3952  0.2708
  564MOL0     C76027   2.112  11.838   5.113 -1.2775 -0.3653  0.0732
  564MOL0     C76028   1.966  11.847   5.148  0.2131 -0.1509  0.3067
  564MOL0     O76029   1.887  11.750   5.073  0.0181 -0.0802 -0.8188
  564MOL0     C76030   1.755  11.741   5.113  0.3838 -0.0340 -0.4893
  564MOL0     C76031   1.688  11.633   5.055 -0.9450 -0.4954 -0.3300
  564MOL0     C76032   1.554  11.612   5.089 -0.0442 -0.4037  0.0630
  564MOL0     C76033   1.498  11.476   5.048 -0.2957  0.1456  0.2385
  564MOL0     C76034   1.475  11.704   5.167  0.4593 -0.4430  0.3817
  564MOL0     C76035   1.321  11.698   5.178  0.5047  0.7342  0.5900
  564MOL0     O76036   1.261  11.804   5.241  0.0191 -0.8408 -0.2836
  564MOL0     C76037   1.127  11.779   5.260  0.4844  0.0643  0.1265
  564MOL0     C76038   1.076  11.767   5.393  0.9667 -0.4518  0.8212
  564MOL0     C76039   0.931  11.770   5.403 -0.3148 -0.1000 -0.2603
  564MOL0     C76040   0.851  11.790   5.290 -0.0506 -0.6755  0.3510
  564MOL0     O76041   0.714  11.817   5.291 -0.4753 -0.3889 -0.4533
  564MOL0     C76042   0.628  11.789   5.403 -0.0494  0.1427 -0.6910
  564MOL0     C76043   0.581  11.644   5.375  1.1244 -0.3207 -1.3359
  564MOL0     C76044   0.456  11.613   5.469  0.4158 -0.1644  0.6858
  564MOL0     C76045   0.461  11.656   5.607  0.1871 -0.0878 -0.4074
  564MOL0     C76046   0.348  11.609   5.689  0.1846 -0.2993 -0.6726
  564MOL0     C76047   0.213  11.678   5.661 -0.1354  0.8089  0.1811
  564MOL0     C76048   0.101  11.647   5.766 -1.0892  0.0107  0.2159
  564MOL0     C76049   0.135  11.720   5.893 -1.1076  0.1035 -1.1095
  564MOL0    Cl76050   0.138  11.604   6.036  0.2327  0.0838  0.0816
  564MOL0     C76051   0.906  11.807   5.166  0.8459  0.6061 -0.7778
  564MOL0     C76052   1.038  11.801   5.149 -0.7507  0.3567 -0.3261
  564MOL0     O76053   1.261  11.603   5.113  0.6070 -0.1357 -0.5823
  564MOL0     C76054   1.547  11.814   5.209 -0.5123  0.1505 -0.5733
  564MOL0     C76055   1.679  11.832   5.187 -0.9531  0.2573  0.0387
  564MOL0     N76056   2.420  11.809   4.718  0.3924 -0.1502  0.1595
  564MOL0     N76057   2.408  11.776   4.595  0.0815 -0.1490 -0.7824
  564MOL0     C76058   1.350  11.025   4.114  0.5486 -0.6480 -0.9371
  564MOL0     C76059   1.207  11.051   4.131 -0.4515  0.7183 -0.0464
  564MOL0     C76060   0.832  11.188   4.344  1.0413 -0.3266 -0.0745
  564MOL0     C76061   0.738  11.212   4.245  0.3809  0.2025  1.6735
  564MOL0     C76062   0.606  11.233   4.272 -0.3277 -0.5998  1.3579
  564MOL0     C76063   0.561  11.227   4.404 -0.0912 -0.1360 -0.0981
  564MOL0     O76064   0.425  11.247   4.412  0.1815  0.4073 -0.0051
  564MOL0     C76065   0.383  11.371   4.471 -0.4378  0.7485 -1.0524
  564MOL0     C76066   0.236  11.416   4.425 -0.2064  0.5302  0.9485
  564MOL0     C76067   0.173  11.539   4.475  0.7045  0.2609 -0.3737
  564MOL0     C76068   0.133  11.545   4.623  0.8712 -0.6167  0.5556
  564MOL0     C76069   0.243  11.541   4.714  0.6599 -0.3913 -0.7358
  564MOL0     C76070   0.340  11.516   4.783 -0.6658  0.1660 -0.5850
  564MOL0     C76071   0.652  11.195   4.507 -0.2141 -1.5795 -0.3567
  564MOL0     C76072   0.790  11.182   4.478 -0.1389  0.1682 -0.1853
  564MOL0     H76073   1.237  11.352   4.288  1.5275  0.6754 -1.3569
  564MOL0     H76074   1.467  11.322   4.231  0.4179  0.0034  1.9547
  564MOL0     H76075   1.667  11.299   4.132  0.2340 -0.2348 -1.3360
  564MOL0     H76076   1.651  11.213   4.285  1.0246  1.7289 -0.2257
  564MOL0     H76077   1.812  11.046   4.217 -1.5966  0.1728 -0.0020
  564MOL0     H76078   1.849  11.155   4.074 -2.3452 -0.8403 -0.2991
  564MOL0     H76079   1.868  11.343   4.242  5.5549  1.1985 -0.9034
  564MOL0     H76080   1.894  11.224   4.367  0.1941 -1.2510  0.7655
  564MOL0     H76081   2.085  11.125   4.209  0.1595 -0.1219 -0.1653
  564MOL0     H76082   2.047  11.260   4.110 -1.5284 -3.7831 -1.5672
  564MOL0     H76083   2.171  11.252   4.406  1.6894  2.5073  0.7603
  564MOL0     H76084   2.258  11.293   4.259  1.2358 -0.9340  2.2991
  564MOL0     H76085   2.144  11.516   4.256 -0.1256  1.6945  0.7609
  564MOL0     H76086   2.033  11.449   4.380  1.0379 -1.2235  2.9468
  564MOL0     H76087   2.202  11.450   4.538 -2.3248 -3.9840 -1.6067
  564MOL0     H76088   2.333  11.449   4.430  0.0086  0.3199  1.3482
  564MOL0     H76089   2.176  11.695   4.425  0.5325  0.5946  0.6237
  564MOL0     H76090   2.340  11.671   4.377  1.0950  2.1959  2.6888
  564MOL0     H76091   2.148  11.620   4.719  3.4078 -3.1990  2.2334
  564MOL0     H76092   2.329  11.697   5.008  4.1129  3.0245  0.5725
  564MOL0     H76093   2.322  11.867   4.978 -0.1643  0.7071 -0.0506
  564MOL0     H76094   2.099  11.680   4.974 -1.8949  0.9695 -0.0238
  564MOL0     H76095   2.086  11.820   4.881  0.9624 -2.2841 -1.5638
  564MOL0     H76096   2.169  11.929   5.132  2.1353 -1.9366 -1.6512
  564MOL0     H76097   2.154  11.755   5.172 -2.1803 -2.5240 -2.1472
  564MOL0     H76098   1.927  11.947   5.125  1.4305  0.1554 -0.5616
  564MOL0     H76099   1.954  11.840   5.256  2.2686  0.8325  0.6371
  564MOL0     H76100   1.752  11.563   5.002 -0.1664  0.6365 -0.9083
  564MOL0     H76101   1.440  11.501   4.958 -0.5153  2.4854  0.9601
  564MOL0     H76102   1.579  11.407   5.023 -0.1338 -0.0259  1.2157
  564MOL0     H76103   1.447  11.404   5.113  2.8288 -5.7314 -2.9410
  564MOL0     H76104   1.135  11.772   5.483 -2.1709  0.2022  3.0086
  564MOL0     H76105   0.892  11.768   5.504  1.0783 -0.9543  0.2826
  564MOL0     H76106   0.671  11.798   5.503  2.3684 -0.4022 -1.6100
  564MOL0     H76107   0.556  11.871   5.406  1.4529  1.4984 -0.2415
  564MOL0     H76108   0.546  11.637   5.272  0.8993 -0.2651 -1.2634
  564MOL0     H76109   0.664  11.574   5.387  2.7772  1.7797  0.3983
  564MOL0     H76110   0.433  11.506   5.463  2.9825 -0.7583 -0.0420
  564MOL0     H76111   0.368  11.662   5.426  0.9124 -0.7304 -1.0499
  564MOL0     H76112   0.548  11.612   5.656 -1.0390 -0.5333  1.5108
  564MOL0     H76113   0.469  11.765   5.602 -0.3179  0.0693  1.5050
  564MOL0     H76114   0.384  11.621   5.791 -0.6636  0.9166 -0.4925
  564MOL0     H76115   0.343  11.500   5.686  3.6799 -0.5941  0.3196
  564MOL0     H76116   0.231  11.786   5.665  5.2162  0.3077 -2.3579
  564MOL0     H76117   0.187  11.657   5.557  2.0841  0.5619 -0.3781
  564MOL0     H76118   0.093  11.539   5.785  1.3309 -0.4984 -1.2784
  564MOL0     H76119   0.001  11.670   5.729 -0.7253 -0.3924 -1.0608
  564MOL0     H76120   0.073  11.809   5.902  3.4992  3.6360 -0.3184
  564MOL0     H76121   0.236  11.762   5.895 -1.1998  0.2756  0.5957
  564MOL0     H76122   0.844  11.823   5.078 -0.4332 -2.6441 -0.5823
  564MOL0     H76123   1.076  11.801   5.048 -1.9822  3.1928 -0.8862
  564MOL0     H76124   1.491  11.894   5.256 -2.6804 -1.5629 -0.0488
  564MOL0     H76125   1.726  11.913   5.241  0.8914 -0.7753  0.0534
  564MOL0     H76126   1.385  10.927   4.083  0.3202 -2.7346  4.2967
  564MOL0     H76127   1.138  10.971   4.104  0.3312  0.8995 -2.9084
  564MOL0     H76128   0.774  11.226   4.144 -3.2688 -0.2617  0.1624
  564MOL0     H76129   0.539  11.268   4.193 -1.1431  0.5113  2.4921
  564MOL0     H76130   0.390  11.359   4.580  0.2666  1.3981 -1.0153
  564MOL0     H76131   0.454  11.446   4.435 -1.4967  1.2594 -2.1371
  564MOL0     H76132   0.169  11.332   4.446  0.7547 -0.3354  0.6662
  564MOL0     H76133   0.248  11.435   4.318 -1.7009  0.5644  0.7653
  564MOL0     H76134   0.080  11.543   4.418 -0.7067  0.9121  1.8344
  564MOL0     H76135   0.242  11.622   4.456  1.3341  0.1375  1.2171
  564MOL0     H76136   0.060  11.464   4.635 -1.8147  1.2227 -1.9198
  564MOL0     H76137   0.073  11.633   4.647 -2.1190 -2.4018  0.0784
  564MOL0     H76138   0.422  11.483   4.844 -1.0154 -3.1778 -1.7171
  564MOL0     H76139   0.615  11.187   4.609 -1.0622  0.8179 -0.4250
  564MOL0     H76140   0.862  11.168   4.558 -0.1022 -1.0674 -0.4232
  565MOL0     O76141  10.074   3.868   0.152 -0.4805  0.1982 -1.0830
  565MOL0     C76142  10.149   3.834   0.243  0.7026 -0.0979  0.5926
  565MOL0     O76143  10.212   3.918   0.332 -0.6128 -0.6014 -0.4353
  565MOL0     C76144  10.228   4.048   0.323 -0.8591 -0.4956  0.8404
  565MOL0     C76145  10.304   4.110   0.427 -0.0192  0.1838  0.0799
  565MOL0     C76146  10.354   4.241   0.416  0.0786 -0.0700  0.6649
  565MOL0     C76147  10.320   4.320   0.307 -0.2131  0.9009  0.0973
  565MOL0     O76148  10.377   4.444   0.302 -0.1663  0.8211  0.8688
  565MOL0     C76149  10.379   4.520   0.179  0.8160 -0.6105  0.0131
  565MOL0     C76150  10.437   4.661   0.209  0.5992  0.5579 -0.7883
  565MOL0     C76151  10.563   4.665   0.297  0.3982 -1.0223 -1.3346
  565MOL0     C76152  10.601   4.802   0.356 -0.4228 -0.6221 -0.1644
  565MOL0     C76153  10.718   4.778   0.451 -0.4325 -0.8423  0.0947
  565MOL0     C76154  10.749   4.893   0.547  0.1839 -0.3964  1.5247
  565MOL0     C76155  10.815   4.839   0.671 -0.3783 -0.3924  0.6468
  565MOL0     C76156  10.963   4.816   0.655 -0.6987 -0.1682 -0.4945
  565MOL0     N76157  11.014   4.800   0.794  0.6297 -0.2238 -0.6852
  565MOL0     C76158  11.016   4.898   0.896  0.5369 -0.0652  0.8044
  565MOL0     C76159  11.084   4.844   0.998  0.6032 -0.5056 -0.2410
  565MOL0     C76160  11.122   4.923   1.120  0.2924  0.1923  0.1663
  565MOL0     C76161  11.197   5.053   1.094 -0.7015 -0.1866 -0.2428
  565MOL0     C76162  11.346   5.027   1.036 -0.0510  0.7762  0.2014
  565MOL0     C76163  11.397   5.155   0.976  0.2228 -0.1802 -0.1958
  565MOL0     O76164  11.534   5.138   0.954  0.3588 -0.6453 -0.3660
  565MOL0     C76165  11.606   5.250   0.948 -0.7385  0.6065 -0.0374
  565MOL0     C76166  11.713   5.261   1.031  0.3716  0.3576 -0.2193
  565MOL0     C76167  11.797   5.375   1.037 -0.9494 -0.2160  0.2941
  565MOL0     C76168  11.891   5.389   1.145 -0.7877 -0.1091 -0.6384
  565MOL0     C76169  11.781   5.486   0.946  1.5261  0.0160 -0.2359
  565MOL0     C76170  11.883   5.586   0.929 -0.3248  0.4064  0.1098
  565MOL0     O76171  12.008   5.551   0.891  0.1363  0.0097  0.2134
  565MOL0     C76172  12.115   5.643   0.867  0.2113  0.6518 -0.4388
  565MOL0     C76173  12.240   5.601   0.903  0.5007 -0.5918 -0.1288
  565MOL0     C76174  12.352   5.693   0.902 -0.0819  0.5796  0.5559
  565MOL0     C76175  12.333   5.825   0.866 -0.1640  1.2540  0.2134
  565MOL0     O76176  12.440   5.913   0.878  0.3627 -0.2685  0.1436
  565MOL0     C76177  12.457   5.997   0.765  0.2383 -0.6582 -0.3718
  565MOL0     C76178  12.417   6.137   0.802 -1.0286  0.0726 -1.1808
  565MOL0     C76179  12.484   6.242   0.715  1.0205 -0.3660 -0.3249
  565MOL0     C76180  12.392   6.308   0.612 -0.0240  0.0489  0.4547
  565MOL0     C76181  12.326   6.428   0.673 -0.2207 -0.3099  0.0877
  565MOL0     C76182  12.223   6.506   0.586  0.5477 -0.0996 -0.8850
  565MOL0     C76183  12.135   6.596   0.669  0.1883  0.1667  0.9001
  565MOL0     C76184  12.040   6.676   0.567  0.1631 -0.3975  0.7967
  565MOL0    Cl76185  11.917   6.573   0.488 -0.4553  0.1028 -0.3268
  565MOL0     C76186  12.199   5.870   0.838 -0.1213  0.4106  0.6994
  565MOL0     C76187  12.098   5.781   0.842 -0.4236 -0.1853  0.1530
  565MOL0     O76188  11.837   5.695   0.944 -0.2601 -0.0103  0.6673
  565MOL0     C76189  11.657   5.473   0.870  0.3796  0.0386 -0.2710
  565MOL0     C76190  11.571   5.364   0.878 -1.1960 -0.8284  0.4896
  565MOL0     N76191  11.114   4.716   0.966  0.8177 -0.7441  0.9246
  565MOL0     N76192  11.075   4.686   0.847 -0.2065 -1.0363 -0.3500
  565MOL0     C76193  10.222   4.263   0.212  0.5633 -1.1651  0.3700
  565MOL0     C76194  10.190   4.127   0.216  0.1685 -0.7576 -0.3241
  565MOL0     C76195  10.158   3.687   0.281 -0.4785  0.1306 -0.3187
  565MOL0     C76196  10.281   3.636   0.338  0.9189  0.3249  1.3006
  565MOL0     C76197  10.293   3.501   0.389 -0.1664  0.1728 -0.3118
  565MOL0     C76198  10.180   3.419   0.392 -0.1952  1.1363  0.5932
  565MOL0     O76199  10.168   3.307   0.471 -0.1013  0.3778  0.3594
  565MOL0     C76200  10.294   3.251   0.530  0.3007 -0.3894 -0.8435
  565MOL0     C76201  10.266   3.103   0.539 -1.6193 -0.9406 -0.0059
  565MOL0     C76202  10.381   3.030   0.590 -0.2510  0.8851 -0.2773
  565MOL0     C76203  10.358   2.878   0.594 -0.7924  0.3334  0.9718
  565MOL0     C76204  10.326   2.807   0.461  0.3912  0.0125 -1.0499
  565MOL0     C76205  10.308   2.740   0.363 -0.8773 -0.2949 -0.0387
  565MOL0     C76206  10.064   3.473   0.332 -0.7596  0.3099 -0.2403
  565MOL0     C76207  10.060   3.600   0.255  0.3579  0.3106  0.0534
  565MOL0     H76208  10.336   4.055   0.515 -0.9427 -1.1917 -0.4086
  565MOL0     H76209  10.426   4.287   0.483 -1.1165  3.9881 -0.5557
  565MOL0     H76210  10.449   4.477   0.107  0.7936 -1.2120  0.3417
  565MOL0     H76211  10.279   4.528   0.135  1.4988 -0.7869 -1.6422
  565MOL0     H76212  10.455   4.713   0.114 -1.2179  0.1833 -1.3933
  565MOL0     H76213  10.366   4.722   0.266 -0.0032  1.3542 -2.3198
  565MOL0     H76214  10.552   4.609   0.390  2.7614  3.8750  2.2739
  565MOL0     H76215  10.652   4.626   0.248 -0.0743 -0.1334 -2.9767
  565MOL0     H76216  10.627   4.876   0.279  1.2154 -1.2590 -0.2540
  565MOL0     H76217  10.507   4.837   0.400 -1.9841 -0.0264 -3.5932
  565MOL0     H76218  10.685   4.692   0.510  0.3829 -1.8812 -0.9219
  565MOL0     H76219  10.803   4.755   0.386  0.2176 -0.9436  0.9726
  565MOL0     H76220  10.798   4.962   0.478 -1.2852 -2.4251 -1.7738
  565MOL0     H76221  10.650   4.931   0.575 -0.4576 -2.4131  2.1955
  565MOL0     H76222  10.803   4.915   0.748 -1.0541  1.9761 -1.6460
  565MOL0     H76223  10.763   4.744   0.689 -2.8477  0.0326 -2.9937
  565MOL0     H76224  11.005   4.903   0.603 -2.2012  1.4942  0.9304
  565MOL0     H76225  10.963   4.720   0.604 -8.4383  0.0318 -2.0822
  565MOL0     H76226  10.980   5.000   0.891 -0.1554 -0.2923  0.9077
  565MOL0     H76227  11.033   4.965   1.168  1.2488  0.2270  1.9814
  565MOL0     H76228  11.152   4.859   1.203 -2.3936 -1.6078 -0.1339
  565MOL0     H76229  11.212   5.106   1.189 -0.8256 -1.4908  0.5187
  565MOL0     H76230  11.141   5.114   1.022 -1.3465 -0.0759  0.3446
  565MOL0     H76231  11.362   4.950   0.959 -0.8226 -1.3967  2.0830
  565MOL0     H76232  11.412   4.983   1.111 -0.4663 -2.0958 -0.9855
  565MOL0     H76233  11.386   5.253   1.023  1.7890 -0.2885  0.4316
  565MOL0     H76234  11.334   5.184   0.890 -1.4878  0.5678  1.2364
  565MOL0     H76235  11.738   5.178   1.096 -4.2239 -0.0050  1.4537
  565MOL0     H76236  11.961   5.470   1.124 -1.9696  1.4882  1.3057
  565MOL0     H76237  11.842   5.403   1.241 -0.2699  1.9734 -0.6392
  565MOL0     H76238  11.946   5.295   1.161 -1.7186 -0.3840  1.1604
  565MOL0     H76239  12.248   5.493   0.913 -1.2203 -0.9175 -1.7266
  565MOL0     H76240  12.460   5.684   0.913 -0.1841 -1.0019  0.4659
  565MOL0     H76241  12.565   5.991   0.747 -0.2866 -0.0834 -4.8954
  565MOL0     H76242  12.415   5.969   0.668 -0.0156  0.8821 -0.7357
  565MOL0     H76243  12.309   6.145   0.785 -1.5453 -2.0771  0.6354
  565MOL0     H76244  12.444   6.161   0.905  0.0515 -1.4911 -1.0571
  565MOL0     H76245  12.556   6.187   0.653  0.3878 -1.1981 -0.3310
  565MOL0     H76246  12.534   6.318   0.777 -1.5970 -0.5263  2.1813
  565MOL0     H76247  12.436   6.354   0.524 -1.9390 -0.8740 -1.0646
  565MOL0     H76248  12.311   6.248   0.569 -0.6946  0.4009  1.1959
  565MOL0     H76249  12.398   6.491   0.725  0.1368 -0.1230 -0.6216
  565MOL0     H76250  12.264   6.387   0.753 -1.0586 -0.0573 -0.4197
  565MOL0     H76251  12.291   6.567   0.526  2.4939  0.8056  1.9855
  565MOL0     H76252  12.153   6.439   0.535 -1.8932  1.4315  0.2673
  565MOL0     H76253  12.200   6.669   0.717 -0.3849 -0.3114  2.4729
  565MOL0     H76254  12.086   6.539   0.748  0.2066  0.9896  1.5183
  565MOL0     H76255  12.093   6.729   0.488  0.1914  0.8883  1.6330
  565MOL0     H76256  12.006   6.757   0.633  4.4372 -0.0343  2.8820
  565MOL0     H76257  12.167   5.974   0.831 -0.3684  0.2868 -0.0127
  565MOL0     H76258  12.002   5.830   0.828  0.3797  1.1737 -0.8216
  565MOL0     H76259  11.631   5.555   0.804 -0.6255 -1.1891 -1.4389
  565MOL0     H76260  11.486   5.372   0.810 -2.0073 -2.3755  1.2709
  565MOL0     H76261  10.190   4.314   0.121  0.5569  0.3973  1.2241
  565MOL0     H76262  10.136   4.082   0.133 -2.0774  0.9491  0.0881
  565MOL0     H76263  10.363   3.707   0.329  0.6072  0.4133 -4.2190
  565MOL0     H76264  10.393   3.476   0.423 -0.0696  1.0839  0.1126
  565MOL0     H76265  10.381   3.273   0.468  0.9861 -1.4299 -0.2775
  565MOL0     H76266  10.304   3.293   0.630  1.6815  1.6137 -1.7639
  565MOL0     H76267  10.242   3.068   0.438 -3.3176 -0.3568  0.1664
  565MOL0     H76268  10.188   3.082   0.613  0.0762 -2.1769  1.5103
  565MOL0     H76269  10.406   3.060   0.692 -4.5128  0.2162  1.1675
  565MOL0     H76270  10.461   3.046   0.517  0.7050  0.3601  0.6310
  565MOL0     H76271  10.289   2.849   0.673 -1.7016  1.9578  0.8090
  565MOL0     H76272  10.460   2.843   0.615  0.3740  2.6721 -0.3320
  565MOL0     H76273  10.280   2.680   0.279  0.6656  1.1480 -1.6723
  565MOL0     H76274   9.975   3.412   0.320 -1.7398  1.2849  1.6301
  565MOL0     H76275   9.972   3.600   0.190  0.6156 -6.5063 -1.0589
  566MOL0     O76276   0.216  11.164   5.257  0.0514 -0.6815 -0.6483
  566MOL0     C76277   0.301  11.151   5.170 -0.6396  0.4747  0.5194
  566MOL0     O76278   0.322  11.230   5.054  0.4188  0.3944 -0.2818
  566MOL0     C76279   0.233  11.334   5.055  0.5688  0.1135 -0.3124
  566MOL0     C76280   0.111  11.321   4.988 -0.1227  0.4523 -0.1988
  566MOL0     C76281   0.017  11.423   5.000 -0.7226  0.1538 -0.3855
  566MOL0     C76282   0.045  11.536   5.073 -0.2756  0.3715  1.5444
  566MOL0     O76283  -0.062  11.624   5.065  0.5573  0.2291 -0.4812
  566MOL0     C76284  -0.040  11.764   5.046 -0.5241  0.9415  0.0476
  566MOL0     C76285  -0.015  11.784   4.895 -0.6026 -0.4029 -0.5986
  566MOL0     C76286  -0.124  11.763   4.792  0.2353 -0.1786  0.2950
  566MOL0     C76287  -0.237  11.860   4.808  0.0760 -0.3098  0.5173
  566MOL0     C76288  -0.350  11.798   4.727  0.1613 -0.0309 -0.1508
  566MOL0     C76289  -0.450  11.913   4.721  0.0248 -0.0821  0.3443
  566MOL0     C76290  -0.578  11.885   4.644 -0.3216  0.2563 -0.4518
  566MOL0     C76291  -0.659  11.758   4.681 -0.5449 -0.1140 -0.7945
  566MOL0     N76292  -0.760  11.744   4.576  0.0764 -0.5804  0.0435
  566MOL0     C76293  -0.885  11.801   4.581  0.2157  0.9503  0.9104
  566MOL0     C76294  -0.948  11.746   4.483 -0.2628  1.0846 -0.3889
  566MOL0     C76295  -1.100  11.757   4.474 -0.4566  1.2996  0.1707
  566MOL0     C76296  -1.169  11.620   4.461  0.2879  0.7661 -0.2806
  566MOL0     C76297  -1.178  11.578   4.310  0.0573  0.3762  0.4984
  566MOL0     C76298  -1.200  11.428   4.307 -0.1286 -0.7037 -0.3568
  566MOL0     O76299  -1.336  11.387   4.339 -0.1637 -0.3488  0.1062
  566MOL0     C76300  -1.423  11.442   4.249 -0.1843 -0.5660 -0.3973
  566MOL0     C76301  -1.529  11.520   4.304 -0.3734  0.0519 -0.4820
  566MOL0     C76302  -1.646  11.558   4.230 -0.3492  0.2799 -0.6685
  566MOL0     C76303  -1.753  11.619   4.309  0.5701  0.0305  0.2187
  566MOL0     C76304  -1.652  11.523   4.094  0.1835 -0.1378  0.3894
  566MOL0     C76305  -1.769  11.561   4.005 -0.1816  0.7596 -0.0690
  566MOL0     O76306  -1.869  11.647   4.044  0.0396 -0.5079 -0.1259
  566MOL0     C76307  -1.957  11.686   3.940  1.0036 -0.2754 -0.0884
  566MOL0     C76308  -2.075  11.617   3.931  0.0584 -0.2610  1.2272
  566MOL0     C76309  -2.172  11.651   3.833  0.5990 -1.2653 -0.2475
  566MOL0     C76310  -2.155  11.762   3.754 -0.0879 -0.1781 -0.6226
  566MOL0     O76311  -2.257  11.798   3.667  0.2274 -0.4836 -0.7827
  566MOL0     C76312  -2.224  11.896   3.573  0.1709  0.2562 -0.4593
  566MOL0     C76313  -2.346  11.899   3.486  0.0821  1.1341 -0.5937
  566MOL0     C76314  -2.325  11.998   3.369 -0.1244  1.1852 -0.7504
  566MOL0     C76315  -2.412  11.970   3.250  0.4421  0.7543  0.1270
  566MOL0     C76316  -2.445  12.106   3.186 -0.0373 -0.2139  0.3499
  566MOL0     C76317  -2.528  12.097   3.053 -0.4292  0.4219  0.4644
  566MOL0     C76318  -2.650  12.016   3.085  0.2713 -0.1296  0.0840
  566MOL0     C76319  -2.762  12.036   2.974 -0.3143  0.0920  0.1353
  566MOL0    Cl76320  -2.740  11.930   2.842 -0.2314 -0.2265  0.4425
  566MOL0     C76321  -2.027  11.837   3.759 -0.5225 -0.1899  1.6013
  566MOL0     C76322  -1.931  11.795   3.852 -0.1870 -0.0577  0.6856
  566MOL0     O76323  -1.788  11.486   3.911  0.5439  0.4134  0.4601
  566MOL0     C76324  -1.550  11.441   4.045  0.1500  0.0805 -0.7489
  566MOL0     C76325  -1.438  11.402   4.119 -0.5918 -0.6329 -0.3245
  566MOL0     N76326  -0.861  11.676   4.401 -0.6787  0.3716  0.2101
  566MOL0     N76327  -0.744  11.681   4.461 -0.4683 -0.4029 -0.4768
  566MOL0     C76328   0.167  11.548   5.134 -0.8134  0.2360  1.0595
  566MOL0     C76329   0.261  11.444   5.132 -0.5591 -0.1017  0.1652
  566MOL0     C76330   0.398  11.039   5.195  0.4694  0.3254 -0.2632
  566MOL0     C76331   0.416  10.988   5.328 -0.5670 -0.3055 -0.6031
  566MOL0     C76332   0.504  10.877   5.356 -1.1884 -0.1909 -0.3786
  566MOL0     C76333   0.569  10.803   5.245 -0.4346 -0.2771 -0.6486
  566MOL0     O76334   0.648  10.691   5.255  0.4276 -0.0705 -0.2587
  566MOL0     C76335   0.636  10.621   5.380 -1.1935  0.4245 -0.6163
  566MOL0     C76336   0.652  10.469   5.359  0.5199 -0.9100  0.1684
  566MOL0     C76337   0.776  10.428   5.277 -0.2275 -1.3161 -0.2542
  566MOL0     C76338   0.790  10.274   5.255 -0.9057 -0.4704  0.1310
  566MOL0     C76339   0.693  10.220   5.160  0.2721 -0.2484 -0.2122
  566MOL0     C76340   0.618  10.173   5.074  1.1386  0.6497  0.0992
  566MOL0     C76341   0.547  10.859   5.116  0.0613  0.9384  0.2131
  566MOL0     C76342   0.473  10.975   5.095 -0.5241 -0.9716 -0.1807
  566MOL0     H76343   0.111  11.222   4.943  1.3087 -0.6541  2.0380
  566MOL0     H76344  -0.077  11.420   4.946 -0.2031 -0.2194 -1.2934
  566MOL0     H76345  -0.131  11.818   5.073 -2.0601 -1.5877  0.1748
  566MOL0     H76346   0.053  11.792   5.097  0.4956 -1.7853 -0.1464
  566MOL0     H76347  -0.003  11.893   4.897  0.5104 -0.5190  0.5752
  566MOL0     H76348   0.073  11.727   4.863 -2.1926 -3.4607  0.0985
  566MOL0     H76349  -0.082  11.759   4.691  1.5663  0.9878  0.7690
  566MOL0     H76350  -0.179  11.670   4.809 -3.2828  0.8035 -3.9738
  566MOL0     H76351  -0.284  11.873   4.906  1.1612 -3.3267  1.5728
  566MOL0     H76352  -0.189  11.948   4.764  1.9327 -1.2661  0.5094
  566MOL0     H76353  -0.317  11.782   4.624  0.3075 -0.5978 -0.0211
  566MOL0     H76354  -0.374  11.702   4.775  2.3828 -0.9283 -0.6995
  566MOL0     H76355  -0.475  11.947   4.822 -0.5378 -2.0983  0.9236
  566MOL0     H76356  -0.401  12.001   4.677 -2.4898  1.6818  0.8543
  566MOL0     H76357  -0.652  11.966   4.648 -0.4720  0.2313 -1.9743
  566MOL0     H76358  -0.548  11.885   4.538  2.2092 -1.8701  0.1539
  566MOL0     H76359  -0.716  11.771   4.773  0.6333  1.7021 -0.2676
  566MOL0     H76360  -0.603  11.666   4.701  0.5567  0.7193  0.0768
  566MOL0     H76361  -0.913  11.865   4.665 -0.8716 -2.1800  3.1208
  566MOL0     H76362  -1.147  11.803   4.561  0.6458 -0.0839  1.5434
  566MOL0     H76363  -1.120  11.818   4.385  0.4006 -1.9763 -2.5124
  566MOL0     H76364  -1.269  11.631   4.503  0.8509  3.5490  0.5341
  566MOL0     H76365  -1.111  11.545   4.516  2.2449  1.3510 -1.4214
  566MOL0     H76366  -1.085  11.597   4.255 -0.4251 -0.9145 -0.8512
  566MOL0     H76367  -1.263  11.632   4.267 -0.7126  1.2302  2.9602
  566MOL0     H76368  -1.122  11.383   4.370 -3.2057 -1.8980  2.9565
  566MOL0     H76369  -1.176  11.391   4.207 -0.4316  0.5142 -0.8929
  566MOL0     H76370  -1.510  11.537   4.409 -0.7127  0.4791 -0.4875
  566MOL0     H76371  -1.847  11.580   4.268 -0.3527  2.9627 -0.6717
  566MOL0     H76372  -1.728  11.587   4.411  2.7877 -1.3101 -0.6823
  566MOL0     H76373  -1.765  11.727   4.304  0.7669  0.0642  0.4606
  566MOL0     H76374  -2.104  11.527   3.985 -0.0501 -0.1849  1.2950
  566MOL0     H76375  -2.266  11.597   3.828 -0.9861  1.4134 -2.9565
  566MOL0     H76376  -2.214  11.995   3.619 -2.6994 -1.0987  3.7638
  566MOL0     H76377  -2.132  11.873   3.519 -1.1867 -0.5379 -2.5249
  566MOL0     H76378  -2.376  11.798   3.454  1.9428  0.1333  0.6160
  566MOL0     H76379  -2.429  11.937   3.546 -1.0387  1.3547 -2.2153
  566MOL0     H76380  -2.218  11.998   3.350  0.2274 -3.2298  0.2093
  566MOL0     H76381  -2.366  12.085   3.422  0.6426  0.1130  1.7398
  566MOL0     H76382  -2.353  11.910   3.179  2.1492  1.2447  1.0778
  566MOL0     H76383  -2.503  11.917   3.278 -0.1961  1.2552 -0.9282
  566MOL0     H76384  -2.353  12.154   3.151  0.1945 -1.1555 -0.3756
  566MOL0     H76385  -2.509  12.171   3.246 -2.6816 -0.5525 -1.8947
  566MOL0     H76386  -2.544  12.197   3.014 -1.6150 -0.1292 -0.5198
  566MOL0     H76387  -2.469  12.049   2.974 -3.8787 -2.8208 -0.4763
  566MOL0     H76388  -2.688  12.045   3.183 -1.2883 -0.2129 -0.4635
  566MOL0     H76389  -2.627  11.909   3.091  1.2257  0.1688  3.4461
  566MOL0     H76390  -2.759  12.134   2.926  1.7790  0.9547  1.8389
  566MOL0     H76391  -2.861  12.003   3.007 -0.5194 -2.0523 -2.3001
  566MOL0     H76392  -2.007  11.926   3.700 -0.6004 -1.2174 -0.0380
  566MOL0     H76393  -1.857  11.873   3.865  0.0512 -0.2103  0.2827
  566MOL0     H76394  -1.562  11.411   3.942 -0.9703 -2.0374 -0.0697
  566MOL0     H76395  -1.368  11.335   4.070  3.3245  4.5916 -2.7542
  566MOL0     H76396   0.180  11.639   5.191 -0.3864  0.1216  1.1513
  566MOL0     H76397   0.351  11.444   5.193 -0.7828 -3.7016  0.7494
  566MOL0     H76398   0.386  11.046   5.415 -0.5390 -1.3988  0.1650
  566MOL0     H76399   0.526  10.850   5.459  3.4866  2.1184 -0.5013
  566MOL0     H76400   0.716  10.659   5.445 -3.5836  1.4478  1.8999
  566MOL0     H76401   0.545  10.627   5.440 -1.0308 -2.1152  0.0458
  566MOL0     H76402   0.568  10.444   5.294  0.9406  0.4085 -0.9413
  566MOL0     H76403   0.657  10.420   5.457  1.5999  0.0102  0.6007
  566MOL0     H76404   0.869  10.471   5.315 -0.9480 -0.8606  1.0553
  566MOL0     H76405   0.785  10.470   5.176  2.4614  0.6252  0.6957
  566MOL0     H76406   0.780  10.229   5.354  1.5209 -0.1355  0.6124
  566MOL0     H76407   0.894  10.252   5.228 -0.9225 -0.0846 -0.2556
  566MOL0     H76408   0.563  10.114   5.002 -1.4606 -0.7596  3.0056
  566MOL0     H76409   0.609  10.831   5.032 -0.3272 -1.2908  0.6200
  566MOL0     H76410   0.451  11.004   4.992 -1.0894 -0.8151 -0.0161
  567MOL0     O76411   9.629   3.256   0.467  0.7360 -0.4725  0.1660
  567MOL0     C76412   9.726   3.233   0.532  0.1418 -0.5347  0.8962
  567MOL0     O76413   9.805   3.329   0.580  0.2376 -0.1674 -0.7843
  567MOL0     C76414   9.783   3.457   0.573  0.2568 -0.5714 -0.3111
  567MOL0     C76415   9.754   3.516   0.445 -0.2598  0.0803  0.6068
  567MOL0     C76416   9.733   3.646   0.425 -0.5757 -0.5014 -0.4964
  567MOL0     C76417   9.723   3.739   0.533  0.8576 -0.9295  0.3257
  567MOL0     O76418   9.691   3.871   0.523 -0.3035 -0.0481 -0.3850
  567MOL0     C76419   9.714   3.945   0.410 -0.0896 -0.3779 -0.5526
  567MOL0     C76420   9.648   4.079   0.419 -0.1341  0.3221 -0.7844
  567MOL0     C76421   9.715   4.175   0.516  0.1744 -0.1973  0.9974
  567MOL0     C76422   9.856   4.227   0.468  0.4475 -0.2428  0.6250
  567MOL0     C76423   9.884   4.364   0.522  0.6182  0.3988 -0.0527
  567MOL0     C76424  10.012   4.423   0.478  0.0326 -0.2497 -0.1908
  567MOL0     C76425  10.006   4.574   0.497 -0.0063 -0.2153  0.3040
  567MOL0     C76426  10.143   4.631   0.468  1.1841  0.6358  0.0263
  567MOL0     N76427  10.150   4.772   0.505 -0.5889  0.2901 -0.4616
  567MOL0     C76428  10.191   4.828   0.618 -0.4190 -0.7313  0.3558
  567MOL0     C76429  10.161   4.956   0.606  1.0284 -0.5903 -0.6874
  567MOL0     C76430  10.187   5.072   0.701  0.5132  0.0966  0.6803
  567MOL0     C76431  10.344   5.071   0.733  0.0621  1.1778 -0.1873
  567MOL0     C76432  10.425   5.087   0.605 -1.1987  0.2628 -0.6200
  567MOL0     C76433  10.382   5.208   0.517  0.9126  0.3053 -1.7023
  567MOL0     O76434  10.489   5.242   0.427 -0.2011 -0.6912 -0.2306
  567MOL0     C76435  10.492   5.178   0.312 -0.5854 -0.0690  0.6265
  567MOL0     C76436  10.594   5.227   0.228  0.5460  0.8071 -0.1880
  567MOL0     C76437  10.622   5.166   0.103 -0.4582  0.9725  0.8244
  567MOL0     C76438  10.753   5.202   0.034  0.1676 -0.7508 -0.1084
  567MOL0     C76439  10.547   5.062   0.054  0.1970 -0.9004  0.0026
  567MOL0     C76440  10.589   4.979  -0.068  0.4015  0.5958  0.0607
  567MOL0     O76441  10.642   5.038  -0.176  0.1953 -0.3239 -0.3112
  567MOL0     C76442  10.670   4.968  -0.283 -0.8271  0.1938  0.3284
  567MOL0     C76443  10.792   4.889  -0.287  0.8899 -0.5005 -0.2440
  567MOL0     C76444  10.816   4.817  -0.400 -0.4776  0.5564 -0.0880
  567MOL0     C76445  10.720   4.795  -0.497  0.3390 -0.6735 -1.5487
  567MOL0     O76446  10.755   4.740  -0.615 -1.1228  0.5160  0.5663
  567MOL0     C76447  10.817   4.828  -0.708 -0.6475  1.0818 -0.1210
  567MOL0     C76448  10.730   4.938  -0.765 -0.1889 -0.6411 -0.4346
  567MOL0     C76449  10.821   5.045  -0.824  0.0107 -0.5915  0.0241
  567MOL0     C76450  10.754   5.161  -0.883  0.5271 -0.7916  0.3612
  567MOL0     C76451  10.857   5.265  -0.897  0.5428 -0.6551  0.2963
  567MOL0     C76452  10.936   5.248  -1.032  0.3680 -1.4196 -0.5360
  567MOL0     C76453  11.031   5.365  -1.067 -0.1250 -0.0907 -0.1343
  567MOL0     C76454  11.119   5.321  -1.192  0.2788  0.0309  0.7762
  567MOL0    Cl76455  11.249   5.445  -1.233 -0.1664 -0.2998 -0.5766
  567MOL0     C76456  10.597   4.851  -0.480  0.3638 -0.0452 -0.6943
  567MOL0     C76457  10.571   4.944  -0.376  0.1735 -0.6786  0.0532
  567MOL0     O76458  10.587   4.854  -0.045  0.1120  0.2501 -0.4466
  567MOL0     C76459  10.437   5.026   0.132 -0.4932  0.8248 -1.1279
  567MOL0     C76460  10.399   5.096   0.255  0.3791  0.9044  1.1632
  567MOL0     N76461  10.089   4.968   0.483 -0.4707 -0.7250 -0.0375
  567MOL0     N76462  10.085   4.858   0.422  0.6349  0.8346  0.4008
  567MOL0     C76463   9.749   3.680   0.662  0.2903 -0.2773  0.6635
  567MOL0     C76464   9.790   3.543   0.678 -0.1093 -0.0008  0.1254
  567MOL0     C76465   9.753   3.093   0.571 -0.4220  0.0703  0.7703
  567MOL0     C76466   9.871   3.060   0.645  0.3974 -0.2150  0.1336
  567MOL0     C76467   9.894   2.934   0.680 -0.0065 -0.1371 -0.0741
  567MOL0     C76468   9.803   2.831   0.639 -0.1843  0.1708  0.3015
  567MOL0     O76469   9.816   2.700   0.686 -0.4726 -0.2633 -0.0136
  567MOL0     C76470   9.925   2.675   0.773 -1.2212  0.4421  0.2327
  567MOL0     C76471   9.902   2.535   0.821 -0.0875 -0.0621 -0.1661
  567MOL0     C76472   9.995   2.496   0.934  0.7016  0.2339  0.0400
  567MOL0     C76473  10.147   2.492   0.897 -0.1674  0.3573  0.0251
  567MOL0     C76474  10.232   2.614   0.902 -1.0729  0.8847  0.7097
  567MOL0     C76475  10.299   2.714   0.913  0.6347 -0.3530  0.5402
  567MOL0     C76476   9.688   2.857   0.570  0.0407  0.3845  0.2907
  567MOL0     C76477   9.662   2.993   0.546  1.5061  0.1198  0.8285
  567MOL0     H76478   9.744   3.454   0.357  1.7463 -1.8049  1.6064
  567MOL0     H76479   9.706   3.682   0.326 -2.6827  0.4861  0.3754
  567MOL0     H76480   9.820   3.968   0.397 -0.4286  1.1153 -0.9253
  567MOL0     H76481   9.672   3.897   0.322 -0.2733  1.8472 -1.7648
  567MOL0     H76482   9.666   4.122   0.320  3.9640  0.3889 -0.1829
  567MOL0     H76483   9.540   4.063   0.429 -0.2438  1.3925 -0.0167
  567MOL0     H76484   9.645   4.253   0.546 -1.4671 -1.6549  1.1383
  567MOL0     H76485   9.725   4.128   0.614  1.1089  0.4719  1.2337
  567MOL0     H76486   9.934   4.156   0.495  0.0569 -2.0337 -2.3840
  567MOL0     H76487   9.853   4.234   0.358 -1.5910 -2.0146  0.4934
  567MOL0     H76488   9.802   4.431   0.498  1.2883  0.5879 -2.0037
  567MOL0     H76489   9.877   4.361   0.632  2.0326 -2.9085  0.0840
  567MOL0     H76490  10.098   4.375   0.527  2.0536  0.5631 -2.7397
  567MOL0     H76491  10.027   4.383   0.378  1.8768 -0.5521  0.1652
  567MOL0     H76492   9.930   4.609   0.426 -2.4759 -0.5029  2.6420
  567MOL0     H76493   9.986   4.588   0.604  4.6995 -1.2923  1.5890
  567MOL0     H76494  10.156   4.614   0.361  0.4553  1.2364 -0.1710
  567MOL0     H76495  10.222   4.571   0.514 -0.2675 -2.4277 -1.2194
  567MOL0     H76496  10.259   4.793   0.695 -1.2013 -1.5880  0.6692
  567MOL0     H76497  10.167   5.163   0.643 -1.6545 -2.0844 -2.2579
  567MOL0     H76498  10.122   5.079   0.789 -1.7463  1.8893 -1.0024
  567MOL0     H76499  10.370   4.976   0.779  1.4207 -0.2348 -3.5690
  567MOL0     H76500  10.362   5.142   0.814 -2.5604  0.3392  1.2659
  567MOL0     H76501  10.416   4.990   0.555  1.6846 -0.7186  0.5740
  567MOL0     H76502  10.532   5.097   0.623 -0.4537 -3.6454 -1.9072
  567MOL0     H76503  10.372   5.296   0.581 -1.2070 -0.2592 -1.1877
  567MOL0     H76504  10.290   5.179   0.467  1.5821 -1.1507 -2.1472
  567MOL0     H76505  10.659   5.302   0.272  0.2406  0.7919  0.2936
  567MOL0     H76506  10.814   5.112   0.026  0.1613 -0.6206 -1.8605
  567MOL0     H76507  10.741   5.265  -0.054 -0.8427  1.4113  1.4562
  567MOL0     H76508  10.808   5.272   0.098 -0.0857 -1.4299  0.8842
  567MOL0     H76509  10.846   4.878  -0.193 -0.0590 -0.4749  0.3221
  567MOL0     H76510  10.908   4.764  -0.420 -0.8476  0.3452 -1.3503
  567MOL0     H76511  10.896   4.882  -0.654  0.4812  0.4641 -1.1056
  567MOL0     H76512  10.858   4.762  -0.785 -0.8765 -0.1571  0.7976
  567MOL0     H76513  10.679   4.884  -0.845 -0.7834  0.5565 -0.8908
  567MOL0     H76514  10.657   4.981  -0.696 -0.9371  0.2554 -1.7565
  567MOL0     H76515  10.888   4.996  -0.896  1.1267  1.2494 -0.2443
  567MOL0     H76516  10.868   5.078  -0.731 -0.4982  0.1811  0.0170
  567MOL0     H76517  10.708   5.135  -0.978 -3.4550 -0.3089  1.9607
  567MOL0     H76518  10.673   5.199  -0.820  0.1552  2.6357 -1.9457
  567MOL0     H76519  10.925   5.256  -0.811 -0.2008  1.7523  1.2158
  567MOL0     H76520  10.804   5.360  -0.892  3.7208  1.3601 -1.3395
  567MOL0     H76521  11.000   5.160  -1.019 -0.3629 -1.8249  0.3573
  567MOL0     H76522  10.867   5.235  -1.116 -2.5231 -4.2306  2.0260
  567MOL0     H76523  11.075   5.394  -0.971 -2.2531 -2.4431  1.6727
  567MOL0     H76524  10.969   5.450  -1.096 -0.2094  0.4656  1.5860
  567MOL0     H76525  11.059   5.322  -1.284  4.5515 -0.4918 -2.2946
  567MOL0     H76526  11.173   5.226  -1.188 -0.0400 -0.4376 -2.6396
  567MOL0     H76527  10.535   4.830  -0.566  4.5566  1.2036 -4.3772
  567MOL0     H76528  10.483   5.006  -0.363  0.7018  0.3475 -1.1236
  567MOL0     H76529  10.370   4.947   0.100  2.4170 -2.0393 -0.6592
  567MOL0     H76530  10.314   5.056   0.308  0.9703  0.0787  1.5139
  567MOL0     H76531   9.736   3.744   0.749 -2.5493 -2.5719  2.1534
  567MOL0     H76532   9.794   3.510   0.782  0.8754 -2.2030 -0.5384
  567MOL0     H76533   9.945   3.137   0.662 -0.0773  0.4392 -0.6799
  567MOL0     H76534   9.994   2.918   0.718 -0.7444 -1.6981  1.3314
  567MOL0     H76535  10.026   2.690   0.734 -1.6923 -0.7790 -1.6075
  567MOL0     H76536   9.911   2.747   0.855 -1.0949  3.0594 -1.9100
  567MOL0     H76537   9.897   2.464   0.737  0.9152  1.7896 -1.8651
  567MOL0     H76538   9.799   2.534   0.857  0.0230 -1.1414  0.1635
  567MOL0     H76539   9.961   2.401   0.976 -0.3131 -0.1298 -1.4967
  567MOL0     H76540   9.987   2.561   1.021  0.7239  0.0793  0.1576
  567MOL0     H76541  10.157   2.455   0.795  0.9995  1.7460 -0.3975
  567MOL0     H76542  10.192   2.413   0.958 -0.4055  0.3788  0.2274
  567MOL0     H76543  10.347   2.807   0.937  1.5517  0.2751 -3.1379
  567MOL0     H76544   9.621   2.779   0.535  0.4478 -0.5212  1.4629
  567MOL0     H76545   9.574   3.026   0.491  4.5966  2.6789 -3.1190
  568MOL0     O76546   6.518   7.548   1.616 -0.9929  0.1987 -0.4373
  568MOL0     C76547   6.507   7.478   1.721 -0.0229  0.4433  0.6180
  568MOL0     O76548   6.437   7.361   1.724  0.1066 -0.2658  0.3087
  568MOL0     C76549   6.376   7.306   1.611 -0.7440 -0.5344 -0.1312
  568MOL0     C76550   6.446   7.270   1.497 -0.1579 -0.1602  0.7669
  568MOL0     C76551   6.381   7.208   1.390  0.1426 -1.0513  0.2114
  568MOL0     C76552   6.245   7.190   1.397 -0.1326  0.1347 -0.6248
  568MOL0     O76553   6.180   7.107   1.313 -0.1301  0.1961 -0.8323
  568MOL0     C76554   6.228   6.967   1.307  0.7650 -0.4826 -0.7949
  568MOL0     C76555   6.112   6.865   1.296 -0.4721 -0.3975  0.4354
  568MOL0     C76556   5.988   6.892   1.380  0.8422  0.7301  0.7942
  568MOL0     C76557   5.865   6.803   1.337 -0.3146  0.4780  0.1399
  568MOL0     C76558   5.852   6.658   1.387 -0.4118 -0.3705 -0.5368
  568MOL0     C76559   5.895   6.651   1.538 -0.3983 -1.9178  0.2480
  568MOL0     C76560   5.820   6.553   1.621 -0.0219  0.6028 -0.1703
  568MOL0     C76561   5.880   6.422   1.586  0.5997 -0.0909  0.4402
  568MOL0     N76562   6.015   6.401   1.638 -0.0574  0.2202 -0.5897
  568MOL0     C76563   6.034   6.351   1.773 -1.0927 -0.0895  0.5522
  568MOL0     C76564   6.138   6.266   1.754  0.4645 -0.7414 -0.2799
  568MOL0     C76565   6.190   6.183   1.865  0.4725 -0.1062 -0.7936
  568MOL0     C76566   6.171   6.034   1.835 -0.6446 -0.1658 -0.2020
  568MOL0     C76567   6.229   5.940   1.941  0.0826 -0.4153  0.9514
  568MOL0     C76568   6.193   5.795   1.910  0.2917  0.8371  0.5096
  568MOL0     O76569   6.067   5.759   1.961  0.2627  0.2024  0.2250
  568MOL0     C76570   6.023   5.626   1.949 -1.0833 -1.0324 -0.5399
  568MOL0     C76571   5.968   5.565   2.055 -0.5859 -0.2683 -0.1941
  568MOL0     C76572   5.916   5.431   2.049  0.7313 -0.2041  0.5243
  568MOL0     C76573   5.875   5.364   2.175 -0.0725  0.9179 -0.3225
  568MOL0     C76574   5.909   5.369   1.927 -0.1673 -0.2971  0.4041
  568MOL0     C76575   5.854   5.235   1.890  0.7129  0.1102 -0.1682
  568MOL0     O76576   5.779   5.219   1.769  0.4897  0.4085 -0.1294
  568MOL0     C76577   5.717   5.100   1.749  1.0132  0.1793  0.3209
  568MOL0     C76578   5.776   4.980   1.716  0.6289 -0.3278  0.5422
  568MOL0     C76579   5.693   4.867   1.678  0.4065 -0.5445 -0.0137
  568MOL0     C76580   5.553   4.888   1.656 -0.0136 -0.1751  0.5881
  568MOL0     O76581   5.465   4.798   1.608 -0.4221  0.6044 -0.0847
  568MOL0     C76582   5.338   4.784   1.669 -0.0946  0.1003  0.0807
  568MOL0     C76583   5.335   4.781   1.828  0.7210 -0.6507  0.5230
  568MOL0     C76584   5.232   4.696   1.891  0.6301  0.5040 -0.2321
  568MOL0     C76585   5.252   4.702   2.044  0.6909 -0.2353  0.6227
  568MOL0     C76586   5.181   4.584   2.115 -0.0718  0.7270 -0.0784
  568MOL0     C76587   5.252   4.445   2.098  0.4969 -0.3023  0.5463
  568MOL0     C76588   5.400   4.451   2.140 -0.2994  0.1975  0.4671
  568MOL0     C76589   5.470   4.319   2.106 -1.2654  0.1811  1.0016
  568MOL0    Cl76590   5.657   4.316   2.140 -0.1581 -0.3308  0.0484
  568MOL0     C76591   5.505   5.019   1.683 -0.0132 -0.5639  0.5110
  568MOL0     C76592   5.583   5.121   1.736 -0.0139 -0.5430 -0.7033
  568MOL0     O76593   5.864   5.148   1.976  0.1974 -0.5799 -0.5483
  568MOL0     C76594   5.944   5.449   1.822  0.9984  0.3855  0.7859
  568MOL0     C76595   6.002   5.571   1.827  0.3542  0.1315 -0.3153
  568MOL0     N76596   6.198   6.288   1.624 -0.1069 -0.2902 -0.3884
  568MOL0     N76597   6.121   6.372   1.555  0.1646  2.0104 -0.1552
  568MOL0     C76598   6.181   7.204   1.518  0.9737 -0.5031 -0.3927
  568MOL0     C76599   6.245   7.266   1.629 -0.3581 -0.1022  0.5586
  568MOL0     C76600   6.580   7.524   1.833  0.6920 -0.9199 -0.1391
  568MOL0     C76601   6.673   7.628   1.828  0.4328  0.7344 -0.3015
  568MOL0     C76602   6.747   7.668   1.933 -0.4852  0.0740 -0.5508
  568MOL0     C76603   6.728   7.609   2.060  0.7689  0.4912  0.0570
  568MOL0     O76604   6.780   7.655   2.179  0.0185  0.8828  0.6176
  568MOL0     C76605   6.901   7.733   2.180 -0.6473  0.1588 -0.9590
  568MOL0     C76606   6.944   7.742   2.330  0.6261  0.9480 -0.8014
  568MOL0     C76607   7.089   7.803   2.367 -0.9154 -0.1023 -0.5490
  568MOL0     C76608   7.205   7.737   2.298  0.8298 -0.0887  0.0980
  568MOL0     C76609   7.341   7.761   2.358 -0.6207  0.1581 -0.3026
  568MOL0     C76610   7.440   7.788   2.426  0.7223  0.5644 -0.0368
  568MOL0     C76611   6.629   7.513   2.073  0.2854 -0.2225 -1.1532
  568MOL0     C76612   6.553   7.465   1.964  0.0118  0.4582  0.1147
  568MOL0     H76613   6.551   7.298   1.497  0.4149 -2.1742  0.3297
  568MOL0     H76614   6.449   7.185   1.309  2.4098  2.0909  1.0542
  568MOL0     H76615   6.287   6.962   1.215  4.3071  2.7494  1.0395
  568MOL0     H76616   6.283   6.946   1.399  1.3899 -3.4492 -1.7385
  568MOL0     H76617   6.079   6.861   1.191  0.7731  2.7092 -0.1965
  568MOL0     H76618   6.147   6.766   1.324 -4.4656 -1.8613  0.8323
  568MOL0     H76619   6.006   6.871   1.486  1.5672 -1.1145  0.3410
  568MOL0     H76620   5.962   6.996   1.358  0.4416  0.1552 -1.7000
  568MOL0     H76621   5.776   6.856   1.369 -0.8233 -0.4923  0.3819
  568MOL0     H76622   5.867   6.792   1.228 -2.7546 -2.6779  0.2771
  568MOL0     H76623   5.745   6.634   1.384 -0.3622 -0.8889 -5.0979
  568MOL0     H76624   5.908   6.588   1.324 -1.0416 -2.1411  0.7838
  568MOL0     H76625   6.003   6.639   1.550  1.1246  2.6815 -4.6880
  568MOL0     H76626   5.881   6.746   1.591 -0.2749 -0.5674 -2.0043
  568MOL0     H76627   5.830   6.565   1.729 -0.1379  1.6173 -0.2662
  568MOL0     H76628   5.714   6.536   1.601  0.3590 -0.3570 -1.5587
  568MOL0     H76629   5.898   6.408   1.479  0.5032  3.7207 -0.2284
  568MOL0     H76630   5.813   6.345   1.626  0.7526  1.6345  4.3924
  568MOL0     H76631   5.971   6.372   1.858  1.5272  3.2955  1.8633
  568MOL0     H76632   6.291   6.220   1.885 -0.5908  1.8575  1.4826
  568MOL0     H76633   6.124   6.214   1.946 -0.0315  0.8942 -1.5618
  568MOL0     H76634   6.216   6.012   1.738  2.9951 -2.0834  1.7179
  568MOL0     H76635   6.062   6.023   1.845 -0.3447 -1.4196  2.3756
  568MOL0     H76636   6.199   5.976   2.040 -0.4130  3.4901 -0.4189
  568MOL0     H76637   6.337   5.951   1.937  0.0701 -0.4010  0.6395
  568MOL0     H76638   6.265   5.727   1.956 -0.3429  1.6110  2.7677
  568MOL0     H76639   6.187   5.788   1.801 -1.0193  2.7505  0.3942
  568MOL0     H76640   5.986   5.622   2.146 -1.6765 -0.2473  0.0157
  568MOL0     H76641   5.859   5.427   2.263  1.8651 -1.5208  1.9710
  568MOL0     H76642   5.783   5.306   2.172  0.9554 -0.8210  0.0528
  568MOL0     H76643   5.949   5.291   2.210 -0.0942  0.9927 -0.1181
  568MOL0     H76644   5.883   4.969   1.703  0.6646 -0.1546  0.6946
  568MOL0     H76645   5.732   4.772   1.644  0.1831 -0.9287  0.7898
  568MOL0     H76646   5.272   4.858   1.623 -0.7129 -0.8339 -0.5669
  568MOL0     H76647   5.301   4.687   1.634  2.0978  0.4501 -3.7052
  568MOL0     H76648   5.434   4.750   1.864  0.9556 -0.9044 -0.3333
  568MOL0     H76649   5.317   4.882   1.868  2.1869  0.1506 -0.7108
  568MOL0     H76650   5.253   4.597   1.850 -0.8248 -1.0307  2.4872
  568MOL0     H76651   5.128   4.721   1.870 -0.1392 -1.8484  0.4217
  568MOL0     H76652   5.359   4.719   2.063  0.7265  1.6973 -0.8833
  568MOL0     H76653   5.201   4.796   2.068 -2.2148 -1.8952  1.4220
  568MOL0     H76654   5.079   4.576   2.078 -0.0313  1.0308 -0.2585
  568MOL0     H76655   5.170   4.609   2.221  0.1901  0.6170 -0.0240
  568MOL0     H76656   5.201   4.365   2.151  3.5496 -2.4683  0.4510
  568MOL0     H76657   5.247   4.436   1.989 -1.4595  1.5101  0.4124
  568MOL0     H76658   5.410   4.463   2.248 -2.1887 -1.2337  0.8590
  568MOL0     H76659   5.448   4.530   2.081  1.4514 -1.7586 -0.8871
  568MOL0     H76660   5.458   4.297   1.999  0.2299 -0.1255  0.8628
  568MOL0     H76661   5.417   4.235   2.151 -1.3907 -0.3280 -0.0667
  568MOL0     H76662   5.398   5.040   1.682  0.4228  2.0416  1.0742
  568MOL0     H76663   5.535   5.214   1.766  0.4001 -0.7065  0.5451
  568MOL0     H76664   5.929   5.412   1.721  1.4967  2.2035  0.0187
  568MOL0     H76665   6.007   5.634   1.739  4.0463  0.8944  0.3017
  568MOL0     H76666   6.079   7.167   1.516  2.3959 -4.9363 -1.7064
  568MOL0     H76667   6.195   7.290   1.722 -0.6416  1.3459  0.0686
  568MOL0     H76668   6.693   7.683   1.736  0.8456  4.5297  1.8583
  568MOL0     H76669   6.822   7.746   1.922  0.6578 -0.3403  3.0878
  568MOL0     H76670   6.971   7.673   2.120 -1.8656 -1.1247 -1.1332
  568MOL0     H76671   6.887   7.827   2.125  0.2975  0.1702 -1.2073
  568MOL0     H76672   6.941   7.641   2.373  2.6915  0.0756 -2.5313
  568MOL0     H76673   6.872   7.791   2.395 -1.0322 -2.0189 -0.1958
  568MOL0     H76674   7.110   7.786   2.473 -0.0047  1.6904 -0.4010
  568MOL0     H76675   7.095   7.911   2.349  3.1509 -0.0158  0.2471
  568MOL0     H76676   7.193   7.760   2.192  0.0069 -1.7459 -0.2009
  568MOL0     H76677   7.184   7.629   2.294 -5.7214  0.6908  1.9299
  568MOL0     H76678   7.506   7.818   2.504 -1.3226  2.5319  1.0449
  568MOL0     H76679   6.614   7.481   2.176 -1.5380 -1.5625 -1.7765
  568MOL0     H76680   6.467   7.399   1.970 -0.5697  0.9645 -1.7909
  569MOL0     O76681   2.541   0.337   1.525  1.2509 -0.1139 -0.3375
  569MOL0     C76682   2.449   0.294   1.584 -0.3416  0.5341 -0.3607
  569MOL0     O76683   2.360   0.199   1.547 -0.1423 -0.5407 -0.6238
  569MOL0     C76684   2.363   0.129   1.429 -0.8266  0.0617 -0.2466
  569MOL0     C76685   2.258   0.047   1.411 -0.3164  0.4592  0.1117
  569MOL0     C76686   2.248  -0.041   1.301 -0.4742 -0.3710  0.6337
  569MOL0     C76687   2.336  -0.017   1.186 -0.2638  0.5370 -0.3007
  569MOL0     O76688   2.331  -0.090   1.070 -0.2207  0.0543  0.1119
  569MOL0     C76689   2.276  -0.218   1.055 -0.3992  0.2731  0.7681
  569MOL0     C76690   2.390  -0.322   1.089  0.4105  0.4943  0.1514
  569MOL0     C76691   2.356  -0.432   1.188 -0.3853  0.1882  1.1731
  569MOL0     C76692   2.486  -0.523   1.196  0.1070 -0.1317 -0.4255
  569MOL0     C76693   2.488  -0.637   1.297 -0.0227  0.1009 -0.7380
  569MOL0     C76694   2.457  -0.596   1.443  0.0761 -0.0291 -0.3546
  569MOL0     C76695   2.564  -0.493   1.484  0.2922  0.1207 -0.3875
  569MOL0     C76696   2.718  -0.535   1.489  0.7065  0.0642  0.0053
  569MOL0     N76697   2.757  -0.640   1.586  0.2947  0.5674  0.4810
  569MOL0     C76698   2.741  -0.645   1.724 -0.4094 -0.0474  0.7544
  569MOL0     C76699   2.764  -0.770   1.765  0.4330  0.1284  0.4222
  569MOL0     C76700   2.758  -0.820   1.908 -0.5583 -0.8116  0.6115
  569MOL0     C76701   2.821  -0.957   1.902 -0.0366 -0.0663  0.6774
  569MOL0     C76702   2.847  -1.003   2.048 -0.7195  0.1629  0.6940
  569MOL0     C76703   2.989  -0.995   2.086 -1.2910  0.5775  0.2396
  569MOL0     O76704   3.028  -1.007   2.228  0.0672 -0.4545  1.2524
  569MOL0     C76705   3.029  -1.130   2.280  0.2375 -0.2964  0.1329
  569MOL0     C76706   3.126  -1.223   2.229  0.3317  0.1734  0.4319
  569MOL0     C76707   3.132  -1.354   2.274 -0.0504  0.2189  0.7688
  569MOL0     C76708   3.244  -1.444   2.208  0.1671 -1.0482 -0.6997
  569MOL0     C76709   3.031  -1.395   2.365  0.3524 -0.2553  0.3516
  569MOL0     C76710   3.030  -1.536   2.407  0.3865  0.6172  0.4434
  569MOL0     O76711   3.023  -1.632   2.305  0.3674  0.5358  0.7546
  569MOL0     C76712   3.072  -1.755   2.336  0.6821 -0.4343  0.3870
  569MOL0     C76713   3.205  -1.765   2.389  0.0414  0.2313 -0.2746
  569MOL0     C76714   3.265  -1.892   2.399  1.4139 -0.4119 -0.4990
  569MOL0     C76715   3.208  -2.007   2.340  0.3005  0.0790  0.0903
  569MOL0     O76716   3.258  -2.138   2.347 -0.3794 -0.4961 -0.5658
  569MOL0     C76717   3.402  -2.136   2.354 -0.2446 -0.0385  0.0296
  569MOL0     C76718   3.458  -2.268   2.332 -0.3281 -0.2781 -0.7282
  569MOL0     C76719   3.609  -2.286   2.320 -0.2455 -0.7625 -0.3916
  569MOL0     C76720   3.646  -2.418   2.249  1.5003  0.3984  0.5223
  569MOL0     C76721   3.800  -2.438   2.243 -1.1562 -0.5567  0.4655
  569MOL0     C76722   3.842  -2.519   2.365  0.0722  0.3067  0.0585
  569MOL0     C76723   3.988  -2.519   2.378 -1.1703  0.6148  0.3067
  569MOL0     C76724   4.068  -2.646   2.325  0.4223 -0.6621  0.5391
  569MOL0    Cl76725   4.020  -2.791   2.419  0.1852 -0.0548 -0.4245
  569MOL0     C76726   3.080  -1.990   2.291  0.7469  0.1840  0.2896
  569MOL0     C76727   3.011  -1.864   2.291  0.8361  0.2367 -0.2919
  569MOL0     O76728   3.028  -1.556   2.531 -1.4097 -0.2041  0.1013
  569MOL0     C76729   2.948  -1.295   2.428 -0.2292  0.6234 -0.1857
  569MOL0     C76730   2.940  -1.161   2.384  0.3927  0.5923  1.0310
  569MOL0     N76731   2.797  -0.837   1.652 -0.2094 -0.0434 -0.0644
  569MOL0     N76732   2.799  -0.766   1.553  0.5733 -0.5947 -0.2642
  569MOL0     C76733   2.445   0.073   1.203  1.1559  1.1083  0.3450
  569MOL0     C76734   2.459   0.140   1.322 -1.4241 -0.1067  0.4365
  569MOL0     C76735   2.446   0.335   1.725  0.1368  0.4138  0.6707
  569MOL0     C76736   2.334   0.308   1.806 -0.2965  0.0200 -0.2269
  569MOL0     C76737   2.332   0.336   1.947  0.0351 -0.5835 -0.3166
  569MOL0     C76738   2.435   0.402   2.011 -1.2483  0.6496 -0.1122
  569MOL0     O76739   2.452   0.440   2.145 -0.0900 -0.4278 -0.1113
  569MOL0     C76740   2.350   0.405   2.236  0.1043 -0.4421  0.3692
  569MOL0     C76741   2.362   0.275   2.312 -0.3076  0.1607  0.0979
  569MOL0     C76742   2.467   0.279   2.424  0.3685 -0.5315  0.6641
  569MOL0     C76743   2.608   0.250   2.363  0.0233  0.8898  0.7232
  569MOL0     C76744   2.713   0.241   2.462 -0.6323  0.2226 -0.5651
  569MOL0     C76745   2.799   0.215   2.546  0.5704 -0.1727  0.0866
  569MOL0     C76746   2.542   0.423   1.932 -0.0155  0.5661  0.3177
  569MOL0     C76747   2.560   0.386   1.794  0.0503 -0.6296 -1.2962
  569MOL0     H76748   2.181   0.056   1.487 -0.3740 -1.0150  0.2523
  569MOL0     H76749   2.169  -0.116   1.307 -0.9168  0.0525  0.1943
  569MOL0     H76750   2.192  -0.238   1.121  1.2614 -2.9825  2.1573
  569MOL0     H76751   2.234  -0.232   0.955  0.5839  1.4102  0.1702
  569MOL0     H76752   2.432  -0.364   0.997 -0.9152 -0.3100 -0.1185
  569MOL0     H76753   2.469  -0.265   1.138 -0.0698  3.0735 -1.8617
  569MOL0     H76754   2.333  -0.398   1.290 -1.7860 -2.5969  1.8877
  569MOL0     H76755   2.271  -0.490   1.149 -0.9257  0.6911  1.5891
  569MOL0     H76756   2.507  -0.561   1.096  3.4266 -0.9575  0.4815
  569MOL0     H76757   2.568  -0.452   1.212  0.4620  0.8585 -5.1818
  569MOL0     H76758   2.411  -0.711   1.273  0.2201 -0.2567 -0.4158
  569MOL0     H76759   2.581  -0.686   1.265 -0.6812 -0.7123 -1.4609
  569MOL0     H76760   2.355  -0.567   1.470  1.5716  3.9109  1.8578
  569MOL0     H76761   2.481  -0.686   1.500  1.6232 -0.1610 -1.1332
  569MOL0     H76762   2.546  -0.406   1.421  1.0459 -0.5212 -1.5166
  569MOL0     H76763   2.538  -0.456   1.584  2.3607  0.2981  0.1342
  569MOL0     H76764   2.781  -0.447   1.504 -3.6221  3.4512  0.4556
  569MOL0     H76765   2.747  -0.581   1.394 -3.1461 -2.7106 -0.0715
  569MOL0     H76766   2.705  -0.559   1.779 -0.8236 -0.0579  0.4984
  569MOL0     H76767   2.817  -0.758   1.976 -2.1442  2.0248 -0.4241
  569MOL0     H76768   2.655  -0.831   1.942 -1.2346 -0.7161 -1.3023
  569MOL0     H76769   2.907  -0.974   1.838 -1.4587 -1.3318 -0.9759
  569MOL0     H76770   2.750  -1.025   1.855  1.9218 -2.3285  0.7927
  569MOL0     H76771   2.831  -1.111   2.057 -3.4619  0.3298 -0.9097
  569MOL0     H76772   2.786  -0.944   2.117 -1.8876  1.9298 -1.7120
  569MOL0     H76773   3.019  -0.899   2.045 -0.6157  0.1023 -0.3979
  569MOL0     H76774   3.040  -1.077   2.035  1.8689 -0.1468  4.0421
  569MOL0     H76775   3.196  -1.196   2.151  0.7886 -1.1925  0.3424
  569MOL0     H76776   3.337  -1.391   2.187 -0.2438 -0.6835 -1.6654
  569MOL0     H76777   3.281  -1.506   2.291  0.3407  0.7162  0.5979
  569MOL0     H76778   3.212  -1.491   2.114 -0.5596 -0.9253 -0.5184
  569MOL0     H76779   3.262  -1.682   2.431  0.3477 -0.4663  0.7126
  569MOL0     H76780   3.349  -1.909   2.465  1.2393  0.6960  0.0321
  569MOL0     H76781   3.447  -2.074   2.276  0.9010  0.4792  1.0691
  569MOL0     H76782   3.440  -2.103   2.450 -1.0456 -0.0868  0.3719
  569MOL0     H76783   3.417  -2.343   2.401  5.1000 -1.8661  1.2772
  569MOL0     H76784   3.412  -2.289   2.234 -0.2446  3.1342 -1.6179
  569MOL0     H76785   3.650  -2.271   2.421  1.2640  2.3707 -1.3683
  569MOL0     H76786   3.655  -2.206   2.261 -2.0478 -0.5524 -1.5722
  569MOL0     H76787   3.585  -2.501   2.286  0.9543 -0.4106 -1.9698
  569MOL0     H76788   3.605  -2.403   2.148 -1.4031  0.7525  1.6581
  569MOL0     H76789   3.846  -2.339   2.251 -0.8501 -0.7389  0.9839
  569MOL0     H76790   3.838  -2.489   2.155  0.1203  0.1744  0.5723
  569MOL0     H76791   3.801  -2.476   2.457  1.3712 -1.7965  1.6969
  569MOL0     H76792   3.794  -2.617   2.367 -4.5565  2.2525 -1.1875
  569MOL0     H76793   4.023  -2.511   2.482  2.8989 -4.0700 -0.3109
  569MOL0     H76794   4.021  -2.434   2.317  2.0299 -1.5347 -1.2228
  569MOL0     H76795   4.176  -2.631   2.334  0.4985 -0.6064 -0.3528
  569MOL0     H76796   4.049  -2.650   2.217  0.3547 -3.6659  0.5912
  569MOL0     H76797   3.034  -2.077   2.244 -1.4792  1.2573  0.3652
  569MOL0     H76798   2.906  -1.864   2.261  1.2432  2.3398 -1.9783
  569MOL0     H76799   2.885  -1.319   2.514 -0.2983  0.4060 -0.2974
  569MOL0     H76800   2.864  -1.090   2.416 -1.9005  0.2667 -3.0171
  569MOL0     H76801   2.511   0.071   1.117  2.5504  1.1858  1.3680
  569MOL0     H76802   2.557   0.185   1.336 -0.8003 -1.1697 -0.3909
  569MOL0     H76803   2.252   0.259   1.754 -2.8375  2.6890  0.9794
  569MOL0     H76804   2.239   0.309   1.997  0.4856 -0.2665  0.7251
  569MOL0     H76805   2.366   0.484   2.309 -1.2407 -0.2128  0.4379
  569MOL0     H76806   2.250   0.422   2.197 -0.8162 -3.3790  1.2240
  569MOL0     H76807   2.396   0.202   2.238  1.2371  1.7701 -0.8615
  569MOL0     H76808   2.269   0.243   2.359  0.0736 -0.0402  0.7347
  569MOL0     H76809   2.445   0.205   2.501 -0.3415  0.8076  1.7985
  569MOL0     H76810   2.479   0.379   2.467 -3.1662  0.9815 -1.4429
  569MOL0     H76811   2.633   0.315   2.279  1.8078 -0.2049  0.3628
  569MOL0     H76812   2.596   0.146   2.332  1.0587  0.7099  0.8955
  569MOL0     H76813   2.864   0.185   2.626  1.6638  1.0748 -0.2895
  569MOL0     H76814   2.626   0.476   1.975  0.1530  2.7220 -2.3475
  569MOL0     H76815   2.648   0.416   1.737  2.6659  1.6485  3.3919
  570MOL0     O76816   2.725  11.064   3.046 -0.3086 -0.4453 -0.7204
  570MOL0     C76817   2.712  10.958   2.983 -1.7319  0.9032 -0.2178
  570MOL0     O76818   2.603  10.917   2.905  0.7008  0.4749 -0.0272
  570MOL0     C76819   2.493  11.002   2.909 -0.1110 -0.2870 -0.1324
  570MOL0     C76820   2.470  11.131   2.846 -0.0328 -0.2141 -1.0866
  570MOL0     C76821   2.344  11.196   2.842  0.1503 -0.1172  0.0175
  570MOL0     C76822   2.250  11.155   2.927  0.2292 -0.8003 -0.1043
  570MOL0     O76823   2.126  11.212   2.932 -0.8789  0.5193  0.6296
  570MOL0     C76824   2.118  11.355   2.916 -0.8843  0.2492  0.4975
  570MOL0     C76825   1.965  11.391   2.928  0.1351 -0.3032 -0.2466
  570MOL0     C76826   1.914  11.325   3.061  0.4848  0.2877 -0.9798
  570MOL0     C76827   1.756  11.330   3.057  0.0141 -1.1076  0.1259
  570MOL0     C76828   1.689  11.284   3.190 -0.1441  0.0028 -0.0174
  570MOL0     C76829   1.726  11.360   3.322 -0.1093  0.3131 -0.0591
  570MOL0     C76830   1.726  11.514   3.293 -0.4912 -0.5036  0.6545
  570MOL0     C76831   1.727  11.592   3.426  0.0580  0.2047 -0.5940
  570MOL0     N76832   1.695  11.738   3.413 -0.0846  1.2121  1.1236
  570MOL0     C76833   1.604  11.801   3.495  0.0994  0.3596 -0.9137
  570MOL0     C76834   1.617  11.928   3.445  1.3635 -0.1325  0.3430
  570MOL0     C76835   1.539  12.046   3.504 -0.4115 -0.4156 -1.0499
  570MOL0     C76836   1.471  12.144   3.400 -0.3525  0.1165 -0.0585
  570MOL0     C76837   1.338  12.207   3.445  0.2224  0.2486 -0.3710
  570MOL0     C76838   1.229  12.102   3.454  0.2099 -0.9365 -1.0738
  570MOL0     O76839   1.099  12.163   3.446 -0.8085  0.2596 -0.4962
  570MOL0     C76840   1.078  12.263   3.533 -0.0471  0.4666  0.4153
  570MOL0     C76841   1.063  12.252   3.670 -0.0753  1.1582  0.2025
  570MOL0     C76842   1.051  12.361   3.758 -0.2103  0.6917 -0.3250
  570MOL0     C76843   1.039  12.336   3.903  0.9282 -0.3560  0.1320
  570MOL0     C76844   1.058  12.488   3.701 -0.3184 -0.1752  0.7270
  570MOL0     C76845   1.036  12.618   3.775  0.0659 -0.6274  0.1328
  570MOL0     O76846   0.984  12.713   3.700 -0.3797 -0.4002  0.2166
  570MOL0     C76847   0.957  12.828   3.766  0.3366 -1.7101 -1.0117
  570MOL0     C76848   0.857  12.828   3.865  0.7125 -0.1285 -1.1482
  570MOL0     C76849   0.833  12.948   3.945  0.3564  0.6485  0.4138
  570MOL0     C76850   0.887  13.071   3.915 -0.6780 -0.6186  0.2828
  570MOL0     O76851   0.842  13.174   3.998 -0.5565 -0.3746 -0.4703
  570MOL0     C76852   0.921  13.294   3.991  0.4057  0.4156 -0.4638
  570MOL0     C76853   1.046  13.281   4.082  0.6948  0.8584  0.2556
  570MOL0     C76854   1.007  13.259   4.232 -0.0319  0.5897 -0.8493
  570MOL0     C76855   1.119  13.320   4.326  0.9300  0.7161  0.1976
  570MOL0     C76856   1.145  13.466   4.309  0.0696 -0.7305 -0.2409
  570MOL0     C76857   1.262  13.521   4.407 -0.1522  0.0190  0.3497
  570MOL0     C76858   1.311  13.658   4.359 -1.0643  0.4023 -0.3721
  570MOL0     C76859   1.438  13.702   4.433 -0.0361 -0.1645  0.9062
  570MOL0    Cl76860   1.397  13.729   4.606  0.1902 -0.1168  0.3202
  570MOL0     C76861   0.985  13.073   3.813 -0.2949  0.4377  0.1180
  570MOL0     C76862   1.014  12.951   3.739 -0.2298 -1.0899 -0.0229
  570MOL0     O76863   1.045  12.628   3.899  0.8663 -0.6087 -1.2906
  570MOL0     C76864   1.064  12.496   3.559  0.0677 -0.0020 -0.1946
  570MOL0     C76865   1.074  12.386   3.481  0.0431 -0.6688 -0.4780
  570MOL0     N76866   1.712  11.931   3.357 -0.2321 -0.3382 -0.0401
  570MOL0     N76867   1.758  11.815   3.332 -0.3563  0.0561  0.1737
  570MOL0     C76868   2.269  11.041   2.997 -0.3217 -0.5553  0.1314
  570MOL0     C76869   2.386  10.964   2.988 -0.4966 -0.3174 -0.3286
  570MOL0     C76870   2.836  10.865   2.997  0.5730  0.1899 -0.3337
  570MOL0     C76871   2.962  10.912   3.026 -0.2362  0.2894  0.1404
  570MOL0     C76872   3.073  10.825   3.039  0.5635  0.4436  0.1621
  570MOL0     C76873   3.059  10.685   3.001  0.5672 -0.0050  1.0125
  570MOL0     O76874   3.163  10.595   2.995  0.7061  0.1950 -0.1305
  570MOL0     C76875   3.290  10.656   3.009 -0.6746 -0.1995 -0.1379
  570MOL0     C76876   3.412  10.547   3.000  0.0984 -0.3867  0.0783
  570MOL0     C76877   3.550  10.605   2.997  1.0410 -0.1817 -0.2337
  570MOL0     C76878   3.579  10.673   2.858  0.2373 -0.0732 -0.3165
  570MOL0     C76879   3.723  10.671   2.842  0.7143  0.4977 -0.6081
  570MOL0     C76880   3.843  10.683   2.819  0.3858  0.0088 -0.4543
  570MOL0     C76881   2.927  10.645   2.983  0.2304 -0.7473 -0.4241
  570MOL0     C76882   2.820  10.732   2.985  0.5801  1.2234  0.3815
  570MOL0     H76883   2.562  11.153   2.792  1.4576 -1.0014  0.9985
  570MOL0     H76884   2.322  11.289   2.791 -2.5152 -0.5208  0.2974
  570MOL0     H76885   2.185  11.407   2.985 -0.8642  2.8435 -1.3661
  570MOL0     H76886   2.142  11.382   2.813 -0.6912 -0.3825  0.3732
  570MOL0     H76887   1.949  11.499   2.934 -1.0313 -0.5104  0.5383
  570MOL0     H76888   1.916  11.352   2.839 -0.9388 -1.6376  0.9003
  570MOL0     H76889   1.945  11.221   3.074 -1.9872 -0.5426 -1.1437
  570MOL0     H76890   1.949  11.376   3.151 -3.9629  2.0955  0.0430
  570MOL0     H76891   1.723  11.430   3.027 -1.4362 -1.7278 -0.4155
  570MOL0     H76892   1.729  11.259   2.979 -2.6084 -2.8010  2.3961
  570MOL0     H76893   1.582  11.276   3.170  0.0548  0.8376 -1.6198
  570MOL0     H76894   1.725  11.181   3.200 -0.8950 -0.1760  0.9979
  570MOL0     H76895   1.663  11.339   3.409  0.5018  0.9824  0.5541
  570MOL0     H76896   1.829  11.335   3.347  0.0700  0.5123 -0.5935
  570MOL0     H76897   1.810  11.554   3.235 -1.2488  2.4492  1.4279
  570MOL0     H76898   1.639  11.546   3.235  2.6777  0.9734 -3.8750
  570MOL0     H76899   1.823  11.572   3.475  0.3586  2.4367 -0.1964
  570MOL0     H76900   1.647  11.553   3.489  1.8432 -0.0240  1.6628
  570MOL0     H76901   1.531  11.764   3.566  1.8582 -2.3958 -0.3441
  570MOL0     H76902   1.474  12.027   3.590  1.7134 -3.0455  0.1296
  570MOL0     H76903   1.624  12.094   3.553  0.4558 -1.2694 -1.6869
  570MOL0     H76904   1.464  12.090   3.305  2.3609  0.4066 -0.5106
  570MOL0     H76905   1.543  12.225   3.386 -0.0571 -0.2604 -0.7689
  570MOL0     H76906   1.305  12.289   3.380 -1.0729  0.3929  0.4272
  570MOL0     H76907   1.347  12.253   3.544  0.4465 -1.6611  0.5365
  570MOL0     H76908   1.240  12.051   3.550 -0.0660  1.9546  0.6307
  570MOL0     H76909   1.241  12.031   3.372 -2.5015 -1.2497 -1.2833
  570MOL0     H76910   1.070  12.148   3.700 -0.5032  0.7097 -1.1630
  570MOL0     H76911   1.037  12.226   3.900 -1.4233 -0.3449 -0.2906
  570MOL0     H76912   1.132  12.352   3.958  2.5355 -1.3265 -2.1341
  570MOL0     H76913   0.951  12.380   3.951 -0.7620 -0.0842 -2.9449
  570MOL0     H76914   0.806  12.737   3.895  2.3081 -0.4018  1.0304
  570MOL0     H76915   0.777  12.931   4.036  1.5481  0.1504  1.0751
  570MOL0     H76916   0.941  13.328   3.889 -0.8159 -0.1663 -0.9084
  570MOL0     H76917   0.867  13.375   4.039  0.1726  0.9442 -1.5900
  570MOL0     H76918   1.098  13.188   4.059 -3.6133 -1.9223  0.4152
  570MOL0     H76919   1.110  13.367   4.066  3.8641 -1.3461  0.2342
  570MOL0     H76920   1.002  13.152   4.255  0.9833  0.5101 -0.9631
  570MOL0     H76921   0.910  13.304   4.255 -0.9150 -0.0762 -3.0032
  570MOL0     H76922   1.083  13.308   4.428 -0.1158  0.4831 -0.1847
  570MOL0     H76923   1.214  13.269   4.308 -0.2159 -2.0444  1.3792
  570MOL0     H76924   1.053  13.519   4.337 -1.0510 -1.1774 -2.8047
  570MOL0     H76925   1.163  13.509   4.210 -1.4177  0.8939  0.1410
  570MOL0     H76926   1.233  13.521   4.512  2.4828  0.3588  1.1588
  570MOL0     H76927   1.335  13.440   4.405 -1.4366 -1.1544 -0.6334
  570MOL0     H76928   1.233  13.735   4.350 -1.5820  0.4350  2.9372
  570MOL0     H76929   1.350  13.643   4.258  0.0080  1.3646 -0.1219
  570MOL0     H76930   1.464  13.803   4.401 -1.2541 -1.0004 -3.3028
  570MOL0     H76931   1.521  13.630   4.425 -0.5109 -0.5118 -2.3772
  570MOL0     H76932   1.032  13.167   3.785 -0.4687  0.0989 -1.3967
  570MOL0     H76933   1.075  12.961   3.650  0.8199 -0.7234  0.7225
  570MOL0     H76934   1.038  12.589   3.510 -4.1965  0.1052  1.8940
  570MOL0     H76935   1.077  12.402   3.373  2.1634 -0.2300 -0.3893
  570MOL0     H76936   2.193  11.009   3.067  1.0254  1.8981  2.9567
  570MOL0     H76937   2.404  10.870   3.039  0.8650 -0.6396 -1.3429
  570MOL0     H76938   2.967  11.020   3.017 -2.0423  0.3076 -1.0773
  570MOL0     H76939   3.171  10.868   3.056  1.2013 -1.7886  2.9918
  570MOL0     H76940   3.300  10.734   2.932 -0.2483  0.7320  0.8389
  570MOL0     H76941   3.305  10.706   3.105  3.3713  1.8161 -1.5774
  570MOL0     H76942   3.392  10.474   2.921 -0.5119 -0.2465  0.1013
  570MOL0     H76943   3.410  10.483   3.089  0.0739  0.5714  0.7845
  570MOL0     H76944   3.621  10.524   3.017 -0.2555 -1.9911 -2.3957
  570MOL0     H76945   3.572  10.673   3.079  2.1734  1.4780 -1.8318
  570MOL0     H76946   3.543  10.776   2.858 -0.6389 -0.3476  0.7994
  570MOL0     H76947   3.530  10.616   2.779 -2.8410  0.6129  0.9259
  570MOL0     H76948   3.946  10.675   2.790  0.7440 -0.8759  0.9712
  570MOL0     H76949   2.905  10.541   2.965 -0.0173 -0.7182 -0.3085
  570MOL0     H76950   2.729  10.680   2.956  0.3610  1.1425  1.1931
  571MOL0     O76951   8.285   4.629   6.217 -0.5259  0.5039 -0.5460
  571MOL0     C76952   8.369   4.631   6.120  0.6366  0.3404 -0.2512
  571MOL0     O76953   8.362   4.716   6.016 -0.0005 -0.0038 -0.5080
  571MOL0     C76954   8.272   4.821   6.028  0.3976  0.5453  0.5684
  571MOL0     C76955   8.266   4.929   6.117 -0.5555  0.4301  0.1303
  571MOL0     C76956   8.160   5.024   6.106 -0.3706 -0.4799 -0.4690
  571MOL0     C76957   8.064   5.014   6.001  0.8312 -0.7238 -1.2824
  571MOL0     O76958   7.975   5.116   5.971 -0.7794  0.4559  0.4292
  571MOL0     C76959   7.844   5.079   5.976 -0.2090  0.7067 -0.3580
  571MOL0     C76960   7.750   5.194   6.012  0.4877 -0.0258  0.8293
  571MOL0     C76961   7.766   5.305   5.907  0.0303 -1.1088  0.6870
  571MOL0     C76962   7.682   5.427   5.951 -0.1860  0.2247 -0.5057
  571MOL0     C76963   7.661   5.540   5.852  0.5127  0.2573 -0.0301
  571MOL0     C76964   7.572   5.645   5.906 -0.0696  0.0845 -0.2465
  571MOL0     C76965   7.556   5.748   5.795 -0.1535 -0.1297  0.0712
  571MOL0     C76966   7.670   5.825   5.749 -0.0152 -0.0504 -0.3049
  571MOL0     N76967   7.738   5.900   5.860  0.1027 -0.8428 -0.6560
  571MOL0     C76968   7.673   5.953   5.972  0.3665 -0.2228  0.7034
  571MOL0     C76969   7.770   6.013   6.049  0.0951  0.0070  1.5752
  571MOL0     C76970   7.744   6.078   6.183 -0.1634  0.7074 -0.1682
  571MOL0     C76971   7.648   6.200   6.172  0.7778  0.1209 -0.7947
  571MOL0     C76972   7.628   6.276   6.305  1.2594  0.0205 -0.3355
  571MOL0     C76973   7.589   6.424   6.278  0.0235 -0.5781  0.3824
  571MOL0     O76974   7.690   6.495   6.203 -0.1485 -0.4126 -0.6580
  571MOL0     C76975   7.802   6.553   6.273 -0.2993  1.7749 -0.6169
  571MOL0     C76976   7.881   6.648   6.214 -0.1660  0.7679 -0.1561
  571MOL0     C76977   7.989   6.711   6.282 -0.9302 -0.5215  0.2668
  571MOL0     C76978   8.075   6.800   6.197 -0.8150 -0.5343 -0.8905
  571MOL0     C76979   8.011   6.694   6.421  0.0947  0.0761  0.9517
  571MOL0     C76980   8.125   6.746   6.496  0.4559 -0.8325 -0.0824
  571MOL0     O76981   8.142   6.692   6.617  0.4473  0.7307 -0.1563
  571MOL0     C76982   8.268   6.694   6.672  0.9426 -0.9343 -1.1689
  571MOL0     C76983   8.316   6.805   6.752  1.0284 -0.4844  0.5075
  571MOL0     C76984   8.430   6.799   6.823 -0.3664 -0.2589 -0.3409
  571MOL0     C76985   8.526   6.702   6.787 -0.8054  0.1295  0.8188
  571MOL0     O76986   8.653   6.689   6.838  0.0207 -0.1142 -0.1392
  571MOL0     C76987   8.651   6.653   6.981  0.3225  0.4886  0.2661
  571MOL0     C76988   8.709   6.518   7.017 -0.5190 -0.0198  0.1007
  571MOL0     C76989   8.746   6.501   7.159 -0.2320 -0.3130 -0.7973
  571MOL0     C76990   8.803   6.359   7.171  0.8202  0.1427 -0.9164
  571MOL0     C76991   8.909   6.338   7.277 -0.7212  0.4118  0.6222
  571MOL0     C76992   8.844   6.356   7.414 -0.4072 -0.0325  0.1754
  571MOL0     C76993   8.934   6.342   7.530  0.6193  0.3779 -0.4057
  571MOL0     C76994   8.951   6.196   7.568  0.8062  1.4275 -0.7638
  571MOL0    Cl76995   9.085   6.173   7.681 -0.1530 -0.1816 -0.1855
  571MOL0     C76996   8.485   6.598   6.696 -0.1747  0.1600 -0.1161
  571MOL0     C76997   8.367   6.594   6.636  0.7188  0.6236 -0.8384
  571MOL0     O76998   8.201   6.838   6.451 -0.1204 -0.4759  0.6698
  571MOL0     C76999   7.924   6.599   6.483  0.4627 -0.4507  0.0164
  571MOL0     C77000   7.829   6.533   6.412 -0.4076  1.4813 -0.0278
  571MOL0     N77001   7.879   6.025   5.967  0.1637 -0.2931  0.1267
  571MOL0     N77002   7.863   5.963   5.862  0.4697  0.5994  0.2531
  571MOL0     C77003   8.081   4.914   5.911  0.1280  0.9530 -0.0012
  571MOL0     C77004   8.182   4.818   5.926  0.5479 -0.2707  0.5430
  571MOL0     C77005   8.487   4.552   6.135 -0.3936 -0.0415  0.0334
  571MOL0     C77006   8.532   4.515   6.265  1.2239  1.1256  0.2924
  571MOL0     C77007   8.654   4.444   6.282 -0.1525 -0.6034 -0.4568
  571MOL0     C77008   8.733   4.418   6.165  0.2687 -0.3407  0.2007
  571MOL0     O77009   8.852   4.342   6.156 -0.5154  0.0781 -0.0736
  571MOL0     C77010   8.860   4.236   6.248  0.1106 -0.0256  0.3740
  571MOL0     C77011   8.984   4.151   6.224  0.3379 -0.6247 -1.1568
  571MOL0     C77012   9.109   4.238   6.235 -0.7372 -0.1524  0.5381
  571MOL0     C77013   9.225   4.201   6.343  1.2192  0.2453  0.1323
  571MOL0     C77014   9.189   4.255   6.476  0.1875 -0.6596 -0.9602
  571MOL0     C77015   9.135   4.295   6.578  0.6983  0.2699  0.0202
  571MOL0     C77016   8.693   4.465   6.036  0.4759 -0.1307 -0.2690
  571MOL0     C77017   8.571   4.531   6.028 -0.9961  0.3566  0.2713
  571MOL0     H77018   8.333   4.929   6.202 -0.2172  0.2946 -0.1339
  571MOL0     H77019   8.159   5.107   6.176 -0.7910 -0.5898 -0.3421
  571MOL0     H77020   7.813   5.023   5.887 -2.3257 -2.2853  2.0442
  571MOL0     H77021   7.834   4.998   6.050  1.3422 -0.8161 -1.7141
  571MOL0     H77022   7.649   5.153   6.015 -1.3423  3.9732 -0.4133
  571MOL0     H77023   7.772   5.234   6.112  3.4598 -1.7404  0.9807
  571MOL0     H77024   7.872   5.332   5.897 -0.1367 -0.4289  0.7083
  571MOL0     H77025   7.726   5.271   5.811  2.2715 -3.3853  0.4501
  571MOL0     H77026   7.580   5.395   5.977  0.1656  0.0647  0.7592
  571MOL0     H77027   7.725   5.468   6.043  0.7428 -0.5176 -0.5812
  571MOL0     H77028   7.757   5.577   5.815  0.4587  0.5649  0.1383
  571MOL0     H77029   7.609   5.486   5.772 -0.6245 -0.3729  1.1010
  571MOL0     H77030   7.483   5.602   5.952 -0.2751  0.4711 -0.2786
  571MOL0     H77031   7.624   5.693   5.989 -0.9889  1.9174 -0.6674
  571MOL0     H77032   7.506   5.701   5.709 -0.0892 -1.4208  0.7150
  571MOL0     H77033   7.499   5.830   5.839  1.8097 -0.0660  2.7168
  571MOL0     H77034   7.636   5.898   5.676 -1.9253 -0.6695 -0.0872
  571MOL0     H77035   7.745   5.765   5.696 -1.6677  0.7610 -3.8326
  571MOL0     H77036   7.572   5.940   6.012 -0.4061  2.8488  0.0424
  571MOL0     H77037   7.693   6.008   6.249  0.7083 -1.0040 -1.2436
  571MOL0     H77038   7.839   6.111   6.226  0.2642 -1.7086  0.9111
  571MOL0     H77039   7.551   6.166   6.133  1.3973 -0.7249 -1.6331
  571MOL0     H77040   7.689   6.269   6.098 -0.0265  0.8338 -0.5903
  571MOL0     H77041   7.725   6.278   6.356  0.5553  2.0911  1.0799
  571MOL0     H77042   7.552   6.232   6.371  0.5340  0.4778 -0.8484
  571MOL0     H77043   7.564   6.480   6.368  0.0056 -1.8924  1.2370
  571MOL0     H77044   7.500   6.432   6.215  1.5291 -1.4278 -1.9652
  571MOL0     H77045   7.865   6.656   6.107  0.7538 -3.0153 -0.7158
  571MOL0     H77046   8.182   6.781   6.213 -0.2302  1.6842 -1.8361
  571MOL0     H77047   8.048   6.786   6.092  0.8399 -2.2695 -1.1376
  571MOL0     H77048   8.049   6.899   6.235 -4.3241 -1.7830  0.3134
  571MOL0     H77049   8.247   6.887   6.766  0.2190 -1.2777  1.3303
  571MOL0     H77050   8.470   6.878   6.886  1.0290 -3.0563  2.5751
  571MOL0     H77051   8.717   6.732   7.017  0.7662  0.8048 -1.1605
  571MOL0     H77052   8.560   6.674   7.037 -0.7653 -1.3792 -0.6866
  571MOL0     H77053   8.642   6.438   6.983  1.5047 -1.5539 -0.4681
  571MOL0     H77054   8.798   6.499   6.956 -0.2883 -1.7810  0.9246
  571MOL0     H77055   8.663   6.519   7.228  1.0262 -2.2548  1.3644
  571MOL0     H77056   8.832   6.566   7.183  0.1186 -1.7703  2.4448
  571MOL0     H77057   8.726   6.290   7.206 -0.8941  2.2375 -0.3232
  571MOL0     H77058   8.840   6.321   7.075 -1.8649 -0.0498 -1.9691
  571MOL0     H77059   8.991   6.408   7.263 -0.4769 -0.3094 -2.1331
  571MOL0     H77060   8.950   6.239   7.256 -0.5130  1.0336 -2.2380
  571MOL0     H77061   8.823   6.464   7.410  2.0209  0.4656 -2.1766
  571MOL0     H77062   8.755   6.294   7.428 -0.2269  0.1467  2.5013
  571MOL0     H77063   8.903   6.386   7.625  0.1221  0.5239 -0.6359
  571MOL0     H77064   9.032   6.377   7.493 -0.7164  0.5512 -4.2428
  571MOL0     H77065   8.981   6.139   7.480  1.3934 -0.4018  0.5704
  571MOL0     H77066   8.858   6.157   7.611  2.4859  0.0714  1.8761
  571MOL0     H77067   8.539   6.505   6.679 -2.7584 -1.6090  0.7951
  571MOL0     H77068   8.332   6.507   6.582 -4.5580  1.6936  0.3646
  571MOL0     H77069   7.929   6.584   6.591  0.5961 -2.5747 -0.2356
  571MOL0     H77070   7.770   6.462   6.469 -1.1387  3.0489  1.2912
  571MOL0     H77071   8.018   4.905   5.823  0.7254 -0.2122 -0.3334
  571MOL0     H77072   8.210   4.756   5.842  2.6302  2.4306 -0.9289
  571MOL0     H77073   8.465   4.542   6.346  2.5510  0.3794  1.6822
  571MOL0     H77074   8.686   4.417   6.382 -0.9115  2.7458  0.8163
  571MOL0     H77075   8.849   4.264   6.353  3.5937  2.0938  0.3249
  571MOL0     H77076   8.775   4.174   6.220  1.0049 -0.7285 -0.8686
  571MOL0     H77077   8.963   4.093   6.133 -1.0406 -2.2864  0.1415
  571MOL0     H77078   9.006   4.078   6.302  0.3722  2.1315  1.6012
  571MOL0     H77079   9.082   4.344   6.244 -2.3341 -0.3212 -1.5088
  571MOL0     H77080   9.151   4.233   6.134 -0.4476  0.2060  0.6364
  571MOL0     H77081   9.318   4.246   6.307  0.8062 -0.2550 -1.6500
  571MOL0     H77082   9.241   4.093   6.349  2.5098  0.4801  1.4288
  571MOL0     H77083   9.094   4.323   6.673 -0.0029 -0.1406 -0.1561
  571MOL0     H77084   8.764   4.451   5.956 -0.3411 -0.1863 -0.9979
  571MOL0     H77085   8.548   4.574   5.931  1.5472  0.3548 -0.4176
  572MOL0     O77086  10.199   3.985   1.368 -0.0987 -0.0893  0.1956
  572MOL0     C77087  10.091   3.965   1.421 -0.0337  0.2338  1.1709
  572MOL0     O77088   9.979   4.034   1.388 -0.4325 -0.0581  0.1404
  572MOL0     C77089  10.001   4.164   1.341  1.3071 -0.1802  0.1378
  572MOL0     C77090   9.951   4.189   1.220  0.8988 -0.8682 -0.8953
  572MOL0     C77091   9.976   4.307   1.149  0.8104  0.5740  0.9914
  572MOL0     C77092  10.051   4.411   1.210 -0.8818 -0.5505  0.4516
  572MOL0     O77093  10.093   4.528   1.152 -0.0631 -0.8077  0.3592
  572MOL0     C77094  10.020   4.584   1.048  0.4166  0.6889  1.0647
  572MOL0     C77095  10.096   4.715   0.999  0.7043  0.3048 -0.5074
  572MOL0     C77096  10.150   4.806   1.117 -0.7369 -0.1035  0.5754
  572MOL0     C77097  10.233   4.918   1.052 -0.0921 -0.4329 -0.3760
  572MOL0     C77098  10.302   5.005   1.156  0.4723  0.0059 -0.1570
  572MOL0     C77099  10.198   5.072   1.239 -0.5603 -1.5443 -0.3721
  572MOL0     C77100  10.269   5.140   1.353 -0.2822  0.5604  0.3033
  572MOL0     C77101  10.175   5.254   1.401 -0.1895  0.3279 -0.5653
  572MOL0     N77102  10.040   5.220   1.453  0.5277  0.4149  0.2466
  572MOL0     C77103   9.998   5.095   1.506 -0.0925 -0.5416 -0.3029
  572MOL0     C77104   9.866   5.115   1.533 -0.7846 -0.0570  0.3886
  572MOL0     C77105   9.800   5.015   1.622  0.3716  0.5428  0.0399
  572MOL0     C77106   9.812   5.064   1.768  0.0483 -0.7474  1.3433
  572MOL0     C77107   9.745   4.946   1.851 -0.5969  0.1036  0.6137
  572MOL0     C77108   9.776   4.940   1.997  0.7077  0.0732 -0.5670
  572MOL0     O77109   9.905   4.973   2.035 -0.7175 -0.0538 -0.2651
  572MOL0     C77110   9.924   5.094   2.097 -1.0813 -0.1278 -0.2144
  572MOL0     C77111   9.874   5.123   2.222 -0.2696 -0.2949  1.1220
  572MOL0     C77112   9.908   5.251   2.276 -0.8420  0.2533  0.8906
  572MOL0     C77113   9.860   5.270   2.415  0.8037  0.0587  0.0181
  572MOL0     C77114   9.989   5.350   2.209 -0.4440 -0.4606  0.4704
  572MOL0     C77115  10.047   5.478   2.268  0.8098  0.1123 -0.5463
  572MOL0     O77116  10.171   5.518   2.219 -0.7279 -0.6268 -0.0311
  572MOL0     C77117  10.241   5.626   2.289  0.0052  1.0927  0.4851
  572MOL0     C77118  10.190   5.740   2.331  0.4794 -0.7721 -0.0679
  572MOL0     C77119  10.267   5.847   2.388 -0.7216 -0.4283 -0.0229
  572MOL0     C77120  10.408   5.839   2.380 -0.2377 -0.3077  0.0913
  572MOL0     O77121  10.495   5.941   2.412  0.1442 -0.0200  0.2643
  572MOL0     C77122  10.642   5.935   2.385 -0.1033  0.0444  0.3036
  572MOL0     C77123  10.735   6.046   2.440 -0.3159 -0.4832  0.2249
  572MOL0     C77124  10.713   6.077   2.588  0.1481  0.2919 -0.3329
  572MOL0     C77125  10.819   6.153   2.668 -0.0293 -0.1763  0.0009
  572MOL0     C77126  10.777   6.194   2.816  1.1586 -0.0578 -0.1986
  572MOL0     C77127  10.901   6.250   2.891  0.3344  0.4420 -1.3332
  572MOL0     C77128  10.860   6.326   3.020 -0.0237 -0.1735  0.3980
  572MOL0     C77129  10.768   6.450   2.988 -0.7355  0.1936  0.7045
  572MOL0    Cl77130  10.731   6.543   3.139  0.3977 -0.5117 -0.3127
  572MOL0     C77131  10.459   5.724   2.313 -0.7529  0.1952 -0.3530
  572MOL0     C77132  10.384   5.619   2.275 -0.3937  0.0917 -0.0427
  572MOL0     O77133   9.968   5.540   2.338  0.5472 -0.6066 -1.0991
  572MOL0     C77134  10.046   5.309   2.088 -0.3013  0.0320  0.1178
  572MOL0     C77135  10.013   5.182   2.036 -0.0002  0.5407  0.3946
  572MOL0     N77136   9.836   5.250   1.491 -0.6656 -0.6574 -0.1563
  572MOL0     N77137   9.937   5.307   1.442  0.6039  0.3376  0.0299
  572MOL0     C77138  10.090   4.387   1.339  0.3569  0.7806 -0.0191
  572MOL0     C77139  10.072   4.262   1.413  0.1807 -0.2499  0.5831
  572MOL0     C77140  10.083   3.842   1.498  0.7040  0.5512  0.4069
  572MOL0     C77141  10.202   3.785   1.543  0.7604  0.1905 -1.0090
  572MOL0     C77142  10.197   3.664   1.615  0.9377  0.8384  0.6987
  572MOL0     C77143  10.077   3.597   1.651 -0.6639  0.7470  0.5573
  572MOL0     O77144  10.086   3.471   1.711  0.4945 -0.1290  0.1327
  572MOL0     C77145   9.962   3.399   1.742  0.1612 -0.1203 -0.1488
  572MOL0     C77146   9.928   3.298   1.634  0.2782  0.1762 -0.4038
  572MOL0     C77147   9.869   3.345   1.492  1.1063 -0.2954 -1.2820
  572MOL0     C77148   9.861   3.236   1.382 -0.1542 -0.1278  0.3376
  572MOL0     C77149   9.991   3.219   1.315 -0.6318  0.3417  0.4693
  572MOL0     C77150  10.099   3.224   1.264 -0.6133 -0.2317  0.1348
  572MOL0     C77151   9.952   3.662   1.600  0.1961 -0.4581  0.5801
  572MOL0     C77152   9.961   3.772   1.519 -0.9812 -0.1361  0.5192
  572MOL0     H77153   9.903   4.107   1.168 -0.8064  0.6607 -1.8731
  572MOL0     H77154   9.936   4.299   1.049  2.3671 -0.0979  0.3879
  572MOL0     H77155  10.007   4.513   0.966  0.5128  2.7036 -0.7844
  572MOL0     H77156   9.922   4.608   1.090  1.2499 -1.0630  4.3201
  572MOL0     H77157  10.179   4.685   0.935  1.9636 -0.2273  1.2918
  572MOL0     H77158  10.027   4.770   0.934  0.8519  1.3308  0.1743
  572MOL0     H77159  10.061   4.833   1.175 -0.6023  0.4238  0.5427
  572MOL0     H77160  10.218   4.750   1.181 -1.0051 -0.1629  0.8086
  572MOL0     H77161  10.319   4.888   0.990  1.0958  0.4715  0.7743
  572MOL0     H77162  10.168   4.985   0.996  0.1540  2.2377  2.2990
  572MOL0     H77163  10.362   4.945   1.226 -0.8009 -0.4486  0.5952
  572MOL0     H77164  10.370   5.080   1.116 -0.2297  0.4277 -0.5856
  572MOL0     H77165  10.142   5.133   1.168  2.1581  1.3343 -0.2758
  572MOL0     H77166  10.134   5.001   1.290 -1.2880 -1.8617 -1.6876
  572MOL0     H77167  10.292   5.078   1.441 -2.4295 -1.0085 -0.1446
  572MOL0     H77168  10.359   5.197   1.331  0.4399 -1.4471 -2.3315
  572MOL0     H77169  10.171   5.328   1.320  0.8731 -1.4208 -2.3047
  572MOL0     H77170  10.235   5.301   1.479  0.3270 -0.6023 -0.3930
  572MOL0     H77171  10.062   5.016   1.544 -1.0483 -0.8058  0.7922
  572MOL0     H77172   9.699   4.993   1.585 -0.1253  3.3474 -0.4694
  572MOL0     H77173   9.861   4.924   1.619  0.9536  0.9410 -0.5498
  572MOL0     H77174   9.777   5.167   1.775  2.7081  0.5677 -2.1367
  572MOL0     H77175   9.916   5.064   1.800  0.2895  2.0121  0.8151
  572MOL0     H77176   9.782   4.856   1.801  1.4129 -0.4782  2.9786
  572MOL0     H77177   9.639   4.968   1.843 -0.5960  0.1409  0.7114
  572MOL0     H77178   9.757   4.837   2.028  1.8379  0.2799  0.9134
  572MOL0     H77179   9.699   4.997   2.050 -0.3188  0.3122 -2.2423
  572MOL0     H77180   9.805   5.057   2.273 -1.5117  2.4326  3.2518
  572MOL0     H77181   9.916   5.346   2.470  1.2736 -0.3558  0.1132
  572MOL0     H77182   9.755   5.298   2.405  0.4240 -1.5222 -0.7984
  572MOL0     H77183   9.852   5.179   2.474 -4.5681  1.8405  2.7792
  572MOL0     H77184  10.086   5.768   2.327  1.2653  2.7260  0.7061
  572MOL0     H77185  10.222   5.931   2.440  2.7200  0.8464  1.2134
  572MOL0     H77186  10.688   5.853   2.440  1.1154  1.4868  1.5159
  572MOL0     H77187  10.658   5.934   2.277 -3.2010  0.2957 -0.2576
  572MOL0     H77188  10.839   6.017   2.422  0.1932  1.7988 -0.8372
  572MOL0     H77189  10.723   6.142   2.389 -1.7434 -0.2367  0.9569
  572MOL0     H77190  10.680   5.989   2.644 -1.8191  1.6430  0.7621
  572MOL0     H77191  10.625   6.143   2.593  0.5341  0.7145  2.6400
  572MOL0     H77192  10.910   6.091   2.667  0.7581  0.8947 -1.9313
  572MOL0     H77193  10.834   6.243   2.607 -1.5319  0.1741  0.1237
  572MOL0     H77194  10.747   6.103   2.867 -0.4595  1.5007  1.7846
  572MOL0     H77195  10.694   6.265   2.814  1.6043  0.7378  3.3944
  572MOL0     H77196  10.981   6.176   2.903  0.7151  0.7890 -1.7252
  572MOL0     H77197  10.947   6.331   2.834 -0.9570  2.0612 -0.1908
  572MOL0     H77198  10.954   6.368   3.057 -0.6870  1.0653  0.7574
  572MOL0     H77199  10.817   6.262   3.098  2.2492  0.0299  1.9053
  572MOL0     H77200  10.672   6.403   2.965 -0.1761 -1.2934  1.2212
  572MOL0     H77201  10.813   6.502   2.903  5.0850 -1.8627  2.0096
  572MOL0     H77202  10.564   5.698   2.311 -0.3406  1.8045 -0.7606
  572MOL0     H77203  10.422   5.546   2.205  4.7274  1.9151  0.4278
  572MOL0     H77204  10.124   5.369   2.041  0.9910  0.9231  3.1773
  572MOL0     H77205  10.064   5.160   1.943 -3.7763 -0.1608 -1.6799
  572MOL0     H77206  10.157   4.457   1.389  0.7713  0.0372  0.4875
  572MOL0     H77207  10.107   4.256   1.516 -1.7153 -0.1439  1.2751
  572MOL0     H77208  10.293   3.842   1.533 -0.4721  2.2017 -1.3506
  572MOL0     H77209  10.294   3.625   1.644  2.4152 -0.5105 -4.8787
  572MOL0     H77210   9.974   3.340   1.833 -0.6198  1.0039  0.7142
  572MOL0     H77211   9.882   3.470   1.767 -0.0892 -0.6981  0.7275
  572MOL0     H77212   9.843   3.237   1.666 -0.7700  1.1519 -1.2447
  572MOL0     H77213  10.018   3.236   1.625 -0.9861 -1.8013 -0.0541
  572MOL0     H77214   9.926   3.425   1.444 -0.2781 -0.4146 -3.2574
  572MOL0     H77215   9.767   3.382   1.511 -0.2530 -3.7697 -1.0990
  572MOL0     H77216   9.781   3.260   1.311 -1.4597 -0.9955  1.4646
  572MOL0     H77217   9.827   3.142   1.428 -0.5501 -0.7323 -1.1259
  572MOL0     H77218  10.199   3.226   1.225 -0.3042  0.4001  0.9317
  572MOL0     H77219   9.857   3.622   1.634 -0.8831  1.0781 -0.4885
  572MOL0     H77220   9.865   3.791   1.472 -2.1662 -3.5226  1.2670
  573MOL0     O77221   8.881   7.146   7.870 -0.3365 -0.6767  0.4080
  573MOL0     C77222   8.801   7.217   7.805 -1.1120 -0.7436 -0.5434
  573MOL0     O77223   8.678   7.200   7.811 -0.3380 -0.2263  0.5053
  573MOL0     C77224   8.627   7.115   7.900 -0.0987  0.3616 -0.7424
  573MOL0     C77225   8.630   7.136   8.039  0.3243 -0.9771  0.1682
  573MOL0     C77226   8.561   7.052   8.115  0.5734 -0.1024  0.1971
  573MOL0     C77227   8.486   6.943   8.080 -0.9305  0.2513  0.9580
  573MOL0     O77228   8.432   6.867   8.186  0.1430  0.1807 -0.4424
  573MOL0     C77229   8.438   6.723   8.167  0.5483 -0.4155  0.5706
  573MOL0     C77230   8.387   6.670   8.305  0.9366  0.5688 -0.0894
  573MOL0     C77231   8.414   6.524   8.311  0.4729  0.2400  0.3630
  573MOL0     C77232   8.305   6.425   8.355 -0.2796  0.1908 -0.5843
  573MOL0     C77233   8.344   6.280   8.348  1.1088 -0.9471 -0.0662
  573MOL0     C77234   8.445   6.222   8.443 -0.5173 -0.9170  0.3403
  573MOL0     C77235   8.419   6.255   8.594 -0.4133  0.0945  0.5546
  573MOL0     C77236   8.538   6.259   8.682 -0.0810  0.4413 -1.0548
  573MOL0     N77237   8.515   6.289   8.823  0.7368  0.1912 -0.5814
  573MOL0     C77238   8.425   6.239   8.918 -0.3632  0.6212  0.0823
  573MOL0     C77239   8.449   6.302   9.034 -0.3042  0.7578 -0.8879
  573MOL0     C77240   8.392   6.284   9.172 -1.0638  0.2353 -0.5047
  573MOL0     C77241   8.488   6.215   9.266  0.5516  0.1636  1.6947
  573MOL0     C77242   8.466   6.255   9.412  0.2746  0.6920 -0.1381
  573MOL0     C77243   8.578   6.186   9.492  0.6865 -0.6584 -0.1672
  573MOL0     O77244   8.565   6.204   9.632  0.3410  0.1964 -0.6306
  573MOL0     C77245   8.669   6.149   9.711  0.7314  0.0439  0.2284
  573MOL0     C77246   8.699   6.189   9.845  0.3334  0.2762 -0.0804
  573MOL0     C77247   8.791   6.123   9.922 -0.9522  0.4712 -0.6766
  573MOL0     C77248   8.792   6.172  10.067 -0.5628 -0.0058  0.0987
  573MOL0     C77249   8.878   6.029   9.873  0.3665 -0.0766 -0.0053
  573MOL0     C77250   8.993   5.962   9.934  0.9320  0.0223 -0.3314
  573MOL0     O77251   9.046   6.027  10.038  0.9351  0.5005 -0.1356
  573MOL0     C77252   9.149   5.966  10.103  0.0123  0.9953 -0.2701
  573MOL0     C77253   9.130   5.885  10.220  0.1344  0.1454 -0.2094
  573MOL0     C77254   9.239   5.820  10.288  1.2676 -0.4308 -1.0528
  573MOL0     C77255   9.361   5.826  10.223 -0.2670  0.7934  0.0468
  573MOL0     O77256   9.473   5.772  10.292  0.0780 -0.0001  0.1692
  573MOL0     C77257   9.504   5.628  10.270  0.0955 -0.3485  0.8255
  573MOL0     C77258   9.618   5.577  10.353 -0.0769  0.1187 -0.1414
  573MOL0     C77259   9.745   5.667  10.331  0.3343 -0.8276  0.1963
  573MOL0     C77260   9.883   5.621  10.399 -0.6516 -0.6907  0.3690
  573MOL0     C77261  10.007   5.705  10.345 -0.2828 -1.3601 -0.6976
  573MOL0     C77262  10.135   5.692  10.428 -0.1030 -0.5431 -0.2665
  573MOL0     C77263  10.142   5.747  10.581 -0.9138 -0.4585  0.2471
  573MOL0     C77264  10.144   5.900  10.583 -0.5168  0.2682  0.7455
  573MOL0    Cl77265  10.268   5.977  10.462 -0.0454  0.1371  0.4223
  573MOL0     C77266   9.387   5.902  10.109  0.1873  0.1820 -0.0076
  573MOL0     C77267   9.275   5.971  10.048 -0.5600  0.4287  0.2822
  573MOL0     O77268   9.029   5.861   9.882 -0.0680  0.0449  0.2477
  573MOL0     C77269   8.840   5.983   9.745  0.9336 -0.8978 -0.1630
  573MOL0     C77270   8.736   6.032   9.673 -0.0720 -1.0908  0.5345
  573MOL0     N77271   8.557   6.388   9.009  0.6902  0.0459  0.6641
  573MOL0     N77272   8.589   6.386   8.884 -0.3276  0.6541 -0.5710
  573MOL0     C77273   8.476   6.922   7.940  1.2411  0.9569 -0.1651
  573MOL0     C77274   8.546   7.002   7.852 -0.2044 -0.4650  1.0870
  573MOL0     C77275   8.851   7.319   7.717 -0.0203 -0.5703  0.5204
  573MOL0     C77276   8.757   7.419   7.688  0.2800 -0.1721  0.1388
  573MOL0     C77277   8.797   7.520   7.598 -0.5058 -1.1010  0.0255
  573MOL0     C77278   8.928   7.525   7.554  0.1124  0.1362 -0.3093
  573MOL0     O77279   8.954   7.628   7.469 -0.3645 -0.1624 -0.4189
  573MOL0     C77280   9.011   7.596   7.341 -0.0864 -0.5503  0.0295
  573MOL0     C77281   8.974   7.698   7.234  0.4813 -0.4312 -1.3633
  573MOL0     C77282   8.933   7.834   7.294  0.0789  0.5862 -0.2691
  573MOL0     C77283   8.906   7.946   7.192  0.2660 -0.0793 -1.0754
  573MOL0     C77284   8.900   8.073   7.249  0.0137  0.0128  0.2018
  573MOL0     C77285   8.910   8.175   7.315 -0.0174 -0.5974  0.9804
  573MOL0     C77286   9.015   7.420   7.573  0.0944  0.1304 -0.7061
  573MOL0     C77287   8.974   7.316   7.654 -0.3944  0.4369 -1.1337
  573MOL0     H77288   8.684   7.213   8.093  1.8991 -1.5912 -0.4447
  573MOL0     H77289   8.564   7.069   8.222 -0.6109 -0.1217  0.2519
  573MOL0     H77290   8.383   6.688   8.079  1.5041 -0.6209  0.0532
  573MOL0     H77291   8.541   6.696   8.147  0.7298  0.1810  0.6901
  573MOL0     H77292   8.445   6.731   8.375  2.3432  1.0666 -1.6479
  573MOL0     H77293   8.283   6.701   8.323  0.5777  2.2383 -4.1932
  573MOL0     H77294   8.458   6.480   8.220  4.3438  2.3603  0.9957
  573MOL0     H77295   8.488   6.508   8.390 -1.5534 -3.5702  1.7518
  573MOL0     H77296   8.269   6.450   8.455  2.4901  2.0624  0.0699
  573MOL0     H77297   8.231   6.423   8.275 -1.3509 -3.3854  0.3299
  573MOL0     H77298   8.248   6.229   8.364  0.2686  1.1805  2.3928
  573MOL0     H77299   8.375   6.269   8.244 -2.1597 -2.2730 -1.0201
  573MOL0     H77300   8.442   6.114   8.432  0.3703 -1.0576  1.3885
  573MOL0     H77301   8.537   6.259   8.397 -0.7204  0.2020  0.7935
  573MOL0     H77302   8.359   6.344   8.616 -2.8294 -1.6694  1.6207
  573MOL0     H77303   8.354   6.173   8.627 -0.7032  0.2081  0.2686
  573MOL0     H77304   8.601   6.339   8.642  1.6157 -0.3233 -0.0504
  573MOL0     H77305   8.597   6.166   8.680  0.2437  0.6588 -2.2105
  573MOL0     H77306   8.346   6.167   8.899  0.7407 -0.3779 -0.9095
  573MOL0     H77307   8.390   6.389   9.205  0.9702 -0.3595  1.8304
  573MOL0     H77308   8.298   6.230   9.166  0.1281 -1.8573 -1.1733
  573MOL0     H77309   8.591   6.240   9.238  0.7169 -0.4732  1.7003
  573MOL0     H77310   8.475   6.110   9.237  2.1097  1.4212 -5.4770
  573MOL0     H77311   8.369   6.235   9.458  1.0959 -3.4638  0.1887
  573MOL0     H77312   8.492   6.359   9.435 -1.6708  1.6125 -1.8278
  573MOL0     H77313   8.669   6.216   9.440  0.8150 -0.7483  0.0028
  573MOL0     H77314   8.554   6.081   9.474  2.6070 -1.4861  1.5906
  573MOL0     H77315   8.635   6.268   9.883  4.5054  3.6591  0.6144
  573MOL0     H77316   8.881   6.231  10.092 -0.6406 -0.9102  2.8181
  573MOL0     H77317   8.703   6.230  10.090 -2.6705 -3.7795  2.4017
  573MOL0     H77318   8.793   6.086  10.135  2.1735 -2.5809 -2.8564
  573MOL0     H77319   9.032   5.873  10.265 -1.9643  1.1057 -4.0730
  573MOL0     H77320   9.245   5.758  10.377 -1.5174  2.3272  1.3139
  573MOL0     H77321   9.414   5.568  10.290 -1.8807  1.7714 -1.1198
  573MOL0     H77322   9.531   5.598  10.168 -2.8002  0.6327 -0.3286
  573MOL0     H77323   9.596   5.570  10.460 -2.9787 -3.8691 -0.7546
  573MOL0     H77324   9.639   5.474  10.323 -3.4664 -0.9415  0.7106
  573MOL0     H77325   9.716   5.768  10.361 -2.2585 -1.0682 -1.1546
  573MOL0     H77326   9.757   5.664  10.222  0.3110  0.5809  0.1358
  573MOL0     H77327   9.866   5.639  10.505  1.1712  2.4829  0.2397
  573MOL0     H77328   9.902   5.516  10.374  1.6575 -0.1466 -0.4544
  573MOL0     H77329   9.981   5.811  10.345 -4.0024 -2.0561  2.8808
  573MOL0     H77330  10.016   5.661  10.245  1.2513 -1.1619 -0.6734
  573MOL0     H77331  10.187   5.596  10.426 -0.2740 -1.0220  4.6778
  573MOL0     H77332  10.201   5.754  10.366  0.4507 -0.9672 -0.1182
  573MOL0     H77333  10.237   5.721  10.628 -0.4124  3.7823  2.0146
  573MOL0     H77334  10.060   5.711  10.644 -2.1685  4.0211  1.5594
  573MOL0     H77335  10.177   5.924  10.684  0.9164 -0.5227  0.4937
  573MOL0     H77336  10.047   5.950  10.574  0.3911  1.8186 -1.5181
  573MOL0     H77337   9.484   5.934  10.071 -0.8083  3.7813  0.1523
  573MOL0     H77338   9.288   6.032   9.960 -0.4793 -1.9556 -1.4604
  573MOL0     H77339   8.885   5.904   9.687 -1.4682 -3.9183  1.7321
  573MOL0     H77340   8.710   5.994   9.575  0.6677 -2.3781  0.8228
  573MOL0     H77341   8.435   6.837   7.887  1.2153  0.0955  1.1878
  573MOL0     H77342   8.539   7.000   7.744  4.3154 -0.0494  0.5626
  573MOL0     H77343   8.652   7.433   7.710  0.1992 -0.9519  0.2828
  573MOL0     H77344   8.731   7.602   7.572 -0.0345 -0.1991  1.5466
  573MOL0     H77345   9.119   7.594   7.357 -0.0905  0.5517  0.2380
  573MOL0     H77346   8.970   7.498   7.313 -2.5355  0.8211 -1.5233
  573MOL0     H77347   8.880   7.669   7.188 -3.0783  1.6551  3.7312
  573MOL0     H77348   9.046   7.723   7.155 -0.8044  1.8992 -1.8742
  573MOL0     H77349   9.009   7.862   7.368  0.2141  0.1474 -0.2419
  573MOL0     H77350   8.838   7.813   7.344  0.3936 -1.0424 -0.2960
  573MOL0     H77351   8.821   7.928   7.126 -1.7480  1.4894  0.9331
  573MOL0     H77352   8.995   7.936   7.129  1.7878 -0.1029  0.9808
  573MOL0     H77353   8.920   8.264   7.375  0.0656  0.0893 -0.0260
  573MOL0     H77354   9.115   7.420   7.532 -0.5302 -2.4280 -2.4616
  573MOL0     H77355   9.036   7.228   7.671 -0.5685 -0.0232 -2.7310
  574MOL0     O77356   0.802   9.047   5.227  0.1233 -0.3281  0.0334
  574MOL0     C77357   0.788   9.079   5.111  0.7953  0.7260 -0.4938
  574MOL0     O77358   0.667   9.102   5.064 -0.4823  0.0094  1.1108
  574MOL0     C77359   0.553   9.079   5.136  0.3452  0.2056 -0.1287
  574MOL0     C77360   0.445   9.164   5.134  0.4322 -0.2485 -0.4398
  574MOL0     C77361   0.331   9.156   5.201  0.5256  0.8767 -0.4932
  574MOL0     C77362   0.302   9.040   5.281  0.8239 -1.0221  0.2638
  574MOL0     O77363   0.177   9.025   5.340  0.4542 -0.4510  0.7039
  574MOL0     C77364   0.118   8.887   5.339 -0.5466 -0.6142  0.2911
  574MOL0     C77365   0.078   8.863   5.196 -0.2372 -0.2221  0.5793
  574MOL0     C77366   0.012   8.730   5.159  0.1233 -0.2391 -0.0020
  574MOL0     C77367  -0.135   8.740   5.193  0.2736 -0.2065 -0.1111
  574MOL0     C77368  -0.191   8.609   5.165 -0.7887 -0.2317 -0.6552
  574MOL0     C77369  -0.346   8.626   5.128  1.1324 -0.4881  0.9675
  574MOL0     C77370  -0.396   8.500   5.065  0.3684  0.2687  0.0630
  574MOL0     C77371  -0.554   8.483   5.056  0.2169  0.1772  0.8461
  574MOL0     N77372  -0.601   8.362   4.986 -0.2798 -0.5424 -0.0876
  574MOL0     C77373  -0.608   8.242   5.044 -0.9816  0.0763  0.5667
  574MOL0     C77374  -0.688   8.169   4.961  0.4542  0.3329 -0.4121
  574MOL0     C77375  -0.693   8.025   4.962  0.1586  0.3154 -0.2438
  574MOL0     C77376  -0.560   7.955   4.921  0.7808  0.1455  0.7514
  574MOL0     C77377  -0.525   7.979   4.784  0.3037 -0.4050 -0.5130
  574MOL0     C77378  -0.612   7.922   4.686  0.6228 -0.0788  0.5161
  574MOL0     O77379  -0.536   7.942   4.568 -0.1956 -0.4329 -0.7112
  574MOL0     C77380  -0.605   7.955   4.449  0.1502 -1.4766  1.1276
  574MOL0     C77381  -0.691   7.859   4.402 -0.3336 -0.2543 -0.1423
  574MOL0     C77382  -0.748   7.860   4.280  0.2019 -0.6923 -0.5222
  574MOL0     C77383  -0.833   7.750   4.243 -0.0979  0.5280 -0.4205
  574MOL0     C77384  -0.723   7.971   4.200 -0.9155  0.1643 -0.0176
  574MOL0     C77385  -0.791   8.002   4.073  0.3543 -0.3472 -0.0993
  574MOL0     O77386  -0.928   8.006   4.057  0.6656  0.2155  0.1189
  574MOL0     C77387  -0.999   8.040   4.164  1.0938  0.4727  0.4253
  574MOL0     C77388  -0.963   8.162   4.233  0.1108  0.5441  0.1089
  574MOL0     C77389  -1.039   8.193   4.341  0.3783  0.2020 -0.5263
  574MOL0     C77390  -1.149   8.110   4.381  0.7672 -0.4788 -0.8533
  574MOL0     O77391  -1.229   8.135   4.494 -0.1946 -0.1742  0.2288
  574MOL0     C77392  -1.210   8.262   4.561 -0.2907  0.1244  0.8542
  574MOL0     C77393  -1.329   8.273   4.664 -1.1906  0.3111 -0.0972
  574MOL0     C77394  -1.339   8.152   4.758  0.5095 -0.2518 -0.1748
  574MOL0     C77395  -1.449   8.185   4.862 -0.1949 -0.6401 -0.3678
  574MOL0     C77396  -1.474   8.070   4.964 -0.0713 -0.2863  0.3271
  574MOL0     C77397  -1.538   7.944   4.902 -0.2159 -0.0106 -0.1050
  574MOL0     C77398  -1.564   7.841   5.006  0.2467  0.0844  0.2612
  574MOL0     C77399  -1.645   7.732   4.952 -0.3374  0.9264  0.5185
  574MOL0    Cl77400  -1.629   7.601   5.071  0.2163 -0.2163 -0.0220
  574MOL0     C77401  -1.178   7.984   4.312 -0.0601  0.6636  0.2621
  574MOL0     C77402  -1.103   7.966   4.200  1.2434 -0.0707  0.0924
  574MOL0     O77403  -0.715   8.021   3.986 -0.5272 -0.1063  0.8794
  574MOL0     C77404  -0.633   8.079   4.242  0.0489  0.2118 -0.7974
  574MOL0     C77405  -0.578   8.069   4.369 -0.1252  1.0719  0.7142
  574MOL0     N77406  -0.741   8.252   4.862  0.3297 -1.0261  0.1503
  574MOL0     N77407  -0.678   8.365   4.873  0.1321 -0.4284 -0.4060
  574MOL0     C77408   0.408   8.941   5.287  0.8141  0.5998  0.9058
  574MOL0     C77409   0.534   8.968   5.228  0.0668  0.7586  0.9244
  574MOL0     C77410   0.901   9.118   5.034  0.1585 -0.6506 -0.1255
  574MOL0     C77411   1.027   9.108   5.092  0.0232 -0.2431 -1.5549
  574MOL0     C77412   1.145   9.126   5.022 -0.3450  0.6103  1.1916
  574MOL0     C77413   1.156   9.139   4.884  0.7912  1.2770 -0.0651
  574MOL0     O77414   1.281   9.147   4.830 -0.7798 -0.0756 -0.2256
  574MOL0     C77415   1.304   9.162   4.692  0.1841  0.3374 -1.0387
  574MOL0     C77416   1.292   9.307   4.640 -0.2746 -0.5075 -0.2399
  574MOL0     C77417   1.381   9.406   4.722 -0.6145 -0.5515 -0.2148
  574MOL0     C77418   1.381   9.548   4.650  1.0997 -0.5684  0.3401
  574MOL0     C77419   1.272   9.639   4.681 -0.5793  0.2825 -0.1970
  574MOL0     C77420   1.194   9.715   4.727  0.5707 -0.1858 -0.9278
  574MOL0     C77421   1.032   9.135   4.819 -0.3781  0.2542  0.5175
  574MOL0     C77422   0.916   9.143   4.892  0.6610 -0.2336  0.0561
  574MOL0     H77423   0.461   9.254   5.075 -2.8821 -0.3387 -1.7138
  574MOL0     H77424   0.253   9.230   5.184 -1.3546 -0.6844  0.9431
  574MOL0     H77425   0.178   8.805   5.379 -0.5979 -0.3195  0.9805
  574MOL0     H77426   0.025   8.884   5.397 -0.2813  0.9464  0.8464
  574MOL0     H77427   0.009   8.946   5.175 -2.9046 -1.3069  4.1799
  574MOL0     H77428   0.161   8.858   5.125 -0.4926 -0.7202  0.3096
  574MOL0     H77429   0.036   8.695   5.058  0.6982  0.6435 -0.1848
  574MOL0     H77430   0.052   8.655   5.228  0.6575  1.6042  1.7940
  574MOL0     H77431  -0.156   8.766   5.297 -2.1912  1.0057 -0.8487
  574MOL0     H77432  -0.173   8.814   5.122 -0.2045  0.0306  0.3787
  574MOL0     H77433  -0.154   8.552   5.079 -1.7795 -2.5743  0.4003
  574MOL0     H77434  -0.182   8.544   5.252 -2.1481  0.2734 -0.1029
  574MOL0     H77435  -0.410   8.650   5.213  1.7957  2.4781  0.7701
  574MOL0     H77436  -0.370   8.708   5.059 -1.0417 -0.2007  1.9986
  574MOL0     H77437  -0.359   8.486   4.963  0.3580  0.7077  0.0002
  574MOL0     H77438  -0.370   8.415   5.129 -0.1670 -1.0248 -1.3640
  574MOL0     H77439  -0.586   8.566   4.993  3.4758  1.5490  0.8204
  574MOL0     H77440  -0.592   8.478   5.158  0.1516  1.3093  0.8881
  574MOL0     H77441  -0.563   8.210   5.137 -0.2767  2.0194  0.9444
  574MOL0     H77442  -0.712   7.980   5.060  1.0353 -0.6151 -0.4884
  574MOL0     H77443  -0.769   7.994   4.890 -0.9887  0.4616  0.8672
  574MOL0     H77444  -0.560   7.849   4.949  2.3037  0.0471  0.4615
  574MOL0     H77445  -0.490   8.007   4.987  3.0899  2.0989 -2.9135
  574MOL0     H77446  -0.421   7.947   4.775  0.5523  0.7271 -2.0628
  574MOL0     H77447  -0.517   8.087   4.774 -2.5431  0.0652  1.3103
  574MOL0     H77448  -0.700   7.985   4.667  2.1110  1.3511 -2.5467
  574MOL0     H77449  -0.638   7.820   4.715 -1.4604  0.1535 -0.3220
  574MOL0     H77450  -0.700   7.775   4.470 -3.3361 -0.9869 -1.2781
  574MOL0     H77451  -0.923   7.749   4.306  1.7908 -1.0086  2.4929
  574MOL0     H77452  -0.860   7.740   4.138 -1.7917  3.4290 -0.3648
  574MOL0     H77453  -0.783   7.660   4.279  0.9753  1.8359  1.5240
  574MOL0     H77454  -0.881   8.226   4.203 -0.3328  1.7703  1.3874
  574MOL0     H77455  -1.011   8.280   4.399  0.1214  0.8117 -1.3026
  574MOL0     H77456  -1.116   8.247   4.615  0.2377  1.0562  0.2203
  574MOL0     H77457  -1.212   8.345   4.491  0.7140 -1.4374 -1.1292
  574MOL0     H77458  -1.301   8.359   4.724  0.6906 -0.8412  0.7518
  574MOL0     H77459  -1.420   8.302   4.609  0.6872  1.5528 -2.8043
  574MOL0     H77460  -1.246   8.146   4.815 -0.6369 -0.2247  1.7482
  574MOL0     H77461  -1.369   8.061   4.704 -2.5048  1.3260 -1.4154
  574MOL0     H77462  -1.419   8.273   4.920 -0.9905  1.8688 -3.4522
  574MOL0     H77463  -1.546   8.211   4.819 -1.9398 -0.3449  3.3575
  574MOL0     H77464  -1.534   8.099   5.051  1.7613 -0.9629  1.8869
  574MOL0     H77465  -1.383   8.032   5.010 -0.3211 -3.1096 -1.2608
  574MOL0     H77466  -1.634   7.978   4.861 -0.3681  2.1029  1.7975
  574MOL0     H77467  -1.477   7.903   4.821 -1.0960  0.8562 -1.2529
  574MOL0     H77468  -1.605   7.891   5.094  2.8341  0.5575  1.2652
  574MOL0     H77469  -1.470   7.798   5.040 -0.2238  0.0110  1.5305
  574MOL0     H77470  -1.601   7.699   4.857 -2.1732  2.8693 -1.1270
  574MOL0     H77471  -1.751   7.756   4.939 -0.9125 -1.5297  0.0737
  574MOL0     H77472  -1.262   7.918   4.333  0.0641  0.2996 -0.3433
  574MOL0     H77473  -1.121   7.890   4.125  0.1824 -1.5429  1.7632
  574MOL0     H77474  -0.619   8.173   4.190  2.7855  0.3065 -0.0256
  574MOL0     H77475  -0.504   8.139   4.406 -1.2490 -0.4034  6.9452
  574MOL0     H77476   0.392   8.852   5.348 -0.0581  0.8324  1.0334
  574MOL0     H77477   0.617   8.900   5.244 -0.6196 -0.5013 -0.6174
  574MOL0     H77478   1.042   9.081   5.196 -0.8882 -0.1312 -1.3897
  574MOL0     H77479   1.242   9.115   5.070 -0.1711 -0.7457  0.5774
  574MOL0     H77480   1.411   9.156   4.674  0.8135  1.5115  1.7206
  574MOL0     H77481   1.245   9.086   4.640 -1.2569  1.2075 -0.7469
  574MOL0     H77482   1.191   9.346   4.657 -0.2580 -0.1868 -0.8433
  574MOL0     H77483   1.329   9.310   4.536 -1.4986 -0.5170 -0.6891
  574MOL0     H77484   1.485   9.372   4.727  0.8208  3.3953  1.2907
  574MOL0     H77485   1.351   9.410   4.827 -3.4100 -0.3483 -0.9457
  574MOL0     H77486   1.376   9.534   4.542 -0.7124  0.3316  0.2727
  574MOL0     H77487   1.472   9.601   4.679 -0.4587  1.5234  1.7213
  574MOL0     H77488   1.128   9.773   4.788 -1.5646  0.7397 -3.9108
  574MOL0     H77489   1.017   9.140   4.712  0.6222 -1.0944  0.2816
  574MOL0     H77490   0.824   9.140   4.835 -2.1932 -2.0419  4.1918
  575MOL0     O77491   8.255   4.142   9.175  0.1580  0.3594 -0.1345
  575MOL0     C77492   8.257   4.258   9.211 -0.1867  0.0079  0.1203
  575MOL0     O77493   8.144   4.321   9.260 -0.7218 -0.2417 -0.1679
  575MOL0     C77494   8.013   4.275   9.240  0.3935 -0.6150  0.0567
  575MOL0     C77495   7.966   4.167   9.163 -0.5820 -0.4422 -0.7672
  575MOL0     C77496   7.829   4.126   9.164  0.1859 -0.2916 -0.4296
  575MOL0     C77497   7.730   4.205   9.234 -0.2564  0.5060 -0.1921
  575MOL0     O77498   7.592   4.168   9.214 -0.1377  0.5275  0.0903
  575MOL0     C77499   7.493   4.267   9.250 -0.1339  0.7625 -1.5221
  575MOL0     C77500   7.438   4.265   9.404 -0.1022  0.2603  0.5372
  575MOL0     C77501   7.341   4.388   9.419 -0.1323 -0.4715 -0.9233
  575MOL0     C77502   7.231   4.359   9.518  0.5272  0.2276  0.6989
  575MOL0     C77503   7.120   4.465   9.548 -0.5609  0.2256 -0.5418
  575MOL0     C77504   7.180   4.603   9.579  0.0152 -0.2633  0.8538
  575MOL0     C77505   7.081   4.712   9.628  0.4088 -0.4868  0.3377
  575MOL0     C77506   7.113   4.759   9.762  0.2486 -0.1281 -0.7325
  575MOL0     N77507   7.022   4.860   9.807  0.3130  0.3250 -0.1033
  575MOL0     C77508   7.056   4.985   9.839  0.0073  0.4964 -0.2532
  575MOL0     C77509   6.936   5.031   9.882  0.8370 -0.1838 -0.8803
  575MOL0     C77510   6.938   5.169   9.931 -0.3432  0.7907 -0.5432
  575MOL0     C77511   7.007   5.168  10.072 -0.5181 -0.0664 -0.7558
  575MOL0     C77512   7.041   5.317  10.116  0.4239  0.1939  0.0171
  575MOL0     C77513   7.101   5.344  10.251 -0.3946  0.1292  0.8281
  575MOL0     O77514   7.202   5.255  10.271 -0.4933 -0.2623 -0.2202
  575MOL0     C77515   7.273   5.247  10.383 -0.0475  0.0447 -0.1399
  575MOL0     C77516   7.260   5.344  10.483  0.5709  0.6773  0.3153
  575MOL0     C77517   7.350   5.348  10.587  0.9707 -0.8878 -0.3579
  575MOL0     C77518   7.322   5.454  10.697 -0.3725 -0.5545  0.4304
  575MOL0     C77519   7.444   5.242  10.606  0.0197 -0.0764 -1.1076
  575MOL0     C77520   7.541   5.239  10.715 -0.4564  1.3553 -0.4087
  575MOL0     O77521   7.623   5.135  10.711 -0.3055  0.1690  0.1066
  575MOL0     C77522   7.705   5.118  10.817  0.0644 -0.7121 -0.3048
  575MOL0     C77523   7.826   5.188  10.822  0.3577  0.4523  0.5725
  575MOL0     C77524   7.903   5.177  10.934 -0.5204  0.4115 -0.7005
  575MOL0     C77525   7.866   5.100  11.042 -0.3889 -0.6029  0.7039
  575MOL0     O77526   7.943   5.087  11.155 -0.0679 -0.2778  0.1696
  575MOL0     C77527   8.083   5.059  11.141 -0.0636 -0.0802 -0.5405
  575MOL0     C77528   8.131   4.982  11.262  0.6479 -0.3580  0.6662
  575MOL0     C77529   8.155   5.079  11.384  0.4132 -0.2096  0.6659
  575MOL0     C77530   8.297   5.131  11.380  0.8267 -0.2537  0.3589
  575MOL0     C77531   8.323   5.223  11.492  1.1098  0.5203 -0.8050
  575MOL0     C77532   8.328   5.143  11.624  0.1448 -0.3713  0.2039
  575MOL0     C77533   8.358   5.241  11.736 -0.0104 -0.3990 -0.5856
  575MOL0     C77534   8.390   5.167  11.873  0.4606  0.5471 -0.5595
  575MOL0    Cl77535   8.471   5.290  11.973  0.1183  0.3798  0.2731
  575MOL0     C77536   7.762   5.022  11.027 -0.1686  0.3002 -0.0332
  575MOL0     C77537   7.673   5.026  10.919  0.2348 -0.9627 -0.3519
  575MOL0     O77538   7.553   5.330  10.793 -0.4752 -0.5391 -0.6555
  575MOL0     C77539   7.463   5.145  10.501  0.1555  0.4633 -0.5459
  575MOL0     C77540   7.377   5.151  10.393  0.8587 -0.5581 -0.2282
  575MOL0     N77541   6.830   4.937   9.879  0.8176 -0.5591  0.2797
  575MOL0     N77542   6.885   4.834   9.834 -0.4840  0.3113 -0.2775
  575MOL0     C77543   7.782   4.306   9.321  0.0324  0.4739  0.1128
  575MOL0     C77544   7.912   4.340   9.323  0.1790 -0.3875 -0.1451
  575MOL0     C77545   8.393   4.312   9.254  0.2436 -0.2102  0.3089
  575MOL0     C77546   8.504   4.242   9.230 -1.1007  0.8294  0.1025
  575MOL0     C77547   8.631   4.290   9.253 -0.3041 -1.3135 -0.1744
  575MOL0     C77548   8.650   4.424   9.308 -0.9722  0.0473  0.4814
  575MOL0     O77549   8.783   4.462   9.337 -0.3362  0.1898  0.0383
  575MOL0     C77550   8.793   4.576   9.437 -0.4985  0.1139  0.9517
  575MOL0     C77551   8.851   4.699   9.363 -0.5494  0.0590 -0.8644
  575MOL0     C77552   8.749   4.792   9.296  0.2822 -0.1706  0.3095
  575MOL0     C77553   8.819   4.906   9.211 -0.6598  0.0467 -0.5761
  575MOL0     C77554   8.712   4.951   9.120  0.4655 -0.5431 -1.1614
  575MOL0     C77555   8.622   4.988   9.047 -0.1309  0.1707 -0.4639
  575MOL0     C77556   8.529   4.492   9.347 -0.6126  0.7241  0.2877
  575MOL0     C77557   8.399   4.440   9.318  0.8799 -0.0178 -0.8562
  575MOL0     H77558   8.035   4.112   9.100  0.4029 -1.1428  0.8418
  575MOL0     H77559   7.792   4.062   9.084 -0.9252 -0.9602  0.5867
  575MOL0     H77560   7.540   4.360   9.220 -1.5980  1.4304 -1.8190
  575MOL0     H77561   7.407   4.264   9.182  1.0339  1.0855 -3.0766
  575MOL0     H77562   7.401   4.165   9.428  2.3133 -1.4256 -2.0849
  575MOL0     H77563   7.522   4.275   9.474 -0.0718 -2.3297  0.9533
  575MOL0     H77564   7.396   4.476   9.454  0.7779 -1.2963 -0.2202
  575MOL0     H77565   7.307   4.410   9.318  2.2585 -0.8310 -1.8743
  575MOL0     H77566   7.181   4.269   9.482  0.9007  0.9356 -1.7178
  575MOL0     H77567   7.280   4.334   9.613  1.9998  1.0506  0.1823
  575MOL0     H77568   7.068   4.489   9.455  0.7178 -1.9390 -1.8955
  575MOL0     H77569   7.057   4.436   9.632 -1.7860  0.4280 -1.3619
  575MOL0     H77570   7.263   4.601   9.651  0.9697 -0.1884 -0.2182
  575MOL0     H77571   7.236   4.639   9.493  0.2675 -0.0086  1.1224
  575MOL0     H77572   7.077   4.801   9.564  0.1479 -0.2591  0.6662
  575MOL0     H77573   6.977   4.677   9.628 -0.1342  1.0319 -0.3717
  575MOL0     H77574   7.213   4.804   9.768  1.9158 -2.3194 -6.0860
  575MOL0     H77575   7.104   4.675   9.832  2.6398 -0.0571 -0.2491
  575MOL0     H77576   7.154   5.026   9.818  0.4439 -1.2218 -1.7879
  575MOL0     H77577   6.988   5.240   9.865  0.2841 -1.1749 -2.2897
  575MOL0     H77578   6.834   5.202   9.942 -1.5391 -2.7575 -0.0388
  575MOL0     H77579   7.094   5.102  10.070  0.8415  1.5557  0.8366
  575MOL0     H77580   6.945   5.121  10.149  2.0506 -2.2254  0.1847
  575MOL0     H77581   6.943   5.364  10.132 -0.0431 -0.5943 -0.4603
  575MOL0     H77582   7.111   5.371  10.051 -1.2833  7.0618  2.9518
  575MOL0     H77583   7.024   5.333  10.328 -4.5091 -1.4526 -3.0730
  575MOL0     H77584   7.122   5.452  10.249  2.4244 -0.3319  0.9277
  575MOL0     H77585   7.213   5.441  10.477  0.8407  0.7944  0.0449
  575MOL0     H77586   7.232   5.516  10.691  0.5747  0.7346 -1.4885
  575MOL0     H77587   7.309   5.402  10.792  1.0606 -1.3276  0.2371
  575MOL0     H77588   7.412   5.515  10.709  0.3743 -1.7653  1.2321
  575MOL0     H77589   7.847   5.253  10.738  3.0172 -0.5330  0.3857
  575MOL0     H77590   7.987   5.246  10.934  1.5502 -1.9719 -0.9231
  575MOL0     H77591   8.097   4.987  11.061 -1.2160 -2.7567  1.5256
  575MOL0     H77592   8.144   5.150  11.136 -0.4396  0.1869 -0.3858
  575MOL0     H77593   8.061   4.904  11.294 -0.1079 -0.0124 -0.1117
  575MOL0     H77594   8.228   4.941  11.231  0.5548 -0.7361  0.8635
  575MOL0     H77595   8.125   5.032  11.478 -0.3268 -0.2780  0.4072
  575MOL0     H77596   8.097   5.172  11.373 -2.2888 -1.8797 -0.1725
  575MOL0     H77597   8.369   5.048  11.373 -1.5412 -2.3260 -1.3904
  575MOL0     H77598   8.305   5.193  11.291  2.5334 -1.4665 -0.3996
  575MOL0     H77599   8.236   5.286  11.513  0.8201 -0.8196  2.7021
  575MOL0     H77600   8.409   5.290  11.480 -0.0284  3.3397  3.9447
  575MOL0     H77601   8.231   5.099  11.648 -0.3061 -0.2677 -1.3582
  575MOL0     H77602   8.406   5.067  11.635 -1.7715 -2.2147  1.9445
  575MOL0     H77603   8.266   5.300  11.744  1.8676  2.7850 -0.8315
  575MOL0     H77604   8.442   5.302  11.701  0.3802 -1.5869 -1.7856
  575MOL0     H77605   8.449   5.075  11.869 -0.2301  0.0974 -0.5702
  575MOL0     H77606   8.293   5.141  11.917  0.2992 -0.3969 -1.4148
  575MOL0     H77607   7.737   4.961  11.113  2.2191  1.3331  1.4828
  575MOL0     H77608   7.584   4.963  10.919  1.2735 -2.5582  1.2764
  575MOL0     H77609   7.539   5.067  10.496 -0.8360 -0.4672 -1.4260
  575MOL0     H77610   7.381   5.083  10.309 -1.7367 -3.4847  1.8178
  575MOL0     H77611   7.712   4.350   9.391  1.0241  1.4781  0.5024
  575MOL0     H77612   7.959   4.412   9.389  0.2259  2.0162 -2.6317
  575MOL0     H77613   8.507   4.141   9.189  1.3682  0.2137  1.5912
  575MOL0     H77614   8.720   4.232   9.232  1.5824  1.9600 -2.1527
  575MOL0     H77615   8.704   4.610   9.490 -0.7058  1.5463 -0.2561
  575MOL0     H77616   8.861   4.547   9.517 -0.9892 -0.5155  1.1494
  575MOL0     H77617   8.934   4.671   9.298  0.8628  0.4634  0.6872
  575MOL0     H77618   8.904   4.759   9.438 -1.0155  3.9208 -3.3757
  575MOL0     H77619   8.665   4.832   9.354 -0.3489 -1.0288  0.0157
  575MOL0     H77620   8.699   4.721   9.229 -0.5359  0.7572 -0.1011
  575MOL0     H77621   8.902   4.862   9.155  1.8832  1.5194  1.7974
  575MOL0     H77622   8.859   4.986   9.274  2.4749 -0.9718 -1.0967
  575MOL0     H77623   8.538   5.021   8.990 -2.2556 -4.1468 -0.1969
  575MOL0     H77624   8.527   4.593   9.386  2.1033  1.7515 -1.8773
  575MOL0     H77625   8.315   4.508   9.334  0.1864  0.0158 -4.0000
  576MOL0     O77626   1.193   5.561   4.970  0.0469 -0.5764  0.7794
  576MOL0     C77627   1.229   5.500   4.869  0.2732 -0.0892  0.0968
  576MOL0     O77628   1.217   5.359   4.842 -0.5449  0.1548  0.8063
  576MOL0     C77629   1.188   5.287   4.950 -0.1633  1.2720 -0.4009
  576MOL0     C77630   1.059   5.292   5.016 -0.1289  0.7920 -0.9467
  576MOL0     C77631   1.027   5.198   5.106 -0.6010  0.6670 -0.1488
  576MOL0     C77632   1.122   5.096   5.136 -1.2945  0.1038  0.4475
  576MOL0     O77633   1.068   5.001   5.220  0.9190  1.3624 -0.2727
  576MOL0     C77634   1.165   4.896   5.249  0.1002 -0.4653  0.5392
  576MOL0     C77635   1.102   4.810   5.352  0.8725 -0.3484 -0.2049
  576MOL0     C77636   1.202   4.725   5.435  0.8149  0.1858 -0.3725
  576MOL0     C77637   1.268   4.789   5.559  0.7683  0.0421 -0.0802
  576MOL0     C77638   1.345   4.693   5.649  0.1912 -0.4539 -0.1303
  576MOL0     C77639   1.258   4.603   5.724 -0.0994  0.2809  0.6058
  576MOL0     C77640   1.345   4.512   5.813 -0.0133  1.2295  0.3826
  576MOL0     C77641   1.257   4.406   5.885 -0.1662 -0.0693 -0.6482
  576MOL0     N77642   1.334   4.323   5.986  0.7285 -0.1719  0.5534
  576MOL0     C77643   1.428   4.224   5.947  0.1235 -1.3412 -0.6643
  576MOL0     C77644   1.479   4.190   6.065 -0.0416  1.8138  0.7978
  576MOL0     C77645   1.591   4.093   6.071 -0.3516 -0.0419 -0.1469
  576MOL0     C77646   1.552   3.947   6.098  1.2928  0.9186 -0.6868
  576MOL0     C77647   1.638   3.832   6.043 -1.0956 -0.1054 -0.7437
  576MOL0     C77648   1.632   3.711   6.138  0.4688 -0.4211 -0.1704
  576MOL0     O77649   1.706   3.610   6.071 -0.6731 -0.8969 -0.5092
  576MOL0     C77650   1.676   3.481   6.113  0.3585 -0.4716  0.0737
  576MOL0     C77651   1.741   3.380   6.044  0.5898  0.6200  0.1564
  576MOL0     C77652   1.729   3.247   6.084 -0.0040  0.4587 -0.8998
  576MOL0     C77653   1.800   3.133   6.004 -0.3151 -0.2586  0.5592
  576MOL0     C77654   1.664   3.204   6.203 -0.1193 -0.2068 -0.4010
  576MOL0     C77655   1.671   3.074   6.273 -0.5965 -0.2978  0.1247
  576MOL0     O77656   1.790   3.003   6.283  0.4653  0.2065 -0.5884
  576MOL0     C77657   1.785   2.881   6.338 -0.6461 -0.2986  0.6399
  576MOL0     C77658   1.794   2.760   6.267 -0.4808 -0.0548 -0.4593
  576MOL0     C77659   1.804   2.636   6.336 -0.1948 -0.6592 -0.5160
  576MOL0     C77660   1.812   2.635   6.476 -0.6322 -0.3073 -0.1693
  576MOL0     O77661   1.833   2.531   6.562 -0.5254 -0.3606  0.0852
  576MOL0     C77662   1.913   2.426   6.501  0.6546  0.3052  0.3191
  576MOL0     C77663   1.946   2.299   6.593  0.8440 -0.5033 -0.6645
  576MOL0     C77664   1.821   2.221   6.628  0.2426  0.4969 -0.3904
  576MOL0     C77665   1.839   2.082   6.566  0.1085 -0.4337  0.5290
  576MOL0     C77666   1.726   1.974   6.596  0.7071  0.3691  0.0634
  576MOL0     C77667   1.731   1.884   6.723 -0.0390 -1.1391 -0.0030
  576MOL0     C77668   1.623   1.768   6.702  0.0628 -0.2922  0.4371
  576MOL0     C77669   1.687   1.628   6.681 -0.4713  0.2290  0.4766
  576MOL0    Cl77670   1.791   1.613   6.534  0.3030  0.1860  0.3125
  576MOL0     C77671   1.805   2.754   6.552 -0.8658  0.2777 -0.1569
  576MOL0     C77672   1.779   2.876   6.480 -0.8478  1.0295 -0.3550
  576MOL0     O77673   1.560   3.031   6.318 -0.3180  0.0623 -0.1375
  576MOL0     C77674   1.596   3.307   6.275 -0.2770  0.4069 -0.3894
  576MOL0     C77675   1.601   3.432   6.219  1.2004 -0.1142 -0.4212
  576MOL0     N77676   1.425   4.262   6.176  0.2375  0.6382 -0.2085
  576MOL0     N77677   1.333   4.343   6.123  0.3097  0.4684  0.1823
  576MOL0     C77678   1.249   5.088   5.070  0.4050 -0.4662 -0.3082
  576MOL0     C77679   1.284   5.184   4.971  0.2567  0.8436 -0.8487
  576MOL0     C77680   1.270   5.582   4.750 -0.2039  0.2051  0.2167
  576MOL0     C77681   1.367   5.531   4.660 -0.2168  0.3097  0.3590
  576MOL0     C77682   1.421   5.614   4.556  0.2434 -0.5913 -0.5001
  576MOL0     C77683   1.361   5.736   4.535  0.4351 -0.0385  0.9825
  576MOL0     O77684   1.391   5.830   4.434  0.0332  0.1239 -0.1135
  576MOL0     C77685   1.494   5.803   4.337  0.9268  0.5463 -0.2904
  576MOL0     C77686   1.473   5.904   4.220 -0.0171 -0.7311  0.1025
  576MOL0     C77687   1.568   5.868   4.100 -0.5151 -0.2369 -0.4483
  576MOL0     C77688   1.551   5.964   3.976 -0.0420  1.1179 -0.1211
  576MOL0     C77689   1.671   5.944   3.894  0.9211 -0.4534  0.2092
  576MOL0     C77690   1.764   5.938   3.819 -0.4023  0.3992 -0.3414
  576MOL0     C77691   1.262   5.780   4.623  0.7700  0.1025 -0.1358
  576MOL0     C77692   1.218   5.711   4.729 -0.0281  0.2589  0.7013
  576MOL0     H77693   0.985   5.356   4.969 -1.7045 -0.6292 -0.4709
  576MOL0     H77694   0.927   5.181   5.142  0.4758 -2.6073  1.6931
  576MOL0     H77695   1.205   4.845   5.160  0.1866 -0.6859  0.7038
  576MOL0     H77696   1.248   4.935   5.309  1.0089  0.9721 -1.5294
  576MOL0     H77697   1.040   4.872   5.417  0.3945 -0.5398 -0.4732
  576MOL0     H77698   1.028   4.755   5.294 -0.2066  1.1787 -0.3290
  576MOL0     H77699   1.147   4.638   5.471 -0.2562 -0.2296 -2.8045
  576MOL0     H77700   1.279   4.682   5.370 -0.1330  0.6139 -1.8187
  576MOL0     H77701   1.338   4.868   5.534  0.8172 -0.4467 -1.6102
  576MOL0     H77702   1.193   4.841   5.619  0.9842  0.9712 -0.6065
  576MOL0     H77703   1.419   4.642   5.587  3.1881  2.2461  0.9579
  576MOL0     H77704   1.402   4.747   5.725 -2.1792 -1.9370  2.9328
  576MOL0     H77705   1.175   4.654   5.775  0.1352  0.9759  0.3092
  576MOL0     H77706   1.202   4.533   5.662  0.1884  1.5656 -1.1923
  576MOL0     H77707   1.426   4.463   5.758 -1.2810 -0.5549 -0.0026
  576MOL0     H77708   1.388   4.576   5.891 -1.7144  1.0191  1.5436
  576MOL0     H77709   1.223   4.341   5.803 -0.9156 -0.4344 -0.0586
  576MOL0     H77710   1.169   4.457   5.924 -1.4969 -1.5035 -1.6511
  576MOL0     H77711   1.451   4.201   5.844 -0.2474  0.0573 -1.0867
  576MOL0     H77712   1.647   4.093   5.976 -2.1128 -2.3094 -1.2771
  576MOL0     H77713   1.669   4.120   6.143  1.2174 -0.0547 -1.7584
  576MOL0     H77714   1.460   3.928   6.041  2.0163  1.0015 -1.9204
  576MOL0     H77715   1.553   3.934   6.207  0.5988  1.8877 -0.5565
  576MOL0     H77716   1.743   3.861   6.041 -0.8510 -0.9809 -1.2718
  576MOL0     H77717   1.597   3.801   5.946 -2.1782 -1.6535  0.1523
  576MOL0     H77718   1.527   3.681   6.145  1.0498 -2.3650  0.6575
  576MOL0     H77719   1.672   3.735   6.237  0.5083  1.8412 -0.6772
  576MOL0     H77720   1.805   3.412   5.963 -0.9051  2.4815 -0.3628
  576MOL0     H77721   1.731   3.049   5.995  0.3913 -0.7473 -0.6252
  576MOL0     H77722   1.813   3.154   5.897  2.1356  2.3575  1.2355
  576MOL0     H77723   1.895   3.102   6.049  1.6767  0.4067 -2.7749
  576MOL0     H77724   1.791   2.772   6.159  0.2805 -2.0946 -0.7361
  576MOL0     H77725   1.813   2.546   6.276 -1.5471 -1.0848 -0.1349
  576MOL0     H77726   1.869   2.378   6.413 -0.8523  0.6839  0.8457
  576MOL0     H77727   2.009   2.472   6.476  0.0261  0.7989 -1.2435
  576MOL0     H77728   2.026   2.253   6.533  2.1813  2.9129 -1.7623
  576MOL0     H77729   2.000   2.326   6.684 -1.9171 -2.8346  1.8534
  576MOL0     H77730   1.730   2.264   6.585  0.0723 -0.1519 -0.7069
  576MOL0     H77731   1.815   2.202   6.735 -1.6651 -3.7089 -1.0137
  576MOL0     H77732   1.843   2.083   6.457  1.3737 -2.9079  0.5069
  576MOL0     H77733   1.923   2.030   6.613  1.2541  0.4692 -0.4547
  576MOL0     H77734   1.725   1.899   6.517  0.9748  0.4076  0.0237
  576MOL0     H77735   1.631   2.028   6.602  1.0583  1.4963 -2.8307
  576MOL0     H77736   1.834   1.851   6.740  0.3652 -0.5599 -1.1830
  576MOL0     H77737   1.708   1.947   6.809 -2.4646 -0.3164 -1.1671
  576MOL0     H77738   1.560   1.795   6.617  0.1934 -2.2645 -0.3282
  576MOL0     H77739   1.568   1.766   6.796 -0.0229  0.4922  0.4084
  576MOL0     H77740   1.608   1.553   6.686 -0.8266  0.6752  1.8920
  576MOL0     H77741   1.754   1.607   6.765 -1.9139 -1.0444  1.3489
  576MOL0     H77742   1.823   2.768   6.658 -0.5569 -0.8038 -0.0560
  576MOL0     H77743   1.785   2.968   6.536 -0.7651  0.6683  0.2403
  576MOL0     H77744   1.556   3.289   6.374  0.4487  0.2444 -0.1223
  576MOL0     H77745   1.556   3.512   6.278  1.7579 -0.7394  0.8941
  576MOL0     H77746   1.319   5.008   5.090  0.9641  0.0830 -0.0040
  576MOL0     H77747   1.379   5.194   4.918  1.8276  0.7223  1.7702
  576MOL0     H77748   1.430   5.444   4.678  1.4631  0.9746 -1.7940
  576MOL0     H77749   1.508   5.585   4.498  1.4100 -1.1134  1.4620
  576MOL0     H77750   1.593   5.821   4.379  0.5829 -1.1858  1.4089
  576MOL0     H77751   1.500   5.703   4.293 -0.5398 -0.3983  1.4864
  576MOL0     H77752   1.498   6.004   4.258 -0.3033  0.1230 -1.8105
  576MOL0     H77753   1.367   5.903   4.193 -0.4890 -0.5321  1.8269
  576MOL0     H77754   1.553   5.763   4.070 -1.1919 -0.7230  1.4362
  576MOL0     H77755   1.672   5.879   4.132 -1.1178 -1.1617  2.0728
  576MOL0     H77756   1.566   6.061   4.024  0.5902  0.8324  0.2671
  576MOL0     H77757   1.453   5.964   3.927 -0.6377 -1.0785  0.9434
  576MOL0     H77758   1.851   5.906   3.765 -0.7448 -3.1158  0.9405
  576MOL0     H77759   1.225   5.881   4.604  1.3759  0.3352 -0.0981
  576MOL0     H77760   1.145   5.755   4.795 -1.1160 -2.8899  1.7854
  577MOL0     O77761   9.273   7.632   5.241  1.0689 -0.1855 -0.9323
  577MOL0     C77762   9.202   7.549   5.184  0.1185 -0.4104  0.8466
  577MOL0     O77763   9.141   7.577   5.069 -0.2973 -0.1204 -0.1736
  577MOL0     C77764   9.101   7.705   5.023 -0.7718 -0.2166 -0.2034
  577MOL0     C77765   9.067   7.712   4.891  0.6110  0.2933 -0.0495
  577MOL0     C77766   9.022   7.832   4.830 -1.1647  0.1197  0.1113
  577MOL0     C77767   9.010   7.949   4.904  0.2583 -0.1924  1.0686
  577MOL0     O77768   8.958   8.064   4.851 -0.8822  0.8791 -0.4171
  577MOL0     C77769   8.892   8.088   4.735  0.1524 -0.3714  0.3211
  577MOL0     C77770   8.803   8.209   4.751 -1.0369 -0.3490 -0.1191
  577MOL0     C77771   8.689   8.223   4.863 -0.9800  0.0195  0.1697
  577MOL0     C77772   8.659   8.374   4.879  1.4615  0.4082  0.0248
  577MOL0     C77773   8.648   8.422   5.020  0.1055  1.2351 -0.1887
  577MOL0     C77774   8.631   8.577   5.033  0.2060 -0.5645 -0.2848
  577MOL0     C77775   8.594   8.610   5.174  0.1496  0.6814  0.2640
  577MOL0     C77776   8.579   8.759   5.194 -0.1300 -0.3593 -0.3129
  577MOL0     N77777   8.598   8.782   5.342 -0.3008  0.3386 -0.7138
  577MOL0     C77778   8.529   8.724   5.450 -0.3840 -0.7880 -0.1833
  577MOL0     C77779   8.574   8.801   5.552 -0.2143 -0.4122  0.0883
  577MOL0     C77780   8.526   8.814   5.705 -0.5466  0.2984  0.7050
  577MOL0     C77781   8.418   8.711   5.753  0.1972  0.8741 -0.5636
  577MOL0     C77782   8.377   8.726   5.903 -0.0554 -0.0268 -0.5806
  577MOL0     C77783   8.264   8.642   5.958 -0.3828 -0.0526  0.8222
  577MOL0     O77784   8.309   8.509   5.948 -0.1882  0.4902 -0.3709
  577MOL0     C77785   8.221   8.436   5.867  0.7256  0.7655  0.4174
  577MOL0     C77786   8.102   8.384   5.917  0.5712 -0.8358 -0.6171
  577MOL0     C77787   8.004   8.323   5.834 -0.2206 -0.3135  0.0046
  577MOL0     C77788   7.874   8.285   5.898 -0.2832 -1.1358 -0.7075
  577MOL0     C77789   8.035   8.309   5.704 -0.0636 -0.2241  0.8368
  577MOL0     C77790   7.941   8.258   5.598 -1.1990 -0.0865 -0.5031
  577MOL0     O77791   7.934   8.351   5.491 -0.0811 -0.1196 -1.0578
  577MOL0     C77792   7.825   8.350   5.407  0.2287  0.3452  0.4893
  577MOL0     C77793   7.810   8.259   5.299 -0.9174 -0.3154 -2.0321
  577MOL0     C77794   7.711   8.283   5.212  0.0852 -0.1970 -0.6041
  577MOL0     C77795   7.611   8.383   5.219 -0.9067 -0.0356 -0.3641
  577MOL0     O77796   7.519   8.409   5.119 -0.3813  0.4339  0.6054
  577MOL0     C77797   7.549   8.359   4.981  0.3750 -0.8339  0.2858
  577MOL0     C77798   7.451   8.436   4.890 -0.5894  0.2636  0.1932
  577MOL0     C77799   7.311   8.369   4.894  0.8850 -0.4700  0.0409
  577MOL0     C77800   7.215   8.452   4.809  0.1120  0.6316  0.0062
  577MOL0     C77801   7.071   8.412   4.861 -0.2156  0.3667 -0.0302
  577MOL0     C77802   6.952   8.491   4.796  0.3710  0.8540 -0.5020
  577MOL0     C77803   6.912   8.418   4.663  0.1783 -0.2191  0.5409
  577MOL0     C77804   6.807   8.506   4.593  1.1439 -1.0863  0.7013
  577MOL0    Cl77805   6.658   8.510   4.689  0.6552  0.3038 -0.7924
  577MOL0     C77806   7.624   8.470   5.331  0.4604 -0.1400 -0.6637
  577MOL0     C77807   7.734   8.452   5.410  0.4294 -0.6679 -0.2485
  577MOL0     O77808   7.879   8.155   5.614  0.6843 -1.0151  0.1838
  577MOL0     C77809   8.157   8.349   5.652 -0.5927  0.0439  0.2442
  577MOL0     C77810   8.241   8.422   5.735  0.8787 -0.7149  0.1560
  577MOL0     N77811   8.669   8.896   5.509  0.2262  0.0276 -0.6271
  577MOL0     N77812   8.685   8.873   5.383  0.3656  0.8055 -0.2712
  577MOL0     C77813   9.047   7.942   5.038 -0.0217 -1.1247 -0.5760
  577MOL0     C77814   9.103   7.828   5.091  0.3086 -0.0553 -0.1394
  577MOL0     C77815   9.205   7.411   5.242 -0.4370  1.5777  0.5065
  577MOL0     C77816   9.117   7.314   5.202 -0.3519 -0.6131 -0.3005
  577MOL0     C77817   9.115   7.187   5.251 -0.4082 -0.7935  0.0770
  577MOL0     C77818   9.211   7.152   5.348  0.2695 -0.0471  0.4756
  577MOL0     O77819   9.216   7.030   5.417 -0.1381 -0.5780  0.3267
  577MOL0     C77820   9.137   6.917   5.365 -1.1846  0.0902  0.2172
  577MOL0     C77821   9.187   6.776   5.398 -0.7669 -0.3010  0.9845
  577MOL0     C77822   9.334   6.743   5.356 -0.3881 -0.1907  0.7935
  577MOL0     C77823   9.342   6.613   5.276  0.0802 -1.7407 -0.5616
  577MOL0     C77824   9.485   6.593   5.268  0.5547  0.3735  0.7315
  577MOL0     C77825   9.600   6.565   5.284 -0.5703  0.1964 -1.0640
  577MOL0     C77826   9.307   7.251   5.388 -0.6145  0.7124 -1.3734
  577MOL0     C77827   9.302   7.379   5.334  0.7863  0.4712 -0.4303
  577MOL0     H77828   9.093   7.619   4.842 -0.4667 -0.8007  1.3692
  577MOL0     H77829   9.017   7.822   4.722  0.2845 -3.1735  0.2084
  577MOL0     H77830   8.965   8.101   4.654 -0.8309  0.8287 -0.3992
  577MOL0     H77831   8.833   8.003   4.699  0.1826 -0.5029  0.5764
  577MOL0     H77832   8.879   8.287   4.762  0.6705 -1.7497 -1.3502
  577MOL0     H77833   8.768   8.228   4.649  0.2355  0.6170 -0.4032
  577MOL0     H77834   8.597   8.168   4.841 -1.3221  0.3580  0.7461
  577MOL0     H77835   8.733   8.196   4.960 -0.9734  1.2548  0.5213
  577MOL0     H77836   8.742   8.431   4.835  2.6842 -1.6645 -0.4851
  577MOL0     H77837   8.570   8.404   4.822  0.6669  1.8769  1.9162
  577MOL0     H77838   8.563   8.369   5.065  0.2951 -0.1844 -1.4446
  577MOL0     H77839   8.739   8.402   5.078  0.2387  1.3454 -0.3609
  577MOL0     H77840   8.720   8.634   5.006 -1.0048  1.1518 -0.7904
  577MOL0     H77841   8.549   8.613   4.971 -0.2509 -0.8170  0.1631
  577MOL0     H77842   8.496   8.565   5.191 -1.3343  2.2825 -3.1447
  577MOL0     H77843   8.665   8.562   5.243 -0.0585 -1.0208 -0.6583
  577MOL0     H77844   8.480   8.797   5.165 -0.6005 -1.6663 -0.4916
  577MOL0     H77845   8.657   8.805   5.133  1.7481 -3.3756 -0.3870
  577MOL0     H77846   8.466   8.636   5.454 -0.7508 -0.4859  1.1152
  577MOL0     H77847   8.615   8.798   5.767 -1.1134  0.7243  1.6594
  577MOL0     H77848   8.495   8.915   5.735 -0.8738 -0.4770  3.2252
  577MOL0     H77849   8.466   8.614   5.738  2.0326  1.4312  1.2681
  577MOL0     H77850   8.327   8.709   5.692  0.5004 -5.1402 -1.4403
  577MOL0     H77851   8.348   8.830   5.917  0.3684 -0.0960  0.9621
  577MOL0     H77852   8.463   8.703   5.966  1.4661 -0.1982 -2.5996
  577MOL0     H77853   8.165   8.652   5.914 -0.7837 -3.4950  0.6471
  577MOL0     H77854   8.251   8.675   6.061  0.3245  0.8858  0.6264
  577MOL0     H77855   8.081   8.399   6.022  2.4117  1.4833 -0.4801
  577MOL0     H77856   7.880   8.303   6.006  3.5252 -2.9200 -0.4608
  577MOL0     H77857   7.790   8.337   5.851  0.1972  0.0808 -0.2615
  577MOL0     H77858   7.865   8.176   5.889  1.1580 -1.4449  0.9835
  577MOL0     H77859   7.895   8.196   5.274 -1.2100 -0.8588 -1.6621
  577MOL0     H77860   7.716   8.212   5.130 -0.2588  1.0146 -1.7230
  577MOL0     H77861   7.656   8.371   4.963  1.1470 -3.2406  2.5187
  577MOL0     H77862   7.526   8.253   4.962  0.5171 -0.7637 -0.2934
  577MOL0     H77863   7.448   8.542   4.918  3.3415  0.7296 -0.5591
  577MOL0     H77864   7.483   8.447   4.786  0.7885  1.5281  0.7090
  577MOL0     H77865   7.276   8.363   4.997 -0.8248 -3.7662 -0.5874
  577MOL0     H77866   7.310   8.262   4.869  1.9897 -0.6648  0.7657
  577MOL0     H77867   7.229   8.560   4.820 -0.8650  0.6578  1.2122
  577MOL0     H77868   7.219   8.424   4.703 -0.2582  0.7750 -0.0455
  577MOL0     H77869   7.061   8.432   4.969  2.6469  2.4599 -0.0402
  577MOL0     H77870   7.053   8.304   4.849 -2.1770  0.3776  2.0285
  577MOL0     H77871   6.865   8.487   4.862 -2.3499  3.1795 -3.6133
  577MOL0     H77872   6.960   8.598   4.775  0.3557  0.2249 -4.4938
  577MOL0     H77873   6.861   8.324   4.685 -0.1136  0.2432  1.9323
  577MOL0     H77874   6.990   8.410   4.587 -0.2418  1.4831 -0.1232
  577MOL0     H77875   6.794   8.474   4.490  0.9601  0.4046  0.2406
  577MOL0     H77876   6.848   8.607   4.602  0.2342 -0.8680  3.3648
  577MOL0     H77877   7.559   8.557   5.332  0.5476 -0.0601  1.2089
  577MOL0     H77878   7.752   8.508   5.502  3.7266 -3.2402  0.9022
  577MOL0     H77879   8.183   8.355   5.547 -0.1603  3.4108  0.4248
  577MOL0     H77880   8.316   8.472   5.675 -1.8465  1.5052 -1.6785
  577MOL0     H77881   9.011   8.023   5.102 -0.1480 -1.6105 -0.0250
  577MOL0     H77882   9.148   7.836   5.189  0.9455  0.1901 -0.4496
  577MOL0     H77883   9.036   7.335   5.134 -1.6087 -1.1585  0.9783
  577MOL0     H77884   9.035   7.123   5.215 -1.7828  1.5569 -1.3026
  577MOL0     H77885   9.031   6.929   5.388 -1.6770 -2.6009 -0.3668
  577MOL0     H77886   9.150   6.937   5.258  1.4138  1.4091  0.6911
  577MOL0     H77887   9.109   6.704   5.371 -2.5425  1.6283  0.7511
  577MOL0     H77888   9.191   6.769   5.507 -2.2914  0.6238  1.1187
  577MOL0     H77889   9.388   6.754   5.451 -1.3533 -2.3991  1.6818
  577MOL0     H77890   9.370   6.815   5.282 -1.0573 -2.0421 -1.4153
  577MOL0     H77891   9.294   6.629   5.179 -0.8928 -0.2830  0.1158
  577MOL0     H77892   9.295   6.527   5.324  0.5344  0.5251  4.5958
  577MOL0     H77893   9.704   6.540   5.292  0.2838  3.6513  0.2423
  577MOL0     H77894   9.369   7.224   5.474 -2.2061  1.8123  0.1755
  577MOL0     H77895   9.382   7.449   5.355  1.5696 -0.5147 -0.0284
  578MOL0     O77896  10.188   3.300   2.189  0.0926  0.4851  0.0553
  578MOL0     C77897  10.138   3.192   2.156  0.2343 -0.0838  0.2171
  578MOL0     O77898  10.133   3.142   2.028 -0.8353  0.1386 -0.4369
  578MOL0     C77899  10.203   3.191   1.926 -0.5010 -0.0536 -1.2947
  578MOL0     C77900  10.206   3.110   1.804  0.3880 -0.5187 -0.1985
  578MOL0     C77901  10.288   3.143   1.695  0.0501  0.3131  0.8211
  578MOL0     C77902  10.353   3.262   1.695  0.2032 -0.3825  1.2647
  578MOL0     O77903  10.425   3.315   1.592  0.4802  0.0389  0.2660
  578MOL0     C77904  10.383   3.283   1.463 -0.2626  0.3037  0.5738
  578MOL0     C77905  10.429   3.398   1.364 -0.5352 -0.2285  0.4307
  578MOL0     C77906  10.573   3.422   1.341 -0.5379 -0.0344 -0.3761
  578MOL0     C77907  10.648   3.304   1.299 -0.5214  0.8608  0.9121
  578MOL0     C77908  10.787   3.311   1.235 -1.0256 -0.6685  0.4628
  578MOL0     C77909  10.853   3.180   1.205  0.0820 -0.5225 -0.4245
  578MOL0     C77910  10.974   3.170   1.118  0.6166 -0.0050 -0.7338
  578MOL0     C77911  10.959   3.213   0.974 -0.3353  0.0756 -0.2452
  578MOL0     N77912  10.969   3.357   0.930 -0.0832  0.5926 -1.3783
  578MOL0     C77913  10.884   3.426   0.853  0.3528 -0.2136 -0.4707
  578MOL0     C77914  10.934   3.551   0.860  1.0489  0.6788  0.3700
  578MOL0     C77915  10.856   3.667   0.794  1.1214  0.5457 -0.4358
  578MOL0     C77916  10.947   3.778   0.751  0.2739 -0.4430 -0.0253
  578MOL0     C77917  11.000   3.863   0.866 -0.0962  0.1884  0.7187
  578MOL0     C77918  11.080   3.985   0.815  1.0454 -0.2526 -0.5364
  578MOL0     O77919  11.008   4.065   0.716 -0.3337  0.1218 -0.9201
  578MOL0     C77920  11.065   4.188   0.685 -0.3205  0.5628  0.1535
  578MOL0     C77921  11.024   4.252   0.563 -0.0260 -0.7330 -0.3811
  578MOL0     C77922  11.077   4.385   0.523  0.4788 -0.3857 -0.3783
  578MOL0     C77923  11.021   4.428   0.397 -0.2340 -0.2792 -0.4996
  578MOL0     C77924  11.189   4.434   0.597  0.6163 -0.7894  0.3313
  578MOL0     C77925  11.262   4.562   0.560  0.7750  0.2523 -0.2991
  578MOL0     O77926  11.386   4.585   0.600 -0.1062 -0.4276 -0.0431
  578MOL0     C77927  11.447   4.698   0.571  0.3150  0.1299 -0.1660
  578MOL0     C77928  11.555   4.689   0.484 -0.1750 -0.5194 -0.2457
  578MOL0     C77929  11.617   4.811   0.448  0.4696  0.5149  0.2745
  578MOL0     C77930  11.576   4.940   0.486  0.1713 -0.1978  0.0718
  578MOL0     O77931  11.629   5.049   0.420 -0.7041  0.1506 -1.1728
  578MOL0     C77932  11.654   5.172   0.494  0.5353 -1.3248  0.1215
  578MOL0     C77933  11.752   5.150   0.614 -0.3176  0.4336 -0.3172
  578MOL0     C77934  11.899   5.121   0.591  0.1099  0.1359  0.1154
  578MOL0     C77935  12.002   5.203   0.662  0.8391 -0.0762 -0.0968
  578MOL0     C77936  12.119   5.242   0.584  0.9716  0.5912 -0.0011
  578MOL0     C77937  12.210   5.334   0.662 -1.3570  0.5924  0.5825
  578MOL0     C77938  12.343   5.351   0.589 -0.1649 -0.1984  0.6243
  578MOL0     C77939  12.462   5.429   0.659  0.3178 -0.0674  0.0985
  578MOL0    Cl77940  12.600   5.419   0.542  0.2383 -0.1341 -0.1826
  578MOL0     C77941  11.458   4.944   0.564  0.5327  0.4155 -0.0521
  578MOL0     C77942  11.397   4.825   0.607 -0.1913  0.8611  0.4964
  578MOL0     O77943  11.182   4.646   0.516 -0.5240  0.2777 -0.1296
  578MOL0     C77944  11.223   4.368   0.715  0.0574 -0.3197  0.4796
  578MOL0     C77945  11.164   4.251   0.758 -0.3926 -0.2071 -0.0612
  578MOL0     N77946  11.044   3.554   0.944 -0.9339  0.3998  0.1319
  578MOL0     N77947  11.071   3.435   0.979  0.7585 -0.6395  0.0395
  578MOL0     C77948  10.336   3.352   1.801  0.3471 -0.8308  0.8018
  578MOL0     C77949  10.268   3.316   1.917  0.0089  0.1367  0.7420
  578MOL0     C77950  10.090   3.106   2.265 -0.2666  0.3738 -0.6777
  578MOL0     C77951  10.053   3.151   2.398 -0.0525 -1.0565  0.8710
  578MOL0     C77952  10.015   3.065   2.500 -0.3775 -0.0834 -1.0289
  578MOL0     C77953  10.000   2.924   2.474  0.1811 -0.2031  0.1476
  578MOL0     O77954   9.952   2.835   2.563  0.2054  0.2135 -0.0605
  578MOL0     C77955   9.996   2.700   2.546  0.0122 -0.4557 -0.4624
  578MOL0     C77956  10.146   2.679   2.549 -0.2208  0.6078  0.1282
  578MOL0     C77957  10.193   2.632   2.691  1.2993  0.4896 -0.3510
  578MOL0     C77958  10.330   2.660   2.719 -0.1281 -0.0385  0.6448
  578MOL0     C77959  10.422   2.570   2.646  0.2106 -0.1131  0.1946
  578MOL0     C77960  10.505   2.500   2.580 -0.2212  0.1224 -0.4231
  578MOL0     C77961  10.014   2.884   2.336  0.9498  0.0099  0.0355
  578MOL0     C77962  10.061   2.973   2.243  1.2023  0.8091 -0.6240
  578MOL0     H77963  10.159   3.012   1.810  2.3955 -1.6073 -1.2883
  578MOL0     H77964  10.305   3.084   1.606  2.1273 -1.7375  2.4464
  578MOL0     H77965  10.433   3.190   1.435 -0.5726  1.5836 -5.6461
  578MOL0     H77966  10.277   3.261   1.448 -0.4626  0.0088  2.2166
  578MOL0     H77967  10.387   3.382   1.264 -1.4388  1.4298  0.5028
  578MOL0     H77968  10.391   3.498   1.388 -2.1190 -0.0099 -2.4527
  578MOL0     H77969  10.585   3.507   1.272 -0.8228 -1.8409 -2.7828
  578MOL0     H77970  10.626   3.462   1.428  0.6637  1.2484 -1.6455
  578MOL0     H77971  10.638   3.232   1.381 -2.8125 -0.6142 -0.5512
  578MOL0     H77972  10.577   3.251   1.234  0.0457  0.3892  0.6732
  578MOL0     H77973  10.779   3.376   1.147 -1.9921  0.5419  1.4014
  578MOL0     H77974  10.847   3.362   1.312 -0.8308 -2.9614  1.9118
  578MOL0     H77975  10.871   3.124   1.297 -0.9709  3.4822  2.4785
  578MOL0     H77976  10.782   3.135   1.135 -0.1184  2.9882 -2.7283
  578MOL0     H77977  11.052   3.231   1.164 -1.3618  3.3537 -1.4805
  578MOL0     H77978  10.995   3.063   1.126 -3.8720 -1.1135 -0.9043
  578MOL0     H77979  10.873   3.163   0.928 -0.1252  0.9532 -1.6444
  578MOL0     H77980  11.043   3.166   0.923 -0.5401 -1.5777  0.8426
  578MOL0     H77981  10.790   3.394   0.809 -1.2466 -0.1381  2.6245
  578MOL0     H77982  10.807   3.633   0.703 -1.3323  2.3501  0.1260
  578MOL0     H77983  10.769   3.702   0.850 -0.2666 -0.0652 -2.1178
  578MOL0     H77984  10.887   3.839   0.683  0.2890  0.7920  1.0403
  578MOL0     H77985  11.034   3.732   0.705  0.4512 -2.6983  2.3129
  578MOL0     H77986  11.058   3.803   0.937  1.2286  3.0830  2.2613
  578MOL0     H77987  10.921   3.905   0.929  0.6506  0.4706  1.4932
  578MOL0     H77988  11.171   3.951   0.764  1.0248  1.3277 -1.7302
  578MOL0     H77989  11.106   4.030   0.912  3.1349 -4.0323  0.8557
  578MOL0     H77990  10.952   4.192   0.508 -3.6341 -1.9096  4.9039
  578MOL0     H77991  10.990   4.341   0.338 -0.7468 -0.0801 -0.5251
  578MOL0     H77992  10.932   4.489   0.413 -0.0199  0.1593 -0.9572
  578MOL0     H77993  11.087   4.495   0.341  1.0254 -0.3065  0.8818
  578MOL0     H77994  11.589   4.590   0.456 -3.7387 -1.4910 -1.7163
  578MOL0     H77995  11.720   4.816   0.414  1.6732 -0.1324  3.4534
  578MOL0     H77996  11.703   5.259   0.448  1.9704 -1.7158  0.8442
  578MOL0     H77997  11.561   5.202   0.544  1.9602  1.2630  1.4312
  578MOL0     H77998  11.736   5.236   0.680 -5.3954  0.6341 -1.4372
  578MOL0     H77999  11.708   5.067   0.669  2.8819 -1.0209  0.3077
  578MOL0     H78000  11.906   5.119   0.482 -4.0761 -0.3743 -0.2990
  578MOL0     H78001  11.922   5.015   0.605  1.2168  0.2178 -0.9350
  578MOL0     H78002  11.964   5.302   0.689  0.3644  0.5728 -2.8246
  578MOL0     H78003  12.027   5.140   0.748 -4.1449 -3.3804 -0.6540
  578MOL0     H78004  12.088   5.302   0.498 -0.4113  3.7750  2.4997
  578MOL0     H78005  12.178   5.153   0.562 -0.4706 -0.2617 -0.5591
  578MOL0     H78006  12.167   5.431   0.687  0.3702  1.6858 -0.4549
  578MOL0     H78007  12.233   5.288   0.759  1.7706 -0.8134 -0.6696
  578MOL0     H78008  12.341   5.410   0.498  2.0826 -0.6490  0.2208
  578MOL0     H78009  12.374   5.251   0.556 -0.2039  0.1764 -0.5968
  578MOL0     H78010  12.488   5.379   0.753  2.6714 -2.3861 -1.6676
  578MOL0     H78011  12.443   5.536   0.674 -1.0534 -0.6121  2.8546
  578MOL0     H78012  11.411   5.038   0.588  2.2162  0.6807  2.6935
  578MOL0     H78013  11.302   4.806   0.656  0.4855 -0.9259  1.2039
  578MOL0     H78014  11.295   4.425   0.772  0.1141 -0.1937  0.2820
  578MOL0     H78015  11.192   4.202   0.851 -2.4233 -2.4793 -0.5392
  578MOL0     H78016  10.374   3.453   1.788 -1.7670 -0.1224 -0.1827
  578MOL0     H78017  10.279   3.391   1.994  2.7679 -0.0938  0.7012
  578MOL0     H78018  10.073   3.257   2.414  1.5792 -1.0693 -0.7489
  578MOL0     H78019  10.012   3.104   2.602  4.0310 -0.2304 -0.6564
  578MOL0     H78020   9.947   2.645   2.626  0.6977 -2.9965 -1.6709
  578MOL0     H78021   9.955   2.653   2.456 -0.5304 -1.2124  0.1642
  578MOL0     H78022  10.197   2.770   2.517  3.3863 -0.8302  1.2882
  578MOL0     H78023  10.180   2.603   2.478  2.1548  2.8810 -1.3387
  578MOL0     H78024  10.170   2.525   2.698 -2.3872  1.1701  0.3238
  578MOL0     H78025  10.134   2.673   2.773  1.6749 -1.0903  0.7436
  578MOL0     H78026  10.348   2.676   2.826  2.4217  2.6424 -0.0332
  578MOL0     H78027  10.352   2.759   2.676 -1.4912  0.1034  0.2268
  578MOL0     H78028  10.567   2.447   2.511  0.3620 -0.8922  0.8475
  578MOL0     H78029  10.001   2.779   2.312 -0.4255  0.1651 -0.0124
  578MOL0     H78030  10.058   2.939   2.140 -0.0013  0.1515 -0.3858
  579MOL0     O78031   4.550   9.796   0.413 -0.3798 -0.2063  0.2635
  579MOL0     C78032   4.561   9.752   0.301 -0.5912 -0.7012 -0.8879
  579MOL0     O78033   4.478   9.766   0.196  0.4653 -0.5306 -0.2497
  579MOL0     C78034   4.366   9.827   0.231  0.8736  0.3045  0.9902
  579MOL0     C78035   4.251   9.747   0.254 -0.8119 -0.0551  0.4496
  579MOL0     C78036   4.130   9.801   0.292  0.0815  0.1778 -0.2234
  579MOL0     C78037   4.125   9.939   0.319 -0.2718 -0.5303  0.9313
  579MOL0     O78038   4.017   9.995   0.386 -0.3493 -0.2841  0.4422
  579MOL0     C78039   4.004  10.144   0.377  0.2554  0.4825  0.0805
  579MOL0     C78040   3.870  10.193   0.443 -0.0465  0.7462 -0.2597
  579MOL0     C78041   3.871  10.165   0.592  1.0065 -0.2588  0.1097
  579MOL0     C78042   3.738  10.216   0.655  0.6136  0.1527 -0.6224
  579MOL0     C78043   3.743  10.360   0.688  0.1298  0.4257  0.7851
  579MOL0     C78044   3.630  10.399   0.779 -1.1324  0.1578 -0.2724
  579MOL0     C78045   3.513  10.438   0.689  0.1607  0.2241  0.1767
  579MOL0     C78046   3.402  10.506   0.773  0.1171  0.7031  0.4082
  579MOL0     N78047   3.444  10.644   0.816  0.6083  0.6069 -0.6496
  579MOL0     C78048   3.490  10.749   0.735  0.6677  0.0709 -0.5761
  579MOL0     C78049   3.505  10.859   0.809 -0.0820 -0.6677 -0.1531
  579MOL0     C78050   3.537  11.002   0.748  0.2657  0.0562 -0.8069
  579MOL0     C78051   3.594  11.091   0.859 -0.0947  0.2915  0.3288
  579MOL0     C78052   3.475  11.160   0.936  0.3134 -1.2174 -0.0529
  579MOL0     C78053   3.508  11.224   1.083 -0.1967 -0.4286  0.6324
  579MOL0     O78054   3.387  11.282   1.140 -0.6234  0.0418 -0.2306
  579MOL0     C78055   3.405  11.402   1.203  0.0507  0.9802  0.3556
  579MOL0     C78056   3.347  11.522   1.150 -0.0683 -0.5978 -0.8825
  579MOL0     C78057   3.382  11.646   1.203 -0.6052  0.3135 -0.1262
  579MOL0     C78058   3.311  11.768   1.145  0.2511 -0.8246  0.0650
  579MOL0     C78059   3.463  11.660   1.317 -0.4969 -0.2597 -0.3489
  579MOL0     C78060   3.500  11.786   1.392  0.2471  0.8592  0.1622
  579MOL0     O78061   3.465  11.902   1.350  0.7850 -0.2953  0.4065
  579MOL0     C78062   3.438  12.001   1.443  0.1198  1.1371 -0.6808
  579MOL0     C78063   3.524  12.106   1.475 -0.1455  0.2842 -0.0237
  579MOL0     C78064   3.492  12.207   1.568  0.0275 -0.1719  0.0515
  579MOL0     C78065   3.368  12.194   1.636  1.5195 -0.0302 -0.0413
  579MOL0     O78066   3.318  12.272   1.740 -0.0969  0.2667  0.7921
  579MOL0     C78067   3.419  12.310   1.830  1.0389  0.4841 -0.2936
  579MOL0     C78068   3.347  12.386   1.940 -0.4520 -0.2222 -0.3558
  579MOL0     C78069   3.433  12.456   2.051  1.1488 -0.3066  0.0541
  579MOL0     C78070   3.506  12.582   1.985  0.3735  0.3544  0.6080
  579MOL0     C78071   3.619  12.647   2.065  1.3349  0.2508  0.8860
  579MOL0     C78072   3.688  12.759   1.993 -0.2710 -0.0564  0.9224
  579MOL0     C78073   3.794  12.826   2.077 -0.1966  0.0359  0.3856
  579MOL0     C78074   3.732  12.908   2.194  0.7440  0.5649 -0.9011
  579MOL0    Cl78075   3.860  13.017   2.256  0.2592 -0.0275 -0.3227
  579MOL0     C78076   3.282  12.091   1.605  0.5476 -0.4847  1.0674
  579MOL0     C78077   3.308  12.001   1.505 -1.3496  0.5087 -0.9316
  579MOL0     O78078   3.549  11.769   1.502 -0.2051  0.5770  0.1930
  579MOL0     C78079   3.522  11.539   1.365 -0.1341 -0.9189  0.5149
  579MOL0     C78080   3.496  11.413   1.306  0.4014 -0.2273 -0.2015
  579MOL0     N78081   3.471  10.822   0.940  0.5941 -0.3308  0.0201
  579MOL0     N78082   3.432  10.701   0.940  0.5127  0.1230 -0.9132
  579MOL0     C78083   4.236  10.020   0.285  0.3146  0.1951 -0.8641
  579MOL0     C78084   4.358   9.964   0.241  0.0709 -0.3474  0.2494
  579MOL0     C78085   4.692   9.688   0.270  1.0283  0.7983  0.3891
  579MOL0     C78086   4.715   9.624   0.147  0.6741  0.2158  0.5026
  579MOL0     C78087   4.829   9.553   0.114  0.5394  1.1836 -0.3604
  579MOL0     C78088   4.923   9.537   0.213 -0.4636 -0.7316  1.2681
  579MOL0     O78089   5.034   9.448   0.202  0.8497 -0.2747  0.0936
  579MOL0     C78090   5.156   9.519   0.197  0.2731 -0.3402  0.6729
  579MOL0     C78091   5.173   9.568   0.054 -0.2137  0.0254 -0.1812
  579MOL0     C78092   5.319   9.592   0.012  1.1201  0.6898  1.0219
  579MOL0     C78093   5.337   9.596  -0.131 -0.1704  0.7071 -0.2579
  579MOL0     C78094   5.298   9.722  -0.179  0.7847  0.2422 -0.8933
  579MOL0     C78095   5.286   9.835  -0.228 -0.5937 -0.0251 -0.3164
  579MOL0     C78096   4.913   9.612   0.328 -0.9448  0.3212  0.0500
  579MOL0     C78097   4.806   9.701   0.350  0.0002 -0.6508 -0.6615
  579MOL0     H78098   4.259   9.639   0.243  1.5035 -0.0520  1.4871
  579MOL0     H78099   4.044   9.737   0.310  1.0591 -1.1949 -0.3176
  579MOL0     H78100   4.083  10.191   0.436  1.0414  0.5233 -0.9902
  579MOL0     H78101   3.997  10.158   0.269  0.6252 -1.1984 -0.1884
  579MOL0     H78102   3.862  10.302   0.441 -3.3791  0.6421  0.6333
  579MOL0     H78103   3.782  10.160   0.387  1.7890 -1.5639 -2.0274
  579MOL0     H78104   3.876  10.057   0.610  0.1056 -0.2440  0.4993
  579MOL0     H78105   3.955  10.213   0.644 -1.2336  1.6610  2.2691
  579MOL0     H78106   3.650  10.186   0.597  0.7363 -1.7331  0.0984
  579MOL0     H78107   3.733  10.160   0.749  3.4487  2.4563  1.0795
  579MOL0     H78108   3.840  10.379   0.736  1.5873  2.4053 -2.6074
  579MOL0     H78109   3.748  10.427   0.601 -0.7657 -1.3993 -0.7523
  579MOL0     H78110   3.604  10.325   0.854  1.8299  1.8974  2.7537
  579MOL0     H78111   3.664  10.481   0.843  0.0333 -2.3828  2.5829
  579MOL0     H78112   3.542  10.509   0.611 -3.5352  2.6189  0.7472
  579MOL0     H78113   3.460  10.355   0.643 -5.1022  2.8045  0.8331
  579MOL0     H78114   3.388  10.441   0.860  0.2220  0.5314  0.2987
  579MOL0     H78115   3.303  10.521   0.728 -1.1504  2.4828  3.4873
  579MOL0     H78116   3.492  10.756   0.627  1.1744  0.7904 -0.5271
  579MOL0     H78117   3.616  10.990   0.674  1.4186 -1.5630  0.6034
  579MOL0     H78118   3.456  11.050   0.694  0.3382 -0.4462 -1.3705
  579MOL0     H78119   3.665  11.166   0.824 -1.0945 -0.1203 -2.8941
  579MOL0     H78120   3.636  11.021   0.933  2.0103  1.3004  0.1275
  579MOL0     H78121   3.387  11.095   0.942 -0.6954  0.2111  1.4008
  579MOL0     H78122   3.445  11.249   0.881  0.4548 -0.4581  1.0654
  579MOL0     H78123   3.594  11.291   1.083 -0.6004  0.1387  2.3426
  579MOL0     H78124   3.527  11.137   1.148  0.2591  1.1178  2.6731
  579MOL0     H78125   3.276  11.528   1.068 -1.0094  0.9399  0.0195
  579MOL0     H78126   3.383  11.851   1.140 -0.3213 -0.2617  0.8994
  579MOL0     H78127   3.267  11.770   1.045  3.8567  1.5219 -1.7459
  579MOL0     H78128   3.236  11.807   1.214 -0.3273 -0.4198 -0.7617
  579MOL0     H78129   3.624  12.109   1.433 -0.0964  0.5651  0.1144
  579MOL0     H78130   3.559  12.292   1.567 -0.3798  0.1715 -1.4393
  579MOL0     H78131   3.471  12.221   1.867 -0.6773  0.9013  3.6473
  579MOL0     H78132   3.484  12.381   1.779  2.6650 -2.9042 -3.4462
  579MOL0     H78133   3.273  12.457   1.902 -0.3707  0.2776  0.3847
  579MOL0     H78134   3.283  12.315   1.994 -1.1098 -1.0575 -2.1524
  579MOL0     H78135   3.482  12.372   2.102 -0.2066  0.0580  2.0613
  579MOL0     H78136   3.363  12.495   2.125  0.6785  2.1587 -1.5912
  579MOL0     H78137   3.550  12.542   1.892 -0.9318 -1.8922  0.8704
  579MOL0     H78138   3.429  12.651   1.951  0.7248  1.0383  1.1699
  579MOL0     H78139   3.691  12.565   2.080  0.7284 -1.2826 -3.2947
  579MOL0     H78140   3.577  12.675   2.162  0.4115 -0.1011  0.5992
  579MOL0     H78141   3.736  12.705   1.911  1.6954  1.3059  1.1002
  579MOL0     H78142   3.618  12.830   1.949  1.1996  2.4264  2.3670
  579MOL0     H78143   3.867  12.883   2.019  0.1663 -3.7458 -3.3663
  579MOL0     H78144   3.858  12.750   2.124 -1.5957 -1.2937  0.2103
  579MOL0     H78145   3.708  12.836   2.272  2.9368 -1.2748 -1.7809
  579MOL0     H78146   3.644  12.967   2.169 -1.5110 -1.3567  1.8379
  579MOL0     H78147   3.180  12.100   1.641 -0.1122 -0.2670 -0.7830
  579MOL0     H78148   3.240  11.924   1.471 -1.0421  0.5706 -1.7152
  579MOL0     H78149   3.603  11.530   1.437  0.3353 -0.1524  0.1010
  579MOL0     H78150   3.545  11.321   1.337 -1.6036 -2.1556 -2.4007
  579MOL0     H78151   4.230  10.128   0.296  2.5161  0.2242  0.8031
  579MOL0     H78152   4.445  10.022   0.215  0.4637 -0.5756  1.0211
  579MOL0     H78153   4.635   9.626   0.073  1.5110  0.0702 -0.4360
  579MOL0     H78154   4.848   9.494   0.026  1.2412 -5.1693  3.4237
  579MOL0     H78155   5.143   9.609   0.259 -0.7377 -0.0461  0.0609
  579MOL0     H78156   5.232   9.452   0.237 -1.4306 -1.5841  1.9458
  579MOL0     H78157   5.110   9.656   0.039  0.0545  0.4640  1.1056
  579MOL0     H78158   5.138   9.485  -0.009  0.6746 -1.6506  1.4389
  579MOL0     H78159   5.383   9.507   0.038  0.4232 -0.9424 -2.1839
  579MOL0     H78160   5.358   9.683   0.059 -1.5104  1.9600  0.9621
  579MOL0     H78161   5.290   9.512  -0.184  4.7163 -1.8562 -1.1674
  579MOL0     H78162   5.446   9.595  -0.146 -0.1345 -0.5745 -0.0590
  579MOL0     H78163   5.266   9.935  -0.260  1.6154  1.1436  1.6710
  579MOL0     H78164   4.983   9.595   0.409 -0.9059  2.1446  0.4312
  579MOL0     H78165   4.783   9.754   0.442 -0.0064  2.9528 -2.5795
  580MOL0     O78166   4.971   1.370   1.110 -0.1632  0.2569  0.8272
  580MOL0     C78167   5.034   1.282   1.168 -0.1826  0.1051 -0.1350
  580MOL0     O78168   5.061   1.279   1.300  0.2254 -0.5036 -0.3193
  580MOL0     C78169   4.997   1.364   1.383  0.5439  0.2820 -0.3567
  580MOL0     C78170   5.045   1.492   1.417 -0.2467  0.9081  1.3972
  580MOL0     C78171   4.971   1.580   1.501  0.6648  1.6007  0.0517
  580MOL0     C78172   4.860   1.526   1.576 -0.1583  1.3566  0.2456
  580MOL0     O78173   4.789   1.582   1.676 -0.3094 -0.0216  0.6859
  580MOL0     C78174   4.849   1.658   1.778 -0.1340 -0.7722 -0.3771
  580MOL0     C78175   4.742   1.681   1.882  0.2232  0.6554 -0.9382
  580MOL0     C78176   4.757   1.806   1.954  0.2908  0.5725  0.4035
  580MOL0     C78177   4.767   1.941   1.882 -0.9384  1.2695 -0.9174
  580MOL0     C78178   4.735   2.061   1.971 -0.8434  0.1542  0.5659
  580MOL0     C78179   4.843   2.098   2.070  0.1323  1.0417 -0.1150
  580MOL0     C78180   4.812   2.240   2.121 -0.3787  1.0403  0.4670
  580MOL0     C78181   4.891   2.349   2.057 -0.3904  0.1959 -0.6366
  580MOL0     N78182   4.834   2.486   2.097 -0.3194 -0.4259  1.2308
  580MOL0     C78183   4.867   2.585   2.201  0.9011  0.0743  0.1919
  580MOL0     C78184   4.787   2.691   2.190  0.2306 -0.6794  0.1128
  580MOL0     C78185   4.800   2.812   2.278  0.2991  0.2590 -0.2530
  580MOL0     C78186   4.687   2.910   2.249 -0.4125  0.3961  0.1201
  580MOL0     C78187   4.703   3.043   2.325 -0.8590 -0.8209 -0.5061
  580MOL0     C78188   4.833   3.125   2.292 -0.2716 -0.2273  0.2470
  580MOL0     O78189   4.831   3.244   2.377  0.5165  0.3406  0.3515
  580MOL0     C78190   4.825   3.358   2.303 -0.7059 -0.4254 -0.1449
  580MOL0     C78191   4.724   3.408   2.227  0.7398 -0.2358  0.3116
  580MOL0     C78192   4.738   3.525   2.143  0.3361 -0.5967 -0.7898
  580MOL0     C78193   4.613   3.582   2.084 -0.0006 -0.0265  0.3017
  580MOL0     C78194   4.866   3.581   2.119 -0.0220 -0.3534  0.4093
  580MOL0     C78195   4.902   3.693   2.031 -0.8510  0.0262  1.3296
  580MOL0     O78196   4.813   3.734   1.927 -0.1946  0.2309 -0.3662
  580MOL0     C78197   4.841   3.844   1.850 -0.1250 -0.1065 -0.1751
  580MOL0     C78198   4.915   3.960   1.891 -0.7081  0.2374 -0.6577
  580MOL0     C78199   4.946   4.068   1.807  0.5294 -1.0128  0.3997
  580MOL0     C78200   4.888   4.068   1.680 -0.7415 -0.0184  0.4448
  580MOL0     O78201   4.904   4.164   1.587 -0.0149  0.0680 -0.2573
  580MOL0     C78202   4.981   4.280   1.630 -0.0873 -0.1673 -0.2994
  580MOL0     C78203   5.000   4.390   1.520 -0.6294  0.3182 -0.9078
  580MOL0     C78204   5.131   4.381   1.444 -0.3374 -1.6156  0.5633
  580MOL0     C78205   5.120   4.466   1.315  0.0290  0.6457 -0.6888
  580MOL0     C78206   5.036   4.396   1.207 -0.4011  0.4480  0.0750
  580MOL0     C78207   5.087   4.251   1.158  0.7373 -0.8095 -0.1344
  580MOL0     C78208   5.023   4.127   1.220  0.6606  0.2771 -0.1122
  580MOL0     C78209   5.120   4.023   1.248  0.7700 -0.5643  0.0804
  580MOL0    Cl78210   5.213   3.979   1.110  0.0828  0.2240 -0.1951
  580MOL0     C78211   4.824   3.953   1.635  0.0723  0.3178  0.3196
  580MOL0     C78212   4.792   3.851   1.722  0.9600  0.1046  0.5229
  580MOL0     O78213   5.004   3.747   2.061 -0.3367 -0.2383  0.3285
  580MOL0     C78214   4.965   3.527   2.205  0.2882 -0.1416  0.0538
  580MOL0     C78215   4.947   3.431   2.305 -0.2134  0.2975 -1.0932
  580MOL0     N78216   4.709   2.669   2.073 -0.3250  0.0708  0.0007
  580MOL0     N78217   4.740   2.548   2.018  0.9342 -0.1785  0.2762
  580MOL0     C78218   4.817   1.396   1.554 -0.0249  0.3904 -0.6113
  580MOL0     C78219   4.884   1.306   1.464  0.7391 -1.1034  0.2573
  580MOL0     C78220   5.098   1.178   1.091  0.2363 -0.1118  0.3474
  580MOL0     C78221   5.112   1.190   0.957 -1.1596  0.2006 -0.4377
  580MOL0     C78222   5.182   1.082   0.896 -0.5181 -0.1381 -0.2055
  580MOL0     C78223   5.212   0.964   0.961 -1.0393  0.7422 -1.0906
  580MOL0     O78224   5.281   0.865   0.892  0.1721  0.1788 -0.1904
  580MOL0     C78225   5.265   0.854   0.753  0.0710 -0.5439  0.3049
  580MOL0     C78226   5.289   0.713   0.701 -0.4812  0.6449 -1.6560
  580MOL0     C78227   5.160   0.621   0.698 -0.2669 -0.8353  0.1320
  580MOL0     C78228   5.199   0.475   0.650  0.1600  0.5227 -0.3453
  580MOL0     C78229   5.217   0.487   0.505 -0.1260  0.7111  1.2333
  580MOL0     C78230   5.265   0.501   0.390 -0.6920 -0.6174  0.2741
  580MOL0     C78231   5.182   0.947   1.090 -0.8785  0.5428 -0.4508
  580MOL0     C78232   5.123   1.055   1.153 -1.1007  0.4681  0.1482
  580MOL0     H78233   5.139   1.519   1.370  0.4829  2.7965  3.7340
  580MOL0     H78234   5.007   1.681   1.515 -1.5469  2.4315  0.1036
  580MOL0     H78235   4.938   1.622   1.832 -2.8761 -1.7016  4.0804
  580MOL0     H78236   4.878   1.753   1.732  0.2267 -0.5407  0.3111
  580MOL0     H78237   4.640   1.688   1.841  0.3455  0.0115 -1.3598
  580MOL0     H78238   4.742   1.601   1.956 -1.8636 -0.1080 -1.6620
  580MOL0     H78239   4.660   1.805   2.005  0.9673  0.7859  1.7365
  580MOL0     H78240   4.835   1.794   2.030 -2.0522 -1.2540  2.7185
  580MOL0     H78241   4.866   1.941   1.836 -1.6466 -0.9581 -2.5958
  580MOL0     H78242   4.687   1.937   1.808  0.7488  2.6267 -2.9383
  580MOL0     H78243   4.720   2.148   1.906 -0.0138 -1.0164 -1.2889
  580MOL0     H78244   4.642   2.042   2.026 -1.5873 -1.0773 -1.0080
  580MOL0     H78245   4.852   2.025   2.151 -0.0020  0.9135 -0.2160
  580MOL0     H78246   4.936   2.101   2.013 -0.6920 -2.5267 -1.9002
  580MOL0     H78247   4.704   2.258   2.124 -0.6169 -0.3222  2.7576
  580MOL0     H78248   4.842   2.220   2.225  2.3211 -0.9491 -0.5765
  580MOL0     H78249   4.903   2.342   1.949  4.1042  0.5745 -0.3492
  580MOL0     H78250   4.986   2.357   2.111 -0.2697 -1.3995 -0.5896
  580MOL0     H78251   4.949   2.582   2.273  1.6333  0.2349 -0.6089
  580MOL0     H78252   4.785   2.767   2.377  0.6878 -2.5184 -1.3620
  580MOL0     H78253   4.899   2.858   2.271 -0.7121  2.7554  0.8385
  580MOL0     H78254   4.585   2.873   2.265  0.1318 -1.4046 -0.3203
  580MOL0     H78255   4.689   2.929   2.141 -2.9936  1.2695  0.1688
  580MOL0     H78256   4.694   3.025   2.432 -1.8000  0.3547 -0.3621
  580MOL0     H78257   4.615   3.099   2.293 -0.1238  0.1943 -0.8132
  580MOL0     H78258   4.842   3.138   2.184 -0.0624  0.2915  0.3232
  580MOL0     H78259   4.926   3.076   2.323 -0.0479 -0.6344 -1.0011
  580MOL0     H78260   4.632   3.350   2.227  2.2032 -2.7429 -0.9386
  580MOL0     H78261   4.591   3.538   1.987  2.4672 -0.6453 -0.0554
  580MOL0     H78262   4.533   3.558   2.154  1.1760  0.1062  1.7409
  580MOL0     H78263   4.608   3.691   2.068 -1.4950  0.0548  1.1455
  580MOL0     H78264   4.934   3.967   1.998  1.1969 -0.3952 -0.9320
  580MOL0     H78265   5.013   4.143   1.848 -0.6400  1.3534 -1.7535
  580MOL0     H78266   4.921   4.325   1.709 -2.7661 -0.7809 -1.8624
  580MOL0     H78267   5.077   4.240   1.665 -1.6387 -1.1021  3.3043
  580MOL0     H78268   4.920   4.378   1.446  0.8476 -1.6385 -2.3042
  580MOL0     H78269   5.012   4.492   1.557 -2.1810  0.8068 -1.6628
  580MOL0     H78270   5.167   4.281   1.420  2.0063 -0.4826 -1.0016
  580MOL0     H78271   5.211   4.423   1.506 -1.7695  2.6753 -0.1368
  580MOL0     H78272   5.088   4.570   1.333  0.5613  0.6048  0.6139
  580MOL0     H78273   5.219   4.474   1.270 -0.0335 -2.1417 -1.4757
  580MOL0     H78274   5.027   4.451   1.113  2.0050 -1.3268 -1.3239
  580MOL0     H78275   4.931   4.394   1.238 -0.2624 -0.7733  0.4976
  580MOL0     H78276   5.064   4.259   1.051 -3.3282 -2.1910  0.4508
  580MOL0     H78277   5.193   4.232   1.176  0.1356 -0.9978  4.3559
  580MOL0     H78278   4.944   4.089   1.155 -0.5304  0.7534  1.0168
  580MOL0     H78279   4.971   4.157   1.312  2.8488 -0.1490  1.3598
  580MOL0     H78280   5.076   3.933   1.292  0.5279 -0.2835  0.4165
  580MOL0     H78281   5.194   4.062   1.318  1.8027  1.1987 -1.8797
  580MOL0     H78282   4.790   3.955   1.532  0.3518  0.6759  0.2316
  580MOL0     H78283   4.748   3.760   1.683  0.5946  1.6135 -3.0055
  580MOL0     H78284   5.069   3.558   2.208  0.7459 -1.3200 -1.6973
  580MOL0     H78285   5.034   3.406   2.366 -0.2185  2.9373  0.1831
  580MOL0     H78286   4.743   1.357   1.623  0.4073 -1.4128 -1.1063
  580MOL0     H78287   4.843   1.206   1.451  0.0870 -0.8901  0.6481
  580MOL0     H78288   5.077   1.280   0.907  3.5572  1.7163 -1.5892
  580MOL0     H78289   5.229   1.095   0.799  3.8676 -0.0687  1.6700
  580MOL0     H78290   5.160   0.878   0.731  0.2026 -0.0818  0.1654
  580MOL0     H78291   5.335   0.916   0.697  0.8571 -3.8849 -2.7772
  580MOL0     H78292   5.356   0.668   0.774 -0.5166  2.1929 -0.6308
  580MOL0     H78293   5.325   0.714   0.598  4.3390 -1.3596 -0.2468
  580MOL0     H78294   5.083   0.663   0.633  0.0543 -1.1449 -0.4549
  580MOL0     H78295   5.121   0.629   0.800 -2.1572 -0.3386 -0.5867
  580MOL0     H78296   5.121   0.403   0.675  0.6626 -0.8157 -2.3301
  580MOL0     H78297   5.280   0.431   0.709 -2.8666 -1.7899  2.4409
  580MOL0     H78298   5.318   0.527   0.301  2.7221 -2.7619  1.4934
  580MOL0     H78299   5.197   0.856   1.147 -0.7975  0.6185 -0.3496
  580MOL0     H78300   5.085   1.026   1.251  1.3687  3.0291  2.0460
  581MOL0     O78301   1.331   0.164   8.032  0.4329 -0.7352  0.2509
  581MOL0     C78302   1.250   0.071   8.069 -0.0631 -0.6446 -0.0543
  581MOL0     O78303   1.126   0.042   8.009 -0.6703 -1.0807 -0.6742
  581MOL0     C78304   1.097   0.111   7.895 -0.6579 -0.0532  0.2354
  581MOL0     C78305   0.976   0.186   7.883 -0.9156  1.0235 -0.2969
  581MOL0     C78306   0.936   0.243   7.762 -0.8838 -0.4345 -0.8267
  581MOL0     C78307   1.017   0.233   7.647 -0.6709  0.4507 -1.5905
  581MOL0     O78308   0.982   0.288   7.525 -0.0900  1.2153 -1.2681
  581MOL0     C78309   0.841   0.265   7.496 -0.9588 -0.1713 -0.9418
  581MOL0     C78310   0.831   0.218   7.346 -0.2642  0.0030 -0.5817
  581MOL0     C78311   0.880   0.340   7.260 -0.1141  0.0350 -0.1749
  581MOL0     C78312   0.886   0.311   7.114 -0.3284 -0.0892 -0.1264
  581MOL0     C78313   0.955   0.427   7.030  0.9007 -0.0881  0.3189
  581MOL0     C78314   0.927   0.409   6.882  0.8829 -0.0636  0.6670
  581MOL0     C78315   0.954   0.543   6.806 -0.3044  0.9356  0.0428
  581MOL0     C78316   1.104   0.580   6.795  0.2510 -0.0336 -0.1350
  581MOL0     N78317   1.155   0.615   6.660  0.1480  0.4447 -0.0642
  581MOL0     C78318   1.287   0.659   6.635  0.8130  0.1946 -0.6404
  581MOL0     C78319   1.304   0.653   6.498  0.1839 -0.4488 -0.2356
  581MOL0     C78320   1.431   0.711   6.432 -0.0068  0.6329  0.4783
  581MOL0     C78321   1.542   0.606   6.431 -0.3371  0.7015 -0.4387
  581MOL0     C78322   1.589   0.579   6.576  0.8657  0.2508 -0.1127
  581MOL0     C78323   1.712   0.481   6.582  0.5006 -0.0020 -0.4682
  581MOL0     O78324   1.827   0.561   6.563  0.1824  0.3592 -0.4183
  581MOL0     C78325   1.956   0.508   6.569  0.3035 -0.8616 -0.9038
  581MOL0     C78326   1.982   0.375   6.616 -0.9757 -0.1966 -0.1381
  581MOL0     C78327   2.112   0.318   6.635 -0.4691 -0.0686 -0.1159
  581MOL0     C78328   2.139   0.177   6.690  0.5831 -0.7177 -0.2093
  581MOL0     C78329   2.222   0.406   6.594 -0.6217  0.0162 -0.7326
  581MOL0     C78330   2.375   0.369   6.605  0.4279  0.3511 -0.3493
  581MOL0     O78331   2.466   0.466   6.621  0.0641 -0.8012 -0.1142
  581MOL0     C78332   2.597   0.445   6.592 -0.6004  0.2130  0.5068
  581MOL0     C78333   2.692   0.497   6.688 -0.9946 -0.1000 -0.3118
  581MOL0     C78334   2.826   0.468   6.665 -0.6496 -0.4105  0.9011
  581MOL0     C78335   2.876   0.390   6.553 -0.4229  0.4071 -1.1544
  581MOL0     O78336   3.008   0.351   6.534 -0.0549 -0.3410 -0.0454
  581MOL0     C78337   3.061   0.359   6.398 -0.0532  0.2977  0.4190
  581MOL0     C78338   3.196   0.422   6.378 -0.3134  0.3040  0.9698
  581MOL0     C78339   3.317   0.346   6.439  0.6115 -0.1777  0.2924
  581MOL0     C78340   3.435   0.440   6.437 -0.5471 -0.3672  0.9998
  581MOL0     C78341   3.541   0.392   6.347 -0.3461  0.4234 -0.4057
  581MOL0     C78342   3.521   0.392   6.195 -0.1251 -0.7311 -1.2200
  581MOL0     C78343   3.648   0.403   6.106 -0.0478  0.2272  0.4645
  581MOL0     C78344   3.727   0.533   6.128  0.5057 -0.6987 -0.4460
  581MOL0    Cl78345   3.653   0.681   6.096  0.6937 -0.4102  0.1424
  581MOL0     C78346   2.781   0.358   6.459  0.0840  1.0593  0.4804
  581MOL0     C78347   2.641   0.380   6.482 -0.6040  0.1252  0.5195
  581MOL0     O78348   2.395   0.256   6.574 -0.0337 -0.1309 -0.0356
  581MOL0     C78349   2.196   0.530   6.556  0.4016  0.5748  0.3255
  581MOL0     C78350   2.071   0.583   6.543  0.5418  0.6432  0.6599
  581MOL0     N78351   1.183   0.612   6.440 -0.2379 -1.0282  0.0715
  581MOL0     N78352   1.094   0.594   6.537  0.9072 -0.1735 -0.2181
  581MOL0     C78353   1.134   0.163   7.657 -0.8256 -0.7769 -0.5489
  581MOL0     C78354   1.175   0.096   7.782 -0.3670 -0.3816 -0.2257
  581MOL0     C78355   1.289   0.015   8.198  0.5679  0.4190 -0.1126
  581MOL0     C78356   1.399   0.068   8.271 -0.2804  0.2611  0.6922
  581MOL0     C78357   1.443   0.002   8.392  0.3706  0.1937 -0.0689
  581MOL0     C78358   1.371  -0.105   8.444 -0.2094  0.0411  0.8419
  581MOL0     O78359   1.420  -0.145   8.565 -0.0230  0.8574  0.5188
  581MOL0     C78360   1.374  -0.276   8.609  1.0306 -0.1116 -0.6545
  581MOL0     C78361   1.447  -0.321   8.736  0.2900 -0.0102 -0.2630
  581MOL0     C78362   1.589  -0.359   8.708  0.3471 -0.2373  0.4094
  581MOL0     C78363   1.595  -0.505   8.698 -0.7073 -0.2305  0.6449
  581MOL0     C78364   1.738  -0.551   8.678 -1.0903  0.2249 -0.8128
  581MOL0     C78365   1.853  -0.577   8.663  0.0468  0.1376 -0.2869
  581MOL0     C78366   1.257  -0.157   8.369 -0.2777  0.1949 -0.4632
  581MOL0     C78367   1.211  -0.090   8.252 -0.8707  0.3417 -0.7086
  581MOL0     H78368   0.922   0.204   7.975 -0.4005  3.4112 -0.4016
  581MOL0     H78369   0.843   0.298   7.764 -0.5031  0.4027  3.3786
  581MOL0     H78370   0.793   0.180   7.545 -2.0031 -0.7636 -2.9015
  581MOL0     H78371   0.787   0.358   7.514  1.4905  1.6773 -2.4310
  581MOL0     H78372   0.886   0.124   7.335 -3.0257 -1.7123 -0.8009
  581MOL0     H78373   0.724   0.201   7.331 -0.3015 -0.3635  0.0498
  581MOL0     H78374   0.801   0.415   7.268 -2.8600 -2.6225 -0.4791
  581MOL0     H78375   0.975   0.377   7.298  0.2573  1.4720 -2.3607
  581MOL0     H78376   0.934   0.216   7.093  1.3663  1.1102 -1.9809
  581MOL0     H78377   0.784   0.323   7.076  1.0423  3.3827 -3.2978
  581MOL0     H78378   0.928   0.529   7.058  2.5054  0.3125  0.5472
  581MOL0     H78379   1.063   0.420   7.047  1.3262 -0.1901 -2.0646
  581MOL0     H78380   0.974   0.322   6.835 -2.1564 -0.5556 -1.7398
  581MOL0     H78381   0.820   0.396   6.867  0.9371 -1.4829  1.3433
  581MOL0     H78382   0.922   0.517   6.704  1.9523 -3.8118  0.2806
  581MOL0     H78383   0.902   0.627   6.853 -1.5560  1.4858 -2.1833
  581MOL0     H78384   1.171   0.506   6.839  0.4494 -0.3486 -0.9393
  581MOL0     H78385   1.126   0.670   6.853  3.8267 -0.3149 -0.8685
  581MOL0     H78386   1.359   0.670   6.715  0.5956  0.1785 -0.4391
  581MOL0     H78387   1.410   0.738   6.328  0.4438  2.4175  0.8143
  581MOL0     H78388   1.452   0.800   6.491 -2.8718  0.6906  1.5865
  581MOL0     H78389   1.625   0.641   6.368 -1.1460  0.8342 -1.4528
  581MOL0     H78390   1.505   0.516   6.382  1.3159  0.7267 -1.8499
  581MOL0     H78391   1.507   0.520   6.618 -0.7985  0.3130 -3.0407
  581MOL0     H78392   1.604   0.675   6.626  1.5499  1.2902 -2.1931
  581MOL0     H78393   1.694   0.406   6.505  0.1883  0.1278 -0.5228
  581MOL0     H78394   1.699   0.440   6.682  0.1211  0.5781 -0.2689
  581MOL0     H78395   1.897   0.313   6.645  0.0559 -0.5698  2.3894
  581MOL0     H78396   2.230   0.170   6.750 -0.5444  2.6711  2.2553
  581MOL0     H78397   2.057   0.165   6.762  0.2278  2.1834 -0.0101
  581MOL0     H78398   2.138   0.095   6.617 -1.9323 -2.7891  1.9328
  581MOL0     H78399   2.666   0.554   6.777  1.5165 -2.9632  2.4947
  581MOL0     H78400   2.896   0.518   6.730  1.7981  1.3898 -2.7661
  581MOL0     H78401   3.070   0.259   6.357  1.3144  0.4953  0.2111
  581MOL0     H78402   2.989   0.418   6.340  0.1037  1.2227  1.1341
  581MOL0     H78403   3.210   0.429   6.269 -0.1359  0.7015  1.0158
  581MOL0     H78404   3.201   0.527   6.409  1.0368  1.3338 -2.2880
  581MOL0     H78405   3.349   0.258   6.383  0.1077  0.1398 -0.5095
  581MOL0     H78406   3.303   0.339   6.547 -0.0233  2.0880  0.4073
  581MOL0     H78407   3.408   0.540   6.403 -1.0697 -0.1015  2.1597
  581MOL0     H78408   3.474   0.440   6.540 -1.6331  2.0150  1.4741
  581MOL0     H78409   3.557   0.286   6.370 -0.0692 -0.1930 -3.1198
  581MOL0     H78410   3.631   0.452   6.367  0.9170 -1.5176 -0.0486
  581MOL0     H78411   3.475   0.297   6.167 -1.3686 -0.7285  0.6554
  581MOL0     H78412   3.449   0.467   6.162  1.8259  1.6315 -0.4897
  581MOL0     H78413   3.620   0.397   6.001 -3.1735  1.9816  1.0816
  581MOL0     H78414   3.713   0.318   6.129 -0.4793 -1.3196 -3.2640
  581MOL0     H78415   3.826   0.525   6.080  0.1123 -6.0192 -0.9786
  581MOL0     H78416   3.755   0.535   6.234 -1.1960  0.7487  0.0145
  581MOL0     H78417   2.802   0.307   6.365  0.1754  0.9493  0.5610
  581MOL0     H78418   2.568   0.347   6.408 -1.1293  0.6070  0.8144
  581MOL0     H78419   2.270   0.606   6.532  1.9327 -1.6204 -2.4842
  581MOL0     H78420   2.058   0.684   6.504  3.1439  0.1901 -1.6398
  581MOL0     H78421   1.201   0.148   7.573 -0.8201 -2.8812 -0.2283
  581MOL0     H78422   1.266   0.038   7.794  0.2502  1.1472  4.5590
  581MOL0     H78423   1.448   0.161   8.245  0.5320 -0.2397  0.3775
  581MOL0     H78424   1.523   0.048   8.449  0.3565 -1.1755  1.1202
  581MOL0     H78425   1.266  -0.283   8.630  1.2681  0.3225  0.8480
  581MOL0     H78426   1.382  -0.345   8.525  1.3486  0.1573 -0.8454
  581MOL0     H78427   1.397  -0.398   8.795  1.6939  0.1624  1.2314
  581MOL0     H78428   1.462  -0.232   8.798 -0.3189  3.6532 -4.8644
  581MOL0     H78429   1.664  -0.328   8.781 -0.1271  0.5511  0.5751
  581MOL0     H78430   1.620  -0.319   8.611  1.1957 -0.5356  0.5566
  581MOL0     H78431   1.531  -0.548   8.620 -0.3896 -0.2350  0.3839
  581MOL0     H78432   1.539  -0.547   8.782 -1.5361  1.2860  0.8842
  581MOL0     H78433   1.957  -0.600   8.649 -0.3605 -1.4044 -1.0609
  581MOL0     H78434   1.210  -0.241   8.419  3.5831 -2.6043 -1.0910
  581MOL0     H78435   1.123  -0.130   8.202  0.8932 -3.1431 -1.3402
  582MOL0     O78436   0.929   6.732   6.186  0.0423 -0.4122 -0.3231
  582MOL0     C78437   0.883   6.827   6.252  1.1949  0.2768  0.2019
  582MOL0     O78438   0.803   6.809   6.362  0.1429  0.9514  0.0140
  582MOL0     C78439   0.734   6.696   6.393  0.0161  0.0521 -0.4210
  582MOL0     C78440   0.796   6.566   6.374  0.1502 -0.5740  1.0992
  582MOL0     C78441   0.735   6.447   6.432  1.2088 -0.7486  0.1383
  582MOL0     C78442   0.600   6.452   6.493  0.2401  0.6554  0.1613
  582MOL0     O78443   0.536   6.342   6.536 -0.3678  0.5917  0.1653
  582MOL0     C78444   0.493   6.335   6.670 -0.2773 -0.7891  0.0784
  582MOL0     C78445   0.354   6.284   6.675  0.1386 -0.3484  0.1408
  582MOL0     C78446   0.327   6.183   6.789  0.2398 -0.2308 -0.8619
  582MOL0     C78447   0.177   6.140   6.783 -0.0075  0.1515  0.3664
  582MOL0     C78448   0.143   6.030   6.873  0.4125  0.4355  0.4121
  582MOL0     C78449  -0.009   5.992   6.869 -0.2051 -0.6350  0.9410
  582MOL0     C78450  -0.034   5.864   6.954  0.1496 -0.9536  0.1095
  582MOL0     C78451  -0.041   5.903   7.100  0.3485  0.1564 -1.0350
  582MOL0     N78452  -0.177   5.926   7.148  0.4949 -0.0645 -0.2569
  582MOL0     C78453  -0.259   6.030   7.106  0.5228  0.8724 -0.6750
  582MOL0     C78454  -0.369   6.013   7.170  0.3811 -0.1625  0.2392
  582MOL0     C78455  -0.476   6.110   7.196  0.1459  0.6300  0.7685
  582MOL0     C78456  -0.482   6.146   7.343  1.1103  0.4136 -0.3076
  582MOL0     C78457  -0.619   6.220   7.363  0.4212 -0.2458  0.2230
  582MOL0     C78458  -0.627   6.284   7.510 -0.4512 -0.1959  0.0755
  582MOL0     O78459  -0.523   6.378   7.511 -0.0274  0.5722  0.1604
  582MOL0     C78460  -0.455   6.411   7.627 -0.3336 -0.0630 -0.4714
  582MOL0     C78461  -0.485   6.362   7.749 -0.1180 -0.9199 -0.4782
  582MOL0     C78462  -0.415   6.418   7.864 -0.2876 -0.2555 -1.2983
  582MOL0     C78463  -0.451   6.361   7.996 -0.2099  0.2172  0.2688
  582MOL0     C78464  -0.319   6.522   7.849 -0.2340 -1.1815 -0.0594
  582MOL0     C78465  -0.230   6.574   7.950  0.0704 -0.1586 -0.0492
  582MOL0     O78466  -0.267   6.569   8.086 -0.3259  0.4419 -0.2829
  582MOL0     C78467  -0.169   6.608   8.177 -0.6079 -0.5175  0.1309
  582MOL0     C78468  -0.170   6.743   8.230 -0.2088  0.0358  0.3855
  582MOL0     C78469  -0.089   6.764   8.341  0.4386 -0.1568  0.0449
  582MOL0     C78470  -0.002   6.669   8.393 -0.8846 -0.0349  0.6104
  582MOL0     O78471   0.087   6.695   8.489  0.1430  0.1467 -0.0755
  582MOL0     C78472   0.113   6.596   8.588 -0.0748  0.2341  0.5472
  582MOL0     C78473  -0.011   6.571   8.672 -0.1041 -0.6661  0.1074
  582MOL0     C78474  -0.060   6.693   8.756 -0.0224  1.6228 -0.8051
  582MOL0     C78475  -0.201   6.670   8.802 -0.8080  0.6241  0.4573
  582MOL0     C78476  -0.248   6.786   8.890  0.5954  0.2854  0.1015
  582MOL0     C78477  -0.405   6.747   8.927 -0.5832 -0.3124 -0.1562
  582MOL0     C78478  -0.462   6.848   9.032  1.0609  0.1642  0.1059
  582MOL0     C78479  -0.491   7.000   8.986  0.5196  0.4444 -0.3879
  582MOL0    Cl78480  -0.539   7.077   9.129  0.0039  0.2707  0.1033
  582MOL0     C78481   0.015   6.547   8.318  0.4385  0.5138  0.3340
  582MOL0     C78482  -0.079   6.514   8.223 -0.9170 -0.0851  0.0400
  582MOL0     O78483  -0.121   6.622   7.916 -0.2592 -0.0819  0.3256
  582MOL0     C78484  -0.303   6.573   7.717 -0.3922  0.7473 -0.2226
  582MOL0     C78485  -0.366   6.519   7.610 -0.2228 -0.2722 -0.3369
  582MOL0     N78486  -0.357   5.896   7.252 -0.4112  0.1812  0.3097
  582MOL0     N78487  -0.244   5.844   7.237 -0.5947  0.4818  0.3112
  582MOL0     C78488   0.547   6.579   6.504  0.2218 -0.8481  1.0091
  582MOL0     C78489   0.602   6.698   6.447 -0.3803  0.0856 -0.7534
  582MOL0     C78490   0.918   6.965   6.215  0.3256 -0.2626 -0.2132
  582MOL0     C78491   0.907   7.082   6.290  0.4083 -0.3687 -0.3508
  582MOL0     C78492   0.949   7.211   6.248  0.1356 -0.5614 -0.5032
  582MOL0     C78493   0.983   7.235   6.112  0.6984 -0.2321  0.0789
  582MOL0     O78494   1.003   7.356   6.049  0.5156 -0.2580 -0.3504
  582MOL0     C78495   1.111   7.435   6.095 -0.5060 -0.5838  0.2365
  582MOL0     C78496   1.052   7.575   6.141  0.8141 -0.1633  0.2567
  582MOL0     C78497   1.171   7.657   6.206  0.3140  0.9839  0.5604
  582MOL0     C78498   1.105   7.772   6.276 -0.5377 -0.7938  0.8090
  582MOL0     C78499   1.047   7.733   6.406  0.9109  0.8762  0.2602
  582MOL0     C78500   1.003   7.666   6.502 -0.4794 -0.0053  0.1289
  582MOL0     C78501   1.013   7.119   6.035 -0.0708  0.2341 -0.0827
  582MOL0     C78502   0.986   6.990   6.092  0.2787 -0.0395  0.3601
  582MOL0     H78503   0.890   6.539   6.326 -0.4646 -1.0263  0.1183
  582MOL0     H78504   0.784   6.351   6.427 -1.3248 -2.1579  0.9373
  582MOL0     H78505   0.557   6.261   6.719 -0.3701 -3.0358 -2.8843
  582MOL0     H78506   0.500   6.435   6.714  0.3167  0.8242 -3.3745
  582MOL0     H78507   0.276   6.361   6.684 -0.3114 -0.5114 -1.8096
  582MOL0     H78508   0.350   6.219   6.586  2.9443 -0.8004  0.2620
  582MOL0     H78509   0.391   6.096   6.773  0.1439 -0.2240 -1.3124
  582MOL0     H78510   0.343   6.231   6.886 -4.6856  1.7206 -0.7376
  582MOL0     H78511   0.118   6.227   6.812  0.3691  1.4967 -2.5491
  582MOL0     H78512   0.156   6.109   6.680 -1.4104 -1.5514  1.1254
  582MOL0     H78513   0.193   5.942   6.833  1.1285  1.6124 -1.4040
  582MOL0     H78514   0.183   6.045   6.974 -0.1847 -0.4766  0.7933
  582MOL0     H78515  -0.067   6.081   6.893  1.1595 -0.0137  2.1139
  582MOL0     H78516  -0.043   5.956   6.772 -0.4672 -0.8720  1.1189
  582MOL0     H78517  -0.134   5.829   6.930 -1.9785  3.8448  0.8065
  582MOL0     H78518   0.050   5.800   6.927  0.9699  0.2448 -0.2997
  582MOL0     H78519   0.030   5.983   7.124  3.0870 -2.4272  0.1062
  582MOL0     H78520   0.003   5.820   7.156 -1.3663 -1.5023 -2.0406
  582MOL0     H78521  -0.222   6.110   7.042  2.1110  1.2830  0.6816
  582MOL0     H78522  -0.456   6.199   7.135  3.1831 -0.1801  0.4360
  582MOL0     H78523  -0.564   6.052   7.164  2.1697 -1.3027 -1.7642
  582MOL0     H78524  -0.390   6.198   7.373  1.5891 -0.3856 -0.3738
  582MOL0     H78525  -0.495   6.063   7.413 -0.6313  1.1591  0.3229
  582MOL0     H78526  -0.703   6.152   7.346  0.3791 -0.1731  0.1414
  582MOL0     H78527  -0.626   6.301   7.290  0.0542 -1.7551 -1.5038
  582MOL0     H78528  -0.608   6.201   7.578  3.0820  2.0435  2.0931
  582MOL0     H78529  -0.721   6.337   7.528 -0.0048 -0.7653  5.6028
  582MOL0     H78530  -0.569   6.294   7.760 -4.7491  3.8090 -1.8082
  582MOL0     H78531  -0.376   6.372   8.076 -1.2646 -1.6943  1.6237
  582MOL0     H78532  -0.546   6.404   8.029 -0.7687  0.1592 -1.1992
  582MOL0     H78533  -0.462   6.253   7.984 -0.5009  0.3420 -0.5828
  582MOL0     H78534  -0.241   6.817   8.194 -1.1487 -0.6545  0.7776
  582MOL0     H78535  -0.092   6.867   8.374 -0.6870 -1.2105  3.6239
  582MOL0     H78536   0.149   6.501   8.549 -1.6084  0.8052 -2.5397
  582MOL0     H78537   0.200   6.629   8.645 -0.0888 -0.0919  0.7591
  582MOL0     H78538  -0.096   6.533   8.614 -1.4087 -0.8806  2.0674
  582MOL0     H78539   0.002   6.490   8.745 -2.7165  0.7222  2.3232
  582MOL0     H78540  -0.062   6.783   8.694  2.5436  1.9215 -0.5502
  582MOL0     H78541   0.005   6.702   8.843  1.7820 -7.5704 -0.2059
  582MOL0     H78542  -0.274   6.650   8.723  1.2998  1.6924 -1.8703
  582MOL0     H78543  -0.200   6.584   8.870 -1.5055  0.0895 -0.1926
  582MOL0     H78544  -0.246   6.883   8.840  0.7792 -0.9225 -2.4113
  582MOL0     H78545  -0.193   6.799   8.983 -2.5900  0.6495  2.0962
  582MOL0     H78546  -0.466   6.761   8.837  2.6161  1.2666 -2.2751
  582MOL0     H78547  -0.414   6.646   8.967  0.7451  0.3379  1.9674
  582MOL0     H78548  -0.393   6.840   9.117 -0.4519 -2.8401  1.2095
  582MOL0     H78549  -0.553   6.801   9.069 -0.3914  0.1792 -3.1554
  582MOL0     H78550  -0.573   7.006   8.914 -0.6134 -1.7745  0.6251
  582MOL0     H78551  -0.408   7.052   8.937 -0.1077  2.2289  0.3494
  582MOL0     H78552   0.093   6.476   8.344  0.2339  0.5101  0.9789
  582MOL0     H78553  -0.077   6.414   8.181 -1.3158  0.3605 -1.0877
  582MOL0     H78554  -0.244   6.660   7.689  0.1059  0.6246  0.4220
  582MOL0     H78555  -0.354   6.560   7.510 -0.5904 -1.8070 -1.0460
  582MOL0     H78556   0.449   6.583   6.550  0.5370  0.8056  1.6135
  582MOL0     H78557   0.554   6.793   6.467 -1.3438 -0.1507 -1.8400
  582MOL0     H78558   0.866   7.074   6.390  3.1285 -0.1724  0.8751
  582MOL0     H78559   0.945   7.297   6.314  0.0907 -1.5746  0.8469
  582MOL0     H78560   1.158   7.393   6.184  0.6108 -0.3482 -0.2341
  582MOL0     H78561   1.185   7.456   6.018 -0.1829  0.4156  0.8035
  582MOL0     H78562   0.972   7.559   6.214  1.0687  1.6204  0.9758
  582MOL0     H78563   1.000   7.630   6.062  1.0570  0.4266  0.4955
  582MOL0     H78564   1.239   7.690   6.127  1.4036  1.9275  1.8418
  582MOL0     H78565   1.209   7.591   6.285  1.0777 -0.6010 -1.0616
  582MOL0     H78566   1.044   7.819   6.198 -0.8341 -0.1658  1.4133
  582MOL0     H78567   1.177   7.851   6.296  3.2612 -3.4603 -1.0893
  582MOL0     H78568   0.965   7.628   6.594  1.7715  1.8991  1.9820
  582MOL0     H78569   1.057   7.113   5.936 -1.1998 -4.3534 -0.5249
  582MOL0     H78570   1.006   6.898   6.038  0.0483 -0.4397  0.9363
  583MOL0     O78571  10.980   8.695   0.756 -0.0430  0.1020 -0.5442
  583MOL0     C78572  10.982   8.574   0.775 -1.3000  0.3595 -0.0231
  583MOL0     O78573  11.078   8.504   0.849  0.6069  0.1398 -0.2385
  583MOL0     C78574  11.170   8.571   0.928  1.6437 -0.0265  0.0747
  583MOL0     C78575  11.134   8.686   1.004  0.0649  0.2328 -0.5806
  583MOL0     C78576  11.230   8.742   1.087 -0.9382 -0.5482 -1.3994
  583MOL0     C78577  11.360   8.682   1.110 -0.7195 -0.3294  0.1919
  583MOL0     O78578  11.458   8.732   1.194  0.0640 -0.4833 -0.0305
  583MOL0     C78579  11.599   8.719   1.163 -0.1285 -0.1102 -0.5695
  583MOL0     C78580  11.674   8.816   1.242 -0.2746 -0.5515 -0.5458
  583MOL0     C78581  11.830   8.788   1.234  0.2802 -0.5116  0.3678
  583MOL0     C78582  11.912   8.917   1.260  0.0219  0.5906 -0.1985
  583MOL0     C78583  11.880   8.985   1.387  1.1430 -0.0874 -1.0904
  583MOL0     C78584  11.915   8.890   1.507  0.0847  0.4725 -0.3275
  583MOL0     C78585  11.867   8.939   1.639 -0.1395  0.0133  0.1716
  583MOL0     C78586  11.920   9.068   1.685 -1.5995 -0.1680 -0.3951
  583MOL0     N78587  12.071   9.068   1.690 -0.3260  0.1769 -0.0155
  583MOL0     C78588  12.160   8.972   1.738  0.6831  0.0865 -0.8090
  583MOL0     C78589  12.284   9.020   1.695  0.8769  0.5226 -0.2041
  583MOL0     C78590  12.415   8.949   1.713 -0.6037 -0.1854  0.2071
  583MOL0     C78591  12.496   8.957   1.576  0.0586  0.0396  1.5635
  583MOL0     C78592  12.433   8.870   1.463 -0.3615  0.4805  0.8450
  583MOL0     C78593  12.464   8.720   1.459 -0.1916  0.5765 -0.0722
  583MOL0     O78594  12.451   8.659   1.328 -0.0250 -0.5471  0.3199
  583MOL0     C78595  12.343   8.585   1.287 -0.8784  0.4322  1.5748
  583MOL0     C78596  12.229   8.561   1.363 -0.3795 -0.1585 -1.3819
  583MOL0     C78597  12.119   8.482   1.321 -0.7049  0.2629 -0.0541
  583MOL0     C78598  12.013   8.452   1.424 -0.5768 -0.4149  0.5851
  583MOL0     C78599  12.136   8.423   1.194  0.0998  0.8344  0.1840
  583MOL0     C78600  12.026   8.349   1.132 -0.1225  0.0018 -0.7724
  583MOL0     O78601  11.977   8.402   1.015  0.4347  0.0035  0.4485
  583MOL0     C78602  11.870   8.336   0.953  0.0189 -0.1291  0.5295
  583MOL0     C78603  11.763   8.417   0.911 -0.0902  0.1089  0.6543
  583MOL0     C78604  11.656   8.359   0.844 -0.4327 -0.4316 -0.3590
  583MOL0     C78605  11.649   8.219   0.821 -1.0254 -0.2509  0.5219
  583MOL0     O78606  11.542   8.178   0.764 -0.6803  1.0065  0.7319
  583MOL0     C78607  11.480   8.054   0.815  0.0718 -0.3460 -0.2282
  583MOL0     C78608  11.463   8.062   0.969 -0.0065 -0.6113  0.7910
  583MOL0     C78609  11.385   7.931   1.013 -0.3145  0.2289 -0.6375
  583MOL0     C78610  11.343   7.929   1.161  0.9246  0.6394  1.1424
  583MOL0     C78611  11.284   7.797   1.224  0.3804 -0.0015 -1.0418
  583MOL0     C78612  11.248   7.827   1.367  0.3642  0.6945 -0.0911
  583MOL0     C78613  11.215   7.699   1.441 -0.7338 -0.6067  0.0525
  583MOL0     C78614  11.199   7.711   1.590  0.6014 -0.4277 -0.2006
  583MOL0    Cl78615  11.047   7.790   1.643  0.2905 -0.6041 -0.4437
  583MOL0     C78616  11.764   8.149   0.852  0.1343 -0.0090 -0.7745
  583MOL0     C78617  11.870   8.207   0.924 -0.3497 -0.3954 -0.0990
  583MOL0     O78618  11.977   8.250   1.186 -0.3220  0.6262 -0.1111
  583MOL0     C78619  12.250   8.440   1.115  0.3632  0.3806  0.2263
  583MOL0     C78620  12.356   8.515   1.163  0.5144  0.5395 -0.0039
  583MOL0     N78621  12.273   9.142   1.635  0.1913  0.0886  1.2315
  583MOL0     N78622  12.145   9.159   1.633 -0.0156 -0.1584  0.1728
  583MOL0     C78623  11.389   8.568   1.032  0.9440 -0.7736 -0.4156
  583MOL0     C78624  11.302   8.521   0.947  0.1955  0.6631  1.1131
  583MOL0     C78625  10.878   8.490   0.707  0.2249 -0.2803  0.0631
  583MOL0     C78626  10.815   8.526   0.584  0.4076  0.2110  0.3713
  583MOL0     C78627  10.724   8.437   0.533  0.5460  0.1735  0.4991
  583MOL0     C78628  10.682   8.319   0.604 -0.4331  0.3478  0.0987
  583MOL0     O78629  10.582   8.234   0.559  0.6664 -0.2980  0.2529
  583MOL0     C78630  10.475   8.302   0.487  0.3923  0.4946 -1.0822
  583MOL0     C78631  10.347   8.240   0.522 -0.2949 -0.2738  0.2730
  583MOL0     C78632  10.316   8.266   0.669 -0.1637  1.0244 -1.0236
  583MOL0     C78633  10.208   8.168   0.722  0.5183 -0.5388 -0.4061
  583MOL0     C78634  10.097   8.156   0.636  0.0662  0.5052 -0.8790
  583MOL0     C78635  10.024   8.128   0.543  0.0966 -0.1704  0.3780
  583MOL0     C78636  10.755   8.283   0.716 -0.2176 -0.3209 -0.2825
  583MOL0     C78637  10.849   8.365   0.762  0.6453 -1.5495  0.6241
  583MOL0     H78638  11.031   8.718   1.017  1.3388  4.0499  1.6101
  583MOL0     H78639  11.195   8.819   1.154  1.2379 -0.6724 -0.0457
  583MOL0     H78640  11.630   8.616   1.183 -0.6406 -0.6371 -2.2885
  583MOL0     H78641  11.609   8.739   1.056  3.2762 -0.4093 -0.4093
  583MOL0     H78642  11.654   8.916   1.205  0.9523 -0.9753 -2.5539
  583MOL0     H78643  11.645   8.811   1.347 -0.4497 -0.8225 -0.6060
  583MOL0     H78644  11.854   8.712   1.310 -0.9124 -2.1752 -0.8479
  583MOL0     H78645  11.864   8.756   1.135  0.4758  0.5423  0.0820
  583MOL0     H78646  12.018   8.890   1.263  0.7203  3.0982  0.6159
  583MOL0     H78647  11.899   8.988   1.177 -1.5112  0.7601  0.1721
  583MOL0     H78648  11.929   9.082   1.394 -3.4243  2.5877 -2.0505
  583MOL0     H78649  11.772   9.005   1.389  0.5874 -2.7287 -0.0466
  583MOL0     H78650  11.856   8.798   1.500 -0.3137  0.6855  0.2443
  583MOL0     H78651  12.022   8.867   1.515 -0.3514 -0.9873  3.7502
  583MOL0     H78652  11.757   8.938   1.639 -0.2038 -3.1153  1.4501
  583MOL0     H78653  11.883   8.870   1.722 -0.0786 -0.7618 -0.4706
  583MOL0     H78654  11.893   9.087   1.789 -1.8018  0.7096 -0.5948
  583MOL0     H78655  11.876   9.149   1.627 -0.3499  1.7267  1.1617
  583MOL0     H78656  12.133   8.877   1.783  0.9190 -2.5935 -5.6657
  583MOL0     H78657  12.470   9.009   1.787  1.9921 -1.2740 -0.7152
  583MOL0     H78658  12.405   8.845   1.743 -3.7685  0.6074  2.4279
  583MOL0     H78659  12.601   8.929   1.593 -0.1215 -1.6812  0.1325
  583MOL0     H78660  12.502   9.053   1.523  1.0338 -0.4175  0.8006
  583MOL0     H78661  12.472   8.900   1.366 -0.6130 -3.4563 -0.6684
  583MOL0     H78662  12.325   8.882   1.467 -0.2066  2.1206  0.9009
  583MOL0     H78663  12.432   8.653   1.540  0.9343 -2.2179 -1.8034
  583MOL0     H78664  12.573   8.717   1.464 -0.1154 -1.3323 -1.6284
  583MOL0     H78665  12.229   8.602   1.464 -2.1923  1.2731 -1.9141
  583MOL0     H78666  11.913   8.482   1.392 -0.1069  0.0882 -0.4902
  583MOL0     H78667  12.017   8.347   1.456 -1.0038 -0.1004  1.7196
  583MOL0     H78668  12.036   8.520   1.506 -2.2464 -0.0356  0.7633
  583MOL0     H78669  11.758   8.522   0.937 -1.0983 -0.0062  0.9614
  583MOL0     H78670  11.574   8.416   0.803 -3.2198 -4.3470 -0.8194
  583MOL0     H78671  11.380   8.039   0.773 -0.7179  0.2600  1.3738
  583MOL0     H78672  11.535   7.964   0.784 -1.5906 -1.2629 -0.6555
  583MOL0     H78673  11.552   8.058   1.033 -0.6092 -2.9014  1.5733
  583MOL0     H78674  11.395   8.142   1.002 -1.1034  0.1974 -2.9986
  583MOL0     H78675  11.452   7.847   0.993 -1.1060 -0.4775 -0.3564
  583MOL0     H78676  11.290   7.915   0.963 -1.6055 -0.7920  1.9831
  583MOL0     H78677  11.432   7.958   1.218  1.1215  1.1493  0.5753
  583MOL0     H78678  11.272   8.011   1.171 -0.4760 -0.2319 -0.9111
  583MOL0     H78679  11.360   7.718   1.225  0.1098 -0.3665  1.8917
  583MOL0     H78680  11.194   7.766   1.171 -1.6526  4.6626 -0.8083
  583MOL0     H78681  11.337   7.865   1.418 -0.8778  4.7314 -0.5684
  583MOL0     H78682  11.171   7.905   1.369  0.4641  0.7789  0.5983
  583MOL0     H78683  11.285   7.618   1.420  0.6766  0.7484 -0.6880
  583MOL0     H78684  11.114   7.661   1.419 -1.9809  1.2953  2.0731
  583MOL0     H78685  11.284   7.770   1.627  0.9027 -0.0434 -1.4639
  583MOL0     H78686  11.217   7.612   1.633 -0.3083  0.1628  1.6567
  583MOL0     H78687  11.771   8.042   0.840 -2.6460 -0.0070 -3.6805
  583MOL0     H78688  11.951   8.144   0.960 -2.3370 -2.5817  0.8197
  583MOL0     H78689  12.264   8.395   1.018  5.1217  2.1610 -0.1926
  583MOL0     H78690  12.445   8.531   1.103  0.3080  3.4583  0.3425
  583MOL0     H78691  11.485   8.518   1.022 -0.3982 -3.9077  0.9638
  583MOL0     H78692  11.333   8.436   0.887  0.2365  1.3283  0.1845
  583MOL0     H78693  10.840   8.618   0.532 -2.5213  0.9818  0.1673
  583MOL0     H78694  10.673   8.464   0.441 -2.0310 -1.7572  1.2374
  583MOL0     H78695  10.469   8.406   0.519 -1.2195  1.0429 -2.9551
  583MOL0     H78696  10.486   8.301   0.378  1.9623  1.0365 -0.9613
  583MOL0     H78697  10.345   8.133   0.496  0.9029  0.2001 -2.0487
  583MOL0     H78698  10.272   8.292   0.462  0.1873  1.6426  1.2822
  583MOL0     H78699  10.274   8.366   0.681  0.7367  1.5481 -2.0834
  583MOL0     H78700  10.397   8.252   0.741 -4.0568  2.0491  4.1837
  583MOL0     H78701  10.181   8.187   0.826 -0.5457 -3.3176 -0.0785
  583MOL0     H78702  10.247   8.066   0.734  0.8603 -0.5500 -1.5006
  583MOL0     H78703   9.965   8.120   0.454  1.9788  2.9816 -1.3412
  583MOL0     H78704  10.750   8.187   0.767 -0.5346 -0.6205 -0.8637
  583MOL0     H78705  10.906   8.322   0.844 -0.6458 -2.2744  1.1851
  584MOL0     O78706   6.628   2.494   8.250  0.2535  0.8419  0.6943
  584MOL0     C78707   6.706   2.535   8.338 -0.9508 -0.0650 -0.0425
  584MOL0     O78708   6.710   2.493   8.465 -0.2454 -0.2790 -0.7230
  584MOL0     C78709   6.628   2.391   8.518  0.5535 -0.0492  0.3411
  584MOL0     C78710   6.667   2.260   8.527  0.2182  0.2509 -0.1344
  584MOL0     C78711   6.589   2.154   8.592  0.4540 -0.7040  0.1451
  584MOL0     C78712   6.468   2.197   8.654 -0.8384 -0.1521  0.4156
  584MOL0     O78713   6.392   2.109   8.719  0.4061 -0.6560 -0.3613
  584MOL0     C78714   6.438   1.973   8.745  0.2035  0.2074 -0.9967
  584MOL0     C78715   6.376   1.855   8.656  0.1783 -0.7030  0.5587
  584MOL0     C78716   6.353   1.722   8.737 -0.5203 -0.0720  0.0614
  584MOL0     C78717   6.270   1.631   8.656  0.1013 -0.9329  0.6522
  584MOL0     C78718   6.257   1.490   8.693 -0.1759  0.8875 -0.8449
  584MOL0     C78719   6.142   1.428   8.594 -0.1507 -0.0881 -0.2844
  584MOL0     C78720   6.143   1.277   8.565  0.6319  0.5216  0.5385
  584MOL0     C78721   6.018   1.231   8.486  0.1227 -0.8588  0.3036
  584MOL0     N78722   6.016   1.086   8.505  0.6332 -0.6487 -0.9639
  584MOL0     C78723   6.009   1.012   8.622 -0.2712  0.7259 -0.7053
  584MOL0     C78724   6.021   0.880   8.584  0.2293  0.1675 -0.3742
  584MOL0     C78725   5.993   0.768   8.679 -1.0613 -0.6362  0.5923
  584MOL0     C78726   6.105   0.757   8.777 -0.4659 -0.2364 -0.3053
  584MOL0     C78727   6.068   0.674   8.900  0.2261  0.4793  1.3885
  584MOL0     C78728   6.183   0.643   8.994  0.2401 -0.2809  0.3156
  584MOL0     O78729   6.249   0.751   9.063 -0.3702  0.3118 -0.0866
  584MOL0     C78730   6.358   0.701   9.129 -0.0297  0.0906 -0.0263
  584MOL0     C78731   6.498   0.714   9.092  0.7651 -0.1273 -0.2366
  584MOL0     C78732   6.605   0.677   9.174 -0.5924  0.3544 -0.5098
  584MOL0     C78733   6.730   0.649   9.105 -0.0677 -0.5532  0.2143
  584MOL0     C78734   6.584   0.616   9.298 -0.5764 -0.2070 -0.3710
  584MOL0     C78735   6.690   0.570   9.396  0.0697 -0.1011  0.3263
  584MOL0     O78736   6.634   0.517   9.514 -0.5269  0.1690  0.3039
  584MOL0     C78737   6.709   0.512   9.632  0.7055 -0.4230  1.3176
  584MOL0     C78738   6.628   0.504   9.747  0.1004  0.5992  0.2051
  584MOL0     C78739   6.685   0.510   9.878 -0.6750  1.1580 -1.0197
  584MOL0     C78740   6.825   0.514   9.902  0.3638  1.1410 -0.4393
  584MOL0     O78741   6.889   0.498  10.020 -0.2568 -0.0427 -0.2953
  584MOL0     C78742   6.833   0.424  10.129 -0.1287  0.1606 -0.3785
  584MOL0     C78743   6.919   0.308  10.188  0.3528  0.6132 -0.8187
  584MOL0     C78744   6.843   0.235  10.301  0.1635 -0.5459  0.0714
  584MOL0     C78745   6.940   0.135  10.359 -0.3773  0.4533  0.9664
  584MOL0     C78746   6.895   0.088  10.493 -0.1945  0.5452 -0.2334
  584MOL0     C78747   6.761   0.012  10.497 -0.3905  0.0654 -0.1658
  584MOL0     C78748   6.753  -0.041  10.640 -0.3369  0.4439 -0.3092
  584MOL0     C78749   6.638  -0.147  10.661  0.7750  0.2416 -0.2932
  584MOL0    Cl78750   6.676  -0.198  10.825 -0.0083  0.2497 -0.5815
  584MOL0     C78751   6.899   0.528   9.788  0.2707 -0.6023 -0.0824
  584MOL0     C78752   6.849   0.528   9.658  1.0423 -1.1518  0.7207
  584MOL0     O78753   6.809   0.615   9.386 -0.3315  0.1578  0.1945
  584MOL0     C78754   6.448   0.604   9.340  0.0594 -0.5064  0.7813
  584MOL0     C78755   6.340   0.640   9.253  0.4021  0.4092  0.6496
  584MOL0     N78756   6.054   0.882   8.454 -0.0085  0.0621 -0.0662
  584MOL0     N78757   6.042   0.995   8.399  0.1948  0.2646 -0.6056
  584MOL0     C78758   6.418   2.326   8.629  0.0180 -0.8560  0.2648
  584MOL0     C78759   6.493   2.425   8.561 -0.7372 -0.2852 -0.6303
  584MOL0     C78760   6.803   2.628   8.281 -0.8451  0.1215 -0.4179
  584MOL0     C78761   6.919   2.662   8.348 -0.5535 -0.6285 -0.4694
  584MOL0     C78762   7.010   2.758   8.300  0.4934  0.1284 -0.3994
  584MOL0     C78763   6.973   2.848   8.198  1.1819  0.4561  0.7019
  584MOL0     O78764   7.038   2.954   8.160 -0.3349 -0.5063  0.0801
  584MOL0     C78765   7.161   2.977   8.228  0.3937 -0.1533  0.5497
  584MOL0     C78766   7.211   3.114   8.209 -1.0627 -0.5967  0.6490
  584MOL0     C78767   7.274   3.145   8.082 -0.6579 -0.3219  0.2385
  584MOL0     C78768   7.411   3.078   8.064 -0.3663  0.4803  0.4049
  584MOL0     C78769   7.516   3.122   8.155  0.0976 -0.5295 -0.4438
  584MOL0     C78770   7.583   3.169   8.243  0.0681  0.6253  0.8207
  584MOL0     C78771   6.851   2.823   8.130 -0.0846 -0.0457 -0.8949
  584MOL0     C78772   6.765   2.710   8.169 -0.7161 -0.6996  0.1954
  584MOL0     H78773   6.762   2.224   8.490 -0.2135 -2.3195  1.0540
  584MOL0     H78774   6.629   2.053   8.590 -1.1960 -1.3825 -0.1447
  584MOL0     H78775   6.546   1.963   8.758 -0.3026 -2.0228  3.0860
  584MOL0     H78776   6.404   1.966   8.848  0.0504  1.8812 -0.8980
  584MOL0     H78777   6.280   1.892   8.618  1.4493  1.7594 -0.5442
  584MOL0     H78778   6.435   1.846   8.565  2.0383  3.8084  1.0638
  584MOL0     H78779   6.452   1.687   8.769  0.0514  1.6203  0.2763
  584MOL0     H78780   6.313   1.747   8.835  1.7881  2.0932  0.5605
  584MOL0     H78781   6.171   1.676   8.640  1.7530  4.9674  4.3385
  584MOL0     H78782   6.332   1.621   8.567 -0.1361  0.8919  0.2405
  584MOL0     H78783   6.342   1.421   8.679 -0.7061  0.3725 -1.6527
  584MOL0     H78784   6.224   1.482   8.797 -0.8315 -1.4215 -1.1634
  584MOL0     H78785   6.047   1.459   8.641 -1.1304 -1.2457 -1.4353
  584MOL0     H78786   6.152   1.474   8.495  0.8274 -0.3114 -0.2951
  584MOL0     H78787   6.233   1.250   8.509 -1.7469  0.4087 -3.5404
  584MOL0     H78788   6.156   1.222   8.659  3.3571  0.0711 -0.0116
  584MOL0     H78789   6.032   1.267   8.384 -1.1920  0.4152  0.5350
  584MOL0     H78790   5.933   1.277   8.538  1.3832 -1.6901  3.3096
  584MOL0     H78791   5.985   1.052   8.720 -0.7760 -0.2608 -0.4199
  584MOL0     H78792   5.898   0.786   8.730 -2.0646 -2.6039 -0.4591
  584MOL0     H78793   5.997   0.678   8.617 -1.9653 -0.7675  0.7103
  584MOL0     H78794   6.138   0.857   8.807  1.3470 -0.7307 -0.5778
  584MOL0     H78795   6.190   0.710   8.728  1.2544  1.0376  1.2870
  584MOL0     H78796   6.022   0.579   8.872  2.1278 -0.0351 -0.2758
  584MOL0     H78797   6.001   0.729   8.966 -0.6697 -0.1266  0.9980
  584MOL0     H78798   6.265   0.599   8.936  0.5321 -1.5825  1.6365
  584MOL0     H78799   6.151   0.565   9.063 -2.2945  1.8367  1.6931
  584MOL0     H78800   6.530   0.752   8.996 -0.9907  2.9427  0.2844
  584MOL0     H78801   6.797   0.735   9.119  0.4725 -0.2783 -3.1407
  584MOL0     H78802   6.785   0.559   9.132  2.9297  0.8717 -0.7202
  584MOL0     H78803   6.715   0.639   8.997 -1.4546 -1.3607  0.4520
  584MOL0     H78804   6.521   0.488   9.732  0.7084 -0.8148 -3.7593
  584MOL0     H78805   6.615   0.497   9.960 -0.3624  1.1305 -0.7550
  584MOL0     H78806   6.806   0.506  10.197 -0.9279  0.5084 -1.0960
  584MOL0     H78807   6.734   0.388  10.099  1.4279 -2.6076 -2.6583
  584MOL0     H78808   6.956   0.240  10.110 -1.3936 -0.2996 -0.9160
  584MOL0     H78809   7.008   0.357  10.226  0.0520 -0.8334  1.9755
  584MOL0     H78810   6.755   0.183  10.263  0.8037 -2.5632  1.2090
  584MOL0     H78811   6.803   0.313  10.366 -0.5553 -1.4720  0.7627
  584MOL0     H78812   6.962   0.048  10.296  3.0325  2.3074 -0.7351
  584MOL0     H78813   7.032   0.193  10.373  1.3307 -0.7105 -3.4452
  584MOL0     H78814   6.882   0.168  10.566 -0.4245  0.5669 -0.2958
  584MOL0     H78815   6.965   0.011  10.528 -1.7397 -1.0818 -0.5417
  584MOL0     H78816   6.673   0.077  10.486 -1.1633 -0.9462 -0.0629
  584MOL0     H78817   6.747  -0.073  10.430 -1.0459  0.8068 -1.0038
  584MOL0     H78818   6.740   0.048  10.701 -0.6638  0.6053 -0.6102
  584MOL0     H78819   6.848  -0.079  10.679  0.2654  4.0495  2.2446
  584MOL0     H78820   6.656  -0.224  10.585  2.0112  0.1414  0.0764
  584MOL0     H78821   6.544  -0.094  10.649  0.5005  0.0241  0.7832
  584MOL0     H78822   7.007   0.524   9.785  0.3293 -2.2892  2.1764
  584MOL0     H78823   6.917   0.534   9.573 -1.6040  0.7129 -1.4560
  584MOL0     H78824   6.410   0.566   9.434 -0.0513 -1.9340  0.1863
  584MOL0     H78825   6.235   0.624   9.276  0.6229  0.2232  1.5532
  584MOL0     H78826   6.317   2.347   8.660 -0.3014 -0.8525 -0.7539
  584MOL0     H78827   6.468   2.529   8.545  2.1629  0.2618 -2.2735
  584MOL0     H78828   6.947   2.612   8.441  3.6362  0.0019 -1.2027
  584MOL0     H78829   7.100   2.773   8.358  0.3957  0.7692 -0.4113
  584MOL0     H78830   7.138   2.965   8.335 -2.7260 -2.2709 -0.2171
  584MOL0     H78831   7.229   2.907   8.180 -1.6912 -1.4140 -0.7379
  584MOL0     H78832   7.280   3.148   8.287 -0.6693 -0.0394  0.0646
  584MOL0     H78833   7.114   3.162   8.214 -2.9872 -4.1329  0.7924
  584MOL0     H78834   7.285   3.253   8.073  1.3757 -0.5428 -0.4904
  584MOL0     H78835   7.207   3.126   7.998 -1.4114  0.4389  0.6512
  584MOL0     H78836   7.468   3.098   7.973 -0.4875 -2.0186 -0.2967
  584MOL0     H78837   7.400   2.970   8.078 -2.3916  0.1693 -2.5515
  584MOL0     H78838   7.657   3.205   8.312  0.5576  0.0898  0.5775
  584MOL0     H78839   6.816   2.894   8.056 -1.4015  1.6497  1.2507
  584MOL0     H78840   6.669   2.690   8.123 -1.1019 -0.2944  0.7974
  585MOL0     O78841   2.896   2.808   0.895 -0.3943 -0.4568 -0.0380
  585MOL0     C78842   2.873   2.849   0.787  0.6950  0.8289 -0.2247
  585MOL0     O78843   2.762   2.820   0.714  0.3810  0.4693 -0.0818
  585MOL0     C78844   2.644   2.761   0.762 -0.6666  0.8294 -0.1146
  585MOL0     C78845   2.548   2.719   0.666  1.9114 -0.4839 -0.5656
  585MOL0     C78846   2.416   2.668   0.707  0.3627 -0.5579  1.2002
  585MOL0     C78847   2.399   2.628   0.842 -0.5830  0.5511  0.3750
  585MOL0     O78848   2.295   2.548   0.873  0.0231  0.6585 -0.7167
  585MOL0     C78849   2.312   2.452   0.979  0.0514  0.1638  0.6849
  585MOL0     C78850   2.194   2.361   0.978 -0.7842  0.2005  0.5082
  585MOL0     C78851   2.158   2.301   1.116  0.5711  0.6907  0.8027
  585MOL0     C78852   2.029   2.206   1.098  1.2731 -0.1482 -0.8740
  585MOL0     C78853   1.977   2.156   1.237  0.2781  0.3489  0.2557
  585MOL0     C78854   1.828   2.126   1.224  0.0327 -0.1823  0.2068
  585MOL0     C78855   1.783   2.012   1.306  0.5479 -1.1133  0.1800
  585MOL0     C78856   1.630   1.971   1.284 -0.8857 -0.4732  0.2298
  585MOL0     N78857   1.520   2.082   1.277 -0.5095  0.1996  0.6478
  585MOL0     C78858   1.483   2.158   1.383 -0.7842 -0.4394  0.7367
  585MOL0     C78859   1.375   2.237   1.337 -0.2144 -0.4374  0.9060
  585MOL0     C78860   1.318   2.343   1.418 -0.0272  0.4188 -0.0118
  585MOL0     C78861   1.187   2.299   1.491  0.0723 -0.0455 -0.3980
  585MOL0     C78862   1.074   2.269   1.394 -0.5763  0.2802  0.1156
  585MOL0     C78863   0.950   2.280   1.470 -1.1269 -0.1072  0.3005
  585MOL0     O78864   0.850   2.258   1.372 -0.2022 -0.0869 -0.4983
  585MOL0     C78865   0.715   2.269   1.397  0.0446  0.4426 -1.1593
  585MOL0     C78866   0.667   2.315   1.523  0.8522  0.0056  0.2397
  585MOL0     C78867   0.531   2.327   1.538 -0.6285 -0.3647 -0.0544
  585MOL0     C78868   0.492   2.388   1.666  0.2030 -0.6859 -0.5269
  585MOL0     C78869   0.442   2.283   1.445  0.0081 -1.1663  0.1626
  585MOL0     C78870   0.294   2.288   1.468 -0.3984 -1.6670 -0.1811
  585MOL0     O78871   0.218   2.302   1.359 -0.2125 -0.7258  0.0021
  585MOL0     C78872   0.088   2.288   1.375 -0.1151 -0.4141  0.4751
  585MOL0     C78873   0.024   2.161   1.348  0.1631 -1.2624  0.4636
  585MOL0     C78874  -0.120   2.146   1.362 -0.8019 -1.1377 -0.0903
  585MOL0     C78875  -0.192   2.262   1.409  0.2352 -0.3797 -0.1771
  585MOL0     O78876  -0.324   2.237   1.445 -1.3485 -0.5607  0.1333
  585MOL0     C78877  -0.420   2.333   1.479 -0.5059  0.1099 -0.0052
  585MOL0     C78878  -0.556   2.255   1.492 -0.4276  0.4440 -0.4344
  585MOL0     C78879  -0.554   2.160   1.608 -0.2907  0.2832  0.8300
  585MOL0     C78880  -0.686   2.100   1.630  0.5524  0.0809 -0.2834
  585MOL0     C78881  -0.787   2.189   1.707 -0.4733  0.0756  0.3832
  585MOL0     C78882  -0.917   2.189   1.633 -0.5929 -0.8376 -0.6892
  585MOL0     C78883  -1.031   2.251   1.714  0.6887 -1.0211  0.1541
  585MOL0     C78884  -1.099   2.161   1.813  0.0824  0.2957  0.2287
  585MOL0    Cl78885  -1.207   2.246   1.933 -0.1387 -0.0857  0.2386
  585MOL0     C78886  -0.134   2.387   1.432  0.5061 -0.4814 -0.1175
  585MOL0     C78887   0.008   2.392   1.425  0.1308 -0.4320  0.2106
  585MOL0     O78888   0.253   2.301   1.579 -0.3994 -0.7868 -0.0026
  585MOL0     C78889   0.497   2.246   1.319  0.4494 -0.1877  1.1456
  585MOL0     C78890   0.633   2.230   1.289 -0.1542 -0.5098  0.1833
  585MOL0     N78891   1.358   2.206   1.199 -0.3530 -0.4199 -0.4725
  585MOL0     N78892   1.450   2.122   1.160  0.2136 -0.1247 -0.2567
  585MOL0     C78893   2.497   2.668   0.935 -0.4306 -0.2983  0.6132
  585MOL0     C78894   2.610   2.745   0.899  0.1094  0.3064  0.1295
  585MOL0     C78895   2.968   2.939   0.708 -1.1763 -0.3273 -0.1041
  585MOL0     C78896   3.059   3.010   0.777 -0.0888  0.0245  0.1393
  585MOL0     C78897   3.152   3.104   0.714 -0.5459  0.2982  0.6926
  585MOL0     C78898   3.151   3.118   0.577  0.2067 -0.5314  0.4396
  585MOL0     O78899   3.233   3.199   0.504  0.2836  0.1273  0.1737
  585MOL0     C78900   3.336   3.282   0.579  0.1854 -0.2151  0.1029
  585MOL0     C78901   3.463   3.197   0.622  0.6126 -0.3599 -1.3697
  585MOL0     C78902   3.530   3.150   0.496  0.2293 -0.0308 -0.3035
  585MOL0     C78903   3.615   3.018   0.508 -0.0490 -0.9556  0.5785
  585MOL0     C78904   3.689   3.024   0.629  0.0908 -0.7761  0.0942
  585MOL0     C78905   3.747   3.026   0.733 -0.5036  0.5096 -0.5099
  585MOL0     C78906   3.055   3.052   0.508  0.5536  0.0779  0.9182
  585MOL0     C78907   2.970   2.953   0.567 -0.1828 -0.1753  1.3943
  585MOL0     H78908   2.575   2.744   0.564  0.8670  0.4227 -0.6371
  585MOL0     H78909   2.339   2.650   0.633  0.8989  1.3447  0.1102
  585MOL0     H78910   2.410   2.405   0.982 -0.2652 -0.5903 -0.2216
  585MOL0     H78911   2.299   2.514   1.068 -1.1170  2.9171 -1.2459
  585MOL0     H78912   2.114   2.427   0.942  1.8010  1.5737 -3.3508
  585MOL0     H78913   2.218   2.277   0.914 -1.1430 -1.6953  2.7239
  585MOL0     H78914   2.235   2.230   1.149 -0.4763 -0.3593  1.0412
  585MOL0     H78915   2.153   2.379   1.192 -0.8592  1.8395 -0.4073
  585MOL0     H78916   1.950   2.265   1.052  1.8079  1.4872  0.2064
  585MOL0     H78917   2.049   2.120   1.034  0.2686 -2.9189  2.2229
  585MOL0     H78918   2.036   2.070   1.271 -0.6896 -0.0288  1.0002
  585MOL0     H78919   1.967   2.237   1.310  1.0688 -1.7151  2.7900
  585MOL0     H78920   1.760   2.209   1.247 -0.3767 -0.9732  1.9808
  585MOL0     H78921   1.801   2.115   1.118 -1.1861 -0.7196  0.5549
  585MOL0     H78922   1.855   1.931   1.293  0.2786 -1.3584  0.1859
  585MOL0     H78923   1.786   2.054   1.407  0.8622  0.2618 -0.3726
  585MOL0     H78924   1.590   1.903   1.360 -3.2915  3.7020  3.1099
  585MOL0     H78925   1.623   1.913   1.191  3.9195  0.3331 -0.8688
  585MOL0     H78926   1.530   2.141   1.479  2.4421 -1.6887 -0.9094
  585MOL0     H78927   1.390   2.353   1.499 -2.5629 -4.2670  3.3154
  585MOL0     H78928   1.310   2.429   1.351 -0.0788  0.3558 -0.0872
  585MOL0     H78929   1.159   2.382   1.557 -0.3171 -1.0642  0.7482
  585MOL0     H78930   1.194   2.209   1.552 -0.0983 -0.8467 -1.5319
  585MOL0     H78931   1.089   2.173   1.345  0.7889  0.3704  0.3022
  585MOL0     H78932   1.082   2.338   1.310  4.5083  2.4512  1.9893
  585MOL0     H78933   0.931   2.380   1.510  0.2406  0.7002 -0.9614
  585MOL0     H78934   0.941   2.216   1.558 -1.0127  0.8996  1.0761
  585MOL0     H78935   0.734   2.337   1.606  1.0247  0.5220 -0.0384
  585MOL0     H78936   0.407   2.457   1.657  0.4880 -0.2726 -0.1079
  585MOL0     H78937   0.461   2.305   1.730 -0.2047  0.3076  0.5979
  585MOL0     H78938   0.580   2.441   1.703  0.9210  0.8177 -3.9401
  585MOL0     H78939   0.079   2.073   1.316 -0.8445 -0.9006 -2.6721
  585MOL0     H78940  -0.168   2.051   1.342  2.7023 -3.4062  1.2039
  585MOL0     H78941  -0.397   2.396   1.565  1.5725 -3.3726  2.2360
  585MOL0     H78942  -0.429   2.399   1.392  0.4800  1.8966  1.1950
  585MOL0     H78943  -0.645   2.314   1.516 -0.4354 -1.1809  4.7219
  585MOL0     H78944  -0.579   2.211   1.394  1.0465 -3.3602  0.7657
  585MOL0     H78945  -0.507   2.194   1.701  0.2345  1.4693  0.1442
  585MOL0     H78946  -0.494   2.074   1.575  2.5660  3.3862 -3.1569
  585MOL0     H78947  -0.724   2.055   1.538  0.5829  0.8793 -0.6963
  585MOL0     H78948  -0.674   2.008   1.688 -1.4244  0.6134  1.0826
  585MOL0     H78949  -0.751   2.291   1.726 -0.4884 -0.0050  0.8482
  585MOL0     H78950  -0.803   2.148   1.807 -0.3625  2.0929  1.2885
  585MOL0     H78951  -0.903   2.235   1.534  2.3326 -1.3581 -0.5963
  585MOL0     H78952  -0.943   2.083   1.626 -2.9317 -0.4096  0.6273
  585MOL0     H78953  -1.113   2.290   1.653  0.8860 -1.8852 -0.6849
  585MOL0     H78954  -0.998   2.339   1.769 -0.2092 -0.2243 -0.5314
  585MOL0     H78955  -1.016   2.119   1.869  0.1748  2.9866  2.2886
  585MOL0     H78956  -1.151   2.088   1.750 -2.2623  0.9820  1.2496
  585MOL0     H78957  -0.189   2.476   1.462 -2.0156 -1.8658 -0.3300
  585MOL0     H78958   0.048   2.491   1.446  0.8479 -0.3538 -1.3859
  585MOL0     H78959   0.427   2.225   1.238 -0.4003 -1.2198  2.1063
  585MOL0     H78960   0.673   2.194   1.194 -0.5789  2.2282 -1.1451
  585MOL0     H78961   2.466   2.648   1.037 -0.7523 -0.9422  0.3936
  585MOL0     H78962   2.663   2.781   0.986  0.5538 -1.0190  0.4239
  585MOL0     H78963   3.062   3.002   0.885 -1.9646  0.2277  0.2350
  585MOL0     H78964   3.220   3.162   0.776 -1.6356  0.8778  1.3791
  585MOL0     H78965   3.377   3.361   0.516 -2.4895  0.3362 -1.0853
  585MOL0     H78966   3.287   3.327   0.667 -2.4642 -1.2135 -0.7591
  585MOL0     H78967   3.425   3.110   0.676  0.3907 -1.0676 -2.6318
  585MOL0     H78968   3.523   3.251   0.696 -0.0076 -2.2510  0.6085
  585MOL0     H78969   3.602   3.225   0.460 -1.4509  1.9569  0.2819
  585MOL0     H78970   3.454   3.142   0.418 -0.7240  2.3253  0.2970
  585MOL0     H78971   3.693   3.019   0.433 -0.9233 -3.3518 -0.4626
  585MOL0     H78972   3.549   2.931   0.501 -0.2855 -1.3920  4.9790
  585MOL0     H78973   3.795   3.005   0.826 -1.4940 -0.5169 -0.2112
  585MOL0     H78974   3.052   3.070   0.401 -0.2236 -0.0218  0.9201
  585MOL0     H78975   2.916   2.889   0.498  0.8162  2.3319 -1.9754
  586MOL0     O78976   6.573   4.566   4.778  0.0586  0.4417  0.9573
  586MOL0     C78977   6.617   4.648   4.854  1.3103 -1.3320  0.5241
  586MOL0     O78978   6.574   4.784   4.862  0.1724  0.2487  0.3589
  586MOL0     C78979   6.508   4.857   4.771 -0.1886 -0.3758  0.5635
  586MOL0     C78980   6.411   4.797   4.688 -0.1752 -0.2975  0.3566
  586MOL0     C78981   6.323   4.886   4.617  0.2071  0.0051 -0.1161
  586MOL0     C78982   6.326   5.023   4.628 -0.3720 -0.0957  0.1611
  586MOL0     O78983   6.229   5.095   4.555 -0.5537  0.2732 -0.2787
  586MOL0     C78984   6.259   5.229   4.536  0.1526  0.0970  0.1248
  586MOL0     C78985   6.171   5.300   4.431 -0.4480 -0.9277 -0.5954
  586MOL0     C78986   6.124   5.442   4.475  0.1570  0.6415  0.1478
  586MOL0     C78987   6.051   5.511   4.356 -0.2076  0.1298  0.1513
  586MOL0     C78988   6.023   5.656   4.362  0.5026  0.4458 -0.1816
  586MOL0     C78989   6.021   5.740   4.237 -0.2775  0.0961 -0.0494
  586MOL0     C78990   5.924   5.701   4.140 -0.1909 -0.9762 -0.4239
  586MOL0     C78991   5.912   5.792   4.022  0.5489 -0.1009  0.2909
  586MOL0     N78992   5.873   5.930   4.059  0.2166  0.9870  0.6699
  586MOL0     C78993   5.745   5.970   4.053 -0.4656  0.2482 -0.2513
  586MOL0     C78994   5.755   6.100   4.077 -0.9400 -0.5217 -1.3773
  586MOL0     C78995   5.652   6.221   4.079  0.6348 -0.1714  0.7771
  586MOL0     C78996   5.705   6.342   4.002  0.8732 -0.0437  0.1006
  586MOL0     C78997   5.755   6.302   3.862 -0.5606 -0.4839 -0.2388
  586MOL0     C78998   5.654   6.236   3.771 -0.2241 -0.3923  0.3409
  586MOL0     O78999   5.533   6.312   3.747 -0.0604  0.7280  0.3832
  586MOL0     C79000   5.530   6.403   3.644 -0.8051 -0.0254  0.1452
  586MOL0     C79001   5.414   6.488   3.643  0.1082  0.1727 -0.0358
  586MOL0     C79002   5.389   6.582   3.537  0.7200  0.4647  0.0264
  586MOL0     C79003   5.271   6.675   3.540  0.5949  0.2193  0.2194
  586MOL0     C79004   5.468   6.587   3.425  0.9561 -0.0267  0.4228
  586MOL0     C79005   5.448   6.682   3.317 -0.9980  0.1308 -0.1009
  586MOL0     O79006   5.543   6.773   3.309  0.1030 -0.5197  0.3306
  586MOL0     C79007   5.497   6.872   3.227 -0.0257 -0.2961  0.4615
  586MOL0     C79008   5.402   6.974   3.269 -1.3362  0.2198 -1.6867
  586MOL0     C79009   5.362   7.083   3.184  0.5972  0.6004 -0.2862
  586MOL0     C79010   5.422   7.097   3.061 -0.3714 -0.3283  0.3427
  586MOL0     O79011   5.380   7.202   2.983  0.4822  0.6719  0.4395
  586MOL0     C79012   5.367   7.187   2.843  0.1733  0.3346 -0.0599
  586MOL0     C79013   5.303   7.309   2.789 -0.4371  0.7902  0.2739
  586MOL0     C79014   5.284   7.283   2.643 -0.5977  0.1459  0.2495
  586MOL0     C79015   5.177   7.382   2.578  0.0742  0.8902 -0.8253
  586MOL0     C79016   5.244   7.490   2.481 -0.4720  0.8857  0.5232
  586MOL0     C79017   5.142   7.609   2.451  0.2151  0.4332  0.2166
  586MOL0     C79018   5.177   7.702   2.333  0.3280 -0.0185  0.2401
  586MOL0     C79019   5.072   7.792   2.289 -0.2234  0.4787  0.3109
  586MOL0    Cl79020   5.047   7.915   2.399  0.0894 -0.7253  0.2113
  586MOL0     C79021   5.513   7.005   3.023  0.7264  0.3696 -0.3595
  586MOL0     C79022   5.548   6.896   3.101  1.0913 -0.9402 -0.7831
  586MOL0     O79023   5.337   6.686   3.265 -0.2134 -0.0678  0.4930
  586MOL0     C79024   5.586   6.501   3.422  0.9437  0.8633  1.0855
  586MOL0     C79025   5.616   6.425   3.534  0.8194 -0.5030  0.2785
  586MOL0     N79026   5.891   6.130   4.103  0.5703 -0.2779 -0.2699
  586MOL0     N79027   5.953   6.025   4.075  0.4920 -0.3994  0.5402
  586MOL0     C79028   6.412   5.075   4.719 -0.3354  0.0222  0.3661
  586MOL0     C79029   6.502   4.995   4.793  0.3661  0.2646  0.9753
  586MOL0     C79030   6.704   4.601   4.969 -0.4246  0.8340  0.2632
  586MOL0     C79031   6.787   4.489   4.957  0.7314  0.7610  0.8319
  586MOL0     C79032   6.864   4.434   5.059 -0.0596 -0.3887  0.2877
  586MOL0     C79033   6.875   4.505   5.183  0.1369 -0.2049 -0.4410
  586MOL0     O79034   6.953   4.474   5.297 -0.9581  0.6769  0.1413
  586MOL0     C79035   7.005   4.343   5.294  1.4170 -0.1184  0.6294
  586MOL0     C79036   7.097   4.308   5.413  0.9723 -0.3713 -0.7527
  586MOL0     C79037   7.017   4.303   5.549 -0.0868  0.8896 -1.2983
  586MOL0     C79038   7.115   4.294   5.672 -0.1232  0.0529 -0.1524
  586MOL0     C79039   7.204   4.411   5.685 -1.2683  0.7358  0.2178
  586MOL0     C79040   7.288   4.498   5.705 -0.0291  1.4079  0.2565
  586MOL0     C79041   6.802   4.623   5.191  0.2454  0.3144 -0.0544
  586MOL0     C79042   6.728   4.674   5.085  0.3564 -0.1887 -0.4906
  586MOL0     H79043   6.395   4.691   4.675  3.9584 -1.5396  3.4139
  586MOL0     H79044   6.251   4.837   4.552 -3.1709  0.8175  2.6987
  586MOL0     H79045   6.242   5.268   4.637 -2.1430 -1.3769  0.3890
  586MOL0     H79046   6.363   5.242   4.506  0.0083  1.6713  0.2432
  586MOL0     H79047   6.235   5.312   4.343  0.7989 -0.4007  0.3525
  586MOL0     H79048   6.080   5.244   4.410 -0.8060 -0.5916  0.0452
  586MOL0     H79049   6.057   5.424   4.559 -0.6729 -0.6329 -0.7458
  586MOL0     H79050   6.198   5.513   4.514  0.6027 -0.3259  1.1003
  586MOL0     H79051   6.105   5.486   4.264 -1.2865 -3.1376  0.2811
  586MOL0     H79052   5.959   5.456   4.338 -1.2958  0.6857  3.3655
  586MOL0     H79053   5.928   5.677   4.412  1.3036 -0.9697  2.1177
  586MOL0     H79054   6.087   5.703   4.437 -1.6212  1.5764  1.0120
  586MOL0     H79055   5.992   5.840   4.270 -2.1697  0.0831 -1.4961
  586MOL0     H79056   6.118   5.741   4.186 -1.0004  0.3369 -1.4540
  586MOL0     H79057   5.957   5.600   4.114  2.2693 -2.2085  5.6033
  586MOL0     H79058   5.830   5.705   4.197  0.5078  5.1445  0.9311
  586MOL0     H79059   5.835   5.747   3.959  2.2898 -1.0248 -1.2630
  586MOL0     H79060   6.004   5.795   3.963 -0.5757 -0.6607 -1.5741
  586MOL0     H79061   5.657   5.909   4.033 -1.1374  0.7036  1.1824
  586MOL0     H79062   5.558   6.186   4.036  0.2946 -0.8855  2.0606
  586MOL0     H79063   5.630   6.247   4.182  0.9095  1.6549  0.3992
  586MOL0     H79064   5.770   6.398   4.069 -1.8832  1.9748  1.3119
  586MOL0     H79065   5.620   6.408   3.984  3.5401  2.7618 -4.0552
  586MOL0     H79066   5.841   6.238   3.882 -1.3062 -0.6277  3.1665
  586MOL0     H79067   5.797   6.393   3.818 -3.0173  0.4663 -0.7932
  586MOL0     H79068   5.618   6.141   3.811  2.6741 -2.6884 -2.0054
  586MOL0     H79069   5.699   6.201   3.678  1.6932  3.0896 -0.2324
  586MOL0     H79070   5.354   6.474   3.732 -1.2601  1.4162 -0.7223
  586MOL0     H79071   5.295   6.777   3.508 -3.9496  1.6876  0.8028
  586MOL0     H79072   5.202   6.627   3.471 -1.2826  0.9574  1.4790
  586MOL0     H79073   5.240   6.669   3.645 -2.1963  0.2627 -0.5277
  586MOL0     H79074   5.349   6.968   3.364 -1.2563 -0.6472 -1.6880
  586MOL0     H79075   5.292   7.160   3.213 -0.9380 -0.7994 -0.1009
  586MOL0     H79076   5.468   7.181   2.802 -1.1023 -0.8176 -3.4083
  586MOL0     H79077   5.326   7.093   2.806  2.1541 -1.1252  1.2081
  586MOL0     H79078   5.211   7.315   2.848 -0.0981  0.7131  0.8238
  586MOL0     H79079   5.365   7.399   2.793  2.5450 -1.0393 -1.6359
  586MOL0     H79080   5.253   7.179   2.633  1.5012 -0.5264  0.3493
  586MOL0     H79081   5.378   7.299   2.590  1.3075 -2.1747  2.6806
  586MOL0     H79082   5.112   7.329   2.508 -2.6966  4.3529 -1.1598
  586MOL0     H79083   5.127   7.435   2.660  0.9976  3.7779 -1.9802
  586MOL0     H79084   5.270   7.446   2.385 -0.1310 -1.0048  1.4374
  586MOL0     H79085   5.333   7.534   2.528  1.2410 -1.8358  0.0246
  586MOL0     H79086   5.042   7.568   2.432  0.7795 -0.1474 -1.7132
  586MOL0     H79087   5.143   7.667   2.544 -0.5171 -0.4484  0.7996
  586MOL0     H79088   5.192   7.643   2.242 -0.4616 -1.1650  0.8319
  586MOL0     H79089   5.267   7.764   2.346 -1.5250  2.8911  0.0494
  586MOL0     H79090   4.980   7.736   2.273 -0.2417  0.7798 -0.7333
  586MOL0     H79091   5.095   7.835   2.191 -0.2892 -1.0158 -0.3826
  586MOL0     H79092   5.556   7.021   2.924  1.1513  0.5936 -0.1399
  586MOL0     H79093   5.612   6.815   3.066  0.3880 -1.9669  0.2143
  586MOL0     H79094   5.660   6.502   3.343  0.5600 -1.1463  0.6426
  586MOL0     H79095   5.705   6.366   3.514  1.0190  0.1816 -0.9961
  586MOL0     H79096   6.427   5.182   4.712  1.3939 -0.2991 -2.1950
  586MOL0     H79097   6.562   5.041   4.871  2.1937 -0.0420 -0.2007
  586MOL0     H79098   6.792   4.426   4.869 -1.2886  1.3907  0.2155
  586MOL0     H79099   6.922   4.346   5.032  0.3345  0.0874 -0.4593
  586MOL0     H79100   6.918   4.277   5.285  0.7722  0.9108 -1.1963
  586MOL0     H79101   7.065   4.333   5.203 -0.3061  4.9982 -1.4463
  586MOL0     H79102   7.163   4.393   5.430  0.1971  0.2710 -0.8566
  586MOL0     H79103   7.155   4.217   5.398  2.5056  0.4943 -0.2901
  586MOL0     H79104   6.942   4.223   5.552  3.1190 -2.3516 -0.6726
  586MOL0     H79105   6.960   4.394   5.567  1.1236  2.0344 -2.9247
  586MOL0     H79106   7.170   4.199   5.670 -0.9985 -0.4782  0.1991
  586MOL0     H79107   7.061   4.291   5.767  1.8326  2.1781  1.1206
  586MOL0     H79108   7.357   4.580   5.707 -0.2639  1.9049 -3.7901
  586MOL0     H79109   6.816   4.672   5.287  1.2015 -0.7253  0.3521
  586MOL0     H79110   6.673   4.766   5.106 -1.0093 -0.6709 -1.7813
  587MOL0     O79111   8.711   0.105  11.486 -0.4699  0.1525  0.1184
  587MOL0     C79112   8.610   0.038  11.493 -0.7177  0.8978 -0.8202
  587MOL0     O79113   8.558  -0.023  11.388  0.1052  0.4583 -0.0833
  587MOL0     C79114   8.605   0.017  11.269  0.0294  0.5600  0.2004
  587MOL0     C79115   8.555   0.131  11.201  0.7529  0.2624 -0.0406
  587MOL0     C79116   8.590   0.148  11.066  0.2954 -0.5856  0.8407
  587MOL0     C79117   8.655   0.039  10.998  0.6548 -0.5077 -0.5665
  587MOL0     O79118   8.694   0.037  10.868 -0.5839 -0.6846 -0.3645
  587MOL0     C79119   8.692   0.153  10.785  0.4436 -0.0553 -0.1363
  587MOL0     C79120   8.796   0.120  10.665 -0.1488 -1.0303 -0.3515
  587MOL0     C79121   8.749   0.008  10.577  0.6477  0.2544  0.7211
  587MOL0     C79122   8.833  -0.003  10.445  0.0546  0.5935 -0.0828
  587MOL0     C79123   8.788  -0.120  10.360 -0.6735 -0.1973  0.4872
  587MOL0     C79124   8.876  -0.130  10.230  0.1003 -0.3763  0.3580
  587MOL0     C79125   9.023  -0.181  10.250  0.6368  0.8760  0.6979
  587MOL0     C79126   9.118  -0.109  10.159  0.0539 -0.2112  0.6472
  587MOL0     N79127   9.261  -0.151  10.147 -0.0171 -0.6950 -0.2854
  587MOL0     C79128   9.311  -0.256  10.225  0.0523  0.3379  1.0689
  587MOL0     C79129   9.432  -0.284  10.167  0.2678  0.0106  0.2512
  587MOL0     C79130   9.546  -0.380  10.201  1.1268  0.1946 -0.1645
  587MOL0     C79131   9.687  -0.321  10.180  0.2306  0.2521 -1.0979
  587MOL0     C79132   9.725  -0.232  10.298  0.0367  0.2115  0.6704
  587MOL0     C79133   9.872  -0.248  10.326 -1.0721 -0.1942  0.0990
  587MOL0     O79134   9.912  -0.129  10.398  0.1957  0.0415  0.6325
  587MOL0     C79135  10.038  -0.129  10.460  0.6761  0.6837  0.5387
  587MOL0     C79136  10.062  -0.052  10.573  0.9667  0.4566  0.2081
  587MOL0     C79137  10.192  -0.039  10.630 -1.3675  0.3583 -0.4532
  587MOL0     C79138  10.201   0.049  10.748 -0.2798 -0.7347 -0.6686
  587MOL0     C79139  10.302  -0.113  10.579  0.7231 -1.1439  0.6049
  587MOL0     C79140  10.434  -0.136  10.645  0.2597 -0.5676  0.6909
  587MOL0     O79141  10.511  -0.247  10.589 -0.1542 -0.5429  1.0919
  587MOL0     C79142  10.628  -0.252  10.644 -1.5815  0.0018  0.3780
  587MOL0     C79143  10.663  -0.358  10.736  0.5499  0.1483  0.8918
  587MOL0     C79144  10.791  -0.379  10.780 -0.4844 -0.4172  0.7539
  587MOL0     C79145  10.889  -0.293  10.745 -0.9501 -0.2940  0.0674
  587MOL0     O79146  11.015  -0.318  10.799 -0.6233 -0.0933 -0.4318
  587MOL0     C79147  11.133  -0.247  10.751 -0.2460  0.0556 -0.2103
  587MOL0     C79148  11.253  -0.286  10.853 -0.5155  0.9924 -0.7219
  587MOL0     C79149  11.351  -0.173  10.894 -0.2618 -0.4393  0.6806
  587MOL0     C79150  11.458  -0.222  10.989  0.3358  1.2962 -0.2127
  587MOL0     C79151  11.548  -0.336  10.930 -0.3686  0.4950 -0.1760
  587MOL0     C79152  11.680  -0.352  11.009  1.1808  1.1331  0.0785
  587MOL0     C79153  11.751  -0.488  10.996 -0.4940 -0.3030 -0.8708
  587MOL0     C79154  11.866  -0.490  11.102 -0.3787 -0.1419  0.6931
  587MOL0    Cl79155  11.962  -0.625  11.066  0.5776  0.5060  0.0468
  587MOL0     C79156  10.854  -0.182  10.660 -0.5853 -0.4500 -0.2491
  587MOL0     C79157  10.728  -0.169  10.609 -0.0331 -1.1342 -0.7502
  587MOL0     O79158  10.471  -0.060  10.739  0.8783  0.4243  0.2535
  587MOL0     C79159  10.275  -0.192  10.464 -0.0092  0.5655  0.0689
  587MOL0     C79160  10.149  -0.197  10.396  0.1562 -0.1922  0.1684
  587MOL0     N79161   9.441  -0.201  10.059  0.0147 -0.0987  0.0176
  587MOL0     N79162   9.338  -0.134  10.037  0.3750 -0.3139 -0.2143
  587MOL0     C79163   8.704  -0.072  11.069 -0.7048 -0.3307 -0.2918
  587MOL0     C79164   8.688  -0.078  11.207  0.0579  0.4957 -0.6135
  587MOL0     C79165   8.530   0.029  11.622  0.0918  0.2950  0.6090
  587MOL0     C79166   8.591   0.061  11.745 -0.0766  0.0560  0.1130
  587MOL0     C79167   8.524   0.038  11.867 -0.2666  0.4288  0.6163
  587MOL0     C79168   8.391  -0.004  11.857 -0.1482  0.1651  0.3652
  587MOL0     O79169   8.326  -0.020  11.979  0.4565 -0.1505 -0.1961
  587MOL0     C79170   8.394  -0.106  12.076  0.1697 -0.0033 -0.0444
  587MOL0     C79171   8.295  -0.153  12.181  0.9966 -0.5624 -0.9191
  587MOL0     C79172   8.217  -0.037  12.252  0.4192  0.6808 -0.4173
  587MOL0     C79173   8.179  -0.097  12.392  0.6640 -0.9564  0.7661
  587MOL0     C79174   8.066  -0.036  12.463  0.3728  0.9735  0.5140
  587MOL0     C79175   7.967   0.020  12.511 -0.9908 -0.6830  0.3403
  587MOL0     C79176   8.334  -0.036  11.735  0.1262  0.3548  0.1279
  587MOL0     C79177   8.405  -0.031  11.615  0.3299 -1.3984  0.2452
  587MOL0     H79178   8.477   0.192  11.245 -1.8870 -1.1480 -2.4252
  587MOL0     H79179   8.578   0.244  11.015 -2.7385 -0.6703  1.1788
  587MOL0     H79180   8.586   0.161  10.761  0.2580 -1.4732  0.1291
  587MOL0     H79181   8.733   0.238  10.840  2.8475 -2.2958  1.8340
  587MOL0     H79182   8.801   0.204  10.595 -1.2329 -0.5162  0.1611
  587MOL0     H79183   8.899   0.109  10.699  0.6982  0.8186 -2.0862
  587MOL0     H79184   8.757  -0.086  10.632 -1.6203 -0.5498 -0.2261
  587MOL0     H79185   8.644   0.022  10.551  1.0347 -2.1524 -2.7234
  587MOL0     H79186   8.833   0.080  10.375 -0.0083 -0.6241 -1.5692
  587MOL0     H79187   8.936  -0.010  10.482  1.5649  0.5221 -3.8499
  587MOL0     H79188   8.792  -0.217  10.411 -1.1788  0.9056  2.7772
  587MOL0     H79189   8.683  -0.104  10.334 -0.0910  1.3989 -1.0901
  587MOL0     H79190   8.818  -0.197  10.167  0.6430 -3.5543  2.9892
  587MOL0     H79191   8.872  -0.032  10.182 -1.2313  0.1487  1.4536
  587MOL0     H79192   9.049  -0.164  10.355  1.7492 -1.7553  0.9189
  587MOL0     H79193   9.025  -0.288  10.229 -2.4634  0.8496  0.0003
  587MOL0     H79194   9.121  -0.007  10.199  0.1533  1.5874 -3.4990
  587MOL0     H79195   9.078  -0.098  10.058 -1.4924  0.5972  1.3117
  587MOL0     H79196   9.274  -0.312  10.310 -0.8212  1.5798  1.5279
  587MOL0     H79197   9.546  -0.407  10.307  0.5647  4.8710  1.2479
  587MOL0     H79198   9.540  -0.476  10.149  1.2577 -0.7757  1.5285
  587MOL0     H79199   9.698  -0.271  10.083  0.2861  0.2029 -1.1172
  587MOL0     H79200   9.751  -0.408  10.192  1.3517  1.4240  2.9153
  587MOL0     H79201   9.663  -0.252  10.386 -1.1729  2.5086  0.4239
  587MOL0     H79202   9.693  -0.130  10.276  2.0228  0.8815  0.6337
  587MOL0     H79203   9.924  -0.247  10.230  0.6871 -0.5139  1.0051
  587MOL0     H79204   9.897  -0.348  10.364 -0.2864  0.5797  1.7322
  587MOL0     H79205   9.981   0.009  10.612  1.7337  1.8226 -0.2934
  587MOL0     H79206  10.208  -0.007  10.842 -2.4267 -1.5256 -0.9266
  587MOL0     H79207  10.283   0.119  10.729 -0.1305  0.0049  2.2545
  587MOL0     H79208  10.112   0.111  10.760  0.2998  0.0679 -0.4202
  587MOL0     H79209  10.580  -0.427  10.755 -0.4957  1.1071 -0.0825
  587MOL0     H79210  10.824  -0.467  10.834  1.7745  0.4545  0.8843
  587MOL0     H79211  11.180  -0.262  10.653 -1.2227 -2.7257 -0.3450
  587MOL0     H79212  11.107  -0.141  10.755  0.5487  0.2491 -0.0479
  587MOL0     H79213  11.212  -0.321  10.948  0.4682 -1.0590 -1.0013
  587MOL0     H79214  11.305  -0.377  10.821  1.4924  1.7299  0.2741
  587MOL0     H79215  11.296  -0.088  10.936 -0.1156 -0.6383  1.2922
  587MOL0     H79216  11.400  -0.145  10.801  0.5470 -3.5996  0.0153
  587MOL0     H79217  11.523  -0.136  11.005  2.0488 -0.0852  0.6065
  587MOL0     H79218  11.414  -0.256  11.083 -1.6070  2.4364 -0.6475
  587MOL0     H79219  11.576  -0.325  10.825  0.0427 -0.4451 -0.1683
  587MOL0     H79220  11.497  -0.431  10.942  1.2198 -0.6961 -2.2010
  587MOL0     H79221  11.761  -0.280  10.994  3.7746 -0.9973  2.6440
  587MOL0     H79222  11.651  -0.346  11.114  0.3154 -2.6037  0.2077
  587MOL0     H79223  11.796  -0.490  10.896  3.4363 -0.4758  0.7338
  587MOL0     H79224  11.692  -0.580  11.001 -1.3315  0.2633 -0.1427
  587MOL0     H79225  11.829  -0.497  11.204 -3.2918 -1.6480 -0.3706
  587MOL0     H79226  11.920  -0.395  11.097 -1.4844  0.6295  2.6201
  587MOL0     H79227  10.923  -0.105  10.628  0.8137 -2.3601 -2.1129
  587MOL0     H79228  10.713  -0.081  10.547 -1.4008 -0.4109  0.5422
  587MOL0     H79229  10.348  -0.255  10.414  2.0225  1.3930  1.8165
  587MOL0     H79230  10.141  -0.271  10.318  1.1919 -0.4166  0.2638
  587MOL0     H79231   8.755  -0.150  11.013 -0.0756  0.4439 -0.8297
  587MOL0     H79232   8.717  -0.173  11.248 -2.7223  0.4258  1.4740
  587MOL0     H79233   8.692   0.100  11.749  0.6918 -1.6647 -1.0990
  587MOL0     H79234   8.580   0.068  11.955 -1.8223  2.8775  0.8485
  587MOL0     H79235   8.458  -0.188  12.040  4.8015  2.1914  2.3188
  587MOL0     H79236   8.470  -0.044  12.124 -0.7724  2.5464 -1.6753
  587MOL0     H79237   8.349  -0.213  12.255 -2.4020  0.0315  2.4047
  587MOL0     H79238   8.219  -0.214  12.131 -0.8101  2.3492 -2.0347
  587MOL0     H79239   8.129  -0.018  12.189  0.3996  1.4095 -0.1800
  587MOL0     H79240   8.290   0.043  12.264  2.6306 -1.1832 -0.8010
  587MOL0     H79241   8.269  -0.102  12.453  0.4836 -4.4524  0.9427
  587MOL0     H79242   8.155  -0.203  12.385 -3.7457 -0.0734 -1.4355
  587MOL0     H79243   7.879   0.061  12.556 -0.1768  0.4810  0.9548
  587MOL0     H79244   8.230  -0.065  11.740  0.5475 -1.0071  1.2987
  587MOL0     H79245   8.336  -0.057  11.536 -0.5520 -0.4859  0.6758
  588MOL0     O79246   2.037   1.933   3.173 -0.3056  0.9687  0.1688
  588MOL0     C79247   2.009   1.817   3.137 -0.4956  1.2070 -0.3548
  588MOL0     O79248   1.933   1.779   3.032  1.0630  0.4378 -0.0296
  588MOL0     C79249   1.911   1.866   2.927  0.8153  0.8390  0.0432
  588MOL0     C79250   1.850   1.992   2.954 -0.8098  0.5576  0.1604
  588MOL0     C79251   1.799   2.069   2.844  0.7330 -1.1315  0.0188
  588MOL0     C79252   1.811   2.028   2.717 -0.6869 -0.7109 -0.2348
  588MOL0     O79253   1.766   2.107   2.610 -0.3310 -0.4531 -0.1534
  588MOL0     C79254   1.670   2.215   2.631 -0.5960 -0.5818 -0.7567
  588MOL0     C79255   1.741   2.347   2.629 -0.0802 -0.3744 -0.5490
  588MOL0     C79256   1.631   2.447   2.588 -0.1984  0.0797  0.7181
  588MOL0     C79257   1.693   2.577   2.578 -0.5882 -0.2598 -0.4717
  588MOL0     C79258   1.621   2.673   2.477 -0.4371 -0.1134  0.5768
  588MOL0     C79259   1.708   2.799   2.461  0.0629 -0.2643 -0.6643
  588MOL0     C79260   1.642   2.903   2.378 -0.6549  0.1283  0.7919
  588MOL0     C79261   1.724   3.035   2.364  0.7806  0.5651  0.6845
  588MOL0     N79262   1.679   3.112   2.240 -0.0025 -0.0320  0.5018
  588MOL0     C79263   1.556   3.181   2.245  0.0211 -0.1768  0.3646
  588MOL0     C79264   1.535   3.246   2.131 -0.0114 -0.7659 -0.7132
  588MOL0     C79265   1.413   3.318   2.100  0.5225  0.5407 -0.0765
  588MOL0     C79266   1.401   3.417   1.977  0.0930 -0.6152  0.5152
  588MOL0     C79267   1.520   3.504   1.950  0.1455 -0.2208  0.0742
  588MOL0     C79268   1.557   3.595   2.061 -0.0955 -0.0784  0.4513
  588MOL0     O79269   1.661   3.692   2.031  0.7138  0.3705 -0.2607
  588MOL0     C79270   1.624   3.799   1.958 -0.0267 -0.5111  0.6002
  588MOL0     C79271   1.500   3.857   1.928  0.7749  0.5431 -0.0539
  588MOL0     C79272   1.487   3.982   1.859 -0.6665  0.1336 -0.5609
  588MOL0     C79273   1.351   4.048   1.837  0.0593  0.6281 -0.6598
  588MOL0     C79274   1.607   4.045   1.812 -0.0206 -0.2158 -0.1421
  588MOL0     C79275   1.604   4.174   1.733 -0.1309  0.2266  0.0883
  588MOL0     O79276   1.725   4.209   1.683 -0.6456 -0.1094  0.0117
  588MOL0     C79277   1.745   4.322   1.607 -0.7624  0.6241  0.7041
  588MOL0     C79278   1.861   4.397   1.622  0.0007  0.7262  0.4312
  588MOL0     C79279   1.891   4.512   1.556  0.3527 -0.1135  0.1318
  588MOL0     C79280   1.806   4.571   1.465  0.0234  0.9583  0.1009
  588MOL0     O79281   1.838   4.681   1.388 -0.7860 -0.0049 -0.5040
  588MOL0     C79282   1.745   4.752   1.309 -0.1820 -0.3353 -0.2386
  588MOL0     C79283   1.839   4.829   1.214  0.8287 -0.5689 -0.2323
  588MOL0     C79284   1.890   4.948   1.288 -0.5931  0.1524  0.1463
  588MOL0     C79285   1.791   5.055   1.324  0.9382 -0.2406  0.2720
  588MOL0     C79286   1.859   5.180   1.382  0.1934 -0.4181 -0.9657
  588MOL0     C79287   1.771   5.313   1.407  0.3348  0.8448 -1.0744
  588MOL0     C79288   1.759   5.406   1.286 -0.3633 -0.4673 -0.3033
  588MOL0     C79289   1.643   5.363   1.192 -0.9151  0.6933 -0.3648
  588MOL0    Cl79290   1.484   5.385   1.265  0.1750 -0.3909 -0.3064
  588MOL0     C79291   1.690   4.495   1.429  0.7430 -0.2429  0.5944
  588MOL0     C79292   1.658   4.376   1.506  0.4062  0.0063 -0.1183
  588MOL0     O79293   1.501   4.236   1.717  0.0050 -0.1217  0.8461
  588MOL0     C79294   1.734   3.989   1.837  1.2184  0.1622 -0.4319
  588MOL0     C79295   1.730   3.860   1.895 -0.5564  0.1967 -0.2987
  588MOL0     N79296   1.651   3.224   2.056  0.0931  0.8045 -0.1196
  588MOL0     N79297   1.735   3.143   2.116  0.1751 -0.7231  0.0544
  588MOL0     C79298   1.879   1.910   2.693  0.6209 -0.3643  0.1168
  588MOL0     C79299   1.936   1.830   2.787  0.4851 -0.2597  0.4891
  588MOL0     C79300   2.061   1.707   3.222  0.4785 -0.6994 -0.7743
  588MOL0     C79301   2.181   1.720   3.296  1.2267  0.2940  0.2223
  588MOL0     C79302   2.240   1.623   3.365  0.5689  1.2469  0.0428
  588MOL0     C79303   2.174   1.501   3.374  0.0310 -0.5666  0.4565
  588MOL0     O79304   2.219   1.399   3.453  0.0893 -0.2809 -0.2429
  588MOL0     C79305   2.130   1.381   3.573 -0.8869  0.2992 -0.6485
  588MOL0     C79306   2.075   1.512   3.642  0.4467 -0.6519 -0.1264
  588MOL0     C79307   1.972   1.486   3.752 -0.4491  0.4963  0.9110
  588MOL0     C79308   2.044   1.459   3.894  1.0423 -0.5508  0.9887
  588MOL0     C79309   1.933   1.415   3.980 -0.6642  0.5389 -0.1836
  588MOL0     C79310   1.851   1.381   4.062  1.8516  0.2116 -0.1718
  588MOL0     C79311   2.053   1.485   3.305  0.1138  0.4147  1.0260
  588MOL0     C79312   2.000   1.584   3.220  0.6802 -0.0141 -0.5021
  588MOL0     H79313   1.846   2.029   3.056  0.4508 -1.0781  0.8611
  588MOL0     H79314   1.758   2.166   2.873 -1.4639 -2.0233  0.0900
  588MOL0     H79315   1.594   2.203   2.554 -0.7770  0.6966 -0.7941
  588MOL0     H79316   1.616   2.199   2.725 -0.2792  1.2839 -0.2129
  588MOL0     H79317   1.774   2.372   2.730 -2.7996  0.8523  0.1243
  588MOL0     H79318   1.830   2.350   2.566  1.2973  1.0985  1.3624
  588MOL0     H79319   1.585   2.421   2.492 -1.3769  2.2116  0.6428
  588MOL0     H79320   1.553   2.457   2.665 -0.2554  1.0916  0.5417
  588MOL0     H79321   1.713   2.614   2.679  6.5025 -2.5270 -0.4740
  588MOL0     H79322   1.798   2.559   2.553  0.1214 -1.7362  2.9265
  588MOL0     H79323   1.614   2.613   2.386  2.8655  1.1179 -0.6456
  588MOL0     H79324   1.524   2.707   2.513 -0.2074  0.6443  0.5047
  588MOL0     H79325   1.743   2.848   2.552  2.2752 -1.0100 -1.0587
  588MOL0     H79326   1.800   2.756   2.420  1.0466  1.1877 -0.0497
  588MOL0     H79327   1.641   2.865   2.275  0.0988  0.0955  0.7887
  588MOL0     H79328   1.543   2.937   2.408 -0.3568 -0.5424  2.7230
  588MOL0     H79329   1.830   3.018   2.343  0.5523  0.1705 -0.1876
  588MOL0     H79330   1.710   3.105   2.446 -1.0457  0.6474  0.3302
  588MOL0     H79331   1.484   3.201   2.324 -0.4240  0.6019 -0.2131
  588MOL0     H79332   1.340   3.237   2.088 -2.1279  2.8828 -1.0311
  588MOL0     H79333   1.369   3.361   2.190 -2.8313 -2.1168 -0.2562
  588MOL0     H79334   1.307   3.472   1.980  0.0417 -0.6358 -0.4835
  588MOL0     H79335   1.394   3.363   1.882  1.2788  0.4497 -0.2113
  588MOL0     H79336   1.490   3.569   1.867 -0.0083  1.1920  1.1923
  588MOL0     H79337   1.606   3.445   1.916 -1.0450 -1.7615 -0.3421
  588MOL0     H79338   1.607   3.528   2.130 -2.3844 -0.6590  1.6366
  588MOL0     H79339   1.476   3.642   2.118  2.6614  4.2078  1.3439
  588MOL0     H79340   1.410   3.802   1.954 -0.2132  1.6511 -1.0511
  588MOL0     H79341   1.354   4.139   1.898 -1.6457 -0.1176  0.6017
  588MOL0     H79342   1.329   4.069   1.732 -3.3152  4.4394  0.5617
  588MOL0     H79343   1.273   3.997   1.894  2.3825  0.1026  2.2893
  588MOL0     H79344   1.923   4.354   1.700 -0.3270  0.7295  0.6954
  588MOL0     H79345   1.982   4.567   1.578 -0.9201  1.0424  3.2522
  588MOL0     H79346   1.684   4.682   1.252  2.0250 -1.5909 -1.1909
  588MOL0     H79347   1.689   4.816   1.378  1.3164  0.1131  0.6025
  588MOL0     H79348   1.924   4.766   1.190 -0.3128 -1.6861 -1.5071
  588MOL0     H79349   1.784   4.860   1.125  0.5403 -3.2468 -1.0632
  588MOL0     H79350   1.952   4.991   1.208 -2.2480 -0.0836 -1.3286
  588MOL0     H79351   1.955   4.913   1.369 -0.9803  0.3571  0.5494
  588MOL0     H79352   1.732   5.084   1.237  1.6022  1.7501  0.4437
  588MOL0     H79353   1.725   5.017   1.403  0.9734  0.7100  0.7671
  588MOL0     H79354   1.949   5.202   1.324  1.1092  1.3547  0.9741
  588MOL0     H79355   1.881   5.148   1.484  0.4465 -1.7728 -1.4347
  588MOL0     H79356   1.676   5.282   1.450  2.3143 -1.0039  2.4271
  588MOL0     H79357   1.818   5.367   1.490  0.7555 -0.7835 -0.2226
  588MOL0     H79358   1.850   5.414   1.227  1.9125  1.6635  3.1670
  588MOL0     H79359   1.743   5.508   1.320 -1.1023  1.6585 -5.9966
  588MOL0     H79360   1.660   5.269   1.138  2.5670  2.0355 -1.8970
  588MOL0     H79361   1.637   5.441   1.115  0.3233  0.8571 -0.3005
  588MOL0     H79362   1.619   4.526   1.353  0.3690 -0.3809  0.8800
  588MOL0     H79363   1.560   4.330   1.495  0.4716  0.1796 -1.6505
  588MOL0     H79364   1.821   4.043   1.802  0.4129  2.6304  1.1266
  588MOL0     H79365   1.827   3.818   1.921 -0.8843  0.7670  2.0181
  588MOL0     H79366   1.892   1.881   2.589  1.1268 -3.0183  0.8301
  588MOL0     H79367   2.003   1.747   2.766  0.5131 -0.4364  1.2226
  588MOL0     H79368   2.233   1.815   3.300 -1.5520  1.8915  0.4348
  588MOL0     H79369   2.333   1.653   3.412  0.5382 -0.2122  1.1110
  588MOL0     H79370   2.053   1.307   3.548  1.6559 -2.1460 -1.8806
  588MOL0     H79371   2.181   1.321   3.648 -0.9204 -0.3796 -1.1525
  588MOL0     H79372   2.019   1.573   3.570 -1.5164 -1.1958  0.8527
  588MOL0     H79373   2.151   1.576   3.686  2.2504 -2.1668 -0.8941
  588MOL0     H79374   1.906   1.404   3.722 -0.5331  0.3638  1.4449
  588MOL0     H79375   1.903   1.571   3.756  0.1322  1.1395 -1.2224
  588MOL0     H79376   2.099   1.544   3.937  1.0586  0.5554 -1.0860
  588MOL0     H79377   2.120   1.381   3.882  1.4968  0.0496 -0.2200
  588MOL0     H79378   1.787   1.338   4.136  1.3942  0.8282 -0.2064
  588MOL0     H79379   1.998   1.393   3.323  0.6356  0.0242  0.6477
  588MOL0     H79380   1.897   1.579   3.186  0.7473  3.1090 -1.4830
  589MOL0     O79381  10.337   8.503   5.710 -0.1251  0.5417  0.6487
  589MOL0     C79382  10.242   8.521   5.790  0.5413 -0.0450  0.1144
  589MOL0     O79383  10.196   8.638   5.836  0.7887 -0.0636 -0.5990
  589MOL0     C79384  10.241   8.761   5.786  0.1771  0.2421 -1.1698
  589MOL0     C79385  10.147   8.859   5.769 -0.1058 -0.4528 -1.3473
  589MOL0     C79386  10.189   8.989   5.732 -0.1593  0.0980  0.8700
  589MOL0     C79387  10.327   9.015   5.706 -0.3773 -0.0614 -0.6476
  589MOL0     O79388  10.370   9.133   5.662  0.4107 -0.5909  0.0852
  589MOL0     C79389  10.414   9.132   5.523 -0.3494  0.3675 -0.4028
  589MOL0     C79390  10.400   9.273   5.468  0.0014  0.2531  0.0077
  589MOL0     C79391  10.462   9.281   5.331 -0.2351  0.2980 -0.4106
  589MOL0     C79392  10.400   9.400   5.263 -0.3426 -0.4131  0.5585
  589MOL0     C79393  10.469   9.428   5.124  0.6148 -0.6965 -0.6130
  589MOL0     C79394  10.443   9.576   5.074  0.7859  0.8838 -0.4828
  589MOL0     C79395  10.563   9.626   4.988 -0.4772  0.2653 -0.5617
  589MOL0     C79396  10.558   9.773   4.952 -0.0300  0.1838  0.3427
  589MOL0     N79397  10.443   9.802   4.866 -0.3047 -0.2291 -0.1550
  589MOL0     C79398  10.328   9.862   4.900  0.0572  0.5850  0.5729
  589MOL0     C79399  10.247   9.864   4.792 -0.2722  0.2085 -0.9329
  589MOL0     C79400  10.120   9.940   4.775 -0.4974  0.1934  1.1419
  589MOL0     C79401  10.010   9.912   4.877 -0.3718  0.4304  0.6424
  589MOL0     C79402   9.966   9.765   4.888 -0.2340  0.7734  0.2160
  589MOL0     C79403   9.816   9.758   4.915  0.4586 -0.3181 -0.4867
  589MOL0     O79404   9.793   9.857   5.022  0.0816 -0.6481  0.0591
  589MOL0     C79405   9.665   9.903   5.042  0.1143 -0.5305  0.0604
  589MOL0     C79406   9.551   9.839   5.007  0.5639  0.3909  1.4048
  589MOL0     C79407   9.426   9.897   5.023 -0.1607  0.0568 -0.4251
  589MOL0     C79408   9.295   9.817   4.976  1.3126  0.1421  0.0242
  589MOL0     C79409   9.413  10.018   5.096 -0.8158  0.9287  0.1891
  589MOL0     C79410   9.281  10.074   5.121  0.7322 -0.7630 -0.9924
  589MOL0     O79411   9.277  10.118   5.249  0.5304 -0.6067 -0.1145
  589MOL0     C79412   9.155  10.154   5.298  0.4136  0.2348  0.3670
  589MOL0     C79413   9.084  10.062   5.373  0.2617 -0.2555  0.4430
  589MOL0     C79414   8.962  10.099   5.431  0.0582  0.1743  0.2373
  589MOL0     C79415   8.909  10.226   5.407 -0.2155 -0.3860 -0.6194
  589MOL0     O79416   8.799  10.278   5.468 -0.1730  0.5238 -0.4876
  589MOL0     C79417   8.776  10.231   5.603  0.2442  0.3118 -0.8263
  589MOL0     C79418   8.743  10.341   5.703  0.2496  0.4105  0.0176
  589MOL0     C79419   8.853  10.444   5.736  0.3606  0.3779 -0.1785
  589MOL0     C79420   8.933  10.486   5.624 -0.5924  0.3763  0.1253
  589MOL0     C79421   9.023  10.615   5.646  1.0596  0.2587 -1.1102
  589MOL0     C79422   9.102  10.648   5.520 -0.1163 -0.0224  0.2380
  589MOL0     C79423   9.025  10.711   5.401 -0.9491 -0.6871 -0.2000
  589MOL0     C79424   9.113  10.718   5.269 -0.8223 -0.1843 -0.8709
  589MOL0    Cl79425   9.054  10.595   5.145  0.0487  0.2180 -0.1258
  589MOL0     C79426   8.977  10.305   5.315 -0.5055  0.0169  1.0531
  589MOL0     C79427   9.098  10.271   5.264  0.7409 -0.5305  0.5794
  589MOL0     O79428   9.183  10.080   5.045  0.0581 -0.1715 -0.7163
  589MOL0     C79429   9.529  10.084   5.146  1.2992 -0.1365 -0.0108
  589MOL0     C79430   9.654  10.023   5.122  0.1240  0.6104  0.1020
  589MOL0     N79431  10.331   9.824   4.684 -0.0126 -0.4473 -0.0761
  589MOL0     N79432  10.441   9.782   4.732  0.3354 -0.0722  0.4883
  589MOL0     C79433  10.424   8.920   5.727  1.3830  0.7552  0.7105
  589MOL0     C79434  10.377   8.789   5.760  0.0363 -0.4567  0.2440
  589MOL0     C79435  10.185   8.394   5.852  0.0709 -0.1726  0.9968
  589MOL0     C79436  10.225   8.267   5.793  0.9225 -0.2574 -0.3936
  589MOL0     C79437  10.149   8.157   5.829 -0.4347  0.4624  0.2362
  589MOL0     C79438  10.036   8.159   5.916 -0.7676 -0.4604  0.7376
  589MOL0     O79439   9.970   8.048   5.957  0.3336  0.2350 -0.6534
  589MOL0     C79440   9.984   7.928   5.882 -0.1808  1.0034 -0.7991
  589MOL0     C79441   9.864   7.837   5.915 -0.0952  0.0288 -0.1656
  589MOL0     C79442   9.740   7.898   5.846  0.8602 -0.1081 -0.2052
  589MOL0     C79443   9.603   7.827   5.847 -0.6578 -0.0215  0.0827
  589MOL0     C79444   9.557   7.806   5.984 -0.1978  0.0463  0.3500
  589MOL0     C79445   9.517   7.783   6.090 -0.1548  0.4756  0.0929
  589MOL0     C79446  10.002   8.278   5.970  0.4347  0.5219 -0.8171
  589MOL0     C79447  10.068   8.394   5.933 -1.2862 -0.3384 -0.4220
  589MOL0     H79448  10.041   8.835   5.777  0.7265 -3.8434  3.2819
  589MOL0     H79449  10.111   9.059   5.703  1.1877  1.8228  1.2334
  589MOL0     H79450  10.522   9.115   5.521 -0.3079  0.3874 -3.7119
  589MOL0     H79451  10.364   9.049   5.472 -1.7027 -2.2683  4.5484
  589MOL0     H79452  10.299   9.313   5.458  0.4173  1.1119 -1.0110
  589MOL0     H79453  10.453   9.335   5.542  2.3202 -0.9671 -0.5251
  589MOL0     H79454  10.568   9.302   5.344 -0.9296  3.4755  1.1625
  589MOL0     H79455  10.434   9.191   5.275 -0.1463 -0.8650  1.3528
  589MOL0     H79456  10.296   9.373   5.247 -0.8428 -0.9602  3.9996
  589MOL0     H79457  10.408   9.494   5.319  1.9692  1.4618 -2.5532
  589MOL0     H79458  10.576   9.410   5.141  0.4278  1.2804  4.1977
  589MOL0     H79459  10.441   9.358   5.045 -1.0530  0.1504 -0.8040
  589MOL0     H79460  10.349   9.563   5.019  0.8204  0.1894 -0.3837
  589MOL0     H79461  10.423   9.651   5.150 -0.9851  1.0054 -1.0204
  589MOL0     H79462  10.650   9.620   5.055 -2.0427 -1.7907  1.4668
  589MOL0     H79463  10.565   9.551   4.909 -1.2244 -3.0082  2.2858
  589MOL0     H79464  10.648   9.794   4.892 -0.2171 -1.4684 -0.5621
  589MOL0     H79465  10.557   9.840   5.039  2.0414 -1.7551  1.9667
  589MOL0     H79466  10.299   9.897   4.999  0.3280  3.0008 -0.1644
  589MOL0     H79467  10.144  10.047   4.774 -1.5571  0.4437 -0.0764
  589MOL0     H79468  10.068   9.911   4.683 -2.0924 -2.3529  2.7116
  589MOL0     H79469   9.927   9.980   4.853  1.0618  2.0091 -0.0562
  589MOL0     H79470  10.047   9.944   4.976  1.2649 -2.6934  1.1544
  589MOL0     H79471  10.023   9.710   4.964  0.1225  0.1731 -0.4711
  589MOL0     H79472   9.979   9.705   4.797  0.0830 -1.6473  1.7614
  589MOL0     H79473   9.792   9.661   4.961  1.6450  0.4005  1.8118
  589MOL0     H79474   9.754   9.774   4.827  1.8366 -0.8428 -1.5976
  589MOL0     H79475   9.556   9.744   4.954 -2.8781  0.1152  1.3467
  589MOL0     H79476   9.255   9.860   4.884 -2.8434  1.5934  2.2428
  589MOL0     H79477   9.327   9.713   4.962  0.7936  0.0228 -0.3292
  589MOL0     H79478   9.214   9.830   5.048  0.0486 -0.7723 -1.1831
  589MOL0     H79479   9.131   9.965   5.385  0.1113 -0.1762  1.8465
  589MOL0     H79480   8.926  10.014   5.488  0.5606 -0.0636  0.2023
  589MOL0     H79481   8.688  10.167   5.592  0.5801 -0.0179 -1.7095
  589MOL0     H79482   8.845  10.153   5.637 -0.4953 -0.6230 -1.4210
  589MOL0     H79483   8.650  10.393   5.680  0.8331  2.1237  1.3005
  589MOL0     H79484   8.719  10.269   5.782 -0.8385 -0.4638 -1.0777
  589MOL0     H79485   8.930  10.419   5.810 -0.3991  3.4010  1.8543
  589MOL0     H79486   8.798  10.535   5.764  0.8919  0.3326  1.1021
  589MOL0     H79487   9.009  10.409   5.605  0.0464  1.2331 -0.9716
  589MOL0     H79488   8.874  10.496   5.533  0.9601 -2.4355 -1.3291
  589MOL0     H79489   9.104  10.602   5.719 -0.7199  1.2537  1.1686
  589MOL0     H79490   8.957  10.699   5.669 -0.5731 -1.6319  1.7155
  589MOL0     H79491   9.169  10.727   5.556  2.4637 -1.8461 -0.3566
  589MOL0     H79492   9.155  10.559   5.484 -0.2279  0.3431 -0.8820
  589MOL0     H79493   9.012  10.816   5.426  1.9447 -0.7746  2.3132
  589MOL0     H79494   8.929  10.659   5.389 -2.7811  1.8999  1.9453
  589MOL0     H79495   9.216  10.696   5.297 -0.5183 -1.2452 -2.6777
  589MOL0     H79496   9.117  10.817   5.222  1.8950  1.3061  2.0631
  589MOL0     H79497   8.939  10.406   5.300  1.1916  0.4113 -1.1474
  589MOL0     H79498   9.151  10.334   5.192  0.7018 -2.3661 -1.1502
  589MOL0     H79499   9.518  10.179   5.198 -0.9093 -0.8712  1.0221
  589MOL0     H79500   9.743  10.072   5.161 -1.5041  2.4736  1.6290
  589MOL0     H79501  10.528   8.949   5.712  1.7658 -0.9907 -0.3546
  589MOL0     H79502  10.449   8.708   5.773  0.2944 -0.1745  0.6015
  589MOL0     H79503  10.308   8.262   5.724 -0.4381 -0.0740 -2.1008
  589MOL0     H79504  10.174   8.057   5.794 -1.5778 -0.3837  1.7224
  589MOL0     H79505   9.994   7.944   5.775  2.2173 -1.5871 -1.0847
  589MOL0     H79506  10.071   7.873   5.920  1.3377  2.5819 -1.8225
  589MOL0     H79507   9.853   7.836   6.024 -2.2962  0.9034 -0.3189
  589MOL0     H79508   9.876   7.737   5.872  0.4543  0.2763 -0.5962
  589MOL0     H79509   9.757   7.921   5.741 -0.3432 -0.8072 -0.5800
  589MOL0     H79510   9.721   7.995   5.893  1.3516  0.5042 -1.2400
  589MOL0     H79511   9.604   7.725   5.806  0.0022 -1.1151  2.6046
  589MOL0     H79512   9.535   7.894   5.793  1.8190  2.4349 -0.1951
  589MOL0     H79513   9.463   7.773   6.182 -1.8711 -0.5323 -0.9644
  589MOL0     H79514   9.919   8.281   6.039 -0.9813  3.6363 -2.4190
  589MOL0     H79515  10.024   8.487   5.966 -1.0505 -0.4569  0.2454
  590MOL0     O79516   1.478   5.731  10.274  0.3614  0.6498  0.0469
  590MOL0     C79517   1.466   5.804  10.376  0.0611 -0.0660 -0.3388
  590MOL0     O79518   1.354   5.863  10.411  0.9916  0.3964  0.2670
  590MOL0     C79519   1.240   5.848  10.338  0.1933 -0.1345  0.3688
  590MOL0     C79520   1.130   5.796  10.392  0.3416 -0.0133 -1.7820
  590MOL0     C79521   1.010   5.781  10.321 -1.0480  0.6484  0.7501
  590MOL0     C79522   1.008   5.815  10.187  0.7989 -0.5619  0.6219
  590MOL0     O79523   0.895   5.795  10.112  0.4017 -0.2768 -0.2220
  590MOL0     C79524   0.805   5.685  10.151 -0.0345 -0.1172 -0.3929
  590MOL0     C79525   0.706   5.670  10.040  0.0845 -0.0316 -0.4712
  590MOL0     C79526   0.768   5.629   9.906  0.8777 -0.4723  0.0371
  590MOL0     C79527   0.849   5.497   9.909 -0.4599 -0.6588 -0.6554
  590MOL0     C79528   0.905   5.463   9.772  0.1971  0.2478  0.2821
  590MOL0     C79529   1.001   5.575   9.716  0.7706  0.1222 -1.0071
  590MOL0     C79530   1.063   5.535   9.586  0.1129  0.1643 -1.1812
  590MOL0     C79531   1.179   5.444   9.597 -0.2901  0.6013 -0.2019
  590MOL0     N79532   1.197   5.352   9.480 -0.0315  0.2648 -0.3255
  590MOL0     C79533   1.146   5.372   9.352 -0.6964  0.1934 -0.2034
  590MOL0     C79534   1.225   5.285   9.278  0.5569 -0.4134  0.8826
  590MOL0     C79535   1.206   5.277   9.131  0.1300 -0.1003 -0.6767
  590MOL0     C79536   1.305   5.368   9.073 -0.1484  0.1787  0.2099
  590MOL0     C79537   1.273   5.382   8.924 -0.4588  0.1292 -0.2779
  590MOL0     C79538   1.396   5.430   8.845 -0.3104  0.1422 -0.2031
  590MOL0     O79539   1.375   5.413   8.699  0.4805 -0.2517 -0.4678
  590MOL0     C79540   1.481   5.445   8.621  0.3022  0.0317  0.1845
  590MOL0     C79541   1.609   5.470   8.668 -0.0757 -0.0755  0.0070
  590MOL0     C79542   1.722   5.507   8.589  0.3759  0.5697 -0.1763
  590MOL0     C79543   1.845   5.551   8.659  0.2135 -0.4165  0.4604
  590MOL0     C79544   1.698   5.522   8.454 -0.2697  0.2869  0.3142
  590MOL0     C79545   1.802   5.571   8.356 -0.2858  0.2788  0.1691
  590MOL0     O79546   1.933   5.562   8.396  0.2192 -0.3875  1.0923
  590MOL0     C79547   2.035   5.565   8.297  0.1456  1.4022 -0.4005
  590MOL0     C79548   2.103   5.447   8.280  0.3064 -0.2632  0.2747
  590MOL0     C79549   2.196   5.438   8.173 -0.4049  1.0483  0.4460
  590MOL0     C79550   2.210   5.548   8.092  0.0542 -0.2848  0.1917
  590MOL0     O79551   2.312   5.537   8.001  0.4391 -0.1826  0.7196
  590MOL0     C79552   2.293   5.587   7.865 -0.0534 -0.4535  0.6515
  590MOL0     C79553   2.352   5.485   7.775  1.0635 -0.0847  0.8078
  590MOL0     C79554   2.354   5.520   7.623 -0.3263  0.6571  0.3477
  590MOL0     C79555   2.427   5.401   7.552 -0.1916 -0.9990  0.3987
  590MOL0     C79556   2.456   5.435   7.402 -0.4645  0.7957 -0.0127
  590MOL0     C79557   2.555   5.326   7.331  0.1397  0.0733 -1.0702
  590MOL0     C79558   2.573   5.344   7.176 -0.3997 -0.4223 -0.3850
  590MOL0     C79559   2.695   5.276   7.122 -0.3509  0.0742  0.0529
  590MOL0    Cl79560   2.863   5.315   7.195 -0.2080 -0.2513 -0.3003
  590MOL0     C79561   2.154   5.676   8.112  0.3197  0.3630  0.3367
  590MOL0     C79562   2.057   5.681   8.214  0.0472  0.3431 -0.0406
  590MOL0     O79563   1.769   5.616   8.249 -0.3332  0.0510  0.1955
  590MOL0     C79564   1.575   5.499   8.398 -0.6564  0.6568 -0.8953
  590MOL0     C79565   1.471   5.457   8.472 -0.0775  1.0106 -0.7912
  590MOL0     N79566   1.295   5.193   9.358  0.2646 -0.4902 -0.5660
  590MOL0     N79567   1.267   5.231   9.479 -0.0087 -0.0990 -0.1861
  590MOL0     C79568   1.119   5.859  10.121 -0.2214  0.5867  0.2338
  590MOL0     C79569   1.233   5.880  10.198  0.2287 -0.1628  0.6569
  590MOL0     C79570   1.585   5.845  10.450 -1.0963 -0.1491 -0.5867
  590MOL0     C79571   1.581   5.911  10.577 -0.3849 -0.2462 -0.7562
  590MOL0     C79572   1.706   5.922  10.648 -0.5708 -1.0316 -0.3198
  590MOL0     C79573   1.828   5.893  10.582 -0.4041 -0.4455 -1.2147
  590MOL0     O79574   1.958   5.886  10.632 -1.2417 -0.6001 -1.2983
  590MOL0     C79575   1.991   5.965  10.749  0.2557  0.1998  0.5842
  590MOL0     C79576   2.107   5.900  10.825 -0.4379 -0.8955 -1.3074
  590MOL0     C79577   2.139   5.966  10.960 -0.0196 -0.3885  0.8094
  590MOL0     C79578   2.295   5.938  10.994  0.2355 -0.2968 -0.2464
  590MOL0     C79579   2.386   6.016  10.917 -0.2083  0.3096 -0.3155
  590MOL0     C79580   2.465   6.083  10.856 -0.2149  0.5936  1.1926
  590MOL0     C79581   1.826   5.839  10.455 -1.0469 -0.4348 -0.3551
  590MOL0     C79582   1.708   5.814  10.390  0.1429 -1.1263 -0.2298
  590MOL0     H79583   1.133   5.756  10.493  4.1399 -1.8132 -2.4271
  590MOL0     H79584   0.923   5.744  10.375 -1.5518 -0.1564 -0.5732
  590MOL0     H79585   0.857   5.589  10.158  1.3747  0.5519 -1.2801
  590MOL0     H79586   0.750   5.711  10.242  2.7434 -0.8846  1.6125
  590MOL0     H79587   0.618   5.609  10.061  0.0977 -0.1112 -0.6447
  590MOL0     H79588   0.678   5.774  10.022  3.0564  1.3078  1.7799
  590MOL0     H79589   0.695   5.627   9.824 -1.4541  2.2115  1.8732
  590MOL0     H79590   0.841   5.708   9.884  0.8882  0.5787  3.2971
  590MOL0     H79591   0.930   5.506   9.982 -0.0795 -1.4454 -0.9627
  590MOL0     H79592   0.782   5.416   9.939  0.0233 -1.3188 -1.3230
  590MOL0     H79593   0.969   5.374   9.782  0.8137  0.8147  1.5633
  590MOL0     H79594   0.822   5.453   9.702  1.5534 -0.8410 -1.2559
  590MOL0     H79595   0.956   5.674   9.709 -2.1539 -0.8043  2.0620
  590MOL0     H79596   1.086   5.581   9.785  1.1093 -0.2997 -1.3823
  590MOL0     H79597   0.991   5.486   9.521  0.6335 -2.3923  0.0774
  590MOL0     H79598   1.083   5.629   9.532 -1.2130  0.2651 -1.5279
  590MOL0     H79599   1.170   5.374   9.681 -1.1920  0.3471 -0.5003
  590MOL0     H79600   1.275   5.495   9.614  0.8720 -0.2212 -3.4298
  590MOL0     H79601   1.075   5.445   9.315 -0.9388  0.0993  0.0732
  590MOL0     H79602   1.218   5.175   9.092  2.4319 -0.9066  1.8140
  590MOL0     H79603   1.103   5.309   9.113 -0.1034 -0.7554 -0.5305
  590MOL0     H79604   1.407   5.330   9.084 -0.2360 -0.2379 -0.3561
  590MOL0     H79605   1.312   5.471   9.108  0.8846  0.7260 -1.4806
  590MOL0     H79606   1.184   5.444   8.914 -1.2191  0.1277  4.2480
  590MOL0     H79607   1.243   5.289   8.876 -0.3406 -1.1562  2.0299
  590MOL0     H79608   1.473   5.359   8.876 -2.1270 -2.5472 -1.4356
  590MOL0     H79609   1.416   5.536   8.866  2.3922 -0.1874 -0.8332
  590MOL0     H79610   1.635   5.468   8.773 -1.6403 -0.7546  0.4021
  590MOL0     H79611   1.817   5.546   8.764  0.0640  0.7979  0.4959
  590MOL0     H79612   1.925   5.476   8.652  0.3707 -0.2280  0.1967
  590MOL0     H79613   1.873   5.654   8.632 -1.1229 -0.1052  0.2085
  590MOL0     H79614   2.084   5.355   8.334 -4.0548 -1.0351 -2.0831
  590MOL0     H79615   2.245   5.341   8.161 -1.0765  0.8651 -0.9905
  590MOL0     H79616   2.188   5.607   7.839  0.8506  1.2752 -2.0837
  590MOL0     H79617   2.343   5.682   7.849 -2.6563  0.8654 -0.2420
  590MOL0     H79618   2.450   5.451   7.809  0.4954 -3.2030 -0.3164
  590MOL0     H79619   2.282   5.401   7.785 -2.4760  2.5957  0.7330
  590MOL0     H79620   2.429   5.596   7.601  0.9624 -0.7000 -0.1390
  590MOL0     H79621   2.256   5.538   7.579 -0.2193 -2.5407 -1.5434
  590MOL0     H79622   2.523   5.372   7.596 -0.3421 -0.4804  1.0867
  590MOL0     H79623   2.353   5.321   7.544  0.1703 -1.2889 -0.1332
  590MOL0     H79624   2.507   5.530   7.385  0.1129 -0.1760 -5.8986
  590MOL0     H79625   2.359   5.437   7.351 -1.1748 -2.2209  1.0002
  590MOL0     H79626   2.654   5.347   7.373 -0.0119 -1.9882  0.4423
  590MOL0     H79627   2.525   5.225   7.358 -3.1917  1.7323  2.4260
  590MOL0     H79628   2.573   5.452   7.154 -3.3032 -0.1097  0.6674
  590MOL0     H79629   2.477   5.309   7.136 -1.6258  2.0723  0.1645
  590MOL0     H79630   2.708   5.289   7.014 -0.0187  2.1895  0.2912
  590MOL0     H79631   2.685   5.169   7.141 -1.5137  0.1620  0.0295
  590MOL0     H79632   2.162   5.764   8.048 -1.1088 -0.6077 -1.2918
  590MOL0     H79633   2.015   5.781   8.217  1.4903  1.0364 -1.3371
  590MOL0     H79634   1.553   5.506   8.292 -2.7481  0.3034 -0.5226
  590MOL0     H79635   1.373   5.431   8.434  0.1313  1.7305 -1.8683
  590MOL0     H79636   1.105   5.876  10.015  1.2016  0.3393 -0.0119
  590MOL0     H79637   1.319   5.925  10.149  0.7745  0.7272  2.3594
  590MOL0     H79638   1.491   5.935  10.633  1.5923  1.3779  1.9890
  590MOL0     H79639   1.710   5.960  10.750 -0.2250 -1.1400 -0.2909
  590MOL0     H79640   2.021   6.064  10.713  1.2863 -0.5602 -0.7503
  590MOL0     H79641   1.902   5.968  10.813  0.1149 -0.2793  0.4186
  590MOL0     H79642   2.201   5.905  10.770  1.2888  1.7825  1.5550
  590MOL0     H79643   2.089   5.793  10.837 -2.1297 -0.3571  2.3191
  590MOL0     H79644   2.067   5.933  11.036 -0.8013 -0.3840  0.0792
  590MOL0     H79645   2.121   6.073  10.947  0.2509 -0.5099 -0.6954
  590MOL0     H79646   2.326   5.835  10.979 -1.3834 -0.7976 -0.3845
  590MOL0     H79647   2.315   5.958  11.099  0.3792  0.6380 -0.4422
  590MOL0     H79648   2.548   6.136  10.812  3.0852 -1.9638  3.7344
  590MOL0     H79649   1.921   5.793  10.429 -0.5691 -1.1814  2.4041
  590MOL0     H79650   1.734   5.761  10.299  1.4645 -1.3840  0.2796
  591MOL0     O79651   2.642   6.952   4.834 -0.7036  0.0829 -0.3138
  591MOL0     C79652   2.680   6.897   4.941  1.0799 -0.0855 -1.0694
  591MOL0     O79653   2.772   6.793   4.945  0.0584  0.6482  0.5770
  591MOL0     C79654   2.747   6.685   4.864  1.0001  0.2383  0.1466
  591MOL0     C79655   2.841   6.590   4.840 -1.2623  0.8998  0.0029
  591MOL0     C79656   2.816   6.481   4.759  0.3604  0.8058  0.2075
  591MOL0     C79657   2.689   6.459   4.699 -0.5988 -0.0149  0.0857
  591MOL0     O79658   2.675   6.371   4.594 -0.2894  0.1754  0.2472
  591MOL0     C79659   2.573   6.377   4.502  1.0205  0.1231 -0.3734
  591MOL0     C79660   2.525   6.246   4.432  0.3946 -0.2197  1.0566
  591MOL0     C79661   2.404   6.181   4.483  0.5033  0.0851 -0.6088
  591MOL0     C79662   2.449   6.055   4.569  0.3554  0.1732  0.5838
  591MOL0     C79663   2.358   6.010   4.674 -0.8323  0.2245  0.8533
  591MOL0     C79664   2.372   5.866   4.715  0.3803 -0.0137 -0.2784
  591MOL0     C79665   2.481   5.845   4.824  0.4565  0.2366 -0.1237
  591MOL0     C79666   2.475   5.693   4.871  0.6238  0.7330  0.1857
  591MOL0     N79667   2.592   5.664   4.958  0.5504  0.9888  0.1150
  591MOL0     C79668   2.585   5.568   5.058 -0.1162  0.0845  0.5728
  591MOL0     C79669   2.717   5.542   5.081 -0.4063 -0.4025 -0.5964
  591MOL0     C79670   2.791   5.446   5.178  0.2149  0.4038  0.0284
  591MOL0     C79671   2.855   5.511   5.294  0.5209 -0.0289 -0.1544
  591MOL0     C79672   2.946   5.415   5.375 -0.3514 -0.1047 -0.4758
  591MOL0     C79673   3.016   5.496   5.491 -0.0564  0.1531  0.0730
  591MOL0     O79674   3.129   5.428   5.540 -0.6102 -0.1976  0.7761
  591MOL0     C79675   3.115   5.305   5.584  0.1163  0.4363  0.5271
  591MOL0     C79676   3.178   5.194   5.526 -0.0425  0.7271  0.8136
  591MOL0     C79677   3.165   5.059   5.571 -0.7518  0.4396  0.3073
  591MOL0     C79678   3.236   4.949   5.505 -0.3468 -0.7744  0.1026
  591MOL0     C79679   3.093   5.042   5.693 -0.1826 -0.4641 -0.5803
  591MOL0     C79680   3.085   4.917   5.764 -0.4935  0.4074 -0.5291
  591MOL0     O79681   3.034   4.920   5.894 -0.6944  0.4524  0.8694
  591MOL0     C79682   3.035   4.806   5.970 -0.2988 -0.5987  0.4662
  591MOL0     C79683   2.983   4.689   5.918 -0.2841 -0.4181  0.6234
  591MOL0     C79684   2.974   4.567   5.993 -0.2610 -0.3360  0.4424
  591MOL0     C79685   3.010   4.578   6.124  0.5186 -0.2663  0.8092
  591MOL0     O79686   2.985   4.462   6.189  0.6153  0.2323  0.0166
  591MOL0     C79687   3.065   4.439   6.307 -0.7495  0.8227 -0.6147
  591MOL0     C79688   3.078   4.279   6.330  0.9158  0.0727 -0.1649
  591MOL0     C79689   3.205   4.238   6.420  0.0232 -0.0599  0.5014
  591MOL0     C79690   3.166   4.129   6.519  0.1915 -1.0646 -0.1602
  591MOL0     C79691   3.162   3.989   6.452  0.3762 -0.3680 -0.5851
  591MOL0     C79692   3.027   3.961   6.377  0.7666 -0.2301  0.0942
  591MOL0     C79693   2.993   3.807   6.370  0.1439 -0.1424  0.0511
  591MOL0     C79694   3.083   3.730   6.287  0.3586  0.4510 -0.0128
  591MOL0    Cl79695   3.238   3.708   6.359 -0.4187  0.3962  0.1480
  591MOL0     C79696   3.043   4.692   6.183 -0.6184 -0.4583  0.0971
  591MOL0     C79697   3.063   4.811   6.106 -0.2439 -0.3405  0.2372
  591MOL0     O79698   3.118   4.817   5.700  0.2460 -0.5930 -0.3797
  591MOL0     C79699   3.021   5.147   5.746 -0.5538 -0.5835  0.0045
  591MOL0     C79700   3.030   5.275   5.688  0.6862 -0.4991  0.0740
  591MOL0     N79701   2.794   5.629   4.999  0.8994 -0.4332  0.1405
  591MOL0     N79702   2.717   5.709   4.938  0.5432  1.3711  0.2684
  591MOL0     C79703   2.589   6.542   4.743 -0.9550 -0.0656  0.6969
  591MOL0     C79704   2.621   6.658   4.822  0.4489  0.6980 -0.2735
  591MOL0     C79705   2.634   6.942   5.069 -0.1880  1.1388 -0.2095
  591MOL0     C79706   2.717   6.923   5.179 -0.2452  0.3351  0.2863
  591MOL0     C79707   2.667   6.956   5.306  1.3824  0.2781 -0.1859
  591MOL0     C79708   2.539   7.011   5.321  0.3444 -0.0983  0.0042
  591MOL0     O79709   2.475   7.035   5.444  0.2253 -0.5079  0.1052
  591MOL0     C79710   2.539   6.989   5.563 -0.1627  0.5441  0.4787
  591MOL0     C79711   2.473   7.036   5.694  0.8180  0.0668  1.2873
  591MOL0     C79712   2.494   6.946   5.807 -0.1129 -0.0053  1.2082
  591MOL0     C79713   2.445   6.988   5.953  0.7991 -0.3203 -0.5014
  591MOL0     C79714   2.501   7.114   6.002 -0.0512 -0.3437 -0.7442
  591MOL0     C79715   2.536   7.220   6.036 -0.3498 -0.4822  0.5682
  591MOL0     C79716   2.463   7.046   5.203 -0.0856 -0.1683  0.1583
  591MOL0     C79717   2.506   6.997   5.082  0.2176  1.0710  1.1398
  591MOL0     H79718   2.938   6.591   4.887 -1.2905 -0.1346  0.0878
  591MOL0     H79719   2.893   6.409   4.735 -1.0546 -1.0106  0.8585
  591MOL0     H79720   2.478   6.419   4.536  0.1373 -0.3826 -2.0870
  591MOL0     H79721   2.604   6.453   4.429  1.8451  2.0891  1.9126
  591MOL0     H79722   2.499   6.279   4.331 -0.1088 -2.4329  0.4078
  591MOL0     H79723   2.614   6.182   4.433 -0.0603 -0.8921 -0.0913
  591MOL0     H79724   2.349   6.250   4.547  1.0517  2.0140 -2.1310
  591MOL0     H79725   2.321   6.157   4.415 -0.0326  0.4549 -0.1014
  591MOL0     H79726   2.468   5.981   4.490 -1.1590  1.2278 -0.8480
  591MOL0     H79727   2.544   6.069   4.621 -0.0178  0.2889  1.2410
  591MOL0     H79728   2.371   6.075   4.762  0.3169  0.1068  0.7897
  591MOL0     H79729   2.258   6.012   4.631 -1.5844 -0.6267  2.4622
  591MOL0     H79730   2.271   5.842   4.751  0.8871 -2.2338 -0.1721
  591MOL0     H79731   2.377   5.799   4.628 -1.2041 -1.4775  0.6853
  591MOL0     H79732   2.578   5.868   4.781 -0.3829  1.0348 -1.6636
  591MOL0     H79733   2.460   5.914   4.906 -4.7007  0.6735 -1.4476
  591MOL0     H79734   2.489   5.629   4.784 -0.1524  1.5778 -0.5823
  591MOL0     H79735   2.377   5.676   4.915  0.1876 -0.6104 -1.2220
  591MOL0     H79736   2.499   5.510   5.089  1.4468 -0.8507  3.5838
  591MOL0     H79737   2.724   5.370   5.219  2.2531 -0.3921  2.1143
  591MOL0     H79738   2.863   5.384   5.123 -0.8414 -1.1969  0.3765
  591MOL0     H79739   2.775   5.560   5.348  1.9392  3.1717 -0.7529
  591MOL0     H79740   2.910   5.597   5.255  2.4607 -1.7116 -1.3988
  591MOL0     H79741   3.029   5.370   5.320  1.9699 -1.0859  3.4202
  591MOL0     H79742   2.887   5.327   5.404 -0.2094 -0.9176 -2.4972
  591MOL0     H79743   2.945   5.507   5.573 -0.5218 -4.7531  0.6596
  591MOL0     H79744   3.050   5.593   5.456  2.0938 -1.0484 -1.4428
  591MOL0     H79745   3.234   5.216   5.436 -0.6544  1.5114  0.6061
  591MOL0     H79746   3.288   4.986   5.416  0.1130  1.2851  1.1768
  591MOL0     H79747   3.311   4.891   5.559  0.4834 -2.9656 -3.0750
  591MOL0     H79748   3.163   4.873   5.474 -1.6574  0.4129  0.1561
  591MOL0     H79749   2.936   4.671   5.821 -1.7347 -1.0822  1.4130
  591MOL0     H79750   2.933   4.475   5.952  0.7961 -0.6877  0.1536
  591MOL0     H79751   3.165   4.480   6.291  0.1255 -1.0554 -0.2695
  591MOL0     H79752   3.031   4.499   6.391 -1.3148  0.7244 -0.7705
  591MOL0     H79753   2.991   4.247   6.389  1.4701 -1.3239 -0.0708
  591MOL0     H79754   3.092   4.231   6.233  1.9623  0.9983 -0.4946
  591MOL0     H79755   3.243   4.328   6.470 -0.6753  0.0020  0.9408
  591MOL0     H79756   3.286   4.194   6.361 -1.9876 -2.1975 -0.8535
  591MOL0     H79757   3.248   4.127   6.592 -0.5011 -1.4952  0.6391
  591MOL0     H79758   3.076   4.163   6.571 -0.9855 -1.4465 -1.8936
  591MOL0     H79759   3.173   3.916   6.533  1.5824 -0.6669 -0.9879
  591MOL0     H79760   3.254   3.970   6.395  0.0891 -1.7388 -0.6226
  591MOL0     H79761   2.944   4.008   6.430 -1.3248 -1.4905 -1.8620
  591MOL0     H79762   3.024   3.993   6.273 -3.5046  1.2862  0.4909
  591MOL0     H79763   2.894   3.805   6.324 -0.9285  0.1196  2.2259
  591MOL0     H79764   2.985   3.774   6.474  2.7341 -0.4830  0.2217
  591MOL0     H79765   3.084   3.793   6.197 -0.6313  1.0153  0.3643
  591MOL0     H79766   3.037   3.632   6.274 -0.2010  0.7751 -0.5335
  591MOL0     H79767   3.070   4.695   6.288 -3.8025 -2.1466  1.1285
  591MOL0     H79768   3.099   4.906   6.145  4.4213 -1.3688 -0.9222
  591MOL0     H79769   2.953   5.124   5.827 -2.4339 -0.3740 -1.4451
  591MOL0     H79770   2.969   5.354   5.729  0.5924 -0.5194 -0.0273
  591MOL0     H79771   2.486   6.517   4.719 -0.1519 -3.5172  0.3729
  591MOL0     H79772   2.523   6.702   4.841  0.7250  0.4076  2.1003
  591MOL0     H79773   2.821   6.898   5.161  0.5252  2.8267  0.9054
  591MOL0     H79774   2.731   6.934   5.391  0.7496 -1.6185 -0.1505
  591MOL0     H79775   2.538   6.880   5.555 -0.0847  0.6065 -0.5087
  591MOL0     H79776   2.643   7.019   5.576  0.0390  1.1818 -2.0778
  591MOL0     H79777   2.365   7.026   5.677  1.0723 -0.1603 -0.4357
  591MOL0     H79778   2.504   7.134   5.730  1.2859  0.3260  0.2160
  591MOL0     H79779   2.597   6.910   5.807 -0.3365 -0.6601  1.8333
  591MOL0     H79780   2.426   6.860   5.804  0.0552 -0.1114  0.0783
  591MOL0     H79781   2.471   6.912   6.027 -1.3888 -0.5995  0.0329
  591MOL0     H79782   2.337   7.002   5.953  1.0458  2.0890 -0.4674
  591MOL0     H79783   2.565   7.321   6.059  0.1709 -0.1052 -1.5404
  591MOL0     H79784   2.372   7.104   5.218 -0.6102 -0.4468 -1.7202
  591MOL0     H79785   2.442   6.992   4.994  0.4227 -4.3365  0.9826
  592MOL0     O79786   4.820  10.689   9.940 -0.1056 -0.0880  0.8933
  592MOL0     C79787   4.823  10.604   9.845 -0.4335 -0.7420 -0.8654
  592MOL0     O79788   4.854  10.632   9.717 -0.5414  0.0380  0.5817
  592MOL0     C79789   4.943  10.735   9.690 -0.6980 -0.5865 -0.5684
  592MOL0     C79790   4.938  10.777   9.558 -0.9709 -0.5281 -0.3758
  592MOL0     C79791   5.004  10.892   9.521 -1.0701 -0.4546  0.9147
  592MOL0     C79792   5.093  10.959   9.602 -0.4915 -0.8344 -0.9737
  592MOL0     O79793   5.162  11.067   9.544  0.1651 -0.2882 -0.4326
  592MOL0     C79794   5.250  11.028   9.425  0.7326  0.2117  0.2334
  592MOL0     C79795   5.263  11.162   9.340 -0.2018  0.4117  0.2982
  592MOL0     C79796   5.128  11.219   9.294 -0.7211 -0.4285  1.1913
  592MOL0     C79797   5.041  11.131   9.201 -0.4139 -0.5368 -0.9939
  592MOL0     C79798   4.891  11.155   9.207  0.9669  0.2771  0.6897
  592MOL0     C79799   4.808  11.034   9.154  0.2975 -0.1879  0.1368
  592MOL0     C79800   4.805  11.040   8.997 -0.5326  1.2889 -0.5192
  592MOL0     C79801   4.713  10.937   8.924 -0.2888  0.1237 -0.5312
  592MOL0     N79802   4.572  10.959   8.940  0.2489 -0.3681 -0.7884
  592MOL0     C79803   4.502  11.075   8.903 -0.7676 -0.1080 -1.0932
  592MOL0     C79804   4.376  11.046   8.929 -0.2311 -0.0740  0.0838
  592MOL0     C79805   4.255  11.125   8.889 -0.0073  0.0935  0.2926
  592MOL0     C79806   4.237  11.250   8.976  1.1169 -0.3453 -0.4907
  592MOL0     C79807   4.352  11.354   8.950 -0.3847 -0.1267 -0.8743
  592MOL0     C79808   4.331  11.495   9.008  0.1955  0.1685  0.2705
  592MOL0     O79809   4.197  11.536   8.981  0.5743 -0.2007 -0.4559
  592MOL0     C79810   4.187  11.680   8.982 -0.3027  0.1028 -0.7160
  592MOL0     C79811   4.148  11.753   8.866 -0.0629  0.2692  0.4904
  592MOL0     C79812   4.158  11.893   8.875  0.4175  0.2974  0.0578
  592MOL0     C79813   4.126  11.980   8.755 -0.4332 -1.1208 -0.6922
  592MOL0     C79814   4.200  11.959   8.990 -0.2580 -0.7630 -0.8507
  592MOL0     C79815   4.203  12.108   9.001  0.2662  0.9171 -0.7074
  592MOL0     O79816   4.179  12.145   9.127  0.1579 -0.0194 -0.2113
  592MOL0     C79817   4.206  12.274   9.162 -0.6004 -0.4049 -0.7563
  592MOL0     C79818   4.318  12.294   9.242 -0.5838  0.0058  0.0291
  592MOL0     C79819   4.348  12.417   9.287  0.1240  0.1848 -1.0576
  592MOL0     C79820   4.286  12.529   9.249 -0.1557 -0.4088  0.6326
  592MOL0     O79821   4.335  12.657   9.282  0.2518  0.0542  0.2128
  592MOL0     C79822   4.267  12.780   9.266 -0.4057 -1.4754  0.3831
  592MOL0     C79823   4.350  12.888   9.342  0.8441  0.3672  0.6349
  592MOL0     C79824   4.363  12.855   9.490 -0.1418  0.4675 -0.0451
  592MOL0     C79825   4.454  12.948   9.568  0.1593 -0.1405  0.4909
  592MOL0     C79826   4.454  12.906   9.705 -0.2136 -0.8849  0.7575
  592MOL0     C79827   4.575  12.971   9.782  0.8218  0.4806  0.7213
  592MOL0     C79828   4.593  12.922   9.925 -0.9752  0.9163  0.7567
  592MOL0     C79829   4.487  12.973  10.022  0.8467 -0.2970  0.1804
  592MOL0    Cl79830   4.324  12.906   9.978 -0.2207 -0.1909  0.6965
  592MOL0     C79831   4.174  12.509   9.166  0.2554  0.3159  0.0601
  592MOL0     C79832   4.131  12.385   9.118 -0.2502  0.3507  0.7225
  592MOL0     O79833   4.269  12.173   8.925  0.0569 -0.7414 -0.4886
  592MOL0     C79834   4.235  11.885   9.105 -0.1289  0.2625 -0.4818
  592MOL0     C79835   4.229  11.748   9.098 -0.3449  1.2832 -0.5584
  592MOL0     N79836   4.376  10.929   9.013 -0.8872  0.5504  0.5174
  592MOL0     N79837   4.495  10.879   9.014  0.0425 -0.1366  0.5382
  592MOL0     C79838   5.110  10.909   9.739 -0.6909 -0.5542  0.3669
  592MOL0     C79839   5.031  10.800   9.775  1.4162  0.0500 -0.8923
  592MOL0     C79840   4.781  10.463   9.863 -0.0252  1.1343 -0.0120
  592MOL0     C79841   4.805  10.374   9.757  0.1886  0.7130  0.8847
  592MOL0     C79842   4.783  10.237   9.778 -0.2301 -0.5681  0.7151
  592MOL0     C79843   4.706  10.185   9.883  0.3358 -0.6426 -0.6237
  592MOL0     O79844   4.659  10.054   9.909 -0.2201 -0.0687  0.6494
  592MOL0     C79845   4.706   9.959   9.825  0.3739 -0.0995  0.1681
  592MOL0     C79846   4.627   9.831   9.886 -0.4412 -0.3056  0.6915
  592MOL0     C79847   4.662   9.791  10.029  0.4894 -0.6426  0.1476
  592MOL0     C79848   4.721   9.646  10.024 -0.5436 -0.2570  0.0486
  592MOL0     C79849   4.734   9.597  10.167 -0.0472 -0.3920  0.2039
  592MOL0     C79850   4.757   9.578  10.282 -0.1304  0.3110  0.2854
  592MOL0     C79851   4.664  10.282   9.983 -0.1188  0.1908  1.0262
  592MOL0     C79852   4.701  10.421   9.971  0.2689 -0.7055 -0.0828
  592MOL0     H79853   4.878  10.721   9.486  1.4519 -3.3050 -0.4381
  592MOL0     H79854   4.984  10.927   9.420 -1.8161  1.7389  1.7735
  592MOL0     H79855   5.344  10.982   9.457  0.9281  0.5081  0.0843
  592MOL0     H79856   5.191  10.950   9.376  1.0683 -0.5607  1.0238
  592MOL0     H79857   5.316  11.232   9.405 -2.8038 -0.3326  3.4739
  592MOL0     H79858   5.326  11.129   9.257  1.3837  0.9223  1.2610
  592MOL0     H79859   5.066  11.260   9.375 -1.1215  1.9119 -0.1856
  592MOL0     H79860   5.151  11.305   9.230  4.7678 -3.0170 -0.9752
  592MOL0     H79861   5.076  11.143   9.098  0.3460  0.3080 -0.6592
  592MOL0     H79862   5.057  11.028   9.235 -0.5996 -0.1524  0.3123
  592MOL0     H79863   4.869  11.162   9.314 -2.6869  1.8680 -0.0034
  592MOL0     H79864   4.869  11.249   9.156  1.7859  0.8712  1.4037
  592MOL0     H79865   4.861  10.942   9.177  0.0795 -1.2431 -3.0182
  592MOL0     H79866   4.707  11.036   9.197  0.3997  0.7228  0.3649
  592MOL0     H79867   4.771  11.141   8.974  0.7506  2.0577  0.8190
  592MOL0     H79868   4.907  11.034   8.959 -0.0644 -2.5923  0.9001
  592MOL0     H79869   4.741  10.832   8.938 -3.4208 -0.6723  0.7661
  592MOL0     H79870   4.739  10.951   8.819  2.4840 -2.3246 -0.3115
  592MOL0     H79871   4.541  11.160   8.847 -0.6401  0.0389 -0.7806
  592MOL0     H79872   4.269  11.145   8.783  1.6265 -0.0822  0.4467
  592MOL0     H79873   4.169  11.058   8.902 -1.9072  2.6243  1.7604
  592MOL0     H79874   4.220  11.214   9.078 -1.6292 -0.2321 -0.8129
  592MOL0     H79875   4.142  11.299   8.952  1.8801  0.3289 -2.2536
  592MOL0     H79876   4.372  11.365   8.843 -1.1881  1.6816 -0.8622
  592MOL0     H79877   4.438  11.306   8.999  0.0836 -1.5143 -2.9085
  592MOL0     H79878   4.392  11.565   8.951  1.2850 -3.0465 -2.9142
  592MOL0     H79879   4.357  11.491   9.114  2.3202  0.6721 -0.1717
  592MOL0     H79880   4.098  11.698   8.787 -0.9945 -0.6419  1.6806
  592MOL0     H79881   4.211  12.046   8.735 -0.2909 -1.2531 -0.5310
  592MOL0     H79882   4.115  11.919   8.665  0.1809 -3.4216  0.7089
  592MOL0     H79883   4.039  12.043   8.774  1.4605  1.8872 -1.3383
  592MOL0     H79884   4.369  12.205   9.278 -1.3074 -0.1440  0.7283
  592MOL0     H79885   4.445  12.419   9.336  0.2777  0.7783 -1.3787
  592MOL0     H79886   4.259  12.800   9.159  3.9365  2.2001  0.4529
  592MOL0     H79887   4.167  12.775   9.310 -1.4273  0.6214 -1.4975
  592MOL0     H79888   4.445  12.891   9.288 -0.5047  2.1827 -1.8551
  592MOL0     H79889   4.306  12.988   9.331  3.2274  1.1888 -4.1735
  592MOL0     H79890   4.386  12.750   9.511 -3.0567 -1.2511 -4.1072
  592MOL0     H79891   4.257  12.852   9.515 -1.0995 -4.9099 -3.2320
  592MOL0     H79892   4.558  12.941   9.535  0.4217 -0.3732  1.3206
  592MOL0     H79893   4.428  13.054   9.563 -3.1331 -0.8817 -0.0473
  592MOL0     H79894   4.446  12.798   9.721  1.9781 -1.7833 -3.0150
  592MOL0     H79895   4.363  12.957   9.739  1.9903  3.0311  1.3603
  592MOL0     H79896   4.674  12.948   9.742  1.5319  0.3966  2.4503
  592MOL0     H79897   4.549  13.077   9.787 -1.0554  0.1755 -1.0725
  592MOL0     H79898   4.687  12.955   9.970  0.1904 -0.3460 -0.6261
  592MOL0     H79899   4.602  12.813   9.924  2.3559  0.9827 -3.2928
  592MOL0     H79900   4.490  13.082  10.024  1.3977 -0.0077 -4.6525
  592MOL0     H79901   4.515  12.934  10.121  1.9806 -0.6045 -0.2424
  592MOL0     H79902   4.132  12.599   9.121 -1.9178 -1.5651 -1.9581
  592MOL0     H79903   4.061  12.372   9.037  1.2514 -0.4884 -0.4875
  592MOL0     H79904   4.251  11.934   9.201 -2.4084  4.5259 -2.0226
  592MOL0     H79905   4.262  11.690   9.183 -1.5145  0.8003 -0.4142
  592MOL0     H79906   5.169  10.947   9.821 -0.5394  1.7461 -0.7378
  592MOL0     H79907   5.044  10.750   9.871  5.8631  2.8191  0.2481
  592MOL0     H79908   4.843  10.409   9.661  0.3145 -0.7111  0.3919
  592MOL0     H79909   4.811  10.177   9.692  2.7177  0.0951  1.1182
  592MOL0     H79910   4.671   9.993   9.727 -0.7558  0.9265  0.8934
  592MOL0     H79911   4.813   9.944   9.837  0.4269  0.4324  0.3997
  592MOL0     H79912   4.641   9.751   9.812  2.8119  2.2385 -1.6996
  592MOL0     H79913   4.523   9.865   9.891  0.2043  1.5861  3.0070
  592MOL0     H79914   4.566   9.794  10.081 -0.7673  1.8628 -2.0674
  592MOL0     H79915   4.746   9.847  10.071  2.2307 -3.3827  0.6214
  592MOL0     H79916   4.816   9.640   9.970 -0.3623 -2.3598  0.5237
  592MOL0     H79917   4.649   9.576   9.981 -1.7520  1.2011 -0.3546
  592MOL0     H79918   4.778   9.589  10.386 -1.8112  3.3361  0.4121
  592MOL0     H79919   4.589  10.256  10.057 -0.0759 -1.3009  0.5832
  592MOL0     H79920   4.671  10.486  10.052 -1.1466  2.8818 -3.1769
  593MOL0     O79921   2.412   5.195   6.803 -0.5696 -0.3664 -0.4970
  593MOL0     C79922   2.362   5.211   6.690 -0.8409 -0.4235  0.1438
  593MOL0     O79923   2.427   5.195   6.574  1.1580  0.6405 -0.0471
  593MOL0     C79924   2.562   5.167   6.582  0.7435  0.0921 -0.2004
  593MOL0     C79925   2.655   5.232   6.665 -0.2195  0.4149  0.3920
  593MOL0     C79926   2.789   5.189   6.670 -0.2727  1.0618  0.0436
  593MOL0     C79927   2.829   5.079   6.593 -0.8700  0.4283 -0.4383
  593MOL0     O79928   2.957   5.038   6.611 -0.6137 -1.1463  0.4781
  593MOL0     C79929   2.991   4.927   6.539 -0.4571 -0.0075 -0.7815
  593MOL0     C79930   3.130   4.864   6.588  1.1737 -0.5895  0.0458
  593MOL0     C79931   3.232   4.977   6.607 -1.5682 -0.0253  0.4636
  593MOL0     C79932   3.370   4.915   6.643 -0.2572 -0.4583  0.0176
  593MOL0     C79933   3.470   5.020   6.669 -0.4276 -0.1048 -0.2611
  593MOL0     C79934   3.499   5.101   6.552 -0.1002 -0.6200 -0.3941
  593MOL0     C79935   3.581   5.227   6.598  0.5773  0.0181  0.9133
  593MOL0     C79936   3.639   5.303   6.482 -0.2860 -0.5376  0.5985
  593MOL0     N79937   3.765   5.243   6.429  0.2101 -0.4588 -0.6205
  593MOL0     C79938   3.875   5.196   6.492  0.2418  0.4563 -0.6106
  593MOL0     C79939   3.948   5.125   6.410  0.2611 -0.5455  0.3496
  593MOL0     C79940   4.074   5.037   6.445  0.0107  0.0617 -0.0863
  593MOL0     C79941   4.043   4.926   6.562  0.0832 -0.1793  0.2432
  593MOL0     C79942   3.938   4.819   6.527 -0.0228 -0.0037 -0.5901
  593MOL0     C79943   3.942   4.740   6.400 -0.1897 -0.4176  0.3041
  593MOL0     O79944   4.063   4.656   6.401  0.2932 -0.0426 -0.8640
  593MOL0     C79945   4.153   4.693   6.307 -0.8975 -0.1539 -1.1286
  593MOL0     C79946   4.281   4.751   6.334  0.3004  0.2231  0.3595
  593MOL0     C79947   4.373   4.772   6.230  1.1097  0.3910  0.8240
  593MOL0     C79948   4.491   4.862   6.260 -0.9369  0.2611 -0.7375
  593MOL0     C79949   4.344   4.725   6.095  1.0669  0.5581  0.3187
  593MOL0     C79950   4.458   4.696   6.001  0.5105 -0.0912  0.2062
  593MOL0     O79951   4.426   4.724   5.868 -0.7379 -0.5474 -0.4158
  593MOL0     C79952   4.515   4.673   5.784 -0.2836  0.4991  0.2369
  593MOL0     C79953   4.636   4.749   5.760  0.6893 -0.1272 -0.8026
  593MOL0     C79954   4.750   4.689   5.688  0.0747 -0.4819 -0.5224
  593MOL0     C79955   4.730   4.563   5.626 -0.1822  0.1128  1.2800
  593MOL0     O79956   4.818   4.496   5.549 -0.2757  0.3982  0.1480
  593MOL0     C79957   4.948   4.467   5.594  0.1778 -0.2528  0.1505
  593MOL0     C79958   5.030   4.428   5.473 -0.8696  0.2473  1.0955
  593MOL0     C79959   5.094   4.544   5.387  0.6591  0.4639  1.1932
  593MOL0     C79960   4.989   4.619   5.301  0.0291  0.1357 -0.0231
  593MOL0     C79961   5.028   4.759   5.267 -0.1129  0.7212  1.2838
  593MOL0     C79962   5.023   4.843   5.389 -0.5357  0.1855  0.3101
  593MOL0     C79963   5.049   4.988   5.341  0.1611 -0.1528  0.9511
  593MOL0     C79964   5.054   5.084   5.454 -0.4532  0.3500  0.3124
  593MOL0    Cl79965   5.097   5.243   5.380 -0.3815 -0.2641  0.2979
  593MOL0     C79966   4.612   4.496   5.648 -0.6120 -0.6015  0.9990
  593MOL0     C79967   4.502   4.548   5.722  0.3327  0.7700  0.0717
  593MOL0     O79968   4.562   4.653   6.044  0.9325 -0.1703  1.2039
  593MOL0     C79969   4.216   4.674   6.065  0.3267 -0.4609 -1.1043
  593MOL0     C79970   4.124   4.666   6.175 -0.9797 -0.4530  0.5170
  593MOL0     N79971   3.887   5.128   6.284  0.7857 -0.4102  0.2546
  593MOL0     N79972   3.773   5.194   6.302  0.6243 -0.2087  0.2472
  593MOL0     C79973   2.731   5.014   6.509  0.2025 -0.7050  0.4829
  593MOL0     C79974   2.598   5.059   6.510 -0.5975  0.5311  0.1979
  593MOL0     C79975   2.240   5.292   6.683 -0.4607  0.2784  0.2506
  593MOL0     C79976   2.205   5.364   6.567  0.4419 -0.0717 -0.1850
  593MOL0     C79977   2.097   5.456   6.563 -0.2941  0.9392 -0.1952
  593MOL0     C79978   2.034   5.481   6.679 -0.3318 -0.2622 -0.2087
  593MOL0     O79979   1.945   5.581   6.681 -0.6009  0.1766  0.1111
  593MOL0     C79980   1.834   5.558   6.761 -0.4411  0.0403 -0.4369
  593MOL0     C79981   1.699   5.604   6.696  0.7649  0.1142  0.3251
  593MOL0     C79982   1.570   5.564   6.778  0.0201  0.2393 -0.1672
  593MOL0     C79983   1.517   5.420   6.743 -0.3416 -0.3818  0.8672
  593MOL0     C79984   1.434   5.413   6.617  0.7478 -0.5562 -0.5326
  593MOL0     C79985   1.372   5.429   6.516  0.1499 -0.1992  0.5442
  593MOL0     C79986   2.073   5.413   6.800 -0.5001  1.0173  0.3119
  593MOL0     C79987   2.169   5.316   6.796 -0.3242 -0.8476 -0.8171
  593MOL0     H79988   2.620   5.301   6.741 -4.3874 -0.4175 -0.5041
  593MOL0     H79989   2.855   5.227   6.747  0.9062 -0.8295  0.0225
  593MOL0     H79990   2.920   4.845   6.553  0.4756 -0.7029  0.0459
  593MOL0     H79991   2.994   4.963   6.436 -0.0282  0.5215 -0.5900
  593MOL0     H79992   3.109   4.810   6.680 -0.7263 -0.3729 -0.2049
  593MOL0     H79993   3.160   4.790   6.513  1.6568  0.3568 -0.7232
  593MOL0     H79994   3.232   5.029   6.510  2.7591  1.5080  1.0431
  593MOL0     H79995   3.192   5.036   6.689 -1.2076 -1.2621  1.5607
  593MOL0     H79996   3.352   4.854   6.732  1.2737  0.6399  1.1290
  593MOL0     H79997   3.414   4.848   6.569  0.8185 -0.7073  0.8498
  593MOL0     H79998   3.430   5.090   6.743 -2.0828 -1.3178  0.0632
  593MOL0     H79999   3.564   4.986   6.713  0.5380  1.3965 -1.1118
  593MOL0     H80000   3.568   5.054   6.482  1.7022  1.0138  0.2188
  593MOL0     H80001   3.422   5.145   6.488  0.3019  1.5248  0.5285
  593MOL0     H80002   3.524   5.306   6.647  0.0815  0.4910 -0.3681
  593MOL0     H80003   3.664   5.197   6.662  0.6075 -0.5516  0.6093
  593MOL0     H80004   3.687   5.397   6.509  2.1325 -0.7578 -2.3883
  593MOL0     H80005   3.564   5.314   6.402 -0.7496 -5.0280  0.1725
  593MOL0     H80006   3.898   5.211   6.597 -2.1893 -1.0522  0.2280
  593MOL0     H80007   4.091   4.983   6.352 -2.8913  2.5461 -2.2907
  593MOL0     H80008   4.156   5.101   6.479 -0.8820  0.8333  0.6678
  593MOL0     H80009   4.021   4.975   6.658  2.7501  2.0890 -0.1686
  593MOL0     H80010   4.129   4.861   6.578 -0.2199 -0.4368  0.8771
  593MOL0     H80011   3.841   4.871   6.528  0.6663  1.3964 -2.4505
  593MOL0     H80012   3.923   4.745   6.607  1.5723 -0.8782 -1.0512
  593MOL0     H80013   3.946   4.804   6.312  0.9017 -2.2889 -1.1003
  593MOL0     H80014   3.849   4.683   6.390  0.1440 -0.6833 -1.5514
  593MOL0     H80015   4.318   4.767   6.435  2.5650 -2.3382  0.0606
  593MOL0     H80016   4.586   4.815   6.231 -1.4356 -0.5810 -1.0518
  593MOL0     H80017   4.487   4.962   6.216  1.0786  0.3797 -0.7674
  593MOL0     H80018   4.501   4.877   6.368 -4.1625  1.0662 -0.4616
  593MOL0     H80019   4.634   4.851   5.796  0.4642 -0.0656 -0.9840
  593MOL0     H80020   4.844   4.738   5.668  0.3808 -1.7249 -2.4749
  593MOL0     H80021   5.000   4.547   5.647  2.2968 -1.0178 -0.6561
  593MOL0     H80022   4.941   4.382   5.663  1.0037  0.4982  1.1877
  593MOL0     H80023   5.119   4.376   5.508 -2.2350  0.4016  5.3444
  593MOL0     H80024   4.979   4.365   5.399 -1.5787 -1.4551  2.9340
  593MOL0     H80025   5.158   4.497   5.312 -1.4665 -0.8360  0.0886
  593MOL0     H80026   5.156   4.606   5.452 -2.4508 -0.0492  5.0053
  593MOL0     H80027   4.964   4.574   5.205 -1.6676 -1.8608  1.2676
  593MOL0     H80028   4.890   4.621   5.346 -0.6884 -1.7808 -1.3535
  593MOL0     H80029   4.970   4.809   5.189 -0.9239 -0.6578  0.9562
  593MOL0     H80030   5.131   4.763   5.232  0.5312 -1.3312  2.7433
  593MOL0     H80031   4.930   4.830   5.446 -1.8587  0.5101 -1.6794
  593MOL0     H80032   5.108   4.819   5.454 -0.7698 -0.5382  0.3485
  593MOL0     H80033   4.975   5.022   5.269  2.6887 -0.7577 -2.1795
  593MOL0     H80034   5.144   4.988   5.287 -0.6248  0.3856 -0.4660
  593MOL0     H80035   5.121   5.056   5.535  0.4700  0.9056 -0.2370
  593MOL0     H80036   4.961   5.103   5.508  0.1128  3.0401  0.4901
  593MOL0     H80037   4.598   4.407   5.587  2.0438  0.2744 -1.0959
  593MOL0     H80038   4.411   4.489   5.732  0.0115  1.4162  1.0484
  593MOL0     H80039   4.190   4.639   5.966 -2.5761 -1.3625 -0.1417
  593MOL0     H80040   4.038   4.604   6.150 -0.6408 -1.6256  2.0598
  593MOL0     H80041   2.739   4.919   6.458  0.9008  0.4148 -1.6253
  593MOL0     H80042   2.526   5.001   6.453 -0.6313 -2.1403  2.6950
  593MOL0     H80043   2.262   5.359   6.475 -0.2681  4.5500 -1.0743
  593MOL0     H80044   2.078   5.509   6.470  4.3892  3.2721 -0.1260
  593MOL0     H80045   1.821   5.456   6.797 -3.6419  0.4434 -0.2037
  593MOL0     H80046   1.855   5.608   6.856 -0.7317  0.7727 -0.7506
  593MOL0     H80047   1.691   5.582   6.589 -0.5105  3.4698 -0.4069
  593MOL0     H80048   1.698   5.714   6.697 -1.4749  0.1964 -1.4629
  593MOL0     H80049   1.489   5.636   6.765  0.0893  0.7123  1.7576
  593MOL0     H80050   1.592   5.575   6.884  1.6951  2.3453 -0.6519
  593MOL0     H80051   1.455   5.387   6.827 -1.1432  2.4997  1.5098
  593MOL0     H80052   1.602   5.353   6.725 -0.6176 -0.5237  0.0293
  593MOL0     H80053   1.336   5.435   6.415  0.6909 -1.5422  0.2431
  593MOL0     H80054   2.020   5.420   6.894 -0.1914 -0.8713  0.6637
  593MOL0     H80055   2.192   5.280   6.896 -1.4049 -3.8875 -1.5580
  594MOL0     O80056   8.737   8.087   3.235 -0.0538  0.7463  0.4172
  594MOL0     C80057   8.687   7.976   3.215 -0.7590  0.0281  0.6662
  594MOL0     O80058   8.629   7.896   3.307 -0.4104 -0.3917 -0.7014
  594MOL0     C80059   8.603   7.941   3.441  0.0553 -0.3852  1.0817
  594MOL0     C80060   8.640   7.870   3.551 -0.3688 -0.4062  0.6822
  594MOL0     C80061   8.623   7.916   3.676  0.5273  0.7095 -0.1002
  594MOL0     C80062   8.575   8.044   3.697  0.5922  0.2163  0.8805
  594MOL0     O80063   8.546   8.093   3.820  1.5491 -0.1623 -0.4514
  594MOL0     C80064   8.474   8.209   3.848  0.3274 -1.1095 -0.0364
  594MOL0     C80065   8.448   8.227   4.004  0.4310 -0.3563  0.1612
  594MOL0     C80066   8.341   8.341   4.033  0.7964  0.8436 -0.7538
  594MOL0     C80067   8.219   8.340   3.940 -0.5068 -0.1773 -0.4145
  594MOL0     C80068   8.111   8.441   3.976  0.4855 -0.1996 -0.6547
  594MOL0     C80069   8.009   8.473   3.861  0.7554  0.3250 -0.3622
  594MOL0     C80070   7.908   8.581   3.909  0.0157 -0.2695 -0.0361
  594MOL0     C80071   7.942   8.728   3.876 -0.0277 -1.3287 -0.5053
  594MOL0     N80072   7.907   8.829   3.975 -0.5984  0.4251 -0.0173
  594MOL0     C80073   7.793   8.904   3.971  0.8290  0.4897 -0.4028
  594MOL0     C80074   7.798   8.986   4.083 -0.2523  0.8735 -1.0602
  594MOL0     C80075   7.707   9.092   4.160 -0.0093 -0.5326 -0.1978
  594MOL0     C80076   7.612   9.157   4.064  0.0353  0.5638  0.0092
  594MOL0     C80077   7.557   9.289   4.113 -0.3511 -0.9528 -0.9733
  594MOL0     C80078   7.528   9.390   3.995 -0.3075  1.1784 -0.2670
  594MOL0     O80079   7.420   9.482   4.027 -0.0552 -0.0827 -0.1216
  594MOL0     C80080   7.285   9.442   4.019  0.0076 -0.4373  0.6029
  594MOL0     C80081   7.173   9.533   4.053  0.3000  0.0793  0.9253
  594MOL0     C80082   7.034   9.494   4.048 -0.3573 -0.3040  0.9782
  594MOL0     C80083   6.935   9.610   4.081 -0.6304  0.5127 -0.4636
  594MOL0     C80084   7.004   9.366   4.003 -0.4198 -0.4993 -0.1101
  594MOL0     C80085   6.864   9.320   3.987 -0.2498 -1.0368  0.1222
  594MOL0     O80086   6.849   9.193   3.947 -0.7707 -0.4829 -0.2968
  594MOL0     C80087   6.731   9.140   3.916 -0.4780 -0.9593 -0.4414
  594MOL0     C80088   6.614   9.129   3.995 -0.8226 -0.2647 -0.0596
  594MOL0     C80089   6.492   9.078   3.948  0.1672  0.0039  0.4852
  594MOL0     C80090   6.481   9.047   3.811 -0.8805  0.6653 -1.0423
  594MOL0     O80091   6.355   9.006   3.761 -0.1778  0.1575 -0.1668
  594MOL0     C80092   6.351   8.970   3.626  0.5100 -0.4247  0.0175
  594MOL0     C80093   6.316   9.079   3.513 -0.4666  0.2323 -1.0517
  594MOL0     C80094   6.189   9.163   3.539 -0.8684 -0.0842 -0.8492
  594MOL0     C80095   6.196   9.301   3.470  0.2574 -0.8635 -0.7433
  594MOL0     C80096   6.082   9.386   3.524 -0.3519  0.3093 -0.2900
  594MOL0     C80097   6.098   9.526   3.476 -0.5820  0.0360  0.1803
  594MOL0     C80098   5.982   9.606   3.528 -0.4269 -0.7517  0.8795
  594MOL0     C80099   5.991   9.629   3.678  0.1891 -0.2848  0.8055
  594MOL0    Cl80100   6.146   9.645   3.770  0.1802 -0.2883  0.7051
  594MOL0     C80101   6.595   9.058   3.732 -0.1134 -0.9196  0.2997
  594MOL0     C80102   6.715   9.106   3.777  0.5523 -0.2953 -0.7751
  594MOL0     O80103   6.769   9.394   3.999  0.2192  0.0358  0.1689
  594MOL0     C80104   7.107   9.269   3.978 -1.1301 -0.1544  0.2078
  594MOL0     C80105   7.246   9.308   3.984  0.2444 -0.7043 -0.1128
  594MOL0     N80106   7.918   8.952   4.143  0.1305  0.0576  0.0396
  594MOL0     N80107   7.983   8.852   4.088  0.1795 -0.6224 -0.1450
  594MOL0     C80108   8.541   8.115   3.583 -0.2893  0.2972 -0.3393
  594MOL0     C80109   8.552   8.063   3.457 -0.2303  0.5149  0.2732
  594MOL0     C80110   8.679   7.919   3.079  0.6864 -0.4656 -0.0823
  594MOL0     C80111   8.647   7.780   3.060  0.4049 -0.3319  0.2249
  594MOL0     C80112   8.644   7.739   2.929  0.9178 -0.7816  0.2496
  594MOL0     C80113   8.680   7.810   2.821 -0.7931 -0.0050  0.0977
  594MOL0     O80114   8.694   7.749   2.699  0.3446 -0.6428  0.5246
  594MOL0     C80115   8.757   7.804   2.586 -0.2811 -0.2230 -0.2514
  594MOL0     C80116   8.739   7.705   2.475  0.3233  0.0065 -0.7518
  594MOL0     C80117   8.751   7.767   2.336  0.1773  0.0526  0.1721
  594MOL0     C80118   8.729   7.670   2.230  0.8415 -0.1780 -0.2680
  594MOL0     C80119   8.849   7.586   2.202  0.8719 -0.4674 -0.5414
  594MOL0     C80120   8.937   7.513   2.161  1.5880  0.5330 -0.5432
  594MOL0     C80121   8.724   7.943   2.847  0.7344 -1.1346 -0.0091
  594MOL0     C80122   8.727   7.998   2.971  0.7219 -0.1138  0.0136
  594MOL0     H80123   8.682   7.777   3.514 -2.7474 -0.3359 -2.6529
  594MOL0     H80124   8.643   7.844   3.755 -0.9101  1.5312  1.0571
  594MOL0     H80125   8.522   8.299   3.808  0.7590 -2.6912 -3.5058
  594MOL0     H80126   8.382   8.191   3.792  1.2149 -1.2360 -1.5259
  594MOL0     H80127   8.392   8.135   4.024 -1.5909  0.7191 -0.3117
  594MOL0     H80128   8.534   8.245   4.069  0.6673 -1.3071  0.1214
  594MOL0     H80129   8.301   8.331   4.134  1.3624  0.3914 -0.5698
  594MOL0     H80130   8.392   8.438   4.026  3.3823 -0.4029 -0.7231
  594MOL0     H80131   8.251   8.367   3.839  0.8188  2.6033  0.6510
  594MOL0     H80132   8.163   8.246   3.948  0.5779 -0.6814  2.1281
  594MOL0     H80133   8.067   8.407   4.071 -1.8507 -0.3762 -1.7327
  594MOL0     H80134   8.164   8.532   4.006 -0.2588 -0.0133  0.1550
  594MOL0     H80135   8.067   8.509   3.776  1.4287 -0.7817 -0.3865
  594MOL0     H80136   7.959   8.382   3.827 -0.5823  0.0425  2.0738
  594MOL0     H80137   7.810   8.568   3.862 -0.6640 -3.5327  1.9643
  594MOL0     H80138   7.882   8.546   4.009 -1.1457 -0.8542 -0.5230
  594MOL0     H80139   7.909   8.760   3.777  2.1967  0.8085 -0.6643
  594MOL0     H80140   8.050   8.745   3.876 -0.3343  1.5456  1.9805
  594MOL0     H80141   7.706   8.891   3.907  1.9292 -1.1211 -1.6309
  594MOL0     H80142   7.645   9.049   4.239  1.3811 -1.0753  0.6256
  594MOL0     H80143   7.759   9.174   4.208 -2.0335 -0.2557  1.6909
  594MOL0     H80144   7.526   9.094   4.042 -0.7087  1.6882 -0.3825
  594MOL0     H80145   7.669   9.176   3.972 -2.0379  3.7898 -0.7748
  594MOL0     H80146   7.628   9.331   4.184 -1.2754 -2.3695  0.8784
  594MOL0     H80147   7.467   9.268   4.172  1.6612 -3.3739  1.4866
  594MOL0     H80148   7.513   9.330   3.905  2.7243 -0.0985 -0.0611
  594MOL0     H80149   7.618   9.448   3.971 -0.1475 -0.2055 -3.4335
  594MOL0     H80150   7.203   9.636   4.072 -1.4918  1.1063 -1.3838
  594MOL0     H80151   6.856   9.611   4.005  0.2933  1.2302 -1.4499
  594MOL0     H80152   6.899   9.585   4.181 -0.9664 -2.0465 -1.1517
  594MOL0     H80153   6.994   9.701   4.073  3.9872 -2.1669 -0.5083
  594MOL0     H80154   6.609   9.178   4.091 -1.1026  2.8296 -1.5583
  594MOL0     H80155   6.402   9.071   4.007 -1.6712 -0.9779 -2.2033
  594MOL0     H80156   6.439   8.909   3.603  2.2740  1.7384  0.6828
  594MOL0     H80157   6.264   8.905   3.641  0.4439 -0.1151  1.1280
  594MOL0     H80158   6.407   9.138   3.497  0.1819 -0.9557 -1.9413
  594MOL0     H80159   6.298   9.031   3.416 -0.1991  0.5937 -1.2830
  594MOL0     H80160   6.179   9.178   3.647  3.0875 -0.0924 -0.3376
  594MOL0     H80161   6.107   9.104   3.497 -0.9118 -1.6626  1.2800
  594MOL0     H80162   6.297   9.343   3.475 -0.4704  1.1309 -1.6219
  594MOL0     H80163   6.169   9.292   3.364 -0.4237 -0.4001 -0.6174
  594MOL0     H80164   6.072   9.378   3.633 -5.3287 -1.4513 -0.5998
  594MOL0     H80165   5.987   9.351   3.484  0.1540  0.9803 -2.1895
  594MOL0     H80166   6.201   9.553   3.502 -0.2777 -2.6296  2.2295
  594MOL0     H80167   6.080   9.524   3.369  1.3619  0.5216 -0.1901
  594MOL0     H80168   5.886   9.563   3.499  0.8259 -1.9112 -1.7954
  594MOL0     H80169   5.983   9.705   3.482  0.2193 -1.1827 -0.0524
  594MOL0     H80170   5.957   9.537   3.727  1.8111 -0.6141  1.3918
  594MOL0     H80171   5.920   9.707   3.708  0.0741  0.6843 -1.7288
  594MOL0     H80172   6.603   9.026   3.629  2.8913 -1.6857  0.6788
  594MOL0     H80173   6.798   9.122   3.709  0.9422  0.6608 -0.0912
  594MOL0     H80174   7.094   9.166   3.946 -0.0363 -0.8199  1.7748
  594MOL0     H80175   7.320   9.231   3.966 -1.6043 -2.4161 -0.9025
  594MOL0     H80176   8.477   8.202   3.592 -2.0049 -0.5695 -2.9761
  594MOL0     H80177   8.497   8.120   3.382 -1.7302 -0.6985  0.3878
  594MOL0     H80178   8.612   7.710   3.135 -1.4824 -1.0731 -1.2554
  594MOL0     H80179   8.617   7.634   2.926 -2.5226  0.0039 -0.5679
  594MOL0     H80180   8.699   7.896   2.574 -2.3276 -0.9097  3.1750
  594MOL0     H80181   8.862   7.829   2.606 -0.5229  0.1722  0.5541
  594MOL0     H80182   8.644   7.652   2.476  0.4516 -0.2486 -1.3873
  594MOL0     H80183   8.819   7.631   2.482  2.2178  1.7278 -2.6223
  594MOL0     H80184   8.832   7.839   2.322 -0.3840  0.9734  1.4700
  594MOL0     H80185   8.664   7.834   2.332 -2.1159 -2.6080  2.0521
  594MOL0     H80186   8.696   7.712   2.135 -2.0171 -0.0033  0.7128
  594MOL0     H80187   8.641   7.614   2.263  0.2754  1.5814  1.4194
  594MOL0     H80188   9.013   7.444   2.130  3.1260  0.9180  2.0805
  594MOL0     H80189   8.754   8.006   2.764  0.6968 -0.4954  0.4571
  594MOL0     H80190   8.745   8.104   2.981 -3.3466  0.7317  0.4455
  595MOL0     O80191   1.814   4.912   2.630  0.0620 -0.1604 -0.3508
  595MOL0     C80192   1.882   4.951   2.536  0.1275  0.9741 -0.9759
  595MOL0     O80193   1.883   4.894   2.408  0.4553 -0.3013 -0.1843
  595MOL0     C80194   1.792   4.796   2.383  0.7299  0.5641 -1.0146
  595MOL0     C80195   1.836   4.663   2.351  0.4616 -0.1057  0.1152
  595MOL0     C80196   1.741   4.566   2.325 -0.1268  0.2439 -0.2473
  595MOL0     C80197   1.610   4.588   2.350  0.8382 -0.4284  0.2162
  595MOL0     O80198   1.524   4.481   2.369  0.0560  0.2297  0.0195
  595MOL0     C80199   1.430   4.498   2.475  0.1490 -0.3360 -0.2771
  595MOL0     C80200   1.338   4.380   2.489 -0.4745 -0.1069  0.3787
  595MOL0     C80201   1.414   4.245   2.506 -0.2014 -0.2301  0.1308
  595MOL0     C80202   1.307   4.139   2.549  0.7025  0.3330 -0.4140
  595MOL0     C80203   1.362   3.991   2.558 -0.0443 -0.1372 -0.6009
  595MOL0     C80204   1.248   3.892   2.583 -0.3668 -0.1749  0.0068
  595MOL0     C80205   1.290   3.743   2.569 -0.2642  0.1382  0.0628
  595MOL0     C80206   1.239   3.679   2.439 -1.0949  1.1818  0.2027
  595MOL0     N80207   1.267   3.533   2.441 -0.1547  0.0792  0.1872
  595MOL0     C80208   1.161   3.449   2.476  0.6148  0.0671  0.1225
  595MOL0     C80209   1.225   3.330   2.490 -0.1552 -0.9447  0.7027
  595MOL0     C80210   1.164   3.206   2.543 -0.4377  0.2625 -0.6126
  595MOL0     C80211   1.122   3.096   2.450  0.4993  0.1775  0.2586
  595MOL0     C80212   1.207   3.081   2.333  0.3723  0.1853  0.3582
  595MOL0     C80213   1.194   2.938   2.275 -0.3934 -0.2614 -0.9599
  595MOL0     O80214   1.234   2.832   2.359  0.4629  0.1489 -0.2609
  595MOL0     C80215   1.175   2.715   2.353  0.7007 -0.6273  0.0312
  595MOL0     C80216   1.238   2.610   2.413 -0.0676  0.1071  0.1230
  595MOL0     C80217   1.199   2.480   2.416 -0.7290  0.1562 -0.1478
  595MOL0     C80218   1.286   2.366   2.478  0.1589 -0.4690  0.2101
  595MOL0     C80219   1.090   2.452   2.343 -0.1616 -0.1051  1.3113
  595MOL0     C80220   1.056   2.320   2.297 -0.3853 -0.0639  0.7515
  595MOL0     O80221   1.150   2.234   2.250  0.2029  0.3972  0.3421
  595MOL0     C80222   1.115   2.108   2.208 -0.4480 -0.3356 -0.1127
  595MOL0     C80223   1.212   2.001   2.232  0.5478 -0.4577  0.5801
  595MOL0     C80224   1.198   1.867   2.189 -0.4935 -0.5814  0.0944
  595MOL0     C80225   1.091   1.843   2.100  0.0159 -0.4079  0.6347
  595MOL0     O80226   1.085   1.717   2.045  0.3968  0.1159  0.5437
  595MOL0     C80227   0.959   1.649   2.030 -0.3067  0.4430 -0.5763
  595MOL0     C80228   0.886   1.658   1.894 -0.6778 -0.5276 -0.6858
  595MOL0     C80229   0.773   1.557   1.890  0.2857 -0.6414 -0.0415
  595MOL0     C80230   0.730   1.530   1.733 -0.1784 -0.9694  0.2754
  595MOL0     C80231   0.595   1.458   1.734  0.1608 -0.3925  1.2561
  595MOL0     C80232   0.525   1.451   1.598 -0.0560 -1.2448 -0.0541
  595MOL0     C80233   0.608   1.395   1.483 -0.4266  0.5090 -0.6278
  595MOL0     C80234   0.536   1.369   1.351 -0.3602  0.2132  0.3255
  595MOL0    Cl80235   0.643   1.368   1.208 -0.0356 -0.1040  0.2160
  595MOL0     C80236   1.003   1.946   2.070  0.3933 -0.2132 -1.0197
  595MOL0     C80237   1.004   2.073   2.136  0.0548  0.1821  0.0135
  595MOL0     O80238   0.937   2.292   2.309 -0.5732  0.4520 -0.1545
  595MOL0     C80239   1.020   2.554   2.275 -0.1442  0.4305 -0.4780
  595MOL0     C80240   1.064   2.688   2.280  1.1662 -0.2515  0.0593
  595MOL0     N80241   1.360   3.344   2.465  0.4119  0.0310 -0.1394
  595MOL0     N80242   1.387   3.462   2.427 -0.5644 -0.2485 -0.5064
  595MOL0     C80243   1.562   4.717   2.370  0.7309 -1.4084 -0.2696
  595MOL0     C80244   1.656   4.814   2.394 -1.4674  0.5280  0.0332
  595MOL0     C80245   1.978   5.062   2.558 -0.4745  0.2546 -1.8249
  595MOL0     C80246   1.979   5.119   2.690 -0.2605  0.5318  0.5736
  595MOL0     C80247   2.068   5.231   2.714  0.3293  0.4642 -1.1472
  595MOL0     C80248   2.144   5.285   2.610 -0.0570 -0.4783 -0.0537
  595MOL0     O80249   2.205   5.411   2.618 -0.4197 -0.9011  0.4777
  595MOL0     C80250   2.330   5.407   2.696  0.3303  0.2367  1.0701
  595MOL0     C80251   2.446   5.364   2.615 -0.6542 -0.3746  0.4004
  595MOL0     C80252   2.484   5.472   2.518 -0.3072 -0.6324  0.3555
  595MOL0     C80253   2.611   5.424   2.442 -0.8431  0.1958 -0.2247
  595MOL0     C80254   2.591   5.304   2.362  0.4197  0.1401  1.0230
  595MOL0     C80255   2.576   5.211   2.287  0.5993 -0.0605 -0.2231
  595MOL0     C80256   2.147   5.224   2.492  0.3251  0.1871  0.3628
  595MOL0     C80257   2.071   5.112   2.460  0.0254 -0.1479  0.5246
  595MOL0     H80258   1.942   4.644   2.342  0.9011  1.4060  1.6256
  595MOL0     H80259   1.763   4.463   2.300  1.0362  0.5122 -0.3812
  595MOL0     H80260   1.481   4.512   2.571 -1.3766 -0.8930  0.6462
  595MOL0     H80261   1.363   4.581   2.452  1.0077  0.1691 -1.0445
  595MOL0     H80262   1.269   4.392   2.573 -0.1123  0.9141  0.5474
  595MOL0     H80263   1.281   4.367   2.397  1.4105 -0.1107 -0.8388
  595MOL0     H80264   1.459   4.216   2.411  0.7664  1.4278  0.0388
  595MOL0     H80265   1.495   4.251   2.579  1.4148 -1.2810 -1.4995
  595MOL0     H80266   1.262   4.168   2.645  1.4645 -0.6875  0.2771
  595MOL0     H80267   1.236   4.149   2.466  2.7502  2.5078 -2.0405
  595MOL0     H80268   1.407   3.983   2.458  1.4326  3.2192 -0.3360
  595MOL0     H80269   1.436   3.969   2.635 -0.4223 -4.6488 -1.2675
  595MOL0     H80270   1.207   3.904   2.684 -1.0281 -1.8341 -0.0392
  595MOL0     H80271   1.162   3.920   2.523 -0.6273  1.4946  1.0776
  595MOL0     H80272   1.398   3.729   2.580  0.1388 -0.4511 -3.4623
  595MOL0     H80273   1.250   3.683   2.651  2.0343  0.5982  1.6288
  595MOL0     H80274   1.281   3.721   2.348  0.2906  0.3549  0.4407
  595MOL0     H80275   1.134   3.702   2.420 -1.1270  0.9063  0.0440
  595MOL0     H80276   1.057   3.475   2.494 -0.1883  0.2523 -3.7315
  595MOL0     H80277   1.238   3.160   2.609 -0.9374  0.5687  0.1663
  595MOL0     H80278   1.081   3.236   2.607 -2.6557 -2.4055 -2.0416
  595MOL0     H80279   1.020   3.121   2.417 -0.2389 -2.4892  0.3165
  595MOL0     H80280   1.117   3.006   2.512 -0.7796 -1.0301 -1.5132
  595MOL0     H80281   1.311   3.097   2.361  0.2863 -0.0605  0.8258
  595MOL0     H80282   1.178   3.165   2.269  0.4115  0.2796  0.4661
  595MOL0     H80283   1.245   2.921   2.180  1.7360 -0.7075  0.2059
  595MOL0     H80284   1.085   2.929   2.263 -0.2676  1.0640 -4.0981
  595MOL0     H80285   1.324   2.611   2.479  0.3303 -3.7406 -0.0716
  595MOL0     H80286   1.361   2.409   2.545  0.3831 -4.2495  2.6477
  595MOL0     H80287   1.236   2.285   2.531 -1.4338 -1.1164 -2.1488
  595MOL0     H80288   1.325   2.303   2.397  0.1997 -1.4391  0.9699
  595MOL0     H80289   1.303   2.022   2.288  0.9591  1.5434 -0.7411
  595MOL0     H80290   1.285   1.802   2.193  1.2218  1.6352  0.6366
  595MOL0     H80291   0.974   1.542   2.045 -3.7635  0.2316  2.9442
  595MOL0     H80292   0.894   1.681   2.112 -1.3706  0.5096 -1.4250
  595MOL0     H80293   0.848   1.761   1.891  0.1949 -0.1810 -0.1288
  595MOL0     H80294   0.950   1.643   1.806 -0.6406 -1.2732 -0.5348
  595MOL0     H80295   0.691   1.602   1.946  2.6152  1.6156  1.8515
  595MOL0     H80296   0.796   1.466   1.944  1.4456  1.1076  2.6235
  595MOL0     H80297   0.714   1.628   1.688  2.8893 -0.1456  0.7641
  595MOL0     H80298   0.802   1.474   1.674  1.5441  2.1683 -0.8272
  595MOL0     H80299   0.542   1.512   1.813  0.9793  0.2271  1.3973
  595MOL0     H80300   0.618   1.357   1.768  2.3192 -0.3134  0.2034
  595MOL0     H80301   0.438   1.386   1.616 -1.7576  1.5497  2.8762
  595MOL0     H80302   0.491   1.552   1.576 -0.1972 -1.0132  1.1578
  595MOL0     H80303   0.667   1.311   1.521 -0.9712  0.3483 -0.1202
  595MOL0     H80304   0.681   1.476   1.477  0.0527  0.4703  2.8351
  595MOL0     H80305   0.465   1.452   1.344 -2.2499 -1.2408  1.2598
  595MOL0     H80306   0.470   1.282   1.357  0.7424 -0.6534 -0.0280
  595MOL0     H80307   0.921   1.946   1.998 -0.5158  2.0538 -0.0836
  595MOL0     H80308   0.924   2.147   2.129  0.2759  0.5221  0.8779
  595MOL0     H80309   0.930   2.523   2.223 -0.6060 -0.6349  0.8863
  595MOL0     H80310   1.007   2.753   2.214 -0.4034 -1.1999  0.4282
  595MOL0     H80311   1.456   4.737   2.383  0.8817 -1.4940  1.3130
  595MOL0     H80312   1.623   4.916   2.412 -1.2036  0.3718  1.5146
  595MOL0     H80313   1.919   5.088   2.776 -1.7463  2.1338  0.1733
  595MOL0     H80314   2.070   5.286   2.807 -1.7933 -0.6658 -0.3882
  595MOL0     H80315   2.343   5.498   2.754  2.2982  1.3695 -0.9918
  595MOL0     H80316   2.310   5.334   2.775 -2.2490  0.1446  0.4231
  595MOL0     H80317   2.428   5.272   2.558  0.5067  0.7783 -2.0281
  595MOL0     H80318   2.533   5.344   2.679 -1.5109 -0.8923  1.4153
  595MOL0     H80319   2.526   5.561   2.566 -0.7042 -0.2315 -0.0367
  595MOL0     H80320   2.401   5.496   2.450  0.6561  1.1509 -0.2472
  595MOL0     H80321   2.689   5.407   2.517 -0.6384  0.2638 -0.4211
  595MOL0     H80322   2.651   5.499   2.373  2.3888 -1.5150 -0.3732
  595MOL0     H80323   2.569   5.136   2.210  0.6077  0.9222 -1.2086
  595MOL0     H80324   2.207   5.272   2.415  0.9726 -3.1376 -1.3738
  595MOL0     H80325   2.055   5.077   2.359 -2.8716 -0.8890  1.1244
  596MOL0     O80326   7.149   6.843  11.533  0.0183  0.2581 -0.5830
  596MOL0     C80327   7.195   6.886  11.429 -0.0350 -0.3260 -0.7678
  596MOL0     O80328   7.169   6.835  11.302 -0.3535 -0.5300  0.2018
  596MOL0     C80329   7.148   6.705  11.276 -0.4785  0.4119 -0.8344
  596MOL0     C80330   7.193   6.610  11.371 -0.5843  0.2408  0.3504
  596MOL0     C80331   7.156   6.475  11.361  0.4107 -0.0503  0.2686
  596MOL0     C80332   7.083   6.430  11.248  0.3942  0.3246  0.6231
  596MOL0     O80333   7.029   6.303  11.245  0.2672 -0.7675  0.3576
  596MOL0     C80334   7.014   6.232  11.119  0.0544  0.2516 -0.3236
  596MOL0     C80335   6.872   6.233  11.076 -0.0273 -0.3208  0.6128
  596MOL0     C80336   6.780   6.165  11.174 -0.2024  0.0461 -1.0087
  596MOL0     C80337   6.843   6.039  11.248  0.3580  0.8454  0.0750
  596MOL0     C80338   6.722   5.959  11.303  0.0228  0.3058 -0.1515
  596MOL0     C80339   6.645   5.873  11.206  0.1209 -0.4738 -0.6693
  596MOL0     C80340   6.561   5.778  11.286  0.1539 -0.3660 -0.5448
  596MOL0     C80341   6.430   5.754  11.215 -0.5037  0.1926  0.2660
  596MOL0     N80342   6.343   5.877  11.215 -0.2861  0.6722 -0.2066
  596MOL0     C80343   6.286   5.943  11.317 -0.9926  0.3836 -0.1178
  596MOL0     C80344   6.245   6.062  11.260  0.3580 -0.2264  0.2489
  596MOL0     C80345   6.180   6.168  11.357  0.4249  0.7509 -1.4222
  596MOL0     C80346   6.251   6.196  11.485 -0.0423  0.1370  0.6801
  596MOL0     C80347   6.397   6.256  11.473  0.4154 -0.1006 -0.3419
  596MOL0     C80348   6.462   6.308  11.600  0.3721 -0.8783 -1.1757
  596MOL0     O80349   6.602   6.328  11.568 -0.1821  0.0778  0.6628
  596MOL0     C80350   6.701   6.326  11.666  0.6669  0.0700 -0.0628
  596MOL0     C80351   6.678   6.294  11.802 -0.2081 -0.7391 -0.0329
  596MOL0     C80352   6.788   6.289  11.891  0.6992 -0.2602 -0.8273
  596MOL0     C80353   6.762   6.257  12.035 -0.4107  0.3926  1.0283
  596MOL0     C80354   6.926   6.319  11.840  0.7225  0.4509 -0.8563
  596MOL0     C80355   7.053   6.297  11.913 -0.7670 -0.7930 -0.0320
  596MOL0     O80356   7.160   6.375  11.880  0.1701  0.6934  0.8689
  596MOL0     C80357   7.272   6.364  11.951  0.2507  0.1393 -0.2356
  596MOL0     C80358   7.301   6.432  12.070 -0.6591 -0.2378 -0.1030
  596MOL0     C80359   7.439   6.427  12.125  1.0733 -0.8954 -0.8828
  596MOL0     C80360   7.542   6.360  12.057  0.8492  1.1426  0.9175
  596MOL0     O80361   7.671   6.384  12.085 -0.0895  0.5948 -0.8044
  596MOL0     C80362   7.721   6.432  12.210  0.0397 -0.5426 -0.4257
  596MOL0     C80363   7.767   6.577  12.181 -0.0579 -0.2682  0.4853
  596MOL0     C80364   7.871   6.587  12.066  0.1716  0.2530 -0.2631
  596MOL0     C80365   7.885   6.742  12.030 -0.2356  0.2397  0.5701
  596MOL0     C80366   7.933   6.843  12.130 -0.2300 -0.5808  0.3220
  596MOL0     C80367   8.081   6.854  12.167  0.5903  1.0877 -0.4183
  596MOL0     C80368   8.103   6.953  12.283  0.1195  0.6864 -0.5521
  596MOL0     C80369   8.237   6.931  12.350 -0.1505  0.7758 -0.5503
  596MOL0    Cl80370   8.353   6.974  12.228 -0.0676  0.0660 -0.4998
  596MOL0     C80371   7.512   6.294  11.941  0.1312  0.6671  0.7302
  596MOL0     C80372   7.379   6.295  11.897  0.3591  0.3992  0.1564
  596MOL0     O80373   7.039   6.234  12.016  0.1401 -0.4912 -0.4495
  596MOL0     C80374   6.938   6.368  11.705  0.0781  0.5987 -0.1575
  596MOL0     C80375   6.828   6.372  11.620  0.2177  1.1311  0.5058
  596MOL0     N80376   6.271   6.075  11.126 -0.4784 -0.5154 -0.0521
  596MOL0     N80377   6.328   5.962  11.102 -0.3204 -0.5232 -1.2849
  596MOL0     C80378   7.052   6.525  11.148  0.2820 -1.2571  1.2769
  596MOL0     C80379   7.071   6.665  11.165 -0.6933 -0.5659 -0.6484
  596MOL0     C80380   7.266   7.015  11.441  0.1933 -0.7533  0.5760
  596MOL0     C80381   7.344   7.063  11.335  0.6548  0.2832  0.1915
  596MOL0     C80382   7.419   7.178  11.349  0.7553 -0.3414  0.8965
  596MOL0     C80383   7.406   7.260  11.456  0.1153 -0.1687 -0.1520
  596MOL0     O80384   7.456   7.385  11.465 -0.6965  0.5385  0.1910
  596MOL0     C80385   7.607   7.392  11.471 -0.3415  0.6327 -1.1771
  596MOL0     C80386   7.660   7.373  11.618 -0.4679  0.5398  0.1469
  596MOL0     C80387   7.699   7.219  11.646 -0.4763  0.0351  0.2615
  596MOL0     C80388   7.811   7.230  11.748 -0.6087  0.8243 -0.3103
  596MOL0     C80389   7.762   7.243  11.898  0.3955  0.2329  0.1385
  596MOL0     C80390   7.725   7.242  12.012  0.3924 -0.4425 -1.3396
  596MOL0     C80391   7.334   7.205  11.567 -0.3097 -0.7245  1.0971
  596MOL0     C80392   7.265   7.084  11.563  0.7310 -0.9294 -0.4455
  596MOL0     H80393   7.258   6.643  11.451 -1.7791  1.4820  0.8310
  596MOL0     H80394   7.184   6.401  11.435  0.1320  0.3216  0.7506
  596MOL0     H80395   7.082   6.261  11.038 -0.0345 -1.5805 -1.1072
  596MOL0     H80396   7.034   6.125  11.132 -3.1241 -1.0787 -4.0241
  596MOL0     H80397   6.838   6.333  11.047  1.4189  0.0052 -0.0439
  596MOL0     H80398   6.874   6.173  10.984  0.9015  0.4224  0.1390
  596MOL0     H80399   6.753   6.238  11.251 -0.6654 -1.5286  0.3787
  596MOL0     H80400   6.685   6.140  11.125 -0.5224  2.6896 -1.8796
  596MOL0     H80401   6.910   5.979  11.185  0.7065  3.2769 -2.0416
  596MOL0     H80402   6.898   6.079  11.333 -0.3516  2.9881 -0.4282
  596MOL0     H80403   6.756   5.879  11.370  3.1341 -0.2190 -2.1496
  596MOL0     H80404   6.650   6.026  11.350 -0.5542  0.5016 -1.2979
  596MOL0     H80405   6.587   5.938  11.139  0.4074 -1.1274 -1.5772
  596MOL0     H80406   6.713   5.818  11.140  2.0602 -0.1944  0.9821
  596MOL0     H80407   6.619   5.685  11.290  1.1410  0.2650  1.4231
  596MOL0     H80408   6.542   5.814  11.388 -0.2942  0.0078 -0.7545
  596MOL0     H80409   6.379   5.679  11.276 -0.9255 -0.5096 -0.9276
  596MOL0     H80410   6.437   5.718  11.112 -1.1366  0.9620 -0.0651
  596MOL0     H80411   6.285   5.924  11.424  2.5775  3.2868  0.6626
  596MOL0     H80412   6.180   6.265  11.306  0.9785  1.1613 -0.6583
  596MOL0     H80413   6.077   6.142  11.383  0.6865 -0.5499 -1.6217
  596MOL0     H80414   6.251   6.096  11.527  2.4384 -1.6196 -2.9981
  596MOL0     H80415   6.188   6.262  11.546 -2.7260  0.2092 -1.9246
  596MOL0     H80416   6.397   6.340  11.402 -2.1015  1.4625  1.3068
  596MOL0     H80417   6.464   6.175  11.443 -0.4186 -0.1081 -2.3069
  596MOL0     H80418   6.443   6.240  11.684  1.8318  0.9560  0.7409
  596MOL0     H80419   6.407   6.400  11.620 -1.5451 -2.5809  2.4707
  596MOL0     H80420   6.578   6.265  11.831 -1.3503  2.5870 -0.1925
  596MOL0     H80421   6.655   6.240  12.055  0.0088 -1.8439  1.7305
  596MOL0     H80422   6.813   6.166  12.069  0.9179  0.1822 -1.2818
  596MOL0     H80423   6.780   6.339  12.105 -2.3137  0.7377  1.1656
  596MOL0     H80424   7.240   6.513  12.108 -0.6709  0.4886 -1.5841
  596MOL0     H80425   7.461   6.513  12.187 -3.3783 -0.4218  0.3522
  596MOL0     H80426   7.648   6.442  12.291  0.3310  1.4293 -0.3555
  596MOL0     H80427   7.799   6.360  12.236  4.2219  3.4759 -0.5273
  596MOL0     H80428   7.679   6.639  12.163  0.2100 -0.4404 -1.7344
  596MOL0     H80429   7.817   6.632  12.261  2.0491  0.4659 -1.2227
  596MOL0     H80430   7.835   6.543  11.973 -0.5905  1.4889 -0.5771
  596MOL0     H80431   7.972   6.549  12.082  0.8159  0.3969 -3.4648
  596MOL0     H80432   7.946   6.742  11.939 -1.1627  0.9173 -0.0671
  596MOL0     H80433   7.784   6.770  11.999 -0.1779  0.7134  0.8141
  596MOL0     H80434   7.884   6.828  12.227  2.1271 -0.4102  1.6157
  596MOL0     H80435   7.892   6.938  12.095  1.4140 -0.7781 -2.4102
  596MOL0     H80436   8.096   6.750  12.198 -4.0628  1.1854  3.3333
  596MOL0     H80437   8.142   6.883  12.081 -0.5033 -0.7884 -1.8893
  596MOL0     H80438   8.026   6.953  12.360 -0.2424  1.3252 -0.9080
  596MOL0     H80439   8.097   7.055  12.243 -0.4631  1.0230  0.3680
  596MOL0     H80440   8.243   6.823  12.364 -1.0719  0.2247 -3.5667
  596MOL0     H80441   8.243   6.983  12.446 -2.4205 -1.7374  1.1045
  596MOL0     H80442   7.590   6.239  11.891 -0.1685  1.9798 -1.2991
  596MOL0     H80443   7.374   6.255  11.797  0.0239 -1.8043  0.9958
  596MOL0     H80444   7.030   6.396  11.654  0.7685  1.5205  1.5087
  596MOL0     H80445   6.831   6.406  11.517 -1.1827 -1.6301 -0.5424
  596MOL0     H80446   6.993   6.498  11.060 -1.3191 -1.6430  2.4163
  596MOL0     H80447   7.033   6.744  11.101  2.4597  3.4089  1.8624
  596MOL0     H80448   7.348   7.010  11.240  0.5911  0.8866 -0.1516
  596MOL0     H80449   7.477   7.206  11.261  1.2691 -0.7329  1.1030
  596MOL0     H80450   7.653   7.311  11.413  0.8722 -0.3751  1.0621
  596MOL0     H80451   7.628   7.492  11.432  0.6777  0.1061 -2.0312
  596MOL0     H80452   7.596   7.409  11.699  1.7402  1.1360  1.6948
  596MOL0     H80453   7.745   7.440  11.611  2.2085 -2.6839 -1.0332
  596MOL0     H80454   7.734   7.162  11.560 -1.5801  1.1914 -1.0012
  596MOL0     H80455   7.610   7.164  11.679 -0.0598 -2.0462 -1.8821
  596MOL0     H80456   7.875   7.309  11.708 -2.3615  2.8144  0.6353
  596MOL0     H80457   7.865   7.135  11.745 -1.4609  0.1423  2.3981
  596MOL0     H80458   7.717   7.245  12.119  3.4713 -0.8663 -1.0176
  596MOL0     H80459   7.322   7.280  11.644 -2.2607  1.8976 -1.5356
  596MOL0     H80460   7.200   7.055  11.645 -0.3564  2.9116  0.2764
  597MOL0     O80461   3.840  10.950  10.140 -0.8828 -0.3406  0.4219
  597MOL0     C80462   3.965  10.932  10.119  0.6849  0.7846  0.4214
  597MOL0     O80463   4.029  10.811  10.122  0.7026  0.5022 -0.8309
  597MOL0     C80464   3.950  10.701  10.161  0.5446  1.0205  0.0494
  597MOL0     C80465   3.938  10.656  10.294  0.0884 -0.2422  0.1934
  597MOL0     C80466   3.866  10.537  10.328 -0.4779  0.4885 -0.1852
  597MOL0     C80467   3.821  10.453  10.222 -0.4234 -0.4756  0.4990
  597MOL0     O80468   3.757  10.336  10.235  0.2223  0.0515  1.0079
  597MOL0     C80469   3.724  10.286  10.360  0.1866 -0.7592  0.6176
  597MOL0     C80470   3.701  10.144  10.353  0.1499 -0.1241 -0.8926
  597MOL0     C80471   3.827  10.051  10.361  0.2795 -0.2882 -0.0962
  597MOL0     C80472   3.780   9.906  10.366 -0.6508  0.3111 -0.5526
  597MOL0     C80473   3.741   9.844  10.231 -0.1981 -0.8988  0.4021
  597MOL0     C80474   3.857   9.807  10.144 -0.0034  1.1079 -0.1924
  597MOL0     C80475   3.951   9.707  10.195 -1.6518  0.0773 -0.3302
  597MOL0     C80476   3.890   9.570  10.218  1.4603 -0.1652  0.7513
  597MOL0     N80477   3.820   9.526  10.096  0.1596  0.4473  0.2778
  597MOL0     C80478   3.681   9.504  10.073 -0.8294  0.2081 -0.2839
  597MOL0     C80479   3.665   9.494   9.943 -0.3440  0.0882  0.3499
  597MOL0     C80480   3.532   9.475   9.873  0.4990  0.4885  0.0218
  597MOL0     C80481   3.545   9.372   9.752  0.9565  0.1529  0.2132
  597MOL0     C80482   3.432   9.384   9.650  0.2420 -0.5056 -0.2083
  597MOL0     C80483   3.480   9.453   9.516  0.0451 -0.3240  0.4106
  597MOL0     O80484   3.364   9.470   9.434 -0.7107 -0.0919  0.6005
  597MOL0     C80485   3.302   9.358   9.384 -0.8034  0.2565  0.6649
  597MOL0     C80486   3.358   9.223   9.373  0.1077  0.7251  0.5647
  597MOL0     C80487   3.282   9.120   9.310 -0.2508  0.2832  0.2818
  597MOL0     C80488   3.344   8.987   9.316  0.6407  0.2145  0.0389
  597MOL0     C80489   3.155   9.151   9.246  0.5254  0.7147  0.1174
  597MOL0     C80490   3.072   9.058   9.161 -0.0862 -0.2403 -0.1116
  597MOL0     O80491   3.126   8.930   9.138  0.7473  0.3855  0.9542
  597MOL0     C80492   3.041   8.845   9.065 -0.1146  0.0038 -0.2316
  597MOL0     C80493   3.082   8.812   8.939 -0.4445  0.0141 -0.3545
  597MOL0     C80494   3.022   8.715   8.856  0.0722 -1.0961  0.0277
  597MOL0     C80495   2.901   8.661   8.892  0.2722  0.3263 -0.0805
  597MOL0     O80496   2.836   8.571   8.814  0.3912  0.0150  0.7202
  597MOL0     C80497   2.775   8.648   8.702 -0.0953  0.1408  0.6590
  597MOL0     C80498   2.660   8.562   8.636  0.9496  0.3456 -0.5095
  597MOL0     C80499   2.576   8.500   8.743  0.0588  0.1783 -0.0353
  597MOL0     C80500   2.444   8.428   8.688 -0.0986  0.0224 -0.5828
  597MOL0     C80501   2.364   8.371   8.810 -0.3234  0.3719  0.0471
  597MOL0     C80502   2.227   8.318   8.762  0.6058  0.5094 -0.0691
  597MOL0     C80503   2.128   8.273   8.870 -1.3561 -0.5632  0.0586
  597MOL0     C80504   1.985   8.301   8.826 -0.7459  1.5253 -0.7103
  597MOL0    Cl80505   1.936   8.468   8.848 -0.3609 -0.2193  0.0608
  597MOL0     C80506   2.855   8.683   9.025  0.3225 -0.1413 -0.0241
  597MOL0     C80507   2.923   8.775   9.113 -0.3951 -0.5110 -1.0817
  597MOL0     O80508   2.974   9.106   9.104  0.2927  0.0045 -0.5144
  597MOL0     C80509   3.105   9.280   9.263  0.4610 -0.4106  0.5164
  597MOL0     C80510   3.179   9.382   9.329  0.7514 -0.4107  0.5752
  597MOL0     N80511   3.791   9.490   9.879 -0.7949 -1.2380 -0.4518
  597MOL0     N80512   3.883   9.514   9.967 -0.3945 -0.5329  0.1410
  597MOL0     C80513   3.853  10.492  10.094 -0.5850 -0.0550 -0.1518
  597MOL0     C80514   3.904  10.618  10.057  0.0048 -0.5239 -0.6484
  597MOL0     C80515   4.048  11.052  10.095 -0.0946 -0.2147  0.3830
  597MOL0     C80516   4.007  11.169  10.022 -0.1866 -1.0376 -0.5491
  597MOL0     C80517   4.100  11.274   9.981 -0.6332  0.1510  0.3487
  597MOL0     C80518   4.236  11.267  10.023 -0.0462  1.0823  0.5562
  597MOL0     O80519   4.332  11.367   9.993 -0.5448  0.5761  1.3129
  597MOL0     C80520   4.309  11.486   9.913 -0.1400 -0.2259  0.5108
  597MOL0     C80521   4.359  11.466   9.770  0.0645 -1.6709  0.4973
  597MOL0     C80522   4.484  11.564   9.751 -0.9318  1.0491  0.6295
  597MOL0     C80523   4.454  11.714   9.759 -0.0531  1.1706  0.2325
  597MOL0     C80524   4.362  11.728   9.643 -0.0279  0.0336 -0.4835
  597MOL0     C80525   4.289  11.748   9.546  0.4834  0.5835  0.1227
  597MOL0     C80526   4.278  11.155  10.096 -0.0503 -0.5087  0.4666
  597MOL0     C80527   4.191  11.057  10.128  0.3250 -0.4743  0.0657
  597MOL0     H80528   3.977  10.706  10.382 -1.1280  1.0880  0.0114
  597MOL0     H80529   3.846  10.508  10.430  1.6081  0.6157  0.2958
  597MOL0     H80530   3.801  10.304  10.436 -0.5343 -0.4037  1.2799
  597MOL0     H80531   3.633  10.336  10.395  0.7872  2.0191 -1.4113
  597MOL0     H80532   3.638  10.120  10.439 -0.3718 -1.9287 -1.7341
  597MOL0     H80533   3.645  10.124  10.261  0.5163  1.6984 -1.5503
  597MOL0     H80534   3.900  10.067  10.282  2.4136 -1.4901  1.5368
  597MOL0     H80535   3.874  10.073  10.457  0.0818  2.1522 -0.4837
  597MOL0     H80536   3.855   9.844  10.414 -3.0217 -2.5585 -0.2747
  597MOL0     H80537   3.695   9.893  10.434 -0.0206  1.0687  0.3959
  597MOL0     H80538   3.689   9.754  10.264 -0.1052  0.2046  3.9908
  597MOL0     H80539   3.668   9.913  10.186  0.0693 -0.8409  0.0587
  597MOL0     H80540   3.816   9.778  10.047 -3.0221  0.8394  1.0446
  597MOL0     H80541   3.918   9.892  10.113  3.3794 -1.0120  0.1400
  597MOL0     H80542   4.037   9.702  10.127 -4.3232  0.6654 -4.0812
  597MOL0     H80543   3.989   9.735  10.293  1.2715 -0.4127 -1.2311
  597MOL0     H80544   3.826   9.566  10.307  3.3840 -0.8276  2.1857
  597MOL0     H80545   3.962   9.491  10.242  0.7427 -0.7324  1.0544
  597MOL0     H80546   3.598   9.514  10.142  1.1686  0.5410  2.1977
  597MOL0     H80547   3.458   9.437   9.944  1.8313 -0.6458  0.8570
  597MOL0     H80548   3.506   9.573   9.832 -0.0806 -1.1124 -3.8938
  597MOL0     H80549   3.546   9.270   9.790  0.8682  0.0845  0.0268
  597MOL0     H80550   3.640   9.396   9.702  0.0690  2.8999 -0.3406
  597MOL0     H80551   3.358   9.453   9.693  0.5521  1.4786 -2.6494
  597MOL0     H80552   3.389   9.285   9.631  2.0220 -1.3957  0.1748
  597MOL0     H80553   3.565   9.399   9.472  2.1624  2.1910  1.1548
  597MOL0     H80554   3.515   9.552   9.546 -3.1480  1.2640 -0.7049
  597MOL0     H80555   3.448   9.195   9.427 -0.1554  0.9537  1.1244
  597MOL0     H80556   3.370   8.945   9.218  1.9139 -0.6368  0.7256
  597MOL0     H80557   3.434   8.992   9.377 -0.2851  1.2034  1.4032
  597MOL0     H80558   3.269   8.927   9.369 -1.6068  1.2501 -1.7654
  597MOL0     H80559   3.178   8.847   8.903  0.3315 -1.2760  0.3610
  597MOL0     H80560   3.064   8.696   8.757 -0.0370 -2.9845  0.3072
  597MOL0     H80561   2.752   8.752   8.729 -0.2407 -0.0508  1.2706
  597MOL0     H80562   2.848   8.677   8.625  2.5774 -0.3860  2.8454
  597MOL0     H80563   2.596   8.625   8.573  1.1590  1.0819  0.0189
  597MOL0     H80564   2.706   8.484   8.575 -0.8848 -1.3294  0.1162
  597MOL0     H80565   2.542   8.590   8.795  0.4362  0.7261 -0.7152
  597MOL0     H80566   2.627   8.436   8.814 -0.8078 -0.1140  0.3407
  597MOL0     H80567   2.383   8.496   8.628  2.0269  2.3464 -0.2567
  597MOL0     H80568   2.476   8.336   8.637 -0.9510 -0.3044 -0.5346
  597MOL0     H80569   2.347   8.446   8.887 -0.8768  2.0940 -1.7000
  597MOL0     H80570   2.419   8.287   8.855 -0.8600 -1.5601 -2.6240
  597MOL0     H80571   2.183   8.399   8.704  0.8276  2.8990  2.8135
  597MOL0     H80572   2.245   8.234   8.696 -1.1792  0.9284 -1.1442
  597MOL0     H80573   2.156   8.328   8.960 -1.0078  0.5377 -0.6994
  597MOL0     H80574   2.135   8.165   8.880 -1.6920 -0.5677  0.2545
  597MOL0     H80575   1.921   8.235   8.886  1.4412  0.3975  0.4968
  597MOL0     H80576   1.980   8.279   8.719  2.0955  6.5883 -2.2389
  597MOL0     H80577   2.762   8.631   9.050  0.6407 -1.2332 -0.9846
  597MOL0     H80578   2.893   8.789   9.217 -0.3298  1.3912 -1.2910
  597MOL0     H80579   3.018   9.319   9.211  0.2586 -0.9078  0.4851
  597MOL0     H80580   3.135   9.481   9.340 -2.2281 -1.6305  0.6209
  597MOL0     H80581   3.821  10.428  10.012  4.0182 -1.5795 -1.0641
  597MOL0     H80582   3.918  10.655   9.956 -0.6515  2.1806  0.1779
  597MOL0     H80583   3.907  11.183   9.983 -0.3622  0.4986  0.3652
  597MOL0     H80584   4.059  11.351   9.917 -0.0597  0.0381 -0.1680
  597MOL0     H80585   4.207  11.524   9.919  0.0360  0.5718 -0.9754
  597MOL0     H80586   4.378  11.556   9.961 -0.1192  0.6738 -0.7794
  597MOL0     H80587   4.269  11.485   9.711  0.6089  0.0097  0.1534
  597MOL0     H80588   4.395  11.363   9.760  0.7585 -1.3345 -0.6165
  597MOL0     H80589   4.516  11.542   9.649  0.1922 -0.4579  1.2610
  597MOL0     H80590   4.561  11.538   9.825 -0.9436 -0.5564  0.1123
  597MOL0     H80591   4.542  11.777   9.742  1.4260 -0.5284  1.2365
  597MOL0     H80592   4.404  11.748   9.851  0.7644 -1.1807  1.6376
  597MOL0     H80593   4.226  11.780   9.465 -0.7785 -1.5295  0.1903
  597MOL0     H80594   4.381  11.148  10.129  0.5581 -0.7279 -1.3420
  597MOL0     H80595   4.234  10.979  10.190 -0.4272 -2.1909 -1.4778
  598MOL0     O80596   3.524   5.621   6.900 -0.1651  0.1717  0.2169
  598MOL0     C80597   3.578   5.690   6.811  0.9392  2.0734 -0.4764
  598MOL0     O80598   3.523   5.787   6.741  0.3611 -0.1557  0.0003
  598MOL0     C80599   3.402   5.834   6.787 -0.7772  0.2156 -0.2652
  598MOL0     C80600   3.285   5.759   6.760  0.2964  0.0875  0.3922
  598MOL0     C80601   3.155   5.813   6.801 -0.9890  0.1510 -0.1925
  598MOL0     C80602   3.150   5.927   6.874 -0.4985 -0.4151 -0.0418
  598MOL0     O80603   3.020   5.962   6.904 -0.2948  0.4506  0.4155
  598MOL0     C80604   2.981   6.102   6.914 -1.0361 -0.7993 -0.9040
  598MOL0     C80605   2.912   6.145   6.779 -0.2312 -0.0570 -0.5612
  598MOL0     C80606   3.019   6.173   6.675  0.4419 -0.0118  0.3475
  598MOL0     C80607   2.973   6.213   6.535 -0.0129 -0.3498  0.0020
  598MOL0     C80608   3.088   6.244   6.436  0.2255 -0.3596 -0.4903
  598MOL0     C80609   3.029   6.295   6.297 -0.6948  0.3160  0.1178
  598MOL0     C80610   3.137   6.272   6.200  0.2210  0.3429 -0.6300
  598MOL0     C80611   3.110   6.356   6.074 -0.3111 -0.2485 -0.0556
  598MOL0     N80612   3.006   6.288   5.990  0.3209 -0.2474  0.5584
  598MOL0     C80613   3.036   6.181   5.909 -0.7576  0.0812 -0.1418
  598MOL0     C80614   2.919   6.147   5.865  0.0048  0.3584  0.6614
  598MOL0     C80615   2.887   6.017   5.777 -0.6008  0.5424 -0.2534
  598MOL0     C80616   2.845   6.059   5.641 -0.0961 -0.3468  0.4259
  598MOL0     C80617   2.690   6.074   5.629  0.3511 -0.8031  1.1317
  598MOL0     C80618   2.660   6.143   5.486 -0.6698 -0.4994 -0.0084
  598MOL0     O80619   2.550   6.076   5.425 -0.6095  0.1625  1.0185
  598MOL0     C80620   2.492   6.135   5.314  0.1124  0.2033 -0.1706
  598MOL0     C80621   2.553   6.237   5.238  0.9521 -0.5521  0.9492
  598MOL0     C80622   2.496   6.273   5.114 -0.7347  0.0444  0.6344
  598MOL0     C80623   2.570   6.381   5.046  0.0608  1.2866  0.5384
  598MOL0     C80624   2.369   6.213   5.063  0.1207 -0.6371  0.5602
  598MOL0     C80625   2.302   6.256   4.937  0.5371 -0.5289  0.7663
  598MOL0     O80626   2.175   6.216   4.916  0.1928  0.3916  0.3329
  598MOL0     C80627   2.091   6.292   4.826  0.1309  0.1419 -0.1246
  598MOL0     C80628   1.971   6.235   4.784  0.0984 -0.1387 -0.6612
  598MOL0     C80629   1.863   6.299   4.715  0.0143  0.5303 -1.1310
  598MOL0     C80630   1.887   6.433   4.665 -0.5253  0.6025 -0.5550
  598MOL0     O80631   1.810   6.493   4.577  1.0301 -0.6287 -0.1244
  598MOL0     C80632   1.868   6.536   4.452 -0.4565 -0.2540  0.8537
  598MOL0     C80633   1.855   6.694   4.428 -0.1418 -0.6251  0.6426
  598MOL0     C80634   1.848   6.789   4.555 -0.1002  0.5400 -0.4004
  598MOL0     C80635   1.811   6.940   4.507 -0.6478 -0.7554  0.3229
  598MOL0     C80636   1.798   7.029   4.627 -0.7727 -1.4255 -0.6020
  598MOL0     C80637   1.932   7.054   4.715  0.2325  0.1855  0.0584
  598MOL0     C80638   1.896   7.167   4.817 -0.9498 -0.2460 -0.5608
  598MOL0     C80639   2.020   7.244   4.886  0.1017 -0.0159 -0.0099
  598MOL0    Cl80640   2.113   7.139   4.978 -0.1366  0.2385  0.0260
  598MOL0     C80641   2.004   6.496   4.709 -0.3437 -0.0022 -0.5447
  598MOL0     C80642   2.104   6.426   4.783  0.2994 -0.5830 -0.4759
  598MOL0     O80643   2.372   6.326   4.860  0.4100  0.1664  0.1174
  598MOL0     C80644   2.312   6.115   5.153  0.2094  1.0499  0.9803
  598MOL0     C80645   2.372   6.080   5.268  0.4379 -0.1018 -1.4451
  598MOL0     N80646   2.826   6.253   5.890 -0.1813 -0.1089 -0.5820
  598MOL0     N80647   2.887   6.343   5.956 -1.0980  0.0145 -0.5805
  598MOL0     C80648   3.268   5.995   6.902 -0.3138 -0.3082  0.3720
  598MOL0     C80649   3.392   5.944   6.875  0.3308 -0.8575  0.7074
  598MOL0     C80650   3.714   5.665   6.764  0.1186 -0.1023 -0.1788
  598MOL0     C80651   3.798   5.763   6.710  0.2892  0.3380 -0.2973
  598MOL0     C80652   3.928   5.727   6.686  0.3172 -0.6185 -0.0322
  598MOL0     C80653   3.964   5.594   6.679 -1.0746  0.2099  0.0614
  598MOL0     O80654   4.094   5.563   6.637  0.4082  1.5163  0.6589
  598MOL0     C80655   4.135   5.433   6.577  0.2451  0.3750  0.4286
  598MOL0     C80656   4.291   5.421   6.579  0.2487 -0.5476  0.0819
  598MOL0     C80657   4.359   5.414   6.720 -0.3697 -0.6999  1.1924
  598MOL0     C80658   4.506   5.455   6.707 -0.4750 -0.6219  0.7899
  598MOL0     C80659   4.567   5.419   6.825 -0.6159 -0.1816 -1.6051
  598MOL0     C80660   4.613   5.389   6.933  0.7527 -0.0900 -0.0971
  598MOL0     C80661   3.879   5.499   6.724 -0.1756  0.1685  0.1131
  598MOL0     C80662   3.750   5.534   6.766 -0.9651  0.9624  0.0737
  598MOL0     H80663   3.304   5.660   6.719 -0.5393  0.4801 -1.0044
  598MOL0     H80664   3.066   5.753   6.785 -0.6336 -1.3199  2.7293
  598MOL0     H80665   2.911   6.111   6.997  1.9895  0.1037  1.7087
  598MOL0     H80666   3.061   6.174   6.932 -3.2757  1.9011 -1.1089
  598MOL0     H80667   2.834   6.078   6.743 -0.7698  0.1473  0.1873
  598MOL0     H80668   2.847   6.230   6.803 -0.6612  0.2686 -2.6654
  598MOL0     H80669   3.071   6.257   6.722 -0.1702  0.0647  0.8906
  598MOL0     H80670   3.086   6.086   6.672 -0.4297 -0.7097 -2.4445
  598MOL0     H80671   2.912   6.141   6.480 -1.2819  1.4403 -1.0492
  598MOL0     H80672   2.914   6.304   6.547  0.5217 -0.2325  2.2645
  598MOL0     H80673   3.157   6.320   6.474  1.4869 -1.1060 -1.2265
  598MOL0     H80674   3.151   6.156   6.425  0.0001 -0.2956 -2.8292
  598MOL0     H80675   2.944   6.230   6.269 -0.4427 -0.4500  1.0753
  598MOL0     H80676   2.985   6.395   6.294  0.8058  0.9751 -1.6841
  598MOL0     H80677   3.234   6.311   6.233  1.5288 -1.5575 -2.0018
  598MOL0     H80678   3.143   6.164   6.186  1.3573  0.1719  0.9455
  598MOL0     H80679   3.207   6.349   6.024  0.6093 -0.1338  1.6293
  598MOL0     H80680   3.074   6.457   6.095 -2.6791 -1.5645  2.9209
  598MOL0     H80681   3.133   6.131   5.908 -0.2912  0.9563 -0.6500
  598MOL0     H80682   2.977   5.956   5.769 -2.1491 -1.5852 -3.8953
  598MOL0     H80683   2.812   5.957   5.830 -0.9351 -1.2776 -2.6162
  598MOL0     H80684   2.888   5.984   5.573 -1.6607  0.4469 -1.5071
  598MOL0     H80685   2.899   6.152   5.620 -2.1176  0.8618  0.3465
  598MOL0     H80686   2.636   6.129   5.707 -1.8747  0.1665 -0.9578
  598MOL0     H80687   2.641   5.977   5.629 -0.3978 -0.4437  2.0083
  598MOL0     H80688   2.755   6.148   5.433  1.5955 -0.5162  3.6664
  598MOL0     H80689   2.639   6.250   5.494 -4.3835 -0.8602 -2.6107
  598MOL0     H80690   2.639   6.293   5.273  0.7405  0.6977 -0.4114
  598MOL0     H80691   2.648   6.424   5.110  1.3036  2.7971 -1.8500
  598MOL0     H80692   2.621   6.324   4.968 -0.5838 -1.1741  1.8179
  598MOL0     H80693   2.498   6.455   5.009  0.5482  3.1731  3.0506
  598MOL0     H80694   1.973   6.132   4.818 -1.4282  0.4094  1.2208
  598MOL0     H80695   1.786   6.237   4.670 -1.6180  3.1748 -2.2379
  598MOL0     H80696   1.976   6.519   4.440 -0.9150 -1.2822 -3.1351
  598MOL0     H80697   1.815   6.494   4.366 -1.2107 -0.8993  1.6139
  598MOL0     H80698   1.923   6.741   4.356 -2.0321  1.7980  0.3074
  598MOL0     H80699   1.753   6.686   4.390 -0.4069 -2.4519  1.6564
  598MOL0     H80700   1.938   6.802   4.616 -0.2192  1.2729 -0.3790
  598MOL0     H80701   1.773   6.757   4.627 -2.8047  3.0623 -1.8830
  598MOL0     H80702   1.870   6.991   4.431 -0.6072  0.6666  1.2818
  598MOL0     H80703   1.715   6.942   4.455  0.1598  1.7304 -1.2380
  598MOL0     H80704   1.731   6.968   4.688 -0.1320 -0.0807  1.5812
  598MOL0     H80705   1.752   7.120   4.587  1.2952 -1.3643 -3.0519
  598MOL0     H80706   1.965   6.970   4.778 -2.8800 -0.6718  0.6906
  598MOL0     H80707   2.017   7.079   4.651  1.9945  0.1764  2.2638
  598MOL0     H80708   1.839   7.133   4.904  1.3591 -2.8988  0.0682
  598MOL0     H80709   1.833   7.238   4.762 -1.7022 -0.2474  0.2695
  598MOL0     H80710   1.977   7.320   4.952  1.9529  2.5653 -1.5968
  598MOL0     H80711   2.080   7.290   4.807 -0.0382  1.4167  0.6875
  598MOL0     H80712   2.030   6.594   4.671  0.6256 -1.1117 -2.8947
  598MOL0     H80713   2.194   6.480   4.810 -0.5299  0.3134  0.5345
  598MOL0     H80714   2.219   6.068   5.122  2.3035 -1.5669 -2.0774
  598MOL0     H80715   2.332   6.012   5.342  2.1642  0.4677  0.0858
  598MOL0     H80716   3.263   6.090   6.955 -0.4804  0.2310 -0.5910
  598MOL0     H80717   3.484   5.984   6.915  0.8218  0.2752 -1.3765
  598MOL0     H80718   3.763   5.866   6.715 -0.2755  0.1002  1.2282
  598MOL0     H80719   4.013   5.792   6.669  2.1456 -2.4372  1.5391
  598MOL0     H80720   4.081   5.347   6.618 -0.6564  0.7037 -0.0358
  598MOL0     H80721   4.117   5.437   6.469  1.4275  3.4120  0.2636
  598MOL0     H80722   4.331   5.516   6.543 -0.8292 -0.1538 -0.1305
  598MOL0     H80723   4.327   5.338   6.518  0.1320 -2.6415  2.6590
  598MOL0     H80724   4.356   5.312   6.759  2.9330 -1.4064 -0.0462
  598MOL0     H80725   4.300   5.482   6.781 -3.5046 -1.8629 -0.3136
  598MOL0     H80726   4.530   5.559   6.683 -0.4750 -0.0072  3.1793
  598MOL0     H80727   4.551   5.394   6.628  0.0157  0.3825  0.2722
  598MOL0     H80728   4.646   5.359   7.031 -0.0696 -0.1105  0.1819
  598MOL0     H80729   3.910   5.395   6.716 -0.8295  0.0701 -1.4182
  598MOL0     H80730   3.679   5.455   6.788 -0.1823  0.7144  1.8470
  599MOL0     O80731   2.795   0.946   5.431  0.1983  0.0501 -0.1251
  599MOL0     C80732   2.747   0.953   5.542  0.6520 -0.3529  0.4184
  599MOL0     O80733   2.667   1.061   5.581 -0.3334 -0.2825 -0.0048
  599MOL0     C80734   2.660   1.190   5.526 -0.2514  0.4825 -0.3604
  599MOL0     C80735   2.573   1.281   5.593  0.2224 -0.8172 -0.6437
  599MOL0     C80736   2.552   1.407   5.538  0.2509  0.0221  0.7056
  599MOL0     C80737   2.625   1.457   5.426 -0.2211  0.2819  0.0776
  599MOL0     O80738   2.608   1.579   5.355 -0.1035  0.3625  0.7683
  599MOL0     C80739   2.542   1.690   5.412 -0.8785  0.6417  0.4383
  599MOL0     C80740   2.641   1.817   5.389  0.5677  1.0024 -0.0030
  599MOL0     C80741   2.780   1.810   5.449  0.2244  0.7935 -0.1637
  599MOL0     C80742   2.858   1.942   5.422 -0.8640 -0.0511  0.1124
  599MOL0     C80743   2.987   1.942   5.511  0.7816 -0.5834 -0.3868
  599MOL0     C80744   2.960   1.966   5.666  0.6181 -1.1728  0.5373
  599MOL0     C80745   3.093   1.978   5.754 -0.2915  0.0648  0.6985
  599MOL0     C80746   3.052   2.029   5.889  0.0474 -0.0895 -0.3525
  599MOL0     N80747   2.930   1.985   5.949  0.2329  0.2237 -0.0189
  599MOL0     C80748   2.897   1.859   5.996 -0.9357  0.3185  0.9643
  599MOL0     C80749   2.764   1.860   6.020 -0.8263  0.6918 -0.1545
  599MOL0     C80750   2.677   1.738   6.054  0.1437 -0.3403 -0.0102
  599MOL0     C80751   2.676   1.639   5.929 -0.7036 -0.1259 -0.6714
  599MOL0     C80752   2.604   1.692   5.801 -0.4666 -0.2191  0.7856
  599MOL0     C80753   2.456   1.721   5.812  0.4314 -0.4977  0.1960
  599MOL0     O80754   2.393   1.737   5.687  0.2006 -0.8526 -0.2349
  599MOL0     C80755   2.396   1.867   5.634  1.0043  0.6774 -0.6290
  599MOL0     C80756   2.476   1.974   5.675  0.0908  1.2310 -0.2002
  599MOL0     C80757   2.483   2.094   5.611  0.9540 -0.1360 -0.5515
  599MOL0     C80758   2.589   2.190   5.660  0.0667  0.2541  0.1787
  599MOL0     C80759   2.377   2.123   5.522  0.4321  0.2958  0.8259
  599MOL0     C80760   2.365   2.269   5.453 -0.7937 -0.4135 -1.0341
  599MOL0     O80761   2.485   2.339   5.414 -0.4482  0.0644 -0.3858
  599MOL0     C80762   2.464   2.469   5.381 -0.3009  0.0944 -0.0236
  599MOL0     C80763   2.432   2.497   5.250 -0.4910  0.5607 -0.1256
  599MOL0     C80764   2.405   2.623   5.202  0.1391 -0.3489 -0.2103
  599MOL0     C80765   2.405   2.731   5.288  0.7067 -0.7120  0.3955
  599MOL0     O80766   2.364   2.856   5.254 -0.4319 -0.4806 -0.2625
  599MOL0     C80767   2.469   2.947   5.261 -0.9079  0.5725  0.0951
  599MOL0     C80768   2.434   3.083   5.215 -0.1797  0.6066 -0.4430
  599MOL0     C80769   2.362   3.165   5.321  1.0339  0.8261 -0.2686
  599MOL0     C80770   2.318   3.311   5.284  0.6382  0.1025  0.2022
  599MOL0     C80771   2.271   3.375   5.410  0.0043  0.0381  0.0088
  599MOL0     C80772   2.223   3.518   5.392  0.0850 -0.9106  1.3312
  599MOL0     C80773   2.139   3.547   5.519  0.4623 -0.7997 -0.8055
  599MOL0     C80774   1.996   3.503   5.525 -0.8926  0.2069 -0.7217
  599MOL0    Cl80775   1.919   3.545   5.679 -0.4223 -0.1482  0.3242
  599MOL0     C80776   2.450   2.702   5.415 -0.5488 -0.5337  0.5146
  599MOL0     C80777   2.477   2.574   5.469 -0.6339  0.5410  0.2042
  599MOL0     O80778   2.252   2.318   5.438  0.0487  0.7013  0.6748
  599MOL0     C80779   2.285   2.019   5.488  0.0667  0.3716 -0.0007
  599MOL0     C80780   2.301   1.889   5.535  1.1075 -0.3230  0.6122
  599MOL0     N80781   2.724   1.988   5.984 -0.9775 -0.4054 -0.5382
  599MOL0     N80782   2.814   2.064   5.944  0.3341 -0.5169 -0.6523
  599MOL0     C80783   2.710   1.364   5.369  0.6462  0.3477  0.0522
  599MOL0     C80784   2.723   1.233   5.411  0.2639 -0.9388 -1.2179
  599MOL0     C80785   2.730   0.832   5.622  0.4573 -0.7549 -0.0667
  599MOL0     C80786   2.669   0.834   5.746  0.9126 -0.1954 -0.0766
  599MOL0     C80787   2.631   0.709   5.808 -0.8941 -1.2298 -0.5228
  599MOL0     C80788   2.670   0.590   5.748 -0.2293  0.5560  0.3284
  599MOL0     O80789   2.624   0.480   5.813  0.3752 -0.0523 -0.2309
  599MOL0     C80790   2.634   0.350   5.759 -1.1852 -0.9539 -0.4796
  599MOL0     C80791   2.598   0.253   5.871  0.9479  0.5387  0.8591
  599MOL0     C80792   2.446   0.251   5.897  0.0098  0.0653 -0.4485
  599MOL0     C80793   2.422   0.137   5.998  0.1920 -0.0608 -0.2738
  599MOL0     C80794   2.294   0.149   6.066  0.8594 -0.9248 -0.7595
  599MOL0     C80795   2.188   0.168   6.117 -0.6078 -0.3761  0.1855
  599MOL0     C80796   2.755   0.590   5.637 -0.6878 -0.8051 -0.3841
  599MOL0     C80797   2.772   0.709   5.578  0.8471  0.3988 -0.1823
  599MOL0     H80798   2.524   1.243   5.682  0.9726 -1.0790 -0.3339
  599MOL0     H80799   2.463   1.455   5.576 -1.5825 -1.6753 -1.1966
  599MOL0     H80800   2.449   1.687   5.355  1.3900 -1.3655 -3.6162
  599MOL0     H80801   2.527   1.674   5.520  0.3746 -0.1381  0.5230
  599MOL0     H80802   2.647   1.819   5.279 -4.0100  3.9670 -0.4815
  599MOL0     H80803   2.584   1.903   5.425 -0.5046 -0.5699  2.2336
  599MOL0     H80804   2.777   1.797   5.558  0.8224  0.3314 -0.1987
  599MOL0     H80805   2.824   1.722   5.401 -1.4942  0.1538 -0.6619
  599MOL0     H80806   2.883   1.953   5.317 -1.1219 -0.1966  0.0341
  599MOL0     H80807   2.790   2.023   5.451 -2.3094 -1.0967 -0.2448
  599MOL0     H80808   3.031   1.842   5.504  3.6441  0.5359  0.2107
  599MOL0     H80809   3.063   2.013   5.476 -0.0673  1.3370  1.4343
  599MOL0     H80810   2.917   2.067   5.666  1.7317 -0.6730 -1.0174
  599MOL0     H80811   2.896   1.884   5.700  1.1395 -2.1722 -0.8318
  599MOL0     H80812   3.146   1.882   5.753 -1.6519 -0.8496  3.9828
  599MOL0     H80813   3.168   2.036   5.701  1.9990 -4.5877 -1.7808
  599MOL0     H80814   3.051   2.138   5.897  0.5716 -0.2228  2.7685
  599MOL0     H80815   3.129   2.010   5.964  1.3615  2.2126 -1.0273
  599MOL0     H80816   2.948   1.764   5.991 -4.8949 -1.9844  0.2017
  599MOL0     H80817   2.715   1.685   6.141  0.8163  0.5929  0.2908
  599MOL0     H80818   2.576   1.777   6.071 -0.0920 -0.8136 -0.2957
  599MOL0     H80819   2.622   1.552   5.968 -0.6939  0.0541 -0.2576
  599MOL0     H80820   2.775   1.598   5.906  0.0969  0.6358  1.2141
  599MOL0     H80821   2.621   1.601   5.742 -1.6876 -1.9090  2.8967
  599MOL0     H80822   2.660   1.781   5.770 -0.5344  0.2649  2.0060
  599MOL0     H80823   2.430   1.801   5.882  0.5147 -2.0036  2.0073
  599MOL0     H80824   2.429   1.623   5.851  1.9048 -1.5863 -1.3659
  599MOL0     H80825   2.552   1.945   5.746  0.0631 -0.3232 -0.7447
  599MOL0     H80826   2.674   2.192   5.591  1.6723 -0.0253  2.0648
  599MOL0     H80827   2.560   2.292   5.686 -2.6835 -0.5837  0.7824
  599MOL0     H80828   2.630   2.148   5.753  4.0077  0.9282 -1.0972
  599MOL0     H80829   2.427   2.419   5.174  0.0754  0.0031  0.3985
  599MOL0     H80830   2.379   2.643   5.098 -0.8887 -0.7465 -0.0459
  599MOL0     H80831   2.507   2.946   5.363 -0.2104 -0.3464 -0.1653
  599MOL0     H80832   2.547   2.903   5.198 -1.2353  0.4780 -0.2497
  599MOL0     H80833   2.527   3.133   5.186  1.6344 -1.6285  1.1726
  599MOL0     H80834   2.361   3.083   5.134 -0.6716  1.4024 -0.0206
  599MOL0     H80835   2.423   3.161   5.412 -1.9766 -3.3094  1.8626
  599MOL0     H80836   2.275   3.103   5.341  2.3740 -1.3122 -0.7715
  599MOL0     H80837   2.403   3.364   5.241  0.7328 -0.9145 -0.8955
  599MOL0     H80838   2.237   3.314   5.211  3.9146  4.2017 -3.8704
  599MOL0     H80839   2.345   3.368   5.490  0.6219 -0.5169 -0.5915
  599MOL0     H80840   2.185   3.318   5.446 -0.4908  0.3323 -0.6821
  599MOL0     H80841   2.309   3.583   5.406  0.8676 -1.7375  0.5242
  599MOL0     H80842   2.176   3.538   5.295  0.4979  0.7704  1.4538
  599MOL0     H80843   2.138   3.655   5.536 -0.9108 -0.9495  0.2871
  599MOL0     H80844   2.185   3.506   5.610 -2.1721 -0.2071  0.9002
  599MOL0     H80845   2.000   3.394   5.525  1.4773  0.1972  1.5205
  599MOL0     H80846   1.932   3.539   5.444 -2.7872 -0.6446  0.3300
  599MOL0     H80847   2.461   2.787   5.483 -0.2056 -2.7883  3.4834
  599MOL0     H80848   2.512   2.556   5.570  1.4354 -1.2888 -0.7722
  599MOL0     H80849   2.207   2.040   5.416  0.1827  3.2393  0.5861
  599MOL0     H80850   2.238   1.808   5.499 -0.2989  0.4164  1.3188
  599MOL0     H80851   2.763   1.388   5.277  1.9463 -0.0261  0.6893
  599MOL0     H80852   2.784   1.166   5.351  1.3907 -2.3011  1.3070
  599MOL0     H80853   2.617   0.925   5.774  1.5438  1.2952 -3.3414
  599MOL0     H80854   2.565   0.710   5.894  1.4439  0.1550  1.3834
  599MOL0     H80855   2.576   0.320   5.671  0.8388 -0.6630 -1.9906
  599MOL0     H80856   2.737   0.323   5.734 -1.2145 -3.6083  1.7711
  599MOL0     H80857   2.646   0.290   5.962  2.3840  3.7271 -1.0018
  599MOL0     H80858   2.627   0.152   5.842  2.2861  1.6055 -1.9356
  599MOL0     H80859   2.386   0.224   5.810 -1.5753  1.0224  0.2941
  599MOL0     H80860   2.413   0.348   5.936  0.8290 -0.7724  2.5977
  599MOL0     H80861   2.505   0.119   6.067 -1.6645 -0.3028  2.0217
  599MOL0     H80862   2.416   0.049   5.934 -3.8156 -0.5540  0.5140
  599MOL0     H80863   2.092   0.201   6.148 -0.7249  0.4858 -1.0066
  599MOL0     H80864   2.787   0.496   5.593  2.6121 -0.4641  0.9994
  599MOL0     H80865   2.808   0.706   5.476 -1.4875 -2.4275 -1.0545
  600MOL0     O80866   3.327  10.273   6.347  0.1448  0.0148 -0.3364
  600MOL0     C80867   3.269  10.268   6.458  0.3210  0.3500  0.7727
  600MOL0     O80868   3.323  10.306   6.578 -0.1724 -0.3799 -0.1727
  600MOL0     C80869   3.446  10.363   6.569  0.5517 -0.4318  0.5705
  600MOL0     C80870   3.459  10.502   6.549 -0.2009  0.4499 -0.5003
  600MOL0     C80871   3.589  10.550   6.526  0.6479 -0.2359  0.2950
  600MOL0     C80872   3.705  10.472   6.519  0.4559 -0.0255 -0.0933
  600MOL0     O80873   3.828  10.523   6.490 -0.2904 -0.0805  0.4385
  600MOL0     C80874   3.819  10.614   6.384 -0.6210 -0.3627  0.1684
  600MOL0     C80875   3.963  10.656   6.344 -0.8299  0.1912  0.6329
  600MOL0     C80876   3.943  10.775   6.243  0.4609  0.3083  1.3219
  600MOL0     C80877   4.077  10.857   6.230  0.1256  0.7700 -0.3912
  600MOL0     C80878   4.066  10.963   6.118  0.7811 -0.2296 -0.2145
  600MOL0     C80879   3.960  11.082   6.112  0.7112  0.4276 -0.4437
  600MOL0     C80880   3.950  11.171   6.244 -0.4899 -0.1956  0.6659
  600MOL0     C80881   3.806  11.207   6.282  0.4697 -0.0016 -0.8088
  600MOL0     N80882   3.778  11.266   6.411 -0.2686  0.0300  0.5530
  600MOL0     C80883   3.666  11.338   6.438 -0.4441  0.3695  0.4091
  600MOL0     C80884   3.690  11.403   6.553 -0.4660 -0.3900 -0.3825
  600MOL0     C80885   3.617  11.500   6.638 -0.2657  0.0400 -0.0472
  600MOL0     C80886   3.636  11.646   6.592  0.5482  0.4303  0.4095
  600MOL0     C80887   3.754  11.728   6.652 -0.2199  0.2164  0.1230
  600MOL0     C80888   3.723  11.795   6.783  0.9429  0.7643 -0.6111
  600MOL0     O80889   3.613  11.883   6.757  0.1973 -0.1801 -0.0592
  600MOL0     C80890   3.576  11.982   6.849  0.3640  0.5586  0.7243
  600MOL0     C80891   3.668  12.041   6.945  0.8143 -0.7318  0.4160
  600MOL0     C80892   3.634  12.149   7.030  0.3497 -0.5514  0.2901
  600MOL0     C80893   3.740  12.217   7.128 -1.0976  0.8352  0.2141
  600MOL0     C80894   3.498  12.193   7.023 -0.9790  0.1591  0.4762
  600MOL0     C80895   3.450  12.309   7.099  0.1695 -0.7086  0.0705
  600MOL0     O80896   3.315  12.307   7.114 -0.4759  0.4841  0.4316
  600MOL0     C80897   3.245  12.421   7.150 -0.3584 -0.9160 -0.2229
  600MOL0     C80898   3.137  12.402   7.231 -0.3673  0.4864 -0.2772
  600MOL0     C80899   3.053  12.509   7.277  0.5756 -0.7753  0.3938
  600MOL0     C80900   3.077  12.638   7.234  0.7824  0.2085 -0.3313
  600MOL0     O80901   3.002  12.731   7.307  0.1058 -0.3538 -0.4561
  600MOL0     C80902   2.969  12.854   7.253  0.9680 -0.0190 -0.5702
  600MOL0     C80903   2.860  12.931   7.321 -0.4327  0.4144  0.4432
  600MOL0     C80904   2.890  13.016   7.442 -0.3871 -0.6935  0.1867
  600MOL0     C80905   2.776  13.027   7.546  0.0026  0.0839  0.0974
  600MOL0     C80906   2.832  13.085   7.676  0.2227 -0.5051 -0.1429
  600MOL0     C80907   2.744  13.072   7.800 -0.7612 -0.3807  0.7379
  600MOL0     C80908   2.783  13.166   7.908  0.7464 -1.1106 -0.4396
  600MOL0     C80909   2.923  13.127   7.958  0.0789 -0.6752  0.6966
  600MOL0    Cl80910   2.932  12.959   8.036  0.1456 -0.1319 -0.2723
  600MOL0     C80911   3.187  12.662   7.148 -0.1456  0.1588  0.1242
  600MOL0     C80912   3.267  12.557   7.109 -1.0130 -0.0766  0.7372
  600MOL0     O80913   3.531  12.399   7.141  0.9167 -0.5270  0.3175
  600MOL0     C80914   3.408  12.140   6.924  0.5712 -0.3206  0.3426
  600MOL0     C80915   3.453  12.038   6.836 -0.2068  0.2561 -1.1340
  600MOL0     N80916   3.829  11.369   6.591 -0.3737 -0.0466  0.7226
  600MOL0     N80917   3.875  11.293   6.506 -0.1657 -0.3750 -0.7536
  600MOL0     C80918   3.689  10.337   6.554 -0.3197  0.2824 -0.4784
  600MOL0     C80919   3.560  10.285   6.579 -0.1577  0.5461 -0.1363
  600MOL0     C80920   3.129  10.209   6.463 -0.6500  0.1158 -0.6671
  600MOL0     C80921   3.063  10.202   6.584 -0.6591  0.0983  0.3919
  600MOL0     C80922   2.949  10.127   6.584  0.6664 -0.8036  0.5384
  600MOL0     C80923   2.890  10.072   6.469  0.0720 -0.4035  0.8640
  600MOL0     O80924   2.768   9.996   6.478  0.0788  0.1620  0.6342
  600MOL0     C80925   2.656  10.068   6.537  0.1337 -0.2953  0.9325
  600MOL0     C80926   2.539   9.974   6.554  0.3376  0.5031  0.0211
  600MOL0     C80927   2.490   9.940   6.407 -0.1453  0.0400 -0.4257
  600MOL0     C80928   2.370   9.845   6.403  0.0105 -0.0595  0.5975
  600MOL0     C80929   2.240   9.908   6.421 -0.3578 -0.1951 -0.6593
  600MOL0     C80930   2.122   9.944   6.425  0.4987  0.6137 -0.2662
  600MOL0     C80931   2.948  10.086   6.348 -0.2777 -0.7316  1.0015
  600MOL0     C80932   3.078  10.138   6.347 -0.2069 -0.8233  0.0841
  600MOL0     H80933   3.371  10.565   6.551  1.3688  2.7589 -0.1020
  600MOL0     H80934   3.581  10.656   6.503  3.1934  0.3237  1.6637
  600MOL0     H80935   3.773  10.571   6.294  1.0067  0.1540 -0.9596
  600MOL0     H80936   3.767  10.706   6.412  1.8743  0.3803  2.7637
  600MOL0     H80937   4.021  10.698   6.427  0.0589  2.3627 -0.9845
  600MOL0     H80938   4.006  10.570   6.290 -5.2733 -1.0486 -1.3991
  600MOL0     H80939   3.892  10.737   6.154  1.9396 -1.7658  1.2836
  600MOL0     H80940   3.864  10.843   6.275 -2.2051 -2.4935  1.1304
  600MOL0     H80941   4.082  10.901   6.330 -2.3310 -1.0036  0.6196
  600MOL0     H80942   4.155  10.786   6.200 -0.2100  0.6625 -1.0366
  600MOL0     H80943   4.166  10.998   6.093  0.5222  1.6278  1.1222
  600MOL0     H80944   4.037  10.911   6.026  1.0179 -1.2224  0.2595
  600MOL0     H80945   3.976  11.155   6.032  4.0608 -0.2432 -0.5497
  600MOL0     H80946   3.861  11.037   6.094  0.5923  0.8458 -0.8625
  600MOL0     H80947   4.008  11.130   6.327  1.3150  0.7049 -0.0908
  600MOL0     H80948   4.003  11.261   6.212 -2.0345  0.2809 -0.6999
  600MOL0     H80949   3.740  11.120   6.278  2.0321 -1.2057 -3.6326
  600MOL0     H80950   3.764  11.268   6.202 -2.4894 -2.1718 -1.0790
  600MOL0     H80951   3.570  11.337   6.388  0.0527 -3.0077 -0.7405
  600MOL0     H80952   3.509  11.480   6.632 -0.5993 -0.1572  3.8082
  600MOL0     H80953   3.648  11.502   6.743 -1.6190 -0.1776  0.3780
  600MOL0     H80954   3.541  11.698   6.605  0.1210 -0.1205 -0.4217
  600MOL0     H80955   3.642  11.648   6.483  0.6473  2.5941  0.4113
  600MOL0     H80956   3.788  11.792   6.569 -0.6365 -2.4015 -2.2433
  600MOL0     H80957   3.827  11.651   6.680 -2.3317 -1.1942  2.0122
  600MOL0     H80958   3.814  11.845   6.816  1.3960  1.6644 -3.0725
  600MOL0     H80959   3.684  11.725   6.858  2.3807  1.2106  0.5899
  600MOL0     H80960   3.773  12.011   6.948  1.1573  0.1432 -1.3254
  600MOL0     H80961   3.796  12.293   7.073  0.5448  0.2905  1.0400
  600MOL0     H80962   3.697  12.248   7.224 -0.7346 -0.5537  0.8618
  600MOL0     H80963   3.802  12.128   7.146  0.5727  1.3752 -2.3609
  600MOL0     H80964   3.120  12.299   7.261 -2.4110  1.1094  0.8604
  600MOL0     H80965   2.968  12.495   7.343 -0.4513  2.5485 -0.0791
  600MOL0     H80966   3.057  12.919   7.256  1.9352 -1.3277  0.6851
  600MOL0     H80967   2.932  12.835   7.152 -1.8239  1.2184  0.1116
  600MOL0     H80968   2.823  12.996   7.241 -2.3276 -2.0291 -0.7778
  600MOL0     H80969   2.770  12.870   7.333 -0.2278 -0.0627 -0.3515
  600MOL0     H80970   2.918  13.110   7.393  0.5440  0.5258  2.8603
  600MOL0     H80971   2.983  12.974   7.481  0.5730 -1.5543 -2.7651
  600MOL0     H80972   2.690  13.089   7.517  0.5711  1.7086  1.7014
  600MOL0     H80973   2.743  12.924   7.562  4.2686 -1.3335  0.8877
  600MOL0     H80974   2.844  13.191   7.654 -2.5320  0.1682  1.2722
  600MOL0     H80975   2.929  13.041   7.701 -0.9509 -1.3665  3.4425
  600MOL0     H80976   2.644  13.106   7.772  0.0742  2.1439  0.5515
  600MOL0     H80977   2.738  12.969   7.838 -1.6295 -2.0050 -3.2251
  600MOL0     H80978   2.711  13.183   7.989 -0.9172 -0.3620 -1.9993
  600MOL0     H80979   2.795  13.267   7.866 -1.5798  0.0891  1.5713
  600MOL0     H80980   2.962  13.202   8.027 -0.3653 -1.1700  1.4982
  600MOL0     H80981   2.989  13.128   7.871  1.0005  4.0171  1.1854
  600MOL0     H80982   3.197  12.767   7.120 -1.6256 -0.2090 -2.0783
  600MOL0     H80983   3.349  12.579   7.041 -1.0954  0.1725  0.7162
  600MOL0     H80984   3.320  12.200   6.905  0.6389 -0.0213  0.9583
  600MOL0     H80985   3.399  12.006   6.747 -0.4869 -0.4065 -0.7350
  600MOL0     H80986   3.779  10.278   6.570 -0.4194 -0.4848 -2.4117
  600MOL0     H80987   3.557  10.180   6.606 -0.1319 -1.4321 -6.2001
  600MOL0     H80988   3.102  10.253   6.672 -1.1157 -0.2171  0.7806
  600MOL0     H80989   2.883  10.128   6.670 -1.0924  1.8929 -0.7051
  600MOL0     H80990   2.681  10.117   6.632 -0.1978  0.6950  0.5147
  600MOL0     H80991   2.625  10.148   6.470 -1.4829  0.8722  2.9753
  600MOL0     H80992   2.463  10.032   6.607 -0.4079 -0.2524 -0.1970
  600MOL0     H80993   2.582   9.887   6.604  0.7711  0.8630  0.2796
  600MOL0     H80994   2.571   9.892   6.352  0.7676  0.4197  0.5607
  600MOL0     H80995   2.477  10.027   6.342 -0.8782  1.1705  1.1740
  600MOL0     H80996   2.387   9.755   6.464  2.6138  0.9834  1.5415
  600MOL0     H80997   2.366   9.814   6.299 -0.0516  1.3266  0.1738
  600MOL0     H80998   2.022   9.983   6.433  1.3444  2.5818  2.2263
  600MOL0     H80999   2.893  10.057   6.260 -0.6273  2.7388 -0.0736
  600MOL0     H81000   3.122  10.140   6.248 -1.4980 -2.3217 -0.5687
  601MOL0     O81001   5.073   7.501   0.037  0.2937  0.5979 -0.0614
  601MOL0     C81002   4.976   7.526  -0.022 -0.3117 -1.3133  0.6951
  601MOL0     O81003   4.867   7.443  -0.035 -0.6272 -0.3722 -0.0006
  601MOL0     C81004   4.815   7.384   0.071 -0.4920  0.3422 -0.2592
  601MOL0     C81005   4.703   7.441   0.122  0.2583  0.5442  0.4683
  601MOL0     C81006   4.648   7.414   0.248 -0.0238 -0.6873 -0.7701
  601MOL0     C81007   4.706   7.305   0.316  0.0260  0.5615  0.1729
  601MOL0     O81008   4.664   7.254   0.436 -0.1804 -0.0617  0.0946
  601MOL0     C81009   4.533   7.272   0.478  0.4075 -0.1720  0.0554
  601MOL0     C81010   4.515   7.180   0.593 -0.0305 -0.1529 -0.2387
  601MOL0     C81011   4.590   7.235   0.720 -0.3049  0.8127  0.3164
  601MOL0     C81012   4.569   7.154   0.847  0.6883  0.0748  0.5082
  601MOL0     C81013   4.564   7.004   0.828 -0.6698  0.1657  0.0063
  601MOL0     C81014   4.692   6.947   0.776 -0.7728  0.1641  0.1519
  601MOL0     C81015   4.690   6.791   0.805  1.0311 -0.3729  0.7428
  601MOL0     C81016   4.810   6.714   0.751  0.8081  0.1477  0.5261
  601MOL0     N81017   4.812   6.677   0.604  1.0230 -0.6166 -0.4370
  601MOL0     C81018   4.809   6.769   0.506 -0.4386  0.0621  0.2355
  601MOL0     C81019   4.844   6.699   0.389  1.0815  0.8018  0.6783
  601MOL0     C81020   4.876   6.767   0.256 -0.0666 -0.2524  0.0702
  601MOL0     C81021   4.753   6.832   0.205  0.9125 -1.0006  0.2676
  601MOL0     C81022   4.759   6.869   0.059 -1.0969  0.4841 -0.6928
  601MOL0     C81023   4.658   6.978   0.008 -0.8517  0.1155 -0.6319
  601MOL0     O81024   4.670   7.004  -0.134  0.2630 -0.7213 -0.0814
  601MOL0     C81025   4.634   7.130  -0.179 -0.5437  0.4691 -0.3879
  601MOL0     C81026   4.702   7.170  -0.294 -0.5464  0.1979 -0.0834
  601MOL0     C81027   4.668   7.291  -0.353  0.7515 -0.3481  0.0148
  601MOL0     C81028   4.732   7.310  -0.484 -0.1808  0.4366  0.0825
  601MOL0     C81029   4.579   7.384  -0.292  0.7424  0.1241  0.3090
  601MOL0     C81030   4.539   7.510  -0.349 -0.1514  0.5715  0.5276
  601MOL0     O81031   4.415   7.556  -0.339  0.0862 -0.1821 -0.2477
  601MOL0     C81032   4.317   7.454  -0.335 -0.9206 -0.2789 -0.1958
  601MOL0     C81033   4.203   7.484  -0.256 -0.7490 -0.0984  0.1636
  601MOL0     C81034   4.105   7.400  -0.245 -0.0585  0.6781 -0.6798
  601MOL0     C81035   4.097   7.290  -0.324  0.5801 -0.8035  0.6294
  601MOL0     O81036   3.984   7.220  -0.339  0.6390 -0.4609  0.0954
  601MOL0     C81037   3.935   7.174  -0.220  0.2092 -0.4681 -0.1142
  601MOL0     C81038   3.884   7.023  -0.248  0.5419 -0.8525  0.0849
  601MOL0     C81039   3.833   6.955  -0.126  0.8178  0.1593 -0.2023
  601MOL0     C81040   3.796   6.810  -0.156 -0.5896 -0.1796  0.6515
  601MOL0     C81041   3.670   6.765  -0.075  0.0647 -0.6821  0.0100
  601MOL0     C81042   3.691   6.771   0.067 -0.1846 -0.7834 -0.3485
  601MOL0     C81043   3.819   6.711   0.127 -0.2926 -0.0148 -1.0528
  601MOL0     C81044   3.798   6.669   0.270  0.5358 -0.8452 -0.1201
  601MOL0    Cl81045   3.747   6.819   0.366  1.0379  0.9904  0.0840
  601MOL0     C81046   4.198   7.270  -0.414 -0.3910 -0.0409  0.5122
  601MOL0     C81047   4.305   7.345  -0.420 -0.7001 -0.6017  0.4547
  601MOL0     O81048   4.634   7.572  -0.412  0.5857 -0.3466  0.7699
  601MOL0     C81049   4.523   7.341  -0.168  0.0742 -0.4202  0.0596
  601MOL0     C81050   4.552   7.216  -0.108  0.2780  0.0035  0.6257
  601MOL0     N81051   4.814   6.563   0.427  0.3229  1.4710  0.2662
  601MOL0     N81052   4.803   6.553   0.556 -0.6571  0.5830  0.5734
  601MOL0     C81053   4.824   7.244   0.263  1.0487  0.1341  0.0031
  601MOL0     C81054   4.873   7.283   0.142  0.6670  0.3965  0.0147
  601MOL0     C81055   4.977   7.646  -0.110 -0.5982 -0.1512  0.3994
  601MOL0     C81056   4.891   7.651  -0.220  0.3994 -0.8264  0.0282
  601MOL0     C81057   4.914   7.745  -0.321  0.3384  0.1184  0.8191
  601MOL0     C81058   5.011   7.844  -0.312 -0.6023 -0.0200 -0.0734
  601MOL0     O81059   5.056   7.948  -0.396  0.8800 -0.5580  0.3914
  601MOL0     C81060   4.975   7.957  -0.523  0.0323 -0.1158 -0.0391
  601MOL0     C81061   5.042   7.851  -0.614 -1.1544 -0.1228 -0.5039
  601MOL0     C81062   4.990   7.850  -0.768  0.0572  0.1660 -0.9513
  601MOL0     C81063   4.850   7.772  -0.782 -0.7159 -0.8166  0.8763
  601MOL0     C81064   4.793   7.804  -0.914 -0.3754  1.4021  1.0751
  601MOL0     C81065   4.731   7.820  -1.020 -0.3795 -0.2965  0.0504
  601MOL0     C81066   5.082   7.847  -0.188 -0.0827 -0.5477  0.8681
  601MOL0     C81067   5.077   7.746  -0.098  0.1969 -0.5058 -0.1295
  601MOL0     H81068   4.665   7.522   0.061 -2.2776  1.3673  2.9428
  601MOL0     H81069   4.556   7.463   0.278 -0.7584 -1.8526 -1.0483
  601MOL0     H81070   4.515   7.373   0.517  0.6528 -0.6303  1.4111
  601MOL0     H81071   4.465   7.251   0.395  0.9600 -4.0937  0.3943
  601MOL0     H81072   4.410   7.167   0.621 -0.4801  1.4739 -1.0139
  601MOL0     H81073   4.552   7.081   0.568 -0.1502 -0.3070  0.1807
  601MOL0     H81074   4.698   7.232   0.707 -0.4237 -0.4592 -0.5349
  601MOL0     H81075   4.546   7.331   0.751  1.4970  2.0255 -0.7324
  601MOL0     H81076   4.634   7.190   0.927 -3.6805 -0.1586  4.5354
  601MOL0     H81077   4.469   7.182   0.882  0.0355 -0.3340 -0.9465
  601MOL0     H81078   4.535   6.967   0.927 -2.0100  0.2512 -0.3331
  601MOL0     H81079   4.493   6.972   0.751  1.6594 -1.7926 -1.4637
  601MOL0     H81080   4.691   6.951   0.667 -3.5572 -1.9277  0.0149
  601MOL0     H81081   4.778   7.001   0.817  2.0069 -1.0735 -3.5273
  601MOL0     H81082   4.673   6.788   0.913  0.0459 -1.9136  0.5702
  601MOL0     H81083   4.598   6.758   0.756 -0.5547  1.8776  1.9802
  601MOL0     H81084   4.816   6.616   0.800 -1.0524  0.5893  1.7256
  601MOL0     H81085   4.900   6.772   0.772  1.6066 -0.5374 -0.8139
  601MOL0     H81086   4.817   6.877   0.506 -1.5512  0.1774 -1.2225
  601MOL0     H81087   4.953   6.845   0.261  1.2903 -1.3043 -2.3185
  601MOL0     H81088   4.916   6.686   0.194 -0.4630 -0.5094  0.1447
  601MOL0     H81089   4.726   6.922   0.261  2.3288  1.4657 -2.7686
  601MOL0     H81090   4.674   6.758   0.220 -0.0057  0.4035  3.2082
  601MOL0     H81091   4.756   6.776   0.001 -1.3767 -1.1223  1.7182
  601MOL0     H81092   4.859   6.902   0.029  0.6885 -2.5576  1.3630
  601MOL0     H81093   4.685   7.068   0.064  0.8860 -1.1980  0.7731
  601MOL0     H81094   4.560   6.937   0.034 -0.8258 -0.8149 -1.9331
  601MOL0     H81095   4.769   7.100  -0.343 -2.4451 -2.1704  0.4674
  601MOL0     H81096   4.818   7.375  -0.465 -0.1380  0.3717  0.1145
  601MOL0     H81097   4.773   7.219  -0.530 -2.5765 -0.6216 -0.0992
  601MOL0     H81098   4.668   7.336  -0.569 -1.7286  0.5780  1.2632
  601MOL0     H81099   4.214   7.571  -0.192 -1.5437 -1.5152  2.3438
  601MOL0     H81100   4.017   7.405  -0.182 -0.6947  1.5092 -1.5874
  601MOL0     H81101   4.008   7.165  -0.139 -1.8021  0.4428  1.9088
  601MOL0     H81102   3.850   7.239  -0.196  1.8747  1.9029 -0.2817
  601MOL0     H81103   3.809   7.023  -0.327 -1.9166 -2.1458  2.2789
  601MOL0     H81104   3.973   6.970  -0.283  0.4572  0.4944 -2.3483
  601MOL0     H81105   3.747   7.003  -0.078  0.7166 -2.0171  1.9497
  601MOL0     H81106   3.910   6.931  -0.053  1.4325  0.9875 -0.5644
  601MOL0     H81107   3.778   6.792  -0.263  2.8412  1.7707 -0.4108
  601MOL0     H81108   3.890   6.761  -0.132  0.9002  3.5734  3.3950
  601MOL0     H81109   3.637   6.665  -0.104 -2.3540  0.2232 -0.6615
  601MOL0     H81110   3.582   6.825  -0.099 -0.7232 -1.2315  1.4133
  601MOL0     H81111   3.696   6.878   0.092  1.7826 -1.0930  0.8144
  601MOL0     H81112   3.603   6.726   0.112  1.1646 -4.0793 -0.7689
  601MOL0     H81113   3.907   6.773   0.107 -0.6927 -0.1143 -3.5534
  601MOL0     H81114   3.833   6.616   0.074  0.1494 -0.7609  0.3566
  601MOL0     H81115   3.898   6.640   0.303  2.1590  3.1692 -0.9785
  601MOL0     H81116   3.725   6.589   0.283  0.8546 -1.0690  0.3219
  601MOL0     H81117   4.184   7.200  -0.496  0.6504  2.4285 -1.9336
  601MOL0     H81118   4.384   7.340  -0.495  1.4973  0.0890  2.5796
  601MOL0     H81119   4.479   7.418  -0.106 -0.9332  1.6091 -2.9790
  601MOL0     H81120   4.520   7.198  -0.006  4.3874 -1.0843  1.8811
  601MOL0     H81121   4.881   7.166   0.311  3.2757  1.8670  0.3550
  601MOL0     H81122   4.960   7.239   0.095 -0.5352 -0.5723 -1.4146
  601MOL0     H81123   4.825   7.565  -0.217  0.6840 -1.1333 -1.7036
  601MOL0     H81124   4.863   7.743  -0.417  1.1048 -2.9019  0.3651
  601MOL0     H81125   4.868   7.935  -0.510  0.3471 -2.0217 -0.4088
  601MOL0     H81126   4.987   8.056  -0.567  3.2618 -1.6623 -3.0569
  601MOL0     H81127   5.012   7.757  -0.566 -1.5412  0.7357  1.0124
  601MOL0     H81128   5.150   7.860  -0.607 -1.4062  1.8965  3.3482
  601MOL0     H81129   5.059   7.798  -0.835 -0.9444 -0.0802 -1.8156
  601MOL0     H81130   4.983   7.955  -0.794  1.2080  0.0815 -1.6562
  601MOL0     H81131   4.788   7.816  -0.703  1.5075  0.1558  2.1759
  601MOL0     H81132   4.841   7.665  -0.762 -0.0304 -0.8999  0.7760
  601MOL0     H81133   4.672   7.848  -1.105  0.9379  3.2345  0.1185
  601MOL0     H81134   5.154   7.928  -0.195 -2.6959  1.8063 -0.8449
  601MOL0     H81135   5.126   7.759  -0.002 -0.0484  1.2797 -0.2244
  602MOL0     O81136   4.876   5.783   9.248  0.9309 -0.4991  0.0186
  602MOL0     C81137   4.917   5.903   9.236  0.6296  0.8011 -0.0223
  602MOL0     O81138   4.876   5.991   9.142 -0.2174  0.2043  0.9330
  602MOL0     C81139   4.776   5.958   9.060  0.8787 -0.1695 -0.6262
  602MOL0     C81140   4.794   5.940   8.919 -0.1647 -0.1067 -0.7338
  602MOL0     C81141   4.689   5.929   8.833  0.2498  0.5762  0.0386
  602MOL0     C81142   4.557   5.914   8.881 -1.3724 -2.1034  0.3333
  602MOL0     O81143   4.460   5.914   8.786 -0.3793 -0.8445 -0.1199
  602MOL0     C81144   4.321   5.916   8.830 -0.7591 -0.4555  0.0055
  602MOL0     C81145   4.220   5.883   8.720 -0.3176  0.1684 -0.1389
  602MOL0     C81146   4.112   5.776   8.756  0.4704  1.1049 -0.0193
  602MOL0     C81147   4.014   5.817   8.866  0.3030 -0.7654 -0.5098
  602MOL0     C81148   3.885   5.720   8.875  0.0113  0.1856 -0.2302
  602MOL0     C81149   3.831   5.699   9.017  0.4711 -1.1614 -0.6086
  602MOL0     C81150   3.782   5.833   9.087  0.3995 -1.0302 -0.4417
  602MOL0     C81151   3.704   5.791   9.206  0.1492 -0.3709  0.2625
  602MOL0     N81152   3.775   5.770   9.330 -0.0246 -0.5906 -0.5501
  602MOL0     C81153   3.902   5.738   9.346 -0.5940  0.2713 -0.2565
  602MOL0     C81154   3.930   5.792   9.464  0.5409 -0.2408 -0.0948
  602MOL0     C81155   4.067   5.814   9.522 -0.2947 -0.1978  0.2183
  602MOL0     C81156   4.075   5.892   9.658  0.0562  0.8347  0.8631
  602MOL0     C81157   4.213   5.932   9.702  0.0923  0.1369 -0.4749
  602MOL0     C81158   4.207   5.998   9.843 -0.2466  1.3916 -0.0916
  602MOL0     O81159   4.193   6.143   9.820 -0.3656  0.1514 -0.6550
  602MOL0     C81160   4.190   6.223   9.924  0.2272  0.0419  0.0671
  602MOL0     C81161   4.200   6.188  10.067  0.5820 -0.2859  0.2507
  602MOL0     C81162   4.173   6.288  10.172 -0.4685 -0.6469  0.8637
  602MOL0     C81163   4.185   6.253  10.320 -1.0145  0.3017  0.8250
  602MOL0     C81164   4.147   6.424  10.129  1.0435 -0.1015 -0.6453
  602MOL0     C81165   4.133   6.542  10.231  0.7750 -0.9097  0.1414
  602MOL0     O81166   4.175   6.667  10.179 -0.3201  0.4597 -0.1230
  602MOL0     C81167   4.194   6.782  10.246  0.5586 -0.1644  0.5149
  602MOL0     C81168   4.265   6.873  10.166  0.4365 -0.0029  0.7558
  602MOL0     C81169   4.278   7.008  10.211  0.0718  0.5768 -0.0352
  602MOL0     C81170   4.245   7.039  10.346  0.1556 -0.1737 -0.9301
  602MOL0     O81171   4.273   7.155  10.408  0.3689 -0.1545  0.3222
  602MOL0     C81172   4.380   7.241  10.353 -1.4003 -0.2982 -0.7108
  602MOL0     C81173   4.358   7.385  10.408 -0.5021  1.0024 -0.0694
  602MOL0     C81174   4.401   7.390  10.563  0.3326 -0.3686 -0.5600
  602MOL0     C81175   4.412   7.536  10.593  0.3880 -1.0362 -0.1514
  602MOL0     C81176   4.282   7.609  10.632 -0.1791 -0.6218 -0.8484
  602MOL0     C81177   4.325   7.751  10.691  0.3506  0.4897  0.2612
  602MOL0     C81178   4.215   7.858  10.722 -0.3628  0.1132  0.1163
  602MOL0     C81179   4.282   7.974  10.808 -0.3053  0.4542  0.2483
  602MOL0    Cl81180   4.176   8.123  10.820 -0.4745 -0.0813  0.1415
  602MOL0     C81181   4.177   6.946  10.426  0.2556 -0.6147 -0.6348
  602MOL0     C81182   4.157   6.818  10.378 -0.3611  0.3280 -0.3106
  602MOL0     O81183   4.095   6.525  10.347 -0.8099  0.3198  0.3531
  602MOL0     C81184   4.140   6.452   9.990  0.1925 -0.1446 -0.2630
  602MOL0     C81185   4.156   6.354   9.892  0.0291  0.3553 -0.7407
  602MOL0     N81186   3.816   5.847   9.524 -0.0472 -0.3185  0.2200
  602MOL0     N81187   3.729   5.838   9.441 -0.0331  0.5504  0.0638
  602MOL0     C81188   4.538   5.928   9.022  0.0457 -0.0006  0.1060
  602MOL0     C81189   4.640   5.947   9.109 -0.7937 -0.8883  0.2611
  602MOL0     C81190   5.029   5.926   9.318 -0.4699  0.0896  0.5974
  602MOL0     C81191   5.105   5.820   9.391 -0.3549  0.3873  0.0793
  602MOL0     C81192   5.219   5.853   9.460  0.3997  0.5234 -0.3984
  602MOL0     C81193   5.270   5.979   9.449 -0.4418 -0.5860  0.3371
  602MOL0     O81194   5.379   6.029   9.517 -0.3287 -0.3838  0.0660
  602MOL0     C81195   5.465   5.933   9.585 -1.2187  0.8132 -0.8323
  602MOL0     C81196   5.445   5.927   9.729 -0.8283  0.4500  0.0987
  602MOL0     C81197   5.494   6.049   9.810 -0.2646 -0.2403  0.6215
  602MOL0     C81198   5.408   6.172   9.790 -0.6010 -0.6648  0.1095
  602MOL0     C81199   5.445   6.270   9.894 -0.0183  0.3372 -0.0538
  602MOL0     C81200   5.495   6.345   9.976  0.1715 -0.8270 -0.2410
  602MOL0     C81201   5.212   6.078   9.373  1.1133 -0.6144  0.5765
  602MOL0     C81202   5.088   6.056   9.311 -0.3026  0.8328  0.2719
  602MOL0     H81203   4.898   5.958   8.896 -0.4207  1.6326 -0.7077
  602MOL0     H81204   4.695   5.940   8.725  0.3074 -1.7801 -0.2569
  602MOL0     H81205   4.303   5.832   8.898  3.4805 -3.7706 -2.4394
  602MOL0     H81206   4.290   6.014   8.866  0.5834  0.6597 -1.7000
  602MOL0     H81207   4.176   5.978   8.690 -0.8136 -0.9384 -3.3554
  602MOL0     H81208   4.270   5.846   8.630 -2.5111 -2.1507 -0.5312
  602MOL0     H81209   4.045   5.755   8.673  0.7805 -2.2369  0.4330
  602MOL0     H81210   4.156   5.678   8.775  1.9560  1.9673  1.2819
  602MOL0     H81211   4.066   5.823   8.963  0.2756  0.7426 -0.5689
  602MOL0     H81212   3.981   5.919   8.844 -0.2813 -0.2604  2.3056
  602MOL0     H81213   3.807   5.757   8.808  0.4255 -0.5303 -1.1257
  602MOL0     H81214   3.921   5.625   8.836  1.0115  0.3179  0.3175
  602MOL0     H81215   3.743   5.634   9.016 -1.8153  1.7491 -2.0690
  602MOL0     H81216   3.914   5.663   9.079  1.3441  2.3404  0.4529
  602MOL0     H81217   3.865   5.893   9.124  0.0642 -0.2408 -0.9436
  602MOL0     H81218   3.730   5.893   9.011  1.6415  1.8028  0.8137
  602MOL0     H81219   3.655   5.694   9.193  1.0376 -0.8270  0.2900
  602MOL0     H81220   3.630   5.872   9.213 -2.8033 -2.8957  0.4168
  602MOL0     H81221   3.968   5.705   9.267  1.6294 -1.2231  2.0486
  602MOL0     H81222   4.107   5.713   9.541  0.6909  0.7934  4.3506
  602MOL0     H81223   4.133   5.865   9.451  0.2784  0.5513  1.2742
  602MOL0     H81224   4.034   5.816   9.725 -3.1105 -0.3853 -2.1598
  602MOL0     H81225   4.008   5.978   9.653 -1.4497 -0.3357 -3.3029
  602MOL0     H81226   4.255   6.005   9.632 -2.8537 -0.5828 -3.2476
  602MOL0     H81227   4.275   5.843   9.713  0.8116  0.8333  1.5752
  602MOL0     H81228   4.304   5.981   9.890 -0.2317 -0.2279 -0.6262
  602MOL0     H81229   4.127   5.960   9.907  0.5895  2.1170  1.4359
  602MOL0     H81230   4.227   6.088  10.101  0.5295 -0.3612  0.0755
  602MOL0     H81231   4.088   6.277  10.364 -2.4398 -1.2550 -1.2481
  602MOL0     H81232   4.213   6.148  10.328  0.3620  0.5912  0.2064
  602MOL0     H81233   4.264   6.321  10.355 -1.6557  0.7577  1.3956
  602MOL0     H81234   4.286   6.845  10.063  1.9689  2.1596  0.4076
  602MOL0     H81235   4.322   7.082  10.146 -0.0940  0.2557 -0.5159
  602MOL0     H81236   4.479   7.206  10.383 -0.0977  2.5766 -1.2601
  602MOL0     H81237   4.384   7.245  10.244 -0.8610 -0.6284 -0.7048
  602MOL0     H81238   4.434   7.448  10.362 -0.7953  0.6149 -1.1084
  602MOL0     H81239   4.252   7.407  10.395 -0.9467 -1.6819 -1.7264
  602MOL0     H81240   4.494   7.339  10.591  1.0338  2.0405  1.8672
  602MOL0     H81241   4.328   7.363  10.640  0.8699  0.9009  0.4185
  602MOL0     H81242   4.481   7.554  10.676  0.4726  2.1667 -0.7890
  602MOL0     H81243   4.451   7.594  10.508  0.5477 -1.7912 -0.6071
  602MOL0     H81244   4.235   7.552  10.713  2.2426  3.1434  3.7175
  602MOL0     H81245   4.209   7.615  10.552  0.2470 -1.6720 -1.3319
  602MOL0     H81246   4.376   7.734  10.786  1.1155  1.0776 -0.0353
  602MOL0     H81247   4.401   7.802  10.630  0.1492 -1.0786 -1.3828
  602MOL0     H81248   4.131   7.815  10.779 -0.1004  1.2994  1.4618
  602MOL0     H81249   4.174   7.916  10.639 -0.9392  0.2000  0.4566
  602MOL0     H81250   4.379   7.995  10.761 -1.5534 -1.2150 -3.4644
  602MOL0     H81251   4.296   7.939  10.910  1.0154  0.5854  0.1363
  602MOL0     H81252   4.138   6.968  10.525  1.7799 -1.0247  0.0867
  602MOL0     H81253   4.104   6.746  10.439 -2.3568  1.8416 -0.1354
  602MOL0     H81254   4.119   6.551   9.950 -1.0940 -1.3722 -2.9155
  602MOL0     H81255   4.148   6.374   9.786 -0.1666 -0.8630 -0.9696
  602MOL0     H81256   4.440   5.924   9.067 -0.5072  2.6912 -0.6912
  602MOL0     H81257   4.620   5.965   9.214 -3.4029  3.4792 -0.7306
  602MOL0     H81258   5.068   5.718   9.395 -2.3046  1.0321 -0.4331
  602MOL0     H81259   5.257   5.771   9.522  1.8082  1.9455  0.7125
  602MOL0     H81260   5.456   5.830   9.549  1.1517  0.3455 -0.2371
  602MOL0     H81261   5.569   5.964   9.571 -0.2547 -1.5054  0.6093
  602MOL0     H81262   5.496   5.837   9.765 -0.4864  1.8954  3.6576
  602MOL0     H81263   5.339   5.901   9.740 -0.1994 -2.3445  0.2593
  602MOL0     H81264   5.598   6.075   9.790 -0.7239  1.7967  0.6887
  602MOL0     H81265   5.494   6.024   9.916 -0.5321 -2.2596  0.1938
  602MOL0     H81266   5.300   6.160   9.806 -0.4480  1.0303  3.4672
  602MOL0     H81267   5.444   6.210   9.694  1.1326  0.8555  1.2982
  602MOL0     H81268   5.529   6.416  10.048  2.2853  0.1056 -2.0597
  602MOL0     H81269   5.261   6.172   9.356 -3.3760  1.9151  0.0069
  602MOL0     H81270   5.048   6.136   9.249  1.1269 -0.1177 -2.0195
  603MOL0     O81271   1.305   5.083   0.299 -0.0965 -0.2453  0.3649
  603MOL0     C81272   1.272   5.201   0.268 -0.4995 -0.0723 -0.5238
  603MOL0     O81273   1.362   5.300   0.263  1.4395 -1.0214  0.2772
  603MOL0     C81274   1.493   5.295   0.285  0.5641  0.1916  0.2167
  603MOL0     C81275   1.552   5.421   0.305 -0.1401  0.3014 -0.6478
  603MOL0     C81276   1.676   5.442   0.368  0.2550 -0.2987  0.3037
  603MOL0     C81277   1.757   5.333   0.396 -0.5282 -0.4169 -0.0320
  603MOL0     O81278   1.885   5.354   0.431  0.2597 -0.3388 -0.0022
  603MOL0     C81279   1.989   5.261   0.402 -0.4264 -0.6358 -0.5390
  603MOL0     C81280   1.999   5.242   0.245 -0.1095 -0.2943  0.4555
  603MOL0     C81281   2.135   5.218   0.195 -0.1896  0.3932  0.7294
  603MOL0     C81282   2.245   5.328   0.236  0.0491 -1.1435  0.4134
  603MOL0     C81283   2.218   5.476   0.221  0.3824  0.1736 -0.2785
  603MOL0     C81284   2.211   5.561   0.345  0.4035 -0.5099 -0.1701
  603MOL0     C81285   2.172   5.707   0.306 -0.6990 -0.5785 -0.0086
  603MOL0     C81286   2.171   5.801   0.431  1.0040 -0.8456  0.0526
  603MOL0     N81287   2.151   5.934   0.389 -0.3177 -1.0354 -0.1213
  603MOL0     C81288   2.034   5.993   0.373 -0.1990 -0.1328  0.2195
  603MOL0     C81289   2.074   6.111   0.328 -0.7308 -0.0373  0.0935
  603MOL0     C81290   1.994   6.215   0.260 -0.2673  0.1469  0.5341
  603MOL0     C81291   1.889   6.270   0.352  1.1544  0.7242  0.2037
  603MOL0     C81292   1.947   6.364   0.458 -0.8961 -0.2119  0.2131
  603MOL0     C81293   1.829   6.402   0.552 -0.3527  0.1699  0.3090
  603MOL0     O81294   1.748   6.515   0.508 -0.3436  0.4500 -0.3938
  603MOL0     C81295   1.649   6.575   0.589 -0.2970  0.6633 -0.1270
  603MOL0     C81296   1.634   6.559   0.728  0.3841 -0.6978  0.8267
  603MOL0     C81297   1.529   6.623   0.796  1.5989 -0.2687  0.0116
  603MOL0     C81298   1.538   6.610   0.952 -0.1495  0.9185 -1.4259
  603MOL0     C81299   1.433   6.713   0.734 -0.3224 -0.1582  0.2488
  603MOL0     C81300   1.319   6.785   0.791  0.1916 -0.8471  0.1804
  603MOL0     O81301   1.227   6.832   0.702  0.9127  0.3019  0.1620
  603MOL0     C81302   1.141   6.928   0.743 -0.6529  0.1882 -0.1447
  603MOL0     C81303   1.190   7.057   0.757 -0.2096 -0.7698  0.3344
  603MOL0     C81304   1.093   7.154   0.792  0.0302 -0.6427  0.0195
  603MOL0     C81305   0.946   7.114   0.808 -0.2782 -0.6998 -0.0183
  603MOL0     O81306   0.854   7.203   0.866 -0.6574  0.3953 -0.0199
  603MOL0     C81307   0.898   7.329   0.920  0.5033  0.4417  0.1126
  603MOL0     C81308   0.772   7.411   0.973 -0.7762  0.2567 -0.2054
  603MOL0     C81309   0.791   7.565   1.011  0.1387  0.4351  0.0077
  603MOL0     C81310   0.875   7.573   1.140 -0.0560 -0.1278 -0.6882
  603MOL0     C81311   0.907   7.716   1.188  0.3826 -0.7172 -0.6393
  603MOL0     C81312   0.990   7.716   1.314  0.2360  0.2021  0.1218
  603MOL0     C81313   0.993   7.857   1.361  0.2184 -0.4682  0.1717
  603MOL0     C81314   1.107   7.872   1.464 -0.1744 -0.0672  1.1796
  603MOL0    Cl81315   1.262   7.828   1.380 -0.1665  0.5119 -0.3477
  603MOL0     C81316   0.912   6.982   0.789 -0.3028  0.2599  0.1930
  603MOL0     C81317   1.013   6.890   0.753 -0.4340 -0.4063  0.2100
  603MOL0     O81318   1.326   6.816   0.913  0.6650 -0.3151 -0.1283
  603MOL0     C81319   1.463   6.730   0.600  0.3154 -0.4139  0.1702
  603MOL0     C81320   1.567   6.663   0.529  0.4600 -0.4226  0.0385
  603MOL0     N81321   2.211   6.129   0.334 -0.0124  0.0188 -0.1730
  603MOL0     N81322   2.261   6.019   0.360  0.0536  0.6140 -1.1121
  603MOL0     C81323   1.708   5.205   0.376 -1.0341  0.0006 -1.1789
  603MOL0     C81324   1.575   5.182   0.331 -0.3456  0.0641 -0.2944
  603MOL0     C81325   1.135   5.241   0.242  0.9193 -0.2895  0.0499
  603MOL0     C81326   1.037   5.134   0.212  0.4512  0.4401 -0.2586
  603MOL0     C81327   0.904   5.168   0.193 -0.0844  0.1128  0.1656
  603MOL0     C81328   0.866   5.299   0.193  0.7005  0.4129 -0.0236
  603MOL0     O81329   0.729   5.323   0.181 -0.9041 -0.8288  1.2116
  603MOL0     C81330   0.675   5.462   0.212 -1.4712 -0.6147 -0.2768
  603MOL0     C81331   0.525   5.469   0.174  0.6352 -0.0818  0.5266
  603MOL0     C81332   0.437   5.360   0.243 -0.5679  0.4570  0.1909
  603MOL0     C81333   0.295   5.341   0.170  0.4012  0.8514 -0.4549
  603MOL0     C81334   0.311   5.305   0.026  0.6289 -0.0485  0.3296
  603MOL0     C81335   0.338   5.287  -0.090 -0.0508 -0.0456  0.3382
  603MOL0     C81336   0.957   5.403   0.210 -0.5895  0.3316  0.7200
  603MOL0     C81337   1.090   5.367   0.237  0.2425 -0.6153  0.1090
  603MOL0     H81338   1.498   5.503   0.258  1.9958  1.8388 -0.5385
  603MOL0     H81339   1.716   5.542   0.383 -1.8892  0.6842 -0.2065
  603MOL0     H81340   2.082   5.312   0.430 -1.2838  0.2655  0.7811
  603MOL0     H81341   1.981   5.169   0.461 -1.6727  0.0690  0.4453
  603MOL0     H81342   1.925   5.167   0.214  0.7042 -1.1624  0.5874
  603MOL0     H81343   1.955   5.331   0.199 -1.9205 -0.8015  1.1250
  603MOL0     H81344   2.169   5.124   0.238  3.0796 -0.1405 -2.4978
  603MOL0     H81345   2.129   5.215   0.086  0.3627 -2.4589  0.7167
  603MOL0     H81346   2.269   5.317   0.342 -1.4768  1.7333  1.1350
  603MOL0     H81347   2.342   5.301   0.193  1.7949  0.1053  3.3149
  603MOL0     H81348   2.270   5.520   0.135 -2.4281 -2.2085 -3.4887
  603MOL0     H81349   2.119   5.477   0.174  0.5741 -0.8820 -0.7432
  603MOL0     H81350   2.127   5.535   0.409  0.7975  0.1324  0.6234
  603MOL0     H81351   2.306   5.568   0.398  1.2964 -3.4681 -1.1744
  603MOL0     H81352   2.252   5.745   0.241 -1.4890 -1.1317 -1.3338
  603MOL0     H81353   2.072   5.699   0.263  0.8701 -0.1843 -4.3023
  603MOL0     H81354   2.273   5.800   0.471  1.7987 -0.4688 -1.8422
  603MOL0     H81355   2.103   5.779   0.514  0.8161  0.4774  0.2695
  603MOL0     H81356   1.935   5.950   0.367 -0.3744  0.4683 -2.1780
  603MOL0     H81357   2.064   6.296   0.235 -0.4603  0.3310  0.5813
  603MOL0     H81358   1.954   6.175   0.166 -1.4184  0.9752  0.6524
  603MOL0     H81359   1.844   6.186   0.404 -0.1309  1.2639 -0.0062
  603MOL0     H81360   1.817   6.318   0.286  1.6193  1.2335  0.0535
  603MOL0     H81361   1.996   6.448   0.410  1.7841 -1.0153  1.3379
  603MOL0     H81362   2.021   6.308   0.515  0.2089  0.2166 -0.7766
  603MOL0     H81363   1.866   6.433   0.650  1.1903  1.8185 -0.7351
  603MOL0     H81364   1.761   6.319   0.576  1.0044 -0.8475  0.7431
  603MOL0     H81365   1.704   6.494   0.778  3.2033  2.0742  0.8015
  603MOL0     H81366   1.447   6.571   1.000  0.8435  0.0060 -0.2340
  603MOL0     H81367   1.621   6.546   0.981  0.0576  2.0744  0.7565
  603MOL0     H81368   1.556   6.707   1.000 -0.5795  1.7298 -2.8347
  603MOL0     H81369   1.290   7.092   0.733 -0.5093  0.0482  0.2445
  603MOL0     H81370   1.111   7.261   0.788  1.4789 -0.8895 -1.0339
  603MOL0     H81371   0.971   7.309   0.999  1.1286 -1.8744 -0.9907
  603MOL0     H81372   0.954   7.385   0.846  2.2634  2.9128  3.0610
  603MOL0     H81373   0.693   7.400   0.898 -0.0316 -0.8816 -0.8582
  603MOL0     H81374   0.729   7.370   1.065 -0.5356  2.9633  1.1972
  603MOL0     H81375   0.700   7.623   1.030  0.2285  0.6428 -0.1882
  603MOL0     H81376   0.848   7.626   0.941  2.4173  0.1686  1.5179
  603MOL0     H81377   0.835   7.516   1.225  0.5490 -0.9909 -0.9649
  603MOL0     H81378   0.975   7.532   1.119  0.7298  1.7691 -0.7984
  603MOL0     H81379   0.806   7.756   1.199 -1.0641 -3.6365 -2.2029
  603MOL0     H81380   0.961   7.762   1.104  0.9904  1.7671  1.0056
  603MOL0     H81381   0.951   7.650   1.392  2.8665 -2.9937 -1.0219
  603MOL0     H81382   1.084   7.674   1.278 -1.3379 -1.3399 -2.5042
  603MOL0     H81383   0.901   7.878   1.416 -1.0664 -0.0622 -2.0225
  603MOL0     H81384   1.000   7.927   1.277 -1.1145 -0.8444 -0.2706
  603MOL0     H81385   1.084   7.811   1.552 -3.1951 -1.3318 -0.3651
  603MOL0     H81386   1.110   7.977   1.496 -0.7546  0.7911 -1.4008
  603MOL0     H81387   0.810   6.945   0.800 -0.5371  0.0406 -2.1692
  603MOL0     H81388   0.988   6.785   0.745  0.4526 -0.4987 -3.5660
  603MOL0     H81389   1.407   6.796   0.534 -1.4034 -0.8248  1.1339
  603MOL0     H81390   1.562   6.666   0.421  0.2916  2.7751  0.0567
  603MOL0     H81391   1.773   5.121   0.397 -3.3346 -0.9009  3.7392
  603MOL0     H81392   1.549   5.077   0.323  2.4881 -0.8857  1.5162
  603MOL0     H81393   1.065   5.030   0.209 -1.2583 -0.0370 -0.6441
  603MOL0     H81394   0.826   5.099   0.164 -2.2904  2.5404 -0.0903
  603MOL0     H81395   0.691   5.485   0.317  0.7098 -0.4146 -0.6033
  603MOL0     H81396   0.712   5.540   0.145 -0.0098 -1.5581 -0.6364
  603MOL0     H81397   0.519   5.457   0.066  1.5875  2.6827  0.0904
  603MOL0     H81398   0.478   5.568   0.177 -1.0610 -0.7111 -2.0348
  603MOL0     H81399   0.421   5.390   0.347  2.3053  0.1424  0.8331
  603MOL0     H81400   0.487   5.263   0.253 -0.1280  0.8459  2.6002
  603MOL0     H81401   0.245   5.438   0.168 -0.5043  0.4729  1.3717
  603MOL0     H81402   0.229   5.273   0.225  0.0869  2.0219  0.6867
  603MOL0     H81403   0.359   5.278  -0.195 -2.8096  3.1058 -0.6686
  603MOL0     H81404   0.916   5.504   0.205  0.2536  0.7015  1.0413
  603MOL0     H81405   1.167   5.444   0.239 -1.8860  1.6895 -0.6108
  604MOL0     O81406   3.188   8.817   7.874 -0.8153 -0.0481 -0.3604
  604MOL0     C81407   3.104   8.834   7.966 -0.5855 -0.7142 -0.1462
  604MOL0     O81408   2.986   8.766   7.986 -0.2324 -0.2020  0.5855
  604MOL0     C81409   2.975   8.629   7.969 -0.7333  0.4063  0.3899
  604MOL0     C81410   3.081   8.545   7.998 -0.0656  0.9785 -0.3120
  604MOL0     C81411   3.069   8.405   7.967 -0.2608 -0.0806  0.2636
  604MOL0     C81412   2.953   8.350   7.915  1.0342  0.8736 -0.1188
  604MOL0     O81413   2.945   8.217   7.882  0.1597 -0.9611 -0.1375
  604MOL0     C81414   2.956   8.197   7.741 -0.1302 -0.5406  0.2437
  604MOL0     C81415   2.907   8.056   7.709  0.0979 -0.0629  0.3770
  604MOL0     C81416   2.886   8.028   7.554  0.7670  0.9243  0.5772
  604MOL0     C81417   2.766   8.090   7.497 -0.4989 -0.8520  0.1401
  604MOL0     C81418   2.747   8.046   7.351 -0.7377  0.0884 -0.6820
  604MOL0     C81419   2.605   7.996   7.334 -0.0981  1.4853 -0.3662
  604MOL0     C81420   2.602   7.919   7.200  0.5379 -0.4106 -0.9759
  604MOL0     C81421   2.614   8.006   7.073 -0.2118 -0.1682 -0.1195
  604MOL0     N81422   2.511   8.111   7.074 -0.0548 -0.1537  0.1314
  604MOL0     C81423   2.376   8.099   7.104 -1.3524  1.2090  0.4774
  604MOL0     C81424   2.321   8.222   7.089  0.5380  0.3076  0.0273
  604MOL0     C81425   2.174   8.249   7.074  0.5889  0.9333 -0.5725
  604MOL0     C81426   2.126   8.380   7.130 -0.3641 -0.2050 -1.1815
  604MOL0     C81427   2.172   8.417   7.274 -0.3521 -0.3575  0.0903
  604MOL0     C81428   2.150   8.567   7.307  0.3676 -1.2282  0.3419
  604MOL0     O81429   2.158   8.590   7.460 -0.5890 -0.1931  0.2227
  604MOL0     C81430   2.102   8.714   7.488  0.3457  0.2908  0.2297
  604MOL0     C81431   1.989   8.724   7.568 -0.0343  0.7866  0.5791
  604MOL0     C81432   1.927   8.848   7.594  0.1865  0.6048  1.1433
  604MOL0     C81433   1.809   8.845   7.679  0.1791 -0.6790 -0.5459
  604MOL0     C81434   1.979   8.965   7.539  0.1063 -0.5563 -0.4320
  604MOL0     C81435   1.935   9.103   7.576 -0.4860 -0.8047 -0.4374
  604MOL0     O81436   1.979   9.194   7.487 -0.2972  0.0801 -0.3056
  604MOL0     C81437   1.940   9.326   7.504  0.0456 -0.1574 -0.6828
  604MOL0     C81438   2.005   9.389   7.605 -0.0602  0.0208 -0.5797
  604MOL0     C81439   1.953   9.514   7.657  0.1226 -0.4094 -0.0968
  604MOL0     C81440   1.835   9.571   7.597 -0.3477  0.1621 -0.3664
  604MOL0     O81441   1.800   9.695   7.640 -0.3037  0.3040 -0.6533
  604MOL0     C81442   1.763   9.797   7.545  0.6706  0.0458  0.0221
  604MOL0     C81443   1.723   9.927   7.641 -1.1129 -0.9331  0.9672
  604MOL0     C81444   1.684  10.051   7.553 -0.6416  0.5617  0.0022
  604MOL0     C81445   1.617  10.165   7.631  0.0325  0.2905 -0.1636
  604MOL0     C81446   1.590  10.289   7.551 -0.6256 -0.8391 -0.1224
  604MOL0     C81447   1.503  10.387   7.634  0.7816  0.4990  0.3719
  604MOL0     C81448   1.479  10.520   7.555 -0.2500  0.0426 -0.9705
  604MOL0     C81449   1.412  10.625   7.645  0.3082  0.4493  0.7017
  604MOL0    Cl81450   1.241  10.660   7.595  0.3936 -0.4777  0.3736
  604MOL0     C81451   1.775   9.505   7.492  1.1065  1.1054  0.8751
  604MOL0     C81452   1.828   9.380   7.441  0.5016 -0.0860 -1.3198
  604MOL0     O81453   1.873   9.128   7.675 -0.2108  0.3467 -0.4988
  604MOL0     C81454   2.085   8.947   7.449  0.5755  0.0087 -0.0084
  604MOL0     C81455   2.142   8.822   7.423  0.5553  0.5997  0.8455
  604MOL0     N81456   2.416   8.311   7.051  0.0982  0.2609  0.2105
  604MOL0     N81457   2.530   8.244   7.051  0.3513 -0.1144  0.5270
  604MOL0     C81458   2.851   8.437   7.888  0.0647 -0.7551 -0.4553
  604MOL0     C81459   2.854   8.569   7.917 -0.1849 -0.9906 -0.1106
  604MOL0     C81460   3.111   8.968   8.034 -0.6640  0.0438  0.5859
  604MOL0     C81461   3.039   9.001   8.155  0.1024 -0.4372  1.0622
  604MOL0     C81462   3.058   9.126   8.216 -0.1539 -0.4588 -0.6894
  604MOL0     C81463   3.160   9.212   8.176  0.1500 -0.0142 -0.5110
  604MOL0     O81464   3.172   9.339   8.239 -0.1187  0.2255 -0.1547
  604MOL0     C81465   3.169   9.336   8.385  0.4849  1.1173 -0.3341
  604MOL0     C81466   3.191   9.466   8.446 -0.0084 -0.0083  0.2327
  604MOL0     C81467   3.340   9.517   8.424 -0.3436  0.7047  0.0064
  604MOL0     C81468   3.334   9.609   8.305  0.0708 -0.1939 -0.4592
  604MOL0     C81469   3.269   9.746   8.333 -0.2187 -0.1212 -0.0688
  604MOL0     C81470   3.214   9.855   8.338 -0.2068  0.9196 -0.2485
  604MOL0     C81471   3.229   9.191   8.062  0.3315  0.4223 -0.0613
  604MOL0     C81472   3.213   9.065   7.992  0.2278  0.3101  0.9019
  604MOL0     H81473   3.166   8.584   8.054 -1.3485  1.2570  1.5148
  604MOL0     H81474   3.159   8.347   7.987 -0.4351 -0.3630  0.2392
  604MOL0     H81475   2.883   8.264   7.694 -0.9417 -0.0421  2.1012
  604MOL0     H81476   3.057   8.215   7.702 -0.0788 -2.0171 -0.3649
  604MOL0     H81477   2.974   7.978   7.745 -1.2095 -1.6261 -0.4637
  604MOL0     H81478   2.812   8.038   7.761 -1.6142  0.3401 -2.4058
  604MOL0     H81479   2.974   8.050   7.493  0.8802 -0.2829  0.2777
  604MOL0     H81480   2.867   7.920   7.553 -1.7228  1.2686  1.8573
  604MOL0     H81481   2.683   8.072   7.566 -1.3735 -1.9060 -1.1282
  604MOL0     H81482   2.792   8.196   7.491  0.2678 -1.1074 -4.0209
  604MOL0     H81483   2.752   8.129   7.280 -3.0032 -0.7926 -1.9896
  604MOL0     H81484   2.818   7.963   7.342 -0.5427  0.1053  0.5321
  604MOL0     H81485   2.580   7.923   7.412  0.4418  1.3902 -0.2765
  604MOL0     H81486   2.546   8.088   7.348  0.2898  1.3401  3.1530
  604MOL0     H81487   2.680   7.842   7.201 -0.4073 -1.5556  2.8723
  604MOL0     H81488   2.514   7.854   7.199  1.1931 -1.3141 -1.9681
  604MOL0     H81489   2.601   7.926   6.999 -0.1516  0.0462 -0.3642
  604MOL0     H81490   2.716   8.042   7.052  0.9024 -2.7651  0.5264
  604MOL0     H81491   2.323   8.005   7.120 -1.9853  1.6684  1.1495
  604MOL0     H81492   2.150   8.261   6.967  2.9618  0.7088 -1.1967
  604MOL0     H81493   2.116   8.165   7.112  1.0888  1.1859  0.7926
  604MOL0     H81494   2.018   8.375   7.114 -0.6753  1.0190  0.2289
  604MOL0     H81495   2.171   8.458   7.068 -1.9520  2.7855  1.1204
  604MOL0     H81496   2.278   8.390   7.281 -0.9832 -2.5998  3.1270
  604MOL0     H81497   2.125   8.355   7.351  3.1053 -3.5251 -0.0625
  604MOL0     H81498   2.052   8.601   7.271  0.6130  0.1261  0.8919
  604MOL0     H81499   2.226   8.626   7.257 -0.9068  0.3082  0.1330
  604MOL0     H81500   1.947   8.628   7.597 -1.9247  0.8180 -1.7567
  604MOL0     H81501   1.789   8.742   7.710  3.0719 -0.3575  3.2768
  604MOL0     H81502   1.810   8.904   7.772  0.5589  2.2688 -2.2950
  604MOL0     H81503   1.729   8.891   7.621  0.0623 -1.7549 -1.2682
  604MOL0     H81504   2.075   9.338   7.671  0.0652 -1.6701 -1.9669
  604MOL0     H81505   2.003   9.547   7.747 -0.2127 -5.9020  2.5700
  604MOL0     H81506   1.841   9.821   7.472 -2.0004  0.4740 -2.9262
  604MOL0     H81507   1.668   9.764   7.501 -0.0909  2.5945 -0.3949
  604MOL0     H81508   1.637   9.897   7.701 -1.7211 -6.1077 -1.8781
  604MOL0     H81509   1.808   9.948   7.706 -1.1154 -3.9093  2.1052
  604MOL0     H81510   1.615  10.025   7.472 -0.0088  0.5584 -0.5523
  604MOL0     H81511   1.776  10.086   7.504  0.0993 -0.3241  0.7148
  604MOL0     H81512   1.518  10.131   7.662  0.1028 -1.4921 -1.7177
  604MOL0     H81513   1.681  10.186   7.717  1.7646  1.3022 -1.6339
  604MOL0     H81514   1.526  10.272   7.464 -3.1707 -2.2415  1.8638
  604MOL0     H81515   1.680  10.345   7.524 -3.4244  4.1055 -0.3673
  604MOL0     H81516   1.407  10.335   7.649  1.6582 -1.5625 -0.7747
  604MOL0     H81517   1.549  10.393   7.733  1.8342 -0.6231 -0.0194
  604MOL0     H81518   1.415  10.498   7.469 -2.6991  1.8741  0.2724
  604MOL0     H81519   1.576  10.559   7.524 -0.5327  0.4908 -1.3045
  604MOL0     H81520   1.456  10.725   7.641 -2.0702  1.5277 -2.3922
  604MOL0     H81521   1.413  10.591   7.749 -2.6344 -0.2639  0.5876
  604MOL0     H81522   1.694   9.550   7.435  1.1786  0.0974 -0.0448
  604MOL0     H81523   1.783   9.338   7.351 -0.4161 -1.6066 -0.1915
  604MOL0     H81524   2.111   9.036   7.393  1.3718  2.4920  3.9341
  604MOL0     H81525   2.216   8.818   7.344 -1.2088  0.0098 -0.8358
  604MOL0     H81526   2.756   8.398   7.853 -1.4059  2.9871 -1.0944
  604MOL0     H81527   2.781   8.634   7.870 -1.4840 -0.5160  2.4116
  604MOL0     H81528   2.951   8.948   8.189 -1.6097  0.8042 -1.1633
  604MOL0     H81529   2.992   9.146   8.299  2.5689 -0.3561  1.6255
  604MOL0     H81530   3.080   9.291   8.430 -0.0152 -0.7939 -3.0038
  604MOL0     H81531   3.253   9.271   8.410 -0.8892 -0.1861  1.1499
  604MOL0     H81532   3.171   9.479   8.553  0.5535  0.2060  0.3198
  604MOL0     H81533   3.117   9.535   8.405 -2.1269 -0.7708  2.5453
  604MOL0     H81534   3.402   9.431   8.394 -0.3835  1.1785 -1.5012
  604MOL0     H81535   3.387   9.563   8.511  1.9303  0.1498 -0.8470
  604MOL0     H81536   3.284   9.564   8.219  1.1017  0.3644 -1.3884
  604MOL0     H81537   3.433   9.632   8.263 -0.6736  0.1147 -2.1355
  604MOL0     H81538   3.157   9.945   8.346 -0.9919  0.4323 -0.2891
  604MOL0     H81539   3.298   9.266   8.024 -0.6464 -0.3944 -3.9703
  604MOL0     H81540   3.269   9.044   7.901 -2.2486  3.6270 -1.6418
  605MOL0     O81541   6.170   8.445   8.665  0.2604 -0.6498 -0.0407
  605MOL0     C81542   6.210   8.338   8.630 -0.4987 -0.5068  0.7583
  605MOL0     O81543   6.328   8.276   8.670  0.6696 -1.2198  1.0637
  605MOL0     C81544   6.422   8.374   8.673 -0.5179  0.7191 -0.5695
  605MOL0     C81545   6.466   8.430   8.795 -0.2456 -0.2485 -0.1511
  605MOL0     C81546   6.567   8.529   8.808 -0.1878  0.7068  0.6133
  605MOL0     C81547   6.636   8.552   8.689  0.5378 -0.8759  0.5961
  605MOL0     O81548   6.742   8.629   8.680  0.0144  1.1100 -0.2352
  605MOL0     C81549   6.735   8.748   8.747 -0.0958  0.0505 -0.5272
  605MOL0     C81550   6.848   8.844   8.715 -0.3034 -0.0902 -0.0191
  605MOL0     C81551   6.892   8.856   8.566  0.1698 -0.5938  0.0792
  605MOL0     C81552   6.985   8.966   8.538  0.1186 -0.3269 -0.3257
  605MOL0     C81553   7.031   8.961   8.391  0.5667  0.0346 -0.0947
  605MOL0     C81554   6.922   9.013   8.290 -0.6176  0.3901 -1.1034
  605MOL0     C81555   6.905   9.162   8.282 -0.0293 -0.3900  0.1076
  605MOL0     C81556   6.832   9.208   8.153  0.4535 -0.2491 -0.1001
  605MOL0     N81557   6.739   9.318   8.176 -0.0015  0.7712  0.4180
  605MOL0     C81558   6.606   9.310   8.127 -0.0812  1.0787  0.8694
  605MOL0     C81559   6.556   9.427   8.143  1.2531  0.4991 -0.3034
  605MOL0     C81560   6.410   9.463   8.120  0.5977  0.5754  0.4631
  605MOL0     C81561   6.318   9.373   8.212  0.2793 -0.9882  0.4769
  605MOL0     C81562   6.272   9.443   8.335 -0.6192  0.7984 -0.2847
  605MOL0     C81563   6.171   9.547   8.308  0.3311 -0.4578  0.5054
  605MOL0     O81564   6.137   9.611   8.426  0.2246 -0.5144 -0.4002
  605MOL0     C81565   6.198   9.723   8.472 -0.5247  1.3857 -0.1976
  605MOL0     C81566   6.326   9.766   8.433  0.5553 -0.1360  0.1169
  605MOL0     C81567   6.382   9.885   8.490  0.5425 -0.3407 -0.0486
  605MOL0     C81568   6.525   9.925   8.450  0.0315  0.2498  0.1979
  605MOL0     C81569   6.295   9.959   8.586 -0.9199  0.1210  0.3169
  605MOL0     C81570   6.340  10.084   8.653 -0.6669 -0.0673  0.6890
  605MOL0     O81571   6.265  10.122   8.759  0.1867  0.4007  0.0099
  605MOL0     C81572   6.324  10.210   8.851 -0.2595 -0.8995 -0.3249
  605MOL0     C81573   6.338  10.343   8.807 -0.3194  0.3336 -0.2699
  605MOL0     C81574   6.420  10.434   8.886 -0.8337 -0.2966 -0.0196
  605MOL0     C81575   6.462  10.397   9.012 -0.0730 -1.1527  0.0163
  605MOL0     O81576   6.519  10.482   9.107 -0.6075 -0.1103  0.4435
  605MOL0     C81577   6.505  10.620   9.092 -0.8383  0.0971  0.0581
  605MOL0     C81578   6.631  10.669   9.020 -0.3381  0.0245 -0.4912
  605MOL0     C81579   6.739  10.708   9.128  0.4690  0.5726  0.5720
  605MOL0     C81580   6.718  10.850   9.191 -0.1989 -0.3424  0.0565
  605MOL0     C81581   6.826  10.912   9.273 -0.9424 -0.7005 -1.2756
  605MOL0     C81582   6.825  11.062   9.267 -0.2815 -0.5520  1.4201
  605MOL0     C81583   6.889  11.104   9.134  0.8953 -0.5294 -0.4251
  605MOL0     C81584   6.910  11.262   9.125 -0.5005 -0.6041 -0.0093
  605MOL0    Cl81585   7.056  11.326   9.227 -0.0784 -0.2099  0.3539
  605MOL0     C81586   6.444  10.261   9.052 -0.9278 -0.3767 -0.2861
  605MOL0     C81587   6.384  10.171   8.976  0.3282  0.0270  0.2661
  605MOL0     O81588   6.447  10.133   8.619 -0.5869  0.6828  0.3345
  605MOL0     C81589   6.171   9.906   8.623 -0.6687 -0.4667 -0.2711
  605MOL0     C81590   6.127   9.785   8.567 -0.7376  0.1032 -0.8371
  605MOL0     N81591   6.656   9.506   8.198 -0.4742  0.3038 -0.5119
  605MOL0     N81592   6.769   9.442   8.213 -0.4547 -0.0733 -0.1283
  605MOL0     C81593   6.602   8.493   8.570  0.7413  0.5403 -0.0521
  605MOL0     C81594   6.500   8.398   8.559  1.4574 -0.6757 -1.8997
  605MOL0     C81595   6.129   8.252   8.546 -0.0066 -0.5983  0.8306
  605MOL0     C81596   6.179   8.158   8.453 -0.1682 -0.3712  0.4148
  605MOL0     C81597   6.104   8.119   8.353  0.3959  0.4017 -0.5521
  605MOL0     C81598   5.962   8.132   8.344 -0.1843  0.1186 -0.6137
  605MOL0     O81599   5.889   8.069   8.246  0.2831 -0.0047  1.0382
  605MOL0     C81600   5.745   8.104   8.221 -0.4363 -0.7879  0.7097
  605MOL0     C81601   5.736   8.255   8.168 -0.0291  0.8684  0.3547
  605MOL0     C81602   5.589   8.289   8.152  0.0680  0.1575 -1.2882
  605MOL0     C81603   5.571   8.441   8.092 -0.5875  0.7000 -0.5072
  605MOL0     C81604   5.617   8.441   7.955 -0.0595  0.5654  0.5940
  605MOL0     C81605   5.645   8.462   7.838 -0.4306 -0.8870  0.1984
  605MOL0     C81606   5.910   8.199   8.451  0.0536  0.4651 -0.2020
  605MOL0     C81607   5.988   8.259   8.549 -0.5324  0.5425  0.4731
  605MOL0     H81608   6.416   8.403   8.887 -0.8367 -0.7588 -0.6088
  605MOL0     H81609   6.604   8.569   8.901  0.3542  0.9941  0.2806
  605MOL0     H81610   6.635   8.784   8.722 -0.8547 -2.1380 -0.8670
  605MOL0     H81611   6.743   8.734   8.855  1.6695  0.7974 -0.5258
  605MOL0     H81612   6.820   8.943   8.751 -1.1305 -0.6233  0.8481
  605MOL0     H81613   6.929   8.817   8.783 -1.0337 -1.1773  0.4472
  605MOL0     H81614   6.917   8.758   8.524 -1.0094 -0.5006 -0.9041
  605MOL0     H81615   6.802   8.897   8.518 -1.1503 -1.6996  1.4779
  605MOL0     H81616   6.942   9.067   8.548  1.4638  0.5633 -2.7252
  605MOL0     H81617   7.073   8.961   8.603  0.2793  0.1595 -0.5001
  605MOL0     H81618   7.118   9.026   8.384  0.2441  0.3591 -5.3909
  605MOL0     H81619   7.070   8.862   8.365  1.0605  0.2624 -0.2264
  605MOL0     H81620   6.960   8.971   8.196 -0.7778  0.7583 -1.3334
  605MOL0     H81621   6.824   8.973   8.319 -1.2666  1.6835 -1.4683
  605MOL0     H81622   6.842   9.198   8.365 -1.3448 -4.0413  0.8495
  605MOL0     H81623   7.000   9.216   8.285 -1.4005  2.4004 -1.6650
  605MOL0     H81624   6.801   9.128   8.085 -1.1795 -0.3614  0.7325
  605MOL0     H81625   6.911   9.257   8.095  0.5163  0.0557  0.2392
  605MOL0     H81626   6.566   9.218   8.085 -0.3265  0.2576  2.7833
  605MOL0     H81627   6.394   9.567   8.152  0.0088 -0.3120  3.4372
  605MOL0     H81628   6.385   9.442   8.016  0.3137 -0.8615  0.7989
  605MOL0     H81629   6.371   9.282   8.241  1.1052 -0.2648  1.2870
  605MOL0     H81630   6.236   9.346   8.143  0.4733 -1.0873  0.2822
  605MOL0     H81631   6.352   9.472   8.404 -1.4533 -2.9089  2.5617
  605MOL0     H81632   6.218   9.373   8.399 -0.8576  0.6341 -0.6625
  605MOL0     H81633   6.089   9.498   8.254  3.4785 -3.5384 -1.9201
  605MOL0     H81634   6.205   9.622   8.236  2.7961 -4.9202 -3.5422
  605MOL0     H81635   6.384   9.704   8.366 -1.0199 -0.7406 -0.7308
  605MOL0     H81636   6.573   9.838   8.404  1.3548  2.1258 -2.2041
  605MOL0     H81637   6.510  10.006   8.378 -2.5878  0.2504  0.6490
  605MOL0     H81638   6.588   9.968   8.529  0.8906  1.9671 -1.3578
  605MOL0     H81639   6.295  10.358   8.709 -1.2334 -0.0752  0.0568
  605MOL0     H81640   6.431  10.538   8.858 -1.6335 -0.2783 -0.2967
  605MOL0     H81641   6.415  10.666   9.049  0.4475  3.0017  0.2310
  605MOL0     H81642   6.503  10.658   9.195  1.3725 -1.0412  0.5746
  605MOL0     H81643   6.663  10.587   8.955  0.6828 -1.0216  1.2729
  605MOL0     H81644   6.623  10.756   8.953  0.6730  0.2062 -0.3891
  605MOL0     H81645   6.832  10.715   9.071  2.0882 -0.2184  2.9567
  605MOL0     H81646   6.763  10.630   9.201  0.8646 -1.3133 -1.4618
  605MOL0     H81647   6.690  10.921   9.113  0.1977 -0.5790 -0.3093
  605MOL0     H81648   6.629  10.850   9.255  1.5853 -1.9321  2.7603
  605MOL0     H81649   6.924  10.866   9.260 -0.6981 -1.2288  1.7397
  605MOL0     H81650   6.792  10.893   9.375  3.6704  1.0664  0.8196
  605MOL0     H81651   6.721  11.095   9.275  0.7577  3.5908  0.2450
  605MOL0     H81652   6.871  11.100   9.358 -2.1387  0.5439  1.9695
  605MOL0     H81653   6.828  11.077   9.047  0.7211  2.4394 -1.3415
  605MOL0     H81654   6.988  11.059   9.134  1.5072  0.7530  0.6016
  605MOL0     H81655   6.821  11.310   9.166  0.3715 -1.8276  3.7253
  605MOL0     H81656   6.929  11.295   9.022 -1.6051  5.4125  1.3732
  605MOL0     H81657   6.492  10.226   9.143 -0.3814  0.6132 -0.1714
  605MOL0     H81658   6.372  10.072   9.018 -1.1786  0.4929  0.9939
  605MOL0     H81659   6.102   9.962   8.685  3.3687  4.7712  0.2160
  605MOL0     H81660   6.031   9.747   8.601 -0.3200  0.9979  1.5850
  605MOL0     H81661   6.658   8.524   8.482  0.7851 -2.8272 -1.3362
  605MOL0     H81662   6.479   8.339   8.470 -0.9963 -0.0892 -1.7968
  605MOL0     H81663   6.287   8.170   8.454 -0.4768  3.8847  0.7835
  605MOL0     H81664   6.167   8.070   8.280 -1.9925 -0.2486 -2.3100
  605MOL0     H81665   5.698   8.035   8.150 -2.6734  2.5897 -1.4006
  605MOL0     H81666   5.685   8.087   8.310 -1.7195 -1.9427 -0.3387
  605MOL0     H81667   5.786   8.264   8.071  3.3683 -3.3477  1.4389
  605MOL0     H81668   5.787   8.327   8.233  0.3943 -0.0313  1.0338
  605MOL0     H81669   5.554   8.296   8.255  0.6547 -0.7106 -1.0175
  605MOL0     H81670   5.528   8.213   8.104 -0.1029 -0.6643  0.1703
  605MOL0     H81671   5.631   8.512   8.150  0.4986 -0.1182 -0.6142
  605MOL0     H81672   5.465   8.468   8.098 -0.2079  2.2648 -0.4154
  605MOL0     H81673   5.679   8.473   7.737  0.2612 -1.1434  0.3950
  605MOL0     H81674   5.804   8.207   8.474 -0.6834 -3.1400 -1.7262
  605MOL0     H81675   5.927   8.320   8.615 -0.8353 -1.1107  1.7670
  606MOL0     O81676   7.383   9.853   5.424 -0.3762  1.2546  0.7318
  606MOL0     C81677   7.371   9.887   5.542 -0.8930 -0.5099  0.5541
  606MOL0     O81678   7.333  10.009   5.576 -0.8212 -0.4379  0.1095
  606MOL0     C81679   7.265  10.095   5.496 -0.4584  0.5989  0.8533
  606MOL0     C81680   7.313  10.224   5.477 -0.5885  0.4575  0.1102
  606MOL0     C81681   7.250  10.307   5.379  0.3359  0.0866  0.3243
  606MOL0     C81682   7.142  10.259   5.296 -0.4162  0.1748 -0.6762
  606MOL0     O81683   7.072  10.338   5.202 -1.6263  0.3467 -0.3785
  606MOL0     C81684   7.113  10.476   5.178  0.0184 -0.3154  0.1786
  606MOL0     C81685   7.064  10.524   5.039 -0.0799  0.4205  0.1178
  606MOL0     C81686   6.917  10.504   4.999 -0.1549  0.2442 -0.9547
  606MOL0     C81687   6.881  10.575   4.867  0.3078 -0.0672 -0.4894
  606MOL0     C81688   6.726  10.577   4.839  0.3774 -1.2706 -0.2873
  606MOL0     C81689   6.657  10.455   4.782  0.6963 -0.3480  0.4096
  606MOL0     C81690   6.509  10.490   4.772  0.8796 -0.8049 -0.0184
  606MOL0     C81691   6.437  10.394   4.671  0.2277 -0.4652 -0.1237
  606MOL0     N81692   6.291  10.377   4.693  0.6547  0.8592 -0.1787
  606MOL0     C81693   6.210  10.442   4.785  0.8295  0.7990 -0.2360
  606MOL0     C81694   6.081  10.412   4.748  1.0997 -0.2322 -0.2320
  606MOL0     C81695   5.962  10.480   4.799  0.5743 -0.1395  0.2954
  606MOL0     C81696   5.912  10.410   4.925  0.6864 -0.0593  0.1831
  606MOL0     C81697   5.832  10.501   5.016  0.1811  1.0157 -1.3233
  606MOL0     C81698   5.800  10.437   5.151 -0.5155  0.0557 -0.5455
  606MOL0     O81699   5.680  10.367   5.130 -0.1424  0.1300 -0.1737
  606MOL0     C81700   5.648  10.281   5.228 -0.1258 -0.0925  0.1304
  606MOL0     C81701   5.547  10.184   5.206  0.0825 -0.1516  0.6464
  606MOL0     C81702   5.532  10.074   5.290  1.2315 -0.8056  0.1084
  606MOL0     C81703   5.388  10.010   5.273  0.3454  0.8215 -0.6610
  606MOL0     C81704   5.620  10.052   5.400 -0.0198  0.8338  0.1177
  606MOL0     C81705   5.609   9.936   5.492 -0.4197  0.5521  0.9655
  606MOL0     O81706   5.708   9.937   5.582  0.5583  0.6497  0.0106
  606MOL0     C81707   5.694   9.863   5.692 -0.3270  0.1575  0.3717
  606MOL0     C81708   5.678   9.722   5.689  0.3962 -0.5312 -1.3201
  606MOL0     C81709   5.664   9.657   5.815  0.5928  0.6210 -0.8085
  606MOL0     C81710   5.647   9.737   5.936  0.7021  0.0226  0.1159
  606MOL0     O81711   5.623   9.668   6.055 -0.3775 -0.2579  0.7389
  606MOL0     C81712   5.593   9.729   6.183 -1.0751  0.0876  0.9822
  606MOL0     C81713   5.606   9.621   6.286 -0.4409 -0.6314 -0.5991
  606MOL0     C81714   5.734   9.636   6.373  1.0621 -0.5219  0.2219
  606MOL0     C81715   5.764   9.508   6.460  0.2068 -0.1103  0.2852
  606MOL0     C81716   5.889   9.529   6.538 -0.4130 -0.0115  0.0661
  606MOL0     C81717   5.873   9.576   6.682 -0.2069 -0.4045 -0.2874
  606MOL0     C81718   5.978   9.682   6.715 -0.3803 -0.3265 -0.1786
  606MOL0     C81719   5.953   9.743   6.858  0.6071  0.3460  0.2797
  606MOL0    Cl81720   5.812   9.859   6.861  0.3737 -0.0600 -0.6296
  606MOL0     C81721   5.669   9.869   5.937 -0.7060  0.0865  1.1673
  606MOL0     C81722   5.696   9.933   5.824  0.9826  0.8416  0.7826
  606MOL0     O81723   5.525   9.851   5.474  0.5473  0.3663  0.1992
  606MOL0     C81724   5.699  10.159   5.431  0.3125 -0.2172 -0.6953
  606MOL0     C81725   5.704  10.277   5.352 -0.1257  0.7868 -0.3627
  606MOL0     N81726   6.086  10.323   4.647 -0.0642 -0.2195 -0.2411
  606MOL0     N81727   6.209  10.306   4.609  0.2916 -1.2135 -0.1789
  606MOL0     C81728   7.086  10.139   5.325  0.2865  0.3602 -0.1062
  606MOL0     C81729   7.153  10.058   5.424 -0.3091  0.5481  0.3050
  606MOL0     C81730   7.436   9.808   5.647  0.8959  0.6464  1.0266
  606MOL0     C81731   7.529   9.703   5.623  0.2229 -0.0877 -0.0996
  606MOL0     C81732   7.600   9.629   5.728 -0.1076  1.1738  0.2267
  606MOL0     C81733   7.564   9.668   5.860  0.1268 -0.4344  0.3982
  606MOL0     O81734   7.641   9.610   5.962  0.3337  0.8406  0.0511
  606MOL0     C81735   7.585   9.616   6.100 -0.1837  0.0129  0.1675
  606MOL0     C81736   7.597   9.476   6.173 -0.3002  0.2972 -0.0977
  606MOL0     C81737   7.726   9.458   6.249  0.7901  0.3925 -0.9700
  606MOL0     C81738   7.748   9.554   6.365 -0.2201  0.3847 -0.1104
  606MOL0     C81739   7.680   9.514   6.485  0.4505  0.8017  0.5214
  606MOL0     C81740   7.605   9.475   6.573 -0.5871  0.3022 -0.7300
  606MOL0     C81741   7.466   9.766   5.883  0.0892  1.5346  0.8046
  606MOL0     C81742   7.414   9.838   5.777  0.6060  0.3947 -0.0539
  606MOL0     H81743   7.405  10.253   5.526 -1.3784  1.6544  0.9338
  606MOL0     H81744   7.297  10.404   5.362  0.6065  0.5652  3.2667
  606MOL0     H81745   7.075  10.544   5.255 -0.0372 -0.6511  0.4492
  606MOL0     H81746   7.220  10.497   5.188 -0.4728  1.3124  3.1383
  606MOL0     H81747   7.079  10.630   5.059 -1.0681  0.7860 -0.9563
  606MOL0     H81748   7.136  10.479   4.970  3.2946  3.0735  1.6123
  606MOL0     H81749   6.894  10.398   4.992 -2.5386  0.6264  0.1138
  606MOL0     H81750   6.856  10.554   5.075  0.3159  0.5228 -0.7558
  606MOL0     H81751   6.911  10.679   4.881  2.5183 -0.8312  1.0451
  606MOL0     H81752   6.932  10.520   4.788  1.1303 -2.8032  1.7565
  606MOL0     H81753   6.665  10.617   4.920  1.9421 -2.5357  1.6293
  606MOL0     H81754   6.724  10.652   4.760  0.9712 -0.5404  0.3721
  606MOL0     H81755   6.684  10.424   4.681 -0.2860 -1.5013  0.4762
  606MOL0     H81756   6.674  10.372   4.851  0.7211  0.1597  1.0318
  606MOL0     H81757   6.474  10.511   4.873  1.7854 -0.9581  0.3367
  606MOL0     H81758   6.494  10.585   4.720 -2.0271 -2.2584 -2.1271
  606MOL0     H81759   6.484  10.296   4.691 -0.4090 -0.6331  0.5723
  606MOL0     H81760   6.465  10.438   4.575 -0.0665  0.5890  0.2595
  606MOL0     H81761   6.245  10.499   4.870 -1.2695  1.0549  0.4857
  606MOL0     H81762   5.977  10.588   4.811 -1.1711  0.2493 -0.7354
  606MOL0     H81763   5.882  10.487   4.725  1.2673  2.6069 -0.3161
  606MOL0     H81764   5.999  10.363   4.972 -0.7458 -0.2544  2.7826
  606MOL0     H81765   5.853  10.322   4.902  1.6681 -0.7591  0.2852
  606MOL0     H81766   5.745  10.543   4.966  0.2074  1.0886 -1.3088
  606MOL0     H81767   5.894  10.587   5.044  1.6427  0.3688 -2.4217
  606MOL0     H81768   5.784  10.515   5.226 -1.2728 -0.9087  0.3180
  606MOL0     H81769   5.880  10.377   5.194  0.3011  1.2109 -0.3967
  606MOL0     H81770   5.476  10.199   5.125 -0.8994  0.4036  1.5934
  606MOL0     H81771   5.377   9.906   5.305  2.2001  0.5195 -0.8958
  606MOL0     H81772   5.311  10.055   5.338  1.3667 -2.7704  3.5044
  606MOL0     H81773   5.353  10.016   5.170  0.4108 -1.8356 -0.8949
  606MOL0     H81774   5.674   9.670   5.593 -0.2658  1.0928 -2.2131
  606MOL0     H81775   5.653   9.550   5.832 -0.9760  0.4668 -2.4689
  606MOL0     H81776   5.642   9.818   6.223 -0.4498 -0.0497  0.5353
  606MOL0     H81777   5.488   9.755   6.166 -0.5712  0.1033 -2.9045
  606MOL0     H81778   5.512   9.615   6.342 -0.5422  2.9471 -0.1168
  606MOL0     H81779   5.607   9.522   6.241  2.0980 -0.0950 -1.8730
  606MOL0     H81780   5.717   9.722   6.439 -0.2896 -0.0570 -0.6987
  606MOL0     H81781   5.822   9.658   6.312  0.7822  3.7311  1.0318
  606MOL0     H81782   5.682   9.484   6.528  1.7860 -1.9074  1.6950
  606MOL0     H81783   5.786   9.422   6.396 -1.0367  0.0492 -0.3918
  606MOL0     H81784   5.954   9.602   6.488 -0.3462  1.5561  2.2538
  606MOL0     H81785   5.946   9.437   6.554 -1.4502 -0.3020  2.6084
  606MOL0     H81786   5.776   9.625   6.698  0.6056  1.3319 -0.4808
  606MOL0     H81787   5.894   9.488   6.744  1.5352  0.3632  0.2830
  606MOL0     H81788   5.979   9.770   6.651  1.1508 -0.7221 -0.7602
  606MOL0     H81789   6.081   9.644   6.710 -0.2253  0.0147  0.3741
  606MOL0     H81790   6.039   9.797   6.898 -1.2822  1.3755  3.2445
  606MOL0     H81791   5.935   9.662   6.929  0.5834 -0.4352 -0.5829
  606MOL0     H81792   5.687   9.908   6.037  3.0903 -1.0648  1.0781
  606MOL0     H81793   5.721  10.038   5.836 -1.4178  1.1679  4.5726
  606MOL0     H81794   5.755  10.153   5.524  4.1678  0.9428 -2.7106
  606MOL0     H81795   5.762  10.361   5.387 -1.0073  0.7511  1.2757
  606MOL0     H81796   7.005  10.099   5.264  1.1630 -0.7391 -0.5886
  606MOL0     H81797   7.125   9.953   5.422  1.2303  0.0780  1.5034
  606MOL0     H81798   7.553   9.682   5.520 -1.4904 -1.8936 -0.1881
  606MOL0     H81799   7.665   9.544   5.709 -0.5140  0.8058  0.4755
  606MOL0     H81800   7.641   9.690   6.158 -0.1039  1.6721 -1.8873
  606MOL0     H81801   7.477   9.637   6.097 -0.4820 -0.6249  3.1412
  606MOL0     H81802   7.594   9.394   6.100  1.0333 -0.9132  1.1453
  606MOL0     H81803   7.509   9.466   6.238 -0.0451  0.9186  0.3587
  606MOL0     H81804   7.812   9.481   6.185 -0.1038  0.5772 -2.1158
  606MOL0     H81805   7.735   9.353   6.278 -1.4514  0.0475 -1.3667
  606MOL0     H81806   7.716   9.656   6.341 -1.1712  0.4313  1.2285
  606MOL0     H81807   7.856   9.551   6.385  0.2117  0.1106 -2.2600
  606MOL0     H81808   7.539   9.440   6.649 -1.4103 -0.0453 -1.5757
  606MOL0     H81809   7.444   9.793   5.985 -1.2097 -3.5854  2.1791
  606MOL0     H81810   7.370   9.935   5.798  2.7836  1.5848 -0.7414
  607MOL0     O81811   6.096   6.578   0.777 -0.0796 -0.5434  0.3934
  607MOL0     C81812   6.062   6.465   0.762  0.7344  0.1386 -0.6490
  607MOL0     O81813   6.055   6.394   0.639  0.0020 -0.1454  1.0226
  607MOL0     C81814   6.087   6.466   0.530  0.5858 -0.4676 -0.0527
  607MOL0     C81815   6.000   6.445   0.419 -0.7060 -0.0597  0.2577
  607MOL0     C81816   6.033   6.498   0.289  0.6159  0.3874 -0.6045
  607MOL0     C81817   6.147   6.580   0.280  0.2486 -0.1717 -0.4570
  607MOL0     O81818   6.187   6.656   0.170  0.8329  1.1564 -0.5138
  607MOL0     C81819   6.077   6.727   0.111 -0.0262 -0.1985 -0.1779
  607MOL0     C81820   6.120   6.816   0.001  0.1171 -0.0558 -0.1676
  607MOL0     C81821   6.168   6.948   0.052  0.0564 -0.5668  0.5790
  607MOL0     C81822   6.313   6.986   0.000 -0.5930  0.6575 -0.5090
  607MOL0     C81823   6.359   7.121   0.037  0.4450 -0.4879  0.4038
  607MOL0     C81824   6.504   7.153  -0.006  0.1328 -0.1940 -0.6189
  607MOL0     C81825   6.533   7.297   0.023  0.0148  0.1845  0.0633
  607MOL0     C81826   6.674   7.341  -0.006 -0.1893  0.2104 -0.7319
  607MOL0     N81827   6.775   7.265   0.074  0.0348 -0.0657 -0.5260
  607MOL0     C81828   6.802   7.295   0.204  0.7316 -0.0329  0.5378
  607MOL0     C81829   6.914   7.235   0.230 -0.3874  0.7749 -1.2852
  607MOL0     C81830   6.979   7.232   0.368  0.9948 -0.6823  0.1994
  607MOL0     C81831   6.935   7.126   0.467 -0.8986 -0.3196  0.2576
  607MOL0     C81832   6.998   7.149   0.604 -0.6754 -0.5575  1.4825
  607MOL0     C81833   6.946   7.051   0.709  0.3536 -0.2841  0.5556
  607MOL0     O81834   6.957   7.116   0.837 -0.2250  0.2719 -0.6315
  607MOL0     C81835   7.090   7.122   0.894  0.1376  0.3340  0.0932
  607MOL0     C81836   7.124   7.241   0.959 -0.0179 -0.2553 -0.1808
  607MOL0     C81837   7.256   7.264   1.008  0.0474 -0.1831 -0.3489
  607MOL0     C81838   7.271   7.407   1.074 -0.1047 -0.4318 -0.2955
  607MOL0     C81839   7.352   7.160   1.008 -1.1899 -0.5998  0.2386
  607MOL0     C81840   7.486   7.182   1.071  0.2782  0.3712  0.5360
  607MOL0     O81841   7.566   7.072   1.059  0.5847 -0.5549  0.4622
  607MOL0     C81842   7.691   7.074   1.126 -0.0355 -0.9468 -0.2737
  607MOL0     C81843   7.705   7.009   1.245  0.6501 -0.3695  0.1104
  607MOL0     C81844   7.824   7.016   1.312 -0.4933  0.0009 -0.7539
  607MOL0     C81845   7.940   7.060   1.253 -0.3485 -0.4471 -0.1852
  607MOL0     O81846   8.057   7.034   1.326  0.1929 -0.1654  0.1709
  607MOL0     C81847   8.168   7.131   1.323  0.1806  0.3089 -0.3142
  607MOL0     C81848   8.257   7.091   1.444 -0.4341  0.1279 -0.3414
  607MOL0     C81849   8.391   7.163   1.454 -0.5969  0.0186 -0.9622
  607MOL0     C81850   8.460   7.126   1.583 -1.1529 -0.4952  0.3832
  607MOL0     C81851   8.606   7.188   1.595  0.5296  0.4360  0.7165
  607MOL0     C81852   8.615   7.333   1.654 -0.4393  0.2682 -0.3794
  607MOL0     C81853   8.590   7.342   1.802 -0.5446 -0.0943  0.5386
  607MOL0     C81854   8.623   7.473   1.859 -0.0173  0.1127  0.2536
  607MOL0    Cl81855   8.490   7.589   1.844 -0.0389 -0.4693  0.3043
  607MOL0     C81856   7.938   7.109   1.123  0.6699  0.1399 -0.1499
  607MOL0     C81857   7.809   7.116   1.064 -0.2585 -0.1267  0.5005
  607MOL0     O81858   7.524   7.275   1.129  0.6841 -0.5061 -0.6500
  607MOL0     C81859   7.315   7.054   0.923  1.0036  0.1444 -0.1583
  607MOL0     C81860   7.189   7.032   0.868  0.4047 -0.8624 -0.5592
  607MOL0     N81861   6.958   7.169   0.124  0.1123  1.0639  0.8235
  607MOL0     N81862   6.877   7.199   0.027  0.3076  0.5728 -0.1675
  607MOL0     C81863   6.230   6.605   0.391  0.5303 -0.1789  1.3403
  607MOL0     C81864   6.189   6.553   0.514  0.5560 -0.7410 -0.4442
  607MOL0     C81865   6.077   6.379   0.876  0.1281 -0.8942 -1.6185
  607MOL0     C81866   6.061   6.247   0.861 -0.2379  0.2441  1.0175
  607MOL0     C81867   6.068   6.153   0.970  0.1894 -0.0089  0.6864
  607MOL0     C81868   6.088   6.196   1.090 -0.0200  0.3785 -1.1671
  607MOL0     O81869   6.069   6.107   1.192 -0.2325  0.1386 -1.0307
  607MOL0     C81870   6.080   6.160   1.318  0.3758 -0.1104 -0.5435
  607MOL0     C81871   6.028   6.073   1.433  0.7657  0.1500 -0.1797
  607MOL0     C81872   6.104   5.950   1.465 -0.0714  0.8604  0.7462
  607MOL0     C81873   6.131   5.856   1.345  0.3926 -0.4133  0.2344
  607MOL0     C81874   6.114   5.718   1.401  0.4850  1.3922  0.4863
  607MOL0     C81875   6.091   5.614   1.460 -0.1303 -0.6503  0.6397
  607MOL0     C81876   6.115   6.333   1.114 -0.6256  0.0968  0.2988
  607MOL0     C81877   6.109   6.420   1.004 -0.6075 -0.1489  0.1971
  607MOL0     H81878   5.911   6.390   0.448 -1.8828  1.8598  0.4819
  607MOL0     H81879   5.970   6.487   0.201  1.6868  0.1170 -1.3511
  607MOL0     H81880   6.004   6.657   0.069 -0.8854 -0.8541  2.2163
  607MOL0     H81881   6.023   6.774   0.195 -0.3694 -1.5627  0.3966
  607MOL0     H81882   6.196   6.759  -0.053 -0.0099 -0.3791 -0.0040
  607MOL0     H81883   6.041   6.827  -0.074  0.9542 -1.0018 -1.2139
  607MOL0     H81884   6.093   7.020   0.019 -0.3625 -1.6604 -0.9734
  607MOL0     H81885   6.173   6.951   0.162 -3.3633  1.9395  0.8235
  607MOL0     H81886   6.370   6.911   0.055  0.6333  1.6355 -0.4051
  607MOL0     H81887   6.312   6.973  -0.108  1.9458  0.7906 -0.6031
  607MOL0     H81888   6.295   7.190  -0.018  2.1724  0.0256 -1.0845
  607MOL0     H81889   6.330   7.150   0.138 -4.3835  0.6441 -1.0413
  607MOL0     H81890   6.573   7.089   0.050  1.5856  1.1880 -0.7864
  607MOL0     H81891   6.521   7.136  -0.112  2.3069 -2.0392 -0.0459
  607MOL0     H81892   6.469   7.364  -0.036 -3.0862 -2.0888  0.5845
  607MOL0     H81893   6.504   7.319   0.127 -2.6787  1.2278 -0.8094
  607MOL0     H81894   6.689   7.449  -0.000  3.2404  0.0016 -2.8176
  607MOL0     H81895   6.686   7.312  -0.111 -0.6309  1.1290 -1.0428
  607MOL0     H81896   6.730   7.322   0.280 -0.5045 -1.9660  0.1309
  607MOL0     H81897   7.088   7.216   0.367  1.0509 -0.4649 -1.7340
  607MOL0     H81898   6.958   7.328   0.416 -1.6373 -3.0076  4.3224
  607MOL0     H81899   6.978   7.033   0.428  0.4214  0.0004  0.8909
  607MOL0     H81900   6.827   7.123   0.480 -0.7226 -0.8319  1.8076
  607MOL0     H81901   6.972   7.247   0.644 -0.3067 -0.7695  2.2460
  607MOL0     H81902   7.107   7.149   0.603 -0.6576  0.6942  0.6406
  607MOL0     H81903   6.997   6.955   0.694 -1.1167 -0.7945 -1.6732
  607MOL0     H81904   6.839   7.042   0.687  0.7640  0.9059 -2.4453
  607MOL0     H81905   7.043   7.311   0.976  0.5642  0.4850 -0.4060
  607MOL0     H81906   7.366   7.459   1.061 -1.2337  1.4069 -1.7306
  607MOL0     H81907   7.194   7.481   1.050 -1.6065 -1.1361  1.9863
  607MOL0     H81908   7.266   7.384   1.181 -0.5745 -1.9707 -0.6233
  607MOL0     H81909   7.614   6.980   1.297  1.2135 -0.8492  0.8472
  607MOL0     H81910   7.829   6.977   1.413 -3.3804 -2.5975 -1.4875
  607MOL0     H81911   8.224   7.115   1.230 -2.6423  1.4566 -2.3718
  607MOL0     H81912   8.127   7.232   1.325 -0.9118 -0.1213  1.4303
  607MOL0     H81913   8.207   7.110   1.540  0.5180 -1.1717  0.4425
  607MOL0     H81914   8.271   6.983   1.439  3.7175  0.5897 -2.1767
  607MOL0     H81915   8.379   7.271   1.465  0.9847  0.0613  0.9037
  607MOL0     H81916   8.437   7.133   1.360 -2.4836  0.6935 -2.1531
  607MOL0     H81917   8.404   7.166   1.668 -1.3392 -2.5304  1.2854
  607MOL0     H81918   8.473   7.017   1.586 -0.1067 -0.4408 -1.0686
  607MOL0     H81919   8.651   7.183   1.495  0.9436  0.0218  0.9229
  607MOL0     H81920   8.668   7.130   1.663  1.6617  0.2784 -0.4265
  607MOL0     H81921   8.718   7.369   1.642 -0.6371  0.9645 -0.0563
  607MOL0     H81922   8.541   7.395   1.602 -2.2170 -0.1653  1.5008
  607MOL0     H81923   8.660   7.273   1.851 -0.5365  1.0095  2.1642
  607MOL0     H81924   8.483   7.328   1.823 -0.3640 -2.1428  0.3569
  607MOL0     H81925   8.714   7.515   1.816 -2.2643  0.8019 -4.4054
  607MOL0     H81926   8.629   7.444   1.965 -2.0744  1.1556  0.7099
  607MOL0     H81927   8.031   7.135   1.074  1.4294 -0.5821  0.8636
  607MOL0     H81928   7.808   7.160   0.964 -2.0329 -1.1411  0.0298
  607MOL0     H81929   7.386   6.972   0.922 -0.7498 -1.5259  2.0480
  607MOL0     H81930   7.162   6.943   0.811  1.1975 -1.6252  0.2190
  607MOL0     H81931   6.325   6.656   0.374  0.8259 -1.1390 -0.1044
  607MOL0     H81932   6.260   6.571   0.595  0.2129  1.2721 -0.5438
  607MOL0     H81933   6.050   6.196   0.765  1.5188 -3.1325  2.4450
  607MOL0     H81934   6.051   6.046   0.961  1.2944 -0.0947 -0.7340
  607MOL0     H81935   6.186   6.179   1.336 -0.1188  1.8332  0.6698
  607MOL0     H81936   6.025   6.253   1.337  3.0023  2.1496 -3.0870
  607MOL0     H81937   5.923   6.050   1.413  1.0995 -1.4246 -0.2511
  607MOL0     H81938   6.046   6.112   1.533 -2.6264 -2.3692  1.6238
  607MOL0     H81939   6.039   5.899   1.537  1.7946 -2.2459  0.4051
  607MOL0     H81940   6.201   5.970   1.512 -0.2162  0.8266  1.0621
  607MOL0     H81941   6.234   5.864   1.310  0.5548  1.0578  0.9966
  607MOL0     H81942   6.072   5.875   1.255  0.1715  1.3047  0.7149
  607MOL0     H81943   6.083   5.523   1.516 -2.3220  0.3985  2.2101
  607MOL0     H81944   6.139   6.385   1.206  0.2149  1.6931 -0.7569
  607MOL0     H81945   6.119   6.526   1.023 -1.8923  0.5604 -2.4957
  608MOL0     O81946   1.997   1.951   8.884 -0.4261  0.5061 -0.7748
  608MOL0     C81947   1.920   2.049   8.894  0.1200  0.5097 -0.3550
  608MOL0     O81948   1.874   2.130   8.791 -0.4790 -0.5865  0.6977
  608MOL0     C81949   1.922   2.116   8.662 -0.1010  0.1073 -0.0536
  608MOL0     C81950   2.059   2.082   8.639  0.7678  0.0385 -0.7934
  608MOL0     C81951   2.114   2.109   8.516  0.6727 -0.9491  0.6962
  608MOL0     C81952   2.042   2.180   8.423 -0.4857  0.2461 -1.0825
  608MOL0     O81953   2.127   2.222   8.313 -0.2891  0.0372  0.4342
  608MOL0     C81954   2.057   2.301   8.211 -0.3527  0.5045 -0.8088
  608MOL0     C81955   2.151   2.383   8.127  0.2878 -0.3081 -0.2990
  608MOL0     C81956   2.120   2.396   7.970 -0.0075 -0.6718 -0.3186
  608MOL0     C81957   2.130   2.543   7.919 -0.3727  0.3423 -0.6535
  608MOL0     C81958   2.095   2.568   7.770 -0.0804 -0.0993  0.1702
  608MOL0     C81959   1.949   2.516   7.736  0.3603 -0.2594 -0.4967
  608MOL0     C81960   1.886   2.588   7.623  1.0118 -0.1436 -0.3675
  608MOL0     C81961   1.751   2.510   7.581  0.8345  0.7046  0.3324
  608MOL0     N81962   1.673   2.588   7.492 -0.7164  0.3931  0.0106
  608MOL0     C81963   1.586   2.684   7.531  0.1947  0.1175 -0.3554
  608MOL0     C81964   1.550   2.757   7.420  0.8990  0.0495 -0.6504
  608MOL0     C81965   1.446   2.864   7.389 -0.6475  0.1056 -0.3749
  608MOL0     C81966   1.377   2.828   7.256  0.4786  0.5446  0.4360
  608MOL0     C81967   1.292   2.938   7.196 -1.1186 -0.0878 -0.1555
  608MOL0     C81968   1.180   2.987   7.283  0.4493 -0.0871 -0.8373
  608MOL0     O81969   1.078   2.881   7.281  0.4425 -0.1433 -0.5647
  608MOL0     C81970   0.947   2.903   7.317 -0.1061 -0.1105  0.6460
  608MOL0     C81971   0.891   3.028   7.351 -0.3046  0.0877 -0.1989
  608MOL0     C81972   0.759   3.038   7.392  0.4018 -0.5889  0.1130
  608MOL0     C81973   0.711   3.177   7.427 -1.2870  0.2723  0.3045
  608MOL0     C81974   0.678   2.923   7.380 -0.2910  0.6426 -0.3394
  608MOL0     C81975   0.534   2.934   7.410  0.5788  1.1950  0.1072
  608MOL0     O81976   0.450   2.858   7.328  0.2952  0.0524 -0.0609
  608MOL0     C81977   0.337   2.821   7.388 -0.2816  0.0738  0.4089
  608MOL0     C81978   0.222   2.890   7.344  0.2373 -1.0079  0.2081
  608MOL0     C81979   0.096   2.854   7.398 -0.4945 -0.0981 -0.1215
  608MOL0     C81980   0.074   2.744   7.478  0.9391  0.2539 -1.5048
  608MOL0     O81981  -0.043   2.705   7.544  0.5858 -0.2438 -0.3336
  608MOL0     C81982  -0.166   2.777   7.514 -0.7192 -0.0043  1.0460
  608MOL0     C81983  -0.271   2.717   7.598  0.6974  0.6951  0.5725
  608MOL0     C81984  -0.406   2.750   7.543  0.2470 -0.6145  0.1551
  608MOL0     C81985  -0.515   2.636   7.580  0.7484 -0.6033 -0.7218
  608MOL0     C81986  -0.653   2.686   7.615  0.0541  0.0545  0.3144
  608MOL0     C81987  -0.728   2.735   7.494 -0.2218  0.0392 -0.6541
  608MOL0     C81988  -0.865   2.767   7.529 -0.1281 -0.7912  0.1827
  608MOL0     C81989  -0.959   2.771   7.406 -0.9162  0.4783 -0.2525
  608MOL0    Cl81990  -1.118   2.845   7.455 -0.1754  0.6764  0.8235
  608MOL0     C81991   0.188   2.671   7.509  0.9592 -0.3205 -0.5639
  608MOL0     C81992   0.318   2.702   7.465 -0.5878 -0.0036 -0.5100
  608MOL0     O81993   0.492   2.993   7.514  0.6889 -0.3146 -0.3614
  608MOL0     C81994   0.724   2.798   7.335  0.5816 -0.1686 -0.0417
  608MOL0     C81995   0.861   2.793   7.299  0.3309 -0.2408  0.3105
  608MOL0     N81996   1.639   2.714   7.325 -0.6964  0.3992 -1.0406
  608MOL0     N81997   1.708   2.617   7.361 -0.4352  0.0291 -0.5282
  608MOL0     C81998   1.907   2.200   8.439  0.1042  0.1159  1.1221
  608MOL0     C81999   1.839   2.162   8.562 -0.9908  0.6616 -0.8830
  608MOL0     C82000   1.877   2.094   9.031 -0.3416 -0.7930  0.3347
  608MOL0     C82001   1.900   2.002   9.144  0.2139 -1.2733  0.4484
  608MOL0     C82002   1.855   2.033   9.283 -0.0221 -0.1619 -0.5463
  608MOL0     C82003   1.765   2.144   9.290 -0.7753 -0.6866 -0.1925
  608MOL0     O82004   1.696   2.188   9.402  0.0414  0.4737  0.1947
  608MOL0     C82005   1.711   2.109   9.522 -0.4122  0.0353  1.3939
  608MOL0     C82006   1.663   2.178   9.637  0.2410  0.4088  0.8051
  608MOL0     C82007   1.710   2.131   9.784  0.2772 -1.0039 -0.3714
  608MOL0     C82008   1.855   2.159   9.816  0.2357 -0.2841  0.0361
  608MOL0     C82009   1.892   2.301   9.792  0.4163 -0.4616  0.0246
  608MOL0     C82010   1.922   2.420   9.802 -0.0734 -0.6139  0.1252
  608MOL0     C82011   1.733   2.222   9.179 -0.0949  0.4919  0.0663
  608MOL0     C82012   1.785   2.194   9.051 -0.7771 -0.6866 -0.9879
  608MOL0     H82013   2.118   2.031   8.714  0.0035 -0.8031 -0.7449
  608MOL0     H82014   2.220   2.090   8.510  0.7933 -0.0951 -0.0442
  608MOL0     H82015   2.013   2.225   8.146 -0.4028 -0.9695  0.8415
  608MOL0     H82016   1.987   2.373   8.252 -0.8590 -1.6923  2.6406
  608MOL0     H82017   2.155   2.485   8.167  0.8777 -1.0387  1.5908
  608MOL0     H82018   2.250   2.336   8.136 -0.5326 -2.2281 -0.8140
  608MOL0     H82019   2.186   2.331   7.911  1.5267 -0.4623  1.1026
  608MOL0     H82020   2.013   2.381   7.955 -0.7465  1.6779  1.9609
  608MOL0     H82021   2.080   2.603   7.995  1.4213  1.6579 -0.4531
  608MOL0     H82022   2.233   2.573   7.939 -0.7773  0.5676  1.3239
  608MOL0     H82023   2.104   2.674   7.747  3.5060  0.4385  3.2219
  608MOL0     H82024   2.174   2.521   7.710 -1.2280 -1.2292 -0.5130
  608MOL0     H82025   1.969   2.409   7.722 -1.1698 -1.0312  2.3693
  608MOL0     H82026   1.884   2.527   7.823  0.1459  1.0932 -0.8075
  608MOL0     H82027   1.854   2.684   7.664 -1.7800 -1.9894  2.3002
  608MOL0     H82028   1.961   2.609   7.547  1.3314  0.2180  0.0403
  608MOL0     H82029   1.682   2.477   7.659 -0.0665  0.2549 -0.6253
  608MOL0     H82030   1.770   2.414   7.531 -3.0470  0.3007 -0.6745
  608MOL0     H82031   1.555   2.707   7.633  0.4364 -0.7428 -0.0783
  608MOL0     H82032   1.374   2.853   7.470  1.5738  1.0622  1.8580
  608MOL0     H82033   1.496   2.962   7.390  0.4858 -0.4523 -0.0448
  608MOL0     H82034   1.319   2.736   7.269 -1.1764  1.5574  0.5891
  608MOL0     H82035   1.454   2.799   7.184  2.2578  0.2594  2.3581
  608MOL0     H82036   1.254   2.907   7.098 -1.1136  2.0417 -0.8996
  608MOL0     H82037   1.359   3.021   7.170 -1.2748  0.0183 -0.2214
  608MOL0     H82038   1.131   3.077   7.245 -0.1046  1.0460  2.2835
  608MOL0     H82039   1.208   2.999   7.388 -0.5539  1.9970 -0.7751
  608MOL0     H82040   0.953   3.115   7.370  1.6026 -0.9009 -1.5828
  608MOL0     H82041   0.758   3.252   7.363 -0.5472 -1.8250 -1.7344
  608MOL0     H82042   0.607   3.197   7.399 -1.3124 -0.8197 -0.4637
  608MOL0     H82043   0.715   3.197   7.534  0.8215 -1.5988  0.6474
  608MOL0     H82044   0.227   2.969   7.270  0.7768  1.2720  2.5580
  608MOL0     H82045   0.005   2.907   7.370  0.3373 -0.2472 -3.5666
  608MOL0     H82046  -0.143   2.880   7.542  1.7647 -0.7010  1.8266
  608MOL0     H82047  -0.192   2.775   7.408  0.9179 -0.5036  0.6420
  608MOL0     H82048  -0.270   2.608   7.593 -1.1275  0.6083  1.3672
  608MOL0     H82049  -0.261   2.761   7.698 -1.2520  4.8340 -0.7956
  608MOL0     H82050  -0.412   2.757   7.434  4.0917 -1.0820 -0.2153
  608MOL0     H82051  -0.437   2.849   7.575  2.8167  0.4210 -0.3147
  608MOL0     H82052  -0.508   2.563   7.499  2.4144  0.0217 -1.1857
  608MOL0     H82053  -0.481   2.600   7.677  0.1303  2.4820  0.7451
  608MOL0     H82054  -0.657   2.763   7.693  1.3240 -2.3235  2.9213
  608MOL0     H82055  -0.714   2.608   7.663  0.2813 -1.0113 -1.0827
  608MOL0     H82056  -0.671   2.814   7.445  2.0502 -2.5815 -2.6071
  608MOL0     H82057  -0.720   2.655   7.419 -1.4091 -2.0196  1.2722
  608MOL0     H82058  -0.870   2.866   7.577  2.0581  0.5406 -2.0885
  608MOL0     H82059  -0.890   2.687   7.599  2.2708 -0.3210  1.6952
  608MOL0     H82060  -0.980   2.674   7.360  0.0964  0.4981 -0.7756
  608MOL0     H82061  -0.917   2.831   7.325  0.0608 -2.0490 -1.7401
  608MOL0     H82062   0.159   2.577   7.556 -0.1701 -0.1870 -0.9601
  608MOL0     H82063   0.397   2.634   7.497  0.2038  2.2033  2.6952
  608MOL0     H82064   0.669   2.705   7.328 -0.4653  0.5220 -1.4308
  608MOL0     H82065   0.899   2.703   7.250 -1.7007 -0.2608 -1.3892
  608MOL0     H82066   1.844   2.239   8.361  2.3616  0.0350 -0.8514
  608MOL0     H82067   1.740   2.194   8.594  0.0251  1.3710  1.8253
  608MOL0     H82068   1.947   1.907   9.123  1.7372 -0.3443 -0.5848
  608MOL0     H82069   1.873   1.967   9.367  1.7552 -1.4764 -1.8902
  608MOL0     H82070   1.671   2.010   9.500  1.8128 -0.4503 -1.0489
  608MOL0     H82071   1.817   2.096   9.545  0.6498  0.6404 -2.4181
  608MOL0     H82072   1.556   2.160   9.622  0.1875 -0.6718  2.3156
  608MOL0     H82073   1.686   2.284   9.622  1.6643 -0.2213 -2.0318
  608MOL0     H82074   1.674   2.030   9.809 -1.6284 -0.2190  0.2908
  608MOL0     H82075   1.662   2.189   9.864  3.3232  0.0236  0.8655
  608MOL0     H82076   1.904   2.083   9.753  1.1594 -1.7451  2.3821
  608MOL0     H82077   1.885   2.145   9.920 -0.3539  0.4553  0.3146
  608MOL0     H82078   1.928   2.526   9.789 -1.7852 -0.7609 -2.7759
  608MOL0     H82079   1.678   2.314   9.201 -2.3708 -1.0138  1.0439
  608MOL0     H82080   1.746   2.268   8.982 -1.0179  2.8598  2.5607
  609MOL0     O82081   9.700   2.321   5.413  0.5078 -0.2579  0.6684
  609MOL0     C82082   9.679   2.201   5.437  0.4653  0.4877  0.4781
  609MOL0     O82083   9.766   2.096   5.415 -0.1695  0.8530  0.1790
  609MOL0     C82084   9.854   2.094   5.314  0.5645 -0.9277 -0.0791
  609MOL0     C82085   9.949   1.999   5.326  0.7192 -0.0563  0.5883
  609MOL0     C82086  10.041   1.982   5.216 -0.3339  0.2192 -0.1250
  609MOL0     C82087  10.057   2.080   5.117 -0.5326  0.8210  0.5978
  609MOL0     O82088  10.170   2.073   5.039 -0.4799  0.0815  0.0917
  609MOL0     C82089  10.207   1.948   4.982 -0.2248  0.3298  0.7171
  609MOL0     C82090  10.329   1.960   4.888  0.4264 -0.1571  1.1598
  609MOL0     C82091  10.440   2.048   4.950  0.1358 -0.2804  0.5727
  609MOL0     C82092  10.572   1.993   4.889 -0.8476  0.5783  1.0507
  609MOL0     C82093  10.612   2.049   4.743  0.0297  0.0256  0.6985
  609MOL0     C82094  10.717   1.960   4.666 -0.2205 -0.9909  0.4650
  609MOL0     C82095  10.754   1.997   4.516 -0.3110 -0.2972 -0.2972
  609MOL0     C82096  10.834   2.126   4.499  0.4417  0.2277  1.0623
  609MOL0     N82097  10.965   2.117   4.562  0.1465 -0.3748 -1.3665
  609MOL0     C82098  11.082   2.040   4.539  1.2288 -0.1236 -0.1766
  609MOL0     C82099  11.157   2.053   4.647  0.2340  0.3236  0.2371
  609MOL0     C82100  11.295   1.986   4.670 -0.3594  0.7879 -0.2051
  609MOL0     C82101  11.373   2.008   4.536  0.0603 -1.5055  0.3094
  609MOL0     C82102  11.496   1.913   4.529 -0.7489 -0.2175  0.7586
  609MOL0     C82103  11.612   1.945   4.622 -0.2364  0.2996 -0.7483
  609MOL0     O82104  11.662   2.072   4.562 -0.0269  0.5060 -0.0890
  609MOL0     C82105  11.776   2.059   4.490 -0.2149 -0.5225 -0.0034
  609MOL0     C82106  11.779   2.074   4.358 -0.9331  0.2212  0.4141
  609MOL0     C82107  11.904   2.064   4.284  0.8107 -0.0716  0.6835
  609MOL0     C82108  11.904   2.068   4.129  0.7960 -0.3169  0.1005
  609MOL0     C82109  12.022   2.050   4.351  0.1758 -0.0701 -0.6721
  609MOL0     C82110  12.148   2.045   4.292  0.3142  1.3003 -0.0009
  609MOL0     O82111  12.243   2.125   4.341 -0.1430  0.2212 -0.0746
  609MOL0     C82112  12.316   2.196   4.253  0.7883  0.4513 -0.5475
  609MOL0     C82113  12.280   2.249   4.120 -0.2867  0.1188 -0.4175
  609MOL0     C82114  12.373   2.307   4.032 -0.0687  0.1988 -0.6872
  609MOL0     C82115  12.494   2.353   4.090 -0.2899  0.3392 -1.2802
  609MOL0     O82116  12.587   2.418   4.022 -0.4385  0.2013  0.1819
  609MOL0     C82117  12.557   2.550   3.976 -0.1669 -0.5696 -0.3274
  609MOL0     C82118  12.661   2.598   3.881  1.0543  0.2669  0.0847
  609MOL0     C82119  12.672   2.518   3.745  0.0612 -0.2084 -0.4965
  609MOL0     C82120  12.758   2.607   3.648 -0.3591  0.8342  0.5617
  609MOL0     C82121  12.770   2.558   3.505 -0.3890 -0.1017 -0.3523
  609MOL0     C82122  12.632   2.545   3.431 -0.1476  0.0754  0.0778
  609MOL0     C82123  12.651   2.498   3.283  0.2236  0.8271  1.2917
  609MOL0     C82124  12.530   2.500   3.186  0.1312 -0.0488 -0.3047
  609MOL0    Cl82125  12.512   2.664   3.124 -0.3972  0.5641 -0.2125
  609MOL0     C82126  12.518   2.322   4.226 -1.0886 -0.0158  0.0832
  609MOL0     C82127  12.437   2.235   4.298 -0.5816 -0.3054 -0.0076
  609MOL0     O82128  12.171   1.949   4.217 -0.4996 -0.6568  0.5082
  609MOL0     C82129  12.017   2.043   4.494 -0.4372  0.3410  1.1746
  609MOL0     C82130  11.899   2.047   4.555  0.0095 -0.3458 -0.1491
  609MOL0     N82131  11.100   2.155   4.726  0.0985 -0.4237 -0.0752
  609MOL0     N82132  10.984   2.199   4.669  0.0784  0.3090  0.6180
  609MOL0     C82133   9.948   2.159   5.098 -1.0237 -0.2993 -0.6278
  609MOL0     C82134   9.843   2.155   5.186  0.6134  0.4429  0.0554
  609MOL0     C82135   9.551   2.162   5.512 -0.6049 -0.3968  0.2121
  609MOL0     C82136   9.538   2.039   5.582 -0.2408  0.1647  0.2539
  609MOL0     C82137   9.417   2.011   5.647 -0.9980 -0.1769 -0.3600
  609MOL0     C82138   9.305   2.096   5.654  0.4842 -0.7562 -1.5299
  609MOL0     O82139   9.180   2.079   5.706 -0.2732 -0.8424  0.5486
  609MOL0     C82140   9.158   1.974   5.794 -0.0577  0.2928 -0.9266
  609MOL0     C82141   9.134   1.843   5.730  0.2066  0.3498  0.2045
  609MOL0     C82142   9.096   1.843   5.579 -0.4204 -0.1276 -0.5654
  609MOL0     C82143   8.971   1.926   5.536  0.3016  1.2465 -0.0780
  609MOL0     C82144   8.935   1.944   5.388  0.3022 -0.2156  0.9826
  609MOL0     C82145   8.931   1.971   5.269  0.9826 -0.5700  0.6364
  609MOL0     C82146   9.321   2.217   5.584 -0.9685 -0.1797 -0.4170
  609MOL0     C82147   9.441   2.247   5.515  0.4691 -0.3404  0.6235
  609MOL0     H82148   9.943   1.930   5.409  1.2952 -1.6366 -0.6425
  609MOL0     H82149  10.111   1.901   5.232 -2.7475 -1.5010  2.5366
  609MOL0     H82150  10.222   1.871   5.059  0.7479  0.7690  0.9730
  609MOL0     H82151  10.118   1.914   4.927 -1.0131 -1.4029  2.8841
  609MOL0     H82152  10.365   1.858   4.868  4.4154  0.8483  2.2906
  609MOL0     H82153  10.297   2.010   4.796  0.7309 -0.1622  1.0513
  609MOL0     H82154  10.434   2.152   4.916 -3.7338 -1.1507 -2.1605
  609MOL0     H82155  10.428   2.030   5.057  0.5260 -3.7183  0.1496
  609MOL0     H82156  10.655   2.016   4.957  0.5827 -2.6484  0.5891
  609MOL0     H82157  10.565   1.884   4.884 -0.8180  0.6302 -0.6427
  609MOL0     H82158  10.518   2.058   4.687  0.2824 -1.1895  0.0473
  609MOL0     H82159  10.650   2.151   4.732 -0.9094  0.4022  0.8058
  609MOL0     H82160  10.809   1.945   4.722  0.4873  0.7484 -0.1499
  609MOL0     H82161  10.677   1.860   4.647  3.0454 -2.5286  0.9780
  609MOL0     H82162  10.790   1.907   4.464 -0.7681 -0.3005 -0.6132
  609MOL0     H82163  10.664   2.027   4.463 -1.0379 -1.0384  0.4832
  609MOL0     H82164  10.778   2.209   4.543 -0.8782 -1.9561  3.7650
  609MOL0     H82165  10.843   2.150   4.393  2.2524  0.2941  1.1860
  609MOL0     H82166  11.090   1.985   4.446 -1.7642 -3.2658  1.2326
  609MOL0     H82167  11.350   2.035   4.751  0.2746  0.5420 -0.4814
  609MOL0     H82168  11.294   1.879   4.692  1.5971  0.8850  0.5705
  609MOL0     H82169  11.397   2.115   4.529  0.0949 -1.5440 -0.1701
  609MOL0     H82170  11.307   1.985   4.452 -0.1721  0.4189 -0.0884
  609MOL0     H82171  11.533   1.910   4.425  0.9078  2.3553  1.1734
  609MOL0     H82172  11.463   1.811   4.550  2.3191 -1.5599 -0.2751
  609MOL0     H82173  11.680   1.860   4.633 -0.7231  0.0619  0.6539
  609MOL0     H82174  11.578   1.957   4.725  3.3359  0.3376  0.5611
  609MOL0     H82175  11.685   2.081   4.305  0.3178 -1.1512 -2.1827
  609MOL0     H82176  11.798   2.076   4.103  0.2096 -0.4498  2.2318
  609MOL0     H82177  11.966   2.152   4.095  4.4351 -2.4078  1.0267
  609MOL0     H82178  11.949   1.977   4.089  0.7775 -0.4515  0.3853
  609MOL0     H82179  12.183   2.229   4.076 -0.6638  2.3224 -0.7078
  609MOL0     H82180  12.351   2.322   3.927  0.1500 -1.8669 -1.0776
  609MOL0     H82181  12.458   2.566   3.932 -2.6917 -1.4787  4.3860
  609MOL0     H82182  12.567   2.622   4.057 -0.9758 -0.5713 -0.2192
  609MOL0     H82183  12.619   2.697   3.862 -2.6275 -0.4863  3.0831
  609MOL0     H82184  12.755   2.610   3.937  1.7650  2.4317 -1.4444
  609MOL0     H82185  12.570   2.497   3.710 -0.2831  0.3755  0.1274
  609MOL0     H82186  12.721   2.424   3.773 -2.3409 -2.2478 -2.6581
  609MOL0     H82187  12.717   2.708   3.638 -2.6800 -0.1855 -0.9290
  609MOL0     H82188  12.853   2.620   3.701 -1.8288 -1.7129  4.2450
  609MOL0     H82189  12.826   2.465   3.514  0.4537  0.4657  0.4612
  609MOL0     H82190  12.831   2.632   3.454  0.0704 -0.2677 -0.0511
  609MOL0     H82191  12.571   2.469   3.481  1.3212 -0.1819  1.5349
  609MOL0     H82192  12.582   2.641   3.413  2.8773  1.4162 -1.9828
  609MOL0     H82193  12.685   2.395   3.296 -0.0734  0.7398  1.3970
  609MOL0     H82194  12.722   2.557   3.225 -0.7032  1.1414  0.4660
  609MOL0     H82195  12.440   2.471   3.241 -0.3515 -0.0794 -1.0981
  609MOL0     H82196  12.545   2.430   3.103 -0.2943 -0.2402 -0.2225
  609MOL0     H82197  12.610   2.359   4.270 -0.6949 -1.5482  0.5799
  609MOL0     H82198  12.469   2.210   4.399  0.2660  0.2468 -0.1316
  609MOL0     H82199  12.110   2.021   4.546  1.2313 -1.1124 -2.1267
  609MOL0     H82200  11.899   2.042   4.664  0.5261 -2.5251 -0.2036
  609MOL0     H82201   9.938   2.230   5.016 -0.9987  2.7873  1.8377
  609MOL0     H82202   9.753   2.210   5.163 -0.1154  0.5504  2.7868
  609MOL0     H82203   9.627   1.978   5.598 -0.3315 -0.0466 -0.0313
  609MOL0     H82204   9.403   1.920   5.704 -3.3296 -2.4066 -4.0544
  609MOL0     H82205   9.228   1.968   5.878 -0.3052  0.8033 -0.6809
  609MOL0     H82206   9.063   2.001   5.842 -0.0424 -0.4179 -0.4681
  609MOL0     H82207   9.052   1.800   5.787  1.0652  0.7183  1.7818
  609MOL0     H82208   9.220   1.776   5.742  0.4460  0.8806  1.7816
  609MOL0     H82209   9.086   1.736   5.557 -0.8255  0.2056 -2.1419
  609MOL0     H82210   9.184   1.877   5.523 -0.1480  0.6056  0.2964
  609MOL0     H82211   8.972   2.028   5.574 -1.2176  1.5436 -0.7517
  609MOL0     H82212   8.891   1.876   5.592  2.2695 -1.3892  0.6025
  609MOL0     H82213   8.954   2.016   5.175  1.0950 -0.6196  0.6396
  609MOL0     H82214   9.242   2.290   5.599  1.5351  2.2427  2.1593
  609MOL0     H82215   9.451   2.351   5.483 -2.0838 -0.9168 -2.5173
  610MOL0     O82216   9.566   7.990   2.746  0.1393  0.1881 -0.1025
  610MOL0     C82217   9.585   8.113   2.780  0.5563 -0.1875  0.2227
  610MOL0     O82218   9.488   8.210   2.778 -0.0481  0.3977  0.4926
  610MOL0     C82219   9.366   8.170   2.722  0.9182 -0.1267 -0.3149
  610MOL0     C82220   9.331   8.221   2.603 -0.7402  0.2434  0.3118
  610MOL0     C82221   9.205   8.206   2.546  0.8762  0.5679 -0.5778
  610MOL0     C82222   9.110   8.140   2.628  0.8250 -0.3343 -0.1463
  610MOL0     O82223   8.978   8.134   2.596 -0.3276  0.5527 -0.8345
  610MOL0     C82224   8.917   8.188   2.484  0.2393 -0.6240  0.5595
  610MOL0     C82225   8.910   8.343   2.489  0.7235 -0.0885 -0.6480
  610MOL0     C82226   8.760   8.381   2.523  0.1971 -0.7458 -0.9165
  610MOL0     C82227   8.665   8.407   2.400 -1.2077  0.5833 -0.5070
  610MOL0     C82228   8.554   8.513   2.396  0.1197 -0.9309 -1.5589
  610MOL0     C82229   8.427   8.462   2.482  0.0868  0.7361  0.5623
  610MOL0     C82230   8.335   8.582   2.504  0.2528  0.2185 -1.0425
  610MOL0     C82231   8.220   8.542   2.593  0.1688 -0.3004 -0.1757
  610MOL0     N82232   8.117   8.467   2.531  0.4940  0.0940 -0.4315
  610MOL0     C82233   8.018   8.515   2.452  0.9855 -0.3618  0.1706
  610MOL0     C82234   7.946   8.405   2.428  0.6732  0.9304 -0.6815
  610MOL0     C82235   7.834   8.400   2.336  0.2779 -0.4855  0.0712
  610MOL0     C82236   7.852   8.466   2.203  0.4073  0.0543 -0.3801
  610MOL0     C82237   7.732   8.439   2.106 -0.1891 -0.3435  0.1170
  610MOL0     C82238   7.716   8.551   1.999  0.0531 -0.1208  0.1412
  610MOL0     O82239   7.718   8.691   2.056 -0.9066  1.0656 -0.0900
  610MOL0     C82240   7.819   8.780   2.035 -1.2236 -0.4155 -0.4948
  610MOL0     C82241   7.804   8.915   2.075  0.4346 -0.8319  0.1668
  610MOL0     C82242   7.894   9.022   2.060 -0.4528  0.6542 -0.4819
  610MOL0     C82243   7.844   9.163   2.086 -0.5149 -0.2690  0.1509
  610MOL0     C82244   8.025   8.985   2.019  0.4196 -0.8104  0.0220
  610MOL0     C82245   8.124   9.091   1.983 -0.1122 -0.3154  0.3688
  610MOL0     O82246   8.255   9.067   2.005 -0.3101 -0.1057  0.1590
  610MOL0     C82247   8.341   9.168   1.991  0.5614 -0.1784  0.3766
  610MOL0     C82248   8.335   9.281   2.066 -0.1602  0.1230 -0.5552
  610MOL0     C82249   8.443   9.376   2.052  0.3851 -0.4424 -1.1359
  610MOL0     C82250   8.541   9.362   1.956 -0.5595 -0.3592 -0.3978
  610MOL0     O82251   8.642   9.455   1.935  0.0213 -0.3720 -0.7775
  610MOL0     C82252   8.684   9.528   2.049 -0.7847 -0.3494 -0.9515
  610MOL0     C82253   8.799   9.624   2.017  0.4308  0.6421 -0.2391
  610MOL0     C82254   8.826   9.716   2.142  1.3730 -0.3181  0.3066
  610MOL0     C82255   8.938   9.819   2.110 -0.6511  0.5634 -0.1762
  610MOL0     C82256   9.074   9.774   2.167 -0.5749  0.8421 -0.3063
  610MOL0     C82257   9.173   9.889   2.154  0.7051 -0.0526 -0.2016
  610MOL0     C82258   9.307   9.859   2.206  0.6979  0.3347 -0.5486
  610MOL0     C82259   9.411   9.955   2.152  0.4760  0.1576 -0.4134
  610MOL0    Cl82260   9.562   9.924   2.234  0.0885 -0.5286 -0.5828
  610MOL0     C82261   8.536   9.250   1.882 -0.3987  0.5018 -0.9458
  610MOL0     C82262   8.440   9.151   1.900  0.6349 -0.0539  0.6979
  610MOL0     O82263   8.079   9.187   1.929 -0.6835 -0.2915 -0.7574
  610MOL0     C82264   8.050   8.848   1.991 -0.2805 -0.0542 -0.1640
  610MOL0     C82265   7.950   8.747   2.000  0.5116 -1.0052  0.9097
  610MOL0     N82266   7.991   8.294   2.502  0.0009 -0.1658 -0.3972
  610MOL0     N82267   8.097   8.345   2.563 -0.3310  1.1432  0.7367
  610MOL0     C82268   9.145   8.083   2.757 -0.0403 -0.5220 -0.5481
  610MOL0     C82269   9.279   8.095   2.802 -0.1392 -0.4859 -1.1047
  610MOL0     C82270   9.713   8.163   2.806  0.6780 -0.1287 -0.3133
  610MOL0     C82271   9.807   8.067   2.843 -1.8113  0.7849 -0.4670
  610MOL0     C82272   9.928   8.117   2.901  1.0100 -0.4464 -0.0298
  610MOL0     C82273   9.959   8.246   2.909  0.4976 -0.3388  1.2309
  610MOL0     O82274  10.071   8.291   2.976  0.6036  0.3929 -0.5427
  610MOL0     C82275  10.115   8.426   2.970 -0.0748 -0.3151 -0.1092
  610MOL0     C82276  10.240   8.460   3.041 -0.2061  0.4864  1.0247
  610MOL0     C82277  10.211   8.463   3.193  0.1741 -0.2476  0.8081
  610MOL0     C82278  10.338   8.490   3.269 -0.3204  0.5565 -0.4317
  610MOL0     C82279  10.392   8.621   3.234 -0.7515  0.7014 -0.8263
  610MOL0     C82280  10.453   8.723   3.207  0.3315 -0.2102  0.0551
  610MOL0     C82281   9.872   8.334   2.850 -0.1148 -0.0242  0.0014
  610MOL0     C82282   9.742   8.300   2.807 -0.0644 -0.5297 -0.2267
  610MOL0     H82283   9.401   8.284   2.548  0.8730 -1.7057 -0.0073
  610MOL0     H82284   9.188   8.254   2.450  0.0913 -0.6838 -1.0983
  610MOL0     H82285   8.976   8.162   2.396  3.8928  0.0396  2.5947
  610MOL0     H82286   8.810   8.166   2.488  0.1894 -0.2650  1.2426
  610MOL0     H82287   8.980   8.381   2.564  2.1929  2.0402 -2.9398
  610MOL0     H82288   8.935   8.391   2.394 -0.6643  1.1368 -0.4281
  610MOL0     H82289   8.718   8.319   2.603  2.2698  1.4345  2.0881
  610MOL0     H82290   8.767   8.481   2.567  5.5358  0.4767 -3.7486
  610MOL0     H82291   8.729   8.424   2.312  3.2170 -1.0073  2.0833
  610MOL0     H82292   8.614   8.316   2.368 -0.1099  0.5137 -2.2607
  610MOL0     H82293   8.601   8.606   2.429  1.0250 -1.5664 -1.0028
  610MOL0     H82294   8.548   8.535   2.289  2.8263  0.3150 -1.5470
  610MOL0     H82295   8.381   8.380   2.425 -0.2144  1.2159  0.1024
  610MOL0     H82296   8.472   8.425   2.575  1.3632  0.6337 -0.0733
  610MOL0     H82297   8.392   8.663   2.551  4.2675 -1.4879 -2.5065
  610MOL0     H82298   8.293   8.628   2.414  0.8621  2.2179 -0.3618
  610MOL0     H82299   8.170   8.635   2.621 -0.8040 -0.3789 -1.5317
  610MOL0     H82300   8.260   8.488   2.680 -0.0789 -1.5973 -0.8419
  610MOL0     H82301   8.000   8.617   2.419  0.3082 -0.5778 -0.1399
  610MOL0     H82302   7.803   8.295   2.327 -0.5885 -0.0816 -2.2881
  610MOL0     H82303   7.754   8.449   2.393 -0.8244  1.2294 -2.7382
  610MOL0     H82304   7.946   8.431   2.160  1.4822  3.7566 -1.4680
  610MOL0     H82305   7.848   8.573   2.225 -0.7865 -0.4795  2.4519
  610MOL0     H82306   7.640   8.444   2.165 -0.6570 -0.7869 -0.5462
  610MOL0     H82307   7.749   8.345   2.052  0.1894 -0.4045  0.3421
  610MOL0     H82308   7.622   8.543   1.944  1.3552 -2.3150 -2.0041
  610MOL0     H82309   7.783   8.526   1.916 -1.2084 -2.7585 -0.1853
  610MOL0     H82310   7.709   8.948   2.116 -0.3517 -1.0781 -1.3857
  610MOL0     H82311   7.925   9.216   2.137 -0.5302 -1.1674  1.1364
  610MOL0     H82312   7.821   9.207   1.988 -0.2723  0.2557  0.3230
  610MOL0     H82313   7.751   9.168   2.143 -1.2007  0.2526 -0.9650
  610MOL0     H82314   8.253   9.303   2.135  1.0430  0.7120  0.7328
  610MOL0     H82315   8.443   9.465   2.115 -0.7415  0.6099 -2.5541
  610MOL0     H82316   8.600   9.594   2.073 -1.4282 -0.1007 -3.6284
  610MOL0     H82317   8.706   9.462   2.133 -2.5613 -0.0660 -0.2201
  610MOL0     H82318   8.885   9.557   2.001  0.4812  0.3478  1.1521
  610MOL0     H82319   8.779   9.674   1.922  1.0326 -0.3303 -0.9008
  610MOL0     H82320   8.846   9.651   2.228 -0.1553 -2.1738 -0.6575
  610MOL0     H82321   8.730   9.767   2.155  1.5720  1.1764 -3.1897
  610MOL0     H82322   8.959   9.831   2.003  0.4881 -1.7009 -0.2808
  610MOL0     H82323   8.922   9.915   2.159  2.1821  0.2672  1.5440
  610MOL0     H82324   9.119   9.701   2.099  1.9931  0.1080  1.9739
  610MOL0     H82325   9.055   9.734   2.267 -2.1223  3.2588  0.4645
  610MOL0     H82326   9.189   9.912   2.049  2.5656  1.4933  0.3726
  610MOL0     H82327   9.134   9.982   2.197 -1.3871 -0.8665 -0.2095
  610MOL0     H82328   9.332   9.758   2.175 -1.0824 -0.0729 -0.7750
  610MOL0     H82329   9.316   9.865   2.315  0.2144 -2.9558 -0.2508
  610MOL0     H82330   9.386  10.061   2.164  3.1965  0.6665  1.5040
  610MOL0     H82331   9.415   9.924   2.047 -0.5570  0.5900 -0.5958
  610MOL0     H82332   8.612   9.225   1.810 -0.3470 -3.4588  0.2718
  610MOL0     H82333   8.439   9.068   1.830  0.1342 -0.1192  0.7781
  610MOL0     H82334   8.149   8.820   1.955 -0.3161 -0.4877  0.0577
  610MOL0     H82335   7.959   8.641   1.977 -3.1954 -1.1331 -0.6718
  610MOL0     H82336   9.066   8.027   2.808 -1.2025  1.0404 -0.5650
  610MOL0     H82337   9.311   8.036   2.887 -0.9674  1.8091  0.8952
  610MOL0     H82338   9.787   7.961   2.830 -0.9219  0.7259 -1.5171
  610MOL0     H82339  10.004   8.051   2.940  1.5691 -0.0848 -0.5020
  610MOL0     H82340  10.132   8.449   2.865  2.2479 -0.7734  0.1070
  610MOL0     H82341  10.029   8.485   3.003 -0.5790 -0.2599 -1.4927
  610MOL0     H82342  10.286   8.550   3.000  1.1215 -0.9804 -0.8689
  610MOL0     H82343  10.312   8.379   3.025 -1.3911 -0.3612 -0.2133
  610MOL0     H82344  10.167   8.369   3.226 -1.5798  0.2893  0.1384
  610MOL0     H82345  10.134   8.537   3.218 -1.6325 -2.3059  1.5720
  610MOL0     H82346  10.427   8.427   3.263  0.6097  1.6385  1.0282
  610MOL0     H82347  10.309   8.499   3.374 -0.2249 -0.4912 -0.3054
  610MOL0     H82348  10.513   8.809   3.185  1.5980 -1.4693 -1.7092
  610MOL0     H82349   9.902   8.437   2.835  0.2095 -0.0882  0.2018
  610MOL0     H82350   9.680   8.377   2.763  0.8376  0.9987  1.0761
  611MOL0     O82351   3.108   3.535  10.736  0.5740  0.1609  0.0210
  611MOL0     C82352   3.063   3.571  10.845 -0.6787  0.3176 -0.3062
  611MOL0     O82353   3.116   3.527  10.963  0.0150 -0.0022 -0.7128
  611MOL0     C82354   3.198   3.416  10.960  0.2015 -1.6824 -0.6381
  611MOL0     C82355   3.162   3.310  11.040 -0.2987  0.2683 -1.1265
  611MOL0     C82356   3.243   3.202  11.055  0.5047  0.4166  0.0211
  611MOL0     C82357   3.362   3.189  10.993 -0.6479  0.2324 -0.1793
  611MOL0     O82358   3.448   3.083  10.984  0.5071  1.4749 -0.3128
  611MOL0     C82359   3.397   2.965  11.044  0.0615  0.6306 -0.3099
  611MOL0     C82360   3.476   2.844  11.008  0.6689 -0.4031  0.3606
  611MOL0     C82361   3.618   2.843  11.074 -0.0148 -0.0742 -0.0641
  611MOL0     C82362   3.716   2.744  11.007 -0.8040  0.1395 -0.7289
  611MOL0     C82363   3.852   2.758  11.068 -0.5536  0.0304 -0.1809
  611MOL0     C82364   3.946   2.668  10.996 -0.2682  0.3305  0.3547
  611MOL0     C82365   3.943   2.521  11.042 -0.3318  0.1527  0.0464
  611MOL0     C82366   4.069   2.437  10.993  0.2069  0.3079  0.4675
  611MOL0     N82367   4.041   2.297  10.970  1.0168  0.2199 -0.3818
  611MOL0     C82368   4.072   2.217  10.866  0.0857  0.8932  0.4754
  611MOL0     C82369   4.034   2.094  10.898  0.4208  0.5184 -0.4856
  611MOL0     C82370   4.049   1.970  10.812 -0.0100 -0.9913 -0.2040
  611MOL0     C82371   4.129   1.860  10.880  0.4199  0.6732 -0.0435
  611MOL0     C82372   4.127   1.708  10.836  0.2141  0.0757 -0.7382
  611MOL0     C82373   4.232   1.682  10.721  0.1811  0.2161 -1.2246
  611MOL0     O82374   4.207   1.783  10.620  0.5558 -1.0778 -0.0736
  611MOL0     C82375   4.117   1.754  10.520  0.5790 -0.3099  0.2534
  611MOL0     C82376   4.127   1.824  10.399  0.3660 -0.5991  0.6711
  611MOL0     C82377   4.026   1.813  10.291 -1.4094 -0.2501  0.6413
  611MOL0     C82378   4.045   1.909  10.181  0.0515 -0.7140 -0.2622
  611MOL0     C82379   3.928   1.715  10.294  0.5932  0.5468 -0.1344
  611MOL0     C82380   3.841   1.673  10.173  0.6249  0.0113 -0.7314
  611MOL0     O82381   3.708   1.709  10.197 -0.6495 -0.4687  0.0983
  611MOL0     C82382   3.637   1.765  10.099  0.4487 -0.1318 -0.6693
  611MOL0     C82383   3.505   1.818  10.130 -0.1003  0.0392  0.4522
  611MOL0     C82384   3.414   1.857  10.031  0.2075  0.1762  0.0089
  611MOL0     C82385   3.447   1.857   9.901  0.0780  0.1071  0.8103
  611MOL0     O82386   3.348   1.872   9.811  0.0542  0.2154  0.5432
  611MOL0     C82387   3.237   1.969   9.831  0.5177 -0.0745  0.3393
  611MOL0     C82388   3.184   1.999   9.684  0.2567  0.1775  0.1615
  611MOL0     C82389   3.302   2.044   9.589 -0.1940  0.5968 -0.4211
  611MOL0     C82390   3.255   2.067   9.449 -0.3007  1.3413  0.3360
  611MOL0     C82391   3.222   2.209   9.421 -0.4896 -0.8673  0.2847
  611MOL0     C82392   3.218   2.246   9.267  0.5761 -0.3305  0.0806
  611MOL0     C82393   3.104   2.183   9.192  0.3360  0.1359  0.2071
  611MOL0     C82394   3.106   2.219   9.045  0.0457 -0.2856  0.4591
  611MOL0    Cl82395   3.065   2.388   9.036  0.5890  0.0967  0.0896
  611MOL0     C82396   3.575   1.818   9.864  0.0613 -0.1027  1.5877
  611MOL0     C82397   3.668   1.774   9.961 -0.0873 -0.0213 -0.1015
  611MOL0     O82398   3.892   1.628  10.070  0.2680 -0.2147 -0.2398
  611MOL0     C82399   3.923   1.641  10.415  0.5802  0.2544 -1.1864
  611MOL0     C82400   4.010   1.664  10.525  0.0397  0.9703 -0.5399
  611MOL0     N82401   3.971   2.109  11.021  0.5343 -0.2140  0.9722
  611MOL0     N82402   3.968   2.228  11.064  0.4278  0.6812  0.6964
  611MOL0     C82403   3.411   3.295  10.917  0.4785 -0.1527  0.3170
  611MOL0     C82404   3.321   3.401  10.890 -0.0190  0.5126  0.3776
  611MOL0     C82405   2.955   3.669  10.863 -0.3332  0.5657 -0.3654
  611MOL0     C82406   2.910   3.697  10.994  0.9016 -0.4015  0.6777
  611MOL0     C82407   2.812   3.797  11.010 -0.5518 -0.1510  0.3243
  611MOL0     C82408   2.743   3.850  10.903 -0.6096 -0.1114  0.7688
  611MOL0     O82409   2.637   3.933  10.939 -0.7192  0.4462 -0.3135
  611MOL0     C82410   2.574   4.005  10.838 -0.0985 -0.1050  0.2631
  611MOL0     C82411   2.440   4.068  10.883  0.8488  0.0066  0.4172
  611MOL0     C82412   2.329   3.966  10.906 -0.4764 -0.8574  1.2301
  611MOL0     C82413   2.184   4.023  10.891  0.0562  0.2418  0.6806
  611MOL0     C82414   2.169   4.132  10.987 -0.3220  0.7604  0.1568
  611MOL0     C82415   2.162   4.227  11.064  0.8423 -0.3086  0.2319
  611MOL0     C82416   2.795   3.829  10.768  0.7329  0.1120 -0.1567
  611MOL0     C82417   2.904   3.743  10.760  0.2144  1.0658 -0.0370
  611MOL0     H82418   3.069   3.315  11.096  1.1915 -0.1299  1.5908
  611MOL0     H82419   3.206   3.122  11.118  1.2500  2.4173  3.2825
  611MOL0     H82420   3.395   2.980  11.153 -1.2234 -1.4574  0.0214
  611MOL0     H82421   3.293   2.957  11.011  0.0267  3.0644 -0.9118
  611MOL0     H82422   3.425   2.758  11.053  2.5985 -1.0549  1.4272
  611MOL0     H82423   3.492   2.829  10.901  1.7215  0.3427  0.3999
  611MOL0     H82424   3.664   2.942  11.072 -0.1175  0.0783 -4.3630
  611MOL0     H82425   3.595   2.835  11.180 -0.9490 -2.9955 -0.3970
  611MOL0     H82426   3.693   2.639  11.025 -0.0957  0.4953  2.9386
  611MOL0     H82427   3.730   2.775  10.903  5.6568  0.6509 -0.1185
  611MOL0     H82428   3.876   2.863  11.051 -5.7286  1.3237 -1.4509
  611MOL0     H82429   3.858   2.729  11.173 -0.1260 -1.6055 -0.6269
  611MOL0     H82430   3.922   2.665  10.889  0.1055  1.6080  0.2217
  611MOL0     H82431   4.049   2.705  11.005 -0.0261 -0.1280 -0.4816
  611MOL0     H82432   3.943   2.521  11.152  0.3367 -1.4236  0.0658
  611MOL0     H82433   3.848   2.485  11.004 -1.7214  1.2831  2.1882
  611MOL0     H82434   4.154   2.440  11.061  0.8218  1.4278 -0.3136
  611MOL0     H82435   4.102   2.484  10.900 -2.5427 -0.2388 -0.8890
  611MOL0     H82436   4.120   2.256  10.776  2.9131 -1.3000  0.9022
  611MOL0     H82437   3.948   1.939  10.783 -0.6872 -1.0436  1.9895
  611MOL0     H82438   4.100   1.997  10.719 -0.4850 -0.0884 -0.2169
  611MOL0     H82439   4.109   1.863  10.988  0.0399 -2.8383  0.1132
  611MOL0     H82440   4.228   1.901  10.861  0.5721  2.0406  3.0232
  611MOL0     H82441   4.030   1.667  10.807  1.1879 -1.8359 -1.4387
  611MOL0     H82442   4.163   1.652  10.922  0.6106  1.7935  0.2733
  611MOL0     H82443   4.230   1.579  10.685  1.7759 -0.7516  1.1722
  611MOL0     H82444   4.334   1.682  10.759 -0.8824 -3.5003  2.3188
  611MOL0     H82445   4.202   1.902  10.386 -0.6589  0.4111  0.6735
  611MOL0     H82446   3.959   1.910  10.114 -0.4187  0.2022  0.3410
  611MOL0     H82447   4.049   2.011  10.219  1.4743  0.2344 -2.7235
  611MOL0     H82448   4.133   1.874  10.126  0.2329 -0.7385  0.0440
  611MOL0     H82449   3.480   1.825  10.235  2.4233 -0.3790  1.1425
  611MOL0     H82450   3.312   1.887  10.055  0.3483  1.1416 -0.5660
  611MOL0     H82451   3.146   1.949   9.888  1.4671 -1.0948  1.5559
  611MOL0     H82452   3.294   2.056   9.864  1.1493  0.0670 -1.0321
  611MOL0     H82453   3.131   1.908   9.653  2.4100 -1.8037  1.8224
  611MOL0     H82454   3.131   2.094   9.682  2.2444  1.3420 -2.3081
  611MOL0     H82455   3.375   1.963   9.585  3.6275  3.7386 -0.6722
  611MOL0     H82456   3.352   2.132   9.630 -1.9711  2.6823 -2.4181
  611MOL0     H82457   3.333   2.036   9.379 -0.6261 -2.6991  1.5206
  611MOL0     H82458   3.169   2.002   9.430  2.1510 -2.2390  0.4572
  611MOL0     H82459   3.308   2.267   9.457  0.0348 -1.0382 -0.6645
  611MOL0     H82460   3.133   2.242   9.476  0.4112 -0.5384  1.6053
  611MOL0     H82461   3.226   2.354   9.250  2.1232 -0.9095 -3.9010
  611MOL0     H82462   3.310   2.217   9.215  0.9868  1.1031 -0.0385
  611MOL0     H82463   3.007   2.219   9.228  0.5324  3.1581 -1.8559
  611MOL0     H82464   3.106   2.075   9.203 -4.8732 -0.1448  0.9264
  611MOL0     H82465   3.039   2.163   8.979 -0.1332  3.1058 -2.6048
  611MOL0     H82466   3.207   2.219   9.003 -0.3524 -1.6938 -0.5948
  611MOL0     H82467   3.602   1.809   9.760 -0.7242 -3.8442  1.5880
  611MOL0     H82468   3.764   1.748   9.916 -0.2024 -0.2092 -0.2419
  611MOL0     H82469   3.849   1.562  10.420 -2.8991  3.3371  1.8293
  611MOL0     H82470   3.988   1.606  10.614  3.5748 -1.0084 -0.7708
  611MOL0     H82471   3.502   3.279  10.860 -0.3613  0.1171 -1.1495
  611MOL0     H82472   3.353   3.479  10.822  0.3144  0.1830  0.1489
  611MOL0     H82473   2.934   3.626  11.073  0.7567 -1.7400 -0.4282
  611MOL0     H82474   2.755   3.815  11.101 -1.8817  1.7364 -0.8098
  611MOL0     H82475   2.649   4.083  10.825  1.0487 -1.2882 -0.4388
  611MOL0     H82476   2.574   3.944  10.747  2.5539 -1.2971  0.9735
  611MOL0     H82477   2.409   4.142  10.808  0.7266 -0.8912 -0.4366
  611MOL0     H82478   2.457   4.131  10.971  0.6426  2.2739 -1.0718
  611MOL0     H82479   2.340   3.927  11.008  2.9589 -2.0381  0.5492
  611MOL0     H82480   2.328   3.885  10.832 -1.9031 -0.1750  0.4634
  611MOL0     H82481   2.105   3.959  10.931 -2.3944  1.7557 -1.4560
  611MOL0     H82482   2.159   4.050  10.788  0.3412  0.7026  0.7316
  611MOL0     H82483   2.173   4.322  11.113  0.3260 -0.8289  1.4130
  611MOL0     H82484   2.736   3.856  10.681  0.0918 -1.3253 -0.1941
  611MOL0     H82485   2.934   3.717  10.659  4.6852 -0.0178  1.3498
  612MOL0     O82486   5.508  10.635   4.956  0.1612 -0.3051 -0.8570
  612MOL0     C82487   5.423  10.706   4.915  0.0912 -0.2590  0.6163
  612MOL0     O82488   5.285  10.683   4.896 -0.0156  0.2091 -0.6890
  612MOL0     C82489   5.204  10.587   4.954 -1.1756  0.5987  0.0851
  612MOL0     C82490   5.256  10.486   5.035  0.4034  0.4326  0.1741
  612MOL0     C82491   5.160  10.398   5.090  0.4431  0.1622  0.0977
  612MOL0     C82492   5.023  10.399   5.059  0.0665 -0.4255 -0.3591
  612MOL0     O82493   4.935  10.294   5.100 -0.0699  0.0978  0.1215
  612MOL0     C82494   4.856  10.236   4.989  0.6431 -0.1800  0.3070
  612MOL0     C82495   4.836  10.089   5.012 -0.8100  0.1767  0.0039
  612MOL0     C82496   4.819  10.007   4.881  0.4504  1.0186 -0.6334
  612MOL0     C82497   4.843   9.864   4.908 -0.0002  0.9209  0.7795
  612MOL0     C82498   4.825   9.763   4.790  0.5629 -0.2154 -0.8711
  612MOL0     C82499   4.826   9.609   4.829  0.5548 -0.3976 -0.6659
  612MOL0     C82500   4.816   9.512   4.708 -0.2918 -0.2045  0.1713
  612MOL0     C82501   4.760   9.376   4.749  0.0654 -0.1442  0.4844
  612MOL0     N82502   4.629   9.375   4.806 -1.2012  0.1041  0.0927
  612MOL0     C82503   4.512   9.377   4.747 -0.1556 -0.1469  0.1657
  612MOL0     C82504   4.419   9.366   4.847 -0.0012 -0.5192 -0.1114
  612MOL0     C82505   4.266   9.354   4.839 -0.5125 -0.3409  0.2426
  612MOL0     C82506   4.202   9.442   4.727  0.1442 -0.0306 -0.1898
  612MOL0     C82507   4.054   9.482   4.764  0.0274 -0.2288  0.2921
  612MOL0     C82508   3.985   9.540   4.644  0.2574  0.5398 -0.2310
  612MOL0     O82509   3.859   9.589   4.691  0.4116 -0.3957 -0.5496
  612MOL0     C82510   3.798   9.682   4.607  1.1994  0.7081  0.8898
  612MOL0     C82511   3.688   9.747   4.668  0.4405 -0.1769  0.1344
  612MOL0     C82512   3.619   9.840   4.599 -0.1572 -1.1481 -0.2245
  612MOL0     C82513   3.501   9.913   4.657  0.0633  0.4446 -0.3696
  612MOL0     C82514   3.666   9.885   4.469  0.1893  0.0049 -0.3219
  612MOL0     C82515   3.598   9.990   4.391  0.0248 -0.7637 -0.3542
  612MOL0     O82516   3.675  10.087   4.334 -0.4680 -0.0807 -0.0274
  612MOL0     C82517   3.650  10.145   4.215 -0.3122  0.4218 -0.2237
  612MOL0     C82518   3.748  10.243   4.184 -0.0080  0.2166 -0.6055
  612MOL0     C82519   3.738  10.316   4.062 -0.1917 -0.2095 -0.1020
  612MOL0     C82520   3.647  10.275   3.958  0.9997 -0.2193 -0.0067
  612MOL0     O82521   3.658  10.323   3.835  0.3864  0.7854 -0.4434
  612MOL0     C82522   3.714  10.240   3.738  0.6669 -0.1856 -0.8517
  612MOL0     C82523   3.815  10.316   3.653  0.2866  1.0580  0.3019
  612MOL0     C82524   3.950  10.347   3.715  0.1289 -0.2666  0.5151
  612MOL0     C82525   3.996  10.487   3.711 -0.1732 -1.2035 -0.0560
  612MOL0     C82526   3.900  10.594   3.767  0.1842 -0.8376  0.5925
  612MOL0     C82527   3.986  10.725   3.793 -0.4761  0.5801  0.3317
  612MOL0     C82528   3.886  10.832   3.844  0.2713  0.0560  0.6007
  612MOL0     C82529   3.956  10.949   3.913  0.2790  0.0608 -1.3107
  612MOL0    Cl82530   4.066  11.029   3.804  0.3798  0.1750 -0.2304
  612MOL0     C82531   3.543  10.180   4.001  0.1987 -0.0069 -0.3512
  612MOL0     C82532   3.545  10.120   4.126 -0.6558 -0.7901  0.2950
  612MOL0     O82533   3.481   9.982   4.385  0.4332 -0.4630 -0.2618
  612MOL0     C82534   3.780   9.825   4.420 -0.6498  0.2562 -0.3249
  612MOL0     C82535   3.852   9.728   4.488  0.3057 -0.0096 -0.3339
  612MOL0     N82536   4.490   9.339   4.963  0.1682  0.0538 -0.1753
  612MOL0     N82537   4.610   9.341   4.936 -0.6269  0.7855  0.1649
  612MOL0     C82538   4.979  10.504   4.974  0.0242  0.3940  0.2539
  612MOL0     C82539   5.066  10.597   4.922 -0.4575 -0.0694 -0.3198
  612MOL0     C82540   5.475  10.838   4.880  0.0654 -0.9233 -0.0919
  612MOL0     C82541   5.390  10.945   4.863 -0.3597  0.3296  0.3096
  612MOL0     C82542   5.431  11.076   4.829  0.1161  0.6726 -0.1668
  612MOL0     C82543   5.565  11.100   4.803  0.1065 -0.3737  0.5058
  612MOL0     O82544   5.603  11.217   4.747  1.1854  0.0342  0.3178
  612MOL0     C82545   5.741  11.249   4.734 -0.4268  1.3610  1.2603
  612MOL0     C82546   5.753  11.396   4.692  0.1799 -0.4958 -0.5092
  612MOL0     C82547   5.886  11.450   4.625  0.4189  2.1380  0.2786
  612MOL0     C82548   5.976  11.509   4.730  0.0239 -0.5962  0.4380
  612MOL0     C82549   6.054  11.416   4.804  0.0021 -0.3421  0.0867
  612MOL0     C82550   6.086  11.322   4.876 -0.3750  0.3118  0.6723
  612MOL0     C82551   5.655  10.987   4.810 -0.2593 -0.6577  0.1697
  612MOL0     C82552   5.610  10.857   4.846 -0.0480  0.2921  0.8085
  612MOL0     H82553   5.364  10.473   5.046  0.1667 -3.0527 -0.5837
  612MOL0     H82554   5.172  10.320   5.165 -3.4688  0.0666  0.8370
  612MOL0     H82555   4.756  10.281   4.997  1.0155  0.5308  1.1310
  612MOL0     H82556   4.902  10.255   4.891  0.5690  0.8440  0.4601
  612MOL0     H82557   4.926  10.051   5.063 -1.8992 -2.8043 -0.0869
  612MOL0     H82558   4.754  10.062   5.079 -1.6644 -1.1707 -1.5008
  612MOL0     H82559   4.717  10.014   4.842 -0.0630 -2.4940 -0.2168
  612MOL0     H82560   4.880  10.056   4.804  1.6884  0.9613  0.2786
  612MOL0     H82561   4.949   9.860   4.937  0.5862  1.9334 -1.0962
  612MOL0     H82562   4.786   9.813   4.987  0.2525 -0.5995 -0.0010
  612MOL0     H82563   4.734   9.800   4.742 -0.4086  1.8387  2.2310
  612MOL0     H82564   4.907   9.781   4.719  0.8743 -0.1275 -0.4973
  612MOL0     H82565   4.927   9.592   4.865 -0.1442  0.7443  2.1294
  612MOL0     H82566   4.756   9.594   4.912 -0.4392 -1.9115 -1.7229
  612MOL0     H82567   4.754   9.556   4.629 -2.4453 -0.5936  1.5617
  612MOL0     H82568   4.913   9.512   4.656 -0.1272 -0.0288  0.4763
  612MOL0     H82569   4.835   9.321   4.807  0.7015  1.1345  0.9013
  612MOL0     H82570   4.754   9.320   4.656 -0.3236 -1.9420  1.5464
  612MOL0     H82571   4.482   9.403   4.645  1.3658  0.2042 -0.2112
  612MOL0     H82572   4.244   9.250   4.815  0.4753 -0.2077 -1.4201
  612MOL0     H82573   4.241   9.388   4.940  0.4465  1.4009 -0.0684
  612MOL0     H82574   4.210   9.390   4.631  0.0324 -3.3973  1.4817
  612MOL0     H82575   4.265   9.531   4.716 -0.1154  0.0804 -0.8701
  612MOL0     H82576   4.040   9.558   4.842 -0.7537  0.2566 -0.3123
  612MOL0     H82577   3.996   9.396   4.796 -1.0323  0.4229  0.1634
  612MOL0     H82578   3.961   9.458   4.576  2.0150 -1.9395  1.9126
  612MOL0     H82579   4.048   9.608   4.587  0.4833 -1.8970 -3.1544
  612MOL0     H82580   3.653   9.710   4.764 -0.8075 -1.2355 -0.6919
  612MOL0     H82581   3.511  10.022   4.655  1.6645  0.3494  0.3410
  612MOL0     H82582   3.410   9.867   4.618  0.6325 -2.1469  1.1255
  612MOL0     H82583   3.497   9.876   4.760  1.2497 -0.3781 -0.5931
  612MOL0     H82584   3.826  10.264   4.256  0.6723  2.3547 -1.9013
  612MOL0     H82585   3.816  10.388   4.039 -0.3546  0.3018  0.9154
  612MOL0     H82586   3.766  10.156   3.785 -0.9056  0.4269  2.2717
  612MOL0     H82587   3.648  10.187   3.669  0.0375 -1.4922  0.6876
  612MOL0     H82588   3.820  10.246   3.569  0.1212 -1.4529  2.2653
  612MOL0     H82589   3.757  10.401   3.616 -3.1434 -0.8471  0.8138
  612MOL0     H82590   4.015  10.280   3.659 -3.5832 -1.2557 -3.0368
  612MOL0     H82591   3.939  10.326   3.822  0.1952  1.0165  0.7872
  612MOL0     H82592   4.085  10.490   3.774  0.5621  2.7881 -0.9796
  612MOL0     H82593   4.028  10.521   3.613  2.5514  1.2927  1.5249
  612MOL0     H82594   3.853  10.553   3.857  0.2636 -2.3046 -0.0165
  612MOL0     H82595   3.835  10.630   3.687  1.6685  0.4366 -0.1008
  612MOL0     H82596   4.064  10.708   3.867  1.3160 -0.4801 -1.7129
  612MOL0     H82597   4.044  10.754   3.705  1.1937  0.2947  1.2918
  612MOL0     H82598   3.813  10.791   3.914 -0.5143  1.9308  0.9258
  612MOL0     H82599   3.845  10.878   3.753  1.6577 -1.7152 -0.9998
  612MOL0     H82600   3.992  10.928   4.014 -4.6447  4.8468  2.0171
  612MOL0     H82601   3.880  11.022   3.944  1.5222  0.1127  2.0334
  612MOL0     H82602   3.472  10.139   3.931 -1.0366 -0.6406  1.2039
  612MOL0     H82603   3.472  10.042   4.141 -0.9723 -0.2834  1.5947
  612MOL0     H82604   3.823   9.855   4.325  1.3288 -3.3980 -0.7535
  612MOL0     H82605   3.946   9.685   4.454  0.0071 -0.8827 -0.0625
  612MOL0     H82606   4.873  10.519   4.955 -0.3587 -0.0897  1.8581
  612MOL0     H82607   5.040  10.677   4.853 -1.7480 -1.4197 -1.4477
  612MOL0     H82608   5.284  10.925   4.872 -0.4150 -1.6992 -3.1419
  612MOL0     H82609   5.361  11.158   4.820  0.9335  1.5037  0.8165
  612MOL0     H82610   5.801  11.231   4.824 -1.4208 -2.1540  1.3774
  612MOL0     H82611   5.783  11.191   4.651  3.3641  3.4118  1.5251
  612MOL0     H82612   5.733  11.453   4.784  2.6380 -1.7557  0.9000
  612MOL0     H82613   5.670  11.399   4.621 -1.4947  2.1633  1.3442
  612MOL0     H82614   5.852  11.530   4.559 -1.5892 -0.4283 -2.0402
  612MOL0     H82615   5.934  11.372   4.566 -1.1940  1.6049 -0.3869
  612MOL0     H82616   5.925  11.588   4.785  1.8232  1.4405 -0.6672
  612MOL0     H82617   6.047  11.577   4.682  1.0075 -1.8348  0.0698
  612MOL0     H82618   6.116  11.245   4.944  1.1422  0.9794  0.7874
  612MOL0     H82619   5.758  11.002   4.781 -0.7164  0.7149 -0.9013
  612MOL0     H82620   5.679  10.774   4.852  0.4360  0.5743 -0.5803
  613MOL0     O82621   4.344   4.160   5.447 -0.9687  0.1089 -0.4292
  613MOL0     C82622   4.216   4.171   5.451 -0.1862  0.9128 -0.7166
  613MOL0     O82623   4.148   4.274   5.405 -0.4685  0.5321 -0.2620
  613MOL0     C82624   4.230   4.369   5.350 -1.3017  0.6503 -0.9023
  613MOL0     C82625   4.266   4.377   5.217 -0.0793 -0.0627  0.5296
  613MOL0     C82626   4.368   4.463   5.162 -0.0365  0.9637  0.0446
  613MOL0     C82627   4.412   4.560   5.250 -0.2592  0.1303  0.6603
  613MOL0     O82628   4.503   4.644   5.192 -0.4037  0.6002  0.5999
  613MOL0     C82629   4.604   4.712   5.267 -0.0208 -1.0641 -1.1650
  613MOL0     C82630   4.546   4.844   5.313 -0.3325  0.9386 -0.2372
  613MOL0     C82631   4.644   4.913   5.390 -0.2965 -1.0373  0.0704
  613MOL0     C82632   4.578   5.006   5.495  0.4240  0.8163 -0.1131
  613MOL0     C82633   4.525   5.135   5.436  0.5186  0.7815  0.0334
  613MOL0     C82634   4.383   5.156   5.475 -0.7045  0.3157 -0.4903
  613MOL0     C82635   4.326   5.273   5.395 -0.5333  1.0565  0.4281
  613MOL0     C82636   4.173   5.272   5.405 -0.2805 -0.4859 -0.1710
  613MOL0     N82637   4.127   5.391   5.319  0.2385  0.3567  0.2105
  613MOL0     C82638   4.135   5.395   5.182 -0.1414  0.5899 -0.5347
  613MOL0     C82639   4.077   5.519   5.157  0.0668 -0.5596 -1.1842
  613MOL0     C82640   4.068   5.579   5.017  0.0010  0.1871  0.0200
  613MOL0     C82641   4.197   5.548   4.934 -0.3043  0.1821 -0.8075
  613MOL0     C82642   4.200   5.627   4.801  0.2090 -0.2028  0.1438
  613MOL0     C82643   4.123   5.581   4.683  0.3090  0.8898  0.0566
  613MOL0     O82644   3.986   5.612   4.710 -0.0774  0.7563  0.0344
  613MOL0     C82645   3.889   5.550   4.634  0.5359  0.5670  0.0574
  613MOL0     C82646   3.787   5.501   4.702 -0.4337  1.2894 -1.6762
  613MOL0     C82647   3.681   5.418   4.648 -1.1273  0.2780  0.3178
  613MOL0     C82648   3.569   5.370   4.739 -0.0473 -0.3533 -0.5816
  613MOL0     C82649   3.690   5.380   4.508 -0.4483 -0.1249 -0.6701
  613MOL0     C82650   3.594   5.305   4.422  0.7771  0.1704 -0.9980
  613MOL0     O82651   3.629   5.290   4.287  0.3496  0.2576  0.1797
  613MOL0     C82652   3.535   5.234   4.211  0.4941 -0.2849 -0.0356
  613MOL0     C82653   3.515   5.093   4.221 -0.5090 -1.7705  0.6144
  613MOL0     C82654   3.446   5.028   4.125 -0.7226  0.1438 -0.4474
  613MOL0     C82655   3.393   5.100   4.017  0.2743 -0.1160 -0.7482
  613MOL0     O82656   3.314   5.016   3.939  0.6197 -0.6349 -0.5171
  613MOL0     C82657   3.232   5.084   3.840  0.2233 -0.8316  0.5994
  613MOL0     C82658   3.155   4.977   3.765 -0.6082 -0.1904  0.3961
  613MOL0     C82659   2.998   4.997   3.769 -0.5725  0.3214 -0.2427
  613MOL0     C82660   2.952   4.940   3.640  0.0823  0.0626 -0.2290
  613MOL0     C82661   2.802   4.926   3.642  0.2079 -0.4507 -0.4403
  613MOL0     C82662   2.748   4.875   3.516  0.6372 -0.4569  0.9692
  613MOL0     C82663   2.624   4.794   3.538  0.0846  0.7427 -0.6938
  613MOL0     C82664   2.504   4.877   3.572  0.1168 -1.0551 -0.2081
  613MOL0    Cl82665   2.376   4.774   3.656 -0.3905  0.1473  0.2308
  613MOL0     C82666   3.408   5.244   4.015 -0.3365 -0.2930  0.3836
  613MOL0     C82667   3.485   5.309   4.111  0.7764  0.1015 -0.1124
  613MOL0     O82668   3.496   5.255   4.487 -0.1969  0.2563 -0.0223
  613MOL0     C82669   3.807   5.430   4.442 -0.0379  0.3033 -1.1428
  613MOL0     C82670   3.901   5.521   4.501 -0.4060  0.1564 -0.4687
  613MOL0     N82671   4.045   5.589   5.272  0.3221  0.1664 -0.5228
  613MOL0     N82672   4.071   5.508   5.369  0.9456 -0.4607 -0.3337
  613MOL0     C82673   4.380   4.558   5.386  0.5225 -0.0314 -0.0326
  613MOL0     C82674   4.281   4.466   5.431 -0.7444  0.2916  0.4910
  613MOL0     C82675   4.147   4.043   5.497  0.8652 -0.4146  0.2165
  613MOL0     C82676   4.005   4.035   5.496 -0.1285 -0.2805 -1.2420
  613MOL0     C82677   3.932   3.928   5.525 -0.2563 -0.5406 -0.0509
  613MOL0     C82678   4.003   3.814   5.562  0.2723  0.5770  0.6366
  613MOL0     O82679   3.944   3.697   5.593  0.8520 -0.4533 -0.0293
  613MOL0     C82680   3.915   3.603   5.490  0.3890  0.5985  0.8942
  613MOL0     C82681   4.048   3.559   5.426  0.2506  0.8666  0.7590
  613MOL0     C82682   4.046   3.437   5.323 -0.8054 -0.1201 -0.3684
  613MOL0     C82683   4.186   3.364   5.312  0.1447 -0.3515  1.1897
  613MOL0     C82684   4.281   3.442   5.231 -0.3462 -0.4734  0.4237
  613MOL0     C82685   4.364   3.503   5.160 -0.5806  0.3029  0.4829
  613MOL0     C82686   4.142   3.816   5.566  0.0516 -0.0072  0.8440
  613MOL0     C82687   4.216   3.927   5.531  0.2124 -1.6006  0.1410
  613MOL0     H82688   4.216   4.313   5.146  0.7534  1.3695 -1.4450
  613MOL0     H82689   4.415   4.460   5.064  0.3802  0.8445  0.2460
  613MOL0     H82690   4.623   4.652   5.357  2.6912 -0.2326 -1.1181
  613MOL0     H82691   4.699   4.726   5.215  0.0169  0.8480 -0.6388
  613MOL0     H82692   4.522   4.912   5.231  2.2614  2.5376  0.2091
  613MOL0     H82693   4.455   4.819   5.368  1.0102 -1.8257  0.8837
  613MOL0     H82694   4.711   4.848   5.446  1.3752  1.1712  0.7478
  613MOL0     H82695   4.708   4.958   5.314  1.1714 -2.8172  0.1853
  613MOL0     H82696   4.494   4.952   5.540  1.7805 -0.5249  0.9242
  613MOL0     H82697   4.661   5.030   5.562  2.5445 -1.6584 -1.6228
  613MOL0     H82698   4.584   5.224   5.460  0.9531  0.9492 -1.5302
  613MOL0     H82699   4.542   5.134   5.327  0.5481  0.0835  0.0382
  613MOL0     H82700   4.327   5.064   5.455 -0.8778  1.0588 -4.1818
  613MOL0     H82701   4.386   5.182   5.581  2.1648 -2.3554  0.2475
  613MOL0     H82702   4.369   5.364   5.440  0.8576 -0.0550  1.4390
  613MOL0     H82703   4.345   5.249   5.290 -1.5720 -1.1193  0.6874
  613MOL0     H82704   4.138   5.276   5.508 -0.5433 -0.6697 -0.2526
  613MOL0     H82705   4.132   5.177   5.369  2.8624 -1.5552 -1.2819
  613MOL0     H82706   4.190   5.336   5.110  2.2493  1.3164  0.6016
  613MOL0     H82707   3.977   5.538   4.971 -1.4299  0.4206  2.4803
  613MOL0     H82708   4.060   5.688   5.021  1.0371  0.3892 -2.1875
  613MOL0     H82709   4.223   5.442   4.920 -2.6516 -0.1948 -2.9152
  613MOL0     H82710   4.278   5.592   4.993 -0.7205 -0.7190  0.4916
  613MOL0     H82711   4.306   5.602   4.787  0.0044 -1.6562  0.9630
  613MOL0     H82712   4.184   5.735   4.795 -1.0274 -0.4375 -1.2099
  613MOL0     H82713   4.124   5.472   4.674  0.3073  1.0597 -3.0315
  613MOL0     H82714   4.157   5.632   4.592  0.5885 -0.0753 -0.4016
  613MOL0     H82715   3.796   5.491   4.809 -3.4975  2.6193 -1.1939
  613MOL0     H82716   3.587   5.385   4.846  0.1399 -1.7039 -0.4003
  613MOL0     H82717   3.477   5.415   4.703 -1.7152 -1.2845  2.1877
  613MOL0     H82718   3.562   5.261   4.735  0.6626 -0.3923 -1.0257
  613MOL0     H82719   3.586   5.042   4.286  1.4422  1.2122  1.0489
  613MOL0     H82720   3.435   4.920   4.136 -0.7445  0.4131  3.8430
  613MOL0     H82721   3.166   5.156   3.887 -2.7462 -1.3657 -2.3489
  613MOL0     H82722   3.294   5.144   3.772 -0.1492  2.2703  2.8026
  613MOL0     H82723   3.193   4.978   3.663 -1.0090 -0.9161  0.2337
  613MOL0     H82724   3.176   4.878   3.808  1.6967  0.3068  0.5651
  613MOL0     H82725   2.972   5.102   3.785 -0.6285 -0.1076  2.9791
  613MOL0     H82726   2.949   4.951   3.855  0.5035  0.3018  0.3747
  613MOL0     H82727   2.969   5.002   3.551 -0.5806  0.1181 -0.3213
  613MOL0     H82728   2.991   4.841   3.616 -1.5271 -0.9219  1.0104
  613MOL0     H82729   2.754   5.020   3.667  0.9958 -0.6608  2.2102
  613MOL0     H82730   2.780   4.858   3.726  3.4738  0.2447  1.1604
  613MOL0     H82731   2.753   4.959   3.446  1.2299 -0.4943  0.9589
  613MOL0     H82732   2.821   4.801   3.482  0.9358  0.1953  0.1444
  613MOL0     H82733   2.649   4.719   3.615  0.6461  1.8956  0.2834
  613MOL0     H82734   2.614   4.733   3.448 -1.3924 -0.5792  0.3087
  613MOL0     H82735   2.469   4.905   3.472 -0.2403 -2.0282 -0.3650
  613MOL0     H82736   2.522   4.972   3.624  0.5921 -0.7208 -0.9583
  613MOL0     H82737   3.382   5.311   3.934  4.9485  0.6080 -0.9287
  613MOL0     H82738   3.499   5.416   4.096 -1.7379  0.7568  1.4475
  613MOL0     H82739   3.829   5.404   4.339 -3.3936 -3.4754 -1.1454
  613MOL0     H82740   3.994   5.548   4.454 -0.3203  2.1291  0.7125
  613MOL0     H82741   4.408   4.629   5.464 -1.9607  2.7547 -1.4666
  613MOL0     H82742   4.255   4.484   5.535 -1.7041  1.1052  0.1271
  613MOL0     H82743   3.942   4.120   5.471  0.2882  0.0058 -1.3310
  613MOL0     H82744   3.824   3.913   5.518 -0.0604 -1.4353 -1.5382
  613MOL0     H82745   3.858   3.517   5.525 -1.4489  0.7408 -1.4780
  613MOL0     H82746   3.865   3.656   5.408 -2.6058 -0.0207  2.1668
  613MOL0     H82747   4.098   3.528   5.519 -1.0270  0.4780  1.3328
  613MOL0     H82748   4.100   3.645   5.383 -0.7498  2.3364  2.3756
  613MOL0     H82749   4.000   3.463   5.227  0.2199 -0.5211 -0.9916
  613MOL0     H82750   3.979   3.371   5.378 -1.3229  0.3719 -0.4030
  613MOL0     H82751   4.171   3.265   5.269 -1.0496 -0.2601  1.3555
  613MOL0     H82752   4.206   3.360   5.420 -1.0179 -1.9624  1.3835
  613MOL0     H82753   4.443   3.535   5.094 -1.5026 -3.7763 -3.0613
  613MOL0     H82754   4.207   3.737   5.604  0.6930 -0.0454 -0.2898
  613MOL0     H82755   4.320   3.953   5.548 -0.7140  3.2732 -0.3118
  614MOL0     O82756   5.056  10.109   3.307  0.0384  0.0102 -0.8483
  614MOL0     C82757   5.141  10.138   3.397  0.8781 -0.6453 -0.6151
  614MOL0     O82758   5.277  10.148   3.372 -0.0187 -0.5471 -0.4612
  614MOL0     C82759   5.322  10.106   3.254 -1.1185  0.8938 -0.1302
  614MOL0     C82760   5.378   9.980   3.241 -0.1645 -0.3530 -0.3544
  614MOL0     C82761   5.407   9.932   3.104  0.0825 -0.0159 -0.6570
  614MOL0     C82762   5.399  10.001   2.986  0.5150  0.2781 -0.9621
  614MOL0     O82763   5.432   9.924   2.880 -0.1278  0.1435  0.0673
  614MOL0     C82764   5.344   9.942   2.771  1.5536  0.7854  0.6198
  614MOL0     C82765   5.403   9.888   2.638 -1.0930 -0.0751  0.1306
  614MOL0     C82766   5.339   9.935   2.512  0.0449  0.6747  0.4455
  614MOL0     C82767   5.376   9.834   2.385  0.0945 -0.3716  0.2077
  614MOL0     C82768   5.290   9.862   2.275 -1.2178 -0.0577  0.1183
  614MOL0     C82769   5.317   9.783   2.151  0.1847 -0.5017 -0.1771
  614MOL0     C82770   5.245   9.830   2.024  0.1508  0.1185 -0.6883
  614MOL0     C82771   5.292   9.737   1.920  0.8477 -0.1528  1.2820
  614MOL0     N82772   5.305   9.801   1.782  0.3971 -0.0489  0.5667
  614MOL0     C82773   5.211   9.869   1.720 -0.0773 -0.0516 -0.5833
  614MOL0     C82774   5.266   9.897   1.592  0.4448 -0.2461  0.1212
  614MOL0     C82775   5.207   9.964   1.471  0.1285 -0.4399  1.0334
  614MOL0     C82776   5.105   9.869   1.410 -0.2378  0.6530  0.2178
  614MOL0     C82777   4.972   9.875   1.489  0.5225  0.1613  0.5436
  614MOL0     C82778   4.880   9.744   1.461 -0.5504 -0.6122  0.3571
  614MOL0     O82779   4.948   9.628   1.528  0.6849 -0.2286  0.8916
  614MOL0     C82780   4.923   9.602   1.665 -0.1189 -0.3482 -0.0289
  614MOL0     C82781   4.985   9.495   1.717  0.1733 -0.8137  0.2197
  614MOL0     C82782   4.991   9.478   1.856 -0.0919 -0.3090 -0.2247
  614MOL0     C82783   5.092   9.368   1.904  0.7516  0.2095 -0.3116
  614MOL0     C82784   4.916   9.569   1.934  0.2598 -0.2024  0.0569
  614MOL0     C82785   4.922   9.563   2.074  0.0062 -1.0725 -0.6472
  614MOL0     O82786   5.047   9.580   2.134 -0.4191 -0.4683  0.2461
  614MOL0     C82787   5.058   9.569   2.269 -0.1514  0.5261 -0.1263
  614MOL0     C82788   5.119   9.455   2.331  0.3911  0.1230 -0.0241
  614MOL0     C82789   5.137   9.451   2.466  0.3005 -0.1176 -0.1705
  614MOL0     C82790   5.070   9.548   2.548 -0.1904  0.2891  1.0066
  614MOL0     O82791   5.074   9.526   2.675  0.3447 -0.2508  0.1375
  614MOL0     C82792   5.095   9.637   2.758 -0.5835 -0.4419  0.3784
  614MOL0     C82793   5.087   9.579   2.900 -0.5357 -0.0060  0.6177
  614MOL0     C82794   5.081   9.681   3.013  0.0832  0.4455 -0.2778
  614MOL0     C82795   5.082   9.598   3.140 -0.4754 -1.1245 -0.7817
  614MOL0     C82796   5.072   9.686   3.269  0.0217 -0.0314  0.3484
  614MOL0     C82797   5.059   9.607   3.403  0.5817  0.2582  0.7427
  614MOL0     C82798   5.048   9.694   3.521  0.4116  1.1675  0.4059
  614MOL0     C82799   5.094   9.627   3.647  0.4032 -0.2735 -0.7472
  614MOL0    Cl82800   5.048   9.462   3.672  0.0881 -0.0941  0.0664
  614MOL0     C82801   5.011   9.655   2.486  0.3548  0.6933  0.4003
  614MOL0     C82802   5.002   9.665   2.351  0.2944  0.3980  0.1066
  614MOL0     O82803   4.819   9.530   2.137 -0.6571  0.0478 -0.9037
  614MOL0     C82804   4.840   9.667   1.884  0.6814  0.3275  0.3749
  614MOL0     C82805   4.847   9.689   1.745 -0.6158 -0.3488  0.1921
  614MOL0     N82806   5.395   9.839   1.589 -0.7877  0.1483 -0.0375
  614MOL0     N82807   5.421   9.792   1.709 -0.3194 -0.1194 -0.2171
  614MOL0     C82808   5.352  10.132   3.003 -0.6661 -0.0940  0.4762
  614MOL0     C82809   5.313  10.179   3.130  0.0011 -0.1370 -0.3586
  614MOL0     C82810   5.082  10.165   3.533  0.4616 -0.3730 -0.6050
  614MOL0     C82811   4.944  10.171   3.548 -0.1796 -0.5491  0.0283
  614MOL0     C82812   4.887  10.189   3.678  0.1548  0.6358 -0.7350
  614MOL0     C82813   4.959  10.208   3.795  0.1975 -0.3789 -0.1424
  614MOL0     O82814   4.904  10.255   3.908 -0.6864  0.3876  0.2949
  614MOL0     C82815   4.928  10.388   3.930 -0.1430 -0.8737 -0.8901
  614MOL0     C82816   4.912  10.412   4.084 -0.3487  0.1475  0.1201
  614MOL0     C82817   5.035  10.353   4.153 -1.0880 -0.4597  0.3607
  614MOL0     C82818   5.168  10.437   4.132  0.1200  0.7274 -0.8157
  614MOL0     C82819   5.277  10.347   4.190  0.6605 -0.0920 -0.0869
  614MOL0     C82820   5.372  10.285   4.232  0.3349  0.0169  0.2147
  614MOL0     C82821   5.099  10.206   3.776  0.3563  0.3554 -0.4481
  614MOL0     C82822   5.159  10.176   3.647 -0.2149  0.2045  0.0224
  614MOL0     H82823   5.400   9.924   3.331  1.0959  4.0414  2.3774
  614MOL0     H82824   5.436   9.827   3.096  0.3278 -0.0179  0.1542
  614MOL0     H82825   5.244   9.901   2.790  0.6471  2.5687 -0.0767
  614MOL0     H82826   5.333  10.050   2.760 -0.1371  1.2210  4.6662
  614MOL0     H82827   5.510   9.908   2.640 -1.0054 -0.5528  0.7682
  614MOL0     H82828   5.393   9.779   2.645  4.0752 -0.8422 -0.7147
  614MOL0     H82829   5.232   9.923   2.530 -0.0371  2.1315  1.0783
  614MOL0     H82830   5.355  10.040   2.487 -2.3422  0.7854 -0.9437
  614MOL0     H82831   5.481   9.850   2.362  0.7760  1.1278  3.7207
  614MOL0     H82832   5.362   9.730   2.416 -1.2040 -0.3582 -0.2753
  614MOL0     H82833   5.185   9.854   2.303 -0.9124 -2.4654  0.7943
  614MOL0     H82834   5.304   9.965   2.242 -0.7505 -0.0193  0.4166
  614MOL0     H82835   5.425   9.781   2.138  0.1760 -2.1864 -0.2311
  614MOL0     H82836   5.280   9.682   2.171 -1.1944 -0.1481 -0.8328
  614MOL0     H82837   5.136   9.834   2.032  0.1082  1.3205 -1.6730
  614MOL0     H82838   5.274   9.933   2.001  2.1602  0.1043  1.3628
  614MOL0     H82839   5.222   9.653   1.914 -0.6076  1.0337  1.0990
  614MOL0     H82840   5.391   9.693   1.939  1.7795  0.3148 -1.7861
  614MOL0     H82841   5.111   9.881   1.761  1.8985  2.6094  4.3035
  614MOL0     H82842   5.161  10.059   1.497 -0.6472 -0.1038 -1.3897
  614MOL0     H82843   5.274   9.980   1.386 -0.4821 -1.7947  0.2537
  614MOL0     H82844   5.153   9.773   1.427  2.5122  2.1978  1.8538
  614MOL0     H82845   5.087   9.900   1.307  0.0213 -1.1665 -0.3992
  614MOL0     H82846   4.909   9.955   1.448 -1.5793 -1.0766  1.1854
  614MOL0     H82847   4.997   9.901   1.592  1.7264 -2.7122  1.0697
  614MOL0     H82848   4.873   9.728   1.353 -1.0047 -1.0649  0.4526
  614MOL0     H82849   4.775   9.753   1.488 -1.9532 -2.4189 -3.7139
  614MOL0     H82850   5.044   9.428   1.655  2.0024  0.8015  0.0993
  614MOL0     H82851   5.099   9.291   1.827  1.1628 -0.2638  0.1919
  614MOL0     H82852   5.183   9.427   1.922  2.0616 -2.3694  2.5271
  614MOL0     H82853   5.060   9.323   1.998 -2.3322  2.6206 -0.0490
  614MOL0     H82854   5.155   9.365   2.283  1.8959 -0.5946  2.3058
  614MOL0     H82855   5.181   9.365   2.515  1.7971  0.6681 -0.0428
  614MOL0     H82856   5.193   9.685   2.756 -0.7156 -0.1309 -2.8126
  614MOL0     H82857   5.019   9.711   2.732  2.4802  1.5243 -4.1991
  614MOL0     H82858   4.996   9.522   2.917 -0.4867 -0.7305 -1.2783
  614MOL0     H82859   5.168   9.510   2.927  0.2709  1.9398  3.6610
  614MOL0     H82860   4.992   9.742   2.999  1.4661  1.8824 -4.4289
  614MOL0     H82861   5.166   9.748   3.023  0.6277 -0.4201  1.2597
  614MOL0     H82862   5.002   9.525   3.154  2.3407 -3.9158  3.5301
  614MOL0     H82863   5.178   9.547   3.154 -0.4395 -0.6717  0.8560
  614MOL0     H82864   4.988   9.756   3.265  0.0268  0.2722  3.2953
  614MOL0     H82865   5.159   9.751   3.276 -1.2530  1.6241  1.7491
  614MOL0     H82866   4.977   9.537   3.415  2.5732 -1.8479  3.1806
  614MOL0     H82867   5.150   9.546   3.405  0.3412 -0.1274  0.0027
  614MOL0     H82868   4.941   9.712   3.534 -1.0723 -4.6326 -0.8585
  614MOL0     H82869   5.107   9.786   3.511  0.8309  0.7594 -1.2022
  614MOL0     H82870   5.066   9.683   3.737  0.2887 -4.0374  1.8047
  614MOL0     H82871   5.203   9.636   3.651  0.2894  0.9955  1.3190
  614MOL0     H82872   4.983   9.748   2.534  2.3702  0.7848  1.4739
  614MOL0     H82873   4.961   9.755   2.306  2.3076  0.6493 -1.3961
  614MOL0     H82874   4.779   9.724   1.953  0.4240  0.1983  0.2565
  614MOL0     H82875   4.810   9.777   1.693  1.5743  0.2335 -0.4686
  614MOL0     H82876   5.342  10.190   2.912 -2.4393  2.4307  2.1466
  614MOL0     H82877   5.273  10.280   3.139 -0.9244 -0.3571 -1.7340
  614MOL0     H82878   4.881  10.162   3.460  0.1652  0.7379 -0.3701
  614MOL0     H82879   4.779  10.192   3.691  0.1669 -3.4628  2.4973
  614MOL0     H82880   5.026  10.414   3.888 -0.1398 -2.1298 -1.7001
  614MOL0     H82881   4.854  10.445   3.872 -1.7103 -2.8129 -0.9016
  614MOL0     H82882   4.819  10.370   4.122 -0.0940 -0.7579 -0.2347
  614MOL0     H82883   4.901  10.515   4.120 -0.7640  0.0078  0.4022
  614MOL0     H82884   5.042  10.251   4.114 -0.2904 -0.0629 -0.5643
  614MOL0     H82885   5.012  10.342   4.259  0.5100 -0.4510  0.7376
  614MOL0     H82886   5.154  10.533   4.181 -0.9202  1.6333 -2.7884
  614MOL0     H82887   5.190  10.474   4.032  0.1632  2.8759 -0.0653
  614MOL0     H82888   5.460  10.233   4.264  0.4906  0.6691  0.8788
  614MOL0     H82889   5.167  10.219   3.860 -2.0107 -3.1566  2.3019
  614MOL0     H82890   5.265  10.168   3.630 -0.2437  0.6742 -0.4265
  615MOL0     O82891   2.593   3.905   6.701 -0.1719 -0.4907  0.2929
  615MOL0     C82892   2.515   3.964   6.626  0.3336  0.4161 -0.9354
  615MOL0     O82893   2.394   3.913   6.589 -0.7317  0.2000 -0.1029
  615MOL0     C82894   2.363   3.794   6.644 -0.9250  0.7562  0.2215
  615MOL0     C82895   2.419   3.671   6.611  0.2893  0.6430 -0.4440
  615MOL0     C82896   2.387   3.562   6.692 -0.2413 -0.0399  1.0684
  615MOL0     C82897   2.302   3.565   6.800 -0.3033  0.0743 -0.5341
  615MOL0     O82898   2.286   3.454   6.884  0.7096 -0.6222  0.1667
  615MOL0     C82899   2.186   3.359   6.844  0.2876  0.8206  0.6160
  615MOL0     C82900   2.233   3.218   6.826 -0.1748 -0.6358  0.3585
  615MOL0     C82901   2.273   3.142   6.951  0.0282  0.3476  0.3842
  615MOL0     C82902   2.176   3.167   7.073  0.4708  0.8769 -0.3564
  615MOL0     C82903   2.194   3.047   7.173 -0.1843  1.7183  0.9589
  615MOL0     C82904   2.101   3.064   7.289  0.1656 -1.9001 -0.2104
  615MOL0     C82905   2.102   2.955   7.393  0.1831 -0.0023  1.0740
  615MOL0     C82906   1.980   2.967   7.488 -0.4564 -0.0747 -0.4900
  615MOL0     N82907   1.993   3.049   7.611  0.5007 -0.3516  0.5597
  615MOL0     C82908   2.060   3.167   7.617  0.3577  0.0066 -0.0987
  615MOL0     C82909   2.090   3.187   7.749  1.3491 -0.2938  0.0268
  615MOL0     C82910   2.181   3.292   7.816 -0.6319  0.4539 -0.2454
  615MOL0     C82911   2.199   3.272   7.975  0.2172 -0.4571 -0.3255
  615MOL0     C82912   2.280   3.401   8.027 -0.2871 -0.6549  0.9397
  615MOL0     C82913   2.195   3.523   8.061  0.6163  0.5034  0.5552
  615MOL0     O82914   2.290   3.631   8.095  0.3529 -0.1912  0.0670
  615MOL0     C82915   2.228   3.743   8.146  0.7652  1.5676 -0.0004
  615MOL0     C82916   2.094   3.781   8.118 -0.0538  0.4522 -0.0427
  615MOL0     C82917   2.040   3.905   8.151 -0.0210 -0.7594 -0.0637
  615MOL0     C82918   1.910   3.936   8.087 -0.4516 -0.2258 -0.6093
  615MOL0     C82919   2.118   4.002   8.226 -0.6849 -0.4207 -0.1337
  615MOL0     C82920   2.062   4.138   8.277 -0.4023  0.1533  1.1837
  615MOL0     O82921   2.096   4.179   8.404 -0.2530  0.2037  0.4536
  615MOL0     C82922   2.076   4.312   8.434 -0.4652  0.8126 -0.0169
  615MOL0     C82923   1.972   4.333   8.516  0.3915  0.5880 -0.9856
  615MOL0     C82924   1.957   4.455   8.588 -0.2485 -0.6406  1.0213
  615MOL0     C82925   2.046   4.551   8.552 -0.5173 -0.5255  0.4927
  615MOL0     O82926   2.034   4.675   8.608 -0.1221  0.2828  0.0539
  615MOL0     C82927   2.147   4.759   8.644  0.7229  1.4743  0.1821
  615MOL0     C82928   2.118   4.818   8.782 -0.3366  0.4423  0.9289
  615MOL0     C82929   2.249   4.844   8.860  0.2616 -0.2333  0.3949
  615MOL0     C82930   2.351   4.922   8.782  1.5069  0.3050  0.7532
  615MOL0     C82931   2.431   5.011   8.864  0.1591  0.1943  1.0466
  615MOL0     C82932   2.354   5.111   8.942 -0.2277  0.5086 -0.1453
  615MOL0     C82933   2.435   5.225   8.989 -0.2557 -1.1270  0.1514
  615MOL0     C82934   2.352   5.356   9.015 -0.2103  0.6737  0.0094
  615MOL0    Cl82935   2.240   5.414   8.874 -0.3331  0.1722 -0.8225
  615MOL0     C82936   2.149   4.538   8.463 -0.2436 -0.5602 -0.2385
  615MOL0     C82937   2.173   4.415   8.409 -0.5635  1.0064  0.1041
  615MOL0     O82938   1.989   4.200   8.202  0.2470 -0.0203 -0.1384
  615MOL0     C82939   2.252   3.961   8.253  0.6279 -0.1929  0.6305
  615MOL0     C82940   2.306   3.832   8.219 -0.4719  0.0561  0.2690
  615MOL0     N82941   2.034   3.080   7.819  0.1715  0.3900  0.6918
  615MOL0     N82942   1.991   2.993   7.732 -0.0462 -0.4310 -0.1825
  615MOL0     C82943   2.252   3.691   6.837 -0.8805 -1.2476 -0.3113
  615MOL0     C82944   2.276   3.800   6.752 -0.0270  0.7218  0.0318
  615MOL0     C82945   2.540   4.106   6.599  0.0341  0.4571  0.2145
  615MOL0     C82946   2.671   4.150   6.569  0.8690 -1.0529  0.2090
  615MOL0     C82947   2.689   4.289   6.536  0.3575  0.9900 -0.5919
  615MOL0     C82948   2.587   4.377   6.534  0.4778  1.0192 -0.3329
  615MOL0     O82949   2.610   4.501   6.500  0.5741 -0.2389  0.1795
  615MOL0     C82950   2.502   4.598   6.472 -0.3953 -0.2333 -0.4874
  615MOL0     C82951   2.419   4.579   6.344  0.1983  0.0508  0.7636
  615MOL0     C82952   2.482   4.608   6.206 -0.0326  0.0155 -0.4274
  615MOL0     C82953   2.583   4.500   6.160  0.4612  0.1532 -0.0152
  615MOL0     C82954   2.510   4.376   6.140 -0.1786 -1.0223  0.8035
  615MOL0     C82955   2.442   4.277   6.118 -0.1433 -1.0317  0.3305
  615MOL0     C82956   2.455   4.325   6.550 -0.3233 -1.0169 -0.0072
  615MOL0     C82957   2.429   4.195   6.587  0.1711  0.3943  0.7036
  615MOL0     H82958   2.491   3.659   6.530 -1.4437 -3.4494 -1.6154
  615MOL0     H82959   2.424   3.461   6.678 -1.5500 -0.6091  1.5854
  615MOL0     H82960   2.115   3.359   6.927  1.6833  0.9384  1.8592
  615MOL0     H82961   2.126   3.383   6.756 -1.3162 -0.5945  1.2701
  615MOL0     H82962   2.159   3.163   6.766 -2.6416  1.3042  1.4190
  615MOL0     H82963   2.322   3.238   6.767  0.5802  3.1425  2.4564
  615MOL0     H82964   2.268   3.034   6.934  5.1579 -0.3640  1.5817
  615MOL0     H82965   2.376   3.161   6.983 -0.1790  0.3032  1.0977
  615MOL0     H82966   2.194   3.257   7.132 -2.5204  2.6707 -1.9795
  615MOL0     H82967   2.074   3.153   7.038  0.6782 -0.3786 -0.5149
  615MOL0     H82968   2.172   2.956   7.116  0.9136  1.6263  0.6511
  615MOL0     H82969   2.298   3.029   7.203 -0.0319 -2.6662 -1.2901
  615MOL0     H82970   2.138   3.156   7.335  0.0110 -1.1318 -1.5690
  615MOL0     H82971   2.000   3.095   7.260  0.8556  3.4674  1.9710
  615MOL0     H82972   2.089   2.868   7.330 -0.3326 -0.1259  1.3408
  615MOL0     H82973   2.193   2.960   7.454 -1.4598  0.8422  3.6330
  615MOL0     H82974   1.964   2.867   7.529 -1.6296 -0.4022 -1.6736
  615MOL0     H82975   1.889   2.999   7.436 -1.0946  1.1709  1.2930
  615MOL0     H82976   2.095   3.231   7.537 -1.8545  0.2672 -0.9123
  615MOL0     H82977   2.286   3.281   7.786 -0.6652 -0.2082 -0.1368
  615MOL0     H82978   2.154   3.395   7.790 -1.1675  0.4506  0.2938
  615MOL0     H82979   2.265   3.186   7.991  2.7308  1.5159  0.7016
  615MOL0     H82980   2.106   3.249   8.029 -0.1118  0.4448 -0.4915
  615MOL0     H82981   2.350   3.441   7.954 -2.7089  1.7383 -0.2613
  615MOL0     H82982   2.329   3.378   8.122  1.6698 -1.7782 -0.2747
  615MOL0     H82983   2.112   3.511   8.132  0.6464  0.4050  0.5736
  615MOL0     H82984   2.142   3.539   7.967  2.2166  0.7398 -0.3356
  615MOL0     H82985   2.029   3.714   8.063 -0.2123  0.5774 -0.0078
  615MOL0     H82986   1.853   4.015   8.138 -1.7930 -2.4687  1.5702
  615MOL0     H82987   1.947   3.980   7.994 -1.2662  0.8478 -0.4517
  615MOL0     H82988   1.845   3.849   8.076 -0.1227 -1.2726  3.7448
  615MOL0     H82989   1.921   4.246   8.558 -1.4702  2.5714  1.1366
  615MOL0     H82990   1.881   4.485   8.659  0.1512  0.6858  0.9172
  615MOL0     H82991   2.239   4.701   8.656 -0.6815 -1.4611 -1.8649
  615MOL0     H82992   2.157   4.839   8.571 -0.4906  0.2688 -1.3876
  615MOL0     H82993   2.068   4.915   8.771 -0.1584  0.3344 -1.1943
  615MOL0     H82994   2.052   4.750   8.837 -0.1622 -1.4132 -1.0579
  615MOL0     H82995   2.282   4.743   8.887 -0.6584 -1.1691 -1.7623
  615MOL0     H82996   2.220   4.900   8.949 -1.7446 -2.6731  1.4005
  615MOL0     H82997   2.420   4.845   8.746 -1.0955 -0.5414 -2.9245
  615MOL0     H82998   2.309   4.960   8.689  0.0550  0.1986  1.3438
  615MOL0     H82999   2.502   5.056   8.794 -0.2519 -3.1312 -1.7908
  615MOL0     H83000   2.489   4.939   8.923  1.1189 -1.3337 -1.5472
  615MOL0     H83001   2.268   5.149   8.887  0.4902  2.6355  0.1094
  615MOL0     H83002   2.321   5.067   9.037 -1.4351  0.6313 -0.4996
  615MOL0     H83003   2.515   5.246   8.918 -1.3669 -1.3270 -1.2013
  615MOL0     H83004   2.490   5.197   9.079  1.2121 -1.2913 -0.7726
  615MOL0     H83005   2.413   5.439   9.053 -0.2975 -0.0113  1.7549
  615MOL0     H83006   2.289   5.336   9.102  1.4042  0.3430  1.1626
  615MOL0     H83007   2.205   4.625   8.430 -0.6419 -1.1481 -2.7255
  615MOL0     H83008   2.246   4.404   8.330 -1.5309  1.7324 -0.9200
  615MOL0     H83009   2.309   4.040   8.299  0.1231  2.7495 -3.2399
  615MOL0     H83010   2.403   3.799   8.255 -1.1082 -1.3990  0.7126
  615MOL0     H83011   2.180   3.698   6.918 -0.0422 -2.9511  0.6253
  615MOL0     H83012   2.217   3.890   6.763 -1.9747 -0.6782  1.7267
  615MOL0     H83013   2.759   4.088   6.580  1.3708 -0.3305  0.3360
  615MOL0     H83014   2.785   4.327   6.504  0.0058  1.1986 -1.4296
  615MOL0     H83015   2.448   4.616   6.566  2.1330  3.8374  0.4731
  615MOL0     H83016   2.550   4.695   6.459  0.1769 -0.2885  0.9496
  615MOL0     H83017   2.343   4.656   6.330 -0.0475 -0.7287 -3.0534
  615MOL0     H83018   2.367   4.484   6.356 -0.5929  0.4294  0.3761
  615MOL0     H83019   2.540   4.699   6.218 -0.8793  0.8848 -2.5020
  615MOL0     H83020   2.411   4.627   6.125 -1.6586 -2.2390  0.3472
  615MOL0     H83021   2.659   4.478   6.235  0.8691  2.3430  0.2943
  615MOL0     H83022   2.634   4.533   6.069 -0.4078  0.8022 -0.2812
  615MOL0     H83023   2.384   4.187   6.117  3.4015 -3.5019  0.6919
  615MOL0     H83024   2.365   4.385   6.540  0.4018 -0.1220 -1.5228
  615MOL0     H83025   2.331   4.151   6.599  0.3484  0.3753  2.2571
  616MOL0     O83026   9.537   2.968  10.076 -1.0944  0.9743 -0.5872
  616MOL0     C83027   9.437   3.022  10.053  0.1483 -0.3151  0.4224
  616MOL0     O83028   9.316   2.990  10.105  0.5647 -0.3545 -0.1444
  616MOL0     C83029   9.314   2.873  10.175  0.3156  0.1482 -0.0357
  616MOL0     C83030   9.376   2.854  10.301 -1.3404 -0.1221 -0.6620
  616MOL0     C83031   9.369   2.739  10.376  0.9180  0.9176 -0.2439
  616MOL0     C83032   9.302   2.626  10.326 -0.3229 -0.7785  0.4806
  616MOL0     O83033   9.319   2.511  10.390  0.2728  0.2868  0.3341
  616MOL0     C83034   9.209   2.416  10.404  0.6773 -0.1902 -0.4406
  616MOL0     C83035   9.277   2.285  10.443 -0.6475 -0.5476 -0.2046
  616MOL0     C83036   9.358   2.222  10.323  0.5052  0.2983  0.5095
  616MOL0     C83037   9.481   2.131  10.362  0.5197  0.1329  0.4405
  616MOL0     C83038   9.619   2.210  10.363 -0.4706  0.2281  0.1610
  616MOL0     C83039   9.651   2.272  10.225 -0.0853  0.1755  0.0566
  616MOL0     C83040   9.798   2.272  10.204 -0.4807  0.0395 -0.9045
  616MOL0     C83041   9.880   2.354  10.310  0.3922 -0.0465 -0.0665
  616MOL0     N83042   9.969   2.452  10.250 -0.1603 -0.1606 -0.0710
  616MOL0     C83043  10.110   2.444  10.252 -0.5684 -0.6847 -0.5297
  616MOL0     C83044  10.153   2.551  10.178  0.2719 -0.5164 -0.5212
  616MOL0     C83045  10.291   2.608  10.156  0.1917  0.1100  0.0770
  616MOL0     C83046  10.285   2.763  10.174  0.0122 -0.6549 -0.6138
  616MOL0     C83047  10.403   2.848  10.129  0.2755 -0.6159  0.6838
  616MOL0     C83048  10.371   2.997  10.160 -0.1803 -0.4607 -0.2010
  616MOL0     O83049  10.352   3.021  10.299 -0.1986 -0.2454  0.4460
  616MOL0     C83050  10.331   3.147  10.351  0.7483  0.0308 -0.4299
  616MOL0     C83051  10.296   3.153  10.492  0.6522 -1.0423  0.2958
  616MOL0     C83052  10.299   3.278  10.559  0.1494 -0.1249 -0.1789
  616MOL0     C83053  10.256   3.272  10.706 -0.7881  0.2965 -0.2041
  616MOL0     C83054  10.319   3.402  10.489 -0.4057 -0.9108  0.2426
  616MOL0     C83055  10.334   3.536  10.541 -0.0833 -0.9617  0.4410
  616MOL0     O83056  10.394   3.630  10.452 -0.9271 -0.6160  1.0535
  616MOL0     C83057  10.434   3.750  10.501 -0.2492  0.7227 -0.0256
  616MOL0     C83058  10.549   3.761  10.586  0.4910  0.3908  0.7861
  616MOL0     C83059  10.593   3.886  10.619  0.7039 -0.9220 -0.1931
  616MOL0     C83060  10.524   4.005  10.585 -1.1171 -0.0027  0.9728
  616MOL0     O83061  10.570   4.114  10.651 -0.2041  0.0826  0.2660
  616MOL0     C83062  10.644   4.209  10.572  0.0760  0.1525 -0.4287
  616MOL0     C83063  10.640   4.346  10.641  0.2406 -0.1403  0.2040
  616MOL0     C83064  10.507   4.408  10.650 -0.3145  0.6207  0.6356
  616MOL0     C83065  10.503   4.560  10.690 -0.8236  0.0815  0.3211
  616MOL0     C83066  10.361   4.614  10.693  0.4318  0.3215  0.9277
  616MOL0     C83067  10.355   4.763  10.726 -0.5991 -0.4091  0.2774
  616MOL0     C83068  10.215   4.808  10.733  0.2148 -0.2022 -0.1504
  616MOL0     C83069  10.202   4.939  10.818 -0.0905  0.5350  0.3769
  616MOL0    Cl83070  10.030   4.995  10.809 -0.3512 -0.0548 -0.4712
  616MOL0     C83071  10.414   3.993  10.492  0.0791  0.2357  0.6639
  616MOL0     C83072  10.370   3.861  10.451 -0.1901  0.1469  0.5218
  616MOL0     O83073  10.304   3.561  10.653 -0.2413  0.0851  0.0069
  616MOL0     C83074  10.328   3.391  10.345  1.5118 -0.5132 -0.1558
  616MOL0     C83075  10.345   3.266  10.278 -0.6909 -0.1939 -0.1108
  616MOL0     N83076  10.035   2.621  10.141 -0.0811 -0.1948 -0.0557
  616MOL0     N83077   9.925   2.563  10.180 -0.5670 -0.1759  0.0807
  616MOL0     C83078   9.246   2.635  10.192  0.4842  0.6240  0.5620
  616MOL0     C83079   9.261   2.755  10.112 -0.3327 -0.7473 -0.2930
  616MOL0     C83080   9.435   3.129   9.954 -0.6292 -0.1868  0.3037
  616MOL0     C83081   9.561   3.178   9.904  0.5484  0.5426  0.2444
  616MOL0     C83082   9.570   3.276   9.802 -0.6577  0.3127 -0.5602
  616MOL0     C83083   9.453   3.334   9.749 -0.1162 -1.0757  0.5280
  616MOL0     O83084   9.477   3.423   9.643 -0.5416 -0.7227  0.6425
  616MOL0     C83085   9.361   3.495   9.605  0.0488  0.0551  1.7443
  616MOL0     C83086   9.303   3.604   9.706 -0.2806 -1.6583 -0.1455
  616MOL0     C83087   9.405   3.683   9.795  0.2869  0.6108 -0.0989
  616MOL0     C83088   9.484   3.781   9.705 -0.5705 -0.0250  0.2020
  616MOL0     C83089   9.407   3.900   9.654  0.4953  0.2308 -0.8629
  616MOL0     C83090   9.334   3.992   9.635 -0.2932 -0.2302 -0.7186
  616MOL0     C83091   9.324   3.279   9.784  0.1593  0.5619  0.0988
  616MOL0     C83092   9.322   3.180   9.889  0.3112  0.8061 -1.0975
  616MOL0     H83093   9.424   2.945  10.338  0.1376 -1.4141  0.7535
  616MOL0     H83094   9.428   2.722  10.465 -0.4615 -0.0914  0.5172
  616MOL0     H83095   9.146   2.445  10.489  0.1021  2.3247 -1.6134
  616MOL0     H83096   9.163   2.403  10.306  4.1830  1.3566 -2.4776
  616MOL0     H83097   9.344   2.310  10.526  0.4245  1.3190 -1.5450
  616MOL0     H83098   9.191   2.219  10.458  0.5218 -2.1808 -0.4583
  616MOL0     H83099   9.293   2.163  10.258  1.8851 -0.1190 -0.5420
  616MOL0     H83100   9.382   2.305  10.256  1.4608  0.4147  0.9720
  616MOL0     H83101   9.467   2.087  10.461 -0.7711 -3.3912 -1.1298
  616MOL0     H83102   9.492   2.039  10.303  0.9590 -1.0159  2.2537
  616MOL0     H83103   9.629   2.288  10.439  0.1827  0.3689 -0.0700
  616MOL0     H83104   9.694   2.134  10.385  1.7509  2.8724  2.3629
  616MOL0     H83105   9.603   2.216  10.144 -1.4323 -1.4033  1.8594
  616MOL0     H83106   9.615   2.375  10.224 -1.8060 -0.3902  0.1257
  616MOL0     H83107   9.841   2.171  10.205  1.5672  0.8618  0.2417
  616MOL0     H83108   9.832   2.305  10.105  3.1387 -2.1079 -0.5445
  616MOL0     H83109   9.948   2.291  10.369  2.6899  0.8023 -1.6566
  616MOL0     H83110   9.817   2.417  10.373 -0.5500 -2.9529  2.1292
  616MOL0     H83111  10.187   2.373  10.283 -1.1174 -0.1549  2.3801
  616MOL0     H83112  10.363   2.569  10.229 -2.0692  1.4233  3.2364
  616MOL0     H83113  10.314   2.587  10.051 -1.4245 -2.1455  0.0972
  616MOL0     H83114  10.271   2.777  10.282 -2.7076 -1.4477 -0.8128
  616MOL0     H83115  10.206   2.814  10.118  0.6052 -0.1734 -1.0262
  616MOL0     H83116  10.410   2.833  10.021 -1.4933  2.6842 -0.0092
  616MOL0     H83117  10.504   2.832  10.167  0.8479 -0.4401 -0.6882
  616MOL0     H83118  10.283   3.019  10.099  0.1166 -1.3312 -0.9766
  616MOL0     H83119  10.457   3.049  10.115  1.3137 -1.5351  1.2779
  616MOL0     H83120  10.280   3.061  10.546 -1.5558 -0.3508  0.9306
  616MOL0     H83121  10.158   3.317  10.726 -1.0060 -0.7212  1.1422
  616MOL0     H83122  10.249   3.171  10.746 -4.5362  0.5906  0.2527
  616MOL0     H83123  10.338   3.326  10.755  0.8655 -2.9325  0.8241
  616MOL0     H83124  10.601   3.668  10.606 -0.5874  0.1984  2.9060
  616MOL0     H83125  10.675   3.890  10.691 -3.5672 -1.1367  5.3257
  616MOL0     H83126  10.747   4.174  10.565 -0.8634 -2.4356 -4.1462
  616MOL0     H83127  10.611   4.222  10.468  0.0240 -1.1969 -0.5887
  616MOL0     H83128  10.688   4.329  10.738  3.7890  1.0226 -1.1908
  616MOL0     H83129  10.709   4.413  10.590 -1.3327  0.8046 -0.7605
  616MOL0     H83130  10.437   4.346  10.708 -0.3793 -0.1666 -0.2669
  616MOL0     H83131  10.466   4.406  10.549 -2.4590 -0.4905  1.4554
  616MOL0     H83132  10.559   4.581  10.782  1.5313 -3.6482 -0.0432
  616MOL0     H83133  10.549   4.614  10.607  1.0696 -1.4336  0.3131
  616MOL0     H83134  10.315   4.567  10.780 -0.9250 -0.2238 -0.0483
  616MOL0     H83135  10.304   4.601  10.600 -0.2767  1.7242  1.1488
  616MOL0     H83136  10.402   4.767  10.825  0.6888 -0.9811 -0.2855
  616MOL0     H83137  10.421   4.830  10.669 -0.9973  0.6592  1.0464
  616MOL0     H83138  10.141   4.738  10.773 -1.2775 -0.5957 -3.2572
  616MOL0     H83139  10.187   4.821  10.628 -0.0608  3.6993  0.2670
  616MOL0     H83140  10.275   5.015  10.787  0.0246  0.1012 -0.4574
  616MOL0     H83141  10.227   4.899  10.917  0.4483 -4.6136 -1.5298
  616MOL0     H83142  10.365   4.078  10.446 -0.0683  0.2772  0.8956
  616MOL0     H83143  10.290   3.853  10.378  1.1012 -0.6321 -0.8846
  616MOL0     H83144  10.337   3.482  10.287  0.2514 -0.9314 -1.0492
  616MOL0     H83145  10.372   3.260  10.173 -1.9455 -1.1893 -0.4021
  616MOL0     H83146   9.199   2.547  10.149  0.7154  0.3459  0.8771
  616MOL0     H83147   9.213   2.764  10.015 -1.0765  0.7400  0.1853
  616MOL0     H83148   9.645   3.139   9.961  1.2667  0.2153 -0.9964
  616MOL0     H83149   9.667   3.314   9.771 -0.8708  1.2180 -0.1818
  616MOL0     H83150   9.408   3.557   9.528  3.8132 -0.1870  3.5822
  616MOL0     H83151   9.285   3.432   9.557  1.0476  1.8857 -2.7210
  616MOL0     H83152   9.246   3.554   9.784  1.4046  0.8815  2.9802
  616MOL0     H83153   9.252   3.679   9.645 -1.0988 -1.9077  0.2265
  616MOL0     H83154   9.487   3.630   9.846 -1.1248 -1.6402 -0.0570
  616MOL0     H83155   9.337   3.732   9.864 -0.4618 -1.0334  0.3873
  616MOL0     H83156   9.534   3.737   9.618 -1.5764 -0.4722 -0.1618
  616MOL0     H83157   9.572   3.808   9.765  2.5853 -0.9965 -3.5331
  616MOL0     H83158   9.265   4.074   9.625 -0.7709 -0.4434  0.6004
  616MOL0     H83159   9.227   3.310   9.747 -0.9572  0.7334  2.9589
  616MOL0     H83160   9.226   3.138   9.917  1.2383  0.9486  3.0373
  617MOL0     O83161   2.038  11.413   4.779 -0.3968  0.1067  0.7893
  617MOL0     C83162   2.024  11.312   4.853 -0.1230  0.1487  0.0553
  617MOL0     O83163   2.121  11.258   4.925 -0.2474  0.3168  0.1909
  617MOL0     C83164   2.246  11.290   4.879  0.7463  0.2918 -0.2377
  617MOL0     C83165   2.305  11.201   4.785 -0.3938 -0.5616 -0.4780
  617MOL0     C83166   2.422  11.243   4.727 -0.1964  0.4003  0.1984
  617MOL0     C83167   2.484  11.362   4.744 -0.6936  0.4536  0.7787
  617MOL0     O83168   2.599  11.379   4.665 -0.2017  0.4175 -0.4259
  617MOL0     C83169   2.607  11.509   4.619 -0.0931 -0.6498  0.0475
  617MOL0     C83170   2.722  11.538   4.521  1.0553  0.6301 -0.7843
  617MOL0     C83171   2.848  11.492   4.592  0.1122  0.2859 -0.1854
  617MOL0     C83172   2.979  11.545   4.526  0.0265 -0.3386  0.4357
  617MOL0     C83173   3.001  11.693   4.529 -0.4200 -0.4519 -0.5082
  617MOL0     C83174   3.003  11.732   4.678  0.1571 -0.1605  0.5100
  617MOL0     C83175   3.042  11.876   4.678 -0.5269 -0.3476  0.6017
  617MOL0     C83176   3.032  11.958   4.806  0.5683 -0.1519  0.2987
  617MOL0     N83177   3.101  11.896   4.916  0.6620 -0.6807 -0.4366
  617MOL0     C83178   3.226  11.853   4.920 -0.7094  0.6163  0.0376
  617MOL0     C83179   3.243  11.783   5.037  0.9956  0.6980 -0.6522
  617MOL0     C83180   3.368  11.718   5.084  0.0650 -0.3569 -0.0485
  617MOL0     C83181   3.403  11.763   5.227  0.2347 -0.2110 -0.2833
  617MOL0     C83182   3.547  11.725   5.263 -0.9233 -0.8323  0.2270
  617MOL0     C83183   3.647  11.849   5.259 -0.3756  0.4421 -0.2965
  617MOL0     O83184   3.792  11.810   5.292  0.5081  0.0473 -0.1983
  617MOL0     C83185   3.892  11.903   5.285  0.5757 -0.1358 -0.2230
  617MOL0     C83186   3.869  12.032   5.242  0.0020  0.3329  0.7591
  617MOL0     C83187   3.967  12.121   5.211  0.0287 -0.5148  0.2909
  617MOL0     C83188   3.934  12.261   5.152 -0.0452 -0.6439  0.5643
  617MOL0     C83189   4.105  12.075   5.223  0.3081 -0.3552  0.1269
  617MOL0     C83190   4.229  12.161   5.196 -0.1496  0.2496 -0.9315
  617MOL0     O83191   4.345  12.083   5.190  0.1014  0.5313 -0.8972
  617MOL0     C83192   4.470  12.135   5.159 -0.0398  1.1743 -0.2617
  617MOL0     C83193   4.485  12.178   5.025 -0.5007 -0.1132  0.2771
  617MOL0     C83194   4.611  12.229   4.985 -0.4215 -0.3470 -0.1302
  617MOL0     C83195   4.714  12.222   5.076  0.5208  0.1475 -0.0765
  617MOL0     O83196   4.842  12.265   5.054 -0.2108  0.0172 -0.3284
  617MOL0     C83197   4.877  12.312   4.929  0.6623  1.0782  0.7307
  617MOL0     C83198   5.031  12.314   4.905  0.6953 -0.9179  0.0440
  617MOL0     C83199   5.074  12.377   4.767 -0.8764  0.0021 -0.2589
  617MOL0     C83200   5.231  12.412   4.765  0.1914  0.5752 -0.5650
  617MOL0     C83201   5.272  12.477   4.644 -0.1817  0.1471 -0.3704
  617MOL0     C83202   5.421  12.473   4.608  0.4311 -0.8036  1.0166
  617MOL0     C83203   5.521  12.537   4.721  0.3315  0.8558 -0.2048
  617MOL0     C83204   5.622  12.635   4.648 -0.1210 -0.0950  0.2622
  617MOL0    Cl83205   5.729  12.571   4.521  0.3293 -0.4037 -0.0566
  617MOL0     C83206   4.697  12.160   5.204 -0.1950  0.6338  0.2283
  617MOL0     C83207   4.572  12.136   5.241  1.1824  0.2020 -0.0136
  617MOL0     O83208   4.223  12.284   5.175 -0.9304 -0.8320  0.0379
  617MOL0     C83209   4.127  11.939   5.261  0.4824 -0.3949 -0.0307
  617MOL0     C83210   4.021  11.850   5.300  0.4456  0.0488  0.4678
  617MOL0     N83211   3.131  11.806   5.114  1.4748  0.1019 -0.4087
  617MOL0     N83212   3.046  11.874   5.037  0.1078  1.2594 -0.4436
  617MOL0     C83213   2.439  11.437   4.850 -0.4733  0.1521  0.1516
  617MOL0     C83214   2.328  11.400   4.927  0.7783  0.4747  0.0173
  617MOL0     C83215   1.887  11.261   4.848 -0.5334 -0.4225 -0.1293
  617MOL0     C83216   1.839  11.157   4.924 -0.0309 -0.4994 -0.0453
  617MOL0     C83217   1.704  11.117   4.921 -0.1843  0.6491 -0.0167
  617MOL0     C83218   1.622  11.161   4.822 -0.1106  0.1425 -0.3886
  617MOL0     O83219   1.492  11.107   4.800 -1.1778 -0.6699 -0.1825
  617MOL0     C83220   1.454  10.983   4.859  0.8617  0.1516 -0.1269
  617MOL0     C83221   1.403  11.031   5.006  0.3820  0.5369  0.3685
  617MOL0     C83222   1.254  10.981   5.038 -0.2005  0.5048  0.5184
  617MOL0     C83223   1.167  11.046   4.939 -0.9680  0.6913 -0.0475
  617MOL0     C83224   1.038  11.001   4.981  0.2131 -0.4149  0.3515
  617MOL0     C83225   0.935  10.966   5.033 -0.9767 -0.1802  0.8045
  617MOL0     C83226   1.661  11.267   4.746 -0.7191 -0.9301 -0.0125
  617MOL0     C83227   1.791  11.318   4.758 -0.0128  0.0794  0.6241
  617MOL0     H83228   2.255  11.109   4.754  1.0488 -2.3426  2.0434
  617MOL0     H83229   2.470  11.181   4.652  0.2546  0.4543  0.4344
  617MOL0     H83230   2.519  11.547   4.566  1.8528  4.0751 -0.3239
  617MOL0     H83231   2.620  11.576   4.705  0.3653  0.2052 -0.6640
  617MOL0     H83232   2.713  11.488   4.424 -3.9771 -2.0340  0.6655
  617MOL0     H83233   2.734  11.645   4.504 -1.0004  0.9917 -0.2859
  617MOL0     H83234   2.843  11.529   4.695 -0.8242 -2.8159  1.0204
  617MOL0     H83235   2.849  11.383   4.587 -3.2452  0.2202 -1.9622
  617MOL0     H83236   3.064  11.492   4.568  2.7926  3.3206 -0.0603
  617MOL0     H83237   2.981  11.512   4.422  1.5000 -1.2816  0.7473
  617MOL0     H83238   3.097  11.717   4.482  0.3925  2.4626  2.2859
  617MOL0     H83239   2.947  11.760   4.461  1.5710  2.6081  0.7073
  617MOL0     H83240   2.904  11.717   4.723  1.2987  1.4841  3.8579
  617MOL0     H83241   3.064  11.670   4.744 -3.7400 -1.4515  3.2891
  617MOL0     H83242   3.142  11.896   4.638 -0.5151  0.8242  1.1683
  617MOL0     H83243   2.969  11.922   4.611  0.9985  0.1160 -0.8084
  617MOL0     H83244   2.926  11.964   4.831  0.8863  2.6270  1.2318
  617MOL0     H83245   3.074  12.056   4.781  1.2210 -0.4146  0.3557
  617MOL0     H83246   3.293  11.866   4.835 -0.4221 -1.5299 -0.1183
  617MOL0     H83247   3.354  11.610   5.088 -3.3936  0.0181  1.4672
  617MOL0     H83248   3.450  11.757   5.023 -0.6342  0.9700 -0.1674
  617MOL0     H83249   3.327  11.704   5.280  0.1837 -0.7860 -0.9755
  617MOL0     H83250   3.388  11.868   5.252 -1.8457 -0.1432 -1.5581
  617MOL0     H83251   3.577  11.633   5.213 -0.3905 -1.8513  2.3036
  617MOL0     H83252   3.545  11.700   5.369 -2.8341 -3.9242 -0.4246
  617MOL0     H83253   3.609  11.929   5.323 -0.6737 -1.7077  2.4014
  617MOL0     H83254   3.668  11.875   5.155  1.4283 -0.5856 -0.2439
  617MOL0     H83255   3.766  12.064   5.241  0.3225  2.2794  5.1064
  617MOL0     H83256   3.847  12.247   5.087  0.9306  0.8838 -1.1848
  617MOL0     H83257   3.917  12.335   5.230  0.8690  0.3420 -0.1340
  617MOL0     H83258   4.008  12.297   5.080 -1.9046  0.6517 -0.7887
  617MOL0     H83259   4.399  12.168   4.960 -2.4430 -0.3306  2.7252
  617MOL0     H83260   4.617  12.254   4.880  3.6220 -2.1944 -0.5286
  617MOL0     H83261   4.829  12.236   4.866 -0.9285 -0.6395  3.7759
  617MOL0     H83262   4.838  12.413   4.915 -0.2448  0.9314  2.0079
  617MOL0     H83263   5.084  12.368   4.983  1.2699 -0.2735 -0.7742
  617MOL0     H83264   5.078  12.215   4.915 -0.4414 -1.4094  0.6856
  617MOL0     H83265   5.014  12.467   4.747  0.1187  1.0093  1.0089
  617MOL0     H83266   5.052  12.303   4.690  0.1988 -1.6769  0.9735
  617MOL0     H83267   5.236  12.489   4.843  0.7809 -1.5602  1.6404
  617MOL0     H83268   5.301  12.333   4.793 -1.0633 -0.9682 -1.6309
  617MOL0     H83269   5.241  12.581   4.638  0.4544  0.4773  1.4274
  617MOL0     H83270   5.235  12.424   4.555 -0.4873 -1.4180  0.6428
  617MOL0     H83271   5.456  12.377   4.570  2.2542 -0.0863  0.7924
  617MOL0     H83272   5.431  12.541   4.523  1.6924  0.0863  1.8396
  617MOL0     H83273   5.556  12.455   4.784 -2.7350  0.9587  1.8698
  617MOL0     H83274   5.461  12.602   4.785  2.1159 -0.2660  2.7891
  617MOL0     H83275   5.692  12.667   4.726  1.7314 -0.9868 -0.9512
  617MOL0     H83276   5.557  12.714   4.609  1.0949  0.7746 -0.0573
  617MOL0     H83277   4.780  12.147   5.273  1.0186 -3.3489 -1.6531
  617MOL0     H83278   4.558  12.121   5.347  1.9293  0.8548  0.1810
  617MOL0     H83279   4.226  11.895   5.264 -0.1014 -1.7414  0.2515
  617MOL0     H83280   4.035  11.747   5.328  0.0046 -0.2795 -0.4709
  617MOL0     H83281   2.490  11.523   4.892  0.1676 -1.3620  2.6572
  617MOL0     H83282   2.283  11.451   5.012 -2.1473 -0.7588 -0.6715
  617MOL0     H83283   1.899  11.131   5.011 -0.0939 -0.5641 -0.0210
  617MOL0     H83284   1.670  11.051   5.001 -0.6408  1.1954  0.2470
  617MOL0     H83285   1.374  10.941   4.797 -2.7780  1.9638  2.9780
  617MOL0     H83286   1.535  10.910   4.869 -0.0761 -0.7621  1.0536
  617MOL0     H83287   1.410  11.140   5.012  0.2287  0.5541  0.2489
  617MOL0     H83288   1.471  10.985   5.079  2.0638 -0.3203 -1.6434
  617MOL0     H83289   1.230  11.017   5.139  0.4240  2.2028  0.0990
  617MOL0     H83290   1.256  10.872   5.045 -3.2105  0.4508  4.0408
  617MOL0     H83291   1.184  11.026   4.833 -1.4680 -1.2008  0.1995
  617MOL0     H83292   1.182  11.153   4.959  1.6835  0.1637  1.2561
  617MOL0     H83293   0.863  10.925   5.100 -0.7561 -1.7118  0.1295
  617MOL0     H83294   1.591  11.319   4.682  0.6086  1.9948  0.7789
  617MOL0     H83295   1.814  11.404   4.695 -5.0801  0.7338 -0.8263
  618MOL0     O83296   3.089   1.730   0.354 -0.0384 -0.2008 -0.6242
  618MOL0     C83297   3.104   1.785   0.465 -0.0291  0.4650  0.2030
  618MOL0     O83298   3.000   1.848   0.534 -0.6807 -0.0633 -0.3368
  618MOL0     C83299   2.883   1.864   0.480  0.0838  0.2855  0.5401
  618MOL0     C83300   2.836   1.985   0.444  0.6923  1.5989  0.3099
  618MOL0     C83301   2.710   1.998   0.391  0.0978  0.0206  0.1199
  618MOL0     C83302   2.620   1.894   0.368  0.4838 -1.4541 -0.4544
  618MOL0     O83303   2.500   1.929   0.310 -0.3357  0.1290  0.5604
  618MOL0     C83304   2.400   1.826   0.311  0.7559 -0.0870 -0.1576
  618MOL0     C83305   2.283   1.861   0.217  0.0805 -0.4575 -0.7829
  618MOL0     C83306   2.223   2.004   0.240  0.3936  0.2333 -0.4449
  618MOL0     C83307   2.115   2.040   0.141 -0.5539 -0.6480  0.3866
  618MOL0     C83308   2.058   2.189   0.160 -0.0209 -0.0968  0.8459
  618MOL0     C83309   1.916   2.175   0.091  0.0128  1.1392  0.8969
  618MOL0     C83310   1.816   2.289   0.065  1.3366  0.2347 -1.1437
  618MOL0     C83311   1.662   2.260   0.068 -0.3035 -0.8603  0.2546
  618MOL0     N83312   1.624   2.165  -0.045  0.5434  0.5463  0.6256
  618MOL0     C83313   1.652   2.170  -0.177  0.2106  0.7244 -0.3939
  618MOL0     C83314   1.578   2.073  -0.233 -0.9427  1.1576  1.0933
  618MOL0     C83315   1.595   2.018  -0.372  0.2962  0.6180 -0.2641
  618MOL0     C83316   1.710   1.932  -0.375 -0.6435  0.2067  0.5106
  618MOL0     C83317   1.685   1.791  -0.323  0.4615 -0.1538 -0.2295
  618MOL0     C83318   1.747   1.684  -0.407  0.0266  0.5020 -0.4199
  618MOL0     O83319   1.721   1.550  -0.369  0.3025 -0.0008 -0.6132
  618MOL0     C83320   1.600   1.483  -0.388 -0.1410 -0.3016 -0.3095
  618MOL0     C83321   1.597   1.358  -0.321  0.8262  0.0667 -0.3393
  618MOL0     C83322   1.482   1.278  -0.313 -0.4145 -0.0202  0.2971
  618MOL0     C83323   1.479   1.153  -0.228 -0.3393 -0.0696  0.7800
  618MOL0     C83324   1.373   1.325  -0.391  0.4384 -0.3657 -0.2531
  618MOL0     C83325   1.246   1.253  -0.403  0.3983  0.4062 -0.7232
  618MOL0     O83326   1.131   1.327  -0.390 -0.4014  0.1528 -0.1471
  618MOL0     C83327   1.006   1.264  -0.428  0.1597  0.3044 -0.3160
  618MOL0     C83328   0.973   1.136  -0.383  0.7933  0.1268 -0.5279
  618MOL0     C83329   0.854   1.075  -0.420  1.0106 -0.2528 -0.7551
  618MOL0     C83330   0.752   1.150  -0.482  0.0632 -0.6854 -0.5528
  618MOL0     O83331   0.632   1.090  -0.502 -0.5696  0.0742 -0.2787
  618MOL0     C83332   0.522   1.158  -0.432 -1.0599 -0.4575  0.5272
  618MOL0     C83333   0.405   1.073  -0.425 -0.8438  0.1237 -0.3859
  618MOL0     C83334   0.308   1.129  -0.318  0.0157 -0.4450 -1.1090
  618MOL0     C83335   0.186   1.042  -0.287 -0.2211 -0.9992  1.0222
  618MOL0     C83336   0.085   1.102  -0.195  0.1997 -0.2837  0.2523
  618MOL0     C83337  -0.046   1.025  -0.185  0.0816 -0.0948 -0.4673
  618MOL0     C83338  -0.146   1.111  -0.105 -0.4749  0.7062  0.7036
  618MOL0     C83339  -0.250   1.018  -0.051 -0.3118  1.2996  1.0522
  618MOL0    Cl83340  -0.380   0.960  -0.156 -0.2272  0.3361 -0.2921
  618MOL0     C83341   0.787   1.279  -0.525  0.1467  0.1345  0.4245
  618MOL0     C83342   0.913   1.337  -0.501  0.0578  0.1679 -0.6787
  618MOL0     O83343   1.248   1.138  -0.444  0.0419  0.6294 -0.2649
  618MOL0     C83344   1.374   1.458  -0.447  0.2535 -0.2190 -0.0934
  618MOL0     C83345   1.484   1.538  -0.445  0.2925  0.0428 -0.0655
  618MOL0     N83346   1.496   2.013  -0.135 -0.0671  0.8781 -0.5629
  618MOL0     N83347   1.531   2.067  -0.023  0.0551  0.1315  0.0185
  618MOL0     C83348   2.663   1.770   0.411 -0.1892  0.0290  0.2015
  618MOL0     C83349   2.798   1.754   0.465  0.9551  0.4010 -0.1371
  618MOL0     C83350   3.244   1.797   0.507 -0.4530  0.3689 -0.7624
  618MOL0     C83351   3.275   1.899   0.590 -0.0554  0.0844 -0.6288
  618MOL0     C83352   3.411   1.909   0.640  0.5689  0.1558  0.7702
  618MOL0     C83353   3.510   1.809   0.608  0.3078  0.5940  0.5120
  618MOL0     O83354   3.642   1.807   0.646  0.2084  0.2202 -0.2538
  618MOL0     C83355   3.681   1.910   0.747  0.0938  0.6623  0.8133
  618MOL0     C83356   3.817   1.877   0.807 -0.7208  0.7265  1.2332
  618MOL0     C83357   3.934   1.864   0.705 -0.5058 -0.5332 -0.6334
  618MOL0     C83358   4.063   1.869   0.788 -0.9443  0.0938 -0.0610
  618MOL0     C83359   4.164   1.929   0.700 -0.7099 -0.1505  0.2912
  618MOL0     C83360   4.252   1.976   0.629  0.7651 -0.1697 -0.6326
  618MOL0     C83361   3.477   1.720   0.510  0.3405 -0.1614 -0.2800
  618MOL0     C83362   3.346   1.715   0.461  0.2441  0.4599  0.0164
  618MOL0     H83363   2.895   2.074   0.464 -1.9595  2.9424  2.9496
  618MOL0     H83364   2.687   2.103   0.375  0.3445 -0.0252 -0.5350
  618MOL0     H83365   2.442   1.728   0.288  2.7804  0.1497  2.0719
  618MOL0     H83366   2.346   1.826   0.406 -2.3836  3.3496 -1.6969
  618MOL0     H83367   2.325   1.856   0.117  1.9164 -0.9383 -0.0363
  618MOL0     H83368   2.198   1.792   0.218  0.3684 -0.8094  0.1901
  618MOL0     H83369   2.177   2.017   0.338  0.8082  1.5177 -0.3975
  618MOL0     H83370   2.304   2.077   0.239 -0.0214  0.7110  0.1964
  618MOL0     H83371   2.140   2.025   0.035 -0.4331 -2.9422  0.6959
  618MOL0     H83372   2.034   1.967   0.148 -1.6717  0.1562 -2.4479
  618MOL0     H83373   2.044   2.223   0.263  4.8795  2.1062  1.0933
  618MOL0     H83374   2.128   2.260   0.115 -2.2717  1.4127 -0.4552
  618MOL0     H83375   1.919   2.126  -0.006  0.5451 -0.8296  1.8524
  618MOL0     H83376   1.861   2.096   0.142  1.2598 -1.4672 -1.5143
  618MOL0     H83377   1.842   2.357   0.147  0.1706  0.3198 -0.8379
  618MOL0     H83378   1.828   2.351  -0.025 -1.3694 -0.1132 -1.8313
  618MOL0     H83379   1.596   2.348   0.067 -0.9658 -1.3500  0.0826
  618MOL0     H83380   1.643   2.216   0.166  1.3321 -0.9665  0.5436
  618MOL0     H83381   1.736   2.210  -0.233  0.4250 -1.1852 -1.5417
  618MOL0     H83382   1.500   1.970  -0.399  0.5597  0.8022 -1.5987
  618MOL0     H83383   1.616   2.096  -0.446 -0.9123  4.0700  2.7414
  618MOL0     H83384   1.789   1.976  -0.314 -1.1718  1.4660  0.3073
  618MOL0     H83385   1.749   1.925  -0.477  1.0166  0.7543  1.0787
  618MOL0     H83386   1.577   1.772  -0.328  0.4754 -0.7595  1.3260
  618MOL0     H83387   1.721   1.767  -0.223  3.1053 -2.5097 -1.6186
  618MOL0     H83388   1.856   1.695  -0.400  0.1242 -1.2059  4.0422
  618MOL0     H83389   1.704   1.699  -0.506 -2.9082  0.7603  0.7916
  618MOL0     H83390   1.682   1.338  -0.256  1.2085  1.9147 -0.2121
  618MOL0     H83391   1.463   1.069  -0.297  1.0052  1.1029 -1.0408
  618MOL0     H83392   1.566   1.142  -0.164  2.1948  0.1261 -2.3598
  618MOL0     H83393   1.382   1.144  -0.178 -0.6394  1.7250  0.5847
  618MOL0     H83394   1.055   1.078  -0.342  0.4371 -1.3623 -1.8342
  618MOL0     H83395   0.827   0.978  -0.379 -0.6324 -0.5122 -2.3117
  618MOL0     H83396   0.559   1.194  -0.335 -2.6270 -1.9095  1.7220
  618MOL0     H83397   0.483   1.248  -0.481  0.1356  0.8204  1.7868
  618MOL0     H83398   0.350   1.068  -0.519 -1.5475 -3.6491  0.0774
  618MOL0     H83399   0.434   0.971  -0.398  2.9638  0.7737 -1.4840
  618MOL0     H83400   0.285   1.232  -0.345  0.4750 -0.4076 -1.3696
  618MOL0     H83401   0.350   1.145  -0.218 -0.0286  0.9023 -1.2864
  618MOL0     H83402   0.122   1.023  -0.374 -0.3280  0.2831  0.8002
  618MOL0     H83403   0.211   0.946  -0.239 -0.2159 -2.4514 -1.6719
  618MOL0     H83404   0.072   1.208  -0.220 -0.8217 -0.4528  0.0541
  618MOL0     H83405   0.137   1.117  -0.100 -0.6843  2.1529  0.4215
  618MOL0     H83406  -0.087   1.001  -0.284  0.9306  3.9090 -1.9985
  618MOL0     H83407  -0.039   0.927  -0.137 -2.3103 -0.4918 -0.7893
  618MOL0     H83408  -0.190   1.188  -0.169 -0.8098  1.0096  1.2946
  618MOL0     H83409  -0.094   1.161  -0.023 -0.4203  2.6739 -0.4708
  618MOL0     H83410  -0.286   1.060   0.043 -2.7330  1.9749 -0.0792
  618MOL0     H83411  -0.186   0.935  -0.021  1.3174  3.2334  3.2388
  618MOL0     H83412   0.718   1.329  -0.593 -1.3543 -0.1293  1.6871
  618MOL0     H83413   0.945   1.427  -0.551  1.6771  1.3097  2.1305
  618MOL0     H83414   1.286   1.500  -0.495 -0.0224 -1.2680 -0.5382
  618MOL0     H83415   1.485   1.635  -0.493  2.7221 -0.0329 -0.2677
  618MOL0     H83416   2.608   1.676   0.402  2.2797 -1.4867 -0.1191
  618MOL0     H83417   2.844   1.664   0.504  3.0914  1.8113  0.7848
  618MOL0     H83418   3.190   1.962   0.614 -0.8086  0.9899 -4.9692
  618MOL0     H83419   3.443   1.982   0.713 -0.5250  3.7122 -2.0221
  618MOL0     H83420   3.693   2.002   0.689  0.3238 -0.9803 -1.9085
  618MOL0     H83421   3.610   1.913   0.830  1.0157 -1.1659  1.7171
  618MOL0     H83422   3.808   1.788   0.870 -3.0014 -1.1830 -1.5284
  618MOL0     H83423   3.839   1.966   0.867 -0.1484  2.1466 -0.9640
  618MOL0     H83424   3.924   1.937   0.624 -0.6608  5.2795  3.9917
  618MOL0     H83425   3.926   1.763   0.662  3.2798 -0.7880 -1.0479
  618MOL0     H83426   4.099   1.770   0.817  1.3574  1.3189  1.5430
  618MOL0     H83427   4.053   1.927   0.880  1.1472  1.4206 -0.5818
  618MOL0     H83428   4.322   2.028   0.568  0.9542 -1.6925 -1.7946
  618MOL0     H83429   3.535   1.636   0.473 -0.5715 -0.6905 -0.5443
  618MOL0     H83430   3.331   1.635   0.388 -1.0783 -0.0048  0.7702
  619MOL0     O83431   2.785   3.820   7.983  0.3778 -1.0153 -0.3379
  619MOL0     C83432   2.697   3.776   8.049  0.4363  0.3751 -0.2233
  619MOL0     O83433   2.599   3.690   8.006  0.5709 -0.2327 -0.9418
  619MOL0     C83434   2.588   3.668   7.869  0.3022 -0.4149 -0.1252
  619MOL0     C83435   2.556   3.767   7.771  0.3218  0.0138 -0.1392
  619MOL0     C83436   2.540   3.728   7.631 -0.2126  0.3525 -0.0847
  619MOL0     C83437   2.566   3.596   7.593  0.2097  0.2768  0.1794
  619MOL0     O83438   2.566   3.565   7.456  0.1633 -0.0200 -0.3227
  619MOL0     C83439   2.670   3.471   7.401  0.2813  0.5382 -0.2622
  619MOL0     C83440   2.609   3.330   7.360  0.7630  0.4036  0.4443
  619MOL0     C83441   2.730   3.240   7.321  0.1149 -0.4365 -0.6899
  619MOL0     C83442   2.737   3.112   7.403  0.3155  0.9728 -0.6422
  619MOL0     C83443   2.609   3.029   7.371  0.0176  0.3489  0.2017
  619MOL0     C83444   2.619   2.889   7.426  0.0700  0.0991 -0.7297
  619MOL0     C83445   2.481   2.826   7.421  0.1995  0.9890 -0.2451
  619MOL0     C83446   2.495   2.677   7.469 -0.0730 -1.1214 -0.6357
  619MOL0     N83447   2.603   2.589   7.411 -0.0322 -0.2435 -0.2327
  619MOL0     C83448   2.593   2.491   7.312 -0.3965 -0.0681 -0.0236
  619MOL0     C83449   2.724   2.441   7.306 -0.1873 -0.9516  0.1982
  619MOL0     C83450   2.779   2.347   7.203  1.0540  0.3380 -0.5955
  619MOL0     C83451   2.850   2.225   7.253  0.5000 -0.5316 -0.5035
  619MOL0     C83452   2.764   2.150   7.355 -0.3270 -0.6785 -1.0377
  619MOL0     C83453   2.620   2.127   7.316  0.4558  0.7324 -0.3175
  619MOL0     O83454   2.574   2.014   7.390 -0.3774  0.6202 -0.1570
  619MOL0     C83455   2.434   1.988   7.401  0.9175  0.2538 -0.0678
  619MOL0     C83456   2.387   1.879   7.479  0.9315  0.0709  0.7547
  619MOL0     C83457   2.255   1.871   7.519  0.8333  1.2437 -0.3137
  619MOL0     C83458   2.212   1.743   7.601 -0.1889 -0.1404 -0.2592
  619MOL0     C83459   2.160   1.966   7.482  0.2486  0.8352 -0.1303
  619MOL0     C83460   2.016   1.987   7.524 -0.0389 -0.5178 -0.3077
  619MOL0     O83461   1.938   2.069   7.444  0.0627 -0.4973 -0.1436
  619MOL0     C83462   1.808   2.092   7.483 -0.8215  0.0219 -0.6031
  619MOL0     C83463   1.767   2.127   7.620 -0.2632 -0.8791  0.2559
  619MOL0     C83464   1.634   2.153   7.646  0.0138 -0.4810  0.6861
  619MOL0     C83465   1.535   2.146   7.542  0.9183  0.3601  0.0348
  619MOL0     O83466   1.406   2.165   7.579  0.3171 -0.2852  0.1000
  619MOL0     C83467   1.339   2.281   7.520  0.0697 -0.2078 -1.0627
  619MOL0     C83468   1.287   2.366   7.639  0.1470 -0.3133  0.4113
  619MOL0     C83469   1.235   2.494   7.584 -0.5274  0.4544 -0.2861
  619MOL0     C83470   1.260   2.615   7.674  0.9351  0.3962  0.4780
  619MOL0     C83471   1.195   2.610   7.823 -0.0428  0.7166  0.6029
  619MOL0     C83472   1.202   2.745   7.896  1.0919  0.7988  0.9756
  619MOL0     C83473   1.126   2.743   8.029 -0.1622  0.8079  0.5894
  619MOL0     C83474   1.162   2.858   8.124  0.1273 -0.1397 -0.0333
  619MOL0    Cl83475   1.276   2.813   8.241 -0.7547 -0.0916 -0.6517
  619MOL0     C83476   1.580   2.123   7.409  0.3911  0.8855 -0.6280
  619MOL0     C83477   1.711   2.099   7.382  0.6920 -0.6095  0.1482
  619MOL0     O83478   1.969   1.912   7.606  0.6391 -0.1887  0.0590
  619MOL0     C83479   2.208   2.078   7.401  0.5474 -0.2969 -0.3053
  619MOL0     C83480   2.340   2.088   7.367 -1.3730  0.3630 -1.2082
  619MOL0     N83481   2.786   2.489   7.421  0.2396  1.4914  0.1264
  619MOL0     N83482   2.721   2.577   7.479 -0.1289  0.6612 -0.2875
  619MOL0     C83483   2.584   3.498   7.690 -0.1204 -0.1919 -0.0557
  619MOL0     C83484   2.603   3.535   7.823 -0.2294 -0.3534 -0.5749
  619MOL0     C83485   2.719   3.785   8.200 -0.5077  0.0573  0.3248
  619MOL0     C83486   2.651   3.709   8.294  0.1120 -0.3777  0.7554
  619MOL0     C83487   2.663   3.727   8.434 -0.0559  1.2205 -0.5224
  619MOL0     C83488   2.764   3.812   8.480  0.5696  0.5514  0.0455
  619MOL0     O83489   2.782   3.837   8.612  0.0590  0.8103  0.4238
  619MOL0     C83490   2.831   3.729   8.702  0.1034  0.4354  0.9660
  619MOL0     C83491   2.920   3.791   8.801 -0.5614 -0.7817 -0.6957
  619MOL0     C83492   3.044   3.851   8.734 -0.3047 -0.5129  0.6164
  619MOL0     C83493   3.130   3.918   8.833 -0.1461 -0.0835 -0.8466
  619MOL0     C83494   3.262   3.963   8.784  1.1264 -0.0983 -0.3884
  619MOL0     C83495   3.365   4.009   8.739 -0.2543 -0.2995 -1.2670
  619MOL0     C83496   2.836   3.890   8.390  0.3464 -0.5157  0.5482
  619MOL0     C83497   2.817   3.873   8.255 -0.6808  0.0969  0.1879
  619MOL0     H83498   2.539   3.871   7.797 -1.5235 -0.3860  0.3760
  619MOL0     H83499   2.547   3.804   7.554  1.6965  1.3409  0.9903
  619MOL0     H83500   2.704   3.527   7.313  1.9043 -0.4937 -0.3329
  619MOL0     H83501   2.751   3.468   7.474 -1.0847 -2.7610  1.2659
  619MOL0     H83502   2.549   3.289   7.442 -0.0105 -1.9054 -1.1565
  619MOL0     H83503   2.549   3.348   7.270  1.1619  0.2167  0.1396
  619MOL0     H83504   2.697   3.204   7.223 -5.9996  1.6912  0.1412
  619MOL0     H83505   2.824   3.295   7.324  0.4557 -0.9231 -1.9640
  619MOL0     H83506   2.825   3.053   7.377 -1.0797 -0.0135 -3.5174
  619MOL0     H83507   2.743   3.146   7.507 -2.3363  3.2240 -1.1044
  619MOL0     H83508   2.518   3.081   7.403  0.7523  1.7312  0.1130
  619MOL0     H83509   2.606   3.022   7.262  0.9763  0.7157  0.1416
  619MOL0     H83510   2.695   2.830   7.374  0.3291 -1.0836  0.9326
  619MOL0     H83511   2.638   2.894   7.533 -1.2077 -1.1766 -0.4144
  619MOL0     H83512   2.410   2.887   7.477  1.1043  2.0416 -0.1967
  619MOL0     H83513   2.445   2.818   7.318 -0.8935  3.4787 -0.1254
  619MOL0     H83514   2.400   2.629   7.444  0.8023 -3.3120  0.0314
  619MOL0     H83515   2.511   2.670   7.577  1.6015 -0.1081 -0.7688
  619MOL0     H83516   2.509   2.472   7.246 -1.4214 -0.6320  1.3946
  619MOL0     H83517   2.693   2.304   7.150  0.4969  0.5220  0.1496
  619MOL0     H83518   2.851   2.391   7.133 -0.4831 -0.5303 -2.8377
  619MOL0     H83519   2.951   2.241   7.290 -0.0936 -0.5196  1.2112
  619MOL0     H83520   2.865   2.163   7.163 -0.1334  1.9982 -2.4661
  619MOL0     H83521   2.759   2.209   7.447 -2.4446  1.5453 -2.4583
  619MOL0     H83522   2.818   2.056   7.368  2.8468  1.3456  2.2376
  619MOL0     H83523   2.617   2.105   7.209 -0.4926 -0.4975 -0.0591
  619MOL0     H83524   2.554   2.207   7.351 -2.2113 -1.2974 -0.4279
  619MOL0     H83525   2.459   1.804   7.510  1.5108  1.1656  2.1736
  619MOL0     H83526   2.178   1.774   7.700 -0.4747 -3.0275  0.6193
  619MOL0     H83527   2.134   1.688   7.547  0.5432 -2.9539  1.3533
  619MOL0     H83528   2.289   1.667   7.614 -2.5085 -2.3196  1.7682
  619MOL0     H83529   1.833   2.134   7.706 -0.1321 -1.2291  0.1838
  619MOL0     H83530   1.602   2.170   7.748 -0.6109  0.1245  0.3983
  619MOL0     H83531   1.401   2.339   7.450 -0.7787  6.5404  2.8608
  619MOL0     H83532   1.245   2.247   7.477 -0.7915  2.4145 -1.4209
  619MOL0     H83533   1.195   2.325   7.682 -1.4420  1.4567 -1.0953
  619MOL0     H83534   1.354   2.374   7.725 -2.4941  1.0066  2.5183
  619MOL0     H83535   1.127   2.487   7.574 -0.5250  2.4718 -2.5884
  619MOL0     H83536   1.270   2.526   7.485  2.4121  0.5839  0.6819
  619MOL0     H83537   1.366   2.625   7.700  1.1989 -0.9936  0.0102
  619MOL0     H83538   1.231   2.702   7.614  2.2781  0.5137 -0.0380
  619MOL0     H83539   1.251   2.529   7.871  0.4693  0.5604 -0.2510
  619MOL0     H83540   1.090   2.577   7.820  0.2766 -0.4159  1.3954
  619MOL0     H83541   1.307   2.769   7.916  1.2983 -0.7597  1.9369
  619MOL0     H83542   1.163   2.824   7.832 -0.9957 -0.8912  0.0374
  619MOL0     H83543   1.130   2.644   8.074 -2.0539  0.0229 -0.8752
  619MOL0     H83544   1.021   2.759   8.006 -0.3123  0.7362  1.1896
  619MOL0     H83545   1.075   2.897   8.177  0.5335  0.0182  0.5219
  619MOL0     H83546   1.200   2.947   8.073 -1.8117  0.9107  0.2967
  619MOL0     H83547   1.503   2.117   7.332 -1.4309 -0.1250  1.1726
  619MOL0     H83548   1.734   2.096   7.276  2.2488  2.1377  0.3180
  619MOL0     H83549   2.148   2.156   7.357 -0.0090 -1.8369 -2.4185
  619MOL0     H83550   2.362   2.181   7.316 -2.4126  1.9239  1.0377
  619MOL0     H83551   2.595   3.393   7.665 -1.0601  0.0226 -1.4987
  619MOL0     H83552   2.624   3.452   7.890 -1.6519 -0.2596  0.0356
  619MOL0     H83553   2.581   3.635   8.257 -0.2957  0.5405 -0.3714
  619MOL0     H83554   2.609   3.664   8.504 -0.4850 -2.3397 -3.7268
  619MOL0     H83555   2.749   3.676   8.752  0.8313 -0.8690  0.8213
  619MOL0     H83556   2.891   3.666   8.635 -1.7218 -0.5585  0.2070
  619MOL0     H83557   2.954   3.707   8.861  4.2050  1.1294 -0.3097
  619MOL0     H83558   2.865   3.863   8.863 -0.9917 -0.8867 -0.9521
  619MOL0     H83559   3.009   3.930   8.666 -0.3176 -0.2227  0.9587
  619MOL0     H83560   3.102   3.775   8.681 -0.0053 -1.3380  2.1074
  619MOL0     H83561   3.152   3.845   8.911 -0.6977 -0.1605 -0.7613
  619MOL0     H83562   3.078   4.000   8.885  2.9175  1.8533 -0.5530
  619MOL0     H83563   3.458   4.044   8.701  1.2381 -1.4027  1.1496
  619MOL0     H83564   2.900   3.969   8.429  0.8232 -0.3859 -0.4703
  619MOL0     H83565   2.869   3.930   8.179 -1.7656 -2.0004 -2.2472
  620MOL0     O83566  11.082   2.976   7.860 -0.3543  0.4223  0.0014
  620MOL0     C83567  11.127   3.082   7.898  0.4622  0.7982 -0.0353
  620MOL0     O83568  11.213   3.097   8.002  0.0650  0.5453 -0.5523
  620MOL0     C83569  11.278   2.989   8.043 -0.0800 -0.1807  0.1042
  620MOL0     C83570  11.353   2.909   7.961 -0.0225 -0.0638  0.2266
  620MOL0     C83571  11.415   2.792   8.013 -0.0322 -0.7295 -0.0403
  620MOL0     C83572  11.400   2.751   8.146 -0.2016 -1.4540 -0.3853
  620MOL0     O83573  11.454   2.641   8.199 -0.2381  0.0401 -0.2300
  620MOL0     C83574  11.580   2.586   8.148  1.0354  0.6170  0.1303
  620MOL0     C83575  11.692   2.673   8.199 -0.2748 -0.1911 -0.2033
  620MOL0     C83576  11.722   2.635   8.351  0.2666  0.1665  0.2940
  620MOL0     C83577  11.851   2.690   8.412  0.1152 -0.2768 -0.5996
  620MOL0     C83578  11.864   2.644   8.567  0.2461  0.6556  0.1586
  620MOL0     C83579  11.989   2.701   8.637  0.4060 -0.7019 -0.3031
  620MOL0     C83580  11.981   2.703   8.793  0.0188 -0.1470 -0.0271
  620MOL0     C83581  12.111   2.752   8.859  0.7242 -0.0744  0.4647
  620MOL0     N83582  12.129   2.702   8.994  0.8836  0.1268 -0.7000
  620MOL0     C83583  12.188   2.777   9.097 -0.4105 -0.9903 -0.5817
  620MOL0     C83584  12.187   2.688   9.205  0.4065 -0.3990  0.0480
  620MOL0     C83585  12.264   2.731   9.326  0.0045 -0.8325  0.6081
  620MOL0     C83586  12.173   2.747   9.448  0.3574  0.3224 -0.6503
  620MOL0     C83587  12.045   2.830   9.438 -0.1927 -0.0423  0.0012
  620MOL0     C83588  11.972   2.853   9.577 -0.8865 -0.5105  0.6735
  620MOL0     O83589  11.918   2.721   9.620 -0.0984 -0.1547 -0.2040
  620MOL0     C83590  11.898   2.700   9.752  0.5980  0.5801  0.2543
  620MOL0     C83591  11.851   2.805   9.845  0.2055  0.2665  1.4868
  620MOL0     C83592  11.795   2.777   9.967  0.2167 -0.3182  0.0682
  620MOL0     C83593  11.727   2.882  10.042 -0.6390 -0.5254  0.0721
  620MOL0     C83594  11.788   2.641  10.007  0.7549  0.0864  1.2365
  620MOL0     C83595  11.736   2.580  10.137 -1.0576  0.2160 -0.3796
  620MOL0     O83596  11.711   2.446  10.143  0.6017  0.2789 -0.2846
  620MOL0     C83597  11.613   2.397  10.227 -0.0935  0.3736 -0.9762
  620MOL0     C83598  11.489   2.462  10.238  0.6498 -0.5287 -0.0470
  620MOL0     C83599  11.393   2.397  10.322 -0.5964 -0.3577  0.1420
  620MOL0     C83600  11.415   2.276  10.388  0.0965 -0.0985 -0.8309
  620MOL0     O83601  11.329   2.209  10.476  0.1609 -0.6388 -0.5632
  620MOL0     C83602  11.201   2.267  10.496  0.3968  0.6859  0.2777
  620MOL0     C83603  11.118   2.152  10.550  0.1936 -0.2705  0.1194
  620MOL0     C83604  10.968   2.166  10.551  1.0191 -0.6379 -0.0859
  620MOL0     C83605  10.902   2.241  10.675 -0.1015  0.5087  1.0821
  620MOL0     C83606  10.753   2.278  10.651  1.2615  0.1365 -0.1192
  620MOL0     C83607  10.679   2.170  10.574  0.5300 -0.0867 -0.0168
  620MOL0     C83608  10.527   2.169  10.598  0.4465 -0.5259 -0.0810
  620MOL0     C83609  10.463   2.029  10.605 -0.3971  0.3991  0.2905
  620MOL0    Cl83610  10.287   2.020  10.609 -0.0807 -0.0199  0.3703
  620MOL0     C83611  11.541   2.216  10.364 -0.2588  0.4042 -1.0947
  620MOL0     C83612  11.640   2.279  10.299  1.0946 -0.2138 -0.3471
  620MOL0     O83613  11.707   2.664  10.222 -0.3142  0.7759 -1.3434
  620MOL0     C83614  11.844   2.543   9.922  0.1449 -0.7443  0.1679
  620MOL0     C83615  11.891   2.572   9.801 -0.3112 -0.3879  1.1386
  620MOL0     N83616  12.132   2.570   9.169 -0.1078  0.3285 -0.4346
  620MOL0     N83617  12.100   2.581   9.045  0.0612 -0.1239  1.0338
  620MOL0     C83618  11.311   2.824   8.221  0.1166  0.3725 -0.2287
  620MOL0     C83619  11.256   2.948   8.179  0.0552  1.1132 -0.3009
  620MOL0     C83620  11.088   3.198   7.818  0.6754  1.0871  0.9217
  620MOL0     C83621  11.106   3.325   7.864  0.0781  0.8311  0.9841
  620MOL0     C83622  11.091   3.432   7.781  0.3576  0.6263  0.6829
  620MOL0     C83623  11.056   3.418   7.648  0.9467  0.7985 -0.0471
  620MOL0     O83624  11.064   3.536   7.579 -0.0755 -0.0113  0.1440
  620MOL0     C83625  10.997   3.559   7.453  0.8899 -0.0351  0.3297
  620MOL0     C83626  10.852   3.587   7.496 -0.3755  0.3471 -0.2232
  620MOL0     C83627  10.746   3.605   7.395 -0.7565 -0.4337  0.7002
  620MOL0     C83628  10.613   3.662   7.446 -0.6276  0.4013 -0.1404
  620MOL0     C83629  10.569   3.600   7.569  0.3620 -0.0841  0.0567
  620MOL0     C83630  10.524   3.550   7.672  1.3917 -0.2315 -0.1041
  620MOL0     C83631  11.028   3.284   7.596 -0.0656 -0.1483 -0.6444
  620MOL0     C83632  11.040   3.178   7.683 -0.4945 -0.2156  0.2636
  620MOL0     H83633  11.363   2.939   7.857 -2.9238  4.9518  1.0633
  620MOL0     H83634  11.484   2.739   7.948 -1.5673 -0.3722 -2.0533
  620MOL0     H83635  11.592   2.481   8.176  1.9008  0.7549  0.3031
  620MOL0     H83636  11.584   2.584   8.038  2.4684  0.7454  0.1522
  620MOL0     H83637  11.786   2.647   8.149  1.3265 -1.1106  2.9943
  620MOL0     H83638  11.659   2.777   8.190 -1.3711 -0.0341  3.6290
  620MOL0     H83639  11.639   2.645   8.421  0.7490  0.6127  0.8129
  620MOL0     H83640  11.750   2.529   8.352  1.3737  0.4244 -0.9431
  620MOL0     H83641  11.930   2.660   8.343 -0.6097 -0.4686 -1.3719
  620MOL0     H83642  11.844   2.799   8.414 -4.5176 -0.3184 -2.1963
  620MOL0     H83643  11.776   2.682   8.620  2.1267  4.6049  0.8752
  620MOL0     H83644  11.873   2.535   8.562 -0.0979  0.5849  0.9601
  620MOL0     H83645  12.075   2.651   8.592  0.4959 -0.3384 -0.5438
  620MOL0     H83646  11.998   2.803   8.598 -0.1976 -1.1327 -1.6320
  620MOL0     H83647  11.897   2.763   8.827 -0.4663 -0.0457 -1.3408
  620MOL0     H83648  11.964   2.606   8.841 -3.8520  1.4624  2.2750
  620MOL0     H83649  12.124   2.859   8.878 -0.0416 -0.3018  2.4411
  620MOL0     H83650  12.194   2.714   8.799  0.9399 -1.7680  1.7815
  620MOL0     H83651  12.231   2.877   9.104 -2.6207 -0.0750  1.3532
  620MOL0     H83652  12.335   2.654   9.358  0.3713 -0.1300  1.5419
  620MOL0     H83653  12.315   2.826   9.305 -3.3332  0.8524 -0.6481
  620MOL0     H83654  12.220   2.791   9.536 -1.6474 -1.0271  1.1786
  620MOL0     H83655  12.142   2.644   9.464 -3.7722  1.1678 -2.0589
  620MOL0     H83656  11.990   2.769   9.366  0.6507 -0.0156 -0.6858
  620MOL0     H83657  12.063   2.927   9.391  1.8310  0.0338  0.8277
  620MOL0     H83658  11.896   2.932   9.570  1.0530  1.3924 -0.2621
  620MOL0     H83659  12.043   2.899   9.645  2.0056 -0.7370 -1.9763
  620MOL0     H83660  11.854   2.906   9.806  3.3699 -0.4440 -0.4311
  620MOL0     H83661  11.622   2.857  10.062 -0.2879 -1.2838  1.0269
  620MOL0     H83662  11.779   2.895  10.137  1.5404 -0.6559 -1.0554
  620MOL0     H83663  11.738   2.976   9.987  1.9904 -1.5858 -1.3582
  620MOL0     H83664  11.457   2.549  10.183 -4.5502 -2.8056 -1.1891
  620MOL0     H83665  11.301   2.452  10.335  0.2343  1.2597 -0.4574
  620MOL0     H83666  11.208   2.350  10.566 -0.9281 -1.4538  3.1842
  620MOL0     H83667  11.154   2.303  10.403  1.3483  0.7357 -0.1910
  620MOL0     H83668  11.137   2.070  10.480  0.8030 -0.7125  0.7984
  620MOL0     H83669  11.152   2.126  10.650 -0.0373  0.5373  0.4164
  620MOL0     H83670  10.933   2.062  10.554 -0.2574 -0.2441  3.7436
  620MOL0     H83671  10.938   2.213  10.457  0.7584 -2.3866 -0.9251
  620MOL0     H83672  10.902   2.180  10.765  0.9210 -0.5449  0.3997
  620MOL0     H83673  10.970   2.324  10.694 -0.5982  0.6749  2.1982
  620MOL0     H83674  10.761   2.378  10.610  1.3654  1.1405  2.1640
  620MOL0     H83675  10.704   2.283  10.749  0.0176 -3.2086 -0.4138
  620MOL0     H83676  10.706   2.185  10.469 -2.6018  0.4356 -0.8330
  620MOL0     H83677  10.717   2.070  10.598  0.9962 -0.2733 -1.4124
  620MOL0     H83678  10.477   2.230  10.522 -2.1186 -2.4611 -0.0951
  620MOL0     H83679  10.513   2.214  10.697  0.0957 -1.0071  0.0939
  620MOL0     H83680  10.507   1.975  10.689  1.3642 -0.8260 -1.3433
  620MOL0     H83681  10.484   1.980  10.510 -1.6867 -0.9675  0.6699
  620MOL0     H83682  11.554   2.126  10.422  2.0892  2.6140  2.1314
  620MOL0     H83683  11.734   2.224  10.295  0.4412 -1.2857 -2.4911
  620MOL0     H83684  11.837   2.442   9.960  0.2019 -0.3198  1.3251
  620MOL0     H83685  11.945   2.498   9.742  2.0884  2.2630 -0.2760
  620MOL0     H83686  11.313   2.796   8.326 -1.7260 -0.2318 -0.3121
  620MOL0     H83687  11.185   2.998   8.243 -0.6147  0.9128 -0.8742
  620MOL0     H83688  11.149   3.345   7.961 -2.3280  3.0924  1.7077
  620MOL0     H83689  11.089   3.532   7.823 -1.7469  0.3283  1.4211
  620MOL0     H83690  11.035   3.640   7.391 -3.1162  0.6479 -1.5291
  620MOL0     H83691  10.996   3.471   7.388 -3.2497  1.6560 -2.2651
  620MOL0     H83692  10.851   3.671   7.566  0.5025 -0.2955  0.6021
  620MOL0     H83693  10.822   3.493   7.543  1.3978 -2.3605 -3.9367
  620MOL0     H83694  10.728   3.509   7.345  1.7364 -0.0923 -1.0363
  620MOL0     H83695  10.778   3.676   7.319 -0.1288  2.1541  3.2062
  620MOL0     H83696  10.537   3.637   7.371  0.5302 -2.0771 -0.5946
  620MOL0     H83697  10.628   3.770   7.449  3.0952 -0.0178  0.1577
  620MOL0     H83698  10.490   3.508   7.764 -0.4876  1.1002 -0.1263
  620MOL0     H83699  11.004   3.265   7.492  0.7552  0.3519 -0.9409
  620MOL0     H83700  11.011   3.080   7.647 -1.3707 -0.2334  0.9754
  621MOL0     O83701   0.057   6.439   7.434  1.0868  0.2698 -0.4214
  621MOL0     C83702   0.063   6.322   7.398  0.0237 -0.0539  0.3059
  621MOL0     O83703   0.152   6.264   7.307 -0.5900 -0.0161 -0.1656
  621MOL0     C83704   0.219   6.352   7.232  0.3376  0.2847  0.4252
  621MOL0     C83705   0.166   6.417   7.128 -0.2280 -0.4826  0.4472
  621MOL0     C83706   0.245   6.497   7.037 -0.3554  0.0093 -0.0080
  621MOL0     C83707   0.387   6.494   7.051  0.4291  0.7385 -0.0901
  621MOL0     O83708   0.453   6.555   6.956  0.0752  0.2058  0.6504
  621MOL0     C83709   0.598   6.553   6.949  0.7514 -0.2969  0.1260
  621MOL0     C83710   0.639   6.692   6.889 -0.3608  0.0276  0.0135
  621MOL0     C83711   0.796   6.708   6.888 -0.1497 -0.0858 -0.1279
  621MOL0     C83712   0.846   6.629   6.767  0.1035  0.1076  0.2055
  621MOL0     C83713   0.997   6.643   6.743  0.5661 -0.8034 -0.4103
  621MOL0     C83714   1.047   6.530   6.660  0.0426 -0.3448  0.2922
  621MOL0     C83715   1.204   6.541   6.642 -0.2547 -0.0460 -0.3428
  621MOL0     C83716   1.247   6.406   6.578 -0.3649  0.3013 -0.0362
  621MOL0     N83717   1.206   6.395   6.437 -0.0023  0.7006 -0.6837
  621MOL0     C83718   1.248   6.457   6.327  0.4722 -0.1547 -0.5756
  621MOL0     C83719   1.196   6.383   6.229 -0.1702  0.0397 -0.7348
  621MOL0     C83720   1.229   6.398   6.089 -0.3230 -0.1605 -0.0948
  621MOL0     C83721   1.368   6.336   6.057  0.2356  0.0695 -0.0853
  621MOL0     C83722   1.341   6.196   6.000  0.3856 -0.6564 -0.0703
  621MOL0     C83723   1.431   6.152   5.881 -0.6072  0.4546  0.4279
  621MOL0     O83724   1.397   6.025   5.829  0.4190  0.5855 -1.1727
  621MOL0     C83725   1.448   5.919   5.902 -0.0822 -0.0920  0.3220
  621MOL0     C83726   1.360   5.825   5.946  0.1502 -0.2767  0.1488
  621MOL0     C83727   1.403   5.705   6.011  0.0605 -0.0054  0.0860
  621MOL0     C83728   1.309   5.603   6.066  0.0142  1.0794  0.2775
  621MOL0     C83729   1.547   5.685   6.015 -0.3513  0.4872  0.2593
  621MOL0     C83730   1.607   5.545   6.038  0.1024 -0.2959 -0.5942
  621MOL0     O83731   1.726   5.553   6.110  0.7043  0.7412 -0.6799
  621MOL0     C83732   1.775   5.431   6.164 -1.1122 -0.1109  0.6123
  621MOL0     C83733   1.840   5.344   6.073 -0.2039 -0.2026  0.4750
  621MOL0     C83734   1.905   5.237   6.128 -0.0519  0.0172 -0.1230
  621MOL0     C83735   1.905   5.213   6.264 -0.7858 -0.2491  0.3342
  621MOL0     O83736   1.976   5.108   6.325  0.3864 -0.5979  0.6517
  621MOL0     C83737   1.946   4.976   6.278  0.4273 -0.8155 -0.2819
  621MOL0     C83738   1.821   4.941   6.357 -0.4801 -1.0969 -0.1271
  621MOL0     C83739   1.756   4.815   6.302  0.1315  0.3430 -0.0630
  621MOL0     C83740   1.634   4.787   6.394 -0.0040  1.1441  0.4998
  621MOL0     C83741   1.665   4.684   6.505 -0.1594  0.0747 -0.3660
  621MOL0     C83742   1.763   4.722   6.614  1.0773 -0.0646  0.2598
  621MOL0     C83743   1.778   4.614   6.716  0.0835  0.4847 -1.1483
  621MOL0     C83744   1.921   4.558   6.743 -0.2314 -0.2180 -0.1677
  621MOL0    Cl83745   1.923   4.448   6.884 -0.2526 -0.1969  0.0016
  621MOL0     C83746   1.832   5.298   6.350  0.0643 -0.0740  1.0381
  621MOL0     C83747   1.766   5.409   6.303 -0.4474  0.2471  0.6579
  621MOL0     O83748   1.550   5.444   6.003 -0.2952  0.5119  0.2686
  621MOL0     C83749   1.631   5.780   5.966 -0.2953 -0.6840 -0.3127
  621MOL0     C83750   1.585   5.899   5.910 -0.1247  0.9939  0.0891
  621MOL0     N83751   1.108   6.290   6.274  0.6804  0.5901 -0.0151
  621MOL0     N83752   1.119   6.294   6.403 -0.8328  0.3823 -0.2099
  621MOL0     C83753   0.434   6.412   7.153  0.1225  0.0624 -0.4798
  621MOL0     C83754   0.362   6.340   7.249  0.3710 -0.1803  0.2146
  621MOL0     C83755  -0.022   6.224   7.464 -0.1672  0.5610  0.2585
  621MOL0     C83756  -0.111   6.273   7.562 -0.5443 -0.0644 -0.6413
  621MOL0     C83757  -0.198   6.185   7.629  0.1695  0.3647  0.6228
  621MOL0     C83758  -0.184   6.048   7.597  0.2382 -0.2010 -0.8026
  621MOL0     O83759  -0.267   5.952   7.658  0.4855 -0.4703  0.2602
  621MOL0     C83760  -0.340   5.865   7.581  0.1940 -0.5786  0.4457
  621MOL0     C83761  -0.430   5.791   7.669  0.1794  0.1838  0.1843
  621MOL0     C83762  -0.527   5.883   7.746  0.8484  0.1736  1.3972
  621MOL0     C83763  -0.614   5.792   7.833 -0.4900  0.4316 -0.1945
  621MOL0     C83764  -0.706   5.712   7.753 -1.2751 -0.8416 -0.2412
  621MOL0     C83765  -0.802   5.662   7.700  0.0762  1.3769 -1.1018
  621MOL0     C83766  -0.091   6.004   7.506 -0.4025  0.7848 -0.4045
  621MOL0     C83767  -0.002   6.094   7.445 -0.5448  0.3265  1.1259
  621MOL0     H83768   0.058   6.425   7.119 -0.0520  0.4322 -1.4464
  621MOL0     H83769   0.194   6.556   6.962  0.0569 -0.6721 -0.8376
  621MOL0     H83770   0.643   6.546   7.048  1.1784  4.4506  0.4859
  621MOL0     H83771   0.629   6.465   6.891  0.3379  1.4028 -2.9171
  621MOL0     H83772   0.600   6.716   6.790  1.6062 -0.2339 -0.8614
  621MOL0     H83773   0.609   6.764   6.966  3.0768  0.5845  1.0123
  621MOL0     H83774   0.826   6.813   6.887  0.7514 -0.2781  1.8459
  621MOL0     H83775   0.844   6.680   6.982  1.9172  2.7787 -0.1867
  621MOL0     H83776   0.826   6.531   6.811  2.1209  1.2900  4.2632
  621MOL0     H83777   0.786   6.657   6.680  0.7455 -3.3511 -1.5317
  621MOL0     H83778   1.007   6.728   6.675 -3.2778  0.6260  0.5450
  621MOL0     H83779   1.054   6.666   6.833  0.0528 -0.5319 -0.1557
  621MOL0     H83780   1.032   6.433   6.708 -2.0647 -0.0270  0.3898
  621MOL0     H83781   0.988   6.528   6.567 -2.0819  1.3029  1.5132
  621MOL0     H83782   1.244   6.611   6.568  0.0494 -1.8972 -2.0248
  621MOL0     H83783   1.258   6.566   6.734  1.5754  1.2223 -1.6800
  621MOL0     H83784   1.206   6.325   6.640 -0.1375  0.1526 -0.0820
  621MOL0     H83785   1.356   6.404   6.582 -0.3715  0.3668  0.2699
  621MOL0     H83786   1.309   6.547   6.329 -0.6235  0.6747 -2.0020
  621MOL0     H83787   1.147   6.355   6.030 -2.6655  3.8826 -0.1568
  621MOL0     H83788   1.237   6.502   6.057  1.6780  0.1017  1.1264
  621MOL0     H83789   1.426   6.330   6.150  0.2625  0.3844 -0.0806
  621MOL0     H83790   1.424   6.395   5.985 -1.6858  2.2287  0.0857
  621MOL0     H83791   1.239   6.178   5.965  1.5162 -3.1386 -2.4986
  621MOL0     H83792   1.352   6.119   6.077  0.2631 -1.4117 -0.7941
  621MOL0     H83793   1.537   6.158   5.910 -0.7973 -0.7703  1.4481
  621MOL0     H83794   1.415   6.219   5.796 -2.0674 -1.1097 -0.5774
  621MOL0     H83795   1.257   5.842   5.914  0.9426 -1.2639 -3.4043
  621MOL0     H83796   1.328   5.603   6.174  0.1678  2.3113  0.2708
  621MOL0     H83797   1.203   5.627   6.058 -0.1768 -0.1681 -1.5084
  621MOL0     H83798   1.332   5.503   6.029 -1.5237  0.6827  0.3451
  621MOL0     H83799   1.842   5.353   5.964  0.9381  0.6508  0.5448
  621MOL0     H83800   1.957   5.161   6.070 -1.0971 -0.2025 -0.8067
  621MOL0     H83801   1.926   4.977   6.171 -2.1352  0.2408  0.1114
  621MOL0     H83802   2.015   4.896   6.304 -1.5999 -2.1792  1.2260
  621MOL0     H83803   1.836   4.931   6.465 -4.2311  0.1806  0.6700
  621MOL0     H83804   1.745   5.020   6.357 -1.9273 -2.4268  0.7608
  621MOL0     H83805   1.822   4.729   6.310  1.5157  1.4105  0.2530
  621MOL0     H83806   1.725   4.835   6.198  0.8466  2.7067  0.1059
  621MOL0     H83807   1.603   4.884   6.434 -1.2915  1.0978 -0.3118
  621MOL0     H83808   1.564   4.748   6.320 -1.7457  1.2272  2.0344
  621MOL0     H83809   1.693   4.591   6.454 -1.0304  0.8865 -2.4290
  621MOL0     H83810   1.569   4.667   6.555  0.4166 -1.8502  0.1540
  621MOL0     H83811   1.854   4.741   6.557 -0.1447  2.9396 -0.9262
  621MOL0     H83812   1.727   4.807   6.673 -2.7887 -2.0827  1.1065
  621MOL0     H83813   1.726   4.521   6.690  4.2318 -2.1604 -0.7980
  621MOL0     H83814   1.733   4.653   6.808  2.0934  5.4214 -1.9408
  621MOL0     H83815   1.991   4.642   6.741 -2.1392  1.4451 -1.7735
  621MOL0     H83816   1.957   4.497   6.659 -0.6836  0.2730 -0.7290
  621MOL0     H83817   1.842   5.279   6.456  1.7517 -0.6372  0.8054
  621MOL0     H83818   1.714   5.487   6.357 -1.1457  0.6163 -0.5096
  621MOL0     H83819   1.736   5.762   5.982 -0.0630 -2.0643 -2.9161
  621MOL0     H83820   1.653   5.975   5.872  1.6099 -1.6740 -2.6591
  621MOL0     H83821   0.536   6.375   7.154 -0.0813 -0.6586  2.8361
  621MOL0     H83822   0.410   6.280   7.325  1.2984 -1.0427 -1.0113
  621MOL0     H83823  -0.109   6.375   7.599  4.7000  0.6278 -2.1019
  621MOL0     H83824  -0.269   6.210   7.707  0.3464  3.1042  0.0027
  621MOL0     H83825  -0.395   5.909   7.496  0.8125 -1.3554 -0.3773
  621MOL0     H83826  -0.275   5.790   7.536  0.0284 -0.3435 -0.2064
  621MOL0     H83827  -0.372   5.745   7.749 -0.0648 -0.1853  0.1502
  621MOL0     H83828  -0.478   5.716   7.605  0.6728  0.6008 -0.6957
  621MOL0     H83829  -0.589   5.931   7.669 -1.0783  0.6497  3.1450
  621MOL0     H83830  -0.489   5.961   7.812  1.6660 -1.1399  2.5305
  621MOL0     H83831  -0.673   5.865   7.889 -0.7536  0.1017 -0.0408
  621MOL0     H83832  -0.537   5.727   7.876 -1.2124 -1.9169 -2.2042
  621MOL0     H83833  -0.891   5.623   7.654 -0.4977  0.2476  0.8554
  621MOL0     H83834  -0.094   5.899   7.479 -1.2475  1.2690 -2.3547
  621MOL0     H83835   0.073   6.057   7.376 -1.2254 -1.4100  1.2686
  622MOL0     O83836  10.328   9.418   6.335 -0.3770  0.0725  0.0249
  622MOL0     C83837  10.435   9.451   6.389 -0.0535  0.3671  0.6442
  622MOL0     O83838  10.501   9.390   6.490 -1.2092 -0.4186 -0.0536
  622MOL0     C83839  10.446   9.277   6.544  0.5938  0.3610 -0.3372
  622MOL0     C83840  10.355   9.293   6.654  0.2692 -0.1469  0.1827
  622MOL0     C83841  10.291   9.175   6.685  0.1020 -0.3509 -0.2807
  622MOL0     C83842  10.327   9.047   6.629  0.3387 -0.7771  0.3622
  622MOL0     O83843  10.263   8.927   6.654  1.7017 -0.3725 -0.0549
  622MOL0     C83844  10.116   8.924   6.677 -0.2272  0.0771 -0.1647
  622MOL0     C83845  10.086   8.796   6.752  0.3358 -0.3934 -1.1775
  622MOL0     C83846  10.093   8.669   6.662 -0.6940  0.5975  0.5729
  622MOL0     C83847  10.171   8.550   6.718  0.0944  1.0765  0.3438
  622MOL0     C83848  10.159   8.431   6.619  0.0180  0.1439  0.0562
  622MOL0     C83849  10.217   8.297   6.694  0.1334 -0.9673  1.0090
  622MOL0     C83850  10.099   8.235   6.772 -0.1460  0.0834 -0.1959
  622MOL0     C83851  10.158   8.109   6.849 -0.1318 -0.9263 -0.3580
  622MOL0     N83852  10.202   8.004   6.759 -0.5451  0.4523 -0.2076
  622MOL0     C83853  10.323   8.004   6.695 -0.6831 -0.2379 -0.1528
  622MOL0     C83854  10.340   7.874   6.653 -0.8102 -0.5956  0.2660
  622MOL0     C83855  10.455   7.812   6.586 -0.2259  0.3438 -0.3542
  622MOL0     C83856  10.564   7.918   6.570 -0.8486 -1.4545  0.9585
  622MOL0     C83857  10.691   7.857   6.508 -0.2326  0.0226  0.6516
  622MOL0     C83858  10.809   7.947   6.514  0.0821 -0.2635  0.2377
  622MOL0     O83859  10.794   8.078   6.451  0.1734 -0.3709 -0.8861
  622MOL0     C83860  10.893   8.150   6.401  0.5143  0.4442 -0.3280
  622MOL0     C83861  11.030   8.119   6.405  1.0985  1.0926 -0.3885
  622MOL0     C83862  11.127   8.212   6.371  0.6577  0.0697 -0.1529
  622MOL0     C83863  11.273   8.167   6.386  0.6104 -0.7250  0.5383
  622MOL0     C83864  11.084   8.336   6.314 -0.3100 -0.4825 -0.6008
  622MOL0     C83865  11.178   8.448   6.286 -0.3200  0.6416  0.4682
  622MOL0     O83866  11.155   8.507   6.163 -0.2434  0.3468  0.0072
  622MOL0     C83867  11.214   8.627   6.127 -0.9984 -0.1235  0.8341
  622MOL0     C83868  11.173   8.676   5.997  0.2125 -0.6074 -0.1421
  622MOL0     C83869  11.212   8.796   5.949  0.7312  0.3926 -0.1725
  622MOL0     C83870  11.296   8.880   6.009 -0.2388  0.8945 -0.4221
  622MOL0     O83871  11.317   8.998   5.944  0.1342  0.1691 -0.5437
  622MOL0     C83872  11.424   9.079   5.991  0.0741  0.4239 -0.0827
  622MOL0     C83873  11.481   9.172   5.877  0.0397 -0.5805  0.3550
  622MOL0     C83874  11.520   9.098   5.750 -0.3605  0.5125 -0.2913
  622MOL0     C83875  11.493   9.178   5.630 -0.7354  0.5326 -0.9822
  622MOL0     C83876  11.595   9.299   5.614 -0.0945 -0.3025 -0.2666
  622MOL0     C83877  11.539   9.409   5.528  0.3550 -0.5752 -0.2601
  622MOL0     C83878  11.626   9.536   5.543  0.2632  0.0404  0.6893
  622MOL0     C83879  11.643   9.607   5.406 -0.9133  0.4658 -0.3097
  622MOL0    Cl83880  11.800   9.582   5.323 -0.2316  0.0940 -0.4556
  622MOL0     C83881  11.351   8.835   6.136 -0.0697 -0.6560  0.9930
  622MOL0     C83882  11.303   8.714   6.194  0.3181 -0.0936  0.5070
  622MOL0     O83883  11.281   8.460   6.353  0.0982 -0.9155 -1.1526
  622MOL0     C83884  10.946   8.363   6.295 -0.6128  0.3736  0.3626
  622MOL0     C83885  10.852   8.267   6.343  0.0183  0.8205  0.3362
  622MOL0     N83886  10.239   7.792   6.686 -0.0790  0.3724  0.6630
  622MOL0     N83887  10.157   7.876   6.743 -0.1579 -0.2604 -0.4918
  622MOL0     C83888  10.421   9.030   6.527 -0.3059 -0.5507  0.3961
  622MOL0     C83889  10.483   9.150   6.493 -1.4358  0.4895  0.1106
  622MOL0     C83890  10.492   9.582   6.351 -0.7955  0.6145 -0.4917
  622MOL0     C83891  10.604   9.628   6.428 -0.6545  0.2979  0.2472
  622MOL0     C83892  10.683   9.745   6.396  0.6328 -0.1384 -0.4899
  622MOL0     C83893  10.626   9.830   6.296 -0.0288 -1.2003 -0.7904
  622MOL0     O83894  10.692   9.950   6.275 -0.0930  0.2518 -0.2573
  622MOL0     C83895  10.744  10.024   6.387  0.3846 -0.5212 -0.6941
  622MOL0     C83896  10.641  10.110   6.447 -0.4508 -1.3221  0.6197
  622MOL0     C83897  10.602  10.061   6.582 -0.1722 -0.8082  0.3667
  622MOL0     C83898  10.502  10.157   6.651  0.1190  0.0114 -0.0488
  622MOL0     C83899  10.370  10.148   6.596  1.0130  0.4709  0.2757
  622MOL0     C83900  10.260  10.139   6.545  0.7812 -0.0773  0.1715
  622MOL0     C83901  10.514   9.800   6.225  0.0613 -0.9135 -1.0056
  622MOL0     C83902  10.459   9.666   6.241  0.0705  0.5383 -0.5057
  622MOL0     H83903  10.325   9.392   6.688  0.1492  0.9595 -2.8602
  622MOL0     H83904  10.211   9.182   6.758 -0.2594 -1.0952 -0.5996
  622MOL0     H83905  10.089   9.023   6.717  1.1236  1.7898 -3.1485
  622MOL0     H83906  10.067   8.931   6.580  0.6942 -1.4476 -0.7641
  622MOL0     H83907  10.159   8.798   6.834 -1.8767 -0.1067  0.8923
  622MOL0     H83908   9.986   8.813   6.792  1.5395  2.9531  0.8101
  622MOL0     H83909   9.993   8.641   6.626 -0.6813 -0.1405  1.0769
  622MOL0     H83910  10.144   8.698   6.570  0.6440 -0.1480  1.0589
  622MOL0     H83911  10.273   8.579   6.742  2.0573 -3.1372 -1.7669
  622MOL0     H83912  10.120   8.517   6.810 -0.0316 -1.2990 -0.4913
  622MOL0     H83913  10.064   8.422   6.565 -0.5348 -1.6806  1.2228
  622MOL0     H83914  10.231   8.457   6.541 -1.0031 -0.5896 -1.1674
  622MOL0     H83915  10.249   8.239   6.607  1.6067 -0.3561  1.1153
  622MOL0     H83916  10.302   8.314   6.760  0.1165  1.8882  0.4033
  622MOL0     H83917  10.066   8.302   6.852  2.1291  0.6796  0.3161
  622MOL0     H83918  10.020   8.197   6.707 -0.0531 -1.1972  0.4036
  622MOL0     H83919  10.091   8.063   6.921  0.5590 -2.2035 -0.5096
  622MOL0     H83920  10.247   8.145   6.902 -1.7336 -0.5521  2.2257
  622MOL0     H83921  10.396   8.084   6.690 -0.1079 -0.7463  0.0439
  622MOL0     H83922  10.503   7.728   6.637  1.6611  0.6003 -1.6121
  622MOL0     H83923  10.426   7.779   6.486 -1.1171 -0.1523  0.0529
  622MOL0     H83924  10.588   7.959   6.669  1.6745 -1.7042  0.5222
  622MOL0     H83925  10.530   8.007   6.517  0.7240 -0.8194  0.9538
  622MOL0     H83926  10.674   7.835   6.402  1.9625 -2.5521  0.7493
  622MOL0     H83927  10.716   7.764   6.558 -0.4825  0.5001  1.6872
  622MOL0     H83928  10.898   7.893   6.480  0.1176 -2.1785  3.0194
  622MOL0     H83929  10.814   7.962   6.622  0.7818  0.5220  0.1075
  622MOL0     H83930  11.070   8.023   6.436  1.3570 -0.1249 -4.0168
  622MOL0     H83931  11.290   8.065   6.422 -1.2851 -1.4674 -0.4749
  622MOL0     H83932  11.304   8.166   6.281 -2.2957  0.0029 -0.4232
  622MOL0     H83933  11.323   8.241   6.448 -0.0135 -0.2714  0.5147
  622MOL0     H83934  11.109   8.605   5.946  0.0043 -0.7963  0.3798
  622MOL0     H83935  11.177   8.827   5.851  0.6906  3.8173  0.7842
  622MOL0     H83936  11.384   9.136   6.075 -0.3079 -1.3900  1.0252
  622MOL0     H83937  11.509   9.025   6.035 -0.2022  0.6978  0.7995
  622MOL0     H83938  11.405   9.249   5.864  0.8116  0.1538  0.0958
  622MOL0     H83939  11.569   9.232   5.904 -1.6287  1.7814  0.8259
  622MOL0     H83940  11.450   9.015   5.734  0.2405  0.4618 -3.4066
  622MOL0     H83941  11.623   9.062   5.755 -0.3906  0.2249 -1.3786
  622MOL0     H83942  11.521   9.123   5.539  1.0240  0.7548 -0.6150
  622MOL0     H83943  11.389   9.210   5.619 -1.4165 -0.5834  1.6018
  622MOL0     H83944  11.684   9.255   5.568 -1.2083 -1.9287 -0.9511
  622MOL0     H83945  11.615   9.337   5.715 -0.5354 -1.1544  0.1598
  622MOL0     H83946  11.531   9.363   5.429  3.2838 -4.1540  0.9388
  622MOL0     H83947  11.441   9.432   5.570  0.1665  0.3587 -1.1854
  622MOL0     H83948  11.712   9.513   5.606 -0.4037  0.6771  1.8758
  622MOL0     H83949  11.575   9.604   5.612  2.3173  0.6009  1.7342
  622MOL0     H83950  11.647   9.713   5.434 -1.1228  0.7114 -1.1513
  622MOL0     H83951  11.552   9.606   5.344 -0.4812  2.3272 -1.0445
  622MOL0     H83952  11.410   8.890   6.208  0.5424  0.2611 -0.1676
  622MOL0     H83953  11.333   8.677   6.291 -0.1198 -3.7670 -0.6301
  622MOL0     H83954  10.913   8.460   6.259  0.5027  1.3877  1.9557
  622MOL0     H83955  10.746   8.289   6.334 -0.1274  0.7378  1.5995
  622MOL0     H83956  10.456   8.932   6.496 -1.2377 -1.5069  2.2273
  622MOL0     H83957  10.560   9.154   6.416 -1.4684  1.1985  0.1013
  622MOL0     H83958  10.661   9.555   6.484 -3.8003 -0.5628  2.5513
  622MOL0     H83959  10.783   9.762   6.435  1.0445 -0.0551 -1.5530
  622MOL0     H83960  10.809   9.969   6.456  2.3601 -0.2206 -2.2206
  622MOL0     H83961  10.811  10.093   6.335 -1.2352 -0.0126 -2.1738
  622MOL0     H83962  10.555  10.111   6.379  1.6395 -0.2792 -2.2198
  622MOL0     H83963  10.687  10.209   6.457 -1.8197 -0.0522 -3.6799
  622MOL0     H83964  10.684  10.043   6.652 -0.6588 -2.4255  0.5525
  622MOL0     H83965  10.548   9.967   6.572  0.4193 -0.9207 -2.7290
  622MOL0     H83966  10.528  10.263   6.641  0.1474  0.1167  1.0073
  622MOL0     H83967  10.490  10.137   6.758  2.6112  2.7021  0.8587
  622MOL0     H83968  10.165  10.136   6.496  1.0852 -0.8959 -0.3964
  622MOL0     H83969  10.491   9.871   6.146  0.0026 -1.0663 -1.1273
  622MOL0     H83970  10.379   9.634   6.175 -0.2512  1.4829 -0.5893
  623MOL0     O83971   0.719   3.549   1.489 -0.0919 -0.6100  0.2423
  623MOL0     C83972   0.800   3.496   1.407  0.9388  0.4306 -0.2956
  623MOL0     O83973   0.879   3.560   1.318 -0.5878  0.4160 -0.6370
  623MOL0     C83974   0.900   3.692   1.346  0.3854 -1.0902 -1.0053
  623MOL0     C83975   0.911   3.771   1.239  0.8115 -0.0726 -0.0294
  623MOL0     C83976   0.954   3.900   1.240  0.4045 -0.1141  0.7332
  623MOL0     C83977   0.994   3.954   1.361  1.1233 -0.3406  0.5132
  623MOL0     O83978   1.060   4.075   1.381  0.0275  0.0655 -0.2092
  623MOL0     C83979   1.108   4.151   1.270 -0.6312 -0.6877 -0.2004
  623MOL0     C83980   1.024   4.279   1.251 -0.2234 -0.2189 -0.6233
  623MOL0     C83981   1.116   4.388   1.184 -0.4545  0.2870  0.7366
  623MOL0     C83982   1.066   4.534   1.211 -0.5347 -1.2042  0.0613
  623MOL0     C83983   0.928   4.567   1.157  0.2458  0.3927 -0.4696
  623MOL0     C83984   0.893   4.714   1.150  0.1771  0.5072  0.0435
  623MOL0     C83985   0.752   4.730   1.078 -0.3492 -0.2587 -0.1251
  623MOL0     C83986   0.691   4.880   1.087  0.8046 -0.4805  1.1373
  623MOL0     N83987   0.781   4.992   1.051  0.4879 -0.5599 -0.1135
  623MOL0     C83988   0.876   5.052   1.129  0.3224  0.7612  0.4602
  623MOL0     C83989   0.926   5.152   1.049  1.4085  1.1772  0.9233
  623MOL0     C83990   1.041   5.242   1.073 -0.3919  0.5970 -0.3160
  623MOL0     C83991   1.007   5.346   1.182  0.3468 -0.0803 -0.1253
  623MOL0     C83992   1.123   5.436   1.218 -0.0903 -0.7080 -0.1611
  623MOL0     C83993   1.125   5.496   1.369 -0.7585  0.3556 -0.1063
  623MOL0     O83994   0.994   5.505   1.432 -0.1564 -0.0108 -0.3213
  623MOL0     C83995   0.904   5.601   1.394 -0.4104  0.0619  0.0117
  623MOL0     C83996   0.776   5.567   1.421 -0.1652 -0.1735 -0.5494
  623MOL0     C83997   0.660   5.641   1.370 -0.4416  0.1829 -1.0780
  623MOL0     C83998   0.522   5.594   1.408  0.6831  0.1547 -0.8770
  623MOL0     C83999   0.682   5.764   1.302 -0.8391 -0.2381 -0.1706
  623MOL0     C84000   0.575   5.865   1.273  0.7410 -0.2789  0.7555
  623MOL0     O84001   0.615   5.954   1.170 -0.4276 -0.4859  0.3192
  623MOL0     C84002   0.527   6.046   1.129  0.2258 -0.6076  0.7005
  623MOL0     C84003   0.397   6.023   1.097  0.0042  0.6065  0.1786
  623MOL0     C84004   0.322   6.128   1.041  0.8165  0.4368 -0.4376
  623MOL0     C84005   0.378   6.253   1.010 -0.0127  0.7930 -0.4011
  623MOL0     O84006   0.297   6.344   0.953  0.5032 -0.0757 -0.4659
  623MOL0     C84007   0.244   6.423   1.064  0.7947 -0.6542 -0.3315
  623MOL0     C84008   0.103   6.427   1.032 -0.4827 -0.4080 -0.2013
  623MOL0     C84009   0.025   6.503   1.145 -0.3279  0.4376 -0.5993
  623MOL0     C84010  -0.023   6.418   1.255 -0.1014  0.3142  1.3346
  623MOL0     C84011  -0.135   6.473   1.349  1.1047  0.5601  0.8037
  623MOL0     C84012  -0.267   6.440   1.281 -0.3254 -0.0628  0.0236
  623MOL0     C84013  -0.374   6.488   1.381 -0.4373  0.9957 -0.1112
  623MOL0     C84014  -0.489   6.396   1.362  0.4927 -0.3645  0.5790
  623MOL0    Cl84015  -0.527   6.361   1.177  0.1049 -0.4561 -0.1068
  623MOL0     C84016   0.520   6.272   1.035  0.1867  0.0698 -0.3785
  623MOL0     C84017   0.589   6.169   1.096 -0.2122 -0.8550  0.6324
  623MOL0     O84018   0.478   5.874   1.352 -0.4289  0.1443  0.2386
  623MOL0     C84019   0.822   5.796   1.276  0.5656  0.5006  0.7462
  623MOL0     C84020   0.933   5.715   1.314  0.1833  0.0236 -0.0419
  623MOL0     N84021   0.854   5.157   0.930  0.1776  0.5516  0.4248
  623MOL0     N84022   0.784   5.053   0.936  0.8609 -0.3706  0.3128
  623MOL0     C84023   0.980   3.879   1.474 -1.0798  0.1842 -0.5425
  623MOL0     C84024   0.938   3.741   1.474  0.7366 -0.4340  0.7741
  623MOL0     C84025   0.793   3.349   1.386  0.6068  1.2326  0.0107
  623MOL0     C84026   0.675   3.280   1.436  0.6971 -0.1603  0.3036
  623MOL0     C84027   0.665   3.146   1.440 -0.2694  0.3880 -0.0922
  623MOL0     C84028   0.772   3.069   1.397  0.9446  0.6204 -0.0743
  623MOL0     O84029   0.772   2.936   1.386  0.1837 -0.4403  0.2994
  623MOL0     C84030   0.662   2.882   1.304 -0.1183 -0.0333  0.3859
  623MOL0     C84031   0.678   2.724   1.267  0.9408 -0.2158 -0.2691
  623MOL0     C84032   0.690   2.643   1.391 -0.2564 -0.2206  0.3776
  623MOL0     C84033   0.584   2.676   1.496  0.8852 -0.4850 -1.3873
  623MOL0     C84034   0.449   2.660   1.451 -1.0071  0.0923  0.4495
  623MOL0     C84035   0.330   2.636   1.446 -0.1633 -0.2617 -1.1595
  623MOL0     C84036   0.881   3.131   1.335  0.0573  0.0292  0.1102
  623MOL0     C84037   0.889   3.271   1.329 -0.4771 -0.1142  0.5174
  623MOL0     H84038   0.874   3.732   1.144 -3.9121 -1.9848  2.2543
  623MOL0     H84039   0.954   3.960   1.149 -1.8597 -0.9215  0.1351
  623MOL0     H84040   1.206   4.188   1.302 -1.0537  0.9000 -0.6218
  623MOL0     H84041   1.126   4.111   1.170 -2.5806  1.7863 -1.6744
  623MOL0     H84042   0.932   4.269   1.192  0.9332 -0.3175 -2.5180
  623MOL0     H84043   0.982   4.299   1.350 -0.9141 -3.7050 -0.0925
  623MOL0     H84044   1.219   4.386   1.219  1.0722 -2.2195 -3.2842
  623MOL0     H84045   1.122   4.370   1.077  0.9687 -2.1535  1.1730
  623MOL0     H84046   1.077   4.561   1.317  0.0689  2.6413 -0.8296
  623MOL0     H84047   1.125   4.598   1.145 -4.7173  2.3230 -0.7614
  623MOL0     H84048   0.939   4.534   1.053  0.8236  2.1659 -1.0145
  623MOL0     H84049   0.846   4.513   1.205  1.6847 -2.2542 -0.8280
  623MOL0     H84050   0.866   4.766   1.242  0.4914  0.1422  0.3393
  623MOL0     H84051   0.977   4.761   1.098  1.8504 -2.5353 -0.2183
  623MOL0     H84052   0.768   4.720   0.970 -1.2016  0.9704 -0.3885
  623MOL0     H84053   0.676   4.659   1.110 -1.3574  1.7659  2.3315
  623MOL0     H84054   0.654   4.903   1.188  1.2785  1.8224  0.8427
  623MOL0     H84055   0.608   4.890   1.017  1.0595  0.8274  1.0049
  623MOL0     H84056   0.917   5.030   1.227  3.1988  2.3256 -0.2821
  623MOL0     H84057   1.130   5.187   1.104 -2.2345 -0.4018  3.9387
  623MOL0     H84058   1.057   5.282   0.972  2.8447  0.5409  0.0541
  623MOL0     H84059   0.955   5.309   1.270  0.5046 -4.2114 -1.5634
  623MOL0     H84060   0.940   5.421   1.139  2.1116  1.2406 -0.7004
  623MOL0     H84061   1.132   5.527   1.158  1.1521  0.1653  1.2842
  623MOL0     H84062   1.217   5.382   1.208  0.4073 -0.3406  2.0277
  623MOL0     H84063   1.185   5.587   1.364 -0.0207 -0.1728 -1.2813
  623MOL0     H84064   1.173   5.421   1.432 -1.4192  0.5401  0.6428
  623MOL0     H84065   0.750   5.477   1.476  1.2642  0.0906  0.5918
  623MOL0     H84066   0.487   5.629   1.505  0.9214 -0.8585 -0.4117
  623MOL0     H84067   0.445   5.619   1.335 -1.7085 -3.4426  0.1364
  623MOL0     H84068   0.522   5.485   1.400  1.1081  0.1479 -0.8385
  623MOL0     H84069   0.359   5.926   1.125  2.0024  0.3833  2.4987
  623MOL0     H84070   0.218   6.105   1.019  0.6413 -0.0927  0.8071
  623MOL0     H84071   0.254   6.374   1.161 -0.7142 -1.3966 -0.5185
  623MOL0     H84072   0.298   6.518   1.067  0.2625 -0.3354 -0.6415
  623MOL0     H84073   0.083   6.477   0.937 -0.2172 -2.3344 -1.3126
  623MOL0     H84074   0.057   6.329   1.019 -0.8673 -0.0128 -2.1229
  623MOL0     H84075  -0.071   6.547   1.116 -0.0371  3.1094  2.0005
  623MOL0     H84076   0.090   6.584   1.177  1.6294 -0.9840 -0.8182
  623MOL0     H84077  -0.065   6.325   1.216 -0.3255  0.2315  1.7709
  623MOL0     H84078   0.062   6.389   1.317  0.5189  0.4952  0.5943
  623MOL0     H84079  -0.138   6.580   1.372 -4.0667  0.5129  1.5701
  623MOL0     H84080  -0.134   6.418   1.444  1.4224 -2.1176 -0.6383
  623MOL0     H84081  -0.277   6.502   1.191 -1.2165 -1.8049 -1.1342
  623MOL0     H84082  -0.270   6.333   1.259 -0.0134  0.2870 -1.8573
  623MOL0     H84083  -0.405   6.593   1.369  0.9684  2.1928  4.5822
  623MOL0     H84084  -0.350   6.471   1.486  0.3498 -1.6772 -0.6567
  623MOL0     H84085  -0.574   6.446   1.408 -0.3864 -0.2440 -1.0852
  623MOL0     H84086  -0.466   6.297   1.404  2.1629 -0.3087 -0.0983
  623MOL0     H84087   0.573   6.360   1.001 -0.3004 -0.0193 -1.3901
  623MOL0     H84088   0.695   6.187   1.109 -0.7760  1.9367  2.4047
  623MOL0     H84089   0.843   5.885   1.219  1.5935  3.1954  4.8819
  623MOL0     H84090   1.030   5.752   1.284  0.2380  0.6340  0.8430
  623MOL0     H84091   1.006   3.922   1.570  0.4325 -0.1854 -0.7480
  623MOL0     H84092   0.938   3.666   1.553 -0.5469 -0.9597  0.2989
  623MOL0     H84093   0.598   3.335   1.490 -0.4240 -2.4392  1.1565
  623MOL0     H84094   0.575   3.090   1.464  0.5472 -1.6857 -1.5214
  623MOL0     H84095   0.567   2.902   1.353 -0.3561 -0.0275 -0.0733
  623MOL0     H84096   0.658   2.932   1.207 -2.6620 -1.0948 -0.1344
  623MOL0     H84097   0.759   2.699   1.198  0.6487 -4.1090  0.5674
  623MOL0     H84098   0.581   2.698   1.222  0.4761 -0.6773  0.9614
  623MOL0     H84099   0.782   2.663   1.445 -0.9250  2.6215  0.6025
  623MOL0     H84100   0.683   2.536   1.367 -3.0034  0.4903 -2.8206
  623MOL0     H84101   0.593   2.781   1.526  4.2469 -1.2299  0.8345
  623MOL0     H84102   0.593   2.615   1.586 -3.1941  0.9870  0.2235
  623MOL0     H84103   0.229   2.604   1.435 -1.3219  3.2371 -1.7007
  623MOL0     H84104   0.966   3.075   1.298  1.1635  2.9308 -2.1342
  623MOL0     H84105   0.984   3.307   1.292  0.1403 -2.6747 -0.6110
  624MOL0     O84106   6.437   5.732   2.615  0.4972  1.0007  1.2588
  624MOL0     C84107   6.331   5.694   2.663 -0.6819  0.7528  0.0689
  624MOL0     O84108   6.262   5.581   2.631 -0.3755 -0.1128  0.1312
  624MOL0     C84109   6.291   5.504   2.523  0.7729 -0.7012 -0.0958
  624MOL0     C84110   6.329   5.374   2.536  0.5079  0.5175  0.2913
  624MOL0     C84111   6.329   5.283   2.423 -0.6951 -0.1490 -0.1404
  624MOL0     C84112   6.334   5.335   2.295  0.3054  0.3273  0.5630
  624MOL0     O84113   6.354   5.254   2.183  0.5620 -0.2470  0.0828
  624MOL0     C84114   6.307   5.116   2.185 -0.3148 -0.8651  0.0809
  624MOL0     C84115   6.325   5.061   2.035 -0.4466 -0.3924 -0.1761
  624MOL0     C84116   6.473   5.058   1.999  0.7826 -0.7623  0.4028
  624MOL0     C84117   6.496   5.048   1.840 -0.0379  0.0065  0.3111
  624MOL0     C84118   6.616   4.962   1.805 -0.2259  0.5230 -0.1525
  624MOL0     C84119   6.650   4.959   1.660  0.0379 -0.7034  0.9003
  624MOL0     C84120   6.531   4.913   1.561 -0.1129 -0.8041  0.3647
  624MOL0     C84121   6.504   4.760   1.556 -0.0121  1.4838  0.9386
  624MOL0     N84122   6.619   4.690   1.485  1.2117  0.6978  0.6403
  624MOL0     C84123   6.630   4.550   1.471 -0.0902  0.3594  0.2121
  624MOL0     C84124   6.747   4.541   1.407  0.9729  0.3421  0.3074
  624MOL0     C84125   6.822   4.415   1.356 -0.1078 -0.2507  0.6733
  624MOL0     C84126   6.747   4.315   1.264  0.7421 -0.3084  0.4027
  624MOL0     C84127   6.661   4.220   1.352  0.0370  0.5998  1.3777
  624MOL0     C84128   6.587   4.116   1.266  0.0977  0.4899  1.0354
  624MOL0     O84129   6.674   4.011   1.211 -0.7157 -0.7832 -0.1093
  624MOL0     C84130   6.728   3.910   1.290 -0.1070  0.2231  0.6123
  624MOL0     C84131   6.740   3.894   1.427  0.1754 -0.4157 -0.3578
  624MOL0     C84132   6.784   3.773   1.484  0.1679 -0.1853 -0.4661
  624MOL0     C84133   6.797   3.763   1.640  0.2345  0.2802  0.0900
  624MOL0     C84134   6.810   3.665   1.398 -1.1056  0.2101  0.8726
  624MOL0     C84135   6.842   3.526   1.436 -0.3535 -0.7040 -0.6495
  624MOL0     O84136   6.908   3.444   1.345 -0.1985 -0.1307 -0.2298
  624MOL0     C84137   6.923   3.304   1.367 -0.3927 -0.3808  0.3890
  624MOL0     C84138   6.834   3.215   1.424  0.0845 -0.2584  0.2526
  624MOL0     C84139   6.862   3.076   1.435 -0.6491 -0.7314  0.0699
  624MOL0     C84140   6.981   3.030   1.384  0.1127 -0.7663  0.4750
  624MOL0     O84141   7.027   2.897   1.390 -0.4612  0.6943  1.0338
  624MOL0     C84142   6.974   2.808   1.484  0.6019 -0.1838 -0.3066
  624MOL0     C84143   7.041   2.668   1.485  0.5069  0.7316  0.7800
  624MOL0     C84144   7.015   2.597   1.354  0.2944 -0.2745 -0.1184
  624MOL0     C84145   6.892   2.501   1.356 -0.3679  0.5730 -0.5446
  624MOL0     C84146   6.899   2.381   1.444  1.6859 -0.1313 -0.0517
  624MOL0     C84147   7.024   2.305   1.392  0.2088 -0.7362 -0.4353
  624MOL0     C84148   7.036   2.168   1.458  0.6818 -0.0537  0.1633
  624MOL0     C84149   7.152   2.078   1.400  1.2885  0.3529  0.0218
  624MOL0    Cl84150   7.310   2.161   1.398  0.0810  0.3366  0.5292
  624MOL0     C84151   7.067   3.123   1.323  0.7606 -0.4051 -0.4006
  624MOL0     C84152   7.043   3.260   1.326 -0.5186  0.4086  0.4279
  624MOL0     O84153   6.811   3.484   1.548  0.1235 -0.5388  0.0185
  624MOL0     C84154   6.800   3.681   1.260 -0.5519  1.2017  0.6852
  624MOL0     C84155   6.759   3.807   1.207  0.4618 -0.3708  0.3123
  624MOL0     N84156   6.789   4.663   1.350 -0.1042  0.1526  0.4558
  624MOL0     N84157   6.700   4.757   1.394 -0.5275 -0.3036  0.0296
  624MOL0     C84158   6.285   5.468   2.282 -1.3600  0.1486  0.5881
  624MOL0     C84159   6.267   5.554   2.395 -0.0524  0.2567  0.7961
  624MOL0     C84160   6.284   5.787   2.775 -0.2730 -0.8018  0.2720
  624MOL0     C84161   6.154   5.769   2.834  0.1231  1.0520  0.4374
  624MOL0     C84162   6.092   5.846   2.927  0.4537  0.6617 -0.6618
  624MOL0     C84163   6.165   5.947   2.983  1.0979 -1.2671  0.3077
  624MOL0     O84164   6.109   6.011   3.088  0.3642 -0.9434 -0.4249
  624MOL0     C84165   6.128   6.154   3.105 -0.1432  0.3575  0.7168
  624MOL0     C84166   6.047   6.209   3.224 -0.3441 -0.1161 -0.1233
  624MOL0     C84167   6.108   6.323   3.301  0.0343 -0.5220 -0.0095
  624MOL0     C84168   6.016   6.378   3.413 -0.9964 -0.7010 -0.2373
  624MOL0     C84169   5.988   6.273   3.514 -0.1387  0.6051 -0.6595
  624MOL0     C84170   5.986   6.193   3.610  0.8547  0.3164  0.4952
  624MOL0     C84171   6.298   5.972   2.943  0.0965 -0.4578  0.1101
  624MOL0     C84172   6.365   5.890   2.840  0.3544  0.3434 -0.3133
  624MOL0     H84173   6.352   5.341   2.637  0.4090  1.6748  0.6967
  624MOL0     H84174   6.372   5.187   2.450  1.5969  1.2848  1.6705
  624MOL0     H84175   6.373   5.049   2.241  2.1900 -0.5574 -2.3081
  624MOL0     H84176   6.200   5.108   2.209  0.0098 -0.0990  1.9363
  624MOL0     H84177   6.280   4.961   2.034  1.8008 -1.4843  0.7891
  624MOL0     H84178   6.268   5.136   1.979  0.1606  0.7808  0.7483
  624MOL0     H84179   6.529   5.147   2.031 -1.9612  0.9570  0.7233
  624MOL0     H84180   6.514   4.972   2.054  0.9887  0.0532  1.5591
  624MOL0     H84181   6.420   4.979   1.801  1.0979 -1.6942  0.9706
  624MOL0     H84182   6.481   5.141   1.785 -0.0153  0.1902  0.6123
  624MOL0     H84183   6.689   4.990   1.881 -3.7155  0.4413  3.5814
  624MOL0     H84184   6.581   4.859   1.817 -1.6578  0.9614 -0.3719
  624MOL0     H84185   6.671   5.062   1.628 -1.0019 -1.2204 -1.7003
  624MOL0     H84186   6.737   4.900   1.630 -1.1708 -2.6680  1.1060
  624MOL0     H84187   6.441   4.968   1.592 -1.0701 -2.3367  0.4291
  624MOL0     H84188   6.540   4.942   1.456 -0.3201  0.9959  0.8151
  624MOL0     H84189   6.418   4.753   1.490 -0.3130  1.4428  1.3286
  624MOL0     H84190   6.482   4.715   1.654 -0.8158 -1.3069 -0.4134
  624MOL0     H84191   6.565   4.475   1.514  0.1950  1.9708  3.8940
  624MOL0     H84192   6.901   4.453   1.290  0.1741 -3.3826 -0.9744
  624MOL0     H84193   6.865   4.359   1.439 -0.4496 -3.8941 -1.3918
  624MOL0     H84194   6.823   4.271   1.198  1.5664  1.7020 -0.0670
  624MOL0     H84195   6.675   4.363   1.197  1.5189 -1.0198 -1.0017
  624MOL0     H84196   6.588   4.285   1.401 -0.1996  2.7324 -1.5194
  624MOL0     H84197   6.730   4.180   1.427  2.4192  3.8254  1.1249
  624MOL0     H84198   6.538   4.162   1.179 -1.0866 -0.4313  1.1729
  624MOL0     H84199   6.510   4.059   1.320  1.7834 -1.9427  1.0323
  624MOL0     H84200   6.713   3.976   1.493  0.2058 -0.1861 -0.6262
  624MOL0     H84201   6.737   3.686   1.689  0.4494 -2.8419 -3.9767
  624MOL0     H84202   6.902   3.739   1.658 -0.4183 -3.3363 -0.1209
  624MOL0     H84203   6.755   3.859   1.672  0.0868  0.4282 -0.5280
  624MOL0     H84204   6.746   3.240   1.481  0.2156  1.3921 -0.2251
  624MOL0     H84205   6.798   3.007   1.488  1.1463 -3.2186 -0.8593
  624MOL0     H84206   6.991   2.849   1.584  6.1724 -4.0291  0.7816
  624MOL0     H84207   6.869   2.786   1.464  0.6526 -1.0969  0.3481
  624MOL0     H84208   7.151   2.670   1.479  0.5286 -1.3688 -0.3481
  624MOL0     H84209   7.014   2.603   1.569 -1.4396  1.8648  1.0685
  624MOL0     H84210   7.104   2.545   1.318  0.0969 -1.8242  1.4624
  624MOL0     H84211   6.989   2.673   1.281 -0.3034 -1.0891 -0.7744
  624MOL0     H84212   6.800   2.559   1.370  0.6149  2.7641 -2.4559
  624MOL0     H84213   6.893   2.466   1.253 -0.0468  1.7608 -0.9642
  624MOL0     H84214   6.814   2.315   1.426  2.7138 -1.7189  0.7102
  624MOL0     H84215   6.908   2.402   1.551 -3.9414 -2.7737  1.2872
  624MOL0     H84216   7.026   2.284   1.285 -1.4389 -0.3849 -0.5497
  624MOL0     H84217   7.114   2.361   1.422  0.0579 -0.2853 -0.8211
  624MOL0     H84218   6.946   2.115   1.424  0.4110  0.7181 -0.3441
  624MOL0     H84219   7.042   2.169   1.567 -1.6850  0.9360  0.3587
  624MOL0     H84220   7.124   2.051   1.298  0.0277 -2.8165  1.0899
  624MOL0     H84221   7.158   1.995   1.471  0.1162  2.0535  2.2639
  624MOL0     H84222   7.157   3.083   1.277 -0.1917 -0.6809 -2.1051
  624MOL0     H84223   7.117   3.322   1.276 -1.3099 -0.9293 -2.6473
  624MOL0     H84224   6.820   3.609   1.180  1.8752  1.9849  0.5083
  624MOL0     H84225   6.753   3.820   1.100  3.4828  0.5021  0.1686
  624MOL0     H84226   6.289   5.517   2.184  2.7840  1.8756  1.4243
  624MOL0     H84227   6.218   5.651   2.386 -1.2767 -0.3566  0.7287
  624MOL0     H84228   6.104   5.681   2.795  2.7994 -0.8548  1.0049
  624MOL0     H84229   5.991   5.833   2.964  0.3301  3.5244  0.2726
  624MOL0     H84230   6.237   6.163   3.108  0.0773 -0.2202 -2.3955
  624MOL0     H84231   6.090   6.203   3.014  3.2512  0.7829 -0.6325
  624MOL0     H84232   6.013   6.131   3.291 -0.5937  0.3772  0.3330
  624MOL0     H84233   5.954   6.247   3.181  0.3392 -0.4141 -1.9887
  624MOL0     H84234   6.131   6.404   3.232 -0.5928 -0.8695 -0.6362
  624MOL0     H84235   6.200   6.284   3.346  0.2782 -0.9785 -0.8936
  624MOL0     H84236   5.929   6.434   3.376  0.6531  1.7466 -0.6546
  624MOL0     H84237   6.080   6.449   3.465 -0.9914 -0.1778 -0.9472
  624MOL0     H84238   5.993   6.129   3.696 -2.3732 -2.4434 -1.1019
  624MOL0     H84239   6.357   6.045   2.997  2.5847 -3.4452  1.7677
  624MOL0     H84240   6.465   5.909   2.803 -0.0721  2.4298 -0.5329
  625MOL0     O84241  11.420   9.075   7.636 -0.2384 -0.1861 -0.6221
  625MOL0     C84242  11.298   9.066   7.629 -0.5782 -0.0646  0.7657
  625MOL0     O84243  11.221   9.167   7.585 -0.1914 -0.1284  0.3664
  625MOL0     C84244  11.258   9.282   7.518 -0.9296  0.1493  0.4125
  625MOL0     C84245  11.168   9.388   7.534  0.1238 -0.0329  0.4601
  625MOL0     C84246  11.199   9.505   7.471 -1.1610  0.0282  1.2211
  625MOL0     C84247  11.322   9.526   7.410 -0.5449 -0.1362  0.5614
  625MOL0     O84248  11.357   9.647   7.355 -1.0228 -0.5081  0.5843
  625MOL0     C84249  11.337   9.758   7.433  0.3385 -0.7159  0.4540
  625MOL0     C84250  11.221   9.834   7.377  0.6324  0.2567  0.3740
  625MOL0     C84251  11.236   9.989   7.371  0.5946 -0.2781  0.1600
  625MOL0     C84252  11.329  10.041   7.248  1.1717 -0.0969  0.0233
  625MOL0     C84253  11.266  10.026   7.108  0.4926 -0.4200  0.1541
  625MOL0     C84254  11.367  10.084   6.997 -0.5192  0.3622 -0.4438
  625MOL0     C84255  11.299  10.153   6.879 -1.3438  0.1391  0.2731
  625MOL0     C84256  11.398  10.206   6.772  0.7181 -0.3464 -0.2883
  625MOL0     N84257  11.327  10.185   6.645 -0.1983  0.7226 -0.4487
  625MOL0     C84258  11.330  10.070   6.570 -0.3067 -0.2041 -0.5019
  625MOL0     C84259  11.230  10.083   6.479  0.0588 -0.5011  0.8920
  625MOL0     C84260  11.184   9.978   6.378 -0.4144 -0.0689 -0.4723
  625MOL0     C84261  11.229  10.003   6.240  0.4056  0.7336 -0.6389
  625MOL0     C84262  11.113  10.070   6.171  0.3890 -0.1223  0.9567
  625MOL0     C84263  11.153  10.148   6.047  0.0441 -0.4160  0.4835
  625MOL0     O84264  11.030  10.179   5.968 -0.4883  0.0238 -1.2187
  625MOL0     C84265  11.031  10.308   5.918  0.3534 -0.7561  0.6082
  625MOL0     C84266  11.070  10.329   5.788  0.7135 -0.1860 -0.9726
  625MOL0     C84267  11.063  10.468   5.746  0.5267  0.6922  0.5578
  625MOL0     C84268  11.089  10.488   5.596  0.5769 -0.5001 -1.2266
  625MOL0     C84269  11.031  10.578   5.833 -0.2810 -0.1598  0.0417
  625MOL0     C84270  11.024  10.717   5.781  0.2848  0.6021  0.0514
  625MOL0     O84271  10.954  10.747   5.667  1.1845 -0.2800 -0.2911
  625MOL0     C84272  10.958  10.877   5.613 -0.1963  0.4454  0.0411
  625MOL0     C84273  11.064  10.963   5.639 -0.4852 -0.8092  0.6620
  625MOL0     C84274  11.065  11.089   5.576 -0.3334  0.8385  0.2673
  625MOL0     C84275  10.954  11.128   5.496  0.3159  0.0301  0.1941
  625MOL0     O84276  10.936  11.253   5.453 -0.3985 -0.5789 -0.2448
  625MOL0     C84277  11.055  11.336   5.437  1.0199 -0.4509 -0.0679
  625MOL0     C84278  11.061  11.440   5.539  0.2756 -0.4885 -0.0353
  625MOL0     C84279  10.970  11.557   5.503  0.2670  0.6103 -0.1731
  625MOL0     C84280  10.941  11.658   5.603 -0.2211  0.5250 -0.1203
  625MOL0     C84281  10.848  11.762   5.544 -0.6849 -0.3638 -0.1441
  625MOL0     C84282  10.842  11.882   5.646 -0.5581 -0.1597  0.5806
  625MOL0     C84283  10.748  11.997   5.593 -0.3760 -0.5576  0.2617
  625MOL0     C84284  10.694  12.075   5.709 -1.0285  0.3348  0.8746
  625MOL0    Cl84285  10.808  12.200   5.758  0.4862 -0.2460  0.4251
  625MOL0     C84286  10.842  11.049   5.480 -0.5205  0.3788 -1.2247
  625MOL0     C84287  10.847  10.919   5.540  0.5338 -0.2548  0.3440
  625MOL0     O84288  11.046  10.791   5.871  0.6180 -0.2341 -0.2708
  625MOL0     C84289  10.977  10.541   5.954  1.3598  0.5560 -0.3956
  625MOL0     C84290  10.966  10.402   5.992 -0.0484  0.5631  0.0217
  625MOL0     N84291  11.175  10.208   6.498  1.0752  1.0074 -0.8457
  625MOL0     N84292  11.236  10.265   6.596  0.7923 -0.3542  0.3999
  625MOL0     C84293  11.415   9.430   7.401  0.7220  0.4223  0.8360
  625MOL0     C84294  11.387   9.304   7.452  1.0962 -0.1556  0.2308
  625MOL0     C84295  11.238   8.948   7.677 -0.9726 -0.1162  0.1192
  625MOL0     C84296  11.316   8.831   7.719  0.2547  0.0483  1.1498
  625MOL0     C84297  11.251   8.720   7.761 -0.0665 -0.3306 -0.0497
  625MOL0     C84298  11.114   8.724   7.787 -0.1682 -0.2218  0.5320
  625MOL0     O84299  11.068   8.607   7.829 -0.1143  0.3401  0.0246
  625MOL0     C84300  10.931   8.579   7.852 -0.3554  0.2068 -0.1310
  625MOL0     C84301  10.902   8.434   7.854  0.2309 -0.2570 -0.2343
  625MOL0     C84302  10.979   8.353   7.744 -0.2453  0.2079 -0.1462
  625MOL0     C84303  10.938   8.210   7.771  0.8704 -0.8276  0.0920
  625MOL0     C84304  10.983   8.130   7.654  0.0686 -0.8509  0.3427
  625MOL0     C84305  11.008   8.076   7.549  0.4673 -0.4750 -0.8642
  625MOL0     C84306  11.035   8.831   7.766 -1.0335 -0.2859  0.2277
  625MOL0     C84307  11.095   8.941   7.694  0.1557 -0.6341 -0.2794
  625MOL0     H84308  11.070   9.369   7.576 -0.0778 -0.9944 -0.4258
  625MOL0     H84309  11.131   9.591   7.474  0.5616  1.4174  2.4471
  625MOL0     H84310  11.340   9.741   7.541  2.0741  2.3519  0.9908
  625MOL0     H84311  11.420   9.827   7.416 -0.0386 -0.4759 -0.4410
  625MOL0     H84312  11.198   9.802   7.275  1.5179  3.0108 -0.7887
  625MOL0     H84313  11.140   9.801   7.442  4.4638 -4.3738  3.5594
  625MOL0     H84314  11.141  10.043   7.363  1.2061  1.3199  2.6091
  625MOL0     H84315  11.278  10.023   7.466  1.5184  0.7406 -0.5808
  625MOL0     H84316  11.360  10.145   7.257 -1.1723  0.5315  1.6090
  625MOL0     H84317  11.425   9.989   7.240  1.0894  0.0003 -2.1911
  625MOL0     H84318  11.250   9.920   7.089  3.6736 -1.4963  2.5636
  625MOL0     H84319  11.171  10.080   7.115  0.9644  0.4001  0.4423
  625MOL0     H84320  11.427  10.165   7.039 -0.1675 -1.0336  1.8768
  625MOL0     H84321  11.425  10.001   6.956 -4.8910 -3.5600  0.3833
  625MOL0     H84322  11.220  10.090   6.836 -1.9390 -1.9437  3.9439
  625MOL0     H84323  11.258  10.246   6.919  0.9270  1.0425  0.6390
  625MOL0     H84324  11.491  10.151   6.755 -0.2008 -1.9298 -0.3499
  625MOL0     H84325  11.431  10.310   6.780  2.4204 -0.8731 -0.1877
  625MOL0     H84326  11.388   9.982   6.595  1.0872  0.3667 -1.5686
  625MOL0     H84327  11.248   9.891   6.392  4.3548  2.1533 -5.0115
  625MOL0     H84328  11.078   9.952   6.388 -0.4292 -0.4730 -1.5221
  625MOL0     H84329  11.252   9.908   6.190 -1.9067 -0.2062 -0.0138
  625MOL0     H84330  11.320  10.065   6.237  0.4364  0.8977  1.7170
  625MOL0     H84331  11.067  10.133   6.247  1.5285 -1.1818  2.5898
  625MOL0     H84332  11.046   9.995   6.127  3.5421 -2.2527 -0.6097
  625MOL0     H84333  11.224  10.089   5.988  0.0550 -1.0904  1.1639
  625MOL0     H84334  11.209  10.237   6.077  0.4931 -0.2813 -0.6981
  625MOL0     H84335  11.106  10.241   5.737  1.0883 -1.1734  0.8985
  625MOL0     H84336  11.178  10.551   5.587  0.0477  0.1884 -1.8796
  625MOL0     H84337  11.114  10.400   5.537  4.3796 -0.3973 -0.0366
  625MOL0     H84338  10.994  10.521   5.551 -1.5092 -2.8737  1.1172
  625MOL0     H84339  11.155  10.939   5.693  0.0852 -0.6373 -0.1992
  625MOL0     H84340  11.151  11.155   5.584 -2.3141  4.0834 -2.6044
  625MOL0     H84341  11.152  11.287   5.429  1.3739  0.2132  0.1017
  625MOL0     H84342  11.044  11.385   5.340  2.0724 -0.3838 -0.1578
  625MOL0     H84343  11.032  11.396   5.635  0.3207 -3.2829 -1.1855
  625MOL0     H84344  11.160  11.485   5.546 -0.7968  2.0184  0.1410
  625MOL0     H84345  10.873  11.511   5.480 -0.5791  2.1265  0.1773
  625MOL0     H84346  11.007  11.612   5.416  1.4527 -1.0744 -0.7798
  625MOL0     H84347  10.909  11.622   5.702 -0.3253 -0.0807 -0.3680
  625MOL0     H84348  11.041  11.699   5.621 -0.6051  1.1929  0.5298
  625MOL0     H84349  10.751  11.727   5.509  1.0322 -1.0965 -4.8399
  625MOL0     H84350  10.906  11.789   5.455  0.9201  0.5095  1.1154
  625MOL0     H84351  10.804  11.851   5.744 -0.0500  0.6774  1.0552
  625MOL0     H84352  10.946  11.907   5.667  0.0364 -3.4205  2.1887
  625MOL0     H84353  10.676  11.947   5.527  2.1060  0.0276 -3.1974
  625MOL0     H84354  10.809  12.063   5.530 -0.9424 -2.9298 -3.0733
  625MOL0     H84355  10.668  11.999   5.783  0.2447 -4.1163 -2.7748
  625MOL0     H84356  10.604  12.132   5.683 -0.5677  0.5829 -0.2405
  625MOL0     H84357  10.756  11.090   5.429  1.0459  1.9356 -2.7789
  625MOL0     H84358  10.763  10.854   5.514  0.2986 -0.5663  1.7930
  625MOL0     H84359  10.929  10.610   6.023 -2.3866 -1.4835 -0.6749
  625MOL0     H84360  10.918  10.347   6.072  1.2522 -1.6998 -0.6785
  625MOL0     H84361  11.502   9.455   7.341 -2.1317  3.5823 -2.4532
  625MOL0     H84362  11.436   9.212   7.421 -3.0460 -2.8279  0.8377
  625MOL0     H84363  11.421   8.834   7.692 -0.0822  3.7762 -0.2465
  625MOL0     H84364  11.292   8.622   7.783 -4.2947 -2.4042 -0.4556
  625MOL0     H84365  10.904   8.629   7.945  1.0677  1.1176 -0.1791
  625MOL0     H84366  10.872   8.629   7.774 -0.5002  1.1315  0.5447
  625MOL0     H84367  10.793   8.428   7.840 -0.4790  1.5323  3.3652
  625MOL0     H84368  10.917   8.385   7.951  1.7563 -3.4539 -1.9510
  625MOL0     H84369  11.088   8.359   7.753 -0.3758  1.3377  1.0160
  625MOL0     H84370  10.946   8.379   7.643 -2.9801 -2.9966 -0.2676
  625MOL0     H84371  10.831   8.201   7.794  0.4375  0.9534 -1.0428
  625MOL0     H84372  10.985   8.176   7.864  1.0846  4.6038  2.2898
  625MOL0     H84373  11.034   8.015   7.464 -1.0181 -3.1397  0.4739
  625MOL0     H84374  10.929   8.824   7.787 -1.6972 -0.9526 -2.8167
  625MOL0     H84375  11.019   9.010   7.659 -1.2934 -1.2114  1.5498
  626MOL0     O84376   1.253  10.077   3.018 -0.3094  0.1127 -0.0317
  626MOL0     C84377   1.359  10.028   2.989 -0.4152  0.4957  1.1578
  626MOL0     O84378   1.373   9.954   2.878 -0.3445  1.0383 -0.5002
  626MOL0     C84379   1.267   9.956   2.785  0.5592 -1.3766  0.6490
  626MOL0     C84380   1.309   9.988   2.655  0.1745  0.5529  0.1602
  626MOL0     C84381   1.220   9.977   2.549 -0.3324 -0.0997  0.5803
  626MOL0     C84382   1.083   9.940   2.577  0.2760 -0.8907 -0.6721
  626MOL0     O84383   0.991   9.913   2.480  0.6039 -0.1275 -0.4686
  626MOL0     C84384   1.004   9.964   2.346 -0.1208  0.5010  1.3452
  626MOL0     C84385   0.871   9.984   2.271  0.1984  0.1340 -0.2821
  626MOL0     C84386   0.884  10.082   2.158 -0.8375 -0.2882 -0.4014
  626MOL0     C84387   0.818  10.222   2.184 -0.1137  0.7473 -0.0213
  626MOL0     C84388   0.838  10.314   2.063 -0.1964  0.5025  0.0165
  626MOL0     C84389   0.790  10.455   2.075  0.8897 -0.1732  0.6450
  626MOL0     C84390   0.633  10.458   2.065  0.5682 -0.0351  0.0142
  626MOL0     C84391   0.575  10.589   2.002  0.5188 -0.0736  0.2123
  626MOL0     N84392   0.603  10.714   2.080 -0.8210 -0.6291 -0.6819
  626MOL0     C84393   0.565  10.744   2.207 -0.3410 -0.8982 -1.0812
  626MOL0     C84394   0.563  10.879   2.215  0.0595 -0.5163 -0.7616
  626MOL0     C84395   0.519  10.952   2.338  0.3769 -0.2186 -0.6867
  626MOL0     C84396   0.641  11.010   2.406 -0.5632 -0.8606 -0.2513
  626MOL0     C84397   0.622  11.145   2.479  0.8771 -0.4469 -0.0364
  626MOL0     C84398   0.616  11.278   2.398 -0.2481 -0.2696  0.0818
  626MOL0     O84399   0.712  11.386   2.428  0.9243  0.1516 -0.2749
  626MOL0     C84400   0.676  11.516   2.406  0.0750  0.2150 -0.4821
  626MOL0     C84401   0.775  11.615   2.422 -0.1325 -0.1999  0.3429
  626MOL0     C84402   0.765  11.744   2.390  0.0900 -1.8208  0.3260
  626MOL0     C84403   0.875  11.842   2.422 -0.5565  0.4041  0.8403
  626MOL0     C84404   0.646  11.801   2.331  0.2484 -0.7736  0.5605
  626MOL0     C84405   0.617  11.948   2.308  0.1704  0.2835 -0.4004
  626MOL0     O84406   0.495  11.979   2.252  0.7943  0.4357 -0.4549
  626MOL0     C84407   0.469  12.111   2.221  0.5127 -0.2221  0.7383
  626MOL0     C84408   0.459  12.132   2.080  0.1502 -0.1137  0.8346
  626MOL0     C84409   0.433  12.258   2.034  0.0803  0.3414  0.1473
  626MOL0     C84410   0.434  12.362   2.118  0.4975 -0.0943  0.2312
  626MOL0     O84411   0.439  12.475   2.049  0.2455 -0.1332  0.3076
  626MOL0     C84412   0.515  12.589   2.098  0.5751 -0.8749 -0.3635
  626MOL0     C84413   0.664  12.585   2.058  0.4787 -0.0612  1.5723
  626MOL0     C84414   0.743  12.704   2.110 -0.9458 -0.3525 -0.0726
  626MOL0     C84415   0.886  12.699   2.046  0.1224 -0.2959 -0.5024
  626MOL0     C84416   0.955  12.823   2.110  1.1149  0.4745  1.0601
  626MOL0     C84417   1.026  12.792   2.236 -0.6294  0.9197 -0.6229
  626MOL0     C84418   1.094  12.915   2.298  0.0400 -0.2695  0.2376
  626MOL0     C84419   1.155  12.911   2.441  0.8672  0.1726  0.8052
  626MOL0    Cl84420   1.225  12.753   2.475 -0.2353 -0.1004  0.3788
  626MOL0     C84421   0.435  12.347   2.264 -0.2322  1.0335  0.6522
  626MOL0     C84422   0.443  12.214   2.308 -0.4266  0.1121 -0.2974
  626MOL0     O84423   0.702  12.030   2.328  0.1275  0.2599  0.1038
  626MOL0     C84424   0.535  11.709   2.320 -0.1296  0.3095 -0.1753
  626MOL0     C84425   0.548  11.568   2.359 -0.7027  0.1422  0.6440
  626MOL0     N84426   0.612  10.938   2.099  0.2845 -0.0129 -0.6265
  626MOL0     N84427   0.622  10.842   2.019  0.0785 -0.4088 -0.4322
  626MOL0     C84428   1.042   9.926   2.710  1.1584  0.7760  0.0962
  626MOL0     C84429   1.135   9.932   2.820  0.4627 -0.0201  0.8406
  626MOL0     C84430   1.480  10.039   3.083 -0.8880  0.5450  0.9807
  626MOL0     C84431   1.473  10.120   3.197  0.0248 -0.6256 -0.3926
  626MOL0     C84432   1.584  10.118   3.286 -0.0241  0.2195  0.5592
  626MOL0     C84433   1.698  10.045   3.253 -0.0863 -0.1466 -0.2676
  626MOL0     O84434   1.786  10.030   3.352  0.0702 -0.0876 -0.0305
  626MOL0     C84435   1.774   9.891   3.408 -1.0885  0.0501 -0.5064
  626MOL0     C84436   1.916   9.843   3.411 -0.1337 -0.9136  0.2813
  626MOL0     C84437   1.947   9.781   3.269  0.5742 -0.7419  0.6533
  626MOL0     C84438   2.068   9.672   3.275  0.0477  0.3933 -0.1121
  626MOL0     C84439   2.031   9.554   3.348  0.2773 -0.6061  0.5926
  626MOL0     C84440   2.017   9.449   3.390 -0.8285 -0.9019 -0.5578
  626MOL0     C84441   1.716   9.985   3.128 -0.0478  0.0016 -1.6063
  626MOL0     C84442   1.601   9.977   3.051 -1.1405 -0.0438  0.6900
  626MOL0     H84443   1.414  10.011   2.649  0.8488 -2.0929  0.3311
  626MOL0     H84444   1.257  10.004   2.450 -4.5256  1.8689 -0.6885
  626MOL0     H84445   1.066  10.053   2.352  3.6241 -1.9165  1.4259
  626MOL0     H84446   1.071   9.904   2.284  0.0724  1.6172  0.4415
  626MOL0     H84447   0.820   9.894   2.235  1.9398 -0.4051 -1.5688
  626MOL0     H84448   0.814  10.025   2.354  1.0664  0.4395  0.1771
  626MOL0     H84449   0.989  10.086   2.126  1.9450 -5.8171  5.6984
  626MOL0     H84450   0.832  10.031   2.076 -1.9397 -0.7814  0.5689
  626MOL0     H84451   0.711  10.210   2.203 -0.1507  0.4371 -0.3982
  626MOL0     H84452   0.849  10.263   2.280  1.7085  0.2474 -0.3710
  626MOL0     H84453   0.943  10.338   2.042 -0.3914  1.1289 -0.2710
  626MOL0     H84454   0.799  10.259   1.977 -0.8032 -2.3698  1.9685
  626MOL0     H84455   0.806  10.499   2.174  0.4756  0.7292  0.3259
  626MOL0     H84456   0.826  10.517   1.992  0.6971 -2.2007 -1.0390
  626MOL0     H84457   0.578  10.382   2.011 -2.0722  0.9791  1.1063
  626MOL0     H84458   0.584  10.442   2.162 -0.8292 -1.8364 -0.9383
  626MOL0     H84459   0.466  10.581   1.996  0.5759  0.0393 -2.4928
  626MOL0     H84460   0.618  10.610   1.903  1.4910  0.6793  0.7801
  626MOL0     H84461   0.515  10.674   2.273 -0.5930 -0.5487 -0.8993
  626MOL0     H84462   0.455  11.035   2.304 -0.4188 -0.2308  0.6762
  626MOL0     H84463   0.459  10.886   2.402 -2.2920  1.0923 -1.6712
  626MOL0     H84464   0.729  11.017   2.341 -0.0656  1.6653  0.5860
  626MOL0     H84465   0.673  10.936   2.480  1.2204  0.1020  0.0012
  626MOL0     H84466   0.698  11.155   2.558 -1.5254  0.6230  2.3076
  626MOL0     H84467   0.526  11.127   2.529  1.4972 -2.7458  0.4768
  626MOL0     H84468   0.510  11.306   2.408 -0.5649 -0.4139 -2.2547
  626MOL0     H84469   0.624  11.266   2.290 -1.4266  1.6156 -0.2764
  626MOL0     H84470   0.877  11.584   2.440  0.0758 -0.4184 -1.1089
  626MOL0     H84471   0.970  11.790   2.439 -0.9498 -0.1219  1.4714
  626MOL0     H84472   0.893  11.903   2.333 -0.5664 -0.7333  0.0416
  626MOL0     H84473   0.855  11.895   2.515  1.3153 -2.5794  3.1335
  626MOL0     H84474   0.470  12.047   2.012 -0.9306 -0.8761  1.5792
  626MOL0     H84475   0.431  12.283   1.928  3.4000 -0.0384 -0.0937
  626MOL0     H84476   0.477  12.684   2.060  0.8909  0.4894  2.4858
  626MOL0     H84477   0.497  12.611   2.204 -2.7315  0.4878 -1.0643
  626MOL0     H84478   0.706  12.491   2.096  0.2714 -1.2567 -0.9768
  626MOL0     H84479   0.658  12.574   1.949 -0.0325  2.0677  1.3331
  626MOL0     H84480   0.739  12.706   2.219 -1.0518 -1.6210 -0.0444
  626MOL0     H84481   0.690  12.791   2.068  3.3695  1.5337 -2.2328
  626MOL0     H84482   0.946  12.616   2.082  1.8435  0.6092 -1.1684
  626MOL0     H84483   0.889  12.697   1.936 -0.0875  0.7185 -0.5353
  626MOL0     H84484   0.897  12.913   2.130  0.1462  0.4207 -1.1994
  626MOL0     H84485   1.031  12.846   2.035  3.0616 -3.6688  1.4488
  626MOL0     H84486   0.955  12.746   2.305 -0.4312  2.7394  0.8878
  626MOL0     H84487   1.105  12.720   2.213 -0.9431  0.4348 -0.1986
  626MOL0     H84488   1.027  13.000   2.311 -1.9207 -2.0409  2.6646
  626MOL0     H84489   1.175  12.942   2.229  0.9365 -0.3638  1.2318
  626MOL0     H84490   1.072  12.926   2.511 -0.2133 -0.2287 -0.3467
  626MOL0     H84491   1.236  12.981   2.463  2.5102 -0.7666 -1.8432
  626MOL0     H84492   0.438  12.425   2.340 -2.0835 -0.7021  2.6169
  626MOL0     H84493   0.444  12.194   2.415 -1.3837 -2.0520 -0.6469
  626MOL0     H84494   0.445  11.743   2.269 -0.9783 -0.1527  0.9857
  626MOL0     H84495   0.472  11.494   2.337 -0.5257 -0.4378  1.9002
  626MOL0     H84496   0.946   9.897   2.751 -0.2715  0.9272 -2.9220
  626MOL0     H84497   1.106   9.907   2.922  4.6584 -0.5593  2.0891
  626MOL0     H84498   1.387  10.185   3.211 -0.1462 -0.8051 -0.5995
  626MOL0     H84499   1.580  10.179   3.375 -4.4576  1.0994 -0.0305
  626MOL0     H84500   1.730   9.902   3.508  1.7042 -0.1603  0.8323
  626MOL0     H84501   1.713   9.821   3.350 -0.7861  0.3761 -1.2148
  626MOL0     H84502   1.954   9.783   3.494 -0.1802  0.2265  1.1408
  626MOL0     H84503   1.973   9.934   3.428 -1.0441 -0.7629  3.0341
  626MOL0     H84504   1.989   9.860   3.205  1.5881 -1.5636  0.2643
  626MOL0     H84505   1.853   9.739   3.233 -0.7375  2.1475  0.4882
  626MOL0     H84506   2.156   9.721   3.318 -1.4544  5.1836 -1.8751
  626MOL0     H84507   2.092   9.652   3.170  0.1331  1.4873 -0.3144
  626MOL0     H84508   2.019   9.360   3.449 -1.0326  0.2048  1.1599
  626MOL0     H84509   1.812   9.951   3.089  0.7634  1.8252 -1.3070
  626MOL0     H84510   1.617   9.929   2.954 -1.2095  2.7798 -0.8338
  627MOL0     O84511   6.265   1.933   5.391 -0.3540  0.9421  0.0851
  627MOL0     C84512   6.227   2.012   5.303  0.1355  0.0445 -0.1246
  627MOL0     O84513   6.161   1.982   5.188 -0.9068  0.0050  0.1726
  627MOL0     C84514   6.118   1.851   5.173 -0.0546  0.5384 -0.6771
  627MOL0     C84515   6.208   1.751   5.163 -0.3751  0.0611  0.5205
  627MOL0     C84516   6.153   1.622   5.153 -0.2281  0.4458  0.3534
  627MOL0     C84517   6.019   1.596   5.146 -0.4774 -0.2089 -0.7942
  627MOL0     O84518   5.952   1.474   5.142 -0.0713 -0.2172  0.2402
  627MOL0     C84519   6.026   1.352   5.121  0.0224 -1.6431  0.6870
  627MOL0     C84520   5.924   1.255   5.063 -0.0688  0.2370  0.1602
  627MOL0     C84521   5.837   1.184   5.166 -0.0112  0.7269  0.9367
  627MOL0     C84522   5.778   1.042   5.133 -1.1127  0.5069  0.5889
  627MOL0     C84523   5.630   1.062   5.108 -0.4467 -0.5851 -0.0280
  627MOL0     C84524   5.542   1.064   5.235  1.5928  0.7395 -0.9180
  627MOL0     C84525   5.409   1.129   5.186  0.3382  0.0876 -0.1669
  627MOL0     C84526   5.317   1.027   5.109 -0.6945 -0.2190  0.1446
  627MOL0     N84527   5.332   0.880   5.148  0.4752 -1.3091  0.8547
  627MOL0     C84528   5.293   0.828   5.270 -1.3075 -0.7441 -0.0934
  627MOL0     C84529   5.349   0.710   5.271  1.3871 -0.4909 -0.4031
  627MOL0     C84530   5.327   0.609   5.380 -0.4377 -0.9964 -0.3777
  627MOL0     C84531   5.461   0.567   5.443 -0.2029 -0.7075 -0.1959
  627MOL0     C84532   5.452   0.510   5.582 -0.7762  0.6500 -0.5214
  627MOL0     C84533   5.560   0.408   5.627  1.0070 -0.0268  0.1262
  627MOL0     O84534   5.540   0.275   5.586 -0.0631 -0.0295  0.2965
  627MOL0     C84535   5.656   0.220   5.528 -0.1131  1.0823 -0.9608
  627MOL0     C84536   5.671   0.230   5.388 -0.2363 -1.0845  0.8407
  627MOL0     C84537   5.791   0.186   5.334  0.2410  1.1186  0.6631
  627MOL0     C84538   5.787   0.199   5.182  0.4026  0.8785  0.5980
  627MOL0     C84539   5.885   0.110   5.410 -0.1196 -0.1545 -0.2880
  627MOL0     C84540   5.997   0.027   5.359  1.2387  0.4094  0.6698
  627MOL0     O84541   6.090  -0.026   5.439 -0.0280  0.7650  0.3196
  627MOL0     C84542   6.201  -0.084   5.370 -0.1183  0.2921  0.0337
  627MOL0     C84543   6.327  -0.036   5.394 -0.8221  0.7959 -0.7666
  627MOL0     C84544   6.439  -0.102   5.346  0.0184  0.3034 -0.4254
  627MOL0     C84545   6.429  -0.228   5.289 -0.7000  0.2020  0.2086
  627MOL0     O84546   6.530  -0.299   5.221 -0.7695 -0.5185  0.3203
  627MOL0     C84547   6.656  -0.317   5.282 -1.1058  0.8163 -0.5173
  627MOL0     C84548   6.757  -0.362   5.166 -0.2196 -0.5080 -0.5650
  627MOL0     C84549   6.885  -0.419   5.231  0.3647 -0.8677 -0.2206
  627MOL0     C84550   6.966  -0.472   5.118  0.3305  0.1738  0.0046
  627MOL0     C84551   7.109  -0.515   5.167 -0.3040  0.0354  0.3905
  627MOL0     C84552   7.205  -0.558   5.050 -0.0921 -0.4168  0.3773
  627MOL0     C84553   7.336  -0.612   5.117  0.1748 -0.5100 -0.1552
  627MOL0     C84554   7.405  -0.688   5.013 -0.1881 -0.3604  0.8203
  627MOL0    Cl84555   7.337  -0.841   4.973 -0.1092 -0.2417 -0.1469
  627MOL0     C84556   6.306  -0.281   5.268 -0.4766  1.0348  0.1567
  627MOL0     C84557   6.186  -0.211   5.319 -0.3058  0.5290 -0.6688
  627MOL0     O84558   5.983  -0.004   5.240  0.0331  0.0253  0.1518
  627MOL0     C84559   5.880   0.124   5.546 -0.7903 -0.7109  0.5342
  627MOL0     C84560   5.765   0.173   5.609 -0.3014  0.4082 -0.2489
  627MOL0     N84561   5.430   0.697   5.156  0.6627  0.1928 -0.2035
  627MOL0     N84562   5.418   0.801   5.082 -1.0605  0.7998  0.0866
  627MOL0     C84563   5.927   1.710   5.156 -0.9060  1.3498  0.5592
  627MOL0     C84564   5.977   1.832   5.176 -0.0055  0.7539  0.1454
  627MOL0     C84565   6.273   2.153   5.302  0.3055 -0.1888 -0.1232
  627MOL0     C84566   6.298   2.232   5.188 -0.0075 -0.2213 -0.3407
  627MOL0     C84567   6.355   2.354   5.205 -0.2547 -0.2952  0.5234
  627MOL0     C84568   6.393   2.410   5.321  0.2650  0.3390 -0.2086
  627MOL0     O84569   6.452   2.534   5.330 -0.3469 -0.9354 -1.0217
  627MOL0     C84570   6.485   2.613   5.212 -0.3427  0.3800 -0.9501
  627MOL0     C84571   6.371   2.688   5.148  0.4046 -0.0420 -0.4633
  627MOL0     C84572   6.325   2.821   5.220 -0.8087 -0.3780  0.3834
  627MOL0     C84573   6.213   2.885   5.147  0.2772 -1.3081  0.2864
  627MOL0     C84574   6.246   2.965   5.025 -0.8239 -0.9290  0.4251
  627MOL0     C84575   6.276   3.031   4.925 -0.7668 -0.2172 -0.8114
  627MOL0     C84576   6.371   2.328   5.436  0.5437 -0.0112 -0.3586
  627MOL0     C84577   6.310   2.204   5.421  0.6652  0.1835 -0.1097
  627MOL0     H84578   6.317   1.759   5.165 -0.1415 -2.3916  2.7927
  627MOL0     H84579   6.227   1.543   5.138 -1.2464 -0.9990  2.4892
  627MOL0     H84580   6.101   1.373   5.043 -1.2004 -1.5746 -0.5178
  627MOL0     H84581   6.071   1.334   5.218 -1.0552  0.5580  1.6634
  627MOL0     H84582   5.866   1.299   4.982  0.1439 -1.4477 -0.9699
  627MOL0     H84583   5.982   1.177   5.012  2.4986  1.9591  0.2285
  627MOL0     H84584   5.897   1.181   5.257  1.3126 -0.3547  0.0607
  627MOL0     H84585   5.757   1.256   5.189 -2.1398 -1.8892  2.3210
  627MOL0     H84586   5.808   1.003   5.035  0.2633  0.4127  1.0256
  627MOL0     H84587   5.782   0.971   5.216 -2.5001  1.3405  1.4028
  627MOL0     H84588   5.631   1.159   5.057  2.2291 -0.2057  0.5848
  627MOL0     H84589   5.578   0.993   5.041  0.3149 -2.6152  1.3558
  627MOL0     H84590   5.535   0.963   5.276  2.0276  1.2484  0.4454
  627MOL0     H84591   5.598   1.126   5.306 -0.5228  2.7651 -0.9212
  627MOL0     H84592   5.343   1.149   5.271  0.2218  3.4074 -0.8775
  627MOL0     H84593   5.417   1.224   5.133 -5.1958 -0.1825 -2.0829
  627MOL0     H84594   5.345   1.042   5.004 -2.4243  1.6438 -0.1124
  627MOL0     H84595   5.210   1.051   5.112 -0.1440  2.6663 -0.4069
  627MOL0     H84596   5.223   0.861   5.346 -0.1561  3.0616 -0.4639
  627MOL0     H84597   5.274   0.650   5.467  1.4432  0.8156 -0.0046
  627MOL0     H84598   5.279   0.520   5.338 -0.9107 -2.0019  2.0626
  627MOL0     H84599   5.537   0.646   5.438 -4.2607  4.1163  3.2751
  627MOL0     H84600   5.511   0.486   5.390 -1.6240 -2.7638  1.4484
  627MOL0     H84601   5.355   0.460   5.586 -1.1256  0.7530 -4.3889
  627MOL0     H84602   5.457   0.598   5.648  2.8226  0.7708 -0.7689
  627MOL0     H84603   5.550   0.414   5.736 -1.6365 -2.6462  0.1456
  627MOL0     H84604   5.656   0.447   5.593  1.1679 -2.5920 -2.7935
  627MOL0     H84605   5.601   0.287   5.327  0.0957  1.2286  2.4669
  627MOL0     H84606   5.889   0.218   5.146  0.1721  1.0879  0.0551
  627MOL0     H84607   5.735   0.117   5.133 -1.0314  1.4455  1.1134
  627MOL0     H84608   5.731   0.290   5.160 -0.4337  0.2626  0.1480
  627MOL0     H84609   6.333   0.060   5.444  0.6835 -0.2242  1.1462
  627MOL0     H84610   6.538  -0.061   5.364 -0.1346  0.5812 -0.2135
  627MOL0     H84611   6.687  -0.224   5.331 -1.3193  0.8544 -0.4525
  627MOL0     H84612   6.651  -0.399   5.355 -0.5908  4.4022  3.9915
  627MOL0     H84613   6.713  -0.440   5.102 -1.3252 -0.0200 -0.4216
  627MOL0     H84614   6.790  -0.273   5.112  0.5282 -0.4758 -0.0679
  627MOL0     H84615   6.866  -0.507   5.293 -1.0209  0.9054  2.0707
  627MOL0     H84616   6.938  -0.339   5.282  0.7467 -0.3252 -1.4372
  627MOL0     H84617   6.903  -0.546   5.066 -1.5832  2.9466 -1.8824
  627MOL0     H84618   6.965  -0.394   5.042 -5.4143  0.2824 -0.2166
  627MOL0     H84619   7.096  -0.598   5.237 -1.7577  1.0585  1.3598
  627MOL0     H84620   7.148  -0.427   5.219  1.4500 -0.0830 -0.6227
  627MOL0     H84621   7.161  -0.630   4.980 -2.3246 -1.1377  2.3674
  627MOL0     H84622   7.217  -0.466   4.992  3.1503  0.0274  1.5475
  627MOL0     H84623   7.327  -0.678   5.204  4.6006  0.1031  1.0034
  627MOL0     H84624   7.391  -0.523   5.149  1.8786 -0.9115 -1.8071
  627MOL0     H84625   7.507  -0.703   5.051 -0.0701 -6.4527 -0.8180
  627MOL0     H84626   7.422  -0.628   4.923 -0.9785  0.2180  1.0552
  627MOL0     H84627   6.302  -0.386   5.239  3.2439  1.8402 -4.4812
  627MOL0     H84628   6.083  -0.245   5.315  0.2906 -1.3503 -1.0959
  627MOL0     H84629   5.945   0.080   5.621 -2.0777 -2.8190  0.5097
  627MOL0     H84630   5.756   0.186   5.716  1.4181 -0.1853 -0.0014
  627MOL0     H84631   5.823   1.685   5.139  0.2476 -2.3554 -2.6615
  627MOL0     H84632   5.896   1.902   5.189 -1.0222  0.7464 -4.3332
  627MOL0     H84633   6.284   2.199   5.085 -0.7251 -2.0832  0.3036
  627MOL0     H84634   6.378   2.419   5.121  0.7796  1.7324  2.2885
  627MOL0     H84635   6.551   2.694   5.245 -0.3295  0.4043 -1.0375
  627MOL0     H84636   6.544   2.549   5.146  3.3516  0.8779  1.5712
  627MOL0     H84637   6.287   2.617   5.145  1.0542 -0.9450  1.3041
  627MOL0     H84638   6.404   2.711   5.047  1.2717  1.4620  0.1358
  627MOL0     H84639   6.411   2.889   5.226 -1.2173  0.0719  1.3905
  627MOL0     H84640   6.294   2.788   5.320  0.5646  0.4520  1.1246
  627MOL0     H84641   6.150   2.946   5.212  0.2264 -0.5190 -0.4832
  627MOL0     H84642   6.146   2.806   5.113 -0.8488 -0.4129  0.3741
  627MOL0     H84643   6.293   3.091   4.838 -1.7580  0.2855 -0.6830
  627MOL0     H84644   6.407   2.374   5.527  0.0445  1.2162 -0.7595
  627MOL0     H84645   6.295   2.152   5.515 -1.7831  0.9678 -0.0020
  628MOL0     O84646   8.263   9.680  10.377 -1.0915 -0.6370 -0.7864
  628MOL0     C84647   8.211   9.570  10.408 -0.5401  0.0030  0.0763
  628MOL0     O84648   8.090   9.557  10.469  0.0689 -0.1130  0.2600
  628MOL0     C84649   8.027   9.656  10.532 -0.3567  0.0097 -0.6047
  628MOL0     C84650   8.095   9.756  10.608  0.7168  0.0275 -0.1798
  628MOL0     C84651   8.018   9.863  10.679  0.6646  0.3054 -1.0111
  628MOL0     C84652   7.876   9.857  10.670  1.5218 -0.7076  0.2614
  628MOL0     O84653   7.794   9.945  10.743 -0.3986 -0.2629  0.3328
  628MOL0     C84654   7.861  10.056  10.819  0.8620 -0.4189  0.5020
  628MOL0     C84655   7.760  10.162  10.868  0.1393 -0.7768  0.1715
  628MOL0     C84656   7.691  10.113  10.993 -0.6759 -0.0873  0.2156
  628MOL0     C84657   7.567  10.193  11.030  0.2940 -0.0607 -0.3578
  628MOL0     C84658   7.502  10.129  11.152 -0.4216 -0.9174 -0.2298
  628MOL0     C84659   7.388  10.226  11.196 -0.1441 -0.1329  0.0212
  628MOL0     C84660   7.276  10.229  11.093  0.0755  0.1878  0.7395
  628MOL0     C84661   7.207  10.096  11.082  0.2012 -0.4931  0.0934
  628MOL0     N84662   7.068  10.110  11.113  0.8196 -0.6863  0.5176
  628MOL0     C84663   6.965  10.117  11.023 -0.5664 -0.2285 -0.1898
  628MOL0     C84664   6.848  10.111  11.101 -0.5908  0.2491  0.6474
  628MOL0     C84665   6.713  10.108  11.034  0.2534  0.0629  0.1598
  628MOL0     C84666   6.597  10.084  11.139  0.4385 -0.3385 -0.3743
  628MOL0     C84667   6.463  10.083  11.061 -0.2803  0.4211 -0.3426
  628MOL0     C84668   6.390  10.213  11.040 -1.3427 -0.9594 -0.5361
  628MOL0     O84669   6.264  10.188  10.966 -0.1014  0.2417  0.1254
  628MOL0     C84670   6.192  10.304  10.926  0.5861  0.6905 -1.1337
  628MOL0     C84671   6.057  10.273  10.883 -1.0446 -1.1120 -0.3551
  628MOL0     C84672   5.978  10.381  10.836  0.3505 -0.4792  0.2766
  628MOL0     C84673   5.840  10.341  10.795  0.4655  0.2839  0.7174
  628MOL0     C84674   6.028  10.514  10.834  0.0678 -0.1881  0.5061
  628MOL0     C84675   5.943  10.640  10.802 -0.2499 -0.5928 -0.2143
  628MOL0     O84676   5.845  10.619  10.700  0.1141 -0.2976 -0.1167
  628MOL0     C84677   5.770  10.724  10.662 -0.4088  0.2445 -0.1892
  628MOL0     C84678   5.634  10.693  10.613 -0.7668 -0.0737 -0.7622
  628MOL0     C84679   5.562  10.797  10.551  0.1210 -0.7712  0.1312
  628MOL0     C84680   5.611  10.926  10.554 -0.5017  0.1058 -1.2918
  628MOL0     O84681   5.536  11.036  10.525 -0.5442 -0.1436 -0.2065
  628MOL0     C84682   5.423  11.028  10.433 -0.2116  0.5391  1.2540
  628MOL0     C84683   5.389  11.176  10.394  0.5289  1.0821 -0.6717
  628MOL0     C84684   5.508  11.255  10.329 -1.1470  0.4018  0.1001
  628MOL0     C84685   5.469  11.398  10.316  0.9204 -0.4097 -0.5321
  628MOL0     C84686   5.548  11.451  10.197 -0.0969  0.5223 -0.3714
  628MOL0     C84687   5.570  11.597  10.202  0.8643 -0.9788  1.0517
  628MOL0     C84688   5.652  11.658  10.084  0.9044  0.4290 -0.5134
  628MOL0     C84689   5.695  11.798  10.109  0.1799  1.6565  0.1211
  628MOL0    Cl84690   5.547  11.905  10.143 -0.0327 -0.1447 -0.3206
  628MOL0     C84691   5.739  10.963  10.599 -0.0473  0.0860 -0.3877
  628MOL0     C84692   5.815  10.857  10.655  0.2628  0.0020 -0.2093
  628MOL0     O84693   5.952  10.731  10.879  0.1736 -0.5180  0.9430
  628MOL0     C84694   6.157  10.530  10.880  0.5086  0.4244 -0.3783
  628MOL0     C84695   6.241  10.429  10.916 -0.2664 -1.0828 -0.9662
  628MOL0     N84696   6.888  10.107  11.234 -0.9603 -0.0175  0.2713
  628MOL0     N84697   7.016  10.115  11.235 -0.2979  0.1384 -0.4393
  628MOL0     C84698   7.813   9.760  10.586  0.1508 -0.6936 -0.5614
  628MOL0     C84699   7.895   9.660  10.527  0.8055  0.1601 -0.1232
  628MOL0     C84700   8.250   9.449  10.332  0.5619  0.1460  0.2163
  628MOL0     C84701   8.212   9.320  10.364 -0.8120 -0.2974 -0.5602
  628MOL0     C84702   8.231   9.211  10.284 -1.3647  0.9327 -0.3129
  628MOL0     C84703   8.307   9.222  10.172  0.2190  0.3766  1.1123
  628MOL0     O84704   8.310   9.110  10.094 -0.4510 -0.4653  0.0675
  628MOL0     C84705   8.246   9.108   9.971  1.2195  0.1039 -0.1005
  628MOL0     C84706   8.098   9.067   9.988  0.3865 -0.0703  0.4851
  628MOL0     C84707   8.014   9.081   9.858 -0.5255 -0.3056  0.0045
  628MOL0     C84708   7.864   9.052   9.898 -0.1262 -0.2642  0.6760
  628MOL0     C84709   7.828   8.913   9.872 -1.0337  0.6512  1.0633
  628MOL0     C84710   7.780   8.802   9.853 -0.4390 -0.3344 -0.2386
  628MOL0     C84711   8.353   9.342  10.131  0.3940  0.1123 -0.5052
  628MOL0     C84712   8.319   9.460  10.214 -0.2193  0.8483 -0.8182
  628MOL0     H84713   8.202   9.764  10.623  1.2331 -0.8680 -2.8832
  628MOL0     H84714   8.072   9.934  10.740 -1.3806  1.6134 -0.5986
  628MOL0     H84715   7.924  10.017  10.900  0.9081  0.9214  1.1388
  628MOL0     H84716   7.933  10.109  10.756  0.2910  0.6441  0.7106
  628MOL0     H84717   7.816  10.253  10.890  0.9445 -1.6341  1.9039
  628MOL0     H84718   7.696  10.186  10.783  3.2677  3.2525 -1.3967
  628MOL0     H84719   7.670  10.006  11.002 -0.9338 -0.1525 -1.0079
  628MOL0     H84720   7.765  10.130  11.072 -0.9635 -1.2268  0.7541
  628MOL0     H84721   7.597  10.297  11.041  3.0076 -0.5691 -1.8976
  628MOL0     H84722   7.503  10.190  10.941 -1.6849 -0.5996  1.0227
  628MOL0     H84723   7.465  10.028  11.132 -0.9622 -0.7350 -0.1802
  628MOL0     H84724   7.587  10.134  11.222  0.6004  0.2596 -1.5026
  628MOL0     H84725   7.335  10.179  11.279  1.6599 -0.3373  1.0967
  628MOL0     H84726   7.417  10.324  11.236 -0.6112 -0.0058  0.0652
  628MOL0     H84727   7.202  10.300  11.131  1.1466  0.5661  2.1961
  628MOL0     H84728   7.312  10.263  10.995 -1.4866  1.5241  0.5862
  628MOL0     H84729   7.241  10.036  11.166 -0.9230  0.5648  1.3438
  628MOL0     H84730   7.221  10.048  10.984  0.4458  1.5867 -0.9552
  628MOL0     H84731   6.963  10.117  10.915 -1.6593  2.1149 -0.2205
  628MOL0     H84732   6.705  10.199  10.974  2.7499 -0.8214 -1.6499
  628MOL0     H84733   6.726  10.025  10.965  0.8333  1.0688 -0.9646
  628MOL0     H84734   6.609  10.160  11.216  1.0749 -4.8119  4.4648
  628MOL0     H84735   6.602   9.993  11.199 -0.1853 -0.9552 -1.2216
  628MOL0     H84736   6.403  10.013  11.119  0.8810 -0.8576 -0.6268
  628MOL0     H84737   6.466  10.034  10.963 -0.6421 -2.0149  0.7705
  628MOL0     H84738   6.453  10.293  11.001  2.3557 -3.4410 -0.2196
  628MOL0     H84739   6.363  10.266  11.132  1.2025  0.5977 -0.5911
  628MOL0     H84740   6.018  10.174  10.904 -1.1052 -0.7733  1.2394
  628MOL0     H84741   5.811  10.353  10.690 -0.3272 -1.7245  0.6668
  628MOL0     H84742   5.808  10.239  10.816  1.1576 -0.0416  0.2185
  628MOL0     H84743   5.765  10.402  10.847 -0.0366  2.7691 -2.6016
  628MOL0     H84744   5.588  10.596  10.630  2.9162 -1.6811  1.1597
  628MOL0     H84745   5.461  10.769  10.523  0.9954 -1.9169 -2.1906
  628MOL0     H84746   5.447  10.962  10.350 -1.1856  1.4799  0.1790
  628MOL0     H84747   5.341  10.980  10.488 -1.5104  1.1613 -0.0468
  628MOL0     H84748   5.301  11.171  10.329 -0.1760 -2.0152  0.3383
  628MOL0     H84749   5.370  11.222  10.491 -0.4549 -1.6368  0.5230
  628MOL0     H84750   5.532  11.204  10.235  0.5072  1.8191 -0.2974
  628MOL0     H84751   5.600  11.233  10.385 -0.1689 -0.5240 -1.7981
  628MOL0     H84752   5.361  11.417  10.309  0.3384 -2.9119  0.4736
  628MOL0     H84753   5.489  11.458  10.405 -0.8063  0.9447 -1.0023
  628MOL0     H84754   5.502  11.415  10.105 -2.7189 -3.4615  2.2228
  628MOL0     H84755   5.636  11.386  10.190 -1.8908 -2.0821 -0.0350
  628MOL0     H84756   5.474  11.648  10.213  1.4432  0.0894  1.2818
  628MOL0     H84757   5.630  11.614  10.292  2.0456  0.8115 -0.0154
  628MOL0     H84758   5.593  11.654   9.992 -0.9929 -2.2846  0.6760
  628MOL0     H84759   5.744  11.601  10.067  0.7334 -1.1344  2.9366
  628MOL0     H84760   5.739  11.846  10.021 -0.0871  3.1774  0.7922
  628MOL0     H84761   5.765  11.798  10.193  0.0552  0.1620  0.2453
  628MOL0     H84762   5.790  11.059  10.606 -0.3732  0.3198 -1.1254
  628MOL0     H84763   5.917  10.871  10.690  0.1089 -0.3216  0.3852
  628MOL0     H84764   6.200  10.629  10.895 -1.4628  1.2281  0.2905
  628MOL0     H84765   6.338  10.477  10.929 -1.2718  1.6713 -2.7550
  628MOL0     H84766   7.706   9.755  10.599  0.2956  0.6719  1.4795
  628MOL0     H84767   7.856   9.569  10.484  1.9221  0.8072 -2.6608
  628MOL0     H84768   8.146   9.310  10.450  1.7888 -0.7586  1.5261
  628MOL0     H84769   8.208   9.107  10.304  0.3398  0.1970 -1.8450
  628MOL0     H84770   8.256   9.202   9.916  0.2062 -1.1349 -2.5654
  628MOL0     H84771   8.300   9.030   9.916 -1.9941 -0.5551 -2.6108
  628MOL0     H84772   8.055   9.139  10.059 -2.3471  0.5897 -1.6575
  628MOL0     H84773   8.082   8.963  10.017 -1.2762  0.6219  2.3285
  628MOL0     H84774   8.057   9.016   9.782  0.5409 -1.6318  1.6639
  628MOL0     H84775   8.014   9.186   9.827 -2.6273 -0.2692  0.0195
  628MOL0     H84776   7.797   9.113   9.837  1.2408 -0.8953 -1.5615
  628MOL0     H84777   7.850   9.074  10.005 -1.5986  1.9189  0.0861
  628MOL0     H84778   7.735   8.705   9.856  1.0047 -1.0458 -0.3466
  628MOL0     H84779   8.418   9.361  10.046 -1.5790 -0.2180 -2.1552
  628MOL0     H84780   8.338   9.562  10.182 -0.4419  1.1703  0.0489
  629MOL0     O84781   2.440   3.630   2.733  0.2930  0.0109 -0.3872
  629MOL0     C84782   2.454   3.536   2.650 -0.2134  0.2608 -0.9891
  629MOL0     O84783   2.432   3.410   2.674 -0.4902 -0.1291 -0.0859
  629MOL0     C84784   2.479   3.355   2.793 -0.0020 -0.0449 -0.1918
  629MOL0     C84785   2.466   3.214   2.819  0.2628  0.1773  0.8661
  629MOL0     C84786   2.525   3.142   2.925  0.4179 -0.1709  0.1927
  629MOL0     C84787   2.574   3.217   3.036 -0.1300  0.3743  0.2518
  629MOL0     O84788   2.615   3.145   3.147 -0.8532 -0.5086 -0.1511
  629MOL0     C84789   2.617   3.213   3.271 -0.3023 -0.4364 -0.1635
  629MOL0     C84790   2.678   3.124   3.382 -0.2071 -0.4154  0.4359
  629MOL0     C84791   2.688   3.195   3.514  0.0471 -0.1425  1.0649
  629MOL0     C84792   2.706   3.079   3.616  0.5692  0.1648 -0.1218
  629MOL0     C84793   2.728   3.135   3.756 -0.0202  0.5713 -1.5045
  629MOL0     C84794   2.631   3.237   3.798 -0.8231 -0.4485 -0.4779
  629MOL0     C84795   2.631   3.285   3.948  0.2742  0.1109 -0.3890
  629MOL0     C84796   2.770   3.338   4.004 -0.2650  0.4808  0.7299
  629MOL0     N84797   2.754   3.392   4.144  0.4797  0.2081  1.3558
  629MOL0     C84798   2.689   3.511   4.186 -0.0741 -1.4147 -0.2590
  629MOL0     C84799   2.699   3.510   4.320  0.0825 -0.2746 -0.0003
  629MOL0     C84800   2.660   3.620   4.417 -1.0927 -0.3671  0.2952
  629MOL0     C84801   2.747   3.748   4.391  1.1704  0.3442 -0.6325
  629MOL0     C84802   2.753   3.825   4.519 -0.5911  0.4632  0.6205
  629MOL0     C84803   2.854   3.941   4.517  0.4780  0.9956  0.0204
  629MOL0     O84804   2.813   4.019   4.400 -0.2022 -0.4448 -0.4443
  629MOL0     C84805   2.797   4.157   4.429  0.4889 -0.5576 -0.9163
  629MOL0     C84806   2.692   4.213   4.363  0.7948 -0.2366 -0.1271
  629MOL0     C84807   2.655   4.348   4.369 -0.3880 -0.5617  0.4180
  629MOL0     C84808   2.538   4.403   4.298 -0.9562 -0.2091  0.3239
  629MOL0     C84809   2.747   4.438   4.444  0.8012 -0.1882  0.7141
  629MOL0     C84810   2.729   4.583   4.466  0.6166 -0.6816  0.6845
  629MOL0     O84811   2.605   4.639   4.457  0.9164  0.9127  1.0000
  629MOL0     C84812   2.560   4.773   4.479 -0.5440  0.2257  0.0925
  629MOL0     C84813   2.624   4.879   4.547  0.3365  0.4802 -0.5601
  629MOL0     C84814   2.561   5.000   4.554  0.3024 -0.0233 -1.8546
  629MOL0     C84815   2.436   5.027   4.492  0.0457 -0.1337  0.4818
  629MOL0     O84816   2.366   5.150   4.475 -0.1992 -0.4949 -0.5054
  629MOL0     C84817   2.357   5.229   4.599 -1.4069  1.0753 -0.2602
  629MOL0     C84818   2.231   5.309   4.617  0.5586  0.7495  0.5573
  629MOL0     C84819   2.188   5.300   4.767  0.9016  0.7332 -0.1200
  629MOL0     C84820   2.121   5.418   4.820  0.7053 -0.7289 -0.9604
  629MOL0     C84821   2.097   5.400   4.974 -0.2665  0.8138 -0.4456
  629MOL0     C84822   2.222   5.418   5.061 -0.3250 -0.0599  0.4294
  629MOL0     C84823   2.184   5.410   5.212 -0.9976  0.4801 -0.2984
  629MOL0     C84824   2.311   5.382   5.301  0.4827 -0.0542 -0.0903
  629MOL0    Cl84825   2.323   5.202   5.299 -0.0997 -0.5985  0.0596
  629MOL0     C84826   2.381   4.922   4.413 -0.4856  0.4900  0.6589
  629MOL0     C84827   2.447   4.799   4.414  0.3150  0.1327  0.2269
  629MOL0     O84828   2.829   4.651   4.481  0.5470 -0.1325 -0.5387
  629MOL0     C84829   2.852   4.377   4.523  0.7226 -0.0944  0.2118
  629MOL0     C84830   2.876   4.235   4.515  0.4731  0.6511  0.0046
  629MOL0     N84831   2.767   3.399   4.359  0.6959  0.9134  0.8173
  629MOL0     N84832   2.812   3.335   4.252 -0.4574 -0.1533 -1.1053
  629MOL0     C84833   2.584   3.353   3.015 -0.3742 -0.2709 -0.8998
  629MOL0     C84834   2.553   3.421   2.896  0.5547  0.4142  0.7576
  629MOL0     C84835   2.506   3.564   2.523 -0.1029  0.2554  0.0554
  629MOL0     C84836   2.576   3.463   2.454 -0.3885  1.0014 -0.0757
  629MOL0     C84837   2.643   3.485   2.330  0.0204  0.9695 -0.0505
  629MOL0     C84838   2.615   3.596   2.258  0.6743  0.6490  0.3093
  629MOL0     O84839   2.663   3.616   2.128  0.7754  1.0959 -0.1988
  629MOL0     C84840   2.709   3.489   2.057  0.6896  0.2802 -0.3416
  629MOL0     C84841   2.590   3.416   1.978 -0.5144  0.4998 -0.5231
  629MOL0     C84842   2.631   3.294   1.902  0.0222  0.3854  0.9659
  629MOL0     C84843   2.640   3.159   1.986 -0.6136 -1.2658 -0.2448
  629MOL0     C84844   2.510   3.107   2.022  0.0211  0.6873  0.8909
  629MOL0     C84845   2.404   3.066   2.054 -0.3555  0.6064  0.9126
  629MOL0     C84846   2.563   3.710   2.332  0.6818 -1.0879 -0.4023
  629MOL0     C84847   2.516   3.698   2.466 -0.3910 -0.0765  0.9737
  629MOL0     H84848   2.431   3.147   2.741  2.7355 -0.3343  0.1073
  629MOL0     H84849   2.532   3.034   2.936  0.6534 -0.2459 -0.6250
  629MOL0     H84850   2.683   3.299   3.266  0.6988 -1.1874 -0.0657
  629MOL0     H84851   2.510   3.230   3.286 -1.6947 -2.5969 -5.4216
  629MOL0     H84852   2.620   3.031   3.379  1.3976 -1.4825 -2.7621
  629MOL0     H84853   2.781   3.103   3.352 -0.2180  1.9887 -1.5849
  629MOL0     H84854   2.776   3.261   3.514  1.0633 -1.4100 -0.5910
  629MOL0     H84855   2.600   3.253   3.539  0.7471  1.1044  0.7216
  629MOL0     H84856   2.621   3.010   3.608 -0.3333  1.1210  0.8838
  629MOL0     H84857   2.792   3.017   3.589  1.4448  1.5983 -0.7025
  629MOL0     H84858   2.728   3.054   3.830 -1.3596  1.8112 -0.0756
  629MOL0     H84859   2.826   3.180   3.775  0.7634 -1.0994 -1.3409
  629MOL0     H84860   2.656   3.327   3.742 -1.8886 -0.5804 -1.1860
  629MOL0     H84861   2.527   3.212   3.775 -1.6536  1.6160  0.8053
  629MOL0     H84862   2.549   3.355   3.968 -0.2697 -0.7293  0.3812
  629MOL0     H84863   2.607   3.196   4.007  1.5960  0.9430  1.5119
  629MOL0     H84864   2.822   3.401   3.932 -1.1940  2.3198  1.5900
  629MOL0     H84865   2.827   3.247   4.025 -1.3298 -0.4288 -0.2198
  629MOL0     H84866   2.639   3.593   4.134  1.9550 -2.8982 -5.1578
  629MOL0     H84867   2.553   3.640   4.413 -1.8130 -3.8015 -1.6760
  629MOL0     H84868   2.688   3.568   4.509  0.7500 -3.8695 -2.0090
  629MOL0     H84869   2.710   3.806   4.306 -2.4792 -0.9102 -0.1103
  629MOL0     H84870   2.847   3.712   4.367  1.2349  0.8796 -1.1798
  629MOL0     H84871   2.770   3.762   4.607 -0.7386  1.0154  1.0529
  629MOL0     H84872   2.653   3.865   4.534 -1.5478 -2.0920  1.7081
  629MOL0     H84873   2.957   3.905   4.521 -0.2136 -1.4098 -1.4713
  629MOL0     H84874   2.851   4.003   4.607 -4.0970 -0.1925  0.9460
  629MOL0     H84875   2.631   4.143   4.309 -0.9985 -1.1467  2.8352
  629MOL0     H84876   2.573   4.483   4.231  1.9881 -1.3917  0.2586
  629MOL0     H84877   2.497   4.327   4.230  0.8225 -1.3484  0.4412
  629MOL0     H84878   2.464   4.439   4.370 -3.9809 -0.7670 -2.2848
  629MOL0     H84879   2.716   4.868   4.604  1.1874  1.3816 -1.7193
  629MOL0     H84880   2.611   5.078   4.611  2.3769 -1.4985 -1.5516
  629MOL0     H84881   2.377   5.156   4.678  2.8947  1.1612 -1.0133
  629MOL0     H84882   2.445   5.294   4.605  2.0993 -3.1524 -0.3937
  629MOL0     H84883   2.253   5.414   4.596  0.0019  0.7993  0.2118
  629MOL0     H84884   2.154   5.288   4.542  2.4257 -0.5275 -1.1215
  629MOL0     H84885   2.283   5.289   4.820 -0.1061  3.0603  2.4258
  629MOL0     H84886   2.131   5.208   4.787  1.0200  0.9827  1.5324
  629MOL0     H84887   2.190   5.503   4.818  0.5465 -0.5896 -0.5324
  629MOL0     H84888   2.025   5.437   4.771 -1.8421 -2.9524  2.6771
  629MOL0     H84889   2.055   5.303   4.998 -1.9490  1.1536 -1.8235
  629MOL0     H84890   2.025   5.481   4.988 -0.2432  0.6516  0.6854
  629MOL0     H84891   2.292   5.339   5.034  0.2972 -0.2608  2.4801
  629MOL0     H84892   2.262   5.519   5.048  0.6719 -0.5299 -0.1997
  629MOL0     H84893   2.118   5.326   5.231  1.2761 -1.1590  0.8198
  629MOL0     H84894   2.131   5.497   5.253 -0.2714  1.0312 -0.4854
  629MOL0     H84895   2.287   5.413   5.403 -1.6213 -2.6903  0.3283
  629MOL0     H84896   2.403   5.431   5.267 -0.1598  0.2739 -1.4481
  629MOL0     H84897   2.291   4.934   4.352 -1.3472 -3.2660  0.9383
  629MOL0     H84898   2.410   4.722   4.347  0.2066  0.2380  0.1652
  629MOL0     H84899   2.912   4.435   4.592  0.7966 -0.4430  0.4418
  629MOL0     H84900   2.951   4.195   4.581  0.5253  0.2522 -0.2976
  629MOL0     H84901   2.623   3.425   3.086  2.6087  1.5674 -4.0686
  629MOL0     H84902   2.600   3.519   2.892 -1.0560  1.2421  1.2172
  629MOL0     H84903   2.583   3.361   2.491 -0.8548  1.9097  2.6734
  629MOL0     H84904   2.705   3.404   2.292 -0.3682  1.7220 -2.5010
  629MOL0     H84905   2.783   3.509   1.980  1.7439 -2.0443 -0.0192
  629MOL0     H84906   2.761   3.423   2.127 -2.3768 -1.1836  0.7391
  629MOL0     H84907   2.540   3.495   1.921 -0.7670  0.0954 -0.8738
  629MOL0     H84908   2.516   3.387   2.053  0.4320  1.3552  0.7796
  629MOL0     H84909   2.728   3.320   1.859 -0.6020  4.6080  1.7378
  629MOL0     H84910   2.565   3.277   1.816 -0.6051 -0.1158  1.5372
  629MOL0     H84911   2.696   3.170   2.079  1.7777 -0.5093 -1.6861
  629MOL0     H84912   2.688   3.084   1.922  1.1957 -0.2143 -0.1832
  629MOL0     H84913   2.301   3.045   2.074 -0.7159  0.4369 -0.9407
  629MOL0     H84914   2.543   3.804   2.281  0.6213 -1.6921 -1.5137
  629MOL0     H84915   2.489   3.789   2.517 -0.1022 -0.2621  1.4674
  630MOL0     O84916   8.860   1.036   5.823  0.0557  0.4364 -0.6866
  630MOL0     C84917   8.914   0.937   5.870 -0.6593 -0.2667  0.4886
  630MOL0     O84918   9.037   0.885   5.824  0.4641  0.4474 -0.3224
  630MOL0     C84919   9.066   0.896   5.691 -0.4164 -0.2310  0.3020
  630MOL0     C84920   8.981   0.951   5.590 -0.3754  0.0255 -0.7852
  630MOL0     C84921   9.036   0.980   5.465 -0.4487 -0.4820  0.5876
  630MOL0     C84922   9.170   0.976   5.439  0.1501  1.0073 -0.0287
  630MOL0     O84923   9.201   1.018   5.313 -0.4573 -0.0128  0.1134
  630MOL0     C84924   9.318   0.970   5.256 -0.9213 -0.1197  0.7953
  630MOL0     C84925   9.336   1.051   5.122  0.7538  0.0998 -0.0403
  630MOL0     C84926   9.325   1.199   5.142 -0.8470  0.6261  0.3425
  630MOL0     C84927   9.377   1.259   5.001 -0.0440 -0.8735 -0.4298
  630MOL0     C84928   9.397   1.411   5.009  0.4827  0.3789  0.1814
  630MOL0     C84929   9.425   1.466   4.864 -0.5496  0.6206  0.2919
  630MOL0     C84930   9.544   1.396   4.779 -0.1938 -0.0859  0.4195
  630MOL0     C84931   9.592   1.489   4.674 -0.5940  0.6827  0.9630
  630MOL0     N84932   9.664   1.607   4.723 -0.2805 -0.4348 -0.5569
  630MOL0     C84933   9.638   1.738   4.704  0.4852  0.8847 -1.2583
  630MOL0     C84934   9.734   1.813   4.756  0.1683 -0.2847  0.1799
  630MOL0     C84935   9.733   1.964   4.765  0.5328 -0.3565 -0.0069
  630MOL0     C84936   9.707   2.005   4.909  0.1238  1.0087 -0.1869
  630MOL0     C84937   9.582   1.954   4.970 -0.0944 -0.1783  0.5173
  630MOL0     C84938   9.457   1.988   4.894  0.8568 -0.8420  0.0808
  630MOL0     O84939   9.341   1.975   4.975  0.1101  0.3047 -0.3473
  630MOL0     C84940   9.297   2.079   5.052  0.3714  0.4803  0.0848
  630MOL0     C84941   9.265   2.206   4.999 -1.0109 -0.3631 -0.2349
  630MOL0     C84942   9.235   2.317   5.079  0.8797  0.0853  1.2965
  630MOL0     C84943   9.205   2.442   5.011  0.3120 -0.6354  0.1838
  630MOL0     C84944   9.210   2.299   5.208  0.7891 -0.0865 -0.8275
  630MOL0     C84945   9.205   2.410   5.309 -1.0413 -0.4769 -0.5589
  630MOL0     O84946   9.272   2.522   5.281 -0.4024  0.3866 -1.2847
  630MOL0     C84947   9.253   2.621   5.377 -0.6130  0.5586  1.0032
  630MOL0     C84948   9.351   2.629   5.477  0.3322 -0.0714 -0.2766
  630MOL0     C84949   9.335   2.722   5.584  0.3478 -0.5435 -0.2501
  630MOL0     C84950   9.213   2.800   5.587 -0.0893  0.0035 -0.3754
  630MOL0     O84951   9.205   2.883   5.697 -0.3523 -0.1749  0.3998
  630MOL0     C84952   9.097   2.967   5.731  1.1065 -1.1486 -0.7010
  630MOL0     C84953   9.026   2.939   5.866 -0.0220  0.2172  0.8660
  630MOL0     C84954   8.929   2.821   5.847  0.5309 -0.5809 -1.3293
  630MOL0     C84955   8.811   2.847   5.952  0.2038  0.0146  0.2756
  630MOL0     C84956   8.853   2.797   6.094  0.0001 -0.6042 -0.1196
  630MOL0     C84957   8.745   2.825   6.200  0.2131 -0.5083 -0.2070
  630MOL0     C84958   8.752   2.987   6.217  0.7159 -0.3398 -1.1407
  630MOL0     C84959   8.686   3.031   6.348  0.0256 -0.5256  0.1411
  630MOL0    Cl84960   8.825   3.026   6.448 -0.1894 -0.3112  0.2733
  630MOL0     C84961   9.120   2.787   5.488  0.1969  0.8105 -0.2007
  630MOL0     C84962   9.145   2.714   5.374  0.1724 -0.1294 -1.5503
  630MOL0     O84963   9.140   2.392   5.414  0.0343  0.4711  0.5742
  630MOL0     C84964   9.219   2.165   5.262 -1.4332  0.1880  0.3065
  630MOL0     C84965   9.267   2.056   5.182  0.5052 -0.5505 -0.4286
  630MOL0     N84966   9.836   1.726   4.799 -0.5032  0.4559 -0.0018
  630MOL0     N84967   9.792   1.609   4.771 -0.7189  0.3308  0.6086
  630MOL0     C84968   9.259   0.919   5.538  0.4237 -1.6023 -0.7739
  630MOL0     C84969   9.203   0.878   5.666  0.5702 -0.1561  0.8914
  630MOL0     C84970   8.840   0.841   5.950  0.3816  0.0801 -0.0597
  630MOL0     C84971   8.893   0.731   6.006  0.3654 -0.4412 -0.0216
  630MOL0     C84972   8.814   0.638   6.082 -0.0063 -0.1211  0.2936
  630MOL0     C84973   8.673   0.666   6.101 -0.2899 -0.7801  0.0921
  630MOL0     O84974   8.582   0.586   6.166  0.6591 -1.0768  0.2513
  630MOL0     C84975   8.615   0.458   6.216  0.1627 -0.2406 -1.2311
  630MOL0     C84976   8.632   0.356   6.098 -0.7843  1.2567 -0.3396
  630MOL0     C84977   8.620   0.211   6.138  0.3654 -0.0216  0.2839
  630MOL0     C84978   8.637   0.109   6.028  0.1428  0.6571 -0.6377
  630MOL0     C84979   8.556   0.123   5.910  0.5205  0.0310  1.1705
  630MOL0     C84980   8.501   0.153   5.798 -0.4974  0.3058  0.3643
  630MOL0     C84981   8.623   0.784   6.050  0.2965  0.4429 -1.3314
  630MOL0     C84982   8.699   0.870   5.971 -0.2081 -0.6078 -0.5974
  630MOL0     H84983   8.875   0.970   5.604  0.1591  2.9206 -0.0321
  630MOL0     H84984   8.969   1.010   5.384 -2.4569 -0.5553  2.1433
  630MOL0     H84985   9.391   1.006   5.328 -1.5813 -0.2928  1.5711
  630MOL0     H84986   9.320   0.864   5.229 -0.9548  0.1350 -0.2542
  630MOL0     H84987   9.439   1.023   5.096  1.7455  3.9254 -0.8760
  630MOL0     H84988   9.270   1.015   5.042 -3.4406  2.6541  1.9382
  630MOL0     H84989   9.223   1.233   5.159 -0.1650  1.2012  4.0384
  630MOL0     H84990   9.392   1.232   5.222  3.0230  0.4110 -2.5124
  630MOL0     H84991   9.475   1.215   4.980 -0.8138 -2.3733 -1.0194
  630MOL0     H84992   9.309   1.225   4.922  0.8744 -2.0017 -0.7648
  630MOL0     H84993   9.305   1.463   5.036  0.1705 -0.8411  1.6043
  630MOL0     H84994   9.479   1.431   5.079  0.3809  3.9392 -0.5194
  630MOL0     H84995   9.342   1.435   4.802  2.0453 -2.2830 -2.0585
  630MOL0     H84996   9.429   1.575   4.858  1.7719  0.6477  1.2352
  630MOL0     H84997   9.630   1.385   4.846  0.2122  0.6125  0.0305
  630MOL0     H84998   9.509   1.301   4.739 -0.7947  0.8232 -1.3614
  630MOL0     H84999   9.514   1.511   4.600 -0.2656  1.5158  0.8515
  630MOL0     H85000   9.672   1.432   4.625 -1.9050  0.9776 -1.7487
  630MOL0     H85001   9.550   1.783   4.660  1.7259  5.4166  0.3437
  630MOL0     H85002   9.822   2.017   4.728  0.1759  1.5158  1.6379
  630MOL0     H85003   9.647   2.004   4.710  0.4136 -1.5385 -0.7231
  630MOL0     H85004   9.700   2.114   4.924 -1.6034  1.0829 -1.3031
  630MOL0     H85005   9.789   1.959   4.965  0.1224  0.4975 -0.6013
  630MOL0     H85006   9.579   1.991   5.073  2.6418  0.7881  0.3215
  630MOL0     H85007   9.589   1.845   4.976  0.5431 -0.1511  0.2700
  630MOL0     H85008   9.439   1.922   4.809 -2.4838  1.1480 -0.9653
  630MOL0     H85009   9.478   2.089   4.858 -2.0464  1.2262  3.5064
  630MOL0     H85010   9.257   2.221   4.892 -2.7243 -4.0955 -0.7861
  630MOL0     H85011   9.110   2.484   5.047  0.5737  0.6210 -0.5487
  630MOL0     H85012   9.278   2.516   5.045  0.8593 -0.6533 -0.9096
  630MOL0     H85013   9.211   2.439   4.902 -1.6751  1.6717 -0.0771
  630MOL0     H85014   9.444   2.574   5.472 -0.7671 -1.9197 -2.9041
  630MOL0     H85015   9.422   2.736   5.649  1.0607  0.7879 -1.4218
  630MOL0     H85016   9.140   3.065   5.755 -3.0099  0.9339 -0.8620
  630MOL0     H85017   9.024   2.978   5.650  0.2833  1.7092  0.3242
  630MOL0     H85018   9.106   2.912   5.937 -0.3297 -1.1922  0.7134
  630MOL0     H85019   8.982   3.033   5.900 -0.7290 -0.1208  0.8988
  630MOL0     H85020   8.974   2.722   5.860  1.1204 -0.2156 -0.4825
  630MOL0     H85021   8.890   2.823   5.745  1.7540 -1.3597 -1.8436
  630MOL0     H85022   8.788   2.954   5.960  0.6644  0.2210 -0.9652
  630MOL0     H85023   8.724   2.786   5.925  0.2585 -0.3355  0.8629
  630MOL0     H85024   8.949   2.840   6.122 -0.6427  1.7481 -1.2788
  630MOL0     H85025   8.858   2.688   6.088  1.8845 -0.5196 -0.6844
  630MOL0     H85026   8.648   2.790   6.163  0.5681 -2.1445  0.2946
  630MOL0     H85027   8.779   2.780   6.294 -3.3235 -1.1074  0.9515
  630MOL0     H85028   8.707   3.039   6.132 -2.0401  2.0316  1.5678
  630MOL0     H85029   8.853   3.028   6.211 -0.1873  1.9611 -1.2725
  630MOL0     H85030   8.607   2.965   6.383 -0.6788  1.6285  2.9809
  630MOL0     H85031   8.637   3.129   6.349  2.9888  1.1584 -2.0323
  630MOL0     H85032   9.027   2.844   5.487 -1.9337 -2.3166  2.1747
  630MOL0     H85033   9.072   2.724   5.295 -2.0694  0.0640  0.4219
  630MOL0     H85034   9.187   2.154   5.365 -1.3432 -1.1363  0.2165
  630MOL0     H85035   9.282   1.952   5.210 -1.3424 -1.2987 -2.0080
  630MOL0     H85036   9.366   0.925   5.525  0.1264  1.5276 -3.0654
  630MOL0     H85037   9.273   0.848   5.744 -1.2975 -3.6395  1.4194
  630MOL0     H85038   8.999   0.714   5.989  0.3983  1.4987 -2.3018
  630MOL0     H85039   8.867   0.549   6.115 -0.9649 -0.8578 -0.0996
  630MOL0     H85040   8.702   0.468   6.282 -0.6542  1.2229 -0.3107
  630MOL0     H85041   8.526   0.422   6.268  0.6597  0.2133 -0.0131
  630MOL0     H85042   8.735   0.359   6.060  0.5173  1.7429  2.8825
  630MOL0     H85043   8.562   0.383   6.019  1.6941 -1.1391 -3.6266
  630MOL0     H85044   8.514   0.204   6.164  0.6406 -0.1369  1.4113
  630MOL0     H85045   8.686   0.201   6.225  0.6163  4.2613  0.8026
  630MOL0     H85046   8.619   0.009   6.067 -3.2885  2.4101  2.8612
  630MOL0     H85047   8.739   0.112   5.987 -0.3254 -2.2963 -2.3079
  630MOL0     H85048   8.476   0.201   5.705  3.1729  0.6201 -0.5925
  630MOL0     H85049   8.517   0.797   6.070  0.7313 -0.3389  2.1519
  630MOL0     H85050   8.651   0.963   5.945 -0.8208 -0.3047  1.4078
  631MOL0     O85051   5.351   7.926  10.486  0.7205 -0.4104  0.1818
  631MOL0     C85052   5.372   7.940  10.364  0.4536 -0.2120  0.5588
  631MOL0     O85053   5.295   7.873  10.271  0.2787 -0.4521  0.5232
  631MOL0     C85054   5.189   7.787  10.307 -0.3246 -0.5041  0.5955
  631MOL0     C85055   5.062   7.796  10.252  1.6317  0.7077  0.8848
  631MOL0     C85056   4.963   7.699  10.282  0.4845  0.7046  0.8314
  631MOL0     C85057   4.988   7.593  10.365  0.8969 -0.4709 -0.4550
  631MOL0     O85058   4.885   7.510  10.391  0.9249 -0.0484 -0.0526
  631MOL0     C85059   4.895   7.387  10.469 -1.2034 -0.1371  0.9244
  631MOL0     C85060   4.969   7.277  10.378  0.6766 -1.2935 -0.9208
  631MOL0     C85061   4.881   7.263  10.254  0.0788 -0.5593  0.2539
  631MOL0     C85062   4.934   7.142  10.172  0.2772 -0.8723  0.1093
  631MOL0     C85063   4.876   7.128  10.029 -0.0570  0.1944  0.9258
  631MOL0     C85064   4.725   7.089  10.027  0.0687 -0.2035 -0.7622
  631MOL0     C85065   4.712   6.941  10.074 -0.2099  0.5763  0.4312
  631MOL0     C85066   4.671   6.859   9.950 -0.7794 -0.5008  0.0601
  631MOL0     N85067   4.689   6.724   9.984  0.1596 -0.2096 -0.0185
  631MOL0     C85068   4.604   6.664  10.073 -0.5013  0.3617 -0.5678
  631MOL0     C85069   4.635   6.530  10.068 -0.0049 -0.3023  0.6250
  631MOL0     C85070   4.551   6.425  10.138 -0.6301  0.4838 -0.1773
  631MOL0     C85071   4.572   6.418  10.294  0.8168  0.4345 -0.5452
  631MOL0     C85072   4.522   6.539  10.378 -0.3996 -0.7336  0.2001
  631MOL0     C85073   4.524   6.490  10.523  1.1486 -0.1997 -0.1496
  631MOL0     O85074   4.428   6.384  10.529 -1.1443 -0.0757 -0.3783
  631MOL0     C85075   4.418   6.314  10.649  0.0587 -0.0342 -0.0500
  631MOL0     C85076   4.417   6.371  10.775 -0.2508 -0.2047  0.2219
  631MOL0     C85077   4.420   6.303  10.896 -1.0663 -0.6048  0.4964
  631MOL0     C85078   4.427   6.377  11.022 -0.2451 -0.1143  0.0164
  631MOL0     C85079   4.402   6.162  10.892 -0.8078 -0.0538  0.5554
  631MOL0     C85080   4.402   6.074  11.013 -0.2980 -0.5361 -0.3882
  631MOL0     O85081   4.416   5.943  10.997  0.2909 -0.1207  0.2668
  631MOL0     C85082   4.390   5.840  11.088 -0.5908  0.9420 -0.0836
  631MOL0     C85083   4.434   5.716  11.037 -0.3918  0.3437  0.1260
  631MOL0     C85084   4.415   5.598  11.111 -0.9965  0.4246 -0.4213
  631MOL0     C85085   4.363   5.596  11.240  0.3944 -0.1474 -0.4692
  631MOL0     O85086   4.338   5.480  11.320 -0.3111 -0.0813 -0.0792
  631MOL0     C85087   4.390   5.456  11.452  0.1610 -0.2993 -0.1201
  631MOL0     C85088   4.495   5.346  11.441 -0.4035 -0.3737  0.2190
  631MOL0     C85089   4.634   5.392  11.379  0.4780 -0.1003 -0.3380
  631MOL0     C85090   4.751   5.302  11.388  0.1466  0.4777 -0.5570
  631MOL0     C85091   4.737   5.177  11.303  0.1743  0.6370  0.0288
  631MOL0     C85092   4.843   5.076  11.344  0.4422 -0.1675  0.2373
  631MOL0     C85093   4.857   4.971  11.232 -0.2779  0.5179  0.3392
  631MOL0     C85094   4.721   4.888  11.199 -0.2806  0.0261  0.3384
  631MOL0    Cl85095   4.695   4.762  11.317  0.1998 -0.2646  0.2668
  631MOL0     C85096   4.326   5.724  11.283 -0.3122  0.6999 -0.1173
  631MOL0     C85097   4.340   5.845  11.221 -0.5005  0.0203 -0.3321
  631MOL0     O85098   4.369   6.122  11.123  1.1616  0.4729  0.3434
  631MOL0     C85099   4.401   6.097  10.766  0.2933  1.0521 -1.0122
  631MOL0     C85100   4.396   6.172  10.649  0.6181  0.1477  0.9325
  631MOL0     N85101   4.744   6.517   9.981  0.5478  0.6997  0.2994
  631MOL0     N85102   4.772   6.636   9.930  0.1425  0.4499 -0.1839
  631MOL0     C85103   5.116   7.579  10.417  0.2684 -0.2068 -0.1215
  631MOL0     C85104   5.219   7.669  10.388 -0.1631 -0.6018 -0.6859
  631MOL0     C85105   5.462   8.043  10.312  0.2337 -0.1809  0.2399
  631MOL0     C85106   5.490   8.053  10.173  0.4777  1.0395  0.0054
  631MOL0     C85107   5.580   8.158  10.140 -0.8703  1.1443 -0.5390
  631MOL0     C85108   5.621   8.257  10.231  0.6822 -0.5053  0.3410
  631MOL0     O85109   5.692   8.371  10.208 -0.4995  0.3619  0.1285
  631MOL0     C85110   5.760   8.383  10.077  1.4829 -0.2969  0.4033
  631MOL0     C85111   5.882   8.299  10.060 -0.7314 -0.0489  0.2224
  631MOL0     C85112   6.014   8.355  10.113  0.2571 -0.2487 -1.0733
  631MOL0     C85113   6.139   8.290  10.059  0.0717 -0.2297 -0.7600
  631MOL0     C85114   6.252   8.381  10.087  0.2886 -0.1394  0.1503
  631MOL0     C85115   6.345   8.448  10.116 -0.3799  0.5410 -0.0761
  631MOL0     C85116   5.584   8.246  10.368 -0.1300 -0.0883  0.7391
  631MOL0     C85117   5.507   8.138  10.407 -0.0216  0.0365  0.6726
  631MOL0     H85118   5.027   7.874  10.185 -3.1940 -3.1377 -1.7346
  631MOL0     H85119   4.858   7.704  10.254  0.6931 -0.6370 -0.2729
  631MOL0     H85120   4.943   7.407  10.566 -0.2974  0.0101  0.4523
  631MOL0     H85121   4.799   7.352  10.507 -0.0233 -2.3797  2.0365
  631MOL0     H85122   5.068   7.313  10.349 -0.6873  1.7807 -2.2605
  631MOL0     H85123   4.989   7.191  10.441  0.1640  0.2487  1.4808
  631MOL0     H85124   4.778   7.265  10.291  0.2429  2.1512  0.7937
  631MOL0     H85125   4.884   7.353  10.191 -1.9227  0.8854  2.0447
  631MOL0     H85126   5.042   7.139  10.161  0.3294 -1.0854  0.6518
  631MOL0     H85127   4.918   7.054  10.235 -0.8072 -1.3291 -0.7839
  631MOL0     H85128   4.905   7.212   9.965  2.9985 -1.6718 -0.3709
  631MOL0     H85129   4.932   7.044   9.986 -1.6985 -1.6274  2.1536
  631MOL0     H85130   4.668   7.161  10.087  2.1522  1.9521 -1.2010
  631MOL0     H85131   4.699   7.091   9.921  0.3719  3.7035 -0.9364
  631MOL0     H85132   4.808   6.910  10.117 -0.2893 -3.6056 -1.8998
  631MOL0     H85133   4.634   6.944  10.151 -1.1091 -0.1488 -0.4208
  631MOL0     H85134   4.748   6.882   9.875  0.2432  1.2580  1.5689
  631MOL0     H85135   4.571   6.884   9.914  0.1262  1.3707 -1.2888
  631MOL0     H85136   4.518   6.703  10.126 -0.8396 -0.2362 -0.6734
  631MOL0     H85137   4.443   6.428  10.122 -1.0593 -0.4228  2.2136
  631MOL0     H85138   4.581   6.326  10.101 -0.4631  0.5092 -0.1093
  631MOL0     H85139   4.678   6.413  10.321  0.7193  3.6153  0.8934
  631MOL0     H85140   4.534   6.322  10.329  0.7661 -0.4306 -2.7953
  631MOL0     H85141   4.421   6.564  10.345 -1.5409 -4.0219  0.9334
  631MOL0     H85142   4.581   6.628  10.352 -0.5256 -0.9353 -0.8234
  631MOL0     H85143   4.491   6.572  10.588  1.3716  0.8038 -1.2601
  631MOL0     H85144   4.626   6.460  10.547  1.0214 -0.0269  0.6505
  631MOL0     H85145   4.430   6.478  10.779  1.3189 -0.0755 -3.8198
  631MOL0     H85146   4.347   6.368  11.096  1.2641  2.1748  2.0839
  631MOL0     H85147   4.517   6.360  11.082 -0.9650 -0.3505  1.0609
  631MOL0     H85148   4.428   6.482  10.994  0.1109 -0.7821 -2.7443
  631MOL0     H85149   4.480   5.716  10.939 -3.9150  0.9072 -1.6938
  631MOL0     H85150   4.467   5.505  11.088  0.1632  1.2128 -1.0426
  631MOL0     H85151   4.424   5.549  11.499  2.3844 -1.3971  0.5606
  631MOL0     H85152   4.311   5.448  11.527  1.0346 -0.1025  0.8455
  631MOL0     H85153   4.522   5.322  11.544  0.4840  5.0555  1.5589
  631MOL0     H85154   4.447   5.266  11.384 -1.5416  0.8233 -0.5690
  631MOL0     H85155   4.661   5.485  11.429 -5.3536  2.3749 -1.0107
  631MOL0     H85156   4.611   5.413  11.274  2.0049 -0.7173 -0.8208
  631MOL0     H85157   4.843   5.346  11.349  1.7420 -3.1341 -1.2736
  631MOL0     H85158   4.773   5.272  11.491  0.7983 -2.1042 -1.3748
  631MOL0     H85159   4.750   5.211  11.200  0.3525  0.6897  0.0674
  631MOL0     H85160   4.639   5.130  11.317  1.7952 -2.7721  0.9395
  631MOL0     H85161   4.929   5.138  11.372  0.1416 -1.2364  4.1659
  631MOL0     H85162   4.800   5.025  11.431  2.8642  1.1320  2.3305
  631MOL0     H85163   4.944   4.906  11.246 -2.0124 -2.6037 -1.9964
  631MOL0     H85164   4.875   5.029  11.141  0.9596 -0.5144 -0.1009
  631MOL0     H85165   4.749   4.848  11.101  4.5871  1.2032  0.9632
  631MOL0     H85166   4.630   4.948  11.188 -0.8385 -1.1223 -1.7528
  631MOL0     H85167   4.272   5.726  11.377 -3.3407  0.9809 -1.7267
  631MOL0     H85168   4.300   5.935  11.267  1.0180  1.9419 -2.5391
  631MOL0     H85169   4.400   5.989  10.778 -1.5532  1.0827 -0.5266
  631MOL0     H85170   4.377   6.118  10.557 -0.1000  0.6440  0.7867
  631MOL0     H85171   5.150   7.495  10.477  0.8377 -2.1705 -2.9822
  631MOL0     H85172   5.319   7.636  10.416  0.5976 -0.7615 -3.3293
  631MOL0     H85173   5.449   7.976  10.109 -1.7166 -0.8086  3.2942
  631MOL0     H85174   5.622   8.162  10.040 -0.4051  1.9138 -0.3180
  631MOL0     H85175   5.685   8.359  10.001 -1.3831  0.6800  2.7186
  631MOL0     H85176   5.781   8.490  10.063 -0.4986  0.2833  1.4172
  631MOL0     H85177   5.898   8.303   9.951  0.0057 -2.1518  0.2092
  631MOL0     H85178   5.870   8.197  10.096  0.8768  0.4157  2.2379
  631MOL0     H85179   6.007   8.350  10.222  0.6494 -0.8408 -1.0762
  631MOL0     H85180   6.029   8.456  10.072  0.5397  0.8008  1.4327
  631MOL0     H85181   6.137   8.273   9.951 -0.1007  1.3862 -1.0312
  631MOL0     H85182   6.165   8.195  10.106  0.7139  0.1084 -0.4161
  631MOL0     H85183   6.444   8.489  10.116  0.1207 -0.6391  0.1067
  631MOL0     H85184   5.619   8.308  10.450 -2.0815 -0.1013  1.6217
  631MOL0     H85185   5.474   8.122  10.509 -1.4613 -0.9342  0.0773
  632MOL0     O85186   9.655   1.974   1.834  0.0189  0.0280 -0.2734
  632MOL0     C85187   9.692   2.048   1.925 -0.1722  0.0025 -0.4408
  632MOL0     O85188   9.784   2.155   1.918 -0.3050  0.4704  0.0419
  632MOL0     C85189   9.862   2.163   1.809  0.3050 -0.2355 -0.0747
  632MOL0     C85190   9.803   2.199   1.685 -0.2685 -0.0188  0.4009
  632MOL0     C85191   9.875   2.239   1.567  0.1565  0.5042  0.0800
  632MOL0     C85192  10.014   2.239   1.570  0.7239  0.3992 -0.0732
  632MOL0     O85193  10.093   2.255   1.462 -0.6166  0.0590  0.3412
  632MOL0     C85194  10.023   2.304   1.346  0.3382 -0.5251  0.5079
  632MOL0     C85195  10.117   2.361   1.242  0.7724  1.2289  0.2356
  632MOL0     C85196  10.195   2.477   1.287 -0.1199  0.1033  0.1060
  632MOL0     C85197  10.117   2.609   1.287  0.1661  0.3011 -0.2924
  632MOL0     C85198  10.188   2.685   1.396 -0.3978  0.1003 -0.3629
  632MOL0     C85199  10.144   2.824   1.405  0.7037  0.8994  0.1642
  632MOL0     C85200   9.993   2.844   1.379 -1.1758  0.7832 -0.3980
  632MOL0     C85201   9.907   2.784   1.490  0.5928  0.4967  0.2137
  632MOL0     N85202   9.776   2.855   1.521  0.2957 -0.1023 -0.8796
  632MOL0     C85203   9.667   2.850   1.432 -0.0182 -0.2955 -0.3943
  632MOL0     C85204   9.584   2.940   1.492  0.5700  0.1651 -0.4637
  632MOL0     C85205   9.445   2.970   1.446  0.7086 -0.0650  0.5627
  632MOL0     C85206   9.343   3.048   1.542  0.0518  0.7749 -0.3581
  632MOL0     C85207   9.335   2.980   1.679 -0.6401  0.1411 -0.6929
  632MOL0     C85208   9.222   2.877   1.692 -0.2241  0.3060  0.6702
  632MOL0     O85209   9.255   2.777   1.592  1.0432 -0.4567  0.6110
  632MOL0     C85210   9.185   2.660   1.595 -0.1095 -0.9541 -0.5683
  632MOL0     C85211   9.231   2.565   1.501  0.1086 -0.5523 -0.1041
  632MOL0     C85212   9.185   2.429   1.514 -0.1028 -1.0503 -0.6049
  632MOL0     C85213   9.266   2.332   1.435 -0.9839  0.6750 -0.3636
  632MOL0     C85214   9.087   2.394   1.602 -0.5041  0.1646  0.5894
  632MOL0     C85215   9.035   2.254   1.625 -0.1998 -0.5606  0.6599
  632MOL0     O85216   8.913   2.246   1.694  0.0284 -0.0376  0.4197
  632MOL0     C85217   8.849   2.124   1.707 -0.0706 -0.0493  0.1609
  632MOL0     C85218   8.805   2.058   1.590 -0.2192  0.5602 -0.5435
  632MOL0     C85219   8.742   1.932   1.612  0.5179  0.4389 -0.4888
  632MOL0     C85220   8.723   1.873   1.739 -0.2542 -0.1453 -0.6999
  632MOL0     O85221   8.657   1.757   1.751 -1.0505 -0.0570  0.3113
  632MOL0     C85222   8.691   1.651   1.664  0.2411  0.3683 -0.1302
  632MOL0     C85223   8.634   1.514   1.707 -0.0617 -0.7442 -0.3906
  632MOL0     C85224   8.703   1.470   1.829 -0.3805 -0.5247 -0.5204
  632MOL0     C85225   8.643   1.341   1.888 -0.4529 -0.5462 -1.1598
  632MOL0     C85226   8.735   1.284   2.005 -0.6361  0.6737 -0.3201
  632MOL0     C85227   8.677   1.160   2.063  1.3823  0.8509 -0.3984
  632MOL0     C85228   8.658   1.060   1.956  0.2969  0.1889 -0.6747
  632MOL0     C85229   8.628   0.921   2.013  0.5368  0.2207 -0.1382
  632MOL0    Cl85230   8.768   0.872   2.117  0.4005 -0.2263 -0.0820
  632MOL0     C85231   8.763   1.949   1.848  1.1287 -0.3356  0.4761
  632MOL0     C85232   8.826   2.076   1.833 -0.2924 -0.1660  0.5189
  632MOL0     O85233   9.093   2.162   1.571 -0.8436 -0.1404 -0.8114
  632MOL0     C85234   9.026   2.498   1.677  0.2890 -0.2427 -0.7749
  632MOL0     C85235   9.082   2.622   1.678  0.5688  0.5265  0.3601
  632MOL0     N85236   9.645   3.020   1.579 -0.4985  0.1870 -0.2007
  632MOL0     N85237   9.759   2.966   1.608  0.7494  0.0233  1.1087
  632MOL0     C85238  10.071   2.214   1.695 -0.0925 -0.4882 -0.0927
  632MOL0     C85239   9.996   2.180   1.814  0.2950 -0.9059  0.2521
  632MOL0     C85240   9.633   2.021   2.060 -0.0541 -0.0362 -0.8055
  632MOL0     C85241   9.531   1.927   2.080  0.5580 -0.1698  0.9088
  632MOL0     C85242   9.462   1.917   2.204 -0.7507  0.4995  0.5620
  632MOL0     C85243   9.488   2.004   2.312 -0.6588 -0.0052 -1.1139
  632MOL0     O85244   9.409   2.005   2.429  0.3000  0.8394 -0.3975
  632MOL0     C85245   9.382   1.888   2.511  0.0298 -0.4570  0.1364
  632MOL0     C85246   9.355   1.927   2.658  0.2088  0.0545 -0.4527
  632MOL0     C85247   9.203   1.963   2.685 -0.1434  0.5318  0.2771
  632MOL0     C85248   9.161   2.083   2.593  0.1933 -1.0168  0.3198
  632MOL0     C85249   9.015   2.103   2.626 -0.6146  0.3035 -0.6249
  632MOL0     C85250   8.889   2.107   2.648 -0.2696 -0.5731  0.4768
  632MOL0     C85251   9.583   2.103   2.282  0.3216 -0.4038 -0.0011
  632MOL0     C85252   9.658   2.103   2.166 -0.3761  0.0270  0.2680
  632MOL0     H85253   9.695   2.211   1.683 -0.0845  1.8612 -0.2822
  632MOL0     H85254   9.807   2.255   1.484  0.3471 -3.1238 -0.9458
  632MOL0     H85255   9.970   2.221   1.300 -0.3967  0.4156 -0.3963
  632MOL0     H85256   9.950   2.381   1.374  0.4081 -1.3250  3.1766
  632MOL0     H85257  10.176   2.275   1.209 -2.8802 -0.2721 -3.2104
  632MOL0     H85258  10.050   2.385   1.159 -3.1301 -0.4245  2.6239
  632MOL0     H85259  10.231   2.458   1.388 -3.5754  1.3479  1.7163
  632MOL0     H85260  10.278   2.489   1.217 -0.8466 -4.1199 -1.8176
  632MOL0     H85261  10.134   2.656   1.190 -1.0967 -0.8389 -1.0956
  632MOL0     H85262  10.011   2.595   1.306  0.0031  2.0945  0.2932
  632MOL0     H85263  10.168   2.648   1.497 -1.6108  0.5720 -0.4115
  632MOL0     H85264  10.297   2.686   1.385 -0.3847  1.4147 -0.3293
  632MOL0     H85265  10.178   2.862   1.502 -0.4270 -0.1332  0.9817
  632MOL0     H85266  10.188   2.891   1.330 -0.0976 -0.9059 -2.0206
  632MOL0     H85267   9.986   2.953   1.377 -2.9193  0.7502 -4.3149
  632MOL0     H85268   9.969   2.815   1.276  1.4815  3.3346 -1.8729
  632MOL0     H85269   9.961   2.784   1.585  0.7997 -1.2952  0.1360
  632MOL0     H85270   9.890   2.679   1.464 -1.4975  1.4572 -2.9040
  632MOL0     H85271   9.651   2.793   1.341 -3.1334  0.0402 -0.1620
  632MOL0     H85272   9.455   3.039   1.363 -0.7004  0.3831  0.7481
  632MOL0     H85273   9.393   2.880   1.410  1.3418 -1.8045  3.6368
  632MOL0     H85274   9.246   3.057   1.493  1.0140  1.8452 -2.2033
  632MOL0     H85275   9.384   3.149   1.552  0.9750  0.3370  0.3189
  632MOL0     H85276   9.313   3.053   1.757  1.0280  0.7303 -0.7198
  632MOL0     H85277   9.423   2.919   1.703 -1.7456 -2.3400 -2.5282
  632MOL0     H85278   9.121   2.908   1.663  0.8421  2.1556 -1.4435
  632MOL0     H85279   9.223   2.829   1.790  0.2800 -1.5247 -0.1923
  632MOL0     H85280   9.318   2.599   1.445  1.2145 -1.1358  1.1924
  632MOL0     H85281   9.357   2.302   1.487 -0.3639  3.3193  0.2547
  632MOL0     H85282   9.199   2.253   1.401  0.1663  0.0190 -1.1733
  632MOL0     H85283   9.300   2.380   1.343 -0.0344  0.7846  0.0317
  632MOL0     H85284   8.825   2.101   1.492 -2.6752 -0.2563 -1.4837
  632MOL0     H85285   8.712   1.880   1.521 -0.1783 -1.1523  0.5919
  632MOL0     H85286   8.650   1.664   1.564  1.2327 -1.4353 -0.8164
  632MOL0     H85287   8.799   1.636   1.663  0.5808  2.6038 -0.7395
  632MOL0     H85288   8.524   1.516   1.706 -0.1546 -2.2880  1.5599
  632MOL0     H85289   8.658   1.434   1.636  4.0792 -3.0308  3.1547
  632MOL0     H85290   8.712   1.547   1.906  1.9901  0.5996 -1.8039
  632MOL0     H85291   8.808   1.454   1.802 -0.2930  0.6637 -0.9385
  632MOL0     H85292   8.541   1.345   1.925  0.2824 -1.5767  1.1609
  632MOL0     H85293   8.637   1.263   1.811 -2.8119 -3.5949  1.8119
  632MOL0     H85294   8.743   1.361   2.083  3.5073  0.7380 -0.5737
  632MOL0     H85295   8.837   1.267   1.968 -0.9051  1.3603 -1.4354
  632MOL0     H85296   8.743   1.118   2.139  0.5417 -1.0165 -0.6438
  632MOL0     H85297   8.584   1.187   2.114  1.3875  1.6523 -0.7912
  632MOL0     H85298   8.739   1.064   1.883  1.8568  1.7586  1.0400
  632MOL0     H85299   8.565   1.102   1.916  0.1156 -0.3546 -0.8273
  632MOL0     H85300   8.604   0.852   1.931 -0.0954  0.2091  0.0519
  632MOL0     H85301   8.538   0.927   2.073 -0.2664  3.2287 -1.4744
  632MOL0     H85302   8.733   1.913   1.946  1.0980 -2.1869 -0.1898
  632MOL0     H85303   8.860   2.143   1.912  1.7281  2.5535 -2.4044
  632MOL0     H85304   8.938   2.473   1.735  0.6332 -1.4115 -0.7242
  632MOL0     H85305   9.037   2.689   1.751  0.4853  0.1194  0.6816
  632MOL0     H85306  10.178   2.226   1.692 -0.0874 -0.5971 -0.3684
  632MOL0     H85307  10.042   2.182   1.912  1.5780  0.9312 -0.3409
  632MOL0     H85308   9.498   1.870   1.994 -0.3068  0.3021  0.9152
  632MOL0     H85309   9.376   1.850   2.206  0.2080 -1.0060 -2.3940
  632MOL0     H85310   9.309   1.820   2.467 -2.4960  0.1701  3.0145
  632MOL0     H85311   9.471   1.826   2.527 -1.2082 -1.4867  3.8649
  632MOL0     H85312   9.421   2.008   2.689 -1.8617  1.5705  0.2208
  632MOL0     H85313   9.391   1.847   2.724  0.9017 -0.7382 -1.7370
  632MOL0     H85314   9.171   1.967   2.790 -2.1188 -1.2283 -0.2076
  632MOL0     H85315   9.147   1.880   2.641 -1.6976  2.3230 -1.2806
  632MOL0     H85316   9.175   2.070   2.485  2.1380 -0.9396  0.5289
  632MOL0     H85317   9.221   2.171   2.616 -2.4533  0.8342  0.6050
  632MOL0     H85318   8.784   2.115   2.669 -0.6535  0.5012 -1.6594
  632MOL0     H85319   9.607   2.180   2.354  2.4557  1.2049 -2.2435
  632MOL0     H85320   9.733   2.178   2.144 -1.3135  0.9522  0.1306
  633MOL0     O85321   9.566   1.674   4.349 -0.2034  0.0592  0.8560
  633MOL0     C85322   9.501   1.725   4.259  0.7338  0.2693 -0.1503
  633MOL0     O85323   9.547   1.813   4.172  0.1041  0.5043  0.9902
  633MOL0     C85324   9.682   1.846   4.171 -0.3767 -0.2809  0.0719
  633MOL0     C85325   9.746   1.855   4.048 -0.1636  0.5794  0.2510
  633MOL0     C85326   9.872   1.923   4.044  0.2141 -0.4865  0.9038
  633MOL0     C85327   9.937   1.979   4.149 -0.0397 -0.0382  0.0871
  633MOL0     O85328  10.068   2.033   4.131 -0.8602 -0.1167 -0.4874
  633MOL0     C85329  10.128   2.060   4.257 -0.6800 -0.2482  0.8283
  633MOL0     C85330  10.274   2.093   4.231  0.4773 -0.8430 -0.9236
  633MOL0     C85331  10.317   2.209   4.330  0.7310  0.2005  0.1660
  633MOL0     C85332  10.287   2.182   4.475 -0.3194  0.1600  0.1983
  633MOL0     C85333  10.300   2.311   4.553  0.2863 -0.6857  0.6091
  633MOL0     C85334  10.264   2.292   4.698  0.9952  0.9054 -0.9608
  633MOL0     C85335  10.123   2.249   4.740  0.0947 -0.0658  0.0576
  633MOL0     C85336  10.028   2.375   4.726 -0.0752  0.1044 -0.1963
  633MOL0     N85337   9.967   2.387   4.591 -0.2868 -0.1515 -0.6735
  633MOL0     C85338   9.880   2.495   4.571 -1.1787  0.5188  0.4932
  633MOL0     C85339   9.792   2.456   4.478  0.5082 -0.2863  0.2780
  633MOL0     C85340   9.703   2.544   4.405 -0.2236  0.5139 -0.4072
  633MOL0     C85341   9.767   2.594   4.276 -0.0212 -1.1428 -0.1363
  633MOL0     C85342   9.746   2.493   4.161 -0.6013  0.1780  1.3077
  633MOL0     C85343   9.811   2.536   4.022 -0.0020  0.1715 -0.2951
  633MOL0     O85344   9.948   2.517   4.037  0.0551 -0.3218  0.3928
  633MOL0     C85345  10.012   2.421   3.958 -1.3547 -0.0590  0.2193
  633MOL0     C85346  10.153   2.439   3.934  1.0099 -0.7989 -0.4117
  633MOL0     C85347  10.220   2.342   3.860 -0.0299 -0.7053 -0.3083
  633MOL0     C85348  10.360   2.380   3.812  0.4629 -0.2045 -0.4071
  633MOL0     C85349  10.150   2.226   3.813 -0.8990 -0.6714  0.6802
  633MOL0     C85350  10.211   2.126   3.717  0.3758 -0.3311  0.0167
  633MOL0     O85351  10.133   2.078   3.615  0.6313  0.4519  0.0394
  633MOL0     C85352  10.212   2.027   3.507  1.3284  0.5039 -0.1828
  633MOL0     C85353  10.263   1.891   3.510  0.2078 -0.3679 -0.4391
  633MOL0     C85354  10.330   1.841   3.398  0.2200 -0.0815  0.2444
  633MOL0     C85355  10.336   1.919   3.276 -0.1081  0.9299  0.7651
  633MOL0     O85356  10.386   1.861   3.159  0.4596  0.4117 -0.3965
  633MOL0     C85357  10.450   1.946   3.066 -0.1303  0.3555 -0.5034
  633MOL0     C85358  10.556   1.876   2.986 -0.4725  0.3985 -0.0250
  633MOL0     C85359  10.674   1.824   3.075  0.5911  0.2330 -1.0210
  633MOL0     C85360  10.805   1.783   2.997 -0.3368  0.1222  0.3102
  633MOL0     C85361  10.932   1.765   3.074  1.0332  0.0119  0.4304
  633MOL0     C85362  10.976   1.878   3.156 -0.2472  0.0808 -0.5048
  633MOL0     C85363  11.016   2.007   3.077 -0.4791 -1.0039  0.8474
  633MOL0     C85364  11.115   2.110   3.143  0.6339  0.7756 -0.6148
  633MOL0    Cl85365  11.059   2.133   3.315 -0.1431 -0.0339 -0.5569
  633MOL0     C85366  10.304   2.051   3.280  0.2367 -1.0698  0.2903
  633MOL0     C85367  10.239   2.111   3.396 -0.3362  0.2870  0.1819
  633MOL0     O85368  10.332   2.100   3.738  0.4145  0.0850 -0.0012
  633MOL0     C85369  10.015   2.207   3.835 -0.4817 -0.2363  0.3482
  633MOL0     C85370   9.949   2.301   3.907 -0.4500 -1.1017  0.2519
  633MOL0     N85371   9.840   2.330   4.428  0.3536  0.0232  0.3174
  633MOL0     N85372   9.933   2.285   4.500  0.7626  0.3543 -1.3535
  633MOL0     C85373   9.870   1.968   4.271  0.4288  0.3872 -0.0695
  633MOL0     C85374   9.746   1.904   4.276  0.1063 -0.2432 -0.1887
  633MOL0     C85375   9.358   1.688   4.239 -0.6388 -0.4280 -0.3110
  633MOL0     C85376   9.265   1.780   4.198  0.0015  0.1105  0.5763
  633MOL0     C85377   9.136   1.742   4.175  0.4987  0.2614  1.0401
  633MOL0     C85378   9.091   1.606   4.193 -0.6687 -0.2986 -0.8977
  633MOL0     O85379   8.961   1.590   4.169 -0.0404  0.3503 -0.3213
  633MOL0     C85380   8.900   1.456   4.182 -0.6074  0.6231 -1.2977
  633MOL0     C85381   8.877   1.420   4.329 -0.9451  0.5372  0.1675
  633MOL0     C85382   8.754   1.460   4.390 -0.0618  0.0758 -0.9649
  633MOL0     C85383   8.749   1.623   4.408  0.0900 -0.5167 -0.3261
  633MOL0     C85384   8.625   1.668   4.480 -0.4169  0.7396  0.0003
  633MOL0     C85385   8.532   1.704   4.537  0.8433 -0.0146  0.7546
  633MOL0     C85386   9.183   1.515   4.251 -1.0183 -0.1694 -0.0636
  633MOL0     C85387   9.318   1.557   4.281  0.1178 -0.5257  0.1838
  633MOL0     H85388   9.692   1.808   3.967 -2.2256 -0.1393  1.9270
  633MOL0     H85389   9.923   1.944   3.950  0.8186  1.6249  1.6501
  633MOL0     H85390  10.077   2.144   4.305  2.1404  0.6153  2.5627
  633MOL0     H85391  10.119   1.984   4.335 -4.2129 -0.3587  0.4873
  633MOL0     H85392  10.324   1.998   4.253  0.1632 -0.5337  1.3472
  633MOL0     H85393  10.305   2.128   4.132 -1.4571  1.1501 -0.8843
  633MOL0     H85394  10.425   2.225   4.317  0.6979  1.2167  1.0460
  633MOL0     H85395  10.264   2.300   4.300 -0.3388 -0.1751  0.8603
  633MOL0     H85396  10.187   2.139   4.486  0.3693 -1.6521 -0.4127
  633MOL0     H85397  10.360   2.108   4.510 -0.8786 -0.9458 -0.9056
  633MOL0     H85398  10.404   2.346   4.550 -0.5890  2.2999  1.7835
  633MOL0     H85399  10.226   2.378   4.510 -1.2052 -2.9389 -0.5520
  633MOL0     H85400  10.336   2.223   4.741 -0.3911  0.2045  0.3396
  633MOL0     H85401  10.281   2.390   4.744  0.6314  0.5224  0.0169
  633MOL0     H85402  10.081   2.169   4.678  0.4975  0.4056 -0.8306
  633MOL0     H85403  10.125   2.229   4.848 -5.5284 -2.7434  0.0376
  633MOL0     H85404  10.087   2.462   4.755 -0.2597  0.1153  0.1491
  633MOL0     H85405   9.944   2.373   4.796 -0.4701 -0.5866 -0.6807
  633MOL0     H85406   9.891   2.587   4.627  0.4749  0.4486  0.3230
  633MOL0     H85407   9.609   2.495   4.377  2.3817 -4.8205 -1.1500
  633MOL0     H85408   9.681   2.631   4.467  1.4125  0.6326  0.0456
  633MOL0     H85409   9.873   2.608   4.298  0.1555  0.0244 -1.5270
  633MOL0     H85410   9.714   2.682   4.237 -2.6980 -3.0220 -1.0166
  633MOL0     H85411   9.643   2.462   4.142  0.0408 -1.3746  0.0552
  633MOL0     H85412   9.803   2.408   4.200  1.1672  1.0929  0.8234
  633MOL0     H85413   9.793   2.644   4.011  0.2621  0.2448 -0.0449
  633MOL0     H85414   9.753   2.480   3.948 -0.2631 -1.7311  1.2634
  633MOL0     H85415  10.208   2.531   3.950  0.6998 -0.3404 -1.8252
  633MOL0     H85416  10.434   2.317   3.863  2.1104  1.1058 -1.0502
  633MOL0     H85417  10.366   2.359   3.704  1.7007  1.6415 -0.7459
  633MOL0     H85418  10.395   2.482   3.829 -0.7713  0.3728 -1.2196
  633MOL0     H85419  10.250   1.837   3.604  1.7227 -0.6356 -0.3644
  633MOL0     H85420  10.350   1.737   3.377 -0.5739  0.4868 -4.3673
  633MOL0     H85421  10.371   1.987   3.002 -1.2858 -3.4128 -1.7205
  633MOL0     H85422  10.504   2.024   3.121  1.7052 -1.4360  0.3514
  633MOL0     H85423  10.504   1.789   2.946 -0.8683 -0.2895  1.9173
  633MOL0     H85424  10.606   1.935   2.908 -1.2585  0.8328 -0.2177
  633MOL0     H85425  10.632   1.732   3.118  2.6832  0.3331  1.4328
  633MOL0     H85426  10.683   1.880   3.168 -2.6485 -0.5481 -0.0783
  633MOL0     H85427  10.780   1.694   2.939 -1.7193  0.2502  0.6560
  633MOL0     H85428  10.835   1.856   2.921 -1.9397  3.3276  2.4991
  633MOL0     H85429  11.018   1.747   3.009  2.0997  2.8284  0.9035
  633MOL0     H85430  10.912   1.683   3.143  0.2658 -1.8290 -1.8421
  633MOL0     H85431  10.896   1.909   3.224 -1.3760 -1.4841 -1.0596
  633MOL0     H85432  11.061   1.833   3.209 -1.3604 -1.0586  0.3728
  633MOL0     H85433  10.930   2.062   3.039  3.2173  3.9650 -1.4763
  633MOL0     H85434  11.065   1.982   2.983 -0.6440 -0.4984  0.6233
  633MOL0     H85435  11.105   2.210   3.099  2.9417  2.4346  2.2151
  633MOL0     H85436  11.223   2.091   3.134  0.5296  0.0857 -0.4645
  633MOL0     H85437  10.327   2.120   3.200 -0.8504 -1.4404 -0.3560
  633MOL0     H85438  10.227   2.218   3.401  1.8676  0.5728  0.4982
  633MOL0     H85439   9.943   2.137   3.793 -2.9159  1.9441  0.6392
  633MOL0     H85440   9.841   2.286   3.911 -0.1176 -5.1921 -1.5935
  633MOL0     H85441   9.908   1.996   4.368  0.3467 -0.2931  0.1638
  633MOL0     H85442   9.703   1.909   4.376  1.3795 -2.1456  0.5002
  633MOL0     H85443   9.297   1.881   4.175  1.0582 -0.3748 -0.1889
  633MOL0     H85444   9.076   1.823   4.135  4.4925  2.6079 -0.8601
  633MOL0     H85445   8.811   1.450   4.119 -0.3038  2.3016 -1.9374
  633MOL0     H85446   8.966   1.377   4.145 -0.6914 -1.3962  2.3355
  633MOL0     H85447   8.965   1.448   4.389  0.2097 -0.4139 -1.0223
  633MOL0     H85448   8.869   1.311   4.338 -1.6472  0.4891 -0.9187
  633MOL0     H85449   8.754   1.410   4.488  0.4987 -1.1306 -1.5466
  633MOL0     H85450   8.674   1.419   4.328  1.4057 -2.3436 -1.4309
  633MOL0     H85451   8.738   1.655   4.304  0.4198  1.8169  0.2926
  633MOL0     H85452   8.844   1.664   4.446  2.4291 -1.2934 -4.6418
  633MOL0     H85453   8.447   1.730   4.597  1.3680  2.2862  0.6187
  633MOL0     H85454   9.153   1.412   4.270  1.9001 -0.7873  1.8571
  633MOL0     H85455   9.396   1.484   4.304 -0.4500 -1.8547 -1.8792
  634MOL0     O85456   7.372   3.769   0.563  0.7196  0.0959 -0.1899
  634MOL0     C85457   7.432   3.817   0.662  0.6665 -0.2482  0.1771
  634MOL0     O85458   7.566   3.798   0.688  0.3937  0.1118 -0.4240
  634MOL0     C85459   7.645   3.710   0.605  0.0849 -0.7724  0.1947
  634MOL0     C85460   7.619   3.572   0.608  1.2582 -0.3188 -0.3089
  634MOL0     C85461   7.694   3.489   0.522 -0.3341 -0.6929 -0.6707
  634MOL0     C85462   7.789   3.543   0.427  0.3164 -0.4463  0.0570
  634MOL0     O85463   7.840   3.451   0.334  0.1127  0.8987  0.1355
  634MOL0     C85464   7.972   3.465   0.279  0.1819  0.8553 -0.0497
  634MOL0     C85465   7.984   3.387   0.148 -0.4718  0.4095 -0.4415
  634MOL0     C85466   8.130   3.344   0.140  0.1916 -0.1698 -0.2447
  634MOL0     C85467   8.230   3.454   0.099 -0.2524  1.0517  0.4243
  634MOL0     C85468   8.374   3.417   0.116  0.3136 -0.0208  1.6476
  634MOL0     C85469   8.468   3.427  -0.012 -0.0813  0.3888 -0.1460
  634MOL0     C85470   8.475   3.564  -0.075  0.1885  0.0800  0.0355
  634MOL0     C85471   8.530   3.557  -0.225 -0.1542  0.5644 -0.0240
  634MOL0     N85472   8.672   3.553  -0.245  0.2071 -0.7675  0.2727
  634MOL0     C85473   8.755   3.458  -0.200 -0.7221  1.0104 -0.0348
  634MOL0     C85474   8.881   3.494  -0.234 -0.3243  0.4705 -0.5701
  634MOL0     C85475   9.009   3.422  -0.196  1.5437  0.3625  0.6983
  634MOL0     C85476   9.019   3.286  -0.274  0.2217 -0.4969 -0.0844
  634MOL0     C85477   9.011   3.294  -0.424  0.3457 -0.1620  0.4737
  634MOL0     C85478   8.873   3.275  -0.491 -0.5065 -0.0602  0.0107
  634MOL0     O85479   8.886   3.258  -0.634  0.3694  0.4890 -0.4338
  634MOL0     C85480   8.926   3.354  -0.720 -0.2548 -0.3822 -0.4983
  634MOL0     C85481   8.943   3.488  -0.677  0.5205 -0.6771  0.6546
  634MOL0     C85482   8.975   3.587  -0.778  0.0748 -0.3255 -0.3371
  634MOL0     C85483   8.967   3.733  -0.740  0.4517  0.4546  0.3618
  634MOL0     C85484   8.993   3.553  -0.920 -0.2389 -0.6717 -0.9824
  634MOL0     C85485   9.014   3.637  -1.036  0.0746  0.1814 -1.2886
  634MOL0     O85486   9.035   3.572  -1.155  0.5765 -0.5581 -0.1936
  634MOL0     C85487   9.022   3.643  -1.272  0.0036  1.1773  1.0622
  634MOL0     C85488   8.937   3.591  -1.368 -0.7243 -0.0023  0.3290
  634MOL0     C85489   8.903   3.656  -1.495  0.4132 -0.1368  0.2786
  634MOL0     C85490   8.959   3.785  -1.515 -0.0733 -0.1699  0.3253
  634MOL0     O85491   8.942   3.858  -1.630 -0.7855 -0.3806  0.5031
  634MOL0     C85492   8.943   3.789  -1.755 -0.1622  0.1125  0.3830
  634MOL0     C85493   8.975   3.889  -1.865 -0.0755 -0.2567  0.1554
  634MOL0     C85494   8.851   3.975  -1.906 -0.0092  0.4619 -0.5148
  634MOL0     C85495   8.803   4.072  -1.791  0.3473  0.0765 -0.4555
  634MOL0     C85496   8.691   4.179  -1.832  0.3796  0.3439  0.1522
  634MOL0     C85497   8.693   4.301  -1.747 -0.3204  0.3672  0.0006
  634MOL0     C85498   8.593   4.401  -1.794  0.2337 -0.1455  0.2884
  634MOL0     C85499   8.613   4.553  -1.764 -1.1283 -0.8932 -0.2057
  634MOL0    Cl85500   8.660   4.574  -1.598 -0.1030  0.0247  0.0659
  634MOL0     C85501   9.033   3.847  -1.419 -0.4950 -0.4336 -0.3677
  634MOL0     C85502   9.066   3.772  -1.297 -0.6388 -0.4566 -0.0006
  634MOL0     O85503   9.030   3.756  -1.011  0.4105  0.3024 -0.0980
  634MOL0     C85504   8.988   3.412  -0.945 -1.0293  0.6039 -0.0646
  634MOL0     C85505   8.951   3.315  -0.847 -0.8078  0.7082 -0.2060
  634MOL0     N85506   8.878   3.605  -0.317  0.0150  0.0753  0.1711
  634MOL0     N85507   8.755   3.640  -0.313 -0.4180 -0.3826 -0.0072
  634MOL0     C85508   7.813   3.676   0.431  0.4180 -0.3095 -0.9561
  634MOL0     C85509   7.744   3.761   0.516 -0.0115  0.6620 -0.6780
  634MOL0     C85510   7.379   3.927   0.745  0.1703 -0.3391  0.7905
  634MOL0     C85511   7.425   3.956   0.873  0.8506 -0.4125 -0.4226
  634MOL0     C85512   7.372   4.060   0.942 -0.0157 -0.2904 -0.3078
  634MOL0     C85513   7.280   4.150   0.887 -0.5781  0.1817  0.0820
  634MOL0     O85514   7.245   4.267   0.938  0.4922  0.5348  0.5343
  634MOL0     C85515   7.269   4.298   1.073 -0.1242 -0.2085  0.2502
  634MOL0     C85516   7.224   4.442   1.115 -0.2523  0.1397 -0.5724
  634MOL0     C85517   7.255   4.544   1.003  0.0781 -0.6368 -1.3569
  634MOL0     C85518   7.219   4.691   1.040 -0.3976  0.0264  0.5812
  634MOL0     C85519   7.074   4.699   1.037  0.5112 -0.0850 -0.4476
  634MOL0     C85520   6.953   4.719   1.035 -0.8258  0.0506 -0.1405
  634MOL0     C85521   7.241   4.122   0.755  0.5623  0.4599  0.4413
  634MOL0     C85522   7.285   4.008   0.685 -0.2404  0.1313 -0.7678
  634MOL0     H85523   7.547   3.532   0.679  0.6482  0.5544 -0.4246
  634MOL0     H85524   7.686   3.381   0.533  0.4563 -0.6647  0.3182
  634MOL0     H85525   7.989   3.571   0.258 -0.5266  0.6385 -1.9444
  634MOL0     H85526   8.041   3.433   0.358 -1.4851  0.9747  1.5137
  634MOL0     H85527   7.926   3.294   0.147 -1.0705  0.7443  1.1791
  634MOL0     H85528   7.953   3.443   0.059 -2.9400  1.8377  1.2315
  634MOL0     H85529   8.164   3.295   0.231 -4.0508 -3.1381  0.0344
  634MOL0     H85530   8.127   3.265   0.064  0.6545  0.7086 -1.1876
  634MOL0     H85531   8.216   3.484  -0.005  0.6175 -1.1088 -0.3803
  634MOL0     H85532   8.216   3.540   0.166  0.0536  1.9624 -0.6475
  634MOL0     H85533   8.431   3.483   0.182  0.2527  0.8057  0.8962
  634MOL0     H85534   8.370   3.316   0.158 -2.4340 -0.7678 -0.1771
  634MOL0     H85535   8.572   3.399   0.006  0.0962  1.8376  1.2573
  634MOL0     H85536   8.427   3.368  -0.095  0.5345  2.3639 -1.9624
  634MOL0     H85537   8.378   3.611  -0.094 -0.1978 -1.2308 -1.3881
  634MOL0     H85538   8.529   3.641  -0.017 -1.1164  0.7413  0.4171
  634MOL0     H85539   8.492   3.641  -0.284  0.2135  2.4250  2.2411
  634MOL0     H85540   8.487   3.470  -0.275  2.2670  0.3897 -1.9980
  634MOL0     H85541   8.711   3.380  -0.139 -1.4040  1.9871  0.7579
  634MOL0     H85542   9.091   3.487  -0.229 -0.3901  1.7558 -1.6291
  634MOL0     H85543   9.014   3.400  -0.088  4.9727 -3.6460 -0.0006
  634MOL0     H85544   8.932   3.227  -0.244 -1.0328  0.9828 -0.6343
  634MOL0     H85545   9.109   3.232  -0.245  0.4907  0.0795  0.1775
  634MOL0     H85546   9.077   3.217  -0.464 -0.2103 -0.1796 -0.4366
  634MOL0     H85547   9.060   3.377  -0.474  0.0346  0.8868  1.8349
  634MOL0     H85548   8.803   3.350  -0.454  0.0580  0.1917  0.5977
  634MOL0     H85549   8.833   3.179  -0.458 -1.6974 -0.2769 -1.9385
  634MOL0     H85550   8.923   3.515  -0.574 -1.3960 -0.2873  0.2231
  634MOL0     H85551   8.902   3.785  -0.811  3.5074  2.8834 -0.8866
  634MOL0     H85552   8.937   3.743  -0.635  3.1817  1.5738  1.0988
  634MOL0     H85553   9.065   3.778  -0.752  1.8068 -2.3258  0.1593
  634MOL0     H85554   8.884   3.499  -1.348 -0.0022 -0.7474 -1.0833
  634MOL0     H85555   8.841   3.621  -1.576  0.0067  0.1340  0.4733
  634MOL0     H85556   9.017   3.709  -1.758 -1.0760 -0.7375  0.0202
  634MOL0     H85557   8.850   3.742  -1.787 -0.7898  0.6676  1.3478
  634MOL0     H85558   9.068   3.938  -1.835 -1.1440  0.7943  1.8522
  634MOL0     H85559   9.005   3.830  -1.953 -1.6775 -1.8800  0.6503
  634MOL0     H85560   8.763   3.911  -1.921  0.2846 -0.6892  2.0335
  634MOL0     H85561   8.890   4.029  -1.992  3.3215  2.5097  2.0458
  634MOL0     H85562   8.754   4.011  -1.715 -0.5585 -0.1651 -1.2136
  634MOL0     H85563   8.888   4.125  -1.748 -1.8178  3.8477 -0.3942
  634MOL0     H85564   8.598   4.122  -1.840 -0.9687  2.5877 -1.2414
  634MOL0     H85565   8.708   4.217  -1.933  1.0828 -1.5415 -0.4779
  634MOL0     H85566   8.680   4.271  -1.642  3.3017  1.2848  0.8381
  634MOL0     H85567   8.796   4.334  -1.759 -0.5672  1.1471 -0.0053
  634MOL0     H85568   8.495   4.377  -1.753 -0.9594  1.8879 -1.1799
  634MOL0     H85569   8.588   4.400  -1.904  2.5318  2.0513  0.0758
  634MOL0     H85570   8.524   4.611  -1.787 -0.8614 -1.5593 -3.2281
  634MOL0     H85571   8.696   4.592  -1.824 -1.6188  0.2286 -0.1858
  634MOL0     H85572   9.066   3.948  -1.443 -2.2701  0.3234  0.2464
  634MOL0     H85573   9.146   3.799  -1.229  2.9450 -2.9859 -2.7962
  634MOL0     H85574   9.013   3.373  -1.043 -2.1246  1.0819 -0.5521
  634MOL0     H85575   8.939   3.210  -0.871  3.0821  0.3891 -1.5738
  634MOL0     H85576   7.890   3.721   0.370  0.0225  1.7908  0.0046
  634MOL0     H85577   7.754   3.868   0.498  1.1818  0.4489 -1.3142
  634MOL0     H85578   7.489   3.890   0.930  1.5569 -0.0965 -0.8331
  634MOL0     H85579   7.408   4.073   1.044  0.9852 -0.1251 -0.6722
  634MOL0     H85580   7.218   4.220   1.130  1.2955 -3.5557 -2.6913
  634MOL0     H85581   7.378   4.298   1.084  0.1818 -3.2306 -1.4845
  634MOL0     H85582   7.268   4.475   1.209  1.4237  0.0359 -1.2923
  634MOL0     H85583   7.117   4.428   1.132 -0.4196  1.5037 -0.3455
  634MOL0     H85584   7.217   4.509   0.907 -1.8021  1.4366 -1.4532
  634MOL0     H85585   7.364   4.544   0.999  0.5360 -2.0584  3.9514
  634MOL0     H85586   7.272   4.763   0.977 -3.2325  1.9239  0.1697
  634MOL0     H85587   7.239   4.699   1.147  0.3851 -3.0276  0.7454
  634MOL0     H85588   6.859   4.766   1.017 -1.2556 -1.6181 -2.9916
  634MOL0     H85589   7.174   4.185   0.697  2.2108  0.9932 -0.9893
  634MOL0     H85590   7.253   4.004   0.582 -2.7585  1.4384 -0.1289
  635MOL0     O85591   7.236   9.584   6.576  0.1837  0.4584  0.4457
  635MOL0     C85592   7.196   9.495   6.647  0.8071  0.1222 -0.4940
  635MOL0     O85593   7.127   9.388   6.602  0.5135 -0.7909  0.5662
  635MOL0     C85594   7.085   9.394   6.469  1.1626  0.6893 -0.7229
  635MOL0     C85595   6.978   9.471   6.433 -0.4146  0.2194 -0.7803
  635MOL0     C85596   6.947   9.467   6.299 -0.2874 -0.4121  0.6428
  635MOL0     C85597   7.019   9.390   6.203  0.2174 -0.4864  0.0384
  635MOL0     O85598   7.003   9.373   6.067 -0.4084  0.4052  0.5832
  635MOL0     C85599   6.913   9.449   5.995  0.7387 -0.2211  0.2856
  635MOL0     C85600   6.945   9.449   5.843  0.8478  0.1502 -0.8124
  635MOL0     C85601   7.094   9.427   5.802 -0.0292 -0.0352  0.2218
  635MOL0     C85602   7.117   9.389   5.651 -0.0445  0.7281 -0.7706
  635MOL0     C85603   7.261   9.365   5.620 -0.6295  0.1855 -0.6525
  635MOL0     C85604   7.334   9.233   5.646  0.1755 -0.4019  0.5723
  635MOL0     C85605   7.478   9.227   5.618  0.0367  0.0439 -0.8868
  635MOL0     C85606   7.537   9.092   5.662  0.7079  0.4497  0.7191
  635MOL0     N85607   7.502   9.060   5.800  0.7285  0.9710 -0.3632
  635MOL0     C85608   7.403   8.983   5.839  0.4314 -1.3956 -0.3213
  635MOL0     C85609   7.417   8.950   5.970 -0.6786  0.5815  0.1301
  635MOL0     C85610   7.329   8.835   6.039  0.5850  0.2302 -0.0641
  635MOL0     C85611   7.394   8.794   6.175 -1.0570  0.2491  1.0269
  635MOL0     C85612   7.290   8.742   6.267  0.1763  0.8424 -0.4028
  635MOL0     C85613   7.216   8.851   6.328  1.2722  0.2394 -0.3086
  635MOL0     O85614   7.168   8.794   6.448  0.1433 -0.3170 -0.4057
  635MOL0     C85615   7.093   8.876   6.522  0.6194  0.0143  0.1302
  635MOL0     C85616   7.118   8.883   6.655  1.6980  0.6407 -0.9131
  635MOL0     C85617   7.030   8.953   6.740 -1.3513  0.6753 -0.3726
  635MOL0     C85618   7.053   8.947   6.890 -1.1621  0.6993 -0.7289
  635MOL0     C85619   6.937   9.040   6.686  0.3595  0.1871 -0.8721
  635MOL0     C85620   6.855   9.133   6.774  0.8078 -0.3021 -0.2897
  635MOL0     O85621   6.801   9.083   6.882  0.0387  0.4047 -0.0644
  635MOL0     C85622   6.727   9.171   6.963 -0.3190  0.2727  0.2526
  635MOL0     C85623   6.594   9.218   6.926  0.9950  0.4987 -0.6388
  635MOL0     C85624   6.525   9.302   7.014  1.0466  0.6655 -0.2318
  635MOL0     C85625   6.585   9.344   7.130  0.1946 -0.4194 -0.4374
  635MOL0     O85626   6.532   9.441   7.212 -0.3696  0.5411 -0.1759
  635MOL0     C85627   6.410   9.518   7.182 -0.7194  0.0661  0.3504
  635MOL0     C85628   6.340   9.562   7.308 -0.5457  0.8158 -0.1127
  635MOL0     C85629   6.248   9.688   7.292 -0.3087  0.4141  0.2120
  635MOL0     C85630   6.141   9.704   7.398  0.8414 -0.1585  0.0836
  635MOL0     C85631   6.030   9.786   7.331 -0.3729  0.3274  0.1709
  635MOL0     C85632   5.908   9.810   7.416  0.0858  0.0190 -0.1923
  635MOL0     C85633   5.803   9.910   7.369  0.3501 -0.3290 -0.5850
  635MOL0     C85634   5.702   9.851   7.262 -0.1539 -0.1915  0.1519
  635MOL0    Cl85635   5.564   9.955   7.222  0.5764 -0.2062  0.1729
  635MOL0     C85636   6.716   9.302   7.157  0.2307 -0.1880  0.1150
  635MOL0     C85637   6.790   9.210   7.080 -0.2050  0.0987 -0.9134
  635MOL0     O85638   6.825   9.244   6.727  0.0251 -0.7512 -0.8292
  635MOL0     C85639   6.925   9.057   6.549 -0.0885  0.1302 -0.4274
  635MOL0     C85640   6.998   8.964   6.464 -0.1974 -0.9603  0.2310
  635MOL0     N85641   7.533   9.009   6.007 -0.0253 -0.3055 -0.1956
  635MOL0     N85642   7.578   9.082   5.912 -0.5043 -0.3188 -0.0190
  635MOL0     C85643   7.136   9.331   6.248  0.9887 -0.3527 -0.4827
  635MOL0     C85644   7.160   9.325   6.373 -0.0126  0.9287 -0.4452
  635MOL0     C85645   7.220   9.513   6.789 -0.0075  0.3485 -0.4621
  635MOL0     C85646   7.148   9.435   6.878  0.5171  0.8019 -0.8514
  635MOL0     C85647   7.175   9.436   7.018  0.1782 -0.2461 -0.0325
  635MOL0     C85648   7.272   9.517   7.071 -0.2079  0.0196  0.0161
  635MOL0     O85649   7.294   9.514   7.209 -0.4728 -0.2509 -0.8054
  635MOL0     C85650   7.403   9.598   7.262 -0.0105 -0.0965 -0.3031
  635MOL0     C85651   7.416   9.560   7.418  0.4265 -0.4997 -0.2034
  635MOL0     C85652   7.510   9.643   7.496  0.5208  0.2128 -0.3078
  635MOL0     C85653   7.484   9.788   7.504  0.5461 -0.4381 -0.7871
  635MOL0     C85654   7.539   9.873   7.392 -0.8318 -0.5957 -0.3326
  635MOL0     C85655   7.583   9.960   7.323  0.3341  0.1193 -0.3124
  635MOL0     C85656   7.345   9.602   6.983 -0.0556 -0.0585 -0.2308
  635MOL0     C85657   7.323   9.604   6.842 -0.1228 -0.4513 -0.1535
  635MOL0     H85658   6.933   9.535   6.509  5.6444  3.0301  1.0947
  635MOL0     H85659   6.870   9.539   6.274  1.4358  1.4292  0.3798
  635MOL0     H85660   6.810   9.419   6.016  0.0002  1.3425 -0.8610
  635MOL0     H85661   6.913   9.557   6.014 -2.7754  0.5967 -3.0000
  635MOL0     H85662   6.877   9.375   5.799 -0.7618  1.2612 -0.2677
  635MOL0     H85663   6.910   9.548   5.814  1.4783  0.5689 -0.1806
  635MOL0     H85664   7.151   9.519   5.816  2.3417 -1.4443  0.4767
  635MOL0     H85665   7.131   9.346   5.866 -0.5340 -1.0649 -0.7583
  635MOL0     H85666   7.066   9.294   5.630 -1.9081  0.9769  2.0526
  635MOL0     H85667   7.083   9.470   5.586  2.4677  2.3349 -0.2291
  635MOL0     H85668   7.282   9.408   5.522 -2.2813 -4.2225 -3.2044
  635MOL0     H85669   7.312   9.439   5.683 -1.2667 -0.7266  1.0009
  635MOL0     H85670   7.311   9.219   5.752  0.1903 -1.0686  0.4913
  635MOL0     H85671   7.288   9.150   5.593 -0.7351 -0.4809  1.4500
  635MOL0     H85672   7.488   9.241   5.510  0.5194  1.3756 -0.6978
  635MOL0     H85673   7.525   9.307   5.677  2.0946 -1.2188 -0.7152
  635MOL0     H85674   7.642   9.111   5.637  0.0703 -0.0533 -2.8809
  635MOL0     H85675   7.509   9.015   5.589 -0.7177  1.9692 -0.4053
  635MOL0     H85676   7.310   8.961   5.788  0.7242 -2.1035 -0.5612
  635MOL0     H85677   7.233   8.887   6.055  1.0712  1.8702 -2.0690
  635MOL0     H85678   7.311   8.744   5.981 -0.4986 -3.0320  4.7916
  635MOL0     H85679   7.455   8.878   6.210  0.9204 -0.0795 -1.3795
  635MOL0     H85680   7.461   8.712   6.150 -0.3273  1.2092 -0.3494
  635MOL0     H85681   7.329   8.687   6.353 -2.5416  1.4314  1.3303
  635MOL0     H85682   7.226   8.673   6.211 -1.7381  1.4136  0.9717
  635MOL0     H85683   7.136   8.891   6.265 -1.1325  0.5580  2.6575
  635MOL0     H85684   7.275   8.941   6.349 -0.9454  1.4212  1.2526
  635MOL0     H85685   7.191   8.816   6.699  0.4185  0.0623  0.4203
  635MOL0     H85686   7.125   8.869   6.916 -0.4326  1.3738 -0.6964
  635MOL0     H85687   7.098   9.044   6.915 -3.3336  1.1218  2.1512
  635MOL0     H85688   6.969   8.920   6.954  1.4515 -1.7451  2.0014
  635MOL0     H85689   6.562   9.193   6.826  1.5978 -0.4095 -0.6159
  635MOL0     H85690   6.430   9.336   6.974 -0.2937  3.1335  4.3194
  635MOL0     H85691   6.445   9.613   7.141  0.9592 -0.5214  0.3219
  635MOL0     H85692   6.343   9.463   7.115 -2.1487  0.9612  1.0032
  635MOL0     H85693   6.299   9.465   7.338  2.8588 -0.1747  1.9182
  635MOL0     H85694   6.419   9.579   7.383  3.5516 -1.8031 -3.3618
  635MOL0     H85695   6.200   9.681   7.193 -1.7786 -0.6045  0.9531
  635MOL0     H85696   6.310   9.771   7.260 -1.4693 -0.0591 -3.8530
  635MOL0     H85697   6.091   9.607   7.413  0.6629  0.0840  1.1512
  635MOL0     H85698   6.183   9.741   7.492  2.6308  2.2432 -1.5650
  635MOL0     H85699   5.992   9.740   7.239  0.3136  2.5890 -1.3286
  635MOL0     H85700   6.068   9.885   7.303  0.3152  0.5480  1.8032
  635MOL0     H85701   5.869   9.714   7.451 -0.3866  1.5748  4.2659
  635MOL0     H85702   5.938   9.846   7.515  0.1704  1.7384 -0.8106
  635MOL0     H85703   5.849  10.001   7.331 -0.2668  0.0774 -0.3676
  635MOL0     H85704   5.756   9.948   7.460  2.6743  0.2626  0.4589
  635MOL0     H85705   5.666   9.756   7.303 -2.2326 -0.1952 -1.5603
  635MOL0     H85706   5.765   9.831   7.175  1.1357 -0.4613  1.1015
  635MOL0     H85707   6.760   9.329   7.252  3.6263  3.2940 -2.1263
  635MOL0     H85708   6.892   9.177   7.089 -0.4713 -2.6212 -5.1079
  635MOL0     H85709   6.870   9.140   6.504 -0.6784  0.6669  1.1844
  635MOL0     H85710   6.969   8.989   6.362 -0.4997  1.0643  0.7710
  635MOL0     H85711   7.191   9.272   6.175 -0.6366 -0.0713 -2.0001
  635MOL0     H85712   7.245   9.271   6.412 -1.2980 -2.0355 -1.4476
  635MOL0     H85713   7.083   9.364   6.826  1.1994  0.7003 -1.5782
  635MOL0     H85714   7.129   9.368   7.088 -0.6701 -0.8787 -1.1660
  635MOL0     H85715   7.493   9.604   7.200  0.3133  1.9121  0.2884
  635MOL0     H85716   7.363   9.700   7.258  3.0571  1.1841 -1.3263
  635MOL0     H85717   7.446   9.455   7.411  0.7039 -0.5507  1.2429
  635MOL0     H85718   7.316   9.562   7.463  1.2462 -1.6284  1.8458
  635MOL0     H85719   7.610   9.643   7.452  2.4519  3.2819  3.4250
  635MOL0     H85720   7.518   9.599   7.596  2.0832  1.0868 -0.0014
  635MOL0     H85721   7.527   9.810   7.602  2.5274 -2.9258 -1.0040
  635MOL0     H85722   7.377   9.809   7.503  0.5685 -0.2592 -0.1258
  635MOL0     H85723   7.621  10.037   7.258 -2.2870  1.2906 -0.5691
  635MOL0     H85724   7.424   9.664   7.025 -0.6357  0.7743 -0.3240
  635MOL0     H85725   7.381   9.672   6.780 -0.1938  2.0112  2.2821
  636MOL0     O85726   2.266   0.604   8.350  0.7241  0.2456  0.4200
  636MOL0     C85727   2.185   0.516   8.323 -0.5051 -1.3345 -0.1027
  636MOL0     O85728   2.061   0.517   8.369  0.0165 -0.3538  0.3181
  636MOL0     C85729   2.034   0.580   8.484  0.7224 -0.6766 -0.2640
  636MOL0     C85730   1.962   0.700   8.485  0.1860  0.6893 -0.7356
  636MOL0     C85731   1.926   0.760   8.611 -0.5985 -0.0677  0.4030
  636MOL0     C85732   1.971   0.704   8.734  1.0404 -0.4044 -0.2142
  636MOL0     O85733   1.930   0.769   8.853  0.4194  0.0613  0.7052
  636MOL0     C85734   1.890   0.694   8.965  0.1617 -0.1748  0.5975
  636MOL0     C85735   1.952   0.735   9.089  0.5965 -1.2592  0.1001
  636MOL0     C85736   2.107   0.728   9.074  0.5991  0.4069  0.0976
  636MOL0     C85737   2.168   0.809   9.175  0.7077 -0.3233 -1.4674
  636MOL0     C85738   2.316   0.815   9.168  0.7358 -0.2924  0.7789
  636MOL0     C85739   2.378   0.797   9.304  0.7619  0.8543 -0.6564
  636MOL0     C85740   2.364   0.652   9.365  0.8627 -0.1620  0.0841
  636MOL0     C85741   2.441   0.648   9.502  0.0954 -0.0311 -0.2040
  636MOL0     N85742   2.438   0.513   9.561  0.9505  0.2630  0.7149
  636MOL0     C85743   2.463   0.398   9.495 -1.0111  0.6558  0.0000
  636MOL0     C85744   2.463   0.307   9.598 -0.4259 -1.1178 -0.8236
  636MOL0     C85745   2.485   0.160   9.595 -0.7966 -0.8136 -0.7957
  636MOL0     C85746   2.595   0.103   9.505 -0.0688  0.6630 -0.7676
  636MOL0     C85747   2.736   0.139   9.560  1.1358 -0.0775 -0.3648
  636MOL0     C85748   2.780   0.279   9.542 -0.1801 -0.2285 -0.3276
  636MOL0     O85749   2.906   0.272   9.599 -0.4281 -0.4362  0.1954
  636MOL0     C85750   2.990   0.365   9.550 -1.3908 -0.1228  0.6402
  636MOL0     C85751   2.956   0.497   9.539 -0.0885 -0.5947 -0.4061
  636MOL0     C85752   3.033   0.592   9.487 -1.0546  0.0477 -0.3065
  636MOL0     C85753   3.000   0.736   9.503  0.4344 -0.1745 -0.5482
  636MOL0     C85754   3.152   0.552   9.406 -0.3769 -0.3171  0.8208
  636MOL0     C85755   3.225   0.648   9.324  0.8441 -0.0658 -0.3093
  636MOL0     O85756   3.150   0.754   9.276  0.2608  1.0183 -0.5720
  636MOL0     C85757   3.188   0.835   9.173 -1.4216  0.0405 -0.0719
  636MOL0     C85758   3.090   0.926   9.127 -0.8834 -0.5412 -0.1876
  636MOL0     C85759   3.117   1.033   9.043  0.8248 -0.9808 -0.0464
  636MOL0     C85760   3.248   1.068   9.007  0.5726 -0.2335 -1.4547
  636MOL0     O85761   3.270   1.179   8.940 -0.8926 -0.9995  0.0686
  636MOL0     C85762   3.408   1.236   8.940  0.2996  0.8641 -0.6785
  636MOL0     C85763   3.435   1.259   9.091  0.6690 -0.1011 -1.6322
  636MOL0     C85764   3.553   1.366   9.100  0.6434  0.5893 -0.5470
  636MOL0     C85765   3.640   1.369   9.232 -0.6600 -0.6145 -0.3691
  636MOL0     C85766   3.760   1.467   9.215  0.4474 -0.3393 -0.1819
  636MOL0     C85767   3.821   1.498   9.357 -0.5845 -0.3929 -0.5057
  636MOL0     C85768   3.950   1.560   9.337 -0.1712 -0.4493 -0.0825
  636MOL0     C85769   4.037   1.589   9.462  1.0827 -0.3950 -0.0645
  636MOL0    Cl85770   3.942   1.667   9.595  0.2642 -0.0060  0.1193
  636MOL0     C85771   3.345   0.972   9.042 -0.5114  0.0564 -0.4796
  636MOL0     C85772   3.320   0.855   9.115 -0.0501  0.7674 -0.1699
  636MOL0     O85773   3.338   0.624   9.293 -0.5349 -0.3919 -0.2109
  636MOL0     C85774   3.195   0.409   9.417 -0.1810 -0.0751 -0.1019
  636MOL0     C85775   3.118   0.326   9.499 -0.2505  0.0133 -0.3602
  636MOL0     N85776   2.432   0.372   9.715 -0.1299  0.5993  0.0299
  636MOL0     N85777   2.424   0.495   9.688  0.2261 -0.2766 -0.7745
  636MOL0     C85778   2.054   0.597   8.731  1.1466 -0.3229  0.0820
  636MOL0     C85779   2.066   0.524   8.606  0.8752 -0.8444  0.5161
  636MOL0     C85780   2.215   0.421   8.219 -1.2947  0.7403 -0.4565
  636MOL0     C85781   2.347   0.382   8.194 -0.1578 -1.1333 -0.5906
  636MOL0     C85782   2.388   0.284   8.097  0.7038 -0.3918 -0.3358
  636MOL0     C85783   2.298   0.210   8.022 -0.6048  0.3644  0.5321
  636MOL0     O85784   2.342   0.123   7.928  1.3092  0.8212 -0.1190
  636MOL0     C85785   2.258   0.004   7.925  0.3690  1.2726  0.0281
  636MOL0     C85786   2.333  -0.120   7.877 -0.1526 -0.3090  1.1722
  636MOL0     C85787   2.424  -0.165   7.992 -0.1711  0.5952  0.5200
  636MOL0     C85788   2.522  -0.277   7.931 -0.1061 -0.3444  0.0513
  636MOL0     C85789   2.613  -0.317   8.031  1.3268 -0.3176  0.0240
  636MOL0     C85790   2.699  -0.361   8.107 -0.3492 -0.1252  0.3182
  636MOL0     C85791   2.160   0.241   8.059  0.2600  1.0330 -0.2587
  636MOL0     C85792   2.113   0.338   8.154 -1.4647  0.3013  0.7673
  636MOL0     H85793   1.936   0.739   8.388 -0.1220 -2.3487 -1.9842
  636MOL0     H85794   1.867   0.851   8.611  2.9952  2.6309 -3.0956
  636MOL0     H85795   1.785   0.719   8.980  0.1764 -0.1587  0.6755
  636MOL0     H85796   1.904   0.588   8.942  1.1524 -0.2173  1.3105
  636MOL0     H85797   1.923   0.840   9.088 -0.8773 -1.5015 -4.0230
  636MOL0     H85798   1.912   0.674   9.170 -3.9834  1.0616 -0.0707
  636MOL0     H85799   2.138   0.628   9.106 -0.5086 -0.2752 -0.8613
  636MOL0     H85800   2.132   0.769   8.976 -0.2407 -2.2971 -1.3595
  636MOL0     H85801   2.122   0.908   9.160 -2.3480 -1.4847 -0.5625
  636MOL0     H85802   2.128   0.768   9.268 -1.0468  3.6779 -0.2003
  636MOL0     H85803   2.354   0.746   9.092  0.2310 -0.1455  0.3890
  636MOL0     H85804   2.330   0.917   9.131 -4.7186 -0.1403 -1.8692
  636MOL0     H85805   2.482   0.831   9.305  1.3851 -0.7843  2.1793
  636MOL0     H85806   2.327   0.866   9.373 -1.0353  3.2212 -4.0522
  636MOL0     H85807   2.259   0.629   9.387  1.3422 -0.0332  2.7917
  636MOL0     H85808   2.401   0.575   9.296  0.1078  0.6549 -1.2847
  636MOL0     H85809   2.395   0.713   9.576 -0.8895 -1.2886  0.3334
  636MOL0     H85810   2.544   0.677   9.480  0.3368 -1.1356 -0.6303
  636MOL0     H85811   2.499   0.371   9.396 -0.6768  0.3971  0.1903
  636MOL0     H85812   2.491   0.126   9.699 -0.7601  2.7560  0.5199
  636MOL0     H85813   2.387   0.118   9.572 -1.9790  1.9385 -1.2286
  636MOL0     H85814   2.582   0.130   9.400 -0.7572  1.5801 -0.4511
  636MOL0     H85815   2.568  -0.003   9.515 -0.1894  0.7021 -0.6738
  636MOL0     H85816   2.811   0.070   9.520  0.8805 -1.8545  1.9840
  636MOL0     H85817   2.734   0.130   9.669  1.0495  0.0565 -0.3559
  636MOL0     H85818   2.711   0.346   9.595  0.8602 -0.9552  2.0424
  636MOL0     H85819   2.786   0.318   9.440 -2.2887  1.5476  0.1365
  636MOL0     H85820   2.861   0.522   9.586  0.3098  0.2339 -0.0186
  636MOL0     H85821   3.094   0.786   9.528  1.1394 -1.3394 -0.7915
  636MOL0     H85822   2.950   0.801   9.430  0.5009  3.0446  2.0342
  636MOL0     H85823   2.931   0.750   9.587  0.0019  3.7454 -1.3541
  636MOL0     H85824   2.985   0.907   9.143 -0.9001 -0.4907 -0.2369
  636MOL0     H85825   3.036   1.102   9.023  1.8200  0.3500  0.4091
  636MOL0     H85826   3.477   1.160   8.903 -0.0786 -0.2962  0.8981
  636MOL0     H85827   3.422   1.329   8.883  1.1920  0.6879 -0.7549
  636MOL0     H85828   3.350   1.292   9.152  1.4905  1.2381 -1.1701
  636MOL0     H85829   3.483   1.180   9.149 -0.0603 -0.8717 -2.0604
  636MOL0     H85830   3.512   1.464   9.076  1.0090  0.8138 -0.2705
  636MOL0     H85831   3.625   1.359   9.018  2.5014  2.5394  0.8061
  636MOL0     H85832   3.588   1.406   9.321  0.5729  0.6693 -0.1549
  636MOL0     H85833   3.683   1.272   9.260  0.0972 -0.5680 -1.3188
  636MOL0     H85834   3.725   1.545   9.148  0.5651 -0.2629 -0.1569
  636MOL0     H85835   3.843   1.424   9.159  2.8696  2.5927  0.8691
  636MOL0     H85836   3.749   1.556   9.416 -1.1404 -0.2298 -1.3233
  636MOL0     H85837   3.832   1.414   9.425 -3.0650 -0.2637  0.1820
  636MOL0     H85838   3.949   1.651   9.276  1.8305  0.2453  0.8402
  636MOL0     H85839   4.009   1.485   9.283 -0.1035 -1.1649  0.9568
  636MOL0     H85840   4.122   1.643   9.418 -0.7661  1.0937 -1.9680
  636MOL0     H85841   4.063   1.491   9.503  0.6124  0.6277  2.9788
  636MOL0     H85842   3.451   0.990   9.027  0.1599 -2.4094  0.8221
  636MOL0     H85843   3.402   0.787   9.135  0.7444  2.0472  1.1313
  636MOL0     H85844   3.285   0.373   9.368  0.4952 -0.1493  1.1518
  636MOL0     H85845   3.141   0.224   9.526  1.2332 -0.1279 -1.9489
  636MOL0     H85846   2.094   0.556   8.823 -0.7383 -0.4446  0.8953
  636MOL0     H85847   2.118   0.429   8.608  0.4306 -1.2662 -2.8509
  636MOL0     H85848   2.415   0.437   8.258 -0.5190 -2.9508  1.4448
  636MOL0     H85849   2.496   0.280   8.087  0.5660 -3.7219 -2.2322
  636MOL0     H85850   2.217  -0.010   8.025 -0.7738  0.0543 -0.5896
  636MOL0     H85851   2.168   0.021   7.865 -0.8159 -0.0012  1.3724
  636MOL0     H85852   2.387  -0.115   7.783 -2.3145 -3.3163 -0.3817
  636MOL0     H85853   2.260  -0.201   7.865 -0.6546  0.5095 -2.3718
  636MOL0     H85854   2.361  -0.200   8.074  2.3110  0.9527  2.7544
  636MOL0     H85855   2.493  -0.090   8.032  1.4706 -0.3827 -0.3454
  636MOL0     H85856   2.580  -0.233   7.849  1.7659 -1.2159  0.8666
  636MOL0     H85857   2.459  -0.359   7.896 -0.1629 -0.0741 -0.5030
  636MOL0     H85858   2.770  -0.404   8.174  0.3665 -0.5086 -0.6546
  636MOL0     H85859   2.088   0.184   8.000  1.0132  0.9881 -1.1731
  636MOL0     H85860   2.006   0.343   8.172 -1.5437  1.3962  0.1252
  637MOL0     O85861  10.679   6.342   0.481  0.3818 -0.8132  0.0476
  637MOL0     C85862  10.606   6.395   0.562  0.1921 -0.1133  0.3625
  637MOL0     O85863  10.525   6.504   0.538  0.2297 -0.2901  0.3428
  637MOL0     C85864  10.553   6.595   0.440 -0.5067  0.4380  0.3618
  637MOL0     C85865  10.450   6.657   0.375  0.6467 -0.5244  0.3558
  637MOL0     C85866  10.458   6.760   0.287  0.1209 -0.1149  0.2669
  637MOL0     C85867  10.586   6.818   0.263 -0.7168  1.0298  0.0943
  637MOL0     O85868  10.607   6.924   0.182  0.7702 -0.8710  0.4300
  637MOL0     C85869  10.606   6.885   0.047  0.2308 -0.7270 -0.2085
  637MOL0     C85870  10.721   6.951  -0.022 -0.4710  0.0895 -0.6295
  637MOL0     C85871  10.850   6.876   0.037 -0.5532  0.2392 -1.2552
  637MOL0     C85872  10.960   6.864  -0.070  0.1426  0.2930  0.2294
  637MOL0     C85873  11.088   6.784  -0.034  0.3845  0.4053 -0.7215
  637MOL0     C85874  11.180   6.744  -0.152 -0.1200  0.1205 -0.6995
  637MOL0     C85875  11.114   6.665  -0.269  0.0934 -0.1646 -0.5905
  637MOL0     C85876  11.124   6.509  -0.254 -0.0643  0.2201  0.1985
  637MOL0     N85877  10.983   6.460  -0.240  0.0980 -0.5240 -1.2818
  637MOL0     C85878  10.920   6.427  -0.120 -0.5991  0.1097  0.1282
  637MOL0     C85879  10.793   6.376  -0.151 -0.5462 -0.2960  0.1702
  637MOL0     C85880  10.687   6.343  -0.050  0.0419 -0.3353 -0.5688
  637MOL0     C85881  10.590   6.462  -0.053 -0.9965  0.7157  0.7962
  637MOL0     C85882  10.520   6.484   0.075 -0.2030  0.3853  0.4851
  637MOL0     C85883  10.459   6.365   0.150 -0.2778  0.6951  0.4940
  637MOL0     O85884  10.353   6.306   0.075  0.6469 -0.6376  0.5314
  637MOL0     C85885  10.231   6.364   0.083  0.6182 -0.3366 -0.2364
  637MOL0     C85886  10.190   6.446   0.187  0.1334  0.0510  0.1134
  637MOL0     C85887  10.069   6.513   0.185 -0.2227  0.1419 -0.0585
  637MOL0     C85888  10.029   6.592   0.308 -0.2970 -0.4484  0.2203
  637MOL0     C85889   9.982   6.504   0.066  0.5861 -0.7101  0.5530
  637MOL0     C85890   9.843   6.574   0.062 -0.2477 -0.5723 -0.1947
  637MOL0     O85891   9.752   6.525  -0.019  0.2149  1.0788  0.2326
  637MOL0     C85892   9.627   6.574  -0.024 -0.1279 -0.5039  0.4840
  637MOL0     C85893   9.597   6.716  -0.037  0.8836  0.2394  0.5343
  637MOL0     C85894   9.471   6.763  -0.074  0.7772 -0.1156 -0.4679
  637MOL0     C85895   9.370   6.677  -0.104 -0.0843 -1.1124  0.2484
  637MOL0     O85896   9.262   6.716  -0.179  0.1193 -0.6956  0.1292
  637MOL0     C85897   9.166   6.801  -0.115  0.2670 -0.3414 -0.1307
  637MOL0     C85898   9.020   6.741  -0.130  0.7088  0.2592 -0.9473
  637MOL0     C85899   9.000   6.612  -0.061 -0.9989  1.3324 -0.6811
  637MOL0     C85900   8.869   6.554  -0.071  0.3892  0.0744  0.7766
  637MOL0     C85901   8.857   6.438   0.029  0.0976 -0.8179  1.2457
  637MOL0     C85902   8.717   6.368   0.029  0.5470 -0.6723  0.5806
  637MOL0     C85903   8.668   6.287   0.151  0.3940  0.1347 -0.0073
  637MOL0     C85904   8.546   6.210   0.131  0.1119  0.3687  0.7133
  637MOL0    Cl85905   8.412   6.322   0.072  0.2378 -0.1051 -0.2093
  637MOL0     C85906   9.396   6.543  -0.078  0.3478  0.7588 -0.0266
  637MOL0     C85907   9.520   6.492  -0.041 -0.6509  0.5678  0.1622
  637MOL0     O85908   9.814   6.660   0.144 -0.6637  0.2742  0.3496
  637MOL0     C85909  10.024   6.420  -0.038 -0.7652 -0.1158  0.0828
  637MOL0     C85910  10.144   6.350  -0.023  0.1359  0.1932 -0.2731
  637MOL0     N85911  10.787   6.391  -0.289 -0.1927 -1.0140 -0.4337
  637MOL0     N85912  10.892   6.441  -0.340  0.0153 -0.6336 -0.2661
  637MOL0     C85913  10.699   6.765   0.330  0.0004  0.3811 -0.8966
  637MOL0     C85914  10.685   6.652   0.411  0.3365 -0.2523  0.2336
  637MOL0     C85915  10.589   6.335   0.698  0.4973  0.7670 -0.7897
  637MOL0     C85916  10.516   6.396   0.802 -0.1091  0.5145 -0.0571
  637MOL0     C85917  10.497   6.340   0.926  0.1458  0.9989  0.7125
  637MOL0     C85918  10.564   6.212   0.957  0.5310 -0.3969  0.0577
  637MOL0     O85919  10.545   6.157   1.083 -0.0635  0.0554 -0.1282
  637MOL0     C85920  10.604   6.028   1.098  0.1117  0.6770  0.1337
  637MOL0     C85921  10.561   5.973   1.239 -0.1437 -0.8603 -0.1601
  637MOL0     C85922  10.604   6.067   1.358  0.2847 -0.7123  0.0770
  637MOL0     C85923  10.753   6.045   1.361  0.2479  0.7169  0.2222
  637MOL0     C85924  10.794   6.057   1.498  0.5393 -0.5639 -0.2164
  637MOL0     C85925  10.835   6.058   1.611  0.2774 -0.0783 -0.2578
  637MOL0     C85926  10.646   6.154   0.855 -0.4695  0.8828  0.4661
  637MOL0     C85927  10.648   6.213   0.729 -0.4910  0.0986  0.3069
  637MOL0     H85928  10.351   6.619   0.395  0.1983  1.4756  2.3183
  637MOL0     H85929  10.362   6.793   0.248 -2.5982 -2.2693  4.2872
  637MOL0     H85930  10.607   6.777   0.033 -1.9829 -0.9014  0.5850
  637MOL0     H85931  10.519   6.931  -0.001  0.8686 -1.5561 -2.2730
  637MOL0     H85932  10.710   6.939  -0.130  0.9399 -0.5807 -0.7183
  637MOL0     H85933  10.727   7.057   0.004  1.4690 -0.2789  0.6224
  637MOL0     H85934  10.887   6.922   0.129  3.2363 -2.0121 -1.4575
  637MOL0     H85935  10.823   6.774   0.066 -3.6358  1.4315  0.5067
  637MOL0     H85936  10.921   6.822  -0.163  0.2246  0.8665 -0.0728
  637MOL0     H85937  10.986   6.966  -0.101 -0.9464  0.1797 -1.1699
  637MOL0     H85938  11.150   6.848   0.029  0.1515 -1.8376  2.0340
  637MOL0     H85939  11.062   6.701   0.034  2.7709  1.2905  1.4232
  637MOL0     H85940  11.232   6.832  -0.192  0.8561  0.3831  1.0230
  637MOL0     H85941  11.258   6.679  -0.112 -1.7978 -0.5388  1.6905
  637MOL0     H85942  11.014   6.695  -0.302 -1.3279 -0.3649  3.0520
  637MOL0     H85943  11.167   6.694  -0.360 -1.1395 -1.5461 -1.8058
  637MOL0     H85944  11.178   6.468  -0.167 -1.9104 -5.8079 -0.9823
  637MOL0     H85945  11.167   6.473  -0.348  2.8318  3.7646 -0.0615
  637MOL0     H85946  10.968   6.434  -0.023 -2.0676 -1.3507  1.0068
  637MOL0     H85947  10.641   6.250  -0.085  0.8715 -2.1176  2.6973
  637MOL0     H85948  10.736   6.330   0.047  0.6691 -0.6702 -0.9226
  637MOL0     H85949  10.516   6.445  -0.132 -1.4351  0.8021  1.1831
  637MOL0     H85950  10.646   6.556  -0.064 -1.6351  1.6476  4.2271
  637MOL0     H85951  10.452   6.569   0.070 -0.5114  0.1109 -0.1526
  637MOL0     H85952  10.599   6.512   0.145  0.2247  1.3792 -0.3628
  637MOL0     H85953  10.435   6.391   0.254 -1.3005  1.5153  0.0743
  637MOL0     H85954  10.532   6.284   0.152 -1.4965 -0.4696  3.5752
  637MOL0     H85955  10.244   6.451   0.281 -1.9979 -1.6610  1.5257
  637MOL0     H85956  10.098   6.574   0.391  0.4691 -4.0030 -1.0131
  637MOL0     H85957  10.029   6.700   0.290  5.3746 -0.1426  0.0380
  637MOL0     H85958   9.932   6.561   0.348 -0.7333 -0.9440 -1.1777
  637MOL0     H85959   9.676   6.789  -0.030  0.1015  1.3133 -1.2398
  637MOL0     H85960   9.468   6.871  -0.083 -0.5588  0.3212  3.4308
  637MOL0     H85961   9.191   6.814  -0.009  0.1207 -2.8933  0.2700
  637MOL0     H85962   9.179   6.901  -0.159  1.3854 -1.0531 -1.4925
  637MOL0     H85963   8.960   6.822  -0.088  0.1687  0.7233 -2.5527
  637MOL0     H85964   8.997   6.723  -0.235  2.2666 -0.4871 -1.1925
  637MOL0     H85965   9.027   6.622   0.044 -2.2315 -1.7826  0.0524
  637MOL0     H85966   9.063   6.543  -0.118  0.5476  3.0945 -1.2121
  637MOL0     H85967   8.799   6.635  -0.051 -0.3832 -0.1639 -0.7884
  637MOL0     H85968   8.849   6.525  -0.175  2.9140 -1.0899  0.5371
  637MOL0     H85969   8.889   6.465   0.130  0.8543  2.2288  0.2879
  637MOL0     H85970   8.932   6.374  -0.020 -1.8228 -1.1206 -1.5252
  637MOL0     H85971   8.640   6.442   0.003 -0.7577 -2.8421 -2.4338
  637MOL0     H85972   8.709   6.303  -0.059 -0.1937  2.3257 -1.7403
  637MOL0     H85973   8.652   6.354   0.236 -1.3007 -0.5074  0.2218
  637MOL0     H85974   8.742   6.210   0.175 -0.1601 -0.0036  1.3800
  637MOL0     H85975   8.530   6.162   0.227  0.5082  1.2246  1.2146
  637MOL0     H85976   8.545   6.130   0.057 -2.2801  0.4300  0.6018
  637MOL0     H85977   9.325   6.463  -0.097  1.4666 -0.4220  0.6179
  637MOL0     H85978   9.532   6.387  -0.018 -2.0651  0.3326 -0.0973
  637MOL0     H85979   9.958   6.397  -0.121 -1.7821 -0.3358  0.9264
  637MOL0     H85980  10.185   6.285  -0.099 -3.0230 -1.2657 -0.8893
  637MOL0     H85981  10.798   6.810   0.331 -0.3847  1.3594 -2.4948
  637MOL0     H85982  10.777   6.623   0.460  1.1471  1.0646 -0.4635
  637MOL0     H85983  10.478   6.494   0.776  0.0331  0.3296 -0.9934
  637MOL0     H85984  10.424   6.385   0.992 -1.1947 -1.7904  1.2979
  637MOL0     H85985  10.548   5.974   1.021 -2.1218 -2.4390  3.6451
  637MOL0     H85986  10.713   6.017   1.092  0.2990  1.4219  1.6718
  637MOL0     H85987  10.587   5.869   1.261 -0.8740 -0.7303  1.4925
  637MOL0     H85988  10.452   5.959   1.234 -0.1914 -1.9273  2.3648
  637MOL0     H85989  10.560   6.034   1.452  1.1181  1.3258  1.2480
  637MOL0     H85990  10.585   6.172   1.337  0.0623 -0.3564  1.8915
  637MOL0     H85991  10.807   6.112   1.294 -2.4692  3.1196  0.2536
  637MOL0     H85992  10.785   5.941   1.346 -0.6562  0.2877  1.0870
  637MOL0     H85993  10.871   6.068   1.712 -3.5188  1.7950  1.0995
  637MOL0     H85994  10.712   6.068   0.867  1.0118  1.6322 -1.7886
  637MOL0     H85995  10.705   6.169   0.648  0.3413  0.7231  0.5348
  638MOL0     O85996   7.289   9.217   2.568  0.0408 -0.4390  0.0934
  638MOL0     C85997   7.307   9.288   2.665 -0.3476 -0.6437  0.1169
  638MOL0     O85998   7.244   9.407   2.680 -0.3250 -0.2322 -0.8755
  638MOL0     C85999   7.159   9.446   2.579 -1.1445  0.5105  0.0727
  638MOL0     C86000   7.215   9.491   2.453 -0.6857  1.0729  0.7853
  638MOL0     C86001   7.134   9.490   2.337  0.4840 -0.3913 -0.8341
  638MOL0     C86002   6.992   9.462   2.362  0.4032  0.6694 -0.6632
  638MOL0     O86003   6.897   9.480   2.260 -0.1101 -0.3075  0.7446
  638MOL0     C86004   6.754   9.510   2.288 -0.1617  0.7946 -0.4673
  638MOL0     C86005   6.686   9.564   2.163 -0.3850  0.4089  0.2108
  638MOL0     C86006   6.531   9.580   2.189 -0.7238  0.7948  0.4783
  638MOL0     C86007   6.459   9.621   2.061  0.5458 -0.4716  0.2951
  638MOL0     C86008   6.309   9.599   2.059 -0.2258  1.1732 -0.3808
  638MOL0     C86009   6.225   9.657   1.941 -0.5957  0.6164  0.8141
  638MOL0     C86010   6.183   9.799   1.968 -0.0422 -0.5526 -0.0805
  638MOL0     C86011   6.268   9.911   1.895  0.5703 -0.9551 -0.5295
  638MOL0     N86012   6.202  10.046   1.902 -0.2930  0.1245 -0.1735
  638MOL0     C86013   6.091  10.080   1.829 -0.2291  0.4231  0.3427
  638MOL0     C86014   6.046  10.193   1.884 -0.1386  0.1792  0.2565
  638MOL0     C86015   5.908  10.259   1.861  0.1716  0.6477 -0.2351
  638MOL0     C86016   5.901  10.349   1.738  0.0729  0.2623 -0.3848
  638MOL0     C86017   5.912  10.505   1.768 -0.4968  0.6209  0.2458
  638MOL0     C86018   5.860  10.586   1.649  0.1198  0.2917 -0.6040
  638MOL0     O86019   5.890  10.731   1.677  0.2018  0.8086 -0.0092
  638MOL0     C86020   5.826  10.826   1.592 -0.8378  0.5544 -0.1930
  638MOL0     C86021   5.856  10.966   1.616  0.3130  0.0130  0.2518
  638MOL0     C86022   5.818  11.057   1.518  0.4077 -0.1486 -0.6895
  638MOL0     C86023   5.896  11.182   1.516  0.6276  0.5368  0.0887
  638MOL0     C86024   5.728  11.024   1.416  0.0928 -0.9042  0.3389
  638MOL0     C86025   5.668  11.121   1.314  0.2374 -0.1532  1.3117
  638MOL0     O86026   5.542  11.085   1.275 -0.4447 -0.5746  0.9555
  638MOL0     C86027   5.485  11.155   1.168  1.2276  0.5091 -0.4776
  638MOL0     C86028   5.519  11.132   1.034 -0.9536  0.1562  0.5074
  638MOL0     C86029   5.449  11.199   0.925  0.1806  0.6157 -0.7795
  638MOL0     C86030   5.344  11.288   0.959  0.4424  1.3317  0.4784
  638MOL0     O86031   5.263  11.352   0.865 -0.9294  0.6616  0.6936
  638MOL0     C86032   5.331  11.394   0.742 -0.5946 -0.1860  0.2743
  638MOL0     C86033   5.298  11.535   0.696 -0.1330 -0.2749  0.0268
  638MOL0     C86034   5.376  11.646   0.766 -1.0189  0.4362 -0.0155
  638MOL0     C86035   5.321  11.678   0.905  0.1731  0.2431  0.0140
  638MOL0     C86036   5.357  11.815   0.963  0.0694  0.2695  0.8266
  638MOL0     C86037   5.290  11.840   1.104 -0.8454  0.0725  0.6712
  638MOL0     C86038   5.392  11.919   1.188 -0.2946  0.2293 -0.7451
  638MOL0     C86039   5.392  12.065   1.139  0.3338 -0.2384  0.0346
  638MOL0    Cl86040   5.226  12.124   1.136 -0.1892 -0.5748 -0.8764
  638MOL0     C86041   5.316  11.316   1.092  0.0565  0.8625  0.3661
  638MOL0     C86042   5.379  11.247   1.195 -0.2211  1.4239 -0.2502
  638MOL0     O86043   5.729  11.228   1.291  0.4196 -0.0718  0.6571
  638MOL0     C86044   5.685  10.890   1.409  0.2953  0.2648  0.1593
  638MOL0     C86045   5.743  10.797   1.481  0.2854  0.1841 -1.2291
  638MOL0     N86046   6.137  10.236   1.981  0.5558  0.0725  0.6094
  638MOL0     N86047   6.229  10.145   1.991 -0.2906  0.3357  0.0030
  638MOL0     C86048   6.937   9.431   2.492  0.1953 -0.4752  0.3804
  638MOL0     C86049   7.026   9.423   2.595  0.4731 -0.5334  0.4600
  638MOL0     C86050   7.387   9.236   2.788  1.0772  0.6411  0.1567
  638MOL0     C86051   7.400   9.308   2.907 -0.2824 -0.3798  0.3908
  638MOL0     C86052   7.467   9.254   3.012 -0.1800  0.2431 -1.3546
  638MOL0     C86053   7.522   9.121   3.013 -1.0365  0.5283  0.0584
  638MOL0     O86054   7.585   9.060   3.115 -0.2714  0.2070  0.4953
  638MOL0     C86055   7.629   9.128   3.237  0.3709  0.6559  0.6435
  638MOL0     C86056   7.775   9.089   3.266  0.0811 -1.2280  0.2954
  638MOL0     C86057   7.880   9.132   3.171  0.3815 -0.7416  0.1729
  638MOL0     C86058   7.910   9.038   3.064  0.2895  0.3411  0.1509
  638MOL0     C86059   7.830   9.051   2.942 -0.4576  1.0785  0.0364
  638MOL0     C86060   7.775   9.046   2.838  0.4661  0.2005 -0.8274
  638MOL0     C86061   7.492   9.046   2.893 -0.4575 -0.3044 -0.2173
  638MOL0     C86062   7.425   9.100   2.789 -0.1527 -0.9780 -0.1710
  638MOL0     H86063   7.321   9.513   2.444 -0.5363  0.0771 -0.1704
  638MOL0     H86064   7.172   9.520   2.240 -1.8199  2.1686 -1.0742
  638MOL0     H86065   6.713   9.412   2.315  1.2535  0.8406  2.3158
  638MOL0     H86066   6.754   9.590   2.363 -1.7338 -0.5770  1.1154
  638MOL0     H86067   6.733   9.658   2.129  0.8525 -0.3987 -0.3955
  638MOL0     H86068   6.690   9.485   2.088 -0.1746 -2.5400  3.1284
  638MOL0     H86069   6.489   9.491   2.236 -1.9320  2.3268  2.4602
  638MOL0     H86070   6.513   9.657   2.264 -1.2545  0.3220  0.8442
  638MOL0     H86071   6.476   9.726   2.038 -0.5738  0.3988  3.0786
  638MOL0     H86072   6.487   9.570   1.968 -0.8776 -0.0294 -0.4142
  638MOL0     H86073   6.275   9.495   2.067  2.3157  0.4345  3.0237
  638MOL0     H86074   6.272   9.649   2.149 -0.1839 -1.1923  1.0458
  638MOL0     H86075   6.283   9.648   1.849 -4.1039 -5.2488 -1.3517
  638MOL0     H86076   6.137   9.597   1.920  1.2878 -1.5461 -1.4227
  638MOL0     H86077   6.080   9.804   1.930 -0.5701 -3.7692  0.6351
  638MOL0     H86078   6.172   9.825   2.074  1.9975  0.0409  0.0142
  638MOL0     H86079   6.280   9.886   1.789 -3.1503  2.5522 -2.0679
  638MOL0     H86080   6.361   9.911   1.952  1.5177 -1.5291 -2.0076
  638MOL0     H86081   6.029  10.017   1.766 -1.7279 -1.1834  3.2092
  638MOL0     H86082   5.841  10.176   1.836 -1.8233  2.4501 -1.1488
  638MOL0     H86083   5.880  10.297   1.959  2.3120  0.3718  0.5402
  638MOL0     H86084   5.804  10.336   1.688 -0.7749  0.2670  1.2009
  638MOL0     H86085   5.981  10.308   1.676 -0.8851  0.7663 -2.0260
  638MOL0     H86086   6.017  10.535   1.782 -0.5691  0.3883  1.3752
  638MOL0     H86087   5.855  10.529   1.858 -0.4887  2.0477 -0.1048
  638MOL0     H86088   5.753  10.564   1.643 -0.1018 -0.0105  2.6456
  638MOL0     H86089   5.906  10.560   1.554  1.3779 -0.3033  0.1353
  638MOL0     H86090   5.931  10.984   1.693  0.2706 -1.1936  0.5947
  638MOL0     H86091   5.948  11.199   1.421  0.4532 -0.0536 -0.1143
  638MOL0     H86092   5.829  11.268   1.527 -0.7981 -0.6596  1.2353
  638MOL0     H86093   5.970  11.182   1.597  0.7597  0.0945 -0.0289
  638MOL0     H86094   5.597  11.061   1.009 -0.5012  0.7624  0.1914
  638MOL0     H86095   5.479  11.162   0.828  1.9370  0.0330 -0.0465
  638MOL0     H86096   5.440  11.394   0.753  0.0544 -0.0345 -4.2659
  638MOL0     H86097   5.285  11.333   0.664 -0.1998 -0.3025  0.1321
  638MOL0     H86098   5.305  11.532   0.587 -1.6419 -2.8925 -0.0762
  638MOL0     H86099   5.194  11.552   0.725 -0.1714 -2.0906  1.0824
  638MOL0     H86100   5.386  11.732   0.700  1.0673 -0.8019 -1.4343
  638MOL0     H86101   5.479  11.611   0.771 -0.7612  1.0656 -0.7305
  638MOL0     H86102   5.213  11.662   0.916  0.0812 -0.6233 -1.7519
  638MOL0     H86103   5.368  11.608   0.974  1.2429  1.2584  0.3544
  638MOL0     H86104   5.315  11.881   0.887  2.6106 -0.0170 -0.9468
  638MOL0     H86105   5.466  11.805   0.960 -0.0472 -0.8923 -1.0281
  638MOL0     H86106   5.194  11.885   1.078 -1.5319 -0.5839  1.9847
  638MOL0     H86107   5.272  11.747   1.158 -0.7042 -0.2034  0.2474
  638MOL0     H86108   5.493  11.877   1.177  0.2132  0.6337  1.7809
  638MOL0     H86109   5.354  11.919   1.291  0.6193  6.3465 -0.0206
  638MOL0     H86110   5.437  12.086   1.041 -1.6733  1.3405 -0.6092
  638MOL0     H86111   5.452  12.117   1.214  0.1971 -4.0604  3.0972
  638MOL0     H86112   5.248  11.395   1.123  0.9252  1.6551  0.2930
  638MOL0     H86113   5.349  11.258   1.298  0.8103 -1.1881  0.4108
  638MOL0     H86114   5.609  10.854   1.340  2.5267  0.0913 -2.3964
  638MOL0     H86115   5.720  10.692   1.463 -1.7347  0.4129 -0.3275
  638MOL0     H86116   6.830   9.410   2.496  0.3565 -1.6358 -0.7960
  638MOL0     H86117   6.991   9.406   2.696 -2.5101  1.5964 -0.0918
  638MOL0     H86118   7.362   9.409   2.905 -1.7020 -0.8163 -3.3314
  638MOL0     H86119   7.465   9.312   3.104 -2.0464 -1.0018 -0.5500
  638MOL0     H86120   7.619   9.237   3.230 -1.3363  0.4718 -0.7545
  638MOL0     H86121   7.575   9.094   3.326  0.2002 -0.2102  0.2158
  638MOL0     H86122   7.787   8.983   3.289 -0.1308 -1.7643 -1.8377
  638MOL0     H86123   7.809   9.139   3.357 -0.4064  0.8032 -0.5805
  638MOL0     H86124   7.972   9.142   3.229  0.4124  0.4909 -0.0412
  638MOL0     H86125   7.859   9.228   3.122  1.8243 -0.6381 -0.3075
  638MOL0     H86126   7.910   8.934   3.098  0.0913  0.1139 -0.5223
  638MOL0     H86127   8.008   9.077   3.032 -0.4730 -0.2899 -3.3646
  638MOL0     H86128   7.721   9.047   2.745  1.0774  3.1921 -1.2591
  638MOL0     H86129   7.509   8.939   2.904 -3.1296 -0.5251  4.6692
  638MOL0     H86130   7.405   9.036   2.703  1.3212  1.9508 -2.9289
  639MOL0     O86131   5.202   0.230   5.768  0.4392  0.3399 -0.2925
  639MOL0     C86132   5.115   0.144   5.768  0.2085 -0.2741 -0.0968
  639MOL0     O86133   5.000   0.160   5.712 -0.2960 -0.5113 -0.0822
  639MOL0     C86134   4.957   0.286   5.668  0.6877  0.6572 -0.1921
  639MOL0     C86135   4.952   0.402   5.752 -0.5712 -0.3704 -0.1088
  639MOL0     C86136   4.893   0.524   5.710 -0.5095  0.2703 -0.3917
  639MOL0     C86137   4.831   0.526   5.586  0.5541 -0.3091 -1.2480
  639MOL0     O86138   4.774   0.639   5.524 -0.0738 -0.5216  0.5370
  639MOL0     C86139   4.773   0.765   5.586 -0.0409 -0.3561  0.2236
  639MOL0     C86140   4.666   0.850   5.513  0.0947  0.3014  0.4979
  639MOL0     C86141   4.518   0.799   5.559  0.0791 -0.3530 -0.1240
  639MOL0     C86142   4.409   0.886   5.500  0.3881  0.2510 -0.0502
  639MOL0     C86143   4.396   1.030   5.549  0.2359 -0.1634 -0.4533
  639MOL0     C86144   4.337   1.139   5.462 -0.3161 -0.4685  0.4368
  639MOL0     C86145   4.192   1.142   5.508  0.7570 -0.2520  0.9227
  639MOL0     C86146   4.123   1.272   5.464  0.1343  0.0718 -0.4745
  639MOL0     N86147   3.974   1.250   5.463 -0.5973  0.3279  0.0290
  639MOL0     C86148   3.903   1.167   5.377 -0.4937 -0.3502 -0.2344
  639MOL0     C86149   3.780   1.207   5.415  0.4422 -0.2171 -0.4235
  639MOL0     C86150   3.657   1.148   5.358  0.7292  0.2017 -0.6454
  639MOL0     C86151   3.625   1.203   5.223 -0.3884 -0.5928  0.3757
  639MOL0     C86152   3.597   1.352   5.234 -0.1567 -0.0482  0.6081
  639MOL0     C86153   3.544   1.429   5.115 -0.0130  0.0157  0.4630
  639MOL0     O86154   3.412   1.381   5.087  1.0003  0.3449  0.2848
  639MOL0     C86155   3.362   1.426   4.974 -0.2342 -0.5882  1.3853
  639MOL0     C86156   3.326   1.567   4.970  0.2708 -0.3544 -0.3616
  639MOL0     C86157   3.274   1.616   4.843  0.0291  0.2408 -0.6700
  639MOL0     C86158   3.286   1.764   4.818 -0.1606  0.9642 -0.2817
  639MOL0     C86159   3.230   1.527   4.741 -0.2380  0.7419  1.4680
  639MOL0     C86160   3.156   1.576   4.619  0.1319  0.5917 -0.1578
  639MOL0     O86161   3.175   1.506   4.505  0.0643 -0.4281  0.2696
  639MOL0     C86162   3.129   1.534   4.384  1.1226 -0.1280  0.0262
  639MOL0     C86163   3.220   1.552   4.282  0.0196 -0.3104  0.2802
  639MOL0     C86164   3.167   1.580   4.150 -0.1144  1.3259 -0.4538
  639MOL0     C86165   3.028   1.586   4.132  0.6219 -0.5642  0.6729
  639MOL0     O86166   2.985   1.582   4.001 -0.4722 -0.1547  0.6805
  639MOL0     C86167   2.845   1.552   3.962  0.0107  0.7191 -0.1338
  639MOL0     C86168   2.834   1.564   3.812 -0.4472 -0.4093  0.1553
  639MOL0     C86169   2.870   1.705   3.757 -1.2675 -0.7865  0.2868
  639MOL0     C86170   3.005   1.714   3.695 -0.1202 -0.8242  1.0029
  639MOL0     C86171   3.058   1.845   3.624 -0.2387 -0.3788  0.0958
  639MOL0     C86172   3.207   1.846   3.587  1.0548  1.2557 -0.5019
  639MOL0     C86173   3.308   1.859   3.699  0.8333 -0.2199 -0.0968
  639MOL0     C86174   3.450   1.838   3.650 -0.9119  0.9906 -0.2212
  639MOL0    Cl86175   3.477   1.673   3.605 -0.3140  0.0070 -0.1534
  639MOL0     C86176   2.930   1.574   4.232  0.1898 -0.1963  0.1938
  639MOL0     C86177   2.985   1.545   4.362 -0.1084  0.5841  0.4858
  639MOL0     O86178   3.081   1.674   4.630 -0.3559 -0.4698  0.3167
  639MOL0     C86179   3.268   1.389   4.749  0.3741  0.0151  0.3910
  639MOL0     C86180   3.334   1.345   4.861  0.4305 -0.5968 -0.4119
  639MOL0     N86181   3.778   1.324   5.492  0.1687  0.9295  0.2231
  639MOL0     N86182   3.905   1.343   5.532  0.1341 -0.3149  0.3722
  639MOL0     C86183   4.817   0.401   5.519 -0.3184 -0.3580  0.0066
  639MOL0     C86184   4.876   0.278   5.552  0.5356 -0.3071 -1.2860
  639MOL0     C86185   5.136   0.024   5.848  1.1574 -0.3180  0.1390
  639MOL0     C86186   5.241   0.017   5.934  0.2398  0.1177 -0.0356
  639MOL0     C86187   5.269  -0.097   6.007 -0.4861  0.3298  0.4261
  639MOL0     C86188   5.188  -0.206   5.996  0.1731  0.5120  0.5551
  639MOL0     O86189   5.218  -0.322   6.064  0.4573 -0.2781 -0.5305
  639MOL0     C86190   5.289  -0.422   5.986  0.1536  0.0103  0.0023
  639MOL0     C86191   5.269  -0.556   6.059  1.1478 -0.2724  0.9206
  639MOL0     C86192   5.382  -0.668   6.044 -0.0623 -0.2904 -0.3035
  639MOL0     C86193   5.334  -0.808   6.009  0.5715  1.1515 -0.4185
  639MOL0     C86194   5.202  -0.832   6.076 -0.1268 -0.9426  0.5518
  639MOL0     C86195   5.101  -0.854   6.145 -0.1430 -0.9989 -0.1643
  639MOL0     C86196   5.089  -0.207   5.899 -0.5581 -0.4387  0.8981
  639MOL0     C86197   5.055  -0.092   5.826 -1.2480  0.0743 -0.5469
  639MOL0     H86198   5.006   0.407   5.846 -0.6384  1.0633 -0.1240
  639MOL0     H86199   4.906   0.609   5.776  0.4104 -0.2686  0.1409
  639MOL0     H86200   4.743   0.753   5.690  0.0944 -0.0638  0.2960
  639MOL0     H86201   4.867   0.820   5.576 -0.2961  0.2636  1.1131
  639MOL0     H86202   4.674   0.957   5.532 -0.0866  1.0483 -2.9843
  639MOL0     H86203   4.677   0.846   5.405 -0.1989  1.7168  0.3919
  639MOL0     H86204   4.501   0.693   5.538  0.3841 -0.4066 -0.1023
  639MOL0     H86205   4.511   0.799   5.668 -2.3964  0.4668 -0.2171
  639MOL0     H86206   4.428   0.887   5.392 -1.7373 -0.3325 -0.4603
  639MOL0     H86207   4.313   0.835   5.510  1.0612 -1.0520 -0.0170
  639MOL0     H86208   4.376   1.028   5.657  3.4463  2.7292  0.3827
  639MOL0     H86209   4.500   1.061   5.553  0.1457  0.3325 -1.6288
  639MOL0     H86210   4.395   1.231   5.478  5.1286 -3.1429 -1.1823
  639MOL0     H86211   4.348   1.121   5.354 -0.8902  2.3558 -0.1662
  639MOL0     H86212   4.137   1.058   5.464 -1.7919  2.4128 -1.4038
  639MOL0     H86213   4.193   1.135   5.617 -0.5837 -0.4592  0.9336
  639MOL0     H86214   4.160   1.292   5.363 -0.5797  0.5188 -0.6495
  639MOL0     H86215   4.149   1.352   5.533 -0.4286 -0.2547  0.1252
  639MOL0     H86216   3.931   1.082   5.316  4.2219  0.5418  0.3186
  639MOL0     H86217   3.654   1.039   5.357 -3.8477  0.1570 -0.5860
  639MOL0     H86218   3.582   1.179   5.431 -0.6093 -2.2507 -0.8477
  639MOL0     H86219   3.536   1.148   5.189  1.0206 -2.1509 -0.9881
  639MOL0     H86220   3.707   1.189   5.151 -0.7055  2.4218 -0.7367
  639MOL0     H86221   3.688   1.398   5.273  1.7397 -2.9561 -0.0608
  639MOL0     H86222   3.522   1.355   5.315  0.9844  1.2726  1.6672
  639MOL0     H86223   3.603   1.400   5.027 -3.5888 -0.2569 -2.0586
  639MOL0     H86224   3.559   1.534   5.141  1.7797 -0.1364  0.1430
  639MOL0     H86225   3.364   1.637   5.044  0.4258 -0.3486 -0.4458
  639MOL0     H86226   3.200   1.816   4.863 -0.7661 -0.9163  0.8290
  639MOL0     H86227   3.371   1.798   4.878 -1.5285 -0.2888  2.5557
  639MOL0     H86228   3.301   1.793   4.714  2.0098  0.8947 -0.0180
  639MOL0     H86229   3.321   1.534   4.319 -0.3912 -1.8825  0.7220
  639MOL0     H86230   3.232   1.579   4.064 -0.1120  0.2915 -0.4504
  639MOL0     H86231   2.813   1.459   4.010  1.0329  0.7079  0.5557
  639MOL0     H86232   2.779   1.632   3.998  1.9068  1.2686  2.5008
  639MOL0     H86233   2.893   1.486   3.764  0.7573 -0.1708  1.2031
  639MOL0     H86234   2.728   1.553   3.785 -0.4223 -1.2180  0.3682
  639MOL0     H86235   2.865   1.783   3.834 -1.1818 -1.8046  1.3453
  639MOL0     H86236   2.791   1.722   3.683  0.4734 -0.2765 -1.5162
  639MOL0     H86237   3.070   1.683   3.777  0.8193 -0.2638  0.4953
  639MOL0     H86238   3.013   1.636   3.618  2.0622 -0.1994  0.5251
  639MOL0     H86239   3.039   1.927   3.694  1.2791 -1.1542  1.4602
  639MOL0     H86240   3.006   1.864   3.529  0.7604  1.4111 -0.1475
  639MOL0     H86241   3.227   1.747   3.545 -1.6129 -1.0455  3.0178
  639MOL0     H86242   3.214   1.905   3.495 -1.9310 -1.3941 -2.6666
  639MOL0     H86243   3.284   1.794   3.784  1.8476  2.0821  2.0795
  639MOL0     H86244   3.302   1.962   3.734  1.2919 -0.5869  1.1079
  639MOL0     H86245   3.522   1.855   3.731  2.3148  0.7544 -2.8522
  639MOL0     H86246   3.479   1.918   3.581 -0.0150  0.4978 -0.4288
  639MOL0     H86247   2.825   1.600   4.234  0.2614  0.0520  1.5964
  639MOL0     H86248   2.917   1.546   4.446 -0.0738 -0.5106  0.5365
  639MOL0     H86249   3.248   1.318   4.670 -0.5032  0.6300  0.0458
  639MOL0     H86250   3.357   1.239   4.867 -0.7408 -0.8062  1.1586
  639MOL0     H86251   4.778   0.402   5.418 -0.4401  3.9809 -0.1137
  639MOL0     H86252   4.853   0.190   5.493 -0.0336 -0.5108 -0.7674
  639MOL0     H86253   5.302   0.103   5.963 -2.6816  2.1911  0.4023
  639MOL0     H86254   5.353  -0.106   6.075 -0.9696 -0.3046  0.9440
  639MOL0     H86255   5.262  -0.426   5.881 -2.1176  0.3491  0.5326
  639MOL0     H86256   5.397  -0.403   5.995 -0.1091  1.3313  0.7491
  639MOL0     H86257   5.167  -0.592   6.041  0.5164  0.7088  2.3463
  639MOL0     H86258   5.262  -0.540   6.167  1.7775  1.4499  0.7329
  639MOL0     H86259   5.418  -0.682   6.146 -1.2653  2.7442  0.6322
  639MOL0     H86260   5.451  -0.622   5.974 -1.8053  2.4884 -0.3445
  639MOL0     H86261   5.401  -0.887   6.043 -0.8735  0.2876  0.5126
  639MOL0     H86262   5.326  -0.802   5.900  0.2485  0.5795 -0.4302
  639MOL0     H86263   5.011  -0.870   6.201 -0.2826  2.9912  1.0531
  639MOL0     H86264   5.035  -0.300   5.887 -0.8294 -0.5660  2.7901
  639MOL0     H86265   4.979  -0.071   5.752 -0.6506  7.9928  0.2384
  640MOL0     O86266   2.328   0.719   7.100  0.0802 -0.1116  0.5287
  640MOL0     C86267   2.359   0.700   6.979 -0.0946  0.5665 -0.4516
  640MOL0     O86268   2.347   0.581   6.917 -0.1574  0.1502  0.5136
  640MOL0     C86269   2.324   0.468   6.988  0.1003  0.1747 -0.7872
  640MOL0     C86270   2.216   0.386   6.962  1.0425  0.4419  0.6630
  640MOL0     C86271   2.186   0.268   7.035 -0.2121  0.2310 -0.3476
  640MOL0     C86272   2.282   0.219   7.132  0.3733 -0.8014  0.2628
  640MOL0     O86273   2.267   0.105   7.207 -0.1312 -0.1625  0.2314
  640MOL0     C86274   2.343   0.079   7.328 -0.6123 -0.0535 -0.0672
  640MOL0     C86275   2.269  -0.019   7.417  0.5070 -0.2660  1.0933
  640MOL0     C86276   2.129   0.032   7.460  0.1318  0.1973  0.3397
  640MOL0     C86277   2.071  -0.076   7.543  0.5294 -0.2905  1.0470
  640MOL0     C86278   1.918  -0.071   7.588 -0.5410  0.0092  0.6376
  640MOL0     C86279   1.887   0.032   7.695  0.1233 -0.6694 -0.0911
  640MOL0     C86280   1.745   0.029   7.752  0.0607 -0.1384 -0.5746
  640MOL0     C86281   1.718   0.140   7.839 -0.9883  0.7293 -0.1164
  640MOL0     N86282   1.664   0.254   7.763  0.7020  0.1405  0.2722
  640MOL0     C86283   1.533   0.299   7.758  0.4388 -0.1498 -0.0325
  640MOL0     C86284   1.550   0.417   7.690 -0.8837 -0.3549 -0.8808
  640MOL0     C86285   1.459   0.530   7.703 -0.2042 -0.1882  0.4618
  640MOL0     C86286   1.379   0.587   7.582 -0.8790  0.0960 -0.5340
  640MOL0     C86287   1.277   0.487   7.525 -0.0188  0.4692  0.1546
  640MOL0     C86288   1.223   0.543   7.394  0.7753  0.6746 -1.1823
  640MOL0     O86289   1.326   0.521   7.289 -0.1772 -0.8645  0.2435
  640MOL0     C86290   1.307   0.408   7.217  0.9925  0.4872 -0.6921
  640MOL0     C86291   1.366   0.403   7.090  0.1495 -0.7699 -0.3407
  640MOL0     C86292   1.363   0.292   7.004  0.0911 -0.5181  0.3049
  640MOL0     C86293   1.429   0.292   6.868 -0.8324 -0.4751 -0.1095
  640MOL0     C86294   1.284   0.181   7.050 -0.7661 -0.2149 -0.1707
  640MOL0     C86295   1.289   0.053   6.981 -0.5042 -0.0999 -0.9359
  640MOL0     O86296   1.389   0.035   6.896  0.4435  0.9299  0.5848
  640MOL0     C86297   1.414  -0.089   6.863  0.0216 -0.2261 -0.8860
  640MOL0     C86298   1.357  -0.156   6.758  0.4957 -0.8789  0.1696
  640MOL0     C86299   1.381  -0.289   6.727 -1.0891 -0.0587  0.0055
  640MOL0     C86300   1.461  -0.367   6.814  0.2948 -0.7015 -0.1906
  640MOL0     O86301   1.494  -0.502   6.799  0.4426 -0.3740  0.4624
  640MOL0     C86302   1.396  -0.575   6.716 -0.4922  0.3536  0.2459
  640MOL0     C86303   1.345  -0.684   6.797 -0.1872 -0.3526 -0.9610
  640MOL0     C86304   1.248  -0.629   6.913 -0.3217  0.0970 -0.3108
  640MOL0     C86305   1.115  -0.568   6.865 -0.1162  0.5134 -0.2448
  640MOL0     C86306   1.008  -0.549   6.980  0.3693 -0.0605  0.1771
  640MOL0     C86307   0.892  -0.471   6.920 -0.6128  1.3412 -0.5911
  640MOL0     C86308   0.810  -0.422   7.036 -0.7218 -0.1184  1.0412
  640MOL0     C86309   0.873  -0.316   7.119 -0.3105 -0.1598 -0.8864
  640MOL0    Cl86310   0.751  -0.279   7.251  0.1481 -0.5239  0.0837
  640MOL0     C86311   1.513  -0.303   6.925 -0.3577  0.2081 -0.2348
  640MOL0     C86312   1.487  -0.170   6.947  0.1102 -0.0485 -0.1916
  640MOL0     O86313   1.222  -0.036   7.019  0.4873 -1.0401 -0.0871
  640MOL0     C86314   1.220   0.180   7.177 -0.3309  0.1172 -0.1737
  640MOL0     C86315   1.235   0.290   7.264 -0.3014  0.1013  0.4330
  640MOL0     N86316   1.672   0.420   7.618  0.0011 -0.4506  0.2306
  640MOL0     N86317   1.743   0.323   7.671  0.1505 -0.2392 -0.5153
  640MOL0     C86318   2.397   0.299   7.142 -1.3062  0.4245 -1.1425
  640MOL0     C86319   2.419   0.428   7.086  0.6106  1.0926  0.7609
  640MOL0     C86320   2.398   0.820   6.897  0.7354  0.6879 -0.5898
  640MOL0     C86321   2.434   0.796   6.760 -0.6425 -0.2924  0.1726
  640MOL0     C86322   2.468   0.903   6.676  1.2332 -0.3445 -0.4659
  640MOL0     C86323   2.477   1.033   6.741  0.6660  0.0714  0.3395
  640MOL0     O86324   2.519   1.149   6.673 -0.6123  0.1629  0.1504
  640MOL0     C86325   2.595   1.119   6.552 -0.0008 -1.0132  0.0929
  640MOL0     C86326   2.681   1.240   6.521 -0.6646  0.0133  0.4451
  640MOL0     C86327   2.779   1.204   6.420 -0.0226  0.4151  0.0043
  640MOL0     C86328   2.845   1.335   6.373 -0.3811 -0.2992  0.3983
  640MOL0     C86329   2.922   1.310   6.254 -0.1177 -0.7296 -0.2838
  640MOL0     C86330   2.999   1.280   6.170  0.1120  0.9189 -0.6032
  640MOL0     C86331   2.437   1.054   6.867  0.1275  0.0724  0.1652
  640MOL0     C86332   2.391   0.948   6.946 -0.8918  1.1344 -0.1789
  640MOL0     H86333   2.149   0.414   6.882  0.1365 -5.2297 -1.0297
  640MOL0     H86334   2.094   0.215   7.014  0.8190 -2.7397  1.8553
  640MOL0     H86335   2.442   0.036   7.309 -0.0653  1.2389 -0.1889
  640MOL0     H86336   2.353   0.172   7.384 -1.3469  1.0083 -1.6107
  640MOL0     H86337   2.254  -0.110   7.357 -5.2985 -0.1230  1.7520
  640MOL0     H86338   2.324  -0.038   7.509 -0.3692  2.5644  2.3140
  640MOL0     H86339   2.141   0.119   7.526 -0.7806  1.5373 -1.1993
  640MOL0     H86340   2.074   0.071   7.375  2.5985  1.2792 -0.8620
  640MOL0     H86341   2.073  -0.166   7.480 -1.1304  2.8626 -4.1377
  640MOL0     H86342   2.130  -0.087   7.634 -0.7628 -1.7491  1.7604
  640MOL0     H86343   1.865  -0.038   7.499 -0.1647  2.0614  1.1322
  640MOL0     H86344   1.875  -0.168   7.616 -1.0487  0.0561  0.0226
  640MOL0     H86345   1.961   0.023   7.775 -1.3354 -0.9160  1.2777
  640MOL0     H86346   1.898   0.128   7.644  1.7098 -0.3248  0.8110
  640MOL0     H86347   1.669   0.038   7.675  0.6582  1.3524 -1.0218
  640MOL0     H86348   1.718  -0.064   7.804 -3.3830 -0.1296 -2.0854
  640MOL0     H86349   1.810   0.165   7.892 -2.3065 -0.2573  2.8346
  640MOL0     H86350   1.641   0.101   7.906  0.0378 -1.7170 -0.2738
  640MOL0     H86351   1.447   0.277   7.821  1.5997  0.4468  1.8594
  640MOL0     H86352   1.380   0.523   7.778 -0.7034  2.8140  0.3430
  640MOL0     H86353   1.518   0.619   7.725  0.3886 -0.2189 -0.8701
  640MOL0     H86354   1.453   0.610   7.504  0.8582  0.9172  1.2866
  640MOL0     H86355   1.337   0.681   7.617 -1.3261 -1.1141  2.5025
  640MOL0     H86356   1.188   0.475   7.588 -1.0937 -0.6032 -1.4614
  640MOL0     H86357   1.320   0.388   7.503 -3.3947 -0.7777 -1.6049
  640MOL0     H86358   1.189   0.647   7.398 -2.8274 -0.2765 -2.9205
  640MOL0     H86359   1.124   0.501   7.373  1.3153 -2.4483  1.6867
  640MOL0     H86360   1.383   0.502   7.048 -2.1961 -0.2624 -0.2396
  640MOL0     H86361   1.449   0.392   6.831 -0.9823 -1.3715 -2.8646
  640MOL0     H86362   1.525   0.239   6.861 -1.8564 -2.2011 -2.2680
  640MOL0     H86363   1.363   0.239   6.799 -0.6484 -0.8698  0.0089
  640MOL0     H86364   1.282  -0.102   6.701  1.0883 -1.7734 -1.5057
  640MOL0     H86365   1.335  -0.323   6.635  0.9537  2.5820 -2.1364
  640MOL0     H86366   1.314  -0.520   6.668 -2.1813 -0.9433  1.5426
  640MOL0     H86367   1.454  -0.619   6.634 -1.5408 -0.0111 -0.3103
  640MOL0     H86368   1.290  -0.757   6.737 -2.4238 -1.1726  1.8504
  640MOL0     H86369   1.432  -0.739   6.836  3.2982  3.5507 -2.4750
  640MOL0     H86370   1.289  -0.544   6.969 -2.3070  1.0394 -0.1916
  640MOL0     H86371   1.225  -0.717   6.973 -2.4716 -0.0148 -1.1979
  640MOL0     H86372   1.139  -0.473   6.817  0.2552  0.7401  0.3785
  640MOL0     H86373   1.072  -0.632   6.788 -0.6022  0.1070  0.3537
  640MOL0     H86374   1.052  -0.491   7.062  0.9684 -1.7654  1.1288
  640MOL0     H86375   0.976  -0.642   7.029 -2.4064  1.2993  1.1981
  640MOL0     H86376   0.931  -0.390   6.858  1.1244 -0.2080 -1.6228
  640MOL0     H86377   0.831  -0.534   6.853 -0.1775 -0.5279  0.6948
  640MOL0     H86378   0.775  -0.507   7.095  0.2736 -0.7148  0.8054
  640MOL0     H86379   0.717  -0.386   6.992 -0.0215  1.7269  0.9841
  640MOL0     H86380   0.870  -0.216   7.073 -2.3860  1.0865  1.6630
  640MOL0     H86381   0.968  -0.339   7.166  1.4345  2.1890 -2.9545
  640MOL0     H86382   1.562  -0.372   6.993  1.0925 -1.3085 -2.6565
  640MOL0     H86383   1.530  -0.132   7.039 -2.0018  0.1897  0.7670
  640MOL0     H86384   1.173   0.092   7.220 -0.1357  0.6329  1.1449
  640MOL0     H86385   1.191   0.304   7.362  0.9793 -0.8105  1.1727
  640MOL0     H86386   2.467   0.261   7.216 -3.5527 -0.7357  0.5082
  640MOL0     H86387   2.508   0.489   7.100  2.2343 -0.5438 -1.6128
  640MOL0     H86388   2.432   0.696   6.719  0.6987 -0.6605  0.9394
  640MOL0     H86389   2.487   0.891   6.570 -0.7080  1.9115 -1.1758
  640MOL0     H86390   2.661   1.035   6.573 -1.1407 -1.7659  0.7574
  640MOL0     H86391   2.520   1.091   6.477 -1.1349 -1.0916  1.2119
  640MOL0     H86392   2.720   1.278   6.616  1.9512 -2.9175  0.7076
  640MOL0     H86393   2.620   1.322   6.480  1.6537  0.1242 -3.2102
  640MOL0     H86394   2.737   1.143   6.340 -1.3586 -0.6960  1.4801
  640MOL0     H86395   2.859   1.143   6.462 -0.9503  0.5326  2.0604
  640MOL0     H86396   2.907   1.380   6.452 -0.3299  0.2404  0.0589
  640MOL0     H86397   2.769   1.409   6.345  0.8533  0.8623 -0.0142
  640MOL0     H86398   3.042   1.261   6.073 -1.4587 -2.3830 -0.7698
  640MOL0     H86399   2.455   1.157   6.897 -0.9825  0.2884  0.1286
  640MOL0     H86400   2.376   0.964   7.052  1.2022 -0.2127  0.3674
  641MOL0     O86401   4.158   8.581   3.697 -0.8387 -0.1778 -0.1369
  641MOL0     C86402   4.237   8.635   3.776  0.6648 -0.2196  0.0300
  641MOL0     O86403   4.278   8.763   3.766 -0.4187  0.0440  1.0290
  641MOL0     C86404   4.220   8.835   3.660  0.3129  0.1755  0.2617
  641MOL0     C86405   4.287   8.845   3.538 -0.0207  0.0302 -0.1534
  641MOL0     C86406   4.242   8.920   3.438  0.8686  1.0770  0.7277
  641MOL0     C86407   4.112   8.977   3.450 -0.0260 -0.0517  0.0351
  641MOL0     O86408   4.067   9.030   3.337  0.2904  0.8031 -0.5480
  641MOL0     C86409   3.934   9.081   3.315 -0.7564 -0.1070  0.3268
  641MOL0     C86410   3.939   9.232   3.307  0.9691  0.7578  0.3281
  641MOL0     C86411   4.041   9.288   3.211  0.1448 -0.3387  0.2386
  641MOL0     C86412   4.118   9.421   3.253 -0.3262 -0.5504 -0.4280
  641MOL0     C86413   4.028   9.547   3.255 -0.2319  0.0914 -0.0419
  641MOL0     C86414   4.015   9.604   3.113  0.0275 -0.3741  0.5573
  641MOL0     C86415   3.903   9.701   3.104  0.5535 -0.4797 -0.2671
  641MOL0     C86416   3.879   9.766   2.967  0.2238  0.0038  0.8089
  641MOL0     N86417   3.859   9.668   2.861 -0.5987 -0.5542 -0.3556
  641MOL0     C86418   3.951   9.620   2.771  0.7302  0.3250 -0.8121
  641MOL0     C86419   3.877   9.553   2.678 -0.1419 -0.1958 -0.5524
  641MOL0     C86420   3.941   9.508   2.547  0.4317  0.6415 -0.5884
  641MOL0     C86421   3.880   9.572   2.426  0.1756 -0.7618  1.3567
  641MOL0     C86422   3.944   9.527   2.294  0.1115 -0.8026  0.8856
  641MOL0     C86423   4.050   9.634   2.239 -0.2248  0.6747  0.6106
  641MOL0     O86424   4.149   9.654   2.336 -0.1067  0.1447 -0.7507
  641MOL0     C86425   4.250   9.745   2.317 -0.2788 -0.3841 -0.2390
  641MOL0     C86426   4.251   9.873   2.365 -0.0972 -0.7934 -0.2598
  641MOL0     C86427   4.354   9.967   2.344 -0.5000  0.8053  0.8016
  641MOL0     C86428   4.332  10.103   2.412 -0.2284 -0.4525  0.4740
  641MOL0     C86429   4.465   9.930   2.265  0.4772 -0.5988  0.5832
  641MOL0     C86430   4.576  10.024   2.225 -0.7340  0.5098 -0.3746
  641MOL0     O86431   4.659   9.980   2.125 -0.4590 -0.3458  0.2886
  641MOL0     C86432   4.769  10.060   2.099 -0.2309 -0.3053  1.0231
  641MOL0     C86433   4.847  10.108   2.200 -0.1037  0.4992 -0.5103
  641MOL0     C86434   4.935  10.212   2.188 -0.3000  0.4331  0.6999
  641MOL0     C86435   4.972  10.257   2.056 -0.2702 -0.4132 -0.7262
  641MOL0     O86436   5.050  10.365   2.050 -0.7098 -0.1442 -0.5250
  641MOL0     C86437   5.065  10.458   1.942 -0.3825  0.4710  0.5775
  641MOL0     C86438   5.082  10.598   2.007 -0.3636  0.2547  1.0651
  641MOL0     C86439   5.140  10.692   1.904  0.8711 -0.4422 -0.3006
  641MOL0     C86440   5.031  10.768   1.828 -0.8193  0.1264  0.1118
  641MOL0     C86441   5.089  10.837   1.721  0.0256 -0.5169  0.1930
  641MOL0     C86442   5.135  10.976   1.765  1.8897 -0.6589 -0.3863
  641MOL0     C86443   5.223  11.053   1.668  0.3615  0.3386 -0.1344
  641MOL0     C86444   5.367  11.029   1.676  0.4857  1.1228 -0.4011
  641MOL0    Cl86445   5.460  11.133   1.573  0.4918  0.0159 -0.1819
  641MOL0     C86446   4.908  10.202   1.947  0.4393 -0.3025 -0.2772
  641MOL0     C86447   4.797  10.110   1.968 -0.0164  0.3612 -0.2320
  641MOL0     O86448   4.577  10.133   2.279  0.2071 -0.4642 -0.1136
  641MOL0     C86449   4.467   9.801   2.213 -0.0000 -0.3357  0.5779
  641MOL0     C86450   4.368   9.708   2.250 -0.3487 -0.2139  0.6753
  641MOL0     N86451   3.745   9.558   2.713 -0.4882  0.3909 -0.0103
  641MOL0     N86452   3.740   9.623   2.823  1.0769 -1.1195 -0.2989
  641MOL0     C86453   4.037   8.966   3.567 -0.3152 -0.0283  0.0357
  641MOL0     C86454   4.093   8.895   3.675  0.9057  0.0905  0.0337
  641MOL0     C86455   4.289   8.539   3.878  0.6532  0.7482 -0.0901
  641MOL0     C86456   4.262   8.396   3.867 -0.0236 -0.8745 -0.0148
  641MOL0     C86457   4.338   8.307   3.950  0.3334  0.0015  0.2676
  641MOL0     C86458   4.400   8.356   4.064 -0.8647  0.4933 -0.2375
  641MOL0     O86459   4.458   8.266   4.150  0.3004  0.6165 -0.9203
  641MOL0     C86460   4.563   8.172   4.091  0.0965 -0.5976  0.1408
  641MOL0     C86461   4.683   8.250   4.046 -0.1826  0.2119 -0.3056
  641MOL0     C86462   4.759   8.186   3.922 -0.6530  0.8614  0.5147
  641MOL0     C86463   4.833   8.059   3.972 -0.5195  0.5215  0.0568
  641MOL0     C86464   4.896   8.075   4.099 -0.2500  0.5873  0.1323
  641MOL0     C86465   4.947   8.068   4.202  0.8004 -0.7922  0.1748
  641MOL0     C86466   4.406   8.494   4.091  0.7214 -0.6416 -0.8213
  641MOL0     C86467   4.355   8.587   3.997  0.4455  0.1762 -0.2305
  641MOL0     H86468   4.378   8.786   3.532 -0.7575 -1.2423  0.8130
  641MOL0     H86469   4.294   8.930   3.344  0.5194  0.0082  0.4006
  641MOL0     H86470   3.911   9.038   3.217 -2.1668  1.2133  0.0452
  641MOL0     H86471   3.859   9.027   3.375 -1.0002 -2.3007 -1.7630
  641MOL0     H86472   3.845   9.268   3.265  3.2384  4.1641 -2.4229
  641MOL0     H86473   3.938   9.275   3.408 -0.4695  0.2567  0.5493
  641MOL0     H86474   4.122   9.215   3.208 -2.3870 -3.3981  0.6360
  641MOL0     H86475   3.994   9.283   3.112 -2.1081 -3.4552  1.3246
  641MOL0     H86476   4.166   9.406   3.350  3.4972  0.5218 -1.9630
  641MOL0     H86477   4.202   9.444   3.187 -0.0508  1.8936  0.6657
  641MOL0     H86478   3.927   9.521   3.287 -0.1905  0.1762  0.1618
  641MOL0     H86479   4.063   9.624   3.324 -0.0491  0.5959 -0.6803
  641MOL0     H86480   4.112   9.642   3.078 -0.6278  0.5733 -0.3185
  641MOL0     H86481   3.995   9.523   3.042 -0.4603  1.4026 -1.4700
  641MOL0     H86482   3.815   9.640   3.127  0.3299 -0.1538 -0.2439
  641MOL0     H86483   3.918   9.782   3.175 -2.9392 -1.5382  1.9381
  641MOL0     H86484   3.962   9.826   2.929 -0.7358  0.6075 -0.4087
  641MOL0     H86485   3.783   9.818   2.968 -0.4946 -0.7990 -3.5577
  641MOL0     H86486   4.056   9.644   2.762  1.1546 -1.1412 -0.0683
  641MOL0     H86487   4.045   9.541   2.545  0.7833 -0.1554  1.7395
  641MOL0     H86488   3.936   9.399   2.537 -0.3555  0.4831  1.1616
  641MOL0     H86489   3.886   9.681   2.424  0.6060 -0.7770 -0.7961
  641MOL0     H86490   3.774   9.546   2.424 -0.8354  2.7714  2.4358
  641MOL0     H86491   3.866   9.522   2.218  2.3247 -1.1257 -1.5029
  641MOL0     H86492   3.990   9.428   2.286  1.4002 -0.0763 -2.3969
  641MOL0     H86493   3.992   9.726   2.225 -1.0134  1.1679  5.3739
  641MOL0     H86494   4.099   9.602   2.147  0.7401 -1.3365  1.7686
  641MOL0     H86495   4.159   9.896   2.418  1.0741  1.0817  1.0875
  641MOL0     H86496   4.250  10.096   2.484 -4.5267  2.1266 -3.6289
  641MOL0     H86497   4.420  10.134   2.470 -0.2070 -0.2557  0.3391
  641MOL0     H86498   4.306  10.187   2.346  1.4971  2.0412  2.7197
  641MOL0     H86499   4.819  10.075   2.299  0.1711  0.9954 -0.2599
  641MOL0     H86500   4.980  10.263   2.272  0.0327  1.7000 -0.2018
  641MOL0     H86501   5.150  10.433   1.877 -0.8457  0.7037 -0.1349
  641MOL0     H86502   4.982  10.447   1.871  1.5751  2.7357 -2.3219
  641MOL0     H86503   4.997  10.631   2.067 -3.7142 -5.5480  0.2690
  641MOL0     H86504   5.159  10.585   2.084  0.8539 -0.6879 -0.2708
  641MOL0     H86505   5.199  10.639   1.829  3.1662 -0.5620  1.4937
  641MOL0     H86506   5.201  10.760   1.964 -1.1282  3.9610 -2.7382
  641MOL0     H86507   4.957  10.701   1.784  1.9254 -2.1770 -1.3181
  641MOL0     H86508   4.971  10.832   1.894 -2.2593 -1.4132  0.3523
  641MOL0     H86509   5.031  10.842   1.628  0.5446 -0.3857 -0.1270
  641MOL0     H86510   5.182  10.790   1.688 -0.9503 -0.4157 -3.1409
  641MOL0     H86511   5.040  11.030   1.774  2.3519  0.2011 -0.5493
  641MOL0     H86512   5.178  10.968   1.866 -1.3038 -0.8261  1.0834
  641MOL0     H86513   5.216  11.158   1.695  0.3412  0.2288  0.2889
  641MOL0     H86514   5.181  11.038   1.568 -1.6639 -0.9172  0.8391
  641MOL0     H86515   5.379  10.928   1.635  3.0792  2.3646 -3.0349
  641MOL0     H86516   5.405  11.019   1.778 -0.0818 -0.9745 -0.3503
  641MOL0     H86517   4.924  10.239   1.847 -1.5505 -2.1567 -1.3622
  641MOL0     H86518   4.735  10.083   1.883  1.9307 -2.2862 -0.9481
  641MOL0     H86519   4.545   9.761   2.150 -2.3438 -1.5521 -1.7477
  641MOL0     H86520   4.372   9.603   2.224 -1.3423 -0.1135  0.0798
  641MOL0     H86521   3.936   9.005   3.571 -1.4931 -2.5341 -2.1227
  641MOL0     H86522   4.043   8.877   3.769  0.2470  2.2248  0.1357
  641MOL0     H86523   4.206   8.361   3.781  1.7556 -0.5201 -1.3565
  641MOL0     H86524   4.319   8.201   3.938  0.5840 -0.0248  0.0918
  641MOL0     H86525   4.597   8.106   4.171 -0.7723  2.1293  2.9678
  641MOL0     H86526   4.522   8.127   4.000  3.1560 -2.6250 -0.3933
  641MOL0     H86527   4.742   8.274   4.136  1.4856  0.3289 -1.3837
  641MOL0     H86528   4.654   8.350   4.013 -0.5378  0.6721  1.2989
  641MOL0     H86529   4.830   8.263   3.889  1.4238 -0.0543  2.5547
  641MOL0     H86530   4.682   8.161   3.849 -2.2666 -0.6964  2.6395
  641MOL0     H86531   4.910   8.031   3.899  2.0603  3.0170  1.6125
  641MOL0     H86532   4.757   7.980   3.969  1.0942 -1.1069 -2.9318
  641MOL0     H86533   4.971   8.085   4.305 -1.9687  1.5151  0.5543
  641MOL0     H86534   4.465   8.534   4.172  0.4945  2.1252 -1.9230
  641MOL0     H86535   4.366   8.695   4.007  4.0903  0.0672 -1.6722
  642MOL0     O86536   1.489   6.391  10.309 -0.6519 -0.5140 -0.0391
  642MOL0     C86537   1.425   6.315  10.384  0.1552 -0.7291 -0.2607
  642MOL0     O86538   1.460   6.261  10.499 -0.9675  0.5798 -0.3650
  642MOL0     C86539   1.590   6.284  10.531 -0.4562  0.5692  0.3281
  642MOL0     C86540   1.622   6.386  10.623  0.7832  0.6732 -0.2401
  642MOL0     C86541   1.753   6.407  10.669  0.1519 -0.7081  0.6056
  642MOL0     C86542   1.858   6.332  10.617 -0.5570  0.2859 -0.1538
  642MOL0     O86543   1.988   6.352  10.653  0.1950  0.0850  0.1674
  642MOL0     C86544   2.022   6.384  10.786 -0.5888 -0.5981 -0.2229
  642MOL0     C86545   2.177   6.396  10.812 -0.0981  1.2293 -0.7424
  642MOL0     C86546   2.249   6.515  10.743  0.3092 -0.4934 -0.1020
  642MOL0     C86547   2.398   6.506  10.778 -0.7994 -0.4219  0.3495
  642MOL0     C86548   2.487   6.627  10.719  0.8483 -0.2763 -0.0440
  642MOL0     C86549   2.419   6.760  10.751  0.1704 -0.3571 -0.8644
  642MOL0     C86550   2.531   6.865  10.747 -0.8373  0.8391 -0.3707
  642MOL0     C86551   2.588   6.870  10.605 -0.4970 -0.6790 -0.2128
  642MOL0     N86552   2.649   6.998  10.572 -0.5518 -0.1593 -0.6595
  642MOL0     C86553   2.787   7.012  10.539  0.1654  0.6476  0.7873
  642MOL0     C86554   2.813   7.147  10.563  0.1746  0.1874  0.1158
  642MOL0     C86555   2.949   7.209  10.535 -0.1443  0.6175  0.0156
  642MOL0     C86556   2.951   7.353  10.470  0.4735 -0.5100  0.4448
  642MOL0     C86557   2.875   7.351  10.340  0.8571  0.0854 -0.0903
  642MOL0     C86558   2.910   7.475  10.255  0.8661  0.0002  0.3499
  642MOL0     O86559   2.946   7.439  10.123  0.2499  0.2898  0.1125
  642MOL0     C86560   2.985   7.545  10.042  0.2490 -0.7617 -0.8649
  642MOL0     C86561   2.980   7.682  10.072 -0.1421  0.6963 -0.9865
  642MOL0     C86562   3.038   7.773   9.979 -0.1192  0.3803 -0.6960
  642MOL0     C86563   3.005   7.917  10.020  0.3446 -0.0608  0.0623
  642MOL0     C86564   3.101   7.736   9.859 -0.2928 -0.5115  0.2342
  642MOL0     C86565   3.159   7.823   9.756  0.5474  0.6531  0.1010
  642MOL0     O86566   3.199   7.757   9.645  0.9493  0.0949  0.6654
  642MOL0     C86567   3.251   7.803   9.525  0.0328  0.1405  0.4112
  642MOL0     C86568   3.289   7.698   9.431 -0.6781  0.4152 -0.9448
  642MOL0     C86569   3.332   7.734   9.302 -0.4465 -0.5532  0.6902
  642MOL0     C86570   3.341   7.870   9.266 -1.5052  0.2276 -0.1898
  642MOL0     O86571   3.398   7.909   9.149  0.3362 -0.2848 -0.4280
  642MOL0     C86572   3.338   7.862   9.022 -0.5384  0.6199  0.1151
  642MOL0     C86573   3.377   7.931   8.888  1.0193  0.4046 -0.8697
  642MOL0     C86574   3.391   8.091   8.906 -0.9478  0.2981 -1.1199
  642MOL0     C86575   3.444   8.162   8.792 -0.2800 -1.3722 -0.5521
  642MOL0     C86576   3.464   8.308   8.821  0.2279  0.8914  0.2931
  642MOL0     C86577   3.513   8.376   8.691  0.1344 -0.8311  0.4121
  642MOL0     C86578   3.490   8.528   8.707 -0.1434  0.0464 -0.2364
  642MOL0     C86579   3.497   8.602   8.583  0.3602 -0.6021  0.5551
  642MOL0    Cl86580   3.406   8.529   8.459  0.1028  0.3126 -0.1721
  642MOL0     C86581   3.314   7.966   9.360 -0.8477  0.9054  0.2070
  642MOL0     C86582   3.263   7.937   9.488  0.0964  0.5632 -0.5020
  642MOL0     O86583   3.173   7.944   9.778 -0.4062  0.3324 -0.2662
  642MOL0     C86584   3.107   7.597   9.835  0.3219 -0.4300  0.0479
  642MOL0     C86585   3.049   7.505   9.926  0.5759 -0.4248  0.0260
  642MOL0     N86586   2.707   7.205  10.612 -0.6169  0.1703 -0.3227
  642MOL0     N86587   2.613   7.122  10.615  0.1417  0.2334 -0.5462
  642MOL0     C86588   1.828   6.229  10.530  0.4844 -0.5405 -1.1646
  642MOL0     C86589   1.696   6.212  10.495  0.6209 -0.0758 -0.4429
  642MOL0     C86590   1.274   6.281  10.350 -0.1161  0.1511  0.2806
  642MOL0     C86591   1.219   6.343  10.240  0.0575  0.5127  0.4404
  642MOL0     C86592   1.089   6.308  10.198 -0.8440 -0.4332 -0.6395
  642MOL0     C86593   1.014   6.215  10.281 -0.8095  0.1932  0.2659
  642MOL0     O86594   0.879   6.180  10.261 -0.3379  0.7445 -0.5275
  642MOL0     C86595   0.831   6.227  10.132  0.9951 -0.3593 -1.4644
  642MOL0     C86596   0.880   6.140  10.015 -0.3339  1.0066 -0.1267
  642MOL0     C86597   0.758   6.112   9.931 -0.9302  0.6210 -0.0999
  642MOL0     C86598   0.782   5.992   9.827 -0.4719 -0.7672 -0.2169
  642MOL0     C86599   0.905   6.015   9.744  0.9630 -0.9522 -0.4330
  642MOL0     C86600   1.010   6.041   9.679  0.2504  0.1349 -0.4181
  642MOL0     C86601   1.077   6.148  10.382  0.9674  0.0212 -0.3638
  642MOL0     C86602   1.206   6.175  10.417 -0.7518 -0.0646 -0.2326
  642MOL0     H86603   1.541   6.450  10.658 -1.7907 -3.1798  1.4974
  642MOL0     H86604   1.766   6.477  10.751 -2.8110 -2.9165  3.2192
  642MOL0     H86605   1.976   6.476  10.825  1.7760  1.6141 -2.2786
  642MOL0     H86606   1.981   6.300  10.842  0.3163 -3.4203 -3.4752
  642MOL0     H86607   2.193   6.402  10.920 -4.2565  3.0324 -0.0348
  642MOL0     H86608   2.213   6.303  10.767 -1.0595 -0.6708  2.1510
  642MOL0     H86609   2.233   6.516  10.634 -2.5007  2.0448  0.1957
  642MOL0     H86610   2.197   6.607  10.771  0.9718  0.1924 -1.0486
  642MOL0     H86611   2.420   6.501  10.885  0.9696  1.1311  0.1106
  642MOL0     H86612   2.431   6.409  10.739 -0.4748  0.1045 -0.7185
  642MOL0     H86613   2.591   6.615  10.751  0.3966 -2.1399  0.8387
  642MOL0     H86614   2.489   6.628  10.610  0.9762 -0.4529 -0.0431
  642MOL0     H86615   2.338   6.775  10.679 -1.4259 -1.0016  0.7006
  642MOL0     H86616   2.368   6.753  10.848 -2.3918 -1.7194 -2.1992
  642MOL0     H86617   2.490   6.960  10.782  1.6210  1.3874  1.2717
  642MOL0     H86618   2.619   6.840  10.806 -0.8820  0.6982 -0.3632
  642MOL0     H86619   2.503   6.865  10.537 -0.9635  2.2811 -0.0018
  642MOL0     H86620   2.664   6.794  10.588  0.4376  0.3717 -0.8765
  642MOL0     H86621   2.863   6.944  10.502  1.5358  2.7734 -0.5075
  642MOL0     H86622   2.986   7.215  10.638 -2.0412 -4.7192  1.3351
  642MOL0     H86623   3.007   7.142  10.470 -0.7568 -0.2068  0.2931
  642MOL0     H86624   3.055   7.380  10.455  0.4670 -0.1239  1.0530
  642MOL0     H86625   2.909   7.423  10.543 -0.3514 -1.5720  1.0364
  642MOL0     H86626   2.771   7.366  10.374  1.6554  2.3184  1.6950
  642MOL0     H86627   2.889   7.251  10.298  2.0787  0.2692 -0.1485
  642MOL0     H86628   2.980   7.541  10.308 -1.4804  1.3314  1.9987
  642MOL0     H86629   2.822   7.534  10.230  1.6423  0.6482 -0.9400
  642MOL0     H86630   2.902   7.703  10.144 -1.9263 -0.0649 -2.5833
  642MOL0     H86631   2.912   7.942   9.966 -0.0399  1.7661  1.4924
  642MOL0     H86632   2.985   7.917  10.127  0.3133 -1.8715  0.0896
  642MOL0     H86633   3.080   7.993   9.997  1.9446 -1.3202  0.8912
  642MOL0     H86634   3.279   7.596   9.465 -1.0508  1.1803  1.4284
  642MOL0     H86635   3.374   7.650   9.248 -1.4894 -2.1227  2.2293
  642MOL0     H86636   3.376   7.760   9.017  4.6377  2.1208  2.1377
  642MOL0     H86637   3.231   7.869   9.043 -0.3005  2.1407  1.0185
  642MOL0     H86638   3.469   7.885   8.852  0.5389  1.6403 -3.9968
  642MOL0     H86639   3.300   7.913   8.812  1.0086  2.6989 -1.4536
  642MOL0     H86640   3.464   8.101   8.987  1.5516 -1.1319 -3.0423
  642MOL0     H86641   3.288   8.119   8.928 -1.3396 -2.3200  0.8595
  642MOL0     H86642   3.544   8.126   8.765 -0.4164 -0.5438 -2.2968
  642MOL0     H86643   3.379   8.153   8.705  0.8417 -0.2287 -1.5654
  642MOL0     H86644   3.542   8.335   8.893  0.1951  0.5647  0.4502
  642MOL0     H86645   3.371   8.362   8.841 -0.7600  0.2907 -2.3306
  642MOL0     H86646   3.621   8.360   8.682  0.6064  1.9946  0.0975
  642MOL0     H86647   3.456   8.346   8.603  2.4986  2.5879 -2.5715
  642MOL0     H86648   3.572   8.554   8.774 -2.1058 -1.6039  3.0522
  642MOL0     H86649   3.402   8.547   8.770  0.9500 -2.9101  2.4548
  642MOL0     H86650   3.602   8.618   8.556 -0.8421  4.3678 -2.5855
  642MOL0     H86651   3.453   8.701   8.598 -2.9828 -1.7463 -0.7755
  642MOL0     H86652   3.355   8.063   9.335  1.8050 -0.5925 -1.7494
  642MOL0     H86653   3.256   8.009   9.569  0.1578 -2.9594  2.9591
  642MOL0     H86654   3.156   7.554   9.748 -0.0440  0.0412 -0.3932
  642MOL0     H86655   3.063   7.398   9.916 -2.3022 -0.7030 -2.0750
  642MOL0     H86656   1.905   6.164  10.489  1.4999 -0.3670  0.3887
  642MOL0     H86657   1.668   6.126  10.435 -0.6665 -0.2446  0.3662
  642MOL0     H86658   1.286   6.409  10.186 -1.7130  0.1535 -2.3788
  642MOL0     H86659   1.037   6.360  10.118 -3.2642 -2.8297 -0.7824
  642MOL0     H86660   0.724   6.219  10.155  1.1336 -0.2572 -0.7765
  642MOL0     H86661   0.845   6.334  10.111  1.9826  0.3255  2.0707
  642MOL0     H86662   0.913   6.044  10.056 -1.7230  0.5814  0.0588
  642MOL0     H86663   0.962   6.172   9.951 -1.3355 -0.7060 -2.4232
  642MOL0     H86664   0.752   6.205   9.875 -2.5180 -0.7872 -2.4374
  642MOL0     H86665   0.665   6.091   9.984 -1.0463 -0.1300 -0.5886
  642MOL0     H86666   0.692   5.990   9.764 -0.3152  0.7093 -0.5348
  642MOL0     H86667   0.788   5.895   9.876 -1.1946 -0.1045  1.2744
  642MOL0     H86668   1.103   6.059   9.629  1.6431  0.8462  2.2115
  642MOL0     H86669   1.023   6.084  10.450  2.7238 -1.1786 -0.0487
  642MOL0     H86670   1.271   6.119  10.482  2.4326  1.1563 -2.1154
  643MOL0     O86671   4.780   7.530   3.635  0.4198  0.1614  0.4177
  643MOL0     C86672   4.791   7.543   3.758 -0.6940 -0.3086 -0.3958
  643MOL0     O86673   4.721   7.477   3.858 -0.4916 -0.5482  0.2207
  643MOL0     C86674   4.620   7.383   3.863  0.1480 -0.4049 -0.5919
  643MOL0     C86675   4.590   7.313   3.984 -1.1237 -0.0733  0.4254
  643MOL0     C86676   4.485   7.220   3.999 -0.0496  0.4648 -0.1272
  643MOL0     C86677   4.405   7.196   3.883 -0.0429  0.3124 -0.5538
  643MOL0     O86678   4.287   7.119   3.871  0.0029  0.8873  0.8637
  643MOL0     C86679   4.254   7.024   3.982 -0.3004 -1.1359  0.4866
  643MOL0     C86680   4.108   6.995   3.960 -0.4278 -0.8775  0.5143
  643MOL0     C86681   4.045   6.889   4.063 -0.1934  0.1308  0.4061
  643MOL0     C86682   4.034   6.952   4.201 -0.8322  0.4331  0.0072
  643MOL0     C86683   3.967   6.844   4.303 -0.4226  0.3863  0.1463
  643MOL0     C86684   3.813   6.839   4.289  0.0727  0.0875  0.3980
  643MOL0     C86685   3.759   6.728   4.384  0.0042 -0.3009 -0.1104
  643MOL0     C86686   3.607   6.727   4.385  0.6165  0.7017 -0.1793
  643MOL0     N86687   3.547   6.674   4.267  0.0397 -0.2386  0.3066
  643MOL0     C86688   3.412   6.690   4.249  0.4308 -1.1784 -0.0348
  643MOL0     C86689   3.378   6.622   4.136  1.1620 -0.1615 -0.1230
  643MOL0     C86690   3.233   6.612   4.073 -0.0771  1.6726 -0.3556
  643MOL0     C86691   3.233   6.508   3.954  1.2400  0.2882 -0.2170
  643MOL0     C86692   3.239   6.584   3.813 -0.7572 -0.8183  0.5841
  643MOL0     C86693   3.351   6.687   3.795 -0.5632  0.7659 -0.3212
  643MOL0     O86694   3.292   6.815   3.790 -0.6917 -0.3217 -0.2108
  643MOL0     C86695   3.369   6.921   3.841 -1.2272  0.4915  0.4976
  643MOL0     C86696   3.331   6.978   3.961 -0.2250 -0.1028  0.2354
  643MOL0     C86697   3.415   7.079   4.023  1.4338 -0.5442 -0.5976
  643MOL0     C86698   3.361   7.156   4.144 -0.3177  0.7346 -0.4832
  643MOL0     C86699   3.522   7.136   3.946 -0.0912 -0.6472  0.5957
  643MOL0     C86700   3.611   7.243   3.987  0.3272  0.2513  0.1005
  643MOL0     O86701   3.643   7.342   3.898  0.0507 -0.7000 -0.1244
  643MOL0     C86702   3.755   7.421   3.918 -0.8993 -0.3931  0.4445
  643MOL0     C86703   3.780   7.553   3.876  0.0461 -0.4039 -0.3698
  643MOL0     C86704   3.907   7.610   3.894  0.0622 -0.6267 -0.6459
  643MOL0     C86705   4.016   7.546   3.948 -0.1489  0.2215  0.3237
  643MOL0     O86706   4.135   7.611   3.944 -0.8524  0.9565  0.2234
  643MOL0     C86707   4.237   7.554   4.031 -0.1238  0.2304 -1.2272
  643MOL0     C86708   4.369   7.631   4.019 -0.5148 -0.7345  0.3309
  643MOL0     C86709   4.369   7.750   4.131  0.1626 -0.1131  0.4476
  643MOL0     C86710   4.502   7.813   4.187  0.5949  0.4770 -0.0255
  643MOL0     C86711   4.593   7.712   4.262  0.0167 -0.4760  0.9169
  643MOL0     C86712   4.733   7.778   4.286  0.7472  0.3699 -0.0631
  643MOL0     C86713   4.837   7.682   4.353 -0.4776 -0.1711  0.5067
  643MOL0     C86714   4.848   7.695   4.511 -0.1654  0.8666  0.2977
  643MOL0    Cl86715   4.968   7.825   4.551 -0.0120  0.3549  0.0379
  643MOL0     C86716   3.989   7.423   4.007 -0.2543  0.9032  0.2232
  643MOL0     C86717   3.867   7.358   3.991 -0.3039 -0.6881  0.0260
  643MOL0     O86718   3.637   7.241   4.105 -0.4537  0.2649 -0.0783
  643MOL0     C86719   3.542   7.084   3.813 -0.1775 -0.1572 -0.1346
  643MOL0     C86720   3.474   6.967   3.770 -0.7128 -1.0339 -0.0802
  643MOL0     N86721   3.497   6.580   4.077 -0.1371  0.4545 -0.2202
  643MOL0     N86722   3.597   6.596   4.167  0.2001  0.2413  0.1539
  643MOL0     C86723   4.438   7.252   3.762 -0.2506 -0.5159 -0.0212
  643MOL0     C86724   4.536   7.354   3.752  0.3383  0.5129 -0.4596
  643MOL0     C86725   4.904   7.620   3.817  0.4179  0.0338 -0.0748
  643MOL0     C86726   4.955   7.728   3.748 -0.9020  0.0749  0.6795
  643MOL0     C86727   5.043   7.815   3.811  0.2145  0.5011  0.1843
  643MOL0     C86728   5.108   7.795   3.938 -0.0808  0.6872  0.5520
  643MOL0     O86729   5.180   7.878   4.020 -0.1523  1.0654  0.8282
  643MOL0     C86730   5.237   7.988   3.970 -0.1693 -0.7402  0.5194
  643MOL0     C86731   5.321   8.037   4.094 -0.2254  0.2081  0.6008
  643MOL0     C86732   5.432   8.137   4.066 -0.7038 -0.8828 -0.0249
  643MOL0     C86733   5.530   8.150   4.183 -0.2550 -0.5278  0.6755
  643MOL0     C86734   5.647   8.233   4.145  0.5202  0.7864  0.9220
  643MOL0     C86735   5.742   8.293   4.108 -0.6491 -0.3487  1.1001
  643MOL0     C86736   5.083   7.665   3.999  0.6276 -0.9999 -0.4073
  643MOL0     C86737   4.974   7.590   3.943 -0.3729 -0.3316  1.2383
  643MOL0     H86738   4.662   7.329   4.063  0.8305 -0.3496 -1.2147
  643MOL0     H86739   4.466   7.169   4.093 -1.5162  0.1790 -0.5518
  643MOL0     H86740   4.320   6.937   3.981  2.4742  0.8016  1.8179
  643MOL0     H86741   4.263   7.072   4.080 -0.5248  3.2126 -1.3813
  643MOL0     H86742   4.052   7.089   3.954 -1.1017 -1.3703 -2.0933
  643MOL0     H86743   4.091   6.948   3.863 -2.2008 -0.2655  0.4890
  643MOL0     H86744   3.948   6.862   4.021  0.4565 -1.7550  0.0336
  643MOL0     H86745   4.103   6.797   4.051  0.7385  0.9226 -1.8422
  643MOL0     H86746   4.134   6.972   4.240 -0.1829 -1.1047 -0.7704
  643MOL0     H86747   3.965   7.037   4.201 -0.5354  0.6912  1.1232
  643MOL0     H86748   4.011   6.750   4.268  1.1144  0.6184  1.3602
  643MOL0     H86749   3.992   6.865   4.407 -0.6658 -0.6905  0.4363
  643MOL0     H86750   3.769   6.939   4.292  0.4972  0.3910 -1.7703
  643MOL0     H86751   3.780   6.808   4.189 -2.4543  0.3365  1.0844
  643MOL0     H86752   3.798   6.631   4.352 -0.5183  0.7570 -4.6243
  643MOL0     H86753   3.771   6.758   4.489 -1.0882 -1.4853  0.3784
  643MOL0     H86754   3.556   6.821   4.406  0.0231 -0.0146  1.8321
  643MOL0     H86755   3.586   6.660   4.469  1.2348 -2.5788 -2.4516
  643MOL0     H86756   3.349   6.736   4.324  2.6344 -0.9478  1.7698
  643MOL0     H86757   3.159   6.581   4.148  1.8905  1.5370  1.6301
  643MOL0     H86758   3.205   6.706   4.024  0.6700  1.3085 -1.5221
  643MOL0     H86759   3.140   6.451   3.960  1.7163 -0.4031  1.6451
  643MOL0     H86760   3.321   6.444   3.967  2.5582  2.0319 -0.1404
  643MOL0     H86761   3.142   6.631   3.794 -0.4321 -0.1060  0.6466
  643MOL0     H86762   3.243   6.515   3.728 -2.3333  0.7221 -0.8368
  643MOL0     H86763   3.401   6.670   3.700  0.3202 -2.4440  0.5631
  643MOL0     H86764   3.428   6.679   3.872 -0.6614  0.7168 -0.2272
  643MOL0     H86765   3.249   6.938   4.019  0.3017  0.9913  1.7858
  643MOL0     H86766   3.394   7.260   4.154  0.2159  0.7553 -2.0767
  643MOL0     H86767   3.252   7.158   4.135 -0.3097 -2.2184 -3.0484
  643MOL0     H86768   3.382   7.095   4.232  2.0739 -1.1849 -2.2203
  643MOL0     H86769   3.692   7.605   3.838  2.0318  3.4930 -0.1234
  643MOL0     H86770   3.918   7.713   3.863  2.5018 -0.6078  0.0696
  643MOL0     H86771   4.200   7.549   4.134  4.3080 -0.2296  0.5894
  643MOL0     H86772   4.256   7.448   4.010  1.4505 -0.1331  1.5429
  643MOL0     H86773   4.449   7.559   4.041 -1.2671 -0.7432  3.4903
  643MOL0     H86774   4.394   7.665   3.918  1.7731 -0.1200  1.0389
  643MOL0     H86775   4.337   7.705   4.226 -1.1942  1.8915  1.0048
  643MOL0     H86776   4.297   7.829   4.107  2.0389  1.6928  0.5276
  643MOL0     H86777   4.542   7.857   4.095 -0.6613  0.1210 -0.7675
  643MOL0     H86778   4.482   7.889   4.263  0.7592  1.3965 -0.8755
  643MOL0     H86779   4.607   7.617   4.210 -5.6063 -0.9818 -0.3312
  643MOL0     H86780   4.540   7.693   4.356  0.7962  1.5286  1.8148
  643MOL0     H86781   4.773   7.819   4.193 -2.5248  2.8777 -0.5476
  643MOL0     H86782   4.738   7.859   4.360  1.7399 -1.0853  1.5465
  643MOL0     H86783   4.941   7.696   4.322 -0.5514 -0.0895  0.2996
  643MOL0     H86784   4.808   7.579   4.330  0.5363 -1.0321  2.7244
  643MOL0     H86785   4.887   7.601   4.551  0.1153  0.8875  0.0766
  643MOL0     H86786   4.750   7.712   4.556  0.5497  0.7999  1.9317
  643MOL0     H86787   4.070   7.360   4.042 -0.8568 -1.2370 -2.0311
  643MOL0     H86788   3.870   7.252   4.014  1.6262 -0.5999  0.3312
  643MOL0     H86789   3.608   7.128   3.738 -0.4780 -0.6552 -0.7005
  643MOL0     H86790   3.486   6.914   3.676  1.8012  0.2944 -0.5868
  643MOL0     H86791   4.388   7.229   3.668  1.3522 -0.5042 -0.8973
  643MOL0     H86792   4.546   7.402   3.655  1.2239  3.4501  0.9490
  643MOL0     H86793   4.916   7.765   3.654  3.0317  6.5931  0.9971
  643MOL0     H86794   5.071   7.908   3.762  2.4460  0.3714  1.1046
  643MOL0     H86795   5.291   7.980   3.876 -1.2971  0.8672 -0.3076
  643MOL0     H86796   5.154   8.054   3.945  0.3537 -1.2412 -3.0287
  643MOL0     H86797   5.370   7.946   4.130  0.4141  0.1243 -0.4348
  643MOL0     H86798   5.249   8.076   4.166 -0.2400  0.4977  0.4275
  643MOL0     H86799   5.375   8.228   4.049  2.1678  0.5401 -3.2126
  643MOL0     H86800   5.482   8.109   3.973 -2.5241 -2.5119 -0.5743
  643MOL0     H86801   5.557   8.049   4.215 -1.5190 -0.8617  0.7478
  643MOL0     H86802   5.479   8.208   4.260 -3.4326 -0.2524 -1.3941
  643MOL0     H86803   5.814   8.358   4.064 -3.3789  0.3391 -2.8357
  643MOL0     H86804   5.118   7.627   4.094  2.6069  1.4975 -0.0185
  643MOL0     H86805   4.932   7.505   3.996 -0.6447  0.5967  2.5557
  644MOL0     O86806   7.999   1.789   2.331  0.1452  0.4260 -0.6016
  644MOL0     C86807   7.983   1.870   2.425 -0.5194 -0.8847  0.1356
  644MOL0     O86808   7.941   1.844   2.554  0.2567  0.1840  0.6322
  644MOL0     C86809   7.886   1.724   2.581  0.4387  0.0949 -0.1905
  644MOL0     C86810   7.951   1.597   2.571 -0.6204  0.3256 -0.0454
  644MOL0     C86811   7.891   1.472   2.620  0.3146 -0.5377  0.1375
  644MOL0     C86812   7.770   1.485   2.690  1.0532 -0.7163  0.3087
  644MOL0     O86813   7.707   1.384   2.759  0.4909 -0.1357 -0.5344
  644MOL0     C86814   7.765   1.253   2.757 -0.2647 -0.9051  0.0984
  644MOL0     C86815   7.670   1.161   2.812  0.0124  0.5361  0.1134
  644MOL0     C86816   7.656   1.180   2.964  1.1025 -0.0319 -0.2378
  644MOL0     C86817   7.548   1.085   3.009  0.7572 -0.0261 -0.4219
  644MOL0     C86818   7.406   1.134   3.021 -0.1187 -0.6588 -0.2572
  644MOL0     C86819   7.294   1.034   3.040 -0.6575 -0.0850  0.8009
  644MOL0     C86820   7.155   1.083   3.029 -0.0179  0.1931 -0.2671
  644MOL0     C86821   7.111   1.125   2.884 -0.4495  0.0827  0.7468
  644MOL0     N86822   7.113   1.013   2.784 -0.1380 -0.4660  0.5018
  644MOL0     C86823   7.069   1.033   2.652  0.1249 -0.6684 -1.0576
  644MOL0     C86824   7.095   0.918   2.578  0.8375 -0.0436  0.1859
  644MOL0     C86825   7.071   0.896   2.431  0.2309 -0.1791 -0.3204
  644MOL0     C86826   6.970   0.776   2.403  1.1618  1.2232  0.2339
  644MOL0     C86827   6.824   0.817   2.438 -0.5554  0.2797  0.3668
  644MOL0     C86828   6.732   0.703   2.465  0.6084 -0.8905  0.2256
  644MOL0     O86829   6.608   0.769   2.506  0.4009 -0.7397  0.8761
  644MOL0     C86830   6.512   0.688   2.577 -0.5077 -0.1417  0.5195
  644MOL0     C86831   6.523   0.545   2.598 -0.7706  0.0237 -0.5818
  644MOL0     C86832   6.439   0.473   2.683 -0.5088 -0.2344 -0.1278
  644MOL0     C86833   6.480   0.324   2.701 -0.3452  0.2487 -0.2882
  644MOL0     C86834   6.328   0.535   2.748 -0.7193  0.1331 -0.1884
  644MOL0     C86835   6.238   0.463   2.835  0.2128  1.3045 -0.5930
  644MOL0     O86836   6.276   0.344   2.896 -0.4838 -0.1048  0.2964
  644MOL0     C86837   6.222   0.323   3.019  0.8492  0.1570  1.3842
  644MOL0     C86838   6.286   0.357   3.133  0.0311  0.3711 -0.5012
  644MOL0     C86839   6.224   0.343   3.260 -0.4976 -0.3867 -0.4371
  644MOL0     C86840   6.104   0.282   3.268  0.2206 -0.7210  0.8956
  644MOL0     O86841   6.056   0.246   3.392 -0.6503 -0.2667 -0.1071
  644MOL0     C86842   5.913   0.257   3.408 -1.1372  1.2063 -0.3376
  644MOL0     C86843   5.894   0.268   3.550 -0.1060  0.0291  0.5614
  644MOL0     C86844   5.745   0.300   3.584 -0.4689 -0.6547  0.1513
  644MOL0     C86845   5.652   0.177   3.581 -0.5179 -0.5994  0.9911
  644MOL0     C86846   5.498   0.233   3.576  0.6296  0.7395  0.0548
  644MOL0     C86847   5.448   0.290   3.708 -0.4398 -0.2280  0.1828
  644MOL0     C86848   5.304   0.335   3.692 -0.5313  0.5468 -0.0921
  644MOL0     C86849   5.234   0.382   3.818  0.1833  0.6917  0.2218
  644MOL0    Cl86850   5.185   0.255   3.938  0.6558  0.4959  0.4372
  644MOL0     C86851   6.027   0.257   3.150 -1.2037  0.2588 -1.1087
  644MOL0     C86852   6.083   0.274   3.027 -0.6948 -0.0315  0.2200
  644MOL0     O86853   6.128   0.513   2.847  0.0334  0.2096  0.1304
  644MOL0     C86854   6.307   0.671   2.709  0.3179 -0.4331 -0.5098
  644MOL0     C86855   6.403   0.744   2.629  1.9539  0.1435 -0.3497
  644MOL0     N86856   7.135   0.824   2.669  0.6247 -0.1293  0.7211
  644MOL0     N86857   7.145   0.883   2.785  0.3723 -0.2284 -0.3790
  644MOL0     C86858   7.719   1.619   2.707 -0.1968  0.2642 -0.1167
  644MOL0     C86859   7.769   1.730   2.654 -1.0905 -0.7691  0.0063
  644MOL0     C86860   8.014   2.012   2.400 -0.0649  0.1474 -0.5157
  644MOL0     C86861   8.079   2.049   2.288 -0.3672  0.3135  0.1129
  644MOL0     C86862   8.059   2.179   2.247  0.0695  0.3266 -0.2536
  644MOL0     C86863   8.003   2.272   2.336  0.5384 -0.5902  0.0535
  644MOL0     O86864   7.987   2.395   2.281 -0.1318  0.4086 -0.1203
  644MOL0     C86865   7.999   2.511   2.360 -0.4158 -0.0035  0.1569
  644MOL0     C86866   8.026   2.632   2.278  0.4668  1.7254  1.0664
  644MOL0     C86867   8.139   2.602   2.176  0.3001  0.0754 -0.4535
  644MOL0     C86868   8.200   2.724   2.125  0.1340 -0.9272 -0.1661
  644MOL0     C86869   8.102   2.807   2.057  0.5415  0.3691 -0.9195
  644MOL0     C86870   8.029   2.882   1.997 -0.1560 -0.3932 -0.9336
  644MOL0     C86871   7.954   2.245   2.461  0.3241  0.2892  0.1799
  644MOL0     C86872   7.954   2.109   2.490 -0.1919  0.2804  1.0056
  644MOL0     H86873   8.048   1.583   2.524 -1.9660  3.7629 -4.6203
  644MOL0     H86874   7.944   1.379   2.601  0.3023 -0.4684 -0.2432
  644MOL0     H86875   7.802   1.225   2.659  1.2724  4.0405 -1.0518
  644MOL0     H86876   7.856   1.259   2.818  0.6863  2.1758 -1.4041
  644MOL0     H86877   7.572   1.159   2.763  0.5400  0.8559 -1.0039
  644MOL0     H86878   7.719   1.067   2.784  3.5887  1.8495  1.4001
  644MOL0     H86879   7.747   1.189   3.023 -0.3986  4.1427  1.8805
  644MOL0     H86880   7.614   1.278   2.990  1.9170 -0.6063  4.0880
  644MOL0     H86881   7.549   0.994   2.948  1.5203 -0.5828  0.4058
  644MOL0     H86882   7.571   1.052   3.110 -0.5610 -0.1560 -0.1472
  644MOL0     H86883   7.396   1.199   3.109  0.7728 -0.7173 -0.1045
  644MOL0     H86884   7.393   1.197   2.933 -2.3928  0.0668  0.5137
  644MOL0     H86885   7.303   0.954   2.965 -1.4237  0.2910  0.2973
  644MOL0     H86886   7.304   0.996   3.142 -2.6856 -0.9055  0.7335
  644MOL0     H86887   7.089   1.001   3.059  0.8092 -0.1723  0.6012
  644MOL0     H86888   7.133   1.165   3.098  2.6352  3.1126 -2.5401
  644MOL0     H86889   7.175   1.205   2.843  0.5540 -1.0540  0.0246
  644MOL0     H86890   7.015   1.173   2.905 -0.5700  1.6174 -2.6599
  644MOL0     H86891   7.028   1.126   2.615 -0.6792  0.3426  2.0771
  644MOL0     H86892   7.031   0.992   2.395 -1.8084 -0.2938  1.4579
  644MOL0     H86893   7.164   0.868   2.382  2.3907 -3.9001  5.0086
  644MOL0     H86894   7.009   0.692   2.461  0.5067  0.9750  0.3245
  644MOL0     H86895   6.971   0.736   2.301  3.6424  2.4200 -0.2871
  644MOL0     H86896   6.786   0.887   2.362  0.5885  0.4003 -0.1166
  644MOL0     H86897   6.836   0.878   2.528  2.0675 -0.7328  0.7928
  644MOL0     H86898   6.780   0.640   2.540  2.4985 -0.1123 -0.2856
  644MOL0     H86899   6.722   0.648   2.371  1.0096 -3.4885  1.5956
  644MOL0     H86900   6.606   0.498   2.547  0.9564  2.3407 -0.1002
  644MOL0     H86901   6.390   0.262   2.694  1.2184 -2.0160 -1.2658
  644MOL0     H86902   6.556   0.284   2.633 -0.2888 -0.8414  0.3988
  644MOL0     H86903   6.521   0.315   2.801  0.1278  0.2248 -0.4831
  644MOL0     H86904   6.389   0.389   3.117 -0.4003  2.0515 -0.0787
  644MOL0     H86905   6.269   0.372   3.354 -0.0250  2.1162 -1.3625
  644MOL0     H86906   5.869   0.346   3.363 -0.6130  2.1515  0.9482
  644MOL0     H86907   5.855   0.169   3.378  1.1637 -0.8289  0.8117
  644MOL0     H86908   5.930   0.176   3.596  1.4060  0.0319 -0.5610
  644MOL0     H86909   5.952   0.347   3.600 -1.4128 -0.4842  3.0968
  644MOL0     H86910   5.704   0.381   3.523 -0.1030 -0.6383 -0.0712
  644MOL0     H86911   5.747   0.343   3.685  2.4773 -0.6682  0.1709
  644MOL0     H86912   5.691   0.109   3.505 -0.7707  2.9780 -2.6897
  644MOL0     H86913   5.662   0.135   3.681 -1.1093 -0.6941  1.0105
  644MOL0     H86914   5.441   0.155   3.524  2.2210 -0.0896 -0.5072
  644MOL0     H86915   5.491   0.319   3.509 -1.8471  1.3960  1.0273
  644MOL0     H86916   5.447   0.203   3.775 -0.9027  0.7478  1.4779
  644MOL0     H86917   5.514   0.360   3.760 -2.8037  0.0854  2.9913
  644MOL0     H86918   5.253   0.245   3.658 -1.0033  0.8684 -0.2476
  644MOL0     H86919   5.297   0.412   3.614  0.8040  0.4662 -0.3256
  644MOL0     H86920   5.144   0.437   3.790 -2.6620 -4.9664 -3.4825
  644MOL0     H86921   5.299   0.455   3.868 -3.2388  2.2257  2.8794
  644MOL0     H86922   5.931   0.207   3.155 -1.3003  0.4736 -0.7858
  644MOL0     H86923   6.032   0.246   2.935  1.5505  0.6791 -1.3378
  644MOL0     H86924   6.225   0.720   2.760  0.9258 -1.4760  1.5597
  644MOL0     H86925   6.387   0.851   2.617  2.8610  0.4899  1.1782
  644MOL0     H86926   7.628   1.634   2.765 -0.4077  1.1629 -0.6582
  644MOL0     H86927   7.720   1.827   2.660  0.5080  0.3653 -2.9489
  644MOL0     H86928   8.120   1.976   2.218  2.8068  0.1878  1.8905
  644MOL0     H86929   8.102   2.208   2.152  0.3261  0.5131 -0.0804
  644MOL0     H86930   7.915   2.517   2.430  0.8798  1.9396  1.6416
  644MOL0     H86931   8.087   2.500   2.423 -0.6206  0.9490  0.6278
  644MOL0     H86932   8.057   2.708   2.350 -1.6038  0.7244  3.1343
  644MOL0     H86933   7.929   2.657   2.234  1.5274  3.7391 -0.2806
  644MOL0     H86934   8.107   2.542   2.091  2.1222 -1.6227  0.0085
  644MOL0     H86935   8.214   2.558   2.241  0.4814  1.6585  0.4773
  644MOL0     H86936   8.277   2.701   2.051 -0.2661 -0.2881 -0.7924
  644MOL0     H86937   8.240   2.779   2.211 -0.0864 -1.7808  0.5073
  644MOL0     H86938   7.962   2.954   1.954 -0.8443 -0.0517  0.6212
  644MOL0     H86939   7.905   2.306   2.537 -2.0823 -0.9234 -0.2741
  644MOL0     H86940   7.913   2.066   2.581  0.3328  0.2169  1.2182
  645MOL0     O86941   3.423   5.952   0.106  1.2183  0.1959 -0.7472
  645MOL0     C86942   3.519   5.923   0.179  0.7365  1.2652  0.8880
  645MOL0     O86943   3.629   5.866   0.135 -0.1545  0.2567 -0.3334
  645MOL0     C86944   3.681   5.877   0.010 -0.0266 -0.5317  0.0027
  645MOL0     C86945   3.642   5.972  -0.082  0.3453 -0.6021  0.3219
  645MOL0     C86946   3.712   5.974  -0.202  0.1733 -0.2287  0.0885
  645MOL0     C86947   3.818   5.887  -0.244 -0.5405 -0.8080 -0.2630
  645MOL0     O86948   3.889   5.898  -0.360  0.8858 -0.4870  0.9169
  645MOL0     C86949   3.926   6.026  -0.408 -1.1868 -0.5086 -0.1952
  645MOL0     C86950   4.025   6.000  -0.526  0.6002 -0.3811 -0.6168
  645MOL0     C86951   4.064   6.119  -0.614 -0.1560  1.4396 -0.2743
  645MOL0     C86952   3.953   6.191  -0.668 -1.0332 -0.4166 -0.1086
  645MOL0     C86953   3.999   6.285  -0.774 -0.1632 -0.0036  0.5322
  645MOL0     C86954   3.900   6.386  -0.809 -0.4604 -0.5306  0.0816
  645MOL0     C86955   3.926   6.445  -0.954  0.5821 -0.4238  0.1573
  645MOL0     C86956   3.810   6.537  -1.002 -0.7317  0.3523  0.0869
  645MOL0     N86957   3.824   6.680  -0.969  0.7618 -0.6372 -0.1805
  645MOL0     C86958   3.909   6.746  -0.886 -0.2097 -0.1286  0.0146
  645MOL0     C86959   3.873   6.877  -0.884  0.5266 -0.4639  0.7506
  645MOL0     C86960   3.924   6.974  -0.784 -0.6034 -0.5240  0.9289
  645MOL0     C86961   3.936   7.116  -0.845  0.2066  0.6329  0.3824
  645MOL0     C86962   3.969   7.219  -0.742  0.3219  0.2065  0.2171
  645MOL0     C86963   3.937   7.356  -0.794 -0.5450  1.1497 -0.6364
  645MOL0     O86964   3.989   7.457  -0.708 -0.3187  0.3658  0.6439
  645MOL0     C86965   3.923   7.511  -0.592 -0.5460  1.0336  0.4619
  645MOL0     C86966   3.786   7.489  -0.576 -0.2645 -0.4131 -0.7344
  645MOL0     C86967   3.724   7.544  -0.463  0.9525  0.7764 -0.7517
  645MOL0     C86968   3.568   7.538  -0.467  1.1432 -0.0975  0.7227
  645MOL0     C86969   3.796   7.629  -0.372 -0.7630 -0.7199  0.0412
  645MOL0     C86970   3.750   7.691  -0.241 -0.3904 -0.3571 -0.4625
  645MOL0     O86971   3.785   7.824  -0.223  0.4275  0.8479 -0.2986
  645MOL0     C86972   3.741   7.892  -0.113 -0.0110  0.9163 -0.1320
  645MOL0     C86973   3.828   7.892   0.001  0.7585  0.4000  0.0320
  645MOL0     C86974   3.792   7.970   0.108 -0.0158  0.7759  0.0329
  645MOL0     C86975   3.665   8.038   0.109 -0.4201  0.3545  0.0763
  645MOL0     O86976   3.621   8.123   0.209 -0.8681  1.0328 -0.2152
  645MOL0     C86977   3.728   8.171   0.291  0.5839 -0.6856  0.0269
  645MOL0     C86978   3.640   8.257   0.386  0.2755 -0.0333  0.4381
  645MOL0     C86979   3.717   8.296   0.516 -0.4969 -0.2589 -0.3644
  645MOL0     C86980   3.779   8.437   0.489 -1.2101 -1.1288 -0.6422
  645MOL0     C86981   3.758   8.529   0.616 -0.6143 -0.3941  0.0673
  645MOL0     C86982   3.820   8.476   0.743  0.4385  0.0956 -0.3201
  645MOL0     C86983   3.800   8.581   0.852 -0.2186  0.3003 -0.6343
  645MOL0     C86984   3.913   8.586   0.950 -0.0166 -1.3884  0.4629
  645MOL0    Cl86985   4.056   8.683   0.882  0.3734  0.7076  0.3676
  645MOL0     C86986   3.578   8.029  -0.008  0.5089 -0.0935  0.5588
  645MOL0     C86987   3.617   7.953  -0.116 -1.1175 -0.1809  0.4211
  645MOL0     O86988   3.682   7.621  -0.166  0.0815  0.0425  0.0610
  645MOL0     C86989   3.931   7.664  -0.405 -0.1801 -0.2703  0.1251
  645MOL0     C86990   3.996   7.607  -0.510 -0.3768 -0.2345 -0.5268
  645MOL0     N86991   3.761   6.893  -0.968  1.0551 -1.2614  0.4663
  645MOL0     N86992   3.740   6.779  -1.024 -0.1845 -0.8752 -0.3676
  645MOL0     C86993   3.858   5.797  -0.145  0.7840 -0.7385  0.3523
  645MOL0     C86994   3.793   5.795  -0.018  0.5053  0.7836 -0.1517
  645MOL0     C86995   3.498   5.935   0.326  0.2322  0.1216  0.6698
  645MOL0     C86996   3.376   5.967   0.378  0.3581 -0.3652 -0.4071
  645MOL0     C86997   3.352   5.975   0.516  0.6020 -0.8949  1.2613
  645MOL0     C86998   3.443   5.956   0.606  0.4577 -0.5339 -1.1516
  645MOL0     O86999   3.405   5.967   0.736  0.3370  0.0018 -0.1189
  645MOL0     C87000   3.500   5.987   0.839 -0.0158 -0.6485  0.7962
  645MOL0     C87001   3.449   6.054   0.962  1.2110 -0.2280 -0.8814
  645MOL0     C87002   3.558   6.077   1.073  0.4349  0.5776 -0.8955
  645MOL0     C87003   3.505   6.160   1.190  0.3481  0.7343 -0.0277
  645MOL0     C87004   3.417   6.094   1.288  0.1336  0.0948  1.0246
  645MOL0     C87005   3.349   6.030   1.362 -0.5405  0.7480  0.0283
  645MOL0     C87006   3.569   5.918   0.560 -0.0569 -0.7410  0.2753
  645MOL0     C87007   3.602   5.901   0.421 -0.9142 -0.3045 -0.6583
  645MOL0     H87008   3.578   6.060  -0.073  0.8707  0.3700 -3.6500
  645MOL0     H87009   3.689   6.061  -0.263 -0.8871 -1.5316 -1.4361
  645MOL0     H87010   3.841   6.089  -0.436 -2.3465 -2.1018 -0.4026
  645MOL0     H87011   3.983   6.082  -0.333  0.0490 -1.5888 -0.2941
  645MOL0     H87012   4.110   5.945  -0.483  1.1262  0.5649 -0.4237
  645MOL0     H87013   3.969   5.930  -0.590 -0.3384 -3.0121  2.7879
  645MOL0     H87014   4.116   6.194  -0.554 -2.6883  1.6126  1.8989
  645MOL0     H87015   4.121   6.064  -0.689 -0.5714  0.3698  0.1814
  645MOL0     H87016   3.880   6.118  -0.703 -1.8280  0.8479 -1.1556
  645MOL0     H87017   3.901   6.245  -0.589 -2.3919 -2.1249  0.2263
  645MOL0     H87018   4.091   6.337  -0.746  0.1916  0.3126 -1.0938
  645MOL0     H87019   4.027   6.225  -0.862  0.7282 -0.6363  1.2236
  645MOL0     H87020   3.796   6.354  -0.793 -1.2177  0.8056 -1.7106
  645MOL0     H87021   3.922   6.457  -0.730 -1.3593 -4.0387  3.8000
  645MOL0     H87022   4.025   6.491  -0.960  0.9269 -0.6718  2.6521
  645MOL0     H87023   3.926   6.359  -1.022  2.2588 -1.5608  1.5048
  645MOL0     H87024   3.716   6.494  -0.967  0.6032 -2.7386  0.2127
  645MOL0     H87025   3.803   6.536  -1.111  0.0102  2.1050 -0.0077
  645MOL0     H87026   3.999   6.710  -0.837  1.1981  2.5390 -0.3881
  645MOL0     H87027   3.863   6.973  -0.693  1.4198  0.2027  2.3707
  645MOL0     H87028   4.029   6.960  -0.757 -0.7293  0.4859  1.9783
  645MOL0     H87029   3.833   7.135  -0.876 -0.1833  1.5025  2.1101
  645MOL0     H87030   4.002   7.121  -0.932 -1.0215 -1.2319 -0.7272
  645MOL0     H87031   4.072   7.191  -0.720  0.0002 -0.9807  0.2615
  645MOL0     H87032   3.926   7.203  -0.643  0.1772 -3.8249 -0.3183
  645MOL0     H87033   3.831   7.360  -0.822 -0.3481  2.2566 -1.2597
  645MOL0     H87034   3.994   7.361  -0.887 -0.9976 -2.5086 -1.2672
  645MOL0     H87035   3.728   7.423  -0.641  1.7113 -1.1016 -1.8827
  645MOL0     H87036   3.516   7.521  -0.562 -2.6320  1.8417  2.2363
  645MOL0     H87037   3.532   7.461  -0.398  2.3465  0.5301  2.0918
  645MOL0     H87038   3.535   7.641  -0.449  3.4091  0.5839  1.2221
  645MOL0     H87039   3.912   7.826   0.020 -1.8504 -2.4992  2.7176
  645MOL0     H87040   3.864   7.987   0.187  0.6506  0.4596 -0.4959
  645MOL0     H87041   3.778   8.102   0.359  0.3083  1.2014  2.2768
  645MOL0     H87042   3.797   8.232   0.232 -0.7834 -1.1933 -2.2148
  645MOL0     H87043   3.590   8.339   0.333  1.5006 -0.8328 -2.1259
  645MOL0     H87044   3.551   8.203   0.419 -0.4087 -2.1668 -4.1858
  645MOL0     H87045   3.790   8.219   0.543 -2.9586 -2.5367  0.2316
  645MOL0     H87046   3.640   8.300   0.594 -0.5346  3.0678 -0.4398
  645MOL0     H87047   3.882   8.417   0.459 -0.4588  0.0342  1.0132
  645MOL0     H87048   3.736   8.503   0.413 -0.2791  0.1759 -0.0704
  645MOL0     H87049   3.650   8.539   0.628 -0.1932  3.5343  2.4162
  645MOL0     H87050   3.791   8.631   0.592 -1.5302 -0.3186 -0.9550
  645MOL0     H87051   3.778   8.379   0.769 -0.7465  0.2901 -1.4156
  645MOL0     H87052   3.924   8.456   0.717  0.8289 -2.8472  2.7343
  645MOL0     H87053   3.719   8.548   0.918  2.0673 -1.0089  1.7128
  645MOL0     H87054   3.791   8.683   0.812  0.3367 -0.1567 -1.9904
  645MOL0     H87055   3.950   8.489   0.986 -0.3130 -0.2445  4.3087
  645MOL0     H87056   3.877   8.635   1.040  1.4986 -0.3955  0.5682
  645MOL0     H87057   3.477   8.069  -0.010  0.2304 -0.5872 -3.4047
  645MOL0     H87058   3.558   7.925  -0.202  0.6303  1.2990 -1.3484
  645MOL0     H87059   3.991   7.715  -0.329 -2.1848 -2.6851  3.6190
  645MOL0     H87060   4.094   7.647  -0.532 -0.0502 -0.5455  0.3415
  645MOL0     H87061   3.939   5.725  -0.147  1.3115 -0.1428 -0.2813
  645MOL0     H87062   3.825   5.726   0.060 -0.5463  0.1167 -0.2807
  645MOL0     H87063   3.299   5.985   0.304  0.1013 -1.8357 -0.5310
  645MOL0     H87064   3.249   5.980   0.548  1.3481  1.4757  3.6880
  645MOL0     H87065   3.541   5.889   0.865 -2.7730 -1.4587  2.5123
  645MOL0     H87066   3.588   6.043   0.806  0.2449 -0.6752  1.4336
  645MOL0     H87067   3.371   5.986   0.996 -0.1226  1.2848 -0.8260
  645MOL0     H87068   3.405   6.149   0.933 -1.3949 -0.9394  0.4731
  645MOL0     H87069   3.645   6.133   1.037  2.4082  2.3576  5.4033
  645MOL0     H87070   3.599   5.985   1.116  1.2323  2.0851  1.7701
  645MOL0     H87071   3.454   6.247   1.148 -1.9592 -0.0807  0.9496
  645MOL0     H87072   3.594   6.180   1.251  3.0024  2.4352 -4.0115
  645MOL0     H87073   3.283   6.006   1.442 -1.0690  0.7848 -0.3868
  645MOL0     H87074   3.654   5.906   0.626 -2.0616 -1.5703  2.8700
  645MOL0     H87075   3.703   5.872   0.394  0.4922  2.9672  0.4598
  646MOL0     O87076   3.460   1.987   9.140 -0.3275 -0.3523 -0.2008
  646MOL0     C87077   3.469   1.890   9.216 -0.8952 -0.6307  1.3181
  646MOL0     O87078   3.575   1.865   9.301 -0.3315  0.0835  0.0330
  646MOL0     C87079   3.705   1.905   9.310  0.3084 -0.6055  0.3023
  646MOL0     C87080   3.751   1.924   9.437  0.5470  0.0377  1.1733
  646MOL0     C87081   3.884   1.945   9.465 -0.0438 -0.7634 -0.1218
  646MOL0     C87082   3.978   1.979   9.365  0.7241 -0.2747 -0.4208
  646MOL0     O87083   4.103   2.020   9.404  0.2926  0.4332  0.0814
  646MOL0     C87084   4.216   2.048   9.308  0.6164 -0.0888 -0.2809
  646MOL0     C87085   4.330   2.102   9.388 -0.9956  0.0124 -0.9903
  646MOL0     C87086   4.465   2.129   9.311  0.5939  0.0605 -0.2384
  646MOL0     C87087   4.481   2.267   9.235 -0.0786 -0.1421 -0.4152
  646MOL0     C87088   4.626   2.265   9.189  0.1099 -0.8698 -0.8050
  646MOL0     C87089   4.691   2.404   9.210  0.0676 -0.1378 -0.4661
  646MOL0     C87090   4.819   2.429   9.130 -0.8822  0.4753 -0.0621
  646MOL0     C87091   4.945   2.396   9.228  0.0209 -0.0194 -0.7126
  646MOL0     N87092   4.945   2.262   9.268 -0.0399 -0.2278  0.3567
  646MOL0     C87093   4.972   2.157   9.188  0.2595  0.3168  0.2831
  646MOL0     C87094   4.938   2.047   9.260  0.5322  0.1943  0.6215
  646MOL0     C87095   4.940   1.910   9.206  0.7382 -1.1090  0.1131
  646MOL0     C87096   4.890   1.893   9.058 -1.0526  0.2135 -0.1468
  646MOL0     C87097   4.732   1.904   9.065 -0.4270  0.3147  0.1066
  646MOL0     C87098   4.681   1.863   8.933 -0.4077 -0.1116  0.6414
  646MOL0     O87099   4.731   1.728   8.912  0.5803 -0.5131 -0.5251
  646MOL0     C87100   4.694   1.667   8.800 -0.1571  0.3555  0.6768
  646MOL0     C87101   4.743   1.534   8.776 -0.0691 -0.1906 -0.3797
  646MOL0     C87102   4.707   1.445   8.676  0.1409 -0.0633  0.8412
  646MOL0     C87103   4.742   1.294   8.684  0.5884  0.0612 -0.1269
  646MOL0     C87104   4.618   1.500   8.576 -0.4425 -0.0449 -0.8652
  646MOL0     C87105   4.556   1.430   8.461 -0.2605  0.2793  0.2998
  646MOL0     O87106   4.431   1.461   8.414 -0.9435  0.4153 -0.9691
  646MOL0     C87107   4.403   1.436   8.288  1.2249  0.0250  0.6700
  646MOL0     C87108   4.365   1.310   8.248  0.1473 -0.5645  0.9396
  646MOL0     C87109   4.309   1.291   8.119  1.5752  0.3142 -0.9152
  646MOL0     C87110   4.287   1.402   8.036 -0.5219  1.2311 -0.0659
  646MOL0     O87111   4.222   1.379   7.917 -0.0664 -0.1324  0.2454
  646MOL0     C87112   4.098   1.312   7.921 -0.1460 -0.0101  0.0362
  646MOL0     C87113   4.050   1.308   7.780 -0.2660  0.6645 -0.4074
  646MOL0     C87114   4.005   1.448   7.735  0.0055  0.2515  0.1268
  646MOL0     C87115   3.916   1.440   7.616  0.0058  0.8019 -0.1353
  646MOL0     C87116   3.881   1.583   7.570  0.5509  0.2270  0.0632
  646MOL0     C87117   3.745   1.638   7.612  0.8702 -0.0255 -0.5036
  646MOL0     C87118   3.740   1.784   7.574  0.2278  0.3812  0.3903
  646MOL0     C87119   3.693   1.793   7.424  0.0527 -0.7226 -0.7891
  646MOL0    Cl87120   3.822   1.803   7.306 -0.4104  0.3056  0.4112
  646MOL0     C87121   4.327   1.521   8.071  0.7181  0.5895 -1.3127
  646MOL0     C87122   4.400   1.543   8.192  0.1173  0.0918  0.4452
  646MOL0     O87123   4.620   1.341   8.416  0.1451  0.7349 -0.0133
  646MOL0     C87124   4.580   1.626   8.593  0.8620 -0.6717 -1.4144
  646MOL0     C87125   4.603   1.707   8.703 -0.2355  0.8796 -0.1499
  646MOL0     N87126   4.899   2.082   9.386  0.5444  0.2889  0.4988
  646MOL0     N87127   4.892   2.211   9.386  0.1665  0.6786  0.0318
  646MOL0     C87128   3.927   1.980   9.233 -0.2391 -0.0408  0.1677
  646MOL0     C87129   3.802   1.931   9.209  0.9815 -0.3156 -0.1402
  646MOL0     C87130   3.370   1.792   9.207 -0.5657  0.3444 -0.1028
  646MOL0     C87131   3.252   1.822   9.161  0.2536  0.2090 -0.0578
  646MOL0     C87132   3.148   1.730   9.176  0.3702  0.4191 -0.3098
  646MOL0     C87133   3.162   1.599   9.228 -0.5261 -0.9722  0.0351
  646MOL0     O87134   3.058   1.506   9.228  0.1893 -0.3644 -0.4681
  646MOL0     C87135   2.928   1.537   9.176 -0.1441  0.4308  0.5681
  646MOL0     C87136   2.910   1.438   9.059 -0.5081 -0.2061 -0.2254
  646MOL0     C87137   2.776   1.469   8.989  0.7634  0.2763  0.3683
  646MOL0     C87138   2.776   1.374   8.865  0.5307  0.2332  0.1976
  646MOL0     C87139   2.640   1.367   8.810 -0.4663 -0.0552 -0.2579
  646MOL0     C87140   2.519   1.352   8.789 -0.2508 -0.3430  0.4844
  646MOL0     C87141   3.293   1.564   9.266  0.0128 -0.6299 -0.4708
  646MOL0     C87142   3.397   1.660   9.271  1.0163  0.6305  0.7859
  646MOL0     H87143   3.680   1.900   9.516  0.6175 -2.3665  0.5736
  646MOL0     H87144   3.915   1.940   9.568  0.1138 -2.5199 -0.2344
  646MOL0     H87145   4.231   1.959   9.245  0.5141  0.4389 -1.0725
  646MOL0     H87146   4.187   2.128   9.239 -0.0385  1.5979  1.8635
  646MOL0     H87147   4.296   2.194   9.437  2.6815  1.3999 -0.6749
  646MOL0     H87148   4.353   2.018   9.454 -2.2388 -1.8387 -2.7737
  646MOL0     H87149   4.546   2.131   9.384  1.2419 -4.2652 -0.5787
  646MOL0     H87150   4.494   2.048   9.243 -2.8394  1.0751 -3.2405
  646MOL0     H87151   4.419   2.275   9.145  0.3919 -1.3344 -0.8520
  646MOL0     H87152   4.462   2.355   9.298  2.7352  0.4537 -0.2787
  646MOL0     H87153   4.683   2.186   9.239 -1.0184 -1.8866 -1.0753
  646MOL0     H87154   4.635   2.234   9.085  2.0139  1.4600 -1.4249
  646MOL0     H87155   4.616   2.473   9.170 -1.1988 -0.2033  1.6090
  646MOL0     H87156   4.705   2.425   9.317 -1.1620 -0.1642 -0.2855
  646MOL0     H87157   4.815   2.375   9.035 -1.2165  2.0934 -1.0208
  646MOL0     H87158   4.822   2.533   9.096  0.1845 -0.3962 -2.9214
  646MOL0     H87159   4.938   2.450   9.323 -0.1196 -0.0136 -0.7254
  646MOL0     H87160   5.032   2.416   9.165  1.0375  2.3686  1.2855
  646MOL0     H87161   5.011   2.161   9.087  2.7328  3.9282  1.1835
  646MOL0     H87162   5.040   1.867   9.219  0.6121 -1.8644 -1.1837
  646MOL0     H87163   4.871   1.855   9.270  1.3878  1.3413  3.1771
  646MOL0     H87164   4.921   1.795   9.022 -2.4802  0.3150 -1.8260
  646MOL0     H87165   4.925   1.972   8.990 -0.7218  0.2389  0.0558
  646MOL0     H87166   4.695   2.001   9.101 -2.4275 -0.2330 -0.3602
  646MOL0     H87167   4.708   1.828   9.139  2.1579  0.6958  1.4340
  646MOL0     H87168   4.721   1.935   8.860  0.7957 -0.2843  1.1143
  646MOL0     H87169   4.572   1.852   8.931 -0.7291  2.4178  0.6707
  646MOL0     H87170   4.816   1.495   8.847 -0.9266  0.5206  0.9267
  646MOL0     H87171   4.824   1.277   8.754 -0.2156  1.4100  1.2074
  646MOL0     H87172   4.654   1.238   8.715  1.7639 -0.9600  1.5229
  646MOL0     H87173   4.765   1.255   8.584 -1.6791 -0.1551 -0.6184
  646MOL0     H87174   4.374   1.222   8.312 -1.6646 -2.7279 -1.5787
  646MOL0     H87175   4.270   1.192   8.100 -0.5073 -0.0264  3.8127
  646MOL0     H87176   4.111   1.206   7.946 -2.9451 -0.0247  1.8814
  646MOL0     H87177   4.031   1.351   7.998  1.8729  1.0334  1.3408
  646MOL0     H87178   4.134   1.271   7.721 -0.2067  0.1274  0.0041
  646MOL0     H87179   3.967   1.237   7.779 -1.6460  2.1666  1.0040
  646MOL0     H87180   4.094   1.507   7.711  1.2924 -0.7416  2.2202
  646MOL0     H87181   3.945   1.498   7.811 -1.2963 -1.1991  0.1003
  646MOL0     H87182   3.973   1.398   7.533 -0.7541  3.7488 -2.3097
  646MOL0     H87183   3.829   1.376   7.633  0.1158  0.1994 -1.6754
  646MOL0     H87184   3.886   1.594   7.462  2.3602  2.3932  0.2760
  646MOL0     H87185   3.963   1.651   7.595  3.8766 -3.0537 -1.0972
  646MOL0     H87186   3.666   1.576   7.567 -1.2674  1.0266  1.6003
  646MOL0     H87187   3.734   1.626   7.720  1.1065  0.6497 -0.4033
  646MOL0     H87188   3.827   1.849   7.589 -0.0641  1.4340 -2.0055
  646MOL0     H87189   3.654   1.827   7.626 -0.8115  1.1948 -1.8829
  646MOL0     H87190   3.635   1.886   7.417 -0.1179 -0.0271  5.0764
  646MOL0     H87191   3.635   1.704   7.397  1.7648 -1.7991 -1.0691
  646MOL0     H87192   4.314   1.609   8.010 -1.1600  3.1764  2.4415
  646MOL0     H87193   4.429   1.645   8.215  1.4734 -0.2696  0.4565
  646MOL0     H87194   4.507   1.671   8.525 -0.6553 -1.3895 -0.3271
  646MOL0     H87195   4.562   1.807   8.718 -1.9802 -0.0183  1.4152
  646MOL0     H87196   3.994   1.999   9.149 -2.3596 -2.2483 -2.2076
  646MOL0     H87197   3.776   1.920   9.104 -0.5277 -1.8463  0.3569
  646MOL0     H87198   3.232   1.907   9.097  0.3685  1.5211  1.5774
  646MOL0     H87199   3.054   1.766   9.135 -0.6344 -1.3770  0.3225
  646MOL0     H87200   2.852   1.521   9.253 -2.3461 -1.9653 -1.8786
  646MOL0     H87201   2.906   1.639   9.144 -1.5045  0.5982  1.9234
  646MOL0     H87202   2.901   1.332   9.086 -0.7949 -0.2176 -0.3624
  646MOL0     H87203   2.995   1.437   8.991 -0.8564  0.0843 -0.6750
  646MOL0     H87204   2.776   1.570   8.947  1.3248 -0.8248 -2.5019
  646MOL0     H87205   2.685   1.451   9.047 -0.7202  0.8424 -1.6768
  646MOL0     H87206   2.796   1.271   8.894 -2.1419 -1.2848 -2.7150
  646MOL0     H87207   2.840   1.404   8.781  0.3372 -1.5274 -0.6307
  646MOL0     H87208   2.414   1.333   8.777 -0.9937  0.3763  4.4026
  646MOL0     H87209   3.312   1.467   9.311 -0.7237 -0.2986  0.6027
  646MOL0     H87210   3.489   1.623   9.316 -0.3899 -1.8184  1.7947
  647MOL0     O87211   0.629   9.801   7.965 -0.4744  0.0897  0.0437
  647MOL0     C87212   0.667   9.762   8.082  0.3054  0.1232  0.3732
  647MOL0     O87213   0.669   9.639   8.127  0.2039  0.4295  0.1925
  647MOL0     C87214   0.639   9.523   8.046  1.1990 -0.1877  0.2140
  647MOL0     C87215   0.597   9.505   7.918 -0.1821 -0.4184 -0.3162
  647MOL0     C87216   0.588   9.378   7.847  0.0799 -0.7712  0.3814
  647MOL0     C87217   0.628   9.269   7.924 -0.8841 -0.8477  0.9275
  647MOL0     O87218   0.603   9.145   7.866  0.5162 -0.5082 -0.1452
  647MOL0     C87219   0.556   9.044   7.952  0.6023  0.0926 -0.2398
  647MOL0     C87220   0.530   8.924   7.869  0.3622 -0.1135  0.1827
  647MOL0     C87221   0.463   8.814   7.950 -0.6000  0.0251  0.9444
  647MOL0     C87222   0.402   8.708   7.852  0.1654  0.5240  0.2264
  647MOL0     C87223   0.325   8.601   7.935 -0.0586 -0.0617  0.8694
  647MOL0     C87224   0.207   8.664   8.010 -0.9928 -1.5992 -0.0268
  647MOL0     C87225   0.099   8.574   8.078 -0.1281 -0.6125 -0.3329
  647MOL0     C87226   0.160   8.480   8.178 -0.3790  0.7503  0.1941
  647MOL0     N87227   0.055   8.433   8.277 -0.1974  0.8585  0.2675
  647MOL0     C87228   0.031   8.294   8.299 -0.8639 -0.1010 -0.6534
  647MOL0     C87229  -0.000   8.272   8.430  0.0223 -0.7320 -0.2822
  647MOL0     C87230  -0.038   8.143   8.498 -0.0242  0.1423 -0.3696
  647MOL0     C87231  -0.188   8.095   8.486 -0.1717 -1.1721 -0.7034
  647MOL0     C87232  -0.203   7.958   8.561  0.6087  0.3587  0.2762
  647MOL0     C87233  -0.337   7.900   8.508 -0.9356  0.4035  0.1105
  647MOL0     O87234  -0.451   7.984   8.524 -0.4749  0.2618 -0.2288
  647MOL0     C87235  -0.515   7.975   8.641 -0.0907 -0.5281 -0.1688
  647MOL0     C87236  -0.599   8.085   8.655 -0.0332  0.4064 -1.0170
  647MOL0     C87237  -0.695   8.097   8.756 -0.9353 -0.9948 -1.0404
  647MOL0     C87238  -0.805   8.201   8.757 -0.0660 -0.1328  0.1185
  647MOL0     C87239  -0.678   8.005   8.855 -0.6466 -0.3604 -0.8207
  647MOL0     C87240  -0.766   8.003   8.967 -0.0343  0.2331  1.0845
  647MOL0     O87241  -0.782   8.131   9.033  0.6935 -0.2834  0.1337
  647MOL0     C87242  -0.848   8.130   9.154  0.3527  0.1259 -1.0175
  647MOL0     C87243  -0.981   8.090   9.161 -0.0215  0.5465 -0.9343
  647MOL0     C87244  -1.037   8.053   9.282 -1.1805  0.5808 -0.0601
  647MOL0     C87245  -0.962   8.050   9.398 -0.0669 -0.0211  0.0245
  647MOL0     O87246  -1.019   7.994   9.510  0.4099  0.0346  0.1078
  647MOL0     C87247  -1.158   7.967   9.535 -0.0086 -0.1799 -0.3809
  647MOL0     C87248  -1.171   7.898   9.676  0.2896  0.4742 -0.2361
  647MOL0     C87249  -1.096   7.763   9.684  0.0353  0.1424 -1.0589
  647MOL0     C87250  -1.097   7.698   9.821 -0.7097  0.3994 -1.4131
  647MOL0     C87251  -0.995   7.751   9.926  0.4447  0.9579  0.9547
  647MOL0     C87252  -0.852   7.731   9.891 -0.0182 -0.7487 -1.0324
  647MOL0     C87253  -0.813   7.585   9.882 -1.1746 -0.3272 -0.4414
  647MOL0     C87254  -0.659   7.569   9.906  0.3900 -0.6139  0.3654
  647MOL0    Cl87255  -0.592   7.408   9.851 -0.1739 -0.2970 -0.1204
  647MOL0     C87256  -0.838   8.106   9.406  0.0488  0.8682 -0.7340
  647MOL0     C87257  -0.781   8.144   9.276 -0.0105  0.3039 -0.0656
  647MOL0     O87258  -0.816   7.899   9.007 -0.2775  0.1912  0.0838
  647MOL0     C87259  -0.579   7.906   8.857 -0.1270 -0.2131  0.0348
  647MOL0     C87260  -0.504   7.878   8.746  0.5500 -0.1437  0.3887
  647MOL0     N87261  -0.001   8.403   8.489 -0.1486  0.2249 -0.4470
  647MOL0     N87262   0.039   8.494   8.393  0.7826  0.3953 -0.1694
  647MOL0     C87263   0.677   9.277   8.054  0.9225 -0.3293  0.0263
  647MOL0     C87264   0.671   9.401   8.114 -0.5051  0.1111  0.3034
  647MOL0     C87265   0.726   9.863   8.171 -0.0676 -0.3700 -0.3865
  647MOL0     C87266   0.728   9.999   8.139  0.0522  0.4242 -0.5840
  647MOL0     C87267   0.782  10.091   8.233  0.1904 -0.0179  0.5040
  647MOL0     C87268   0.812  10.050   8.358  0.0762 -0.2871 -0.9011
  647MOL0     O87269   0.847  10.139   8.459 -0.2028  0.1564 -0.4654
  647MOL0     C87270   0.921  10.253   8.423  0.4436  0.0497 -0.3702
  647MOL0     C87271   1.005  10.284   8.551  0.2274  0.6325  1.3028
  647MOL0     C87272   1.112  10.386   8.506 -1.0713 -0.2788 -0.7060
  647MOL0     C87273   1.200  10.425   8.629  0.2634  0.1865  0.7261
  647MOL0     C87274   1.132  10.501   8.729  0.5501  0.2834  0.0951
  647MOL0     C87275   1.071  10.575   8.809 -0.0397  0.0672 -1.0092
  647MOL0     C87276   0.794   9.922   8.398 -0.4790  0.6635  0.5811
  647MOL0     C87277   0.753   9.827   8.303 -0.2386 -0.5088  0.6263
  647MOL0     H87278   0.572   9.594   7.862 -0.3885 -0.6546 -0.6047
  647MOL0     H87279   0.530   9.359   7.757 -3.7381  0.0729  2.4145
  647MOL0     H87280   0.636   9.005   8.015 -0.0984 -1.1262 -0.0789
  647MOL0     H87281   0.467   9.068   8.010 -0.6393 -1.4468 -1.4302
  647MOL0     H87282   0.453   8.949   7.795 -0.0751 -3.2144 -0.5516
  647MOL0     H87283   0.619   8.887   7.816 -0.4706 -1.2242 -0.4900
  647MOL0     H87284   0.542   8.765   8.008  1.3328  1.7184 -0.1023
  647MOL0     H87285   0.390   8.857   8.020 -0.3409 -1.3459  2.0961
  647MOL0     H87286   0.326   8.759   7.791 -1.7533 -0.3857  1.7655
  647MOL0     H87287   0.476   8.668   7.782 -0.1029  0.9125 -0.2918
  647MOL0     H87288   0.279   8.532   7.864  0.0473 -0.6434  1.3577
  647MOL0     H87289   0.397   8.554   8.003  3.5793  1.8461 -1.3293
  647MOL0     H87290   0.243   8.734   8.086  1.1225 -0.5800 -1.8533
  647MOL0     H87291   0.165   8.727   7.931  0.8661 -0.0341  0.1673
  647MOL0     H87292   0.021   8.637   8.121 -1.2459 -1.9536 -0.3341
  647MOL0     H87293   0.061   8.520   7.991  2.6631 -3.5177  0.0388
  647MOL0     H87294   0.244   8.530   8.228  0.9692 -0.6127 -0.6300
  647MOL0     H87295   0.215   8.400   8.128  2.5676  2.0147  1.1833
  647MOL0     H87296   0.043   8.221   8.220 -0.5236 -0.5515 -0.1898
  647MOL0     H87297   0.024   8.061   8.460 -1.9820 -0.7526 -1.8483
  647MOL0     H87298  -0.020   8.151   8.605 -0.9707  1.7215 -0.2969
  647MOL0     H87299  -0.209   8.094   8.378 -2.5267  0.3858 -0.3246
  647MOL0     H87300  -0.258   8.166   8.530  1.4876  3.0865 -4.1250
  647MOL0     H87301  -0.194   7.960   8.670 -0.6995 -0.8811  0.4295
  647MOL0     H87302  -0.120   7.900   8.519  1.2901  0.4724  1.4399
  647MOL0     H87303  -0.353   7.804   8.558  0.7651 -0.9132 -1.7189
  647MOL0     H87304  -0.331   7.875   8.402 -2.3267  2.4301 -0.4916
  647MOL0     H87305  -0.605   8.165   8.581 -2.6680  1.9637  0.7181
  647MOL0     H87306  -0.790   8.279   8.832  2.3196  1.4157 -1.8401
  647MOL0     H87307  -0.825   8.255   8.664 -3.6510 -1.4232 -0.0263
  647MOL0     H87308  -0.902   8.162   8.789  0.1975  1.1489  2.7463
  647MOL0     H87309  -1.040   8.095   9.070 -0.5098 -0.5750 -0.6923
  647MOL0     H87310  -1.141   8.023   9.286 -0.5968 -2.0288 -1.7753
  647MOL0     H87311  -1.217   8.059   9.545  1.5015  0.7131  0.8004
  647MOL0     H87312  -1.207   7.905   9.460 -2.6485  0.9154  0.3128
  647MOL0     H87313  -1.142   7.970   9.753 -0.7360 -0.0390  0.6587
  647MOL0     H87314  -1.277   7.884   9.700  0.6259 -0.6566  0.6781
  647MOL0     H87315  -0.989   7.781   9.666  0.3435  0.0231  0.5366
  647MOL0     H87316  -1.130   7.688   9.613 -0.9297 -2.1272  1.6480
  647MOL0     H87317  -1.196   7.703   9.866  0.4192 -0.0500  1.2935
  647MOL0     H87318  -1.067   7.595   9.798  2.9191  1.3130 -1.4108
  647MOL0     H87319  -1.013   7.684  10.010  0.7955 -2.3519 -1.4351
  647MOL0     H87320  -1.011   7.852   9.965  2.0457  1.0017  1.5729
  647MOL0     H87321  -0.824   7.793   9.805  1.3057  1.2257  0.7462
  647MOL0     H87322  -0.800   7.776   9.975 -1.7262  1.0563 -0.8551
  647MOL0     H87323  -0.829   7.545   9.782 -1.4503 -0.9826 -0.1442
  647MOL0     H87324  -0.868   7.516   9.947 -2.6614  0.4775 -0.8023
  647MOL0     H87325  -0.646   7.581  10.014 -0.4905  0.0726  0.4000
  647MOL0     H87326  -0.617   7.648   9.844  0.7434 -0.5815  0.6401
  647MOL0     H87327  -0.794   8.114   9.505  1.6950 -3.6378 -0.8880
  647MOL0     H87328  -0.678   8.176   9.277 -0.0611  0.4697  0.0364
  647MOL0     H87329  -0.583   7.835   8.938 -2.1740 -0.2047 -0.0128
  647MOL0     H87330  -0.434   7.795   8.748  2.0780  0.9200 -2.6354
  647MOL0     H87331   0.712   9.190   8.108  0.1363 -0.2167  0.7502
  647MOL0     H87332   0.707   9.399   8.216 -3.8976 -0.7484  1.5991
  647MOL0     H87333   0.706  10.043   8.042 -0.0287  0.4897 -0.5364
  647MOL0     H87334   0.783  10.195   8.201 -2.2450 -0.7912 -2.6534
  647MOL0     H87335   0.988  10.226   8.341 -1.8921 -4.4086 -1.1737
  647MOL0     H87336   0.858  10.340   8.405  1.5521  0.9925  0.2148
  647MOL0     H87337   1.051  10.190   8.583 -0.4361  0.3819  1.5499
  647MOL0     H87338   0.932  10.321   8.623 -0.2298 -0.8006  1.6198
  647MOL0     H87339   1.068  10.472   8.456 -1.3717  2.0510  3.1041
  647MOL0     H87340   1.181  10.336   8.438  3.5909 -0.2581  3.4121
  647MOL0     H87341   1.270  10.499   8.589 -1.7200  1.8392  0.2021
  647MOL0     H87342   1.259  10.342   8.670 -0.6392 -1.3116 -0.8539
  647MOL0     H87343   1.031  10.644   8.881 -4.2740  1.1295 -3.9491
  647MOL0     H87344   0.810   9.894   8.502 -0.8684 -1.1397  0.1903
  647MOL0     H87345   0.732   9.727   8.340 -2.3873 -1.4888 -2.6884
  648MOL0     O87346   0.760   1.479   9.595  0.1747  0.4312 -0.3298
  648MOL0     C87347   0.880   1.460   9.602 -0.3815  0.0605  0.1608
  648MOL0     O87348   0.948   1.358   9.545  0.0218  0.9377 -0.4934
  648MOL0     C87349   0.873   1.257   9.480 -0.6285  0.0535 -0.5295
  648MOL0     C87350   0.776   1.287   9.392  0.2891 -0.4433  0.1224
  648MOL0     C87351   0.725   1.184   9.311 -0.3279 -0.7996  0.0936
  648MOL0     C87352   0.754   1.049   9.338 -0.5202 -0.4892  0.2452
  648MOL0     O87353   0.695   0.951   9.261 -0.5716 -0.0542  0.4155
  648MOL0     C87354   0.566   0.916   9.311 -0.5927  0.2401  0.5428
  648MOL0     C87355   0.528   0.810   9.221  0.1421 -0.2356 -0.3381
  648MOL0     C87356   0.388   0.755   9.252  0.2972 -0.5833 -0.3096
  648MOL0     C87357   0.350   0.655   9.140 -0.2173 -0.8226  0.4198
  648MOL0     C87358   0.198   0.621   9.151 -0.6722  0.8008 -0.1628
  648MOL0     C87359   0.156   0.537   9.030  1.0375 -0.1184  0.5268
  648MOL0     C87360   0.038   0.451   9.072 -0.1819  0.3225 -0.3964
  648MOL0     C87361   0.003   0.349   8.956 -0.0923 -0.2188 -0.2509
  648MOL0     N87362   0.105   0.261   8.900 -0.6573 -0.3096 -0.5546
  648MOL0     C87363   0.173   0.167   8.975 -1.5765  0.3901 -0.4818
  648MOL0     C87364   0.257   0.100   8.887 -0.3944 -0.9216 -0.0167
  648MOL0     C87365   0.350  -0.011   8.912  0.3757 -0.5129  0.3365
  648MOL0     C87366   0.277  -0.140   8.955  0.7630  0.4588 -0.2107
  648MOL0     C87367   0.351  -0.263   8.927  0.6979 -0.8982 -0.5766
  648MOL0     C87368   0.393  -0.276   8.772  0.2192 -0.1984  0.8914
  648MOL0     O87369   0.448  -0.402   8.749  0.1204 -0.2028 -0.6525
  648MOL0     C87370   0.585  -0.407   8.755 -0.0895  0.5026  0.2492
  648MOL0     C87371   0.652  -0.422   8.881  0.1537 -0.2121 -0.0948
  648MOL0     C87372   0.795  -0.439   8.886  0.6912 -0.4153 -0.5331
  648MOL0     C87373   0.860  -0.457   9.022  0.2305  0.4210  0.2521
  648MOL0     C87374   0.874  -0.426   8.770 -0.3762  0.3732 -0.5031
  648MOL0     C87375   1.016  -0.448   8.769  1.1102 -0.0041  0.2739
  648MOL0     O87376   1.056  -0.527   8.656  0.2863  0.3864 -0.5495
  648MOL0     C87377   1.164  -0.606   8.642 -0.2740  0.4751  1.1565
  648MOL0     C87378   1.209  -0.641   8.517 -0.5384  0.4197  0.1911
  648MOL0     C87379   1.307  -0.743   8.485 -0.5187 -0.2679  0.1212
  648MOL0     C87380   1.376  -0.800   8.593 -0.1657 -0.4365 -0.5829
  648MOL0     O87381   1.477  -0.885   8.552  0.4545 -0.5993 -0.5192
  648MOL0     C87382   1.544  -0.966   8.657 -0.3312 -0.9903  0.5749
  648MOL0     C87383   1.651  -0.884   8.725 -0.3977 -1.0223 -0.8488
  648MOL0     C87384   1.734  -0.969   8.824  1.4427 -0.3344  0.0755
  648MOL0     C87385   1.868  -0.895   8.866 -0.8493  0.4849  0.0810
  648MOL0     C87386   1.838  -0.778   8.955 -0.6035 -0.3059  0.1063
  648MOL0     C87387   1.961  -0.688   8.975  0.4272  0.1478 -0.5868
  648MOL0     C87388   1.929  -0.567   9.057  0.0918 -0.8241 -0.7913
  648MOL0     C87389   2.058  -0.492   9.112 -0.4871  1.3740  0.0389
  648MOL0    Cl87390   2.184  -0.589   9.182 -0.3615 -0.2040  0.3086
  648MOL0     C87391   1.337  -0.769   8.722  0.1596 -0.4957 -0.4851
  648MOL0     C87392   1.231  -0.668   8.751 -0.0165  0.1322  0.5264
  648MOL0     O87393   1.090  -0.406   8.852 -0.4102  0.4071 -0.1620
  648MOL0     C87394   0.804  -0.420   8.654 -0.4299 -0.8904 -0.0790
  648MOL0     C87395   0.663  -0.411   8.642 -0.1496 -0.0510 -0.3205
  648MOL0     N87396   0.234   0.155   8.770 -0.1528  0.4505  1.4235
  648MOL0     N87397   0.143   0.247   8.772 -0.3714  0.0944 -0.1404
  648MOL0     C87398   0.846   1.025   9.448 -0.2960  0.7773  0.0295
  648MOL0     C87399   0.910   1.130   9.514  0.1848 -1.7091  0.5577
  648MOL0     C87400   0.967   1.568   9.660  0.1609 -0.3075 -0.2001
  648MOL0     C87401   1.105   1.567   9.655 -0.5112 -0.2037 -0.1010
  648MOL0     C87402   1.186   1.684   9.700  0.2038 -0.1580  0.6399
  648MOL0     C87403   1.121   1.796   9.751 -0.6770  0.1203  0.2241
  648MOL0     O87404   1.185   1.906   9.788  0.3784  0.9967 -0.7683
  648MOL0     C87405   1.276   1.968   9.696  0.1567  0.3828 -0.3467
  648MOL0     C87406   1.200   2.048   9.592  0.0154 -0.3171 -0.0713
  648MOL0     C87407   1.317   2.125   9.516 -0.1113 -0.5042  0.2916
  648MOL0     C87408   1.254   2.201   9.396 -0.3403  0.2002 -0.1229
  648MOL0     C87409   1.124   2.275   9.419  0.4036 -0.0284 -1.0725
  648MOL0     C87410   1.022   2.348   9.428  0.2929  0.8944  0.2202
  648MOL0     C87411   0.981   1.794   9.769 -0.5043 -0.2785  0.1428
  648MOL0     C87412   0.910   1.684   9.722  0.9418  1.1007 -0.2858
  648MOL0     H87413   0.753   1.392   9.376  0.5314  0.0989  2.9482
  648MOL0     H87414   0.663   1.193   9.223  0.1889  0.9662 -0.1418
  648MOL0     H87415   0.574   0.887   9.416 -0.5396 -0.0952  0.4453
  648MOL0     H87416   0.506   1.007   9.320 -1.2920 -0.3829  2.7483
  648MOL0     H87417   0.525   0.846   9.117 -3.2729  1.0218  0.0499
  648MOL0     H87418   0.597   0.726   9.225 -1.3447 -1.4488  1.2585
  648MOL0     H87419   0.386   0.698   9.345  0.4770 -1.3826 -0.7815
  648MOL0     H87420   0.325   0.843   9.268  3.2031  1.4119  1.0050
  648MOL0     H87421   0.390   0.697   9.047 -0.7319 -2.3210 -0.5146
  648MOL0     H87422   0.405   0.561   9.142 -1.0401 -1.3195  0.4792
  648MOL0     H87423   0.186   0.556   9.238 -0.4321 -1.2035 -1.5739
  648MOL0     H87424   0.138   0.712   9.162  1.6549  2.4428 -0.2068
  648MOL0     H87425   0.122   0.603   8.950 -2.0131  2.1612  3.3589
  648MOL0     H87426   0.240   0.477   8.994  0.1768 -0.1998 -1.4750
  648MOL0     H87427   0.067   0.393   9.161 -3.4746 -1.2495 -0.2159
  648MOL0     H87428  -0.052   0.508   9.096 -1.8364 -1.3309 -2.3463
  648MOL0     H87429  -0.039   0.416   8.882  1.9611  2.8649  1.1754
  648MOL0     H87430  -0.076   0.280   8.990  1.7879 -1.4600  1.9077
  648MOL0     H87431   0.157   0.146   9.080 -0.5725 -0.0875 -0.4087
  648MOL0     H87432   0.420  -0.011   8.828  0.5459  1.9107  0.3986
  648MOL0     H87433   0.406   0.012   9.003 -0.8973 -0.3583  1.1054
  648MOL0     H87434   0.178  -0.143   8.908 -0.7309 -1.4093  2.7664
  648MOL0     H87435   0.260  -0.130   9.062  0.1654  1.4879 -0.3839
  648MOL0     H87436   0.295  -0.352   8.956  1.6600 -1.7669 -1.2970
  648MOL0     H87437   0.442  -0.269   8.988  0.6172 -0.7802 -0.4461
  648MOL0     H87438   0.466  -0.212   8.723 -2.2826 -1.9164 -6.2758
  648MOL0     H87439   0.297  -0.274   8.720  0.0652  0.5882  1.1922
  648MOL0     H87440   0.594  -0.454   8.967  1.7157  0.3179  1.2134
  648MOL0     H87441   0.931  -0.377   9.044  0.0250  0.2246  1.7654
  648MOL0     H87442   0.786  -0.441   9.101 -2.0962  2.6849 -2.1928
  648MOL0     H87443   0.905  -0.555   9.043  0.3747  0.8925  2.4353
  648MOL0     H87444   1.144  -0.608   8.436 -0.3837  0.9719  0.2830
  648MOL0     H87445   1.338  -0.782   8.388 -3.9001 -0.6747 -0.9246
  648MOL0     H87446   1.465  -1.008   8.720 -1.2409 -3.0117 -1.7663
  648MOL0     H87447   1.585  -1.050   8.601 -2.5201 -0.5058 -1.9415
  648MOL0     H87448   1.723  -0.854   8.649  0.2698 -0.0762  0.1214
  648MOL0     H87449   1.609  -0.796   8.776 -2.3227 -2.2758 -0.1656
  648MOL0     H87450   1.765  -1.069   8.791 -0.5452 -1.8519  2.4027
  648MOL0     H87451   1.678  -0.995   8.914  2.6222 -0.2815  0.8577
  648MOL0     H87452   1.928  -0.966   8.924  0.2189 -0.0017 -1.5687
  648MOL0     H87453   1.916  -0.872   8.771 -1.7740 -0.7716 -0.7212
  648MOL0     H87454   1.809  -0.828   9.048  1.0996 -1.0514  0.2746
  648MOL0     H87455   1.757  -0.717   8.914  0.0594  2.3906  2.4871
  648MOL0     H87456   2.041  -0.749   9.018  1.2391  0.3880 -1.7164
  648MOL0     H87457   1.987  -0.659   8.873  0.5945 -1.1452 -0.9266
  648MOL0     H87458   1.855  -0.582   9.136 -0.3039  0.5398 -0.8850
  648MOL0     H87459   1.872  -0.505   8.987  0.0653 -0.3485 -0.3547
  648MOL0     H87460   2.025  -0.407   9.173 -4.0058  0.1721  0.0507
  648MOL0     H87461   2.108  -0.451   9.024  1.4846  2.1139  1.4393
  648MOL0     H87462   1.397  -0.816   8.798 -0.4371 -1.3432 -0.5317
  648MOL0     H87463   1.196  -0.645   8.851 -1.1967  2.8396 -0.4194
  648MOL0     H87464   0.850  -0.423   8.556  1.9617  1.4701  0.8504
  648MOL0     H87465   0.612  -0.413   8.546 -0.6710 -2.7253 -0.0599
  648MOL0     H87466   0.878   0.927   9.482 -0.4704  0.9810  0.8131
  648MOL0     H87467   0.988   1.129   9.589 -1.0408  0.8705  2.0076
  648MOL0     H87468   1.159   1.481   9.618  0.0822  0.4759 -0.8647
  648MOL0     H87469   1.294   1.679   9.698  0.9287  6.5515 -0.5382
  648MOL0     H87470   1.327   2.036   9.765 -1.1202 -0.1385  1.1774
  648MOL0     H87471   1.356   1.902   9.662  2.0279  0.3468  3.5992
  648MOL0     H87472   1.127   2.111   9.644 -1.4185 -0.8768 -1.3254
  648MOL0     H87473   1.140   1.984   9.527 -2.3186  2.1369 -0.4828
  648MOL0     H87474   1.386   2.051   9.473 -0.2705 -0.4120 -0.1260
  648MOL0     H87475   1.377   2.195   9.575 -0.3605  0.3403 -0.4370
  648MOL0     H87476   1.225   2.133   9.315  0.4650 -0.4592  0.1298
  648MOL0     H87477   1.324   2.268   9.345 -1.4237  0.5437 -1.2148
  648MOL0     H87478   0.934   2.403   9.451  0.7185  2.0202 -0.7115
  648MOL0     H87479   0.926   1.881   9.804 -3.8784 -2.4764  0.8564
  648MOL0     H87480   0.803   1.675   9.738  0.9445 -2.0658 -1.3105
  649MOL0     O87481   1.066   7.836   5.271  0.1423 -0.8754 -0.2817
  649MOL0     C87482   1.038   7.726   5.237  0.5163  0.8336  0.4623
  649MOL0     O87483   1.123   7.625   5.204 -0.2709  0.1647  0.0007
  649MOL0     C87484   1.260   7.645   5.216  0.1537  0.0104  0.2690
  649MOL0     C87485   1.326   7.537   5.286  0.2578 -0.6526 -0.1547
  649MOL0     C87486   1.470   7.538   5.300  1.0520 -0.2422  0.7264
  649MOL0     C87487   1.542   7.652   5.245  1.1505  0.0503 -0.5115
  649MOL0     O87488   1.679   7.665   5.251  0.7782 -0.6735 -0.8880
  649MOL0     C87489   1.754   7.568   5.317 -0.8361  0.1506 -0.3384
  649MOL0     C87490   1.897   7.609   5.297 -0.2038  0.3822  0.2000
  649MOL0     C87491   2.001   7.503   5.343  0.8928 -0.6389 -2.0426
  649MOL0     C87492   2.007   7.378   5.248 -0.1766 -0.3954  0.1368
  649MOL0     C87493   2.095   7.255   5.302  0.8588  0.0599  0.1927
  649MOL0     C87494   2.040   7.195   5.423  0.9390 -0.2974  0.9076
  649MOL0     C87495   2.108   7.063   5.441 -0.1948  0.5309  0.4339
  649MOL0     C87496   2.073   7.010   5.578 -0.0267 -0.0457 -0.1888
  649MOL0     N87497   2.102   6.868   5.611  0.0509 -0.0976  0.2119
  649MOL0     C87498   2.027   6.761   5.582  0.3882 -0.1716  0.6573
  649MOL0     C87499   2.097   6.658   5.632  0.1841  0.3513  0.0794
  649MOL0     C87500   2.057   6.509   5.633 -0.5139  0.6239  0.3821
  649MOL0     C87501   1.971   6.479   5.756 -0.7634 -0.4125 -0.2489
  649MOL0     C87502   1.945   6.330   5.777  0.6963  0.5412  0.6871
  649MOL0     C87503   1.857   6.290   5.896  1.0311  1.0246 -0.1677
  649MOL0     O87504   1.727   6.364   5.920  0.1825  0.8031 -1.0894
  649MOL0     C87505   1.718   6.434   6.037 -0.4268 -0.6267  0.9420
  649MOL0     C87506   1.685   6.361   6.151  0.0415 -0.2920 -0.7870
  649MOL0     C87507   1.669   6.426   6.265  0.9575  0.6103 -0.4341
  649MOL0     C87508   1.624   6.339   6.389  0.3549 -0.3848  0.9303
  649MOL0     C87509   1.690   6.567   6.278 -0.4670  0.1737  0.1675
  649MOL0     C87510   1.662   6.658   6.395  0.4434 -0.0933 -0.2773
  649MOL0     O87511   1.572   6.611   6.484 -0.3412  0.6399 -0.6542
  649MOL0     C87512   1.521   6.684   6.589  0.4069 -0.5938  0.3900
  649MOL0     C87513   1.533   6.655   6.729  1.8282  0.6158  0.1176
  649MOL0     C87514   1.453   6.721   6.829 -0.2657 -0.3199 -0.8049
  649MOL0     C87515   1.383   6.836   6.785  0.0778  0.2126  0.1967
  649MOL0     O87516   1.343   6.907   6.900  0.2835  0.6119 -0.2969
  649MOL0     C87517   1.202   6.954   6.891 -0.1265  0.2251 -0.1044
  649MOL0     C87518   1.152   6.997   7.030 -0.2643 -0.1849 -0.6190
  649MOL0     C87519   1.152   6.881   7.127 -0.3460 -0.2568  0.6288
  649MOL0     C87520   1.046   6.904   7.241  0.2887 -1.0088 -0.1494
  649MOL0     C87521   1.026   6.789   7.341  0.6921  0.2845 -0.3568
  649MOL0     C87522   1.161   6.729   7.384 -0.8954 -0.2695  0.0737
  649MOL0     C87523   1.246   6.832   7.464  0.4881  0.2652  1.8464
  649MOL0     C87524   1.185   6.875   7.598  0.0977 -0.3199  0.1613
  649MOL0    Cl87525   1.133   6.726   7.685  0.6648  0.3914 -0.4310
  649MOL0     C87526   1.386   6.882   6.657 -0.5812  0.1321 -0.5506
  649MOL0     C87527   1.444   6.794   6.561  0.2032 -0.1587  0.1331
  649MOL0     O87528   1.708   6.776   6.395  0.6322  0.2334  0.1632
  649MOL0     C87529   1.742   6.631   6.160  0.1537 -0.1261  0.4717
  649MOL0     C87530   1.762   6.568   6.042 -0.1257 -0.0339  0.0613
  649MOL0     N87531   2.201   6.712   5.709  0.0640  0.7437 -0.3365
  649MOL0     N87532   2.207   6.837   5.689  0.2448 -0.1311 -0.1853
  649MOL0     C87533   1.477   7.760   5.180 -0.7118 -0.5250  1.0698
  649MOL0     C87534   1.339   7.749   5.146 -0.6305 -0.1750 -0.9068
  649MOL0     C87535   0.894   7.690   5.257  0.8842 -0.0974  0.1804
  649MOL0     C87536   0.854   7.556   5.225  0.2923  0.2809 -0.4658
  649MOL0     C87537   0.722   7.509   5.236 -0.0387 -0.6840  0.9444
  649MOL0     C87538   0.620   7.589   5.280 -0.7996  0.8741  0.4576
  649MOL0     O87539   0.492   7.535   5.269 -0.2381 -0.0063  1.1747
  649MOL0     C87540   0.377   7.610   5.287 -0.0219  0.9280  0.1288
  649MOL0     C87541   0.355   7.678   5.148 -0.3389  0.6844 -0.7324
  649MOL0     C87542   0.245   7.774   5.162 -0.8437 -0.5402  0.6505
  649MOL0     C87543   0.229   7.867   5.036 -0.0105  0.5541  0.1699
  649MOL0     C87544   0.323   7.972   5.047 -1.1183  1.0687 -0.0037
  649MOL0     C87545   0.403   8.063   5.045  0.9066 -0.3440 -0.0751
  649MOL0     C87546   0.651   7.722   5.315 -0.0572  0.2684  0.5390
  649MOL0     C87547   0.784   7.770   5.302  0.5409 -0.1972  0.2893
  649MOL0     H87548   1.277   7.453   5.335 -2.5409  1.6437  1.2378
  649MOL0     H87549   1.525   7.451   5.334  0.1226 -3.1866 -4.3868
  649MOL0     H87550   1.747   7.554   5.425  1.0253 -0.6038 -0.2707
  649MOL0     H87551   1.733   7.475   5.262 -0.1904 -3.0741  4.2603
  649MOL0     H87552   1.908   7.626   5.190 -1.5214 -0.2237 -0.0583
  649MOL0     H87553   1.912   7.701   5.353  1.0848  0.2276  0.1493
  649MOL0     H87554   2.095   7.556   5.360 -1.1373  2.4880  0.6897
  649MOL0     H87555   1.968   7.459   5.438  2.0345 -0.3116 -1.4809
  649MOL0     H87556   1.910   7.342   5.213  0.6011 -0.5330 -1.9820
  649MOL0     H87557   2.050   7.426   5.159 -1.7912  1.1114  0.1182
  649MOL0     H87558   2.089   7.176   5.227 -0.3676 -1.1610  1.5224
  649MOL0     H87559   2.195   7.289   5.328  0.7809  0.4842 -0.0380
  649MOL0     H87560   2.067   7.266   5.502  0.1273  1.5392 -0.4054
  649MOL0     H87561   1.932   7.182   5.423 -0.1525  5.6095 -1.3291
  649MOL0     H87562   2.057   7.000   5.367  0.7274  0.9417 -0.5867
  649MOL0     H87563   2.217   7.061   5.428 -0.5217 -2.5275 -3.6495
  649MOL0     H87564   1.966   7.033   5.585 -0.2613  0.0445 -2.9852
  649MOL0     H87565   2.125   7.075   5.649 -0.8867  0.0035  0.4225
  649MOL0     H87566   1.929   6.762   5.535  0.0415  4.2622  1.0185
  649MOL0     H87567   1.998   6.499   5.542  0.1197 -1.2011  0.1380
  649MOL0     H87568   2.139   6.438   5.621 -3.4655 -2.9521 -0.2053
  649MOL0     H87569   1.872   6.519   5.730 -0.1963  0.6107 -0.9136
  649MOL0     H87570   2.012   6.525   5.846  4.9967 -0.8583 -2.2779
  649MOL0     H87571   2.044   6.283   5.781 -0.1698 -1.6950 -1.5944
  649MOL0     H87572   1.900   6.287   5.687  2.3859 -0.1988  0.1579
  649MOL0     H87573   1.916   6.275   5.987  1.6894  0.3061 -0.6963
  649MOL0     H87574   1.829   6.187   5.873 -2.8390  1.3835  2.1515
  649MOL0     H87575   1.658   6.257   6.137  1.1970 -0.6748 -0.2977
  649MOL0     H87576   1.571   6.248   6.359 -0.3645 -1.3959  4.7639
  649MOL0     H87577   1.718   6.324   6.444 -0.5289 -1.2077  2.2725
  649MOL0     H87578   1.553   6.376   6.464 -0.5822 -2.5715  1.1884
  649MOL0     H87579   1.598   6.572   6.756  0.0167 -0.8915  0.0895
  649MOL0     H87580   1.451   6.691   6.933  0.1391  2.0731 -0.0505
  649MOL0     H87581   1.208   7.043   6.828 -0.2465  1.7397  1.9110
  649MOL0     H87582   1.139   6.880   6.840 -0.4500 -0.5636  1.3512
  649MOL0     H87583   1.213   7.080   7.065  0.6816  0.7574 -4.0942
  649MOL0     H87584   1.051   7.037   7.027  0.0869  0.8535  0.5115
  649MOL0     H87585   1.253   6.867   7.166  0.3815  1.3689 -0.5803
  649MOL0     H87586   1.124   6.785   7.083  0.9716 -1.1590  1.6989
  649MOL0     H87587   1.082   6.992   7.295  4.3860 -2.7332  0.2190
  649MOL0     H87588   0.950   6.931   7.195  0.0430 -2.1764 -0.3447
  649MOL0     H87589   0.983   6.712   7.276 -0.1971  3.5410 -4.0414
  649MOL0     H87590   0.963   6.804   7.428  0.3880 -1.3691 -0.2499
  649MOL0     H87591   1.149   6.642   7.450  2.1789 -0.6502  0.3013
  649MOL0     H87592   1.224   6.688   7.305  0.6958  1.3772  0.4248
  649MOL0     H87593   1.257   6.926   7.410 -0.9560 -0.0852  0.8826
  649MOL0     H87594   1.345   6.791   7.485 -0.2453 -1.9562  1.2575
  649MOL0     H87595   1.101   6.946   7.592  1.5299  1.3744 -0.6277
  649MOL0     H87596   1.256   6.924   7.665 -1.6873  2.4429  0.2105
  649MOL0     H87597   1.357   6.985   6.638 -0.4864  0.5013  1.1084
  649MOL0     H87598   1.419   6.822   6.459  2.3486 -0.8123 -0.6269
  649MOL0     H87599   1.765   6.737   6.162 -0.0072 -0.0529  3.4937
  649MOL0     H87600   1.805   6.623   5.958 -2.5248  1.4472 -0.2911
  649MOL0     H87601   1.542   7.838   5.140 -0.3217 -0.3107  2.0894
  649MOL0     H87602   1.303   7.825   5.078  3.1504  2.0187 -0.7465
  649MOL0     H87603   0.934   7.487   5.199  0.5290  0.9423 -1.5544
  649MOL0     H87604   0.696   7.406   5.219  0.5295 -1.0797  2.2787
  649MOL0     H87605   0.288   7.551   5.311  1.5046 -1.4957  0.1688
  649MOL0     H87606   0.385   7.681   5.370  0.0686  3.8358 -2.1947
  649MOL0     H87607   0.330   7.606   5.070 -1.6191  1.0447 -0.6860
  649MOL0     H87608   0.448   7.729   5.122  0.9792 -1.6839 -0.9234
  649MOL0     H87609   0.261   7.841   5.247 -0.7045 -1.5738  1.4527
  649MOL0     H87610   0.150   7.720   5.174  0.4153 -3.1573 -0.4106
  649MOL0     H87611   0.129   7.911   5.039  0.7851  2.8157 -2.5476
  649MOL0     H87612   0.242   7.814   4.941  0.8390  1.5400 -0.2890
  649MOL0     H87613   0.482   8.135   5.049  0.1168  0.9846 -4.0162
  649MOL0     H87614   0.575   7.785   5.361 -0.7212 -0.1197 -0.0006
  649MOL0     H87615   0.803   7.872   5.335  0.6955 -1.0519  3.1715
  650MOL0     O87616   9.866   3.094   9.765 -0.2452  0.1966  0.1015
  650MOL0     C87617   9.884   3.029   9.663  0.0622 -0.4995 -1.2370
  650MOL0     O87618   9.906   3.079   9.537 -0.2980 -0.4525 -0.1423
  650MOL0     C87619   9.903   3.215   9.523 -0.7373  0.1217  0.1552
  650MOL0     C87620  10.026   3.278   9.487  1.3637 -0.1846  0.6511
  650MOL0     C87621  10.027   3.416   9.455 -0.3942  0.3361  0.4736
  650MOL0     C87622   9.917   3.494   9.472 -0.1859  0.9694  0.4813
  650MOL0     O87623   9.911   3.630   9.453 -0.2892  0.1487 -1.1034
  650MOL0     C87624  10.029   3.703   9.491  1.0396  1.1267 -0.5545
  650MOL0     C87625  10.013   3.836   9.431  0.1644 -0.4950  0.3186
  650MOL0     C87626   9.911   3.923   9.507  0.4631  0.5898  0.8895
  650MOL0     C87627   9.900   4.053   9.434  0.2721 -1.2435  0.4779
  650MOL0     C87628   9.833   4.159   9.523  0.5433 -0.7235 -0.0729
  650MOL0     C87629   9.773   4.266   9.416 -0.6462 -0.4051 -0.5427
  650MOL0     C87630   9.621   4.252   9.404  0.3107  0.6936 -0.6959
  650MOL0     C87631   9.557   4.386   9.356 -0.9542 -0.1062 -0.6825
  650MOL0     N87632   9.424   4.373   9.316  0.2094 -0.3271  0.6275
  650MOL0     C87633   9.368   4.421   9.198  0.2520  0.0888 -0.8646
  650MOL0     C87634   9.244   4.369   9.187  0.8017 -0.8025 -0.0006
  650MOL0     C87635   9.148   4.374   9.070  0.3363  0.0754 -0.1819
  650MOL0     C87636   9.083   4.510   9.068  0.3532 -1.3217  0.1452
  650MOL0     C87637   8.942   4.515   9.009  0.2809  0.2050  0.6004
  650MOL0     C87638   8.934   4.486   8.856 -0.1279  0.2979  0.2917
  650MOL0     O87639   8.798   4.448   8.819 -0.3401 -0.2036 -0.4126
  650MOL0     C87640   8.706   4.547   8.817 -1.0541 -0.1583 -0.5602
  650MOL0     C87641   8.587   4.503   8.867  0.1987 -0.2025  0.3001
  650MOL0     C87642   8.476   4.602   8.871 -0.3193  0.5211  0.1725
  650MOL0     C87643   8.343   4.553   8.918  0.0552  0.2797 -0.0698
  650MOL0     C87644   8.495   4.734   8.820  0.5583  0.3392 -0.5743
  650MOL0     C87645   8.384   4.844   8.821  0.3557 -0.2279  0.1476
  650MOL0     O87646   8.413   4.961   8.758 -0.3049  0.2925 -0.0937
  650MOL0     C87647   8.307   5.042   8.721  0.6788  1.4933 -0.4289
  650MOL0     C87648   8.322   5.172   8.768 -0.5907  1.1689  0.3592
  650MOL0     C87649   8.228   5.276   8.718 -1.2658 -0.4306  0.9481
  650MOL0     C87650   8.136   5.246   8.621  0.4494  0.1771 -0.2779
  650MOL0     O87651   8.058   5.351   8.590  0.1077  0.2952  0.6320
  650MOL0     C87652   7.930   5.323   8.515 -0.4844  0.1780 -0.1687
  650MOL0     C87653   7.838   5.440   8.536 -0.2856  0.8831 -0.4343
  650MOL0     C87654   7.711   5.436   8.462  0.2503 -0.5436  0.1351
  650MOL0     C87655   7.645   5.302   8.459  0.5135  0.0638 -0.1529
  650MOL0     C87656   7.587   5.272   8.587 -0.5396  0.2448  0.1238
  650MOL0     C87657   7.523   5.128   8.582  0.1255  0.4350 -0.0465
  650MOL0     C87658   7.452   5.096   8.719  0.9147 -0.8243 -0.0672
  650MOL0     C87659   7.358   4.978   8.713 -1.0435  0.5600 -0.7112
  650MOL0    Cl87660   7.190   5.003   8.677 -0.1242 -0.0695  0.3908
  650MOL0     C87661   8.112   5.110   8.578 -0.2507  0.1960 -0.3116
  650MOL0     C87662   8.201   5.008   8.627 -0.5008  0.0163  0.2973
  650MOL0     O87663   8.276   4.820   8.872  0.7910  0.1370 -0.3241
  650MOL0     C87664   8.622   4.768   8.782  0.1129  0.3070 -0.1735
  650MOL0     C87665   8.725   4.680   8.783  0.0075  0.6658  0.5273
  650MOL0     N87666   9.220   4.307   9.309  0.4395  1.2041  0.8508
  650MOL0     N87667   9.329   4.292   9.376 -0.3786 -0.0183 -0.9198
  650MOL0     C87668   9.799   3.431   9.503 -0.3511 -0.2921  0.5196
  650MOL0     C87669   9.782   3.294   9.530 -1.1546 -0.9474  0.0762
  650MOL0     C87670   9.915   2.887   9.686  0.1437 -0.4904  0.3292
  650MOL0     C87671   9.944   2.807   9.573  0.7424 -0.3411 -1.0334
  650MOL0     C87672   9.966   2.672   9.596 -0.0734 -0.3015 -0.5659
  650MOL0     C87673   9.956   2.609   9.715  0.8312  0.4044  0.2280
  650MOL0     O87674   9.975   2.475   9.714 -0.0025  0.3851  0.8115
  650MOL0     C87675  10.004   2.415   9.839  0.0197 -0.5036  0.3556
  650MOL0     C87676  10.078   2.284   9.801 -0.1575 -0.0460 -0.0238
  650MOL0     C87677  10.148   2.217   9.929  0.2137  0.6678 -0.0958
  650MOL0     C87678  10.053   2.106   9.981 -0.0738 -0.9527  1.1679
  650MOL0     C87679  10.098   2.077  10.115  0.4763  0.5591 -0.5936
  650MOL0     C87680  10.135   2.052  10.233  0.9825 -0.9300  0.7152
  650MOL0     C87681   9.916   2.693   9.827 -0.0910  0.5671  0.4891
  650MOL0     C87682   9.915   2.833   9.810  0.3763  0.6571  0.0823
  650MOL0     H87683  10.118   3.221   9.471  0.7529 -0.6641 -1.3810
  650MOL0     H87684  10.117   3.455   9.409 -2.3815  3.8765 -0.7741
  650MOL0     H87685  10.026   3.719   9.599 -1.3617  0.8393 -0.5343
  650MOL0     H87686  10.124   3.657   9.460  0.6409 -0.2336  0.1442
  650MOL0     H87687  10.107   3.890   9.432 -2.0150  3.6986  0.7954
  650MOL0     H87688   9.979   3.822   9.328  1.9815 -1.8183 -0.1357
  650MOL0     H87689   9.812   3.877   9.504 -0.1754  1.9326  0.3386
  650MOL0     H87690   9.944   3.935   9.610 -2.6175  2.8533  1.7739
  650MOL0     H87691  10.001   4.091   9.417  0.2975 -0.0066  2.9228
  650MOL0     H87692   9.842   4.047   9.342 -0.7953  0.2492  1.0106
  650MOL0     H87693   9.754   4.112   9.581  0.9869  1.2355  2.3186
  650MOL0     H87694   9.896   4.207   9.599  0.0422  0.8121 -0.5949
  650MOL0     H87695   9.796   4.367   9.450 -0.2305 -0.5394 -0.4122
  650MOL0     H87696   9.824   4.257   9.320  0.0235 -1.4133 -0.1128
  650MOL0     H87697   9.589   4.173   9.337  1.0187 -0.0692 -0.1580
  650MOL0     H87698   9.581   4.225   9.503  5.0712 -1.6761  0.8761
  650MOL0     H87699   9.620   4.421   9.274 -0.1179 -1.6112 -0.7057
  650MOL0     H87700   9.569   4.466   9.430  2.6496 -0.6603 -0.5121
  650MOL0     H87701   9.413   4.478   9.117 -0.5017  2.6500  0.4144
  650MOL0     H87702   9.202   4.357   8.977 -1.7025 -2.2799 -1.0566
  650MOL0     H87703   9.070   4.298   9.081 -1.0171  1.3317 -0.7719
  650MOL0     H87704   9.154   4.563   9.004 -1.8103  0.8957 -0.5671
  650MOL0     H87705   9.083   4.552   9.169 -0.8296 -1.1648  0.0885
  650MOL0     H87706   8.886   4.608   9.017 -2.6829 -1.4742  0.8581
  650MOL0     H87707   8.878   4.445   9.063  1.8916  0.0680  2.4474
  650MOL0     H87708   9.011   4.413   8.829 -0.3761  1.0616 -2.7759
  650MOL0     H87709   8.963   4.574   8.797  1.1973 -1.0183 -1.1172
  650MOL0     H87710   8.572   4.404   8.908  0.8634 -0.2518  0.4384
  650MOL0     H87711   8.275   4.589   8.841 -1.7061  1.3579  1.8935
  650MOL0     H87712   8.326   4.446   8.934 -1.9899  0.9970  3.5565
  650MOL0     H87713   8.325   4.615   9.006 -2.0033  1.8082 -1.4565
  650MOL0     H87714   8.413   5.200   8.820  0.1297  1.9810 -1.2608
  650MOL0     H87715   8.242   5.380   8.747  2.5299  0.4891 -3.2170
  650MOL0     H87716   7.949   5.317   8.408  0.4654  1.6150 -0.1137
  650MOL0     H87717   7.891   5.224   8.542  1.3946 -0.6691 -0.3914
  650MOL0     H87718   7.825   5.437   8.644  5.3509 -2.4731  0.5288
  650MOL0     H87719   7.892   5.529   8.502  0.4646  0.5429 -0.1375
  650MOL0     H87720   7.733   5.475   8.363 -2.2001  3.5216  0.9690
  650MOL0     H87721   7.645   5.508   8.511  0.7217 -0.5252  0.7660
  650MOL0     H87722   7.578   5.297   8.373  1.4578 -1.1209 -0.8640
  650MOL0     H87723   7.710   5.217   8.435 -1.1631 -2.6096  3.6523
  650MOL0     H87724   7.501   5.340   8.590 -2.3755 -1.9185  0.0236
  650MOL0     H87725   7.653   5.281   8.673  2.2456  1.4290 -1.9963
  650MOL0     H87726   7.454   5.108   8.499 -2.8501 -0.9194  2.5482
  650MOL0     H87727   7.601   5.055   8.554  0.1690 -0.0172  1.1992
  650MOL0     H87728   7.403   5.186   8.758  1.8886 -0.7992  1.1682
  650MOL0     H87729   7.531   5.067   8.789  1.2620 -1.1601 -0.5928
  650MOL0     H87730   7.366   4.934   8.813  2.2764  0.1633 -1.0325
  650MOL0     H87731   7.401   4.900   8.650  2.9371  0.3301  1.9283
  650MOL0     H87732   8.037   5.078   8.506 -0.2102  0.6253 -0.5523
  650MOL0     H87733   8.207   4.904   8.595  5.6151  0.0557  0.0786
  650MOL0     H87734   8.649   4.865   8.742 -0.0777  0.3025 -0.3150
  650MOL0     H87735   8.818   4.717   8.739 -1.7757  0.4828 -3.8761
  650MOL0     H87736   9.708   3.491   9.502  0.1085  0.6428 -4.0450
  650MOL0     H87737   9.690   3.253   9.571  0.4311 -0.6655  4.4299
  650MOL0     H87738   9.951   2.845   9.472  2.3801 -1.1782 -1.2664
  650MOL0     H87739   9.990   2.601   9.517 -4.3585 -0.4945 -1.9549
  650MOL0     H87740  10.067   2.481   9.900  2.5223 -1.2767 -1.2299
  650MOL0     H87741   9.912   2.397   9.894 -1.6329 -0.8133 -2.3391
  650MOL0     H87742  10.149   2.294   9.719 -0.6056 -0.9328 -0.5386
  650MOL0     H87743   9.999   2.221   9.758  1.7035 -3.0132  0.6207
  650MOL0     H87744  10.171   2.286  10.010 -0.1226  3.1819 -2.0134
  650MOL0     H87745  10.242   2.168   9.902 -0.3473 -0.7978  0.5112
  650MOL0     H87746  10.052   2.019   9.915 -0.0696 -0.1466  0.0783
  650MOL0     H87747   9.954   2.152   9.977  0.6491  0.5713 -0.3966
  650MOL0     H87748  10.177   2.036  10.330 -0.7209 -2.3260  1.2706
  650MOL0     H87749   9.877   2.654   9.921  0.4347 -2.4958 -0.4486
  650MOL0     H87750   9.893   2.903   9.891  1.0138  0.1717  0.6898
  651MOL0     O87751   4.031   6.404   0.009 -0.1465 -0.0331 -0.3871
  651MOL0     C87752   4.001   6.284   0.003  0.2989 -0.5388  0.2593
  651MOL0     O87753   3.899   6.233  -0.077  0.1439 -0.7283 -0.7017
  651MOL0     C87754   3.841   6.326  -0.162  0.1630  0.0176  0.3040
  651MOL0     C87755   3.707   6.357  -0.158  0.1795 -0.0406 -0.2298
  651MOL0     C87756   3.648   6.437  -0.243  0.0725 -0.1712  0.9946
  651MOL0     C87757   3.719   6.499  -0.349 -0.5962  0.8901 -0.4519
  651MOL0     O87758   3.663   6.597  -0.436 -0.4520  0.0500  0.1037
  651MOL0     C87759   3.649   6.563  -0.573 -0.6297  0.6910 -0.7304
  651MOL0     C87760   3.525   6.612  -0.651  0.0754  0.0693  0.5909
  651MOL0     C87761   3.455   6.737  -0.592 -0.1362  0.0268 -0.3941
  651MOL0     C87762   3.524   6.868  -0.631 -0.1444  0.2994 -0.1633
  651MOL0     C87763   3.446   6.990  -0.578  0.5742  0.6416 -0.5549
  651MOL0     C87764   3.434   6.986  -0.422  0.5053 -0.5700 -0.2320
  651MOL0     C87765   3.380   7.117  -0.368 -0.1072 -0.7609  0.1360
  651MOL0     C87766   3.372   7.119  -0.206  0.5196  0.1962 -0.3971
  651MOL0     N87767   3.284   7.010  -0.148 -0.1015  0.3154 -0.0945
  651MOL0     C87768   3.156   7.035  -0.112 -0.4724  0.6735 -1.6657
  651MOL0     C87769   3.123   6.912  -0.053  0.4206  0.3740  0.9438
  651MOL0     C87770   2.994   6.872   0.015 -0.8820 -0.7549 -0.1241
  651MOL0     C87771   2.996   6.875   0.164 -0.0189  0.1145  0.0884
  651MOL0     C87772   3.062   6.993   0.212 -0.0190 -0.4419  0.0940
  651MOL0     C87773   3.021   7.032   0.354 -0.0495  0.3466 -0.9354
  651MOL0     O87774   3.046   6.925   0.450  0.2311  0.2169 -0.3874
  651MOL0     C87775   2.996   6.928   0.579 -0.1883 -0.1822  0.3191
  651MOL0     C87776   2.929   7.038   0.632 -0.6211 -0.6524 -0.2066
  651MOL0     C87777   2.872   7.032   0.758  0.9075  0.0908  1.6040
  651MOL0     C87778   2.800   7.155   0.795  0.8754 -0.8612 -0.7277
  651MOL0     C87779   2.894   6.914   0.834  0.8797 -0.6635 -0.2812
  651MOL0     C87780   2.863   6.909   0.984  0.3586 -0.5012 -0.2159
  651MOL0     O87781   2.834   7.027   1.043 -0.1141  0.2229  0.3390
  651MOL0     C87782   2.788   7.045   1.174  0.5166  0.0397  0.4889
  651MOL0     C87783   2.856   6.971   1.278 -2.0203 -0.4568  1.1971
  651MOL0     C87784   2.836   7.014   1.408  0.1646 -0.2034 -0.2575
  651MOL0     C87785   2.746   7.113   1.436  0.5673 -0.5092 -0.1931
  651MOL0     O87786   2.735   7.144   1.566  0.0803 -0.3802 -0.1206
  651MOL0     C87787   2.623   7.232   1.600  0.0006 -0.1455  0.4782
  651MOL0     C87788   2.602   7.239   1.755 -0.5025 -0.1168 -0.1754
  651MOL0     C87789   2.557   7.100   1.808 -0.2469 -0.1251 -0.5525
  651MOL0     C87790   2.412   7.066   1.784  0.6913 -0.4145  0.3680
  651MOL0     C87791   2.350   6.959   1.880  0.0579 -0.9197  0.3604
  651MOL0     C87792   2.193   6.974   1.877 -0.3352  0.0179 -0.0201
  651MOL0     C87793   2.133   7.052   1.990 -0.0588 -0.0292  0.2451
  651MOL0     C87794   1.990   7.016   1.996 -0.4967 -0.1207 -0.7287
  651MOL0    Cl87795   1.890   7.118   2.110 -0.1124  0.2372  0.0812
  651MOL0     C87796   2.662   7.171   1.333 -0.8127  0.0393  0.4006
  651MOL0     C87797   2.689   7.144   1.201 -0.6034  0.7185 -1.0011
  651MOL0     O87798   2.868   6.795   1.031  0.0998 -0.2725 -0.0338
  651MOL0     C87799   2.957   6.805   0.784 -0.7553 -0.4511  0.6066
  651MOL0     C87800   3.011   6.804   0.647 -0.6815  0.0354  0.4374
  651MOL0     N87801   3.236   6.823  -0.061 -0.0432 -0.2588 -0.9915
  651MOL0     N87802   3.334   6.892  -0.118 -0.9591 -0.3451 -0.2342
  651MOL0     C87803   3.847   6.457  -0.369  0.1442  0.8894 -0.0059
  651MOL0     C87804   3.913   6.386  -0.275  0.3080  0.4677 -0.6087
  651MOL0     C87805   4.086   6.190   0.084 -0.2092 -1.1056  0.3640
  651MOL0     C87806   4.190   6.233   0.168 -0.1332 -0.0280  0.3681
  651MOL0     C87807   4.257   6.140   0.254  0.2444  0.3119 -0.0488
  651MOL0     C87808   4.232   6.003   0.247 -0.3806 -0.0023  0.2170
  651MOL0     O87809   4.297   5.921   0.335  0.4032  0.8331 -0.0734
  651MOL0     C87810   4.407   5.853   0.271  0.1676  0.1208 -0.5380
  651MOL0     C87811   4.450   5.755   0.391 -0.2566  0.0567 -0.1169
  651MOL0     C87812   4.575   5.675   0.360  0.3369 -0.1341 -0.1869
  651MOL0     C87813   4.625   5.599   0.486  0.3796 -0.0086 -0.6417
  651MOL0     C87814   4.672   5.677   0.601 -0.7355 -0.4545 -0.6034
  651MOL0     C87815   4.700   5.738   0.702 -0.7671 -0.2684 -1.4058
  651MOL0     C87816   4.142   5.962   0.147 -0.4837 -0.2396  0.4498
  651MOL0     C87817   4.068   6.052   0.072  0.0846 -0.4830 -0.0480
  651MOL0     H87818   3.648   6.326  -0.072  2.4509 -0.5101  1.2715
  651MOL0     H87819   3.548   6.459  -0.210  0.1292 -1.8942  2.4403
  651MOL0     H87820   3.734   6.604  -0.629 -0.9815  3.0048  0.3263
  651MOL0     H87821   3.665   6.455  -0.581 -0.3573  0.3898  2.4325
  651MOL0     H87822   3.546   6.621  -0.758 -2.4136 -1.0279 -0.0561
  651MOL0     H87823   3.450   6.532  -0.653  0.5103 -0.3636 -1.6902
  651MOL0     H87824   3.354   6.739  -0.632 -0.1379 -0.0187 -0.3936
  651MOL0     H87825   3.444   6.724  -0.484  0.2630  1.8130 -0.1075
  651MOL0     H87826   3.630   6.863  -0.604 -0.0508  2.3626 -0.0078
  651MOL0     H87827   3.523   6.870  -0.741  1.5545  2.7435 -0.1984
  651MOL0     H87828   3.487   7.088  -0.605  2.5317  0.4072  1.2767
  651MOL0     H87829   3.346   6.973  -0.618 -0.0284  4.3117 -1.0230
  651MOL0     H87830   3.362   6.906  -0.403  2.6360 -3.1351 -2.2446
  651MOL0     H87831   3.535   6.974  -0.382  0.0095  1.1121  1.7280
  651MOL0     H87832   3.456   7.192  -0.393  2.7847 -3.5320 -0.1033
  651MOL0     H87833   3.278   7.142  -0.399  0.1905  1.0428  0.4918
  651MOL0     H87834   3.328   7.214  -0.174  1.0419  1.6466 -3.6199
  651MOL0     H87835   3.473   7.099  -0.169 -0.7431 -1.2739  2.5949
  651MOL0     H87836   3.098   7.127  -0.102  0.1525  1.1617 -2.4463
  651MOL0     H87837   2.909   6.938  -0.006 -1.9233 -1.4185  1.7982
  651MOL0     H87838   2.962   6.771  -0.013 -1.7050 -1.6439  3.5091
  651MOL0     H87839   3.038   6.782   0.205 -3.5105 -0.9524  1.6266
  651MOL0     H87840   2.891   6.887   0.189 -0.7325 -1.3013 -1.9948
  651MOL0     H87841   3.045   7.075   0.141 -2.2537 -0.5836  0.3704
  651MOL0     H87842   3.169   6.974   0.211 -0.0589 -1.2090  2.7189
  651MOL0     H87843   2.913   7.042   0.367 -0.1381 -1.3719  0.0380
  651MOL0     H87844   3.072   7.124   0.385  4.1500 -2.2470  0.6912
  651MOL0     H87845   2.916   7.130   0.576 -2.0694  0.3823  1.7051
  651MOL0     H87846   2.858   7.232   0.846 -1.5632  0.1593  0.6878
  651MOL0     H87847   2.755   7.196   0.704  1.6816 -1.5402 -1.4627
  651MOL0     H87848   2.709   7.133   0.851  0.8515  0.3081 -0.2857
  651MOL0     H87849   2.934   6.904   1.245 -4.2090 -2.2424 -0.7472
  651MOL0     H87850   2.890   6.982   1.495 -0.0354 -0.1844 -0.1255
  651MOL0     H87851   2.641   7.330   1.555 -0.6915 -0.6829 -1.0233
  651MOL0     H87852   2.531   7.193   1.555  2.2094 -0.5832 -4.2415
  651MOL0     H87853   2.702   7.257   1.798  0.1356 -1.6287 -0.9785
  651MOL0     H87854   2.537   7.317   1.797 -4.1334 -2.5349 -0.9356
  651MOL0     H87855   2.557   7.115   1.916 -3.7405  1.3777 -0.6168
  651MOL0     H87856   2.625   7.018   1.785  3.4440  1.1387  4.1900
  651MOL0     H87857   2.356   7.159   1.781  0.7524 -0.3485  1.0930
  651MOL0     H87858   2.396   7.018   1.686  2.0328 -1.5942  0.6948
  651MOL0     H87859   2.377   6.981   1.984 -1.5879 -1.9270  1.0359
  651MOL0     H87860   2.383   6.862   1.842  0.8775 -0.3447 -0.4448
  651MOL0     H87861   2.155   7.021   1.786  4.3662  3.9850 -0.3369
  651MOL0     H87862   2.166   6.869   1.892  5.3854 -1.5706  1.8607
  651MOL0     H87863   2.136   7.161   1.982 -0.6122  0.0312  0.8610
  651MOL0     H87864   2.172   7.033   2.090 -1.3849 -3.2844  0.2664
  651MOL0     H87865   1.977   6.912   2.027  1.7910 -0.4404 -0.6861
  651MOL0     H87866   1.947   7.015   1.895  0.9366 -2.9473 -1.4143
  651MOL0     H87867   2.583   7.242   1.355 -0.1293  1.0907 -0.4786
  651MOL0     H87868   2.643   7.212   1.130 -1.8627  0.9312 -0.0244
  651MOL0     H87869   2.961   6.709   0.837 -0.8213 -1.7457 -1.6250
  651MOL0     H87870   3.065   6.714   0.618 -0.6853 -0.5283  2.0769
  651MOL0     H87871   3.899   6.471  -0.463  1.6800 -2.9678  0.0775
  651MOL0     H87872   4.019   6.364  -0.281  0.4878  0.3255  1.9468
  651MOL0     H87873   4.218   6.338   0.180 -0.2344  0.0412  0.0251
  651MOL0     H87874   4.330   6.175   0.326  2.6075 -0.7627 -1.7990
  651MOL0     H87875   4.368   5.798   0.185 -0.6558 -1.0827  0.5636
  651MOL0     H87876   4.484   5.923   0.238 -0.2447  1.3675  1.0268
  651MOL0     H87877   4.371   5.682   0.414  0.4000 -0.2008  1.4400
  651MOL0     H87878   4.464   5.818   0.479 -0.0366  1.2673 -0.9919
  651MOL0     H87879   4.653   5.738   0.318  3.5663 -2.0778  2.4131
  651MOL0     H87880   4.550   5.594   0.290 -2.1984 -0.4698  1.0071
  651MOL0     H87881   4.699   5.528   0.447  2.5774  2.6500 -1.6417
  651MOL0     H87882   4.542   5.533   0.513  1.6353 -3.7381 -4.7700
  651MOL0     H87883   4.714   5.793   0.793 -0.7090  0.2550 -1.7220
  651MOL0     H87884   4.121   5.856   0.135  1.7066 -0.4592 -2.2949
  651MOL0     H87885   3.991   6.022   0.001 -1.9753  4.8432 -0.5733
  652MOL0     O87886   7.567   9.133   7.902 -0.6042  0.2524  0.1334
  652MOL0     C87887   7.682   9.103   7.938 -0.2737 -0.0065 -0.2151
  652MOL0     O87888   7.716   9.044   8.057  0.4533 -1.0082 -0.3604
  652MOL0     C87889   7.630   9.067   8.162 -0.6050 -0.4576 -0.4920
  652MOL0     C87890   7.695   9.105   8.278  0.2163  1.0577  1.5573
  652MOL0     C87891   7.621   9.126   8.395  0.3284  0.1567  0.7187
  652MOL0     C87892   7.488   9.091   8.403  0.7272  0.5737  0.4197
  652MOL0     O87893   7.417   9.083   8.516  0.4997  0.4327  0.0453
  652MOL0     C87894   7.476   9.092   8.644 -0.0444  0.1847 -0.8418
  652MOL0     C87895   7.371   9.123   8.747  0.5702 -0.5938 -0.0809
  652MOL0     C87896   7.418   9.110   8.888 -0.2707 -0.1763 -0.4696
  652MOL0     C87897   7.388   9.238   8.971 -0.3780  0.4636  0.3310
  652MOL0     C87898   7.361   9.189   9.118  1.3856  0.1487 -0.6892
  652MOL0     C87899   7.486   9.163   9.209 -0.3591  0.3385 -0.0180
  652MOL0     C87900   7.538   9.294   9.262 -0.1524  0.3754  0.7349
  652MOL0     C87901   7.677   9.274   9.328  0.4065  0.3976  0.6119
  652MOL0     N87902   7.698   9.324   9.461  0.5795  0.1580  0.1989
  652MOL0     C87903   7.674   9.451   9.488 -0.4041 -0.1273 -0.2993
  652MOL0     C87904   7.724   9.474   9.617 -0.4323 -0.4189  0.0890
  652MOL0     C87905   7.727   9.601   9.697  0.0532  0.7016 -0.0926
  652MOL0     C87906   7.686   9.737   9.624 -0.0048 -0.8654  0.0465
  652MOL0     C87907   7.711   9.869   9.712  0.9286 -0.1895 -0.0624
  652MOL0     C87908   7.683  10.009   9.643 -0.4539 -0.5190 -0.2974
  652MOL0     O87909   7.760  10.015   9.515 -0.7828 -0.2317  0.1533
  652MOL0     C87910   7.733  10.131   9.446  1.2004 -0.0278  0.4925
  652MOL0     C87911   7.606  10.195   9.433  0.4428  0.5640 -0.6934
  652MOL0     C87912   7.586  10.318   9.371 -0.7706 -0.4044 -0.4166
  652MOL0     C87913   7.446  10.388   9.365 -1.4045  0.3532  0.1833
  652MOL0     C87914   7.709  10.384   9.332 -0.6152 -0.1462  0.8306
  652MOL0     C87915   7.713  10.529   9.282  0.6215  0.2313 -1.1840
  652MOL0     O87916   7.661  10.541   9.156 -0.1320  0.0420 -0.2703
  652MOL0     C87917   7.632  10.668   9.110  0.4713  0.0252 -0.3894
  652MOL0     C87918   7.726  10.753   9.060 -0.3468  0.2458 -0.2991
  652MOL0     C87919   7.695  10.884   9.031 -0.0846  0.1771 -0.2265
  652MOL0     C87920   7.563  10.937   9.042 -0.2198  0.3237 -0.1705
  652MOL0     O87921   7.555  11.071   9.021  0.2193 -0.7050  0.2202
  652MOL0     C87922   7.462  11.146   9.091 -0.2230  0.0984  0.8547
  652MOL0     C87923   7.497  11.143   9.245 -0.0551  0.1863  0.5532
  652MOL0     C87924   7.392  11.206   9.333  0.3758  0.1839  0.8306
  652MOL0     C87925   7.387  11.148   9.473 -0.0094 -1.4958 -0.2806
  652MOL0     C87926   7.303  11.241   9.567 -0.4114 -0.2047 -0.7870
  652MOL0     C87927   7.162  11.194   9.582 -0.3596  0.1171 -0.6011
  652MOL0     C87928   7.082  11.263   9.692 -1.3996 -0.3650 -0.5721
  652MOL0     C87929   6.930  11.226   9.701  0.3969 -0.8595  0.4863
  652MOL0    Cl87930   6.841  11.287   9.545 -0.5493  0.3445 -0.4160
  652MOL0     C87931   7.461  10.849   9.086  0.2447  0.4408  0.7580
  652MOL0     C87932   7.498  10.713   9.130  0.4169  0.4261  0.6643
  652MOL0     O87933   7.759  10.620   9.349 -0.4665 -0.4399 -0.1223
  652MOL0     C87934   7.827  10.318   9.334  0.1602  0.6996 -0.8352
  652MOL0     C87935   7.845  10.194   9.387 -0.1429 -0.6070 -0.1973
  652MOL0     N87936   7.781   9.349   9.655  0.6112 -0.1608  0.4955
  652MOL0     N87937   7.766   9.259   9.561  0.1427 -0.5282  0.1265
  652MOL0     C87938   7.429   9.044   8.289  0.4857  1.1179  0.2464
  652MOL0     C87939   7.496   9.029   8.171 -0.2583  0.7410 -0.2300
  652MOL0     C87940   7.792   9.131   7.844 -0.4385 -0.3112  0.3258
  652MOL0     C87941   7.923   9.108   7.876 -0.1037  0.6605 -0.6767
  652MOL0     C87942   8.025   9.106   7.781 -1.1274  0.5960  0.8238
  652MOL0     C87943   8.003   9.154   7.645  0.5019  0.5493  0.7271
  652MOL0     O87944   8.117   9.157   7.563  0.0555 -0.2348 -0.7638
  652MOL0     C87945   8.102   9.234   7.444 -0.9658  0.4103 -0.3340
  652MOL0     C87946   8.241   9.221   7.379 -0.0763  0.4063  0.6179
  652MOL0     C87947   8.232   9.307   7.259 -0.0760  0.0210  0.4132
  652MOL0     C87948   8.360   9.316   7.175  0.2716 -0.5543  0.3510
  652MOL0     C87949   8.453   9.404   7.236 -0.1523 -0.3284 -1.6447
  652MOL0     C87950   8.517   9.487   7.313  0.4019  0.1704  0.0271
  652MOL0     C87951   7.871   9.184   7.612 -0.4297  0.4387 -0.0606
  652MOL0     C87952   7.769   9.169   7.705  0.3677  0.4721  0.2526
  652MOL0     H87953   7.799   9.134   8.273  0.2996  0.8236  1.8912
  652MOL0     H87954   7.682   9.161   8.478  0.0193 -1.1383  1.5358
  652MOL0     H87955   7.528   8.997   8.658 -0.9419 -0.5732 -2.3820
  652MOL0     H87956   7.549   9.174   8.648  3.0941 -2.4491  0.5308
  652MOL0     H87957   7.342   9.228   8.741 -0.5044 -0.8920 -0.2841
  652MOL0     H87958   7.284   9.061   8.724 -2.0064  2.7747 -0.1613
  652MOL0     H87959   7.382   9.020   8.939  1.2446 -3.1166 -4.1070
  652MOL0     H87960   7.525   9.088   8.881  0.1218  1.7004 -0.9727
  652MOL0     H87961   7.467   9.312   8.956 -1.1895  0.9681 -1.7235
  652MOL0     H87962   7.293   9.282   8.938  0.7013  2.9592  0.3435
  652MOL0     H87963   7.297   9.263   9.166  0.2270  0.6707 -2.9154
  652MOL0     H87964   7.298   9.100   9.127 -1.4477  2.2567  3.5104
  652MOL0     H87965   7.446   9.101   9.290  1.1158 -0.8106 -0.1197
  652MOL0     H87966   7.557   9.107   9.147 -0.3068 -0.2910  0.5990
  652MOL0     H87967   7.553   9.372   9.187  0.4506  0.2726  0.7364
  652MOL0     H87968   7.473   9.333   9.341  0.5203  0.6524  1.1650
  652MOL0     H87969   7.747   9.321   9.259  0.0188 -0.7472 -0.6181
  652MOL0     H87970   7.706   9.170   9.344 -0.3343 -0.4115 -2.5780
  652MOL0     H87971   7.649   9.536   9.425 -0.4581 -0.2149 -0.3968
  652MOL0     H87972   7.659   9.595   9.783  0.7245  2.7618  0.6368
  652MOL0     H87973   7.827   9.613   9.739 -0.5039 -0.1322  1.5562
  652MOL0     H87974   7.577   9.724   9.613 -0.1573 -0.1086  0.5941
  652MOL0     H87975   7.728   9.744   9.523 -1.9061 -4.0595 -1.1187
  652MOL0     H87976   7.817   9.882   9.738 -0.1584  2.2989  4.0571
  652MOL0     H87977   7.656   9.870   9.807  2.0177  1.1725  0.5888
  652MOL0     H87978   7.717  10.087   9.711 -0.0108 -1.9285  1.1523
  652MOL0     H87979   7.577  10.034   9.630 -0.4796 -1.3087 -1.9577
  652MOL0     H87980   7.519  10.143   9.471  1.7099 -1.4915 -0.4434
  652MOL0     H87981   7.375  10.349   9.439 -0.7856 -0.1742  0.5052
  652MOL0     H87982   7.451  10.495   9.383 -0.5535  0.5074 -0.8781
  652MOL0     H87983   7.403  10.372   9.265  0.1772 -1.5109 -0.2641
  652MOL0     H87984   7.826  10.712   9.052 -0.1826  0.5635  0.0726
  652MOL0     H87985   7.763  10.959   8.991  2.3120 -0.9776  1.4129
  652MOL0     H87986   7.461  11.254   9.076  1.9332  0.4392  2.5798
  652MOL0     H87987   7.359  11.109   9.083 -0.2113  0.5304 -3.3444
  652MOL0     H87988   7.502  11.039   9.276 -1.6070  0.5834  2.2622
  652MOL0     H87989   7.596  11.183   9.268  2.0820 -3.0778 -1.9310
  652MOL0     H87990   7.294  11.183   9.292  0.0456  3.2799 -0.3482
  652MOL0     H87991   7.395  11.314   9.352 -4.3311  0.4259  1.3873
  652MOL0     H87992   7.340  11.050   9.463 -0.5827 -1.6017  2.5837
  652MOL0     H87993   7.487  11.145   9.515  0.8381  1.7795 -1.7446
  652MOL0     H87994   7.313  11.344   9.530  0.3451 -0.1585 -0.4662
  652MOL0     H87995   7.346  11.244   9.668  0.8741  2.3429 -1.3181
  652MOL0     H87996   7.118  11.197   9.482 -0.2557 -0.4978 -0.6725
  652MOL0     H87997   7.174  11.090   9.613 -1.9247 -0.2108 -1.0194
  652MOL0     H87998   7.100  11.371   9.682 -0.2351 -0.3181  1.3753
  652MOL0     H87999   7.125  11.243   9.791 -0.7201  1.1346 -0.5371
  652MOL0     H88000   6.883  11.268   9.791 -0.2344  0.7908 -0.5616
  652MOL0     H88001   6.917  11.118   9.706 -2.9490 -0.5641  0.0908
  652MOL0     H88002   7.360  10.885   9.104 -0.4087 -0.4237 -0.9793
  652MOL0     H88003   7.433  10.630   9.155  3.4178 -2.3828 -0.1725
  652MOL0     H88004   7.921  10.359   9.298  1.3412 -1.5410 -0.4691
  652MOL0     H88005   7.950  10.171   9.397  0.5835  2.4110  0.2096
  652MOL0     H88006   7.322   9.025   8.284  0.8691 -0.9083 -1.8032
  652MOL0     H88007   7.450   9.011   8.074 -2.9326  2.2948  0.6330
  652MOL0     H88008   7.944   9.087   7.981  1.4680  0.1685 -1.0495
  652MOL0     H88009   8.124   9.078   7.817 -1.0465 -0.4200 -0.1381
  652MOL0     H88010   8.019   9.208   7.377 -2.4283  2.0968  0.7090
  652MOL0     H88011   8.082   9.338   7.470 -0.1224  0.2521  0.9981
  652MOL0     H88012   8.234   9.115   7.354  3.1891  0.0209  0.9410
  652MOL0     H88013   8.322   9.233   7.451  0.3946 -0.3344  0.2117
  652MOL0     H88014   8.209   9.409   7.292  3.7538  1.0019  0.4497
  652MOL0     H88015   8.153   9.268   7.194  1.2872 -2.3659  0.0784
  652MOL0     H88016   8.325   9.358   7.080  0.4212 -0.4698  0.3337
  652MOL0     H88017   8.399   9.215   7.160  2.6902  0.3710 -0.1110
  652MOL0     H88018   8.578   9.571   7.338  0.1679  0.3566 -0.0286
  652MOL0     H88019   7.848   9.217   7.511  1.8728  3.1907  0.1967
  652MOL0     H88020   7.663   9.178   7.682  0.4897 -2.5625 -2.2022
  653MOL0     O88021  10.371   4.919   3.468 -0.3602  0.6921  0.3115
  653MOL0     C88022  10.486   4.957   3.491 -0.0691 -0.0478  0.7288
  653MOL0     O88023  10.516   5.071   3.554  0.7188  0.1350  0.2963
  653MOL0     C88024  10.408   5.145   3.605  0.2273  0.5882 -0.4345
  653MOL0     C88025  10.317   5.196   3.512 -0.2983 -0.7210 -0.8765
  653MOL0     C88026  10.209   5.274   3.565  0.4030  0.0305  0.2792
  653MOL0     C88027  10.199   5.302   3.704 -1.4705 -0.0718  0.4606
  653MOL0     O88028  10.095   5.359   3.768 -0.3764 -0.1165 -1.2112
  653MOL0     C88029   9.986   5.403   3.693  0.2219  0.0996 -0.2850
  653MOL0     C88030   9.904   5.508   3.765 -0.4230 -0.1214  0.4570
  653MOL0     C88031   9.981   5.646   3.749 -0.6720  0.4523  0.4100
  653MOL0     C88032   9.890   5.775   3.768 -1.2042 -0.5612 -0.3089
  653MOL0     C88033   9.988   5.891   3.777  0.1034 -0.2154 -0.7538
  653MOL0     C88034   9.921   6.026   3.760 -0.0421  0.1698  0.6499
  653MOL0     C88035  10.005   6.148   3.812 -0.5374 -0.1859  0.3558
  653MOL0     C88036   9.930   6.278   3.811 -0.2137 -0.5745  0.3244
  653MOL0     N88037   9.923   6.332   3.678  0.1728 -0.0668 -0.1834
  653MOL0     C88038   9.859   6.280   3.566 -0.4194  0.8636  1.0035
  653MOL0     C88039   9.899   6.372   3.466  0.0919 -0.8371  0.0910
  653MOL0     C88040   9.865   6.391   3.320  0.1343  0.0354 -0.0529
  653MOL0     C88041   9.715   6.418   3.296 -0.1356  0.2908  0.0729
  653MOL0     C88042   9.680   6.560   3.328 -0.4146 -0.8592 -1.3124
  653MOL0     C88043   9.522   6.589   3.312  0.1721 -0.0049 -0.4726
  653MOL0     O88044   9.477   6.599   3.172  0.1521 -0.5303 -1.2422
  653MOL0     C88045   9.545   6.680   3.087  0.7614  0.1769 -0.2729
  653MOL0     C88046   9.568   6.823   3.112 -0.3205  1.1154 -0.6228
  653MOL0     C88047   9.626   6.897   3.013 -0.0794  0.4492  0.6313
  653MOL0     C88048   9.652   7.037   3.047  0.2909 -0.2446 -0.0755
  653MOL0     C88049   9.666   6.830   2.892 -0.8687 -0.1184 -0.1066
  653MOL0     C88050   9.738   6.907   2.784  1.6013  0.1764  1.2835
  653MOL0     O88051   9.695   7.040   2.762 -0.6863 -0.3627  0.2932
  653MOL0     C88052   9.768   7.118   2.677 -0.3821  1.0281  1.1181
  653MOL0     C88053   9.866   7.202   2.728  0.0648  0.9352  0.9527
  653MOL0     C88054   9.937   7.277   2.629  0.1445  0.0169 -0.2518
  653MOL0     C88055   9.911   7.277   2.498  0.4628  0.8080  0.2265
  653MOL0     O88056   9.983   7.354   2.419 -0.3918  0.2426  0.1076
  653MOL0     C88057   9.922   7.484   2.405  0.3306 -0.1759 -1.2803
  653MOL0     C88058   9.995   7.553   2.281  0.2477 -0.1707  0.1008
  653MOL0     C88059   9.917   7.681   2.247  0.1956  0.6322  0.5227
  653MOL0     C88060   9.960   7.741   2.114  0.2651  0.6591  0.2119
  653MOL0     C88061  10.075   7.846   2.127  0.4672  0.1955  0.2622
  653MOL0     C88062  10.146   7.853   1.986  0.2822  1.0558 -0.2449
  653MOL0     C88063  10.271   7.943   1.975  0.2444  0.5210 -0.0627
  653MOL0     C88064  10.303   8.028   2.096  0.7355 -0.2730  0.0935
  653MOL0    Cl88065  10.452   8.119   2.044  0.2566 -0.0146  0.2380
  653MOL0     C88066   9.812   7.191   2.447  0.9422  0.4706  0.1536
  653MOL0     C88067   9.748   7.107   2.537 -0.8238  0.2181 -0.3790
  653MOL0     O88068   9.829   6.851   2.726 -1.9577 -0.3018  0.1017
  653MOL0     C88069   9.651   6.686   2.880 -0.0677 -0.0090 -0.3157
  653MOL0     C88070   9.589   6.606   2.973  0.0020  0.2831 -0.2076
  653MOL0     N88071   9.976   6.466   3.522 -0.4224 -0.8584 -0.0455
  653MOL0     N88072   9.989   6.443   3.645 -0.1057 -1.1151 -0.5505
  653MOL0     C88073  10.296   5.267   3.788  0.4325 -0.4606  0.6857
  653MOL0     C88074  10.402   5.179   3.743  0.5726 -0.2109 -0.5061
  653MOL0     C88075  10.596   4.881   3.439 -0.2731 -0.1646 -0.2727
  653MOL0     C88076  10.712   4.865   3.510 -0.9155  0.9716 -0.3730
  653MOL0     C88077  10.821   4.789   3.453  0.7798  1.1046 -0.5676
  653MOL0     C88078  10.813   4.728   3.327 -0.4950 -0.1948 -0.2675
  653MOL0     O88079  10.924   4.678   3.275 -0.6661 -0.2308  0.5717
  653MOL0     C88080  11.012   4.608   3.364  0.2791 -0.2651  0.0973
  653MOL0     C88081  11.089   4.502   3.276 -0.9691  0.6987 -0.3528
  653MOL0     C88082  11.182   4.426   3.375  0.4398 -0.2885 -0.0069
  653MOL0     C88083  11.297   4.342   3.303 -0.2384 -1.2126 -0.4040
  653MOL0     C88084  11.256   4.244   3.209  0.3894  0.2275 -0.0865
  653MOL0     C88085  11.211   4.151   3.145 -0.7060  0.1406 -0.3412
  653MOL0     C88086  10.688   4.739   3.262 -0.5088  0.0428 -0.1105
  653MOL0     C88087  10.585   4.819   3.322 -0.0896  0.3532  0.9373
  653MOL0     H88088  10.330   5.181   3.405 -2.0557  1.3052 -1.4400
  653MOL0     H88089  10.125   5.291   3.499 -0.3195  0.5209  1.3100
  653MOL0     H88090  10.013   5.438   3.593 -4.1296 -1.1265 -2.1465
  653MOL0     H88091   9.914   5.320   3.689  1.1329 -0.7465  0.3302
  653MOL0     H88092   9.809   5.523   3.713 -1.8245  0.5313  3.0018
  653MOL0     H88093   9.889   5.490   3.872 -1.7961 -1.5198  0.0646
  653MOL0     H88094  10.073   5.655   3.808 -1.4537 -1.0868  1.9520
  653MOL0     H88095  10.020   5.653   3.647  1.7699 -0.2846  1.2271
  653MOL0     H88096   9.838   5.800   3.675 -1.1896  0.8155  0.0169
  653MOL0     H88097   9.828   5.777   3.858 -1.2161 -1.6713 -0.2853
  653MOL0     H88098  10.026   5.888   3.880  0.2517  0.4103 -0.7911
  653MOL0     H88099  10.078   5.889   3.714  1.2878  1.6730  0.7767
  653MOL0     H88100   9.883   6.036   3.659 -2.8549  0.1926  1.6251
  653MOL0     H88101   9.829   6.030   3.819 -0.4430  2.1086 -0.0497
  653MOL0     H88102  10.042   6.137   3.914  0.3006 -0.5203  0.0258
  653MOL0     H88103  10.092   6.166   3.749 -1.8628  1.4009 -1.1230
  653MOL0     H88104   9.979   6.351   3.876  0.3132 -2.2066  1.8660
  653MOL0     H88105   9.828   6.270   3.851 -0.7118 -0.0539 -0.8126
  653MOL0     H88106   9.805   6.186   3.559  1.0566  0.0054  0.7199
  653MOL0     H88107   9.929   6.475   3.291  2.5982 -0.6908  2.6976
  653MOL0     H88108   9.886   6.296   3.270 -2.8957  0.5551 -2.6278
  653MOL0     H88109   9.660   6.337   3.344  1.8254 -0.7615  0.6622
  653MOL0     H88110   9.694   6.407   3.189 -1.3224  1.7496  0.1292
  653MOL0     H88111   9.730   6.627   3.259 -2.1379 -0.4596 -2.2275
  653MOL0     H88112   9.696   6.582   3.434 -2.1372 -2.3081 -0.7016
  653MOL0     H88113   9.504   6.676   3.377 -0.8125  0.9027 -1.9023
  653MOL0     H88114   9.478   6.506   3.368 -0.7896 -0.5132 -1.9259
  653MOL0     H88115   9.542   6.866   3.208  0.8563  1.7679 -0.5824
  653MOL0     H88116   9.745   7.071   2.999  0.5761 -1.5555 -0.4816
  653MOL0     H88117   9.573   7.106   3.015  1.7675  1.6635  0.1878
  653MOL0     H88118   9.665   7.051   3.154 -2.4606  0.9936  0.1765
  653MOL0     H88119   9.893   7.201   2.833  1.4114  0.1347  0.6143
  653MOL0     H88120  10.022   7.337   2.661  0.8987 -1.9180  1.5929
  653MOL0     H88121   9.815   7.471   2.384 -0.8155 -3.1569  4.3898
  653MOL0     H88122   9.932   7.537   2.500 -1.6721  0.4413 -1.3680
  653MOL0     H88123  10.091   7.587   2.323  0.4484 -0.8988  0.2542
  653MOL0     H88124  10.003   7.491   2.191  2.1902 -1.0380  0.8047
  653MOL0     H88125   9.899   7.757   2.324 -1.3575  0.0061  0.8167
  653MOL0     H88126   9.816   7.645   2.223 -0.6334  2.8900  0.4126
  653MOL0     H88127  10.001   7.664   2.049  0.2509  2.0295 -1.4970
  653MOL0     H88128   9.873   7.785   2.065 -0.0573 -0.4056 -0.2004
  653MOL0     H88129  10.142   7.820   2.209  0.9997  0.7415  0.0052
  653MOL0     H88130  10.041   7.943   2.165 -1.0794 -0.4404  0.5898
  653MOL0     H88131  10.181   7.757   1.949 -1.6772  0.1721  0.0632
  653MOL0     H88132  10.083   7.900   1.909  0.9534 -1.0078 -2.1292
  653MOL0     H88133  10.248   8.009   1.891 -1.8111 -0.1369 -0.0554
  653MOL0     H88134  10.359   7.888   1.941  1.2258  1.5840  0.6849
  653MOL0     H88135  10.326   7.957   2.175 -2.1217 -1.6396 -0.1539
  653MOL0     H88136  10.219   8.095   2.117 -0.0050 -0.7193 -1.2797
  653MOL0     H88137   9.801   7.175   2.340  2.2975  1.8506 -0.2193
  653MOL0     H88138   9.669   7.045   2.494 -3.2633  2.6705  0.2392
  653MOL0     H88139   9.682   6.639   2.787  0.5706 -1.7362  0.7236
  653MOL0     H88140   9.565   6.501   2.965  0.0786  0.1513  1.0582
  653MOL0     H88141  10.282   5.296   3.891 -0.2110 -1.6243  0.9512
  653MOL0     H88142  10.484   5.151   3.808  0.5708 -1.6238 -1.0788
  653MOL0     H88143  10.731   4.908   3.608 -2.9200 -2.4075  1.7321
  653MOL0     H88144  10.908   4.794   3.519  0.6382  0.4398 -0.3199
  653MOL0     H88145  11.085   4.674   3.412  1.5343 -2.3507  1.2372
  653MOL0     H88146  10.958   4.559   3.446 -1.1062  2.4928  0.9692
  653MOL0     H88147  11.150   4.548   3.197  2.1353 -2.8296 -0.3152
  653MOL0     H88148  11.021   4.433   3.225  0.0444  0.9996 -2.2079
  653MOL0     H88149  11.112   4.369   3.437  1.1810 -2.2271 -0.8641
  653MOL0     H88150  11.244   4.495   3.432  2.0900 -0.8772 -1.0172
  653MOL0     H88151  11.361   4.309   3.386  1.6821  2.5247 -0.1650
  653MOL0     H88152  11.358   4.416   3.250 -1.0709  0.4893  0.9297
  653MOL0     H88153  11.176   4.071   3.084 -1.7293  0.2113  0.1342
  653MOL0     H88154  10.666   4.686   3.170 -1.0258 -1.1838  0.6931
  653MOL0     H88155  10.486   4.824   3.276  1.4916 -0.6681 -3.0650
  654MOL0     O88156   0.008   7.384   1.431  0.8838  0.5575 -0.1575
  654MOL0     C88157   0.123   7.418   1.437 -0.9651 -0.2090 -0.7357
  654MOL0     O88158   0.174   7.529   1.512  0.7946  0.8154  0.2932
  654MOL0     C88159   0.093   7.588   1.600 -0.4784 -0.1665  0.2702
  654MOL0     C88160   0.079   7.728   1.605 -0.0797  0.6912  0.8156
  654MOL0     C88161   0.012   7.788   1.719  0.3129 -0.3794  0.3785
  654MOL0     C88162  -0.054   7.708   1.810  0.0853 -0.2302 -0.6854
  654MOL0     O88163  -0.119   7.759   1.915  0.3889 -0.2637  0.2526
  654MOL0     C88164  -0.233   7.696   1.954  0.6319 -0.0400  0.1418
  654MOL0     C88165  -0.348   7.793   1.974 -0.8588  0.5885 -1.1036
  654MOL0     C88166  -0.341   7.891   2.094 -1.0084  0.3147 -0.9048
  654MOL0     C88167  -0.369   7.812   2.226  0.3562 -0.9051 -0.5210
  654MOL0     C88168  -0.438   7.897   2.333 -0.2951  0.3545 -0.5030
  654MOL0     C88169  -0.461   7.819   2.457 -0.6125 -0.0191  0.6111
  654MOL0     C88170  -0.585   7.729   2.453 -0.2036  1.3989 -0.7686
  654MOL0     C88171  -0.711   7.803   2.487 -0.4926 -1.3220  0.2226
  654MOL0     N88172  -0.837   7.727   2.518  0.2559  0.2393  0.4152
  654MOL0     C88173  -0.937   7.693   2.429 -0.0078 -0.9227  0.6037
  654MOL0     C88174  -1.031   7.637   2.495 -1.0091  0.5347  0.5271
  654MOL0     C88175  -1.168   7.588   2.446 -0.2339  0.1478 -0.4422
  654MOL0     C88176  -1.236   7.475   2.527 -0.4825  0.0719  0.3665
  654MOL0     C88177  -1.143   7.347   2.507  0.5434 -0.8239 -1.0468
  654MOL0     C88178  -1.214   7.214   2.554 -0.2622  0.1333 -0.6420
  654MOL0     O88179  -1.168   7.104   2.470  0.1958 -0.1361 -0.1217
  654MOL0     C88180  -1.210   6.975   2.513 -0.2420 -0.0004 -0.5366
  654MOL0     C88181  -1.143   6.873   2.436  0.4567 -0.5705 -0.6087
  654MOL0     C88182  -1.170   6.741   2.460 -0.0211 -0.7130 -0.4563
  654MOL0     C88183  -1.113   6.631   2.375  0.0607 -0.0337 -0.2670
  654MOL0     C88184  -1.260   6.712   2.577 -0.3249 -0.0659  0.7959
  654MOL0     C88185  -1.279   6.574   2.630 -1.0910  0.7546 -0.1429
  654MOL0     O88186  -1.412   6.537   2.634 -0.2271  0.0793 -0.7328
  654MOL0     C88187  -1.442   6.439   2.722 -0.5527 -0.5944  0.8580
  654MOL0     C88188  -1.499   6.488   2.836 -0.8623 -0.6507  1.2572
  654MOL0     C88189  -1.542   6.405   2.934  0.8788 -0.0063  0.4031
  654MOL0     C88190  -1.526   6.270   2.941 -0.1368  0.9780  0.8570
  654MOL0     O88191  -1.559   6.206   3.053 -0.1314  0.5514  0.1579
  654MOL0     C88192  -1.523   6.069   3.048  0.3443  0.6071 -0.4824
  654MOL0     C88193  -1.567   5.997   3.179 -0.3550 -0.0525  0.4650
  654MOL0     C88194  -1.725   5.968   3.187 -0.1558 -0.0423  0.1901
  654MOL0     C88195  -1.759   5.971   3.330  0.0142  0.0735  0.2983
  654MOL0     C88196  -1.916   5.957   3.343 -0.5814  0.0722  0.0982
  654MOL0     C88197  -1.943   5.900   3.484  0.8198  0.3571 -0.0380
  654MOL0     C88198  -2.097   5.892   3.488  0.1110 -0.5056 -1.3225
  654MOL0     C88199  -2.170   5.765   3.431 -0.1625 -1.0204 -0.2620
  654MOL0    Cl88200  -2.345   5.783   3.477  0.1511 -0.1822  0.1907
  654MOL0     C88201  -1.462   6.212   2.825  1.3507  0.3265  0.7445
  654MOL0     C88202  -1.429   6.300   2.712 -0.4065 -0.1450 -0.2112
  654MOL0     O88203  -1.182   6.503   2.671  0.5737 -0.4112 -0.3172
  654MOL0     C88204  -1.308   6.812   2.653  0.1341  0.0093  0.0620
  654MOL0     C88205  -1.290   6.946   2.624 -0.1436 -0.4731 -0.4461
  654MOL0     N88206  -0.987   7.617   2.628 -0.7997  0.1407  0.9579
  654MOL0     N88207  -0.873   7.683   2.639  0.1882  0.4544 -1.1893
  654MOL0     C88208  -0.035   7.570   1.802 -0.4023  0.1864  0.2039
  654MOL0     C88209   0.041   7.509   1.707  0.3889  0.0826  0.1898
  654MOL0     C88210   0.222   7.320   1.387  1.0194  0.5775  0.6215
  654MOL0     C88211   0.194   7.188   1.361  0.0849  0.6839 -0.5625
  654MOL0     C88212   0.305   7.100   1.327 -0.0096 -1.1694 -0.0388
  654MOL0     C88213   0.434   7.142   1.345 -0.1688 -0.8885 -0.6681
  654MOL0     O88214   0.538   7.055   1.325  0.0730  0.0293 -0.0954
  654MOL0     C88215   0.596   6.992   1.439  0.1904  0.5648 -0.3367
  654MOL0     C88216   0.742   6.979   1.396 -0.2724  1.0033  0.1930
  654MOL0     C88217   0.807   7.127   1.379  0.3677  0.5138 -1.3402
  654MOL0     C88218   0.964   7.129   1.371 -0.1067  1.3214  0.1238
  654MOL0     C88219   1.002   7.087   1.230  1.1164  0.1833 -0.2623
  654MOL0     C88220   1.031   7.030   1.128 -0.5624  0.7142 -0.4353
  654MOL0     C88221   0.460   7.274   1.378 -0.1754  0.3884 -0.6153
  654MOL0     C88222   0.357   7.359   1.397  0.1341  0.5476 -0.5704
  654MOL0     H88223   0.122   7.780   1.521 -0.3245  0.6764  0.6811
  654MOL0     H88224   0.006   7.897   1.722  0.4021 -0.2564 -2.1189
  654MOL0     H88225  -0.268   7.612   1.893 -2.6941  0.1396  1.6009
  654MOL0     H88226  -0.214   7.652   2.052  0.3742 -2.5742 -0.8675
  654MOL0     H88227  -0.359   7.860   1.889 -2.4029  1.6590 -0.1112
  654MOL0     H88228  -0.435   7.727   1.980  0.8668 -1.6556  2.2958
  654MOL0     H88229  -0.251   7.952   2.108 -1.1296  0.2484  0.2799
  654MOL0     H88230  -0.422   7.963   2.088 -0.8130  0.8661  1.6231
  654MOL0     H88231  -0.431   7.725   2.206  0.2571 -0.5454 -1.8542
  654MOL0     H88232  -0.278   7.772   2.273 -0.8772 -1.4828  1.4720
  654MOL0     H88233  -0.377   7.983   2.362 -2.7514  2.0181  0.0707
  654MOL0     H88234  -0.535   7.930   2.295 -0.1451  0.9803 -0.3437
  654MOL0     H88235  -0.369   7.762   2.471 -1.3975 -1.2642  0.9188
  654MOL0     H88236  -0.455   7.886   2.544 -0.9671 -0.9290  1.3620
  654MOL0     H88237  -0.592   7.687   2.352  1.8206 -3.0039  0.6495
  654MOL0     H88238  -0.581   7.642   2.520 -4.5049  2.2801  0.9568
  654MOL0     H88239  -0.739   7.877   2.411  1.1487 -2.1464 -1.2468
  654MOL0     H88240  -0.690   7.862   2.577 -0.7197  0.7771 -1.0137
  654MOL0     H88241  -0.947   7.717   2.323 -2.0195  1.2417  1.1918
  654MOL0     H88242  -1.226   7.678   2.465 -3.5159 -1.0736 -3.5562
  654MOL0     H88243  -1.182   7.579   2.338  0.4856  0.8743 -0.6019
  654MOL0     H88244  -1.338   7.457   2.492 -1.4717  2.1917  1.9402
  654MOL0     H88245  -1.237   7.519   2.627  1.0833  2.6218 -0.6292
  654MOL0     H88246  -1.047   7.353   2.558 -2.2236  3.5609  4.8692
  654MOL0     H88247  -1.126   7.329   2.400 -0.4751 -2.0992 -1.0237
  654MOL0     H88248  -1.322   7.223   2.539 -0.5692 -0.7266  0.9044
  654MOL0     H88249  -1.190   7.201   2.660 -2.2426  3.3534  0.3505
  654MOL0     H88250  -1.063   6.909   2.372  2.8086 -0.1139  2.3683
  654MOL0     H88251  -1.178   6.553   2.333 -3.0560  2.0705  0.2787
  654MOL0     H88252  -1.039   6.675   2.309 -0.3471  1.2319  0.1027
  654MOL0     H88253  -1.042   6.576   2.437  1.2983  1.8722  0.0585
  654MOL0     H88254  -1.515   6.592   2.861  0.9677 -0.0104 -0.0370
  654MOL0     H88255  -1.582   6.454   3.022 -1.8797  1.1124 -1.3482
  654MOL0     H88256  -1.571   6.022   2.961  2.0391  1.7662 -2.1258
  654MOL0     H88257  -1.415   6.059   3.031  0.1648  0.6206 -1.7659
  654MOL0     H88258  -1.518   5.900   3.183 -0.5627 -0.3857 -2.6291
  654MOL0     H88259  -1.532   6.051   3.267  0.8319 -0.9245  0.5486
  654MOL0     H88260  -1.738   5.881   3.122 -0.3821  0.2709 -0.1905
  654MOL0     H88261  -1.775   6.052   3.138  0.1984 -1.1953 -2.3120
  654MOL0     H88262  -1.702   5.890   3.375 -1.1118 -1.8800 -1.5955
  654MOL0     H88263  -1.716   6.063   3.372  2.5574 -1.0329  0.3302
  654MOL0     H88264  -1.956   5.878   3.279 -0.2919  1.1879 -1.5171
  654MOL0     H88265  -1.963   6.055   3.326 -0.4077  0.0689 -0.4050
  654MOL0     H88266  -1.904   5.801   3.511  2.1003  0.6329 -0.7816
  654MOL0     H88267  -1.896   5.970   3.554  3.6727 -1.9421  0.5615
  654MOL0     H88268  -2.145   5.981   3.447  0.3940 -0.5101 -1.6772
  654MOL0     H88269  -2.138   5.897   3.589 -2.2985  1.2573 -2.3036
  654MOL0     H88270  -2.131   5.672   3.474  0.7137 -0.9569 -0.9043
  654MOL0     H88271  -2.164   5.765   3.322 -0.8401 -2.2498 -0.3171
  654MOL0     H88272  -1.444   6.106   2.812 -2.4966 -0.2339 -1.7030
  654MOL0     H88273  -1.381   6.255   2.626  3.5996 -1.2121  2.3171
  654MOL0     H88274  -1.370   6.781   2.736 -0.3488  0.1564 -0.2387
  654MOL0     H88275  -1.345   7.033   2.659 -0.5002 -0.2527 -1.5250
  654MOL0     H88276  -0.064   7.496   1.876  0.9037 -1.2420 -0.6641
  654MOL0     H88277   0.052   7.401   1.709 -0.6088 -0.0372  2.3004
  654MOL0     H88278   0.100   7.137   1.376  0.9965 -1.4722 -1.6510
  654MOL0     H88279   0.275   6.999   1.298  2.9217 -2.4381  0.9356
  654MOL0     H88280   0.575   7.032   1.539 -1.9561  0.3429 -0.6487
  654MOL0     H88281   0.578   6.884   1.442  2.0837  0.2187  2.1180
  654MOL0     H88282   0.749   6.919   1.305  0.5403  1.2421  0.0845
  654MOL0     H88283   0.789   6.920   1.475 -0.8914  0.3256  0.0625
  654MOL0     H88284   0.774   7.179   1.469 -1.1053  1.5704 -2.4572
  654MOL0     H88285   0.758   7.174   1.293  3.7534  3.1210 -2.0476
  654MOL0     H88286   1.016   7.071   1.448  1.0958  1.7270 -0.3561
  654MOL0     H88287   0.999   7.232   1.388  1.1668  0.5970  2.1961
  654MOL0     H88288   1.054   6.979   1.037  3.4414  0.9993  0.2516
  654MOL0     H88289   0.561   7.309   1.397  1.4667 -2.7487 -2.7977
  654MOL0     H88290   0.386   7.459   1.428 -0.8378  0.9832 -1.0136
  655MOL0     O88291   7.343  10.488   9.894 -0.3516 -0.5784 -0.1613
  655MOL0     C88292   7.361  10.602   9.865  0.1795  0.1371  0.0220
  655MOL0     O88293   7.481  10.663   9.845  0.3189  0.2660  0.1667
  655MOL0     C88294   7.595  10.585   9.849  0.2602  0.2079  0.3874
  655MOL0     C88295   7.680  10.575   9.958  0.4259 -0.4333 -0.3472
  655MOL0     C88296   7.797  10.492   9.956 -0.3866 -0.0506 -0.6638
  655MOL0     C88297   7.823  10.423   9.833 -0.1425  1.3520 -0.2761
  655MOL0     O88298   7.936  10.341   9.847  0.3822  0.2523  1.2269
  655MOL0     C88299   7.996  10.291   9.726  0.0085 -1.0863  0.5935
  655MOL0     C88300   8.137  10.230   9.748 -0.6218 -0.0506 -0.1680
  655MOL0     C88301   8.131  10.082   9.799 -0.3900 -0.3014  0.5259
  655MOL0     C88302   8.240  10.001   9.731  0.1032  0.5057 -0.4935
  655MOL0     C88303   8.203   9.929   9.603  0.0091  1.0042  0.8050
  655MOL0     C88304   8.318   9.834   9.545  0.0983  0.4683 -0.0505
  655MOL0     C88305   8.458   9.896   9.564  0.3867  0.2864 -0.1852
  655MOL0     C88306   8.566   9.818   9.502  0.3130  0.7104 -0.0244
  655MOL0     N88307   8.666   9.898   9.440  0.0887  1.4148 -0.4706
  655MOL0     C88308   8.793   9.909   9.486 -0.4688 -0.2718  0.5550
  655MOL0     C88309   8.859   9.975   9.388 -0.0152  0.6425  0.4698
  655MOL0     C88310   8.995  10.016   9.407 -0.3394 -0.2607  0.0277
  655MOL0     C88311   9.025  10.162   9.390  0.4625  0.7017  0.0462
  655MOL0     C88312   8.985  10.229   9.268  0.4774  0.4416  0.8093
  655MOL0     C88313   9.069  10.350   9.232 -0.0606 -0.7328 -0.3533
  655MOL0     O88314   9.038  10.453   9.339 -0.8584  0.4591  0.5570
  655MOL0     C88315   9.074  10.582   9.315  0.1592  0.3034  0.5087
  655MOL0     C88316   9.031  10.677   9.405  0.3766  1.3376  0.0499
  655MOL0     C88317   9.054  10.805   9.387 -0.1406  0.0596 -0.0732
  655MOL0     C88318   8.982  10.893   9.494  0.3688 -0.3448 -0.3426
  655MOL0     C88319   9.127  10.855   9.283 -0.1138 -0.7410  0.0980
  655MOL0     C88320   9.158  11.002   9.257  0.3957  0.3759  0.0218
  655MOL0     O88321   9.109  11.102   9.332 -0.1598 -0.9801  0.3910
  655MOL0     C88322   9.115  11.238   9.292 -0.0894 -0.0134  0.0806
  655MOL0     C88323   9.222  11.311   9.334 -0.1377 -0.0482 -0.2622
  655MOL0     C88324   9.218  11.445   9.298  0.2478 -0.2250  0.2599
  655MOL0     C88325   9.131  11.494   9.206 -0.1712 -0.5711  0.6363
  655MOL0     O88326   9.150  11.619   9.147 -1.0762 -0.0576  0.1002
  655MOL0     C88327   9.224  11.604   9.025 -0.3793  0.0417 -0.0189
  655MOL0     C88328   9.138  11.646   8.915  0.3888  0.0838  0.4728
  655MOL0     C88329   9.101  11.800   8.925 -0.2198  0.2309 -0.0041
  655MOL0     C88330   9.206  11.893   8.980  0.0566 -0.1050  0.0156
  655MOL0     C88331   9.165  12.036   8.949  1.0197  0.0053  0.2168
  655MOL0     C88332   9.280  12.131   8.942 -0.2848 -1.1311  0.2244
  655MOL0     C88333   9.370  12.127   9.068  0.3859 -0.5561 -0.3417
  655MOL0     C88334   9.476  12.233   9.039  0.7190  0.5606 -0.3970
  655MOL0    Cl88335   9.583  12.245   9.185 -0.2548 -0.0070  0.0260
  655MOL0     C88336   9.023  11.416   9.167  0.0328 -0.2682 -0.4073
  655MOL0     C88337   9.011  11.290   9.207 -0.0954  1.1719 -0.8875
  655MOL0     O88338   9.240  11.026   9.167  0.1024  0.4016  1.0972
  655MOL0     C88339   9.170  10.763   9.190  0.4701 -0.0156  0.4526
  655MOL0     C88340   9.153  10.624   9.206  0.3570 -0.2364  0.3092
  655MOL0     N88341   8.759  10.002   9.296 -0.4000  0.3833  0.3492
  655MOL0     N88342   8.648   9.955   9.321 -0.2384 -0.0648 -0.2342
  655MOL0     C88343   7.736  10.435   9.721 -0.2255  1.7700 -0.0047
  655MOL0     C88344   7.630  10.516   9.732  0.5554  0.1662 -0.2485
  655MOL0     C88345   7.249  10.693   9.885  0.4069 -0.7943  0.5744
  655MOL0     C88346   7.119  10.652   9.927 -0.6175 -0.0484  0.0920
  655MOL0     C88347   7.022  10.752   9.960 -0.6346  0.6676  0.5222
  655MOL0     C88348   7.045  10.883   9.943 -0.3216  0.5345 -0.5796
  655MOL0     O88349   6.957  10.983   9.974  0.0471  0.6188 -1.0319
  655MOL0     C88350   6.861  10.974  10.080 -0.1456  0.0552  0.3395
  655MOL0     C88351   6.719  10.930  10.047  0.4107 -0.1985  0.7011
  655MOL0     C88352   6.650  10.998   9.923 -0.4720  0.4152  0.1639
  655MOL0     C88353   6.659  10.903   9.803  0.1581 -0.1172 -0.0181
  655MOL0     C88354   6.608  10.980   9.683 -0.5000  0.6315  1.4557
  655MOL0     C88355   6.537  11.018   9.590 -0.8409 -0.2536 -0.3145
  655MOL0     C88356   7.169  10.921   9.887 -0.3804  0.4182  0.1408
  655MOL0     C88357   7.268  10.831   9.871 -0.1033 -1.1384 -0.4980
  655MOL0     H88358   7.654  10.636  10.043  4.2468  2.0960 -0.7541
  655MOL0     H88359   7.863  10.503  10.042 -1.5947 -0.5578  0.3469
  655MOL0     H88360   7.936  10.215   9.675 -0.8122 -1.2182  1.7117
  655MOL0     H88361   8.004  10.372   9.653  1.1017 -0.9901  0.8100
  655MOL0     H88362   8.186  10.220   9.650  1.7435  0.9801  0.8386
  655MOL0     H88363   8.205  10.288   9.810  1.8675 -2.1206 -0.7755
  655MOL0     H88364   8.155  10.068   9.905  0.1409 -3.9468  0.0606
  655MOL0     H88365   8.031  10.040   9.791 -0.9229  1.1780 -1.4155
  655MOL0     H88366   8.322  10.072   9.719 -0.6578  1.5265  0.1635
  655MOL0     H88367   8.274   9.919   9.795 -1.0813 -0.9629 -1.6825
  655MOL0     H88368   8.110   9.871   9.610  1.1908 -0.7643  2.9679
  655MOL0     H88369   8.183  10.008   9.530  3.0145 -1.0451 -2.5871
  655MOL0     H88370   8.309   9.746   9.609 -2.3339  0.7875  0.1576
  655MOL0     H88371   8.312   9.803   9.440  1.8002  0.1622 -0.0855
  655MOL0     H88372   8.446   9.991   9.511  0.7039  0.6255  0.3469
  655MOL0     H88373   8.465   9.899   9.673 -1.5971 -0.8951  0.0450
  655MOL0     H88374   8.513   9.745   9.440 -2.6133  3.1530 -0.6213
  655MOL0     H88375   8.619   9.764   9.581 -2.6379  0.7862  2.1711
  655MOL0     H88376   8.839   9.867   9.574 -1.0279 -2.9481 -0.3539
  655MOL0     H88377   9.030   9.989   9.507  3.6361 -3.9756 -2.0232
  655MOL0     H88378   9.060   9.954   9.344 -3.0302 -3.7180  0.3747
  655MOL0     H88379   9.132  10.182   9.405 -0.0814  3.5211  0.7696
  655MOL0     H88380   8.967  10.211   9.469  1.8731 -0.6663  2.0335
  655MOL0     H88381   8.879  10.255   9.259  0.0643 -1.1781  0.6988
  655MOL0     H88382   9.012  10.169   9.181  1.4023  2.9601 -0.7539
  655MOL0     H88383   9.037  10.376   9.131 -0.4072  1.7206  0.3136
  655MOL0     H88384   9.177  10.332   9.234  0.7453  2.5603 -3.7890
  655MOL0     H88385   8.962  10.652   9.485 -1.0148 -0.2576 -1.5567
  655MOL0     H88386   8.915  10.827   9.550  1.7031 -0.4291  1.2527
  655MOL0     H88387   9.055  10.933   9.566  0.2708  0.4422 -0.6727
  655MOL0     H88388   8.922  10.970   9.445 -0.9061  1.2780  3.3957
  655MOL0     H88389   9.295  11.270   9.404 -1.4434 -1.9815  0.0260
  655MOL0     H88390   9.305  11.506   9.323 -0.0860  0.2455  0.2826
  655MOL0     H88391   9.319  11.659   9.029  0.3734 -1.2422  0.5040
  655MOL0     H88392   9.256  11.501   9.006 -1.6638 -0.4984  0.6717
  655MOL0     H88393   9.198  11.652   8.824 -0.6774 -0.0909 -0.2539
  655MOL0     H88394   9.048  11.591   8.889 -1.0614  2.4347  0.1678
  655MOL0     H88395   9.010  11.818   8.983 -2.4341  0.8413 -3.4286
  655MOL0     H88396   9.067  11.826   8.825 -3.3038  1.5543  1.2625
  655MOL0     H88397   9.204  11.888   9.089  1.7186 -0.2113  0.0606
  655MOL0     H88398   9.299  11.851   8.942 -1.5392 -2.1920 -1.8449
  655MOL0     H88399   9.100  12.076   9.027  0.0927 -1.7545  0.4029
  655MOL0     H88400   9.125  12.034   8.847  2.9143 -2.6502 -0.5852
  655MOL0     H88401   9.344  12.094   8.861 -4.2260 -3.6066 -2.1210
  655MOL0     H88402   9.259  12.232   8.907  0.8175 -1.0802 -0.3384
  655MOL0     H88403   9.417  12.034   9.100  4.0344  1.3985  0.5990
  655MOL0     H88404   9.307  12.162   9.150 -1.3512 -1.1455 -1.3838
  655MOL0     H88405   9.433  12.333   9.030  1.8810  1.0326 -1.0501
  655MOL0     H88406   9.535  12.222   8.947 -1.6915 -1.8240 -1.7576
  655MOL0     H88407   8.939  11.456   9.111 -1.3450 -3.5188 -0.8595
  655MOL0     H88408   8.925  11.233   9.174 -1.2461  3.1167 -1.4477
  655MOL0     H88409   9.225  10.791   9.101 -1.0055  0.0601 -0.4658
  655MOL0     H88410   9.195  10.551   9.138 -0.0141 -0.2902  0.1394
  655MOL0     H88411   7.752  10.393   9.622  2.1157  2.0935  0.1879
  655MOL0     H88412   7.584  10.537   9.636  1.1698  2.2316 -0.1312
  655MOL0     H88413   7.095  10.546   9.937 -0.0293  0.0489  4.3789
  655MOL0     H88414   6.926  10.713   9.994 -0.5805 -4.8849 -4.1282
  655MOL0     H88415   6.902  10.900  10.150  0.8025 -1.1908 -1.4408
  655MOL0     H88416   6.856  11.076  10.119  1.0806  0.0850  0.4754
  655MOL0     H88417   6.654  10.962  10.129 -2.0900 -0.6323 -1.0310
  655MOL0     H88418   6.709  10.821  10.042 -1.0595 -0.2370  2.9138
  655MOL0     H88419   6.695  11.097   9.909 -1.3881  0.6306 -1.4313
  655MOL0     H88420   6.545  11.025   9.938 -1.0031 -2.5429  2.6198
  655MOL0     H88421   6.602  10.810   9.816  3.1348 -2.3659 -1.5837
  655MOL0     H88422   6.764  10.881   9.780  0.0258 -0.4459 -0.3260
  655MOL0     H88423   6.466  11.034   9.511 -1.0141 -0.5740 -0.2274
  655MOL0     H88424   7.190  11.025   9.864 -1.9634  1.4317  2.8291
  655MOL0     H88425   7.360  10.877   9.838  2.6361 -3.3460  3.2802
  656MOL0     O88426   2.952   3.263   2.049  0.2743  0.4489 -0.4091
  656MOL0     C88427   3.066   3.210   2.056 -0.5256  0.6238 -0.2981
  656MOL0     O88428   3.123   3.157   2.169 -0.1642 -0.4893  0.4733
  656MOL0     C88429   3.053   3.131   2.286  0.0136 -0.4199  0.2351
  656MOL0     C88430   2.921   3.157   2.320 -0.3582 -0.5260 -0.4973
  656MOL0     C88431   2.874   3.135   2.455  1.3113 -0.0465  0.0066
  656MOL0     C88432   2.948   3.060   2.539 -0.2477  0.1686  0.5226
  656MOL0     O88433   2.887   3.001   2.650 -0.0481  0.0393  0.1133
  656MOL0     C88434   2.832   3.081   2.752 -0.8811  0.9741 -0.2174
  656MOL0     C88435   2.837   3.000   2.881  0.1712  0.3912 -0.0480
  656MOL0     C88436   2.973   3.013   2.940  0.3664 -0.5269 -0.8712
  656MOL0     C88437   3.044   2.887   2.918  0.7968 -0.6692 -0.2499
  656MOL0     C88438   3.195   2.912   2.932  0.5137 -0.0067  0.3942
  656MOL0     C88439   3.261   2.780   2.926 -0.6201  0.0471  0.5449
  656MOL0     C88440   3.253   2.709   3.061  0.4180 -0.5600  0.0085
  656MOL0     C88441   3.390   2.722   3.136 -0.6712  0.4867  0.9626
  656MOL0     N88442   3.360   2.731   3.275 -0.8861 -0.9746  0.7419
  656MOL0     C88443   3.315   2.629   3.357  0.1110 -0.3802  0.3722
  656MOL0     C88444   3.291   2.685   3.473 -0.0149  0.9957 -1.6573
  656MOL0     C88445   3.274   2.596   3.599 -0.6886 -0.9993 -0.1969
  656MOL0     C88446   3.407   2.552   3.659 -0.7467  0.0268  0.7965
  656MOL0     C88447   3.401   2.488   3.792  0.6416 -0.2430 -0.7988
  656MOL0     C88448   3.303   2.546   3.898  0.1711  0.1248 -0.8838
  656MOL0     O88449   3.337   2.508   4.035 -0.3287  0.9379 -0.1572
  656MOL0     C88450   3.260   2.540   4.138  0.1741  0.6547  0.0820
  656MOL0     C88451   3.316   2.531   4.265  0.7835 -0.4820  0.3011
  656MOL0     C88452   3.230   2.550   4.374  0.8789 -0.3072  0.1331
  656MOL0     C88453   3.299   2.540   4.513 -0.2516 -0.2590  0.4409
  656MOL0     C88454   3.094   2.585   4.364  0.2022 -0.6346 -0.1086
  656MOL0     C88455   3.013   2.575   4.480 -0.2210  0.6343 -0.6301
  656MOL0     O88456   3.030   2.454   4.561  0.2293  0.0123 -0.3161
  656MOL0     C88457   2.987   2.468   4.689  0.0586  0.2744 -0.0567
  656MOL0     C88458   3.076   2.476   4.795 -0.0741 -1.4597  0.7188
  656MOL0     C88459   3.033   2.496   4.928  0.4392 -0.0293 -0.5860
  656MOL0     C88460   2.900   2.518   4.949 -0.3593 -0.3597  0.2745
  656MOL0     O88461   2.850   2.528   5.073 -0.0951  0.3347 -0.3947
  656MOL0     C88462   2.799   2.658   5.116  0.1633  0.2520 -0.4053
  656MOL0     C88463   2.913   2.738   5.183  0.0988 -0.6069 -0.6213
  656MOL0     C88464   2.917   2.775   5.332 -0.2355  2.2855 -0.4327
  656MOL0     C88465   2.930   2.642   5.418  1.2935  0.7852  0.1652
  656MOL0     C88466   2.854   2.647   5.549  0.5093  0.7919 -0.5025
  656MOL0     C88467   2.871   2.778   5.615 -0.2394 -0.0345  0.5185
  656MOL0     C88468   2.847   2.758   5.773  0.3445 -0.2963 -0.6930
  656MOL0     C88469   2.886   2.883   5.852  0.1503 -0.3397 -0.5206
  656MOL0    Cl88470   2.885   2.842   6.035 -0.1168  0.5294  0.0930
  656MOL0     C88471   2.808   2.510   4.839  0.9191 -0.5564  0.4196
  656MOL0     C88472   2.855   2.490   4.713 -0.5154  0.3419 -0.1792
  656MOL0     O88473   2.931   2.671   4.504  0.2591 -0.4846 -0.8436
  656MOL0     C88474   3.042   2.579   4.244 -0.2838  1.0929  0.3785
  656MOL0     C88475   3.122   2.565   4.135  0.4273 -0.5002 -0.0252
  656MOL0     N88476   3.322   2.822   3.460 -0.8411  0.6441  0.0230
  656MOL0     N88477   3.366   2.847   3.345 -0.6429 -0.6860  0.0982
  656MOL0     C88478   3.067   3.006   2.489  0.1139 -0.9653 -0.6124
  656MOL0     C88479   3.124   3.060   2.372  0.9026 -0.3352  0.1976
  656MOL0     C88480   3.155   3.227   1.938  0.1833 -0.0545  0.0072
  656MOL0     C88481   3.130   3.310   1.834  0.9231 -0.6172 -0.1844
  656MOL0     C88482   3.211   3.318   1.714  0.8022 -0.2050 -0.1197
  656MOL0     C88483   3.332   3.241   1.713  0.1584 -0.1914  0.1747
  656MOL0     O88484   3.417   3.251   1.610  0.0058  0.8748  0.7594
  656MOL0     C88485   3.409   3.356   1.519  0.1011  0.4834  0.7645
  656MOL0     C88486   3.304   3.330   1.405  0.2338 -0.0867  0.3682
  656MOL0     C88487   3.305   3.183   1.358 -0.1078  0.7424  0.3605
  656MOL0     C88488   3.225   3.159   1.220 -0.5073 -0.4124  0.1623
  656MOL0     C88489   3.282   3.244   1.115 -0.5601 -0.0257 -0.0464
  656MOL0     C88490   3.341   3.296   1.021 -0.7267 -0.0260 -0.3743
  656MOL0     C88491   3.360   3.157   1.819  0.6156 -0.2485  0.0790
  656MOL0     C88492   3.283   3.148   1.931 -0.2735  0.4121  0.7412
  656MOL0     H88493   2.853   3.214   2.256  0.1887  2.4268  1.3441
  656MOL0     H88494   2.772   3.164   2.481  1.3738 -0.6451  0.9627
  656MOL0     H88495   2.889   3.175   2.758  1.8861 -0.2004 -3.8837
  656MOL0     H88496   2.729   3.097   2.719 -1.0328 -0.5303 -0.5548
  656MOL0     H88497   2.763   3.046   2.948  1.4155 -0.4004  1.9456
  656MOL0     H88498   2.802   2.898   2.864  0.1511  0.8348 -3.2515
  656MOL0     H88499   3.019   3.102   2.898 -1.7599  2.5077  2.6013
  656MOL0     H88500   2.976   3.021   3.049  1.0935  0.8786 -0.9725
  656MOL0     H88501   2.995   2.805   2.972 -3.7755  0.5889 -2.0144
  656MOL0     H88502   3.027   2.864   2.812 -1.7314 -0.1466 -0.0099
  656MOL0     H88503   3.227   2.987   2.859 -0.5248 -0.9874 -1.1287
  656MOL0     H88504   3.225   2.954   3.028 -0.7482 -0.0374  0.8181
  656MOL0     H88505   3.237   2.709   2.846  0.6247 -2.5642  2.3138
  656MOL0     H88506   3.367   2.803   2.914 -1.4438  5.0306  0.8976
  656MOL0     H88507   3.184   2.764   3.125 -1.6442 -3.3215  0.3513
  656MOL0     H88508   3.208   2.610   3.046 -0.3923  0.0248 -1.6617
  656MOL0     H88509   3.445   2.814   3.113  1.8780 -0.9240  1.0583
  656MOL0     H88510   3.457   2.638   3.115  0.4961  1.4640  0.7193
  656MOL0     H88511   3.305   2.525   3.328 -2.1492 -0.4450  1.2217
  656MOL0     H88512   3.223   2.642   3.685  2.5409 -3.5620  3.4659
  656MOL0     H88513   3.214   2.506   3.586 -2.3117  0.3329 -2.9025
  656MOL0     H88514   3.473   2.639   3.668  0.4888 -0.8737  0.8033
  656MOL0     H88515   3.462   2.496   3.583  1.3732  1.5342  1.1152
  656MOL0     H88516   3.504   2.489   3.831  0.9978  4.3336 -1.2564
  656MOL0     H88517   3.363   2.386   3.783 -0.7958  0.1836  0.0669
  656MOL0     H88518   3.204   2.507   3.872 -0.1108 -1.5570  2.1855
  656MOL0     H88519   3.306   2.654   3.884  2.4810  0.0592 -1.3029
  656MOL0     H88520   3.421   2.524   4.293  1.5150  0.8732 -1.8943
  656MOL0     H88521   3.286   2.439   4.552 -0.5046 -0.7068 -0.7789
  656MOL0     H88522   3.408   2.548   4.510 -0.1628 -1.5626 -1.7340
  656MOL0     H88523   3.259   2.616   4.581 -1.5919 -0.0866 -0.5087
  656MOL0     H88524   3.183   2.469   4.774 -0.2584  0.2388 -1.0486
  656MOL0     H88525   3.100   2.501   5.014 -0.5847  1.6196  0.1538
  656MOL0     H88526   2.761   2.714   5.030 -1.4972 -0.9981 -0.5330
  656MOL0     H88527   2.714   2.648   5.184  1.0984  3.0035  1.3238
  656MOL0     H88528   3.012   2.701   5.154  1.5431  1.0440  1.8835
  656MOL0     H88529   2.901   2.839   5.140  0.1540 -0.5409 -0.4805
  656MOL0     H88530   2.829   2.838   5.348 -2.7112 -0.5580 -2.0300
  656MOL0     H88531   3.007   2.834   5.357  1.6552 -1.2122  1.8659
  656MOL0     H88532   2.887   2.558   5.362  2.2926  0.8628 -0.7505
  656MOL0     H88533   3.035   2.615   5.432  1.6232 -0.6436 -3.7310
  656MOL0     H88534   2.886   2.568   5.617 -2.9375 -1.7468 -1.5282
  656MOL0     H88535   2.745   2.637   5.537  0.1703 -1.1489  2.8962
  656MOL0     H88536   2.971   2.820   5.604 -0.4151  0.0848 -0.7694
  656MOL0     H88537   2.799   2.847   5.569 -0.8689  0.5966  2.3639
  656MOL0     H88538   2.911   2.679   5.815  0.3649  0.3575  0.5591
  656MOL0     H88539   2.744   2.728   5.796  1.7934 -3.0591  3.3882
  656MOL0     H88540   2.821   2.970   5.842  0.1544 -0.0367  1.6938
  656MOL0     H88541   2.985   2.921   5.827  0.9873 -0.8153  1.8158
  656MOL0     H88542   2.706   2.529   4.872  2.1961  3.3354  2.8863
  656MOL0     H88543   2.787   2.500   4.629 -0.2888  1.6879 -0.2261
  656MOL0     H88544   2.934   2.586   4.234 -0.3037  2.1858  1.2533
  656MOL0     H88545   3.090   2.578   4.032  0.0596 -3.0001 -0.2783
  656MOL0     H88546   3.116   2.940   2.560  0.9578 -0.1591 -0.4304
  656MOL0     H88547   3.221   3.038   2.329 -0.5953  0.0628 -3.8776
  656MOL0     H88548   3.051   3.382   1.847  0.0990 -1.1303 -1.9508
  656MOL0     H88549   3.176   3.388   1.638 -0.3859 -0.3335  0.2865
  656MOL0     H88550   3.398   3.453   1.569 -0.6656  1.1404 -0.6403
  656MOL0     H88551   3.507   3.356   1.471  1.0129 -0.0751  2.5331
  656MOL0     H88552   3.335   3.400   1.327 -1.9769 -2.7069 -3.1617
  656MOL0     H88553   3.196   3.347   1.418  0.3630  0.6054  0.6074
  656MOL0     H88554   3.248   3.133   1.437 -0.9357 -0.1679 -0.7717
  656MOL0     H88555   3.407   3.146   1.349 -1.3695 -3.0323 -0.2518
  656MOL0     H88556   3.119   3.159   1.243 -0.6615 -1.8869 -0.3956
  656MOL0     H88557   3.246   3.055   1.190  2.5875  0.6532 -1.8831
  656MOL0     H88558   3.400   3.345   0.946  1.3109  0.0565  1.1736
  656MOL0     H88559   3.450   3.097   1.804  0.2670 -0.1134 -3.3338
  656MOL0     H88560   3.314   3.066   1.994 -3.0135 -0.2738  1.3641
  657MOL0     O88561  10.357  11.336   0.041  0.1676  0.0094  0.2495
  657MOL0     C88562  10.337  11.265   0.136  0.1833 -0.2788 -0.5022
  657MOL0     O88563  10.396  11.272   0.256  0.1531  0.0204 -0.3519
  657MOL0     C88564  10.503  11.361   0.288 -0.8586  0.6666  0.7788
  657MOL0     C88565  10.567  11.329   0.404  0.3157 -0.3385  0.0708
  657MOL0     C88566  10.675  11.403   0.446 -0.9174 -0.5267 -1.2923
  657MOL0     C88567  10.715  11.515   0.372  0.6133  0.3258  0.5227
  657MOL0     O88568  10.817  11.595   0.414 -0.3194 -0.0364 -0.2665
  657MOL0     C88569  10.901  11.645   0.301 -0.0485 -1.2332 -0.5842
  657MOL0     C88570  11.029  11.690   0.385 -0.2043 -1.1495 -0.2354
  657MOL0     C88571  11.139  11.689   0.280 -1.0699 -0.4407  0.3781
  657MOL0     C88572  11.272  11.748   0.327  0.6744 -0.1599  0.5324
  657MOL0     C88573  11.361  11.785   0.215 -0.0863 -0.0394 -0.3104
  657MOL0     C88574  11.498  11.846   0.263 -0.5659 -0.0956  0.2066
  657MOL0     C88575  11.472  11.989   0.339 -0.5615  0.2010  0.1880
  657MOL0     C88576  11.610  12.032   0.404 -0.4104 -0.3557  0.4509
  657MOL0     N88577  11.702  12.090   0.308 -1.3971  0.6539 -0.8867
  657MOL0     C88578  11.668  12.179   0.216  0.0165  0.0423 -0.4267
  657MOL0     C88579  11.789  12.227   0.175 -0.1910 -0.1474  0.1932
  657MOL0     C88580  11.824  12.333   0.073  0.1700 -0.9002 -1.0066
  657MOL0     C88581  11.943  12.410   0.121  0.8490  0.2528  0.1370
  657MOL0     C88582  11.962  12.513   0.011  0.0384  0.6876 -0.4407
  657MOL0     C88583  12.077  12.615   0.052  0.0387 -1.0847 -0.0278
  657MOL0     O88584  12.104  12.720  -0.042  0.7096  0.3958  0.1675
  657MOL0     C88585  12.219  12.783  -0.011 -0.9069 -1.2636 -0.2420
  657MOL0     C88586  12.245  12.868   0.101 -0.5113  0.2699  0.3066
  657MOL0     C88587  12.362  12.942   0.123 -0.4643 -0.3220  0.7169
  657MOL0     C88588  12.368  13.032   0.242 -0.1045  0.0180  0.0196
  657MOL0     C88589  12.465  12.919   0.027 -1.0357 -0.5638  0.6608
  657MOL0     C88590  12.598  12.983   0.019  0.2905  0.1780 -0.5152
  657MOL0     O88591  12.700  12.932  -0.062  0.5964 -0.0382 -0.3313
  657MOL0     C88592  12.826  12.978  -0.047 -0.8720  0.2136 -0.3073
  657MOL0     C88593  12.935  12.901  -0.002  0.8716 -0.0029 -0.5382
  657MOL0     C88594  13.068  12.942   0.002 -1.4272 -0.2110 -0.2689
  657MOL0     C88595  13.093  13.075  -0.043  0.2110 -0.2630 -0.4051
  657MOL0     O88596  13.220  13.128  -0.042 -0.1448  0.0032 -0.6115
  657MOL0     C88597  13.329  13.071   0.041  0.1899 -0.2472  0.2728
  657MOL0     C88598  13.454  13.168   0.035 -0.2538  0.8857 -0.5918
  657MOL0     C88599  13.508  13.173  -0.109  0.6347  0.7250  0.0828
  657MOL0     C88600  13.610  13.288  -0.136  0.2664  0.7712 -0.9912
  657MOL0     C88601  13.654  13.306  -0.285 -0.0417 -0.2937  0.4935
  657MOL0     C88602  13.785  13.391  -0.299  0.5299  0.3887  0.0975
  657MOL0     C88603  13.853  13.369  -0.438 -0.3461  0.0974 -0.1236
  657MOL0     C88604  14.001  13.428  -0.447 -0.5045  0.0130 -0.2578
  657MOL0    Cl88605  14.025  13.588  -0.387 -0.0599  0.2634 -0.1927
  657MOL0     C88606  12.993  13.156  -0.088 -0.4748 -0.6933 -0.2143
  657MOL0     C88607  12.861  13.109  -0.081  0.5328  0.3566  0.5404
  657MOL0     O88608  12.620  13.064   0.111 -0.0780 -1.2854 -0.0257
  657MOL0     C88609  12.442  12.833  -0.079  0.2502  0.4055 -0.2494
  657MOL0     C88610  12.326  12.778  -0.098  0.4876 -0.3055 -0.5084
  657MOL0     N88611  11.885  12.161   0.245 -0.5192 -1.0050  0.2095
  657MOL0     N88612  11.831  12.069   0.316 -0.4681  0.3088  0.1945
  657MOL0     C88613  10.649  11.542   0.248 -0.2032 -0.4812  0.4926
  657MOL0     C88614  10.547  11.467   0.210  0.7193  0.8008  0.4118
  657MOL0     C88615  10.219  11.175   0.118  0.5998 -0.0826 -0.0326
  657MOL0     C88616  10.201  11.112  -0.003  0.2674 -0.0082  0.7698
  657MOL0     C88617  10.108  11.010  -0.018 -0.3115  0.7467  0.1421
  657MOL0     C88618  10.025  10.968   0.087 -0.5362  1.3531 -0.0731
  657MOL0     O88619   9.939  10.861   0.067  0.2063  0.0752 -0.0589
  657MOL0     C88620   9.856  10.828   0.171 -0.3719 -0.5978 -0.2608
  657MOL0     C88621   9.757  10.717   0.136 -0.1400 -0.1396 -0.1781
  657MOL0     C88622   9.672  10.755   0.008  0.7317 -0.7563 -0.1926
  657MOL0     C88623   9.534  10.811   0.029 -0.2018  0.7172  0.1080
  657MOL0     C88624   9.454  10.828  -0.096 -0.6416  0.9616  0.4788
  657MOL0     C88625   9.393  10.843  -0.200  0.1218  0.4718 -0.2828
  657MOL0     C88626  10.042  11.035   0.208 -0.0608 -0.0442 -0.2809
  657MOL0     C88627  10.141  11.131   0.225  0.3478  0.1798 -0.3205
  657MOL0     H88628  10.532  11.250   0.470 -3.7641  1.4034  0.2184
  657MOL0     H88629  10.721  11.384   0.542 -0.4223 -0.6554 -1.5525
  657MOL0     H88630  10.903  11.579   0.214 -1.4953 -2.3478  0.1818
  657MOL0     H88631  10.846  11.733   0.267  0.8802 -0.1346  0.6488
  657MOL0     H88632  11.029  11.793   0.422 -1.6031 -1.3813  0.4810
  657MOL0     H88633  11.039  11.619   0.467 -1.2392 -4.8324 -2.9997
  657MOL0     H88634  11.163  11.590   0.241  0.5197  0.0616  0.0230
  657MOL0     H88635  11.113  11.755   0.196 -2.0509  0.0955  1.0778
  657MOL0     H88636  11.249  11.841   0.379 -5.2083 -1.6608  1.2834
  657MOL0     H88637  11.325  11.673   0.387  0.7079 -2.1836 -1.8346
  657MOL0     H88638  11.377  11.692   0.160 -1.3482 -0.7202  0.4237
  657MOL0     H88639  11.306  11.849   0.146 -3.1172 -1.4009  0.6445
  657MOL0     H88640  11.548  11.797   0.347 -1.0637  1.1358  1.2418
  657MOL0     H88641  11.562  11.872   0.178 -0.2044 -0.6898  0.2906
  657MOL0     H88642  11.423  12.066   0.279 -2.0931 -1.0597 -0.2594
  657MOL0     H88643  11.408  11.958   0.422 -0.2635 -1.1265 -0.0603
  657MOL0     H88644  11.664  11.950   0.451  0.2682  0.1884  0.6396
  657MOL0     H88645  11.595  12.101   0.488 -0.8146 -1.7217  1.5289
  657MOL0     H88646  11.571  12.216   0.186 -0.3878  0.5395  1.4091
  657MOL0     H88647  11.849  12.285  -0.022  3.0571 -0.8433 -0.3608
  657MOL0     H88648  11.744  12.406   0.055  0.7894  0.0240 -0.1375
  657MOL0     H88649  12.033  12.349   0.128  0.6947  0.0141  0.0498
  657MOL0     H88650  11.923  12.463   0.215 -0.4071 -3.0235  1.9057
  657MOL0     H88651  11.866  12.565   0.000 -0.2574  0.0273 -1.0296
  657MOL0     H88652  11.985  12.465  -0.084 -1.2867  2.0676 -1.5161
  657MOL0     H88653  12.169  12.556   0.053  1.9165  1.4382 -3.5183
  657MOL0     H88654  12.058  12.652   0.153  1.2570 -1.3023  0.2999
  657MOL0     H88655  12.159  12.873   0.167 -0.3163 -1.2625  0.7394
  657MOL0     H88656  12.398  13.135   0.218  1.0255  0.0144  1.2923
  657MOL0     H88657  12.269  13.033   0.288  0.7163 -0.5121  1.8864
  657MOL0     H88658  12.438  13.004   0.321  0.2497  1.9361  0.4440
  657MOL0     H88659  12.911  12.803   0.038  0.8125  0.6700  1.1527
  657MOL0     H88660  13.138  12.870   0.043  0.1018  0.5546 -1.4407
  657MOL0     H88661  13.292  13.053   0.142  0.0578 -1.2550  0.0631
  657MOL0     H88662  13.350  12.968   0.008  3.7629 -0.1634  1.8581
  657MOL0     H88663  13.419  13.265   0.069  0.2973  0.8015  0.2405
  657MOL0     H88664  13.535  13.134   0.101 -1.4400 -1.6302 -0.3233
  657MOL0     H88665  13.415  13.182  -0.165  0.5093  0.3448  0.2225
  657MOL0     H88666  13.553  13.079  -0.143 -1.8419  0.2892 -2.2569
  657MOL0     H88667  13.567  13.383  -0.101  2.6289  1.1793  1.0558
  657MOL0     H88668  13.698  13.264  -0.077 -1.8706  0.3783  2.2859
  657MOL0     H88669  13.578  13.355  -0.347 -1.1172 -1.3316  0.9688
  657MOL0     H88670  13.682  13.213  -0.336  3.6760  1.1402 -0.4330
  657MOL0     H88671  13.744  13.492  -0.293 -0.2190  0.0723  0.3552
  657MOL0     H88672  13.858  13.375  -0.219  0.3816  1.8521  0.5534
  657MOL0     H88673  13.796  13.424  -0.513  0.2657  0.9848  0.0522
  657MOL0     H88674  13.858  13.260  -0.448  1.4987 -0.0977  2.1223
  657MOL0     H88675  14.042  13.415  -0.548 -0.7296 -0.4019 -0.2985
  657MOL0     H88676  14.063  13.380  -0.371 -1.6967  0.6188  1.1486
  657MOL0     H88677  12.988  13.254  -0.135 -1.2024 -2.0149 -3.1287
  657MOL0     H88678  12.774  13.169  -0.107  1.2588  1.7360  1.2335
  657MOL0     H88679  12.521  12.810  -0.150  0.4166 -3.0831  0.9070
  657MOL0     H88680  12.299  12.706  -0.175  0.7275  0.4055 -1.2809
  657MOL0     H88681  10.677  11.625   0.183  2.2546 -0.7465  1.0973
  657MOL0     H88682  10.498  11.494   0.117  0.6256 -1.2094 -0.1750
  657MOL0     H88683  10.258  11.128  -0.094  0.1682 -2.3518  0.2288
  657MOL0     H88684  10.109  10.954  -0.110 -0.9192  0.2882  0.4119
  657MOL0     H88685   9.904  10.789   0.261 -0.1976 -3.9612 -1.6782
  657MOL0     H88686   9.797  10.916   0.200 -1.6324 -0.8317 -1.9725
  657MOL0     H88687   9.702  10.694   0.227  2.9533  3.3337  2.9432
  657MOL0     H88688   9.807  10.626   0.102 -4.3044 -3.7766  2.5060
  657MOL0     H88689   9.669  10.667  -0.057  1.4080  0.4934 -2.0006
  657MOL0     H88690   9.727  10.834  -0.045  1.8221  0.6660  2.7906
  657MOL0     H88691   9.536  10.908   0.080 -3.5086  1.8152 -1.6015
  657MOL0     H88692   9.475  10.743   0.092  0.2503 -0.6359 -0.8808
  657MOL0     H88693   9.325  10.835  -0.282  1.4175 -3.7255 -1.1546
  657MOL0     H88694   9.966  11.026   0.285  0.0508 -0.8058 -0.2513
  657MOL0     H88695  10.145  11.182   0.321 -2.6401 -2.2682  1.2813
  658MOL0     O88696  10.418  10.694   4.883  0.4437  0.2450  0.3543
  658MOL0     C88697  10.444  10.583   4.836 -0.7038  0.3992  0.1995
  658MOL0     O88698  10.574  10.530   4.811  0.5953  0.6178 -0.4512
  658MOL0     C88699  10.678  10.597   4.861  0.7889  0.0965  0.2466
  658MOL0     C88700  10.720  10.569   4.991  0.3716 -0.1604  0.8399
  658MOL0     C88701  10.819  10.642   5.049  0.1617  0.0752  0.3571
  658MOL0     C88702  10.886  10.743   4.980  0.1694  0.4860 -0.2296
  658MOL0     O88703  10.977  10.821   5.040 -0.0239  0.2064 -0.5936
  658MOL0     C88704  10.939  10.949   5.078  0.7978  0.7042  0.1198
  658MOL0     C88705  11.033  11.022   5.170 -0.3588  0.0366  0.0774
  658MOL0     C88706  11.179  11.058   5.128  0.6435  0.0318  0.3967
  658MOL0     C88707  11.297  10.957   5.168  0.1929  0.1881 -0.2729
  658MOL0     C88708  11.431  11.018   5.188 -0.1982 -0.4826  0.2131
  658MOL0     C88709  11.540  10.906   5.208 -0.0465 -0.0004 -0.0827
  658MOL0     C88710  11.541  10.851   5.346 -0.4263 -0.1493  1.3438
  658MOL0     C88711  11.657  10.749   5.368 -0.1359 -0.1588  0.2331
  658MOL0     N88712  11.670  10.681   5.501  0.5051 -0.3398 -0.3652
  658MOL0     C88713  11.588  10.582   5.541 -0.2749 -0.5874 -1.1797
  658MOL0     C88714  11.641  10.550   5.667 -0.0018  0.2532  0.3469
  658MOL0     C88715  11.584  10.442   5.756 -0.1392  0.0152 -0.5680
  658MOL0     C88716  11.498  10.325   5.710  0.7695  0.1129  0.4286
  658MOL0     C88717  11.472  10.218   5.822 -0.4159 -1.1115  0.4353
  658MOL0     C88718  11.461  10.081   5.749 -1.5130 -0.9677 -0.5915
  658MOL0     O88719  11.349  10.091   5.660  0.0838  0.6601  0.6667
  658MOL0     C88720  11.349  10.004   5.553 -0.7430 -0.4576 -0.8067
  658MOL0     C88721  11.278   9.880   5.572  0.0386 -0.0060  0.1456
  658MOL0     C88722  11.258   9.792   5.466 -0.5218  0.0007 -0.4061
  658MOL0     C88723  11.168   9.676   5.478  0.3649  0.0510 -0.4230
  658MOL0     C88724  11.335   9.808   5.345  0.2855 -0.0344  0.0135
  658MOL0     C88725  11.338   9.715   5.229  0.0536 -0.0641  0.7272
  658MOL0     O88726  11.360   9.771   5.109 -0.3210 -0.0363 -0.0365
  658MOL0     C88727  11.356   9.689   4.997  0.3873  0.3709 -0.5600
  658MOL0     C88728  11.453   9.588   4.979  0.7039 -0.0152  0.2479
  658MOL0     C88729  11.465   9.521   4.857 -0.3062 -0.5630  0.5359
  658MOL0     C88730  11.377   9.552   4.748  0.8550  0.8088  1.4146
  658MOL0     O88731  11.404   9.484   4.628  0.4910 -0.2842 -0.3874
  658MOL0     C88732  11.319   9.516   4.513 -0.6509  0.6367  0.0267
  658MOL0     C88733  11.302   9.388   4.428 -0.1612  0.5989 -0.4138
  658MOL0     C88734  11.187   9.314   4.485  0.3215 -0.6129 -0.8368
  658MOL0     C88735  11.203   9.168   4.483 -0.0579  0.8416  0.2080
  658MOL0     C88736  11.113   9.097   4.584  0.5299  0.0655 -0.4274
  658MOL0     C88737  11.073   8.967   4.517 -0.6817 -0.1046  0.2515
  658MOL0     C88738  11.204   8.872   4.515  0.6355  1.1898 -0.6396
  658MOL0     C88739  11.196   8.784   4.396 -0.0556  0.4628 -0.2826
  658MOL0    Cl88740  11.231   8.869   4.239  0.0851 -0.1156 -0.0538
  658MOL0     C88741  11.269   9.644   4.773  0.0267 -0.4510  0.6614
  658MOL0     C88742  11.273   9.726   4.886 -0.2428  0.4960  0.2933
  658MOL0     O88743  11.325   9.591   5.246  0.5613 -0.0352  0.4663
  658MOL0     C88744  11.418   9.930   5.328 -0.2187  0.8167 -0.2963
  658MOL0     C88745  11.424  10.021   5.438 -0.4697 -0.0761  0.6856
  658MOL0     N88746  11.749  10.634   5.697 -0.0778 -0.8065  0.4183
  658MOL0     N88747  11.755  10.712   5.593 -0.2186 -0.1830 -0.8594
  658MOL0     C88748  10.842  10.769   4.848 -1.1392 -0.8161 -0.3184
  658MOL0     C88749  10.731  10.706   4.789 -0.2528 -0.2354  0.3858
  658MOL0     C88750  10.326  10.495   4.795 -0.5312  0.0411 -0.2883
  658MOL0     C88751  10.338  10.375   4.725  0.2199 -0.1517  0.3693
  658MOL0     C88752  10.232  10.296   4.694  0.2410  0.8796  0.1251
  658MOL0     C88753  10.106  10.334   4.736  0.0120  0.2519 -0.9841
  658MOL0     O88754  10.008  10.248   4.711 -0.7274  0.0132  0.3661
  658MOL0     C88755   9.870  10.297   4.698  0.3036  0.0589  0.1286
  658MOL0     C88756   9.821  10.285   4.551  0.2754 -0.7207 -0.1634
  658MOL0     C88757   9.807  10.144   4.489 -0.8047  0.1965  0.7287
  658MOL0     C88758   9.725  10.058   4.580  0.0052 -0.0928 -0.5294
  658MOL0     C88759   9.654   9.937   4.532  0.8422 -0.2827 -0.4890
  658MOL0     C88760   9.614   9.837   4.488  0.7701  0.8737 -0.2807
  658MOL0     C88761  10.085  10.457   4.801 -0.3409  0.5677 -0.4860
  658MOL0     C88762  10.195  10.533   4.830  0.0676 -0.6941 -0.3312
  658MOL0     H88763  10.675  10.481   5.034  0.3796 -0.6431 -0.1198
  658MOL0     H88764  10.855  10.625   5.150  0.7821  0.9661  0.2990
  658MOL0     H88765  10.918  11.018   4.996 -3.3310 -0.3404  0.0694
  658MOL0     H88766  10.839  10.933   5.119  1.4048 -1.1672  0.9540
  658MOL0     H88767  10.992  11.120   5.192  0.2569  0.2521  0.2928
  658MOL0     H88768  11.040  10.962   5.262  0.7652  0.2428  0.1461
  658MOL0     H88769  11.179  11.065   5.019 -0.6104 -1.7505  0.2372
  658MOL0     H88770  11.214  11.154   5.166  0.4870 -0.8239  2.9217
  658MOL0     H88771  11.263  10.934   5.270  3.2805  0.2613  0.8682
  658MOL0     H88772  11.305  10.868   5.106  1.1278  0.5899 -0.7429
  658MOL0     H88773  11.452  11.070   5.094 -2.6074 -0.9532 -0.6572
  658MOL0     H88774  11.424  11.090   5.269 -0.2996 -1.4191  1.0601
  658MOL0     H88775  11.519  10.824   5.138 -2.0089  1.0443 -0.7936
  658MOL0     H88776  11.632  10.959   5.182  0.1478 -0.8131 -1.1459
  658MOL0     H88777  11.555  10.933   5.416  1.1695 -0.4637  1.4303
  658MOL0     H88778  11.449  10.795   5.365  0.0408 -0.4807  2.6972
  658MOL0     H88779  11.754  10.797   5.353  0.4914 -1.7253 -1.0471
  658MOL0     H88780  11.642  10.670   5.293  1.2956 -0.9624  0.7578
  658MOL0     H88781  11.509  10.533   5.486 -0.0104 -1.2118 -1.0179
  658MOL0     H88782  11.672  10.415   5.814  1.4707  0.5873 -2.6400
  658MOL0     H88783  11.515  10.494   5.823 -0.7589 -2.4908  0.8724
  658MOL0     H88784  11.559  10.283   5.630  1.0424  0.7898  0.2747
  658MOL0     H88785  11.403  10.356   5.665  0.2057 -2.2460 -0.1496
  658MOL0     H88786  11.375  10.232   5.871 -1.3977 -0.8553 -1.4639
  658MOL0     H88787  11.548  10.228   5.899  1.9956 -0.8851 -1.8424
  658MOL0     H88788  11.452   9.995   5.816 -4.0415  0.4143  1.0080
  658MOL0     H88789  11.554  10.054   5.699 -0.4172 -1.1045  1.4306
  658MOL0     H88790  11.223   9.870   5.665  1.4304 -0.5498  0.9321
  658MOL0     H88791  11.100   9.697   5.561 -2.9597 -2.4110 -2.2918
  658MOL0     H88792  11.107   9.679   5.387  1.3048  2.2736 -1.0488
  658MOL0     H88793  11.210   9.575   5.476  1.8793  0.6675 -1.4672
  658MOL0     H88794  11.531   9.548   5.043  0.8361 -3.2314 -1.7018
  658MOL0     H88795  11.538   9.442   4.841  1.3309  0.8367  0.8474
  658MOL0     H88796  11.223   9.548   4.553  0.3585  1.7314  1.7016
  658MOL0     H88797  11.362   9.597   4.454 -4.5116  3.1552  0.3286
  658MOL0     H88798  11.280   9.412   4.324  1.6712  2.7287 -0.4030
  658MOL0     H88799  11.392   9.325   4.435 -0.6942 -0.1738 -0.3810
  658MOL0     H88800  11.096   9.343   4.431 -0.2807 -0.7383  0.0955
  658MOL0     H88801  11.173   9.331   4.592 -1.5204 -2.3842 -0.7233
  658MOL0     H88802  11.198   9.127   4.382  0.1851  1.3463 -0.0152
  658MOL0     H88803  11.304   9.134   4.506 -0.5308 -0.3699  0.5784
  658MOL0     H88804  11.031   9.164   4.612 -0.4380 -0.8327 -1.0239
  658MOL0     H88805  11.166   9.079   4.678  1.6092  1.2148 -0.7966
  658MOL0     H88806  11.001   8.909   4.576  3.9445 -2.7564  4.0818
  658MOL0     H88807  11.029   8.973   4.417 -0.2151 -2.3343 -0.1558
  658MOL0     H88808  11.189   8.808   4.603  0.2510  4.9441  2.2987
  658MOL0     H88809  11.304   8.914   4.529  1.7913 -1.3147 -0.8703
  658MOL0     H88810  11.101   8.730   4.399 -1.9649  3.6102  1.2465
  658MOL0     H88811  11.276   8.711   4.412 -1.5324 -1.2623 -0.4523
  658MOL0     H88812  11.198   9.677   4.699 -1.4503 -1.0006  1.7899
  658MOL0     H88813  11.205   9.811   4.879 -1.2504 -0.3183  0.0254
  658MOL0     H88814  11.468   9.951   5.234 -1.4826  3.3855 -0.4831
  658MOL0     H88815  11.484  10.110   5.419  0.3888 -0.7137  0.3480
  658MOL0     H88816  10.885  10.855   4.799 -0.7929  0.8496  2.6720
  658MOL0     H88817  10.700  10.733   4.688  0.2599  0.5090  0.4211
  658MOL0     H88818  10.436  10.352   4.685  0.2643  0.8937 -0.1732
  658MOL0     H88819  10.251  10.213   4.627 -0.4838  1.9386 -1.4675
  658MOL0     H88820   9.798  10.240   4.758 -1.3799  0.9808 -0.9010
  658MOL0     H88821   9.869  10.402   4.730  2.9593  0.7729 -1.8290
  658MOL0     H88822   9.879  10.351   4.486 -2.2356  1.6709 -0.1585
  658MOL0     H88823   9.723  10.332   4.553  0.1613 -0.9232  2.6317
  658MOL0     H88824   9.907  10.103   4.478 -1.9044 -2.4538 -0.1396
  658MOL0     H88825   9.758  10.146   4.391  0.6842  3.3305 -0.0837
  658MOL0     H88826   9.657  10.132   4.623  2.1224  2.1212 -0.7297
  658MOL0     H88827   9.792  10.026   4.661  0.2838  3.0677  0.6392
  658MOL0     H88828   9.592   9.737   4.455  2.9778 -0.2119  1.2229
  658MOL0     H88829   9.996  10.498   4.846  0.8343  0.8699  1.6453
  658MOL0     H88830  10.170  10.616   4.895 -0.1386 -2.6118  2.1891
  659MOL0     O88831   1.762   7.735  11.031  0.0484  0.6904  0.2366
  659MOL0     C88832   1.882   7.705  11.025  0.1609  0.2892  0.0394
  659MOL0     O88833   1.932   7.585  10.992 -0.7338  0.3045 -0.6323
  659MOL0     C88834   1.847   7.491  10.934  0.1900 -1.0861 -0.8591
  659MOL0     C88835   1.817   7.505  10.798 -1.0240  0.6007 -0.4842
  659MOL0     C88836   1.715   7.439  10.741  0.6192  0.3505  1.2305
  659MOL0     C88837   1.642   7.334  10.817  0.0131  0.5716 -0.2303
  659MOL0     O88838   1.548   7.266  10.737 -0.3067  0.9635 -0.2831
  659MOL0     C88839   1.472   7.163  10.808  0.1864  0.1556  0.3107
  659MOL0     C88840   1.348   7.165  10.730 -0.4650  0.4409  0.2975
  659MOL0     C88841   1.235   7.093  10.799  0.8639 -0.1285 -0.4993
  659MOL0     C88842   1.104   7.105  10.702 -1.0480 -0.3970  0.6840
  659MOL0     C88843   1.051   7.249  10.678  0.1097 -0.0661  0.3730
  659MOL0     C88844   0.924   7.230  10.599  0.3216 -0.2065  0.2901
  659MOL0     C88845   0.869   7.369  10.555  0.9010 -0.1042  0.8824
  659MOL0     C88846   0.727   7.350  10.510 -0.5504  0.4685 -0.3122
  659MOL0     N88847   0.679   7.475  10.450 -0.0969 -0.2896  0.2446
  659MOL0     C88848   0.707   7.602  10.496 -0.1291  0.3727  0.2501
  659MOL0     C88849   0.619   7.684  10.431  0.4546 -0.0727  0.6258
  659MOL0     C88850   0.604   7.835  10.450 -0.9917 -1.0877 -0.6395
  659MOL0     C88851   0.547   7.871  10.593 -0.0904 -0.4762 -0.1099
  659MOL0     C88852   0.521   8.021  10.615 -0.5617 -0.2603  0.0730
  659MOL0     C88853   0.384   8.064  10.551 -0.4091 -0.0402 -0.2627
  659MOL0     O88854   0.270   8.031  10.627  0.2010 -0.5189  0.4345
  659MOL0     C88855   0.139   8.065  10.577 -0.8343 -0.3996  0.1720
  659MOL0     C88856   0.040   8.047  10.673  0.0199 -0.1517 -0.7744
  659MOL0     C88857  -0.087   8.060  10.641  0.7216 -0.4322  0.1795
  659MOL0     C88858  -0.194   8.008  10.726 -0.1045  0.0689  0.2394
  659MOL0     C88859  -0.122   8.119  10.516 -0.4698  0.0100  0.2121
  659MOL0     C88860  -0.260   8.148  10.478  0.7642  0.6186  0.6851
  659MOL0     O88861  -0.335   8.208  10.571 -0.0743 -0.3275  0.5296
  659MOL0     C88862  -0.472   8.237  10.540 -0.1258  0.5097  0.0819
  659MOL0     C88863  -0.517   8.369  10.527  0.2180 -0.1245 -1.2210
  659MOL0     C88864  -0.652   8.408  10.517 -1.1670  0.1440  0.3649
  659MOL0     C88865  -0.743   8.302  10.492 -0.7016  0.3030 -0.5022
  659MOL0     O88866  -0.871   8.340  10.471 -0.0683  0.2852 -0.1507
  659MOL0     C88867  -0.973   8.268  10.542 -0.5950 -0.1669 -1.0250
  659MOL0     C88868  -0.969   8.292  10.702 -0.2186  0.2422  0.8330
  659MOL0     C88869  -0.951   8.430  10.745  0.0835  0.5362  1.2210
  659MOL0     C88870  -1.082   8.510  10.704  0.3336 -0.3615  0.5404
  659MOL0     C88871  -1.075   8.647  10.766  0.0499 -0.2100 -0.8626
  659MOL0     C88872  -1.194   8.738  10.727 -0.2757  0.5791  0.6169
  659MOL0     C88873  -1.142   8.883  10.733 -0.0300  0.0594 -0.3276
  659MOL0     C88874  -1.246   8.959  10.649 -0.2362  0.1413 -0.3538
  659MOL0    Cl88875  -1.217   8.927  10.479 -0.4560  0.3078 -0.0674
  659MOL0     C88876  -0.702   8.163  10.494  0.0721 -0.2911 -0.0204
  659MOL0     C88877  -0.568   8.134  10.516 -0.0216 -0.5769 -0.4636
  659MOL0     O88878  -0.299   8.093  10.371 -0.1249  0.1351  0.6768
  659MOL0     C88879  -0.025   8.152  10.425 -0.0176 -0.3360  0.4345
  659MOL0     C88880   0.105   8.127  10.449 -0.1069 -0.3266 -0.5635
  659MOL0     N88881   0.530   7.597  10.360  0.1057  0.4577 -0.0267
  659MOL0     N88882   0.576   7.480  10.360  0.0159 -0.2223 -0.3639
  659MOL0     C88883   1.688   7.304  10.944  0.2543 -0.5674  0.2034
  659MOL0     C88884   1.783   7.392  11.009 -0.2560  0.0156 -1.3183
  659MOL0     C88885   1.979   7.808  11.083  0.2411  0.2688  0.5958
  659MOL0     C88886   1.940   7.944  11.102 -0.9956  0.4721 -0.4322
  659MOL0     C88887   2.029   8.034  11.161  0.5877  0.4102 -0.4292
  659MOL0     C88888   2.161   7.991  11.202  0.3185  0.5534  0.5821
  659MOL0     O88889   2.255   8.068  11.264  0.3322 -0.4571  0.6677
  659MOL0     C88890   2.266   8.211  11.255  0.7765 -0.2069  0.7017
  659MOL0     C88891   2.415   8.241  11.291 -0.2208  0.2492 -0.5325
  659MOL0     C88892   2.432   8.230  11.441 -0.7170 -0.2943  0.3838
  659MOL0     C88893   2.582   8.231  11.479  0.3480 -0.6981 -0.3102
  659MOL0     C88894   2.585   8.203  11.622 -0.3416  0.4945  1.0910
  659MOL0     C88895   2.594   8.177  11.740  0.8158 -0.4123 -0.4096
  659MOL0     C88896   2.192   7.848  11.194  0.5137 -0.2630  0.3390
  659MOL0     C88897   2.104   7.768  11.127 -0.3326  0.2837  0.9966
  659MOL0     H88898   1.865   7.588  10.748  1.4006 -1.1387 -1.2254
  659MOL0     H88899   1.705   7.467  10.637 -1.3984 -0.4487  1.1878
  659MOL0     H88900   1.524   7.067  10.804 -1.4862 -0.8238  0.9812
  659MOL0     H88901   1.449   7.191  10.912 -0.5997 -1.2885  0.5423
  659MOL0     H88902   1.316   7.269  10.726 -2.6880 -0.2112 -0.6117
  659MOL0     H88903   1.371   7.130  10.629  0.4685 -0.2453  0.7438
  659MOL0     H88904   1.261   6.989  10.822 -2.7073 -1.1839 -0.6175
  659MOL0     H88905   1.201   7.137  10.893 -0.9466 -0.0523 -1.1508
  659MOL0     H88906   1.120   7.064  10.603 -1.8581  1.1627 -0.1368
  659MOL0     H88907   1.025   7.051  10.756 -0.0087 -2.3027  0.3648
  659MOL0     H88908   1.033   7.284  10.780  0.2299 -1.4152  0.8834
  659MOL0     H88909   1.117   7.314  10.621 -1.4739  0.9171 -0.4067
  659MOL0     H88910   0.923   7.153  10.521 -1.0187  0.8649 -0.8085
  659MOL0     H88911   0.853   7.189  10.672 -3.1165  3.3249 -0.7309
  659MOL0     H88912   0.885   7.422  10.649  0.6136 -0.5198  1.1650
  659MOL0     H88913   0.932   7.410  10.475 -1.6926  1.0304 -0.7501
  659MOL0     H88914   0.661   7.332  10.595  0.2380  1.1932  0.4700
  659MOL0     H88915   0.720   7.269  10.438  3.6565 -0.0235 -0.4487
  659MOL0     H88916   0.793   7.636  10.553  2.2073 -1.3811 -1.9691
  659MOL0     H88917   0.691   7.899  10.433 -2.1016  2.4882  4.7127
  659MOL0     H88918   0.517   7.859  10.388 -1.7630 -1.9816  0.0673
  659MOL0     H88919   0.613   7.835  10.673  1.6590 -0.4492 -1.4805
  659MOL0     H88920   0.451   7.819  10.602 -0.3632  0.0198 -0.1511
  659MOL0     H88921   0.592   8.081  10.557  0.7031 -1.4097  0.3811
  659MOL0     H88922   0.527   8.054  10.719  2.1625  1.0328 -0.3983
  659MOL0     H88923   0.365   8.020  10.453 -0.5245  1.3089 -0.8680
  659MOL0     H88924   0.383   8.172  10.537  0.5069  0.3449  2.1280
  659MOL0     H88925   0.069   8.001  10.766 -0.4418 -1.3966 -1.2193
  659MOL0     H88926  -0.251   8.094  10.763 -1.5892  0.0339 -1.8023
  659MOL0     H88927  -0.256   7.937  10.672 -2.6687  0.8541  1.9496
  659MOL0     H88928  -0.151   7.952  10.810  0.4692  0.0575 -0.0550
  659MOL0     H88929  -0.443   8.448  10.540 -1.3971  1.4615 -1.2852
  659MOL0     H88930  -0.678   8.514  10.516  0.7591  0.6499 -0.5271
  659MOL0     H88931  -1.069   8.290  10.493 -0.1362  1.5982 -1.1947
  659MOL0     H88932  -0.954   8.161  10.531  2.0560  0.1222  0.0569
  659MOL0     H88933  -1.062   8.257  10.747  1.4786 -0.9263  3.7163
  659MOL0     H88934  -0.885   8.241  10.750  0.5553  1.8956  1.3313
  659MOL0     H88935  -0.860   8.472  10.702 -0.5627 -0.3347 -1.1500
  659MOL0     H88936  -0.939   8.431  10.854  0.2932  1.6996  1.1948
  659MOL0     H88937  -1.077   8.523  10.595 -1.9860  0.0497  0.4167
  659MOL0     H88938  -1.171   8.457  10.738  1.6038 -2.8897  0.1319
  659MOL0     H88939  -0.980   8.694  10.743 -0.3412  2.3672  2.1592
  659MOL0     H88940  -1.070   8.627  10.873  0.9992 -1.1613 -1.0708
  659MOL0     H88941  -1.215   8.714  10.623  2.6054 -0.5462  0.2061
  659MOL0     H88942  -1.286   8.717  10.782  0.0005 -0.9942  0.5203
  659MOL0     H88943  -1.048   8.901  10.680  0.0052  0.2801 -0.1930
  659MOL0     H88944  -1.135   8.938  10.827  1.2296  1.4540 -1.1872
  659MOL0     H88945  -1.235   9.067  10.663 -0.8696 -0.1772  3.7408
  659MOL0     H88946  -1.350   8.938  10.673 -0.1083  0.7519  0.8048
  659MOL0     H88947  -0.769   8.078  10.487  0.1636 -0.2796 -1.0865
  659MOL0     H88948  -0.530   8.033  10.509 -0.1767 -0.7890  1.3279
  659MOL0     H88949  -0.045   8.202  10.331 -0.8530 -1.8791 -0.2329
  659MOL0     H88950   0.173   8.149  10.367  0.6363  2.5446  0.7043
  659MOL0     H88951   1.648   7.218  10.998 -0.6726 -1.8082 -2.2922
  659MOL0     H88952   1.811   7.379  11.113 -1.0463  1.5545 -0.8782
  659MOL0     H88953   1.839   7.977  11.078  0.0517  3.5283 -1.0759
  659MOL0     H88954   1.998   8.138  11.172  1.3813  0.9365 -2.5508
  659MOL0     H88955   2.245   8.256  11.157  1.7162 -3.1851 -0.9872
  659MOL0     H88956   2.197   8.260  11.325 -2.5891 -1.2155 -1.6721
  659MOL0     H88957   2.434   8.345  11.263  0.5147  0.5260  0.9038
  659MOL0     H88958   2.484   8.170  11.244 -2.5671 -2.9918  0.5641
  659MOL0     H88959   2.381   8.146  11.488 -1.9757  1.2573  1.9112
  659MOL0     H88960   2.390   8.319  11.489 -2.2962  0.7115 -2.6018
  659MOL0     H88961   2.623   8.328  11.449 -1.7553 -0.1100 -1.4950
  659MOL0     H88962   2.641   8.159  11.422  2.0156  1.6506 -1.7490
  659MOL0     H88963   2.568   8.164  11.843 -3.1780 -0.0467 -1.1813
  659MOL0     H88964   2.278   7.804  11.242 -0.2670 -0.1007  1.9607
  659MOL0     H88965   2.138   7.669  11.098 -0.3875  1.1614 -2.3834
  660MOL0     O88966   0.606   3.681   8.549  0.2582  0.1629  0.3507
  660MOL0     C88967   0.703   3.612   8.525  0.7836  0.0061 -0.3181
  660MOL0     O88968   0.703   3.477   8.526  0.3182  0.4352 -0.2282
  660MOL0     C88969   0.586   3.399   8.528 -0.0181  0.1009  0.2499
  660MOL0     C88970   0.571   3.298   8.620  0.6226 -0.4351  0.3364
  660MOL0     C88971   0.465   3.213   8.628  1.4665 -0.9293  0.3363
  660MOL0     C88972   0.369   3.219   8.538  0.1307 -0.4972 -1.0369
  660MOL0     O88973   0.266   3.136   8.550 -0.3345  1.1610  0.6531
  660MOL0     C88974   0.193   3.098   8.431 -0.5597 -0.3370  0.0146
  660MOL0     C88975   0.067   3.022   8.467  0.8352  0.3805 -0.1566
  660MOL0     C88976  -0.046   3.116   8.526  0.5542 -0.1116  0.2977
  660MOL0     C88977  -0.187   3.034   8.515 -0.6561 -0.6846  0.1761
  660MOL0     C88978  -0.255   3.012   8.659  0.6481 -0.7523 -0.7414
  660MOL0     C88979  -0.386   2.939   8.650  0.0094 -0.7020  0.1553
  660MOL0     C88980  -0.364   2.786   8.648  0.2292 -0.9106 -0.7749
  660MOL0     C88981  -0.489   2.714   8.622 -0.0132  0.0111  0.6111
  660MOL0     N88982  -0.591   2.706   8.732 -0.9175  0.3021  0.2575
  660MOL0     C88983  -0.729   2.684   8.715  1.0329 -1.1545  0.4135
  660MOL0     C88984  -0.782   2.674   8.842 -0.2571  0.1389  0.1770
  660MOL0     C88985  -0.919   2.661   8.884  0.2956  0.3848 -0.1142
  660MOL0     C88986  -0.983   2.542   8.807 -0.1077  0.7513  0.6789
  660MOL0     C88987  -1.101   2.471   8.891 -0.2568  1.1298  0.9264
  660MOL0     C88988  -1.158   2.345   8.830 -0.3238 -0.5657  0.6628
  660MOL0     O88989  -1.123   2.233   8.893 -0.7205 -0.5010 -0.2942
  660MOL0     C88990  -1.171   2.201   9.019 -0.7137  0.3055  0.8662
  660MOL0     C88991  -1.267   2.285   9.084 -0.0525  0.9339  0.1740
  660MOL0     C88992  -1.323   2.238   9.198  0.4822  0.2609 -0.5769
  660MOL0     C88993  -1.416   2.335   9.261  0.8627  0.1462  0.4467
  660MOL0     C88994  -1.284   2.110   9.255 -0.0363 -0.2768  0.3977
  660MOL0     C88995  -1.328   2.068   9.396 -0.1668 -1.2247 -0.3017
  660MOL0     O88996  -1.340   1.931   9.416 -0.8162  0.7454 -0.2497
  660MOL0     C88997  -1.358   1.893   9.548 -1.2024  0.5781  0.1042
  660MOL0     C88998  -1.265   1.891   9.649 -0.0034  0.6931  0.6859
  660MOL0     C88999  -1.288   1.833   9.768  1.0369  0.4792  0.4592
  660MOL0     C89000  -1.405   1.773   9.797 -0.4445  0.1692  0.3139
  660MOL0     O89001  -1.425   1.728   9.923 -0.3066 -0.2311  0.1568
  660MOL0     C89002  -1.316   1.710  10.012 -1.8603 -0.2525 -0.5428
  660MOL0     C89003  -1.379   1.660  10.141  0.2845 -0.1560 -0.5564
  660MOL0     C89004  -1.276   1.664  10.260 -0.2768 -0.0991 -0.1009
  660MOL0     C89005  -1.194   1.535  10.281  0.7415 -0.2034  0.7554
  660MOL0     C89006  -1.082   1.547  10.388  0.6519 -0.0903  0.5503
  660MOL0     C89007  -1.118   1.581  10.528  0.2606  1.1028 -0.2231
  660MOL0     C89008  -1.023   1.502  10.621  0.0362  0.2449 -0.0617
  660MOL0     C89009  -1.058   1.521  10.772  0.6039  0.0166  0.2318
  660MOL0    Cl89010  -1.008   1.678  10.846  0.1102 -0.0008  0.2878
  660MOL0     C89011  -1.509   1.783   9.704 -0.5963  0.2138  0.1855
  660MOL0     C89012  -1.474   1.828   9.575  1.1854 -0.4241 -0.6178
  660MOL0     O89013  -1.348   2.155   9.484 -0.4528  0.6585  0.0149
  660MOL0     C89014  -1.194   2.027   9.180  1.4737  1.2814 -1.1853
  660MOL0     C89015  -1.139   2.077   9.067  0.3523  0.3915 -0.1081
  660MOL0     N89016  -0.673   2.721   8.928  0.6761 -0.1771  0.1572
  660MOL0     N89017  -0.557   2.738   8.856  0.1333  0.2650 -0.1305
  660MOL0     C89018   0.372   3.320   8.433  0.2655  1.3949 -0.8213
  660MOL0     C89019   0.485   3.406   8.432 -0.1410  0.5132  1.0926
  660MOL0     C89020   0.824   3.683   8.469  0.8275  0.6626 -0.6641
  660MOL0     C89021   0.943   3.619   8.432  0.3413  0.0950  0.4230
  660MOL0     C89022   1.042   3.680   8.357  0.2496  0.6406 -0.9822
  660MOL0     C89023   1.033   3.816   8.334  0.1835 -0.7107  0.6414
  660MOL0     O89024   1.125   3.889   8.251  0.3865 -0.0142  1.1812
  660MOL0     C89025   1.191   3.809   8.145  0.3216  0.0633  0.2074
  660MOL0     C89026   1.228   3.898   8.030  0.7418 -0.0296 -0.1422
  660MOL0     C89027   1.316   4.012   8.072  0.5767 -0.0376  0.4736
  660MOL0     C89028   1.451   3.967   8.125  0.7423  0.3625 -0.0085
  660MOL0     C89029   1.542   4.078   8.132  0.0237 -0.8864 -0.2439
  660MOL0     C89030   1.625   4.171   8.142 -1.3553 -0.0311  0.0048
  660MOL0     C89031   0.928   3.889   8.391  0.5532 -0.5218  0.4029
  660MOL0     C89032   0.825   3.822   8.448  0.3845  0.2834 -0.2538
  660MOL0     H89033   0.658   3.286   8.684 -0.7889 -1.2718  2.1955
  660MOL0     H89034   0.460   3.127   8.694 -3.2066 -1.7207 -0.6819
  660MOL0     H89035   0.164   3.190   8.378  0.4539  0.1398  0.2641
  660MOL0     H89036   0.261   3.039   8.369 -0.0495  0.2970 -0.0396
  660MOL0     H89037   0.029   2.983   8.372 -0.9941  0.2131  0.5919
  660MOL0     H89038   0.078   2.937   8.536 -1.0013  0.5271  0.3905
  660MOL0     H89039  -0.025   3.153   8.627 -2.7119  0.6658  0.7858
  660MOL0     H89040  -0.060   3.199   8.456  1.6014  1.8993  2.3536
  660MOL0     H89041  -0.246   3.103   8.453 -0.5637 -0.5230  0.2677
  660MOL0     H89042  -0.177   2.938   8.464  3.3555 -0.1214 -0.4261
  660MOL0     H89043  -0.184   2.954   8.719 -0.9708 -1.0618  0.9613
  660MOL0     H89044  -0.257   3.110   8.708  2.6756 -0.5976 -0.8712
  660MOL0     H89045  -0.445   2.960   8.740  0.9870 -0.7555  0.8172
  660MOL0     H89046  -0.450   2.972   8.567 -0.9733 -2.8276 -0.0002
  660MOL0     H89047  -0.278   2.756   8.586  0.9644 -0.0172 -0.2188
  660MOL0     H89048  -0.323   2.765   8.747 -1.4124  1.7568  0.5854
  660MOL0     H89049  -0.447   2.616   8.597 -4.1495 -1.2931 -2.4487
  660MOL0     H89050  -0.530   2.739   8.524  4.6676 -0.4245 -1.7072
  660MOL0     H89051  -0.774   2.674   8.617  3.4748 -1.0518 -0.7927
  660MOL0     H89052  -0.901   2.652   8.992  0.0696 -1.8538 -0.2151
  660MOL0     H89053  -0.967   2.755   8.858 -1.1809 -1.1037 -3.2146
  660MOL0     H89054  -0.910   2.468   8.776 -1.4947 -1.7188  2.9538
  660MOL0     H89055  -1.034   2.557   8.711  0.9185  0.2335  0.0384
  660MOL0     H89056  -1.186   2.535   8.917 -0.5674  1.2778 -0.4176
  660MOL0     H89057  -1.042   2.436   8.976 -2.6113  1.6415  2.9119
  660MOL0     H89058  -1.089   2.332   8.745 -0.7882  2.0842 -0.2159
  660MOL0     H89059  -1.264   2.347   8.804 -0.7921 -0.8080  2.4468
  660MOL0     H89060  -1.291   2.388   9.059 -4.2899  0.4037  1.2344
  660MOL0     H89061  -1.463   2.398   9.185 -0.5369  0.6331  1.6644
  660MOL0     H89062  -1.492   2.289   9.325  1.4378 -1.9870 -0.3165
  660MOL0     H89063  -1.350   2.405   9.314  0.1307  0.1323  1.4085
  660MOL0     H89064  -1.179   1.957   9.652 -0.5916  1.5158 -0.1717
  660MOL0     H89065  -1.207   1.841   9.840 -0.7724 -0.1443  2.6927
  660MOL0     H89066  -1.231   1.656   9.969  0.0741  1.0767  1.4181
  660MOL0     H89067  -1.264   1.802  10.038  0.6673 -1.0463 -2.3880
  660MOL0     H89068  -1.469   1.714  10.172  1.1710  2.1209 -1.7058
  660MOL0     H89069  -1.409   1.555  10.135  0.6363 -0.3577  0.9425
  660MOL0     H89070  -1.334   1.686  10.351  0.2648  1.9610 -0.2209
  660MOL0     H89071  -1.200   1.742  10.251  0.3787 -0.5734  1.0432
  660MOL0     H89072  -1.260   1.449  10.293 -3.2187  2.3338 -0.8043
  660MOL0     H89073  -1.147   1.519  10.184  2.1747 -0.2829  1.4400
  660MOL0     H89074  -1.013   1.620  10.345  1.3786 -1.0387  0.0620
  660MOL0     H89075  -1.020   1.457  10.387  3.9970  2.0495 -0.0583
  660MOL0     H89076  -1.121   1.687  10.553 -3.8559  1.8413 -2.9413
  660MOL0     H89077  -1.215   1.533  10.545  0.6541 -0.2508 -1.5909
  660MOL0     H89078  -0.921   1.531  10.593 -0.7705  0.7983 -2.6563
  660MOL0     H89079  -1.031   1.395  10.600 -0.8558  0.7466 -2.5964
  660MOL0     H89080  -1.008   1.450  10.840  3.2187 -0.6386 -2.1906
  660MOL0     H89081  -1.163   1.493  10.784 -0.1017  2.2663 -0.3033
  660MOL0     H89082  -1.602   1.733   9.730 -0.3896 -1.7256 -2.3116
  660MOL0     H89083  -1.555   1.828   9.503  0.4028 -0.7225  0.2385
  660MOL0     H89084  -1.171   1.932   9.226  0.1205 -0.0161 -3.0412
  660MOL0     H89085  -1.081   2.006   9.008 -2.8005 -2.2707 -0.3362
  660MOL0     H89086   0.298   3.337   8.356 -2.4269 -1.3864  0.9521
  660MOL0     H89087   0.502   3.484   8.358 -0.8518 -0.6951 -0.4053
  660MOL0     H89088   0.940   3.511   8.447  1.7722 -0.4143 -2.3570
  660MOL0     H89089   1.125   3.620   8.322 -0.6031 -1.0207 -0.2900
  660MOL0     H89090   1.278   3.758   8.187  0.6944 -0.4509 -1.1541
  660MOL0     H89091   1.140   3.721   8.106 -2.3879  1.9145 -0.7270
  660MOL0     H89092   1.137   3.935   7.981  2.8862  2.2255 -2.7750
  660MOL0     H89093   1.290   3.850   7.954  3.0294  1.0946  0.9094
  660MOL0     H89094   1.255   4.068   8.143  0.5396 -4.3770  4.2863
  660MOL0     H89095   1.349   4.068   7.983  4.5320  0.2971  1.9376
  660MOL0     H89096   1.483   3.886   8.058  0.7168 -2.2146  2.8928
  660MOL0     H89097   1.436   3.917   8.221  0.0858  1.6231  0.5703
  660MOL0     H89098   1.703   4.245   8.144 -0.4841 -0.3599 -5.2451
  660MOL0     H89099   0.910   3.994   8.371 -3.6131 -1.1982 -0.3290
  660MOL0     H89100   0.742   3.877   8.490  1.4579  1.9486 -0.2362
  661MOL0     O89101   4.735   4.550  10.072  0.2644  0.3423  0.0748
  661MOL0     C89102   4.821   4.631  10.041 -1.0459 -1.1154  0.5721
  661MOL0     O89103   4.921   4.614   9.943 -0.3512  1.1683  0.2245
  661MOL0     C89104   4.914   4.508   9.850  1.0432  0.3809 -0.2124
  661MOL0     C89105   4.867   4.379   9.882 -0.5247 -0.2290  0.1198
  661MOL0     C89106   4.882   4.288   9.778  0.0419  0.3044 -1.0191
  661MOL0     C89107   4.943   4.320   9.658 -0.1573 -0.3289 -0.1607
  661MOL0     O89108   4.956   4.217   9.564 -0.2014  0.7184  0.1892
  661MOL0     C89109   4.837   4.197   9.491 -0.1966  0.2073  0.6179
  661MOL0     C89110   4.874   4.090   9.390 -0.4802  0.7242  0.8651
  661MOL0     C89111   4.931   3.954   9.447  0.0625 -0.7058 -0.2757
  661MOL0     C89112   4.902   3.835   9.356 -0.2279 -0.2959 -0.8512
  661MOL0     C89113   4.964   3.716   9.409 -0.6969  0.3007  0.2822
  661MOL0     C89114   4.990   3.614   9.298 -0.5371  0.1069  0.5733
  661MOL0     C89115   4.865   3.575   9.214  0.3461 -0.2299  0.1954
  661MOL0     C89116   4.753   3.504   9.294 -0.3745 -0.3479 -0.1963
  661MOL0     N89117   4.626   3.492   9.216 -0.2095  1.3353 -0.2697
  661MOL0     C89118   4.518   3.570   9.213 -0.2719  0.4633  0.4271
  661MOL0     C89119   4.425   3.494   9.156  0.3320 -0.1019 -1.2083
  661MOL0     C89120   4.303   3.555   9.089 -0.1790  0.5512  0.0305
  661MOL0     C89121   4.221   3.598   9.207 -0.3822 -0.3574  1.2209
  661MOL0     C89122   4.073   3.647   9.178 -0.0709  0.2110 -0.0055
  661MOL0     C89123   3.992   3.543   9.087 -0.3359 -0.1774 -0.2220
  661MOL0     O89124   4.018   3.401   9.123  0.1474  0.4731  0.1869
  661MOL0     C89125   3.993   3.324   9.011 -0.1743  0.7884 -0.1263
  661MOL0     C89126   4.093   3.278   8.923  0.4244  0.3442  1.5773
  661MOL0     C89127   4.065   3.182   8.825 -0.1022  0.3082  0.1233
  661MOL0     C89128   4.197   3.138   8.751 -1.4945 -0.6424  0.2263
  661MOL0     C89129   3.931   3.146   8.793 -0.6928  0.1475 -0.8258
  661MOL0     C89130   3.895   3.068   8.673  0.6133 -0.0494  0.0780
  661MOL0     O89131   3.993   3.057   8.582 -1.2234 -0.0281 -0.5155
  661MOL0     C89132   3.965   3.015   8.453 -0.6814 -0.2070 -0.0700
  661MOL0     C89133   4.071   2.952   8.384  0.1385 -0.1294  0.5968
  661MOL0     C89134   4.049   2.890   8.260 -0.2959 -0.6966  0.3954
  661MOL0     C89135   3.915   2.877   8.218  1.0399  0.5149  0.8474
  661MOL0     O89136   3.900   2.785   8.108  0.0544  0.2246  0.0617
  661MOL0     C89137   3.795   2.790   8.009  0.1295 -0.5066  0.8670
  661MOL0     C89138   3.785   2.674   7.909  0.8774  0.7226 -0.2152
  661MOL0     C89139   3.774   2.540   7.986 -0.7241 -0.4571  1.0840
  661MOL0     C89140   3.753   2.425   7.886 -0.8596  0.4397 -0.6194
  661MOL0     C89141   3.700   2.301   7.953  0.0938 -0.0404  1.1262
  661MOL0     C89142   3.646   2.199   7.864  0.5583  0.6035 -0.2494
  661MOL0     C89143   3.637   2.061   7.924 -0.9655 -0.7818  0.1247
  661MOL0     C89144   3.535   1.977   7.849 -0.4300 -0.7402  0.3798
  661MOL0    Cl89145   3.516   1.828   7.946  0.1837 -0.5568  0.4459
  661MOL0     C89146   3.811   2.956   8.276  0.1150  0.9072  0.6344
  661MOL0     C89147   3.835   3.041   8.386 -0.7620 -0.9038 -1.0623
  661MOL0     O89148   3.783   3.018   8.663  0.4508 -0.6040  0.0886
  661MOL0     C89149   3.831   3.192   8.884 -0.7105 -0.3284 -1.2123
  661MOL0     C89150   3.864   3.285   8.988  0.1099  0.3052  0.8502
  661MOL0     N89151   4.475   3.371   9.124  0.4165  0.2803 -0.4136
  661MOL0     N89152   4.593   3.372   9.165  0.0567  0.0385  0.1646
  661MOL0     C89153   4.980   4.446   9.623 -0.0774 -0.7339  0.0858
  661MOL0     C89154   4.968   4.541   9.724 -0.0645  0.2758 -0.0475
  661MOL0     C89155   4.828   4.761  10.108 -0.4032 -0.9554 -0.0283
  661MOL0     C89156   4.928   4.865  10.077  0.4963  0.6097  0.8240
  661MOL0     C89157   4.932   4.983  10.131 -0.0221  0.2400 -0.3620
  661MOL0     C89158   4.836   5.011  10.227 -0.1426 -0.8727  0.5944
  661MOL0     O89159   4.831   5.124  10.300  0.5490  0.4492  0.9651
  661MOL0     C89160   4.876   5.247  10.243  0.4386  0.5300 -0.3925
  661MOL0     C89161   4.978   5.317  10.331  0.4935 -0.2320  0.0100
  661MOL0     C89162   4.938   5.341  10.478 -0.4575 -0.5209 -0.4685
  661MOL0     C89163   5.063   5.413  10.547  0.2627 -0.3565  0.1409
  661MOL0     C89164   5.132   5.309  10.616  0.0778 -0.0336 -1.1001
  661MOL0     C89165   5.196   5.220  10.670 -0.3701  0.4173 -0.3584
  661MOL0     C89166   4.741   4.919  10.257 -1.0266 -0.4330  0.2914
  661MOL0     C89167   4.739   4.788  10.209  0.5066  0.3799  0.6604
  661MOL0     H89168   4.831   4.337   9.975  1.9122 -0.1910  1.1724
  661MOL0     H89169   4.855   4.184   9.797 -1.5859  0.5142 -1.9610
  661MOL0     H89170   4.761   4.167   9.563 -1.8130 -0.6748 -1.3775
  661MOL0     H89171   4.817   4.291   9.438 -2.5204  0.6253  2.1351
  661MOL0     H89172   4.780   4.078   9.335  0.1391  1.4863 -0.4228
  661MOL0     H89173   4.946   4.137   9.322 -0.3150 -0.4233  0.2184
  661MOL0     H89174   5.039   3.974   9.454  0.1320 -0.3345 -1.9308
  661MOL0     H89175   4.896   3.939   9.549  4.0791 -2.1677  1.0835
  661MOL0     H89176   4.794   3.823   9.348 -0.1591 -2.3005  0.4819
  661MOL0     H89177   4.940   3.846   9.254 -0.0491 -0.3596 -0.7916
  661MOL0     H89178   5.062   3.731   9.457 -0.7625 -0.7767  0.8001
  661MOL0     H89179   4.893   3.675   9.482  0.6365  0.2016  1.5830
  661MOL0     H89180   5.055   3.652   9.218  0.7817 -0.9564  1.1050
  661MOL0     H89181   5.039   3.525   9.337 -1.0782 -1.2999 -1.7624
  661MOL0     H89182   4.827   3.664   9.163  3.5284  1.0179 -0.2082
  661MOL0     H89183   4.890   3.508   9.131 -2.2349 -1.8267  0.5734
  661MOL0     H89184   4.731   3.557   9.387  0.5431 -0.4484  0.0887
  661MOL0     H89185   4.783   3.408   9.335  0.6281  1.7524  4.7334
  661MOL0     H89186   4.518   3.666   9.262  0.7265 -0.6267  2.7043
  661MOL0     H89187   4.333   3.646   9.037 -1.2609  0.8515 -0.0987
  661MOL0     H89188   4.260   3.487   9.015  0.0330  1.6804 -1.1652
  661MOL0     H89189   4.281   3.686   9.233 -1.0483  0.6289 -0.4567
  661MOL0     H89190   4.231   3.516   9.279  5.0971 -1.4030 -0.2759
  661MOL0     H89191   4.051   3.741   9.128 -1.5084  0.8660  1.7280
  661MOL0     H89192   4.019   3.657   9.273 -1.9610  1.3559 -1.1554
  661MOL0     H89193   4.033   3.552   8.986  0.1346  0.2954  0.0041
  661MOL0     H89194   3.890   3.581   9.101 -1.2319 -2.1204 -1.1355
  661MOL0     H89195   4.192   3.323   8.928  1.9446 -1.6708 -3.7173
  661MOL0     H89196   4.215   3.198   8.661  0.5964  2.7532  2.6843
  661MOL0     H89197   4.288   3.152   8.811 -1.2286  0.6761 -0.4477
  661MOL0     H89198   4.177   3.036   8.717 -4.7958  0.2653 -0.9867
  661MOL0     H89199   4.172   2.946   8.425  0.6112  1.7800 -0.1710
  661MOL0     H89200   4.131   2.840   8.209 -1.1742  0.8182 -2.8006
  661MOL0     H89201   3.702   2.800   8.066  2.0857 -1.1265  4.4390
  661MOL0     H89202   3.802   2.887   7.958 -2.2697 -1.5664 -1.7499
  661MOL0     H89203   3.707   2.679   7.832 -1.2279 -2.0099  1.5538
  661MOL0     H89204   3.874   2.672   7.846 -0.5424  2.5028 -2.4758
  661MOL0     H89205   3.681   2.547   8.042 -1.6639  1.0725 -0.5395
  661MOL0     H89206   3.855   2.519   8.057  0.6414  0.1514 -0.2259
  661MOL0     H89207   3.682   2.461   7.811 -1.5222 -2.5196 -1.5461
  661MOL0     H89208   3.849   2.402   7.840 -2.2663 -2.3194 -2.4614
  661MOL0     H89209   3.620   2.326   8.023 -0.7811  2.3937 -0.6423
  661MOL0     H89210   3.781   2.253   8.010 -0.6009 -1.5890  0.8602
  661MOL0     H89211   3.545   2.236   7.844  0.4549 -0.3282 -1.5925
  661MOL0     H89212   3.702   2.202   7.770 -0.3902 -0.2741 -0.8675
  661MOL0     H89213   3.600   2.052   8.027 -3.4036 -0.9608 -0.6822
  661MOL0     H89214   3.734   2.013   7.906  0.8169  2.6259  0.0141
  661MOL0     H89215   3.556   1.959   7.743 -2.4119  1.7468 -0.5327
  661MOL0     H89216   3.439   2.029   7.853  0.5791  1.1686  1.1914
  661MOL0     H89217   3.712   2.932   8.239  0.5482 -2.8746  1.5275
  661MOL0     H89218   3.763   3.104   8.436 -1.0843 -0.0473 -2.5266
  661MOL0     H89219   3.731   3.153   8.868 -0.1993 -2.6533  0.6599
  661MOL0     H89220   3.786   3.327   9.051 -1.6561  2.6792 -2.6052
  661MOL0     H89221   5.021   4.469   9.525  1.4626 -1.0651  0.6120
  661MOL0     H89222   5.006   4.639   9.697 -0.5878 -0.5840 -4.6395
  661MOL0     H89223   4.999   4.847   9.997  1.2376  1.1777  1.3364
  661MOL0     H89224   5.001   5.065  10.118 -2.9664  2.4417 -3.6574
  661MOL0     H89225   4.924   5.236  10.146  0.0831 -1.6023 -0.3787
  661MOL0     H89226   4.795   5.312  10.208 -1.5894 -1.0072  1.1398
  661MOL0     H89227   4.984   5.417  10.289 -1.0387  0.6180  1.6895
  661MOL0     H89228   5.071   5.261  10.327 -0.6763 -2.4752  1.6144
  661MOL0     H89229   4.912   5.248  10.528  1.2131 -0.5031  0.5172
  661MOL0     H89230   4.851   5.407  10.480 -1.5817 -1.9106 -1.3952
  661MOL0     H89231   5.041   5.490  10.622  1.8729  0.1845  0.1141
  661MOL0     H89232   5.134   5.448  10.472  0.4976 -1.0003  0.0538
  661MOL0     H89233   5.256   5.141  10.711 -1.7846 -0.4895  0.0195
  661MOL0     H89234   4.676   4.956  10.335  3.2378  3.2773  2.5666
  661MOL0     H89235   4.651   4.732  10.240 -1.8203  3.6038  0.4870
  662MOL0     O89236   8.278   8.495   5.349 -0.6753  0.5885  0.0875
  662MOL0     C89237   8.245   8.558   5.247  0.2068  0.0736 -0.7912
  662MOL0     O89238   8.209   8.684   5.247 -0.3187  0.6316 -0.1756
  662MOL0     C89239   8.183   8.735   5.370  0.3760 -0.8016 -0.3249
  662MOL0     C89240   8.236   8.857   5.401 -0.5172  0.2167  0.4438
  662MOL0     C89241   8.194   8.924   5.524  0.3014 -0.1933 -0.1393
  662MOL0     C89242   8.118   8.849   5.622  0.7158  0.6500  0.2641
  662MOL0     O89243   8.082   8.871   5.760  0.8652  0.1465  0.4931
  662MOL0     C89244   8.076   9.007   5.803  0.5191 -0.4617  0.5974
  662MOL0     C89245   7.943   9.079   5.750 -0.6221  0.4934 -0.5350
  662MOL0     C89246   7.936   9.228   5.778 -0.1556 -0.2515  0.6656
  662MOL0     C89247   8.021   9.304   5.674  0.1262  0.3713  0.0938
  662MOL0     C89248   8.014   9.451   5.691 -0.4909 -0.1557  0.0634
  662MOL0     C89249   8.082   9.543   5.587 -0.3856  0.8087 -0.2341
  662MOL0     C89250   8.059   9.689   5.620 -0.2716 -0.0206  0.5911
  662MOL0     C89251   8.084   9.774   5.500  0.8114 -0.2719 -0.0677
  662MOL0     N89252   8.215   9.834   5.503 -0.6955  0.5499  0.1916
  662MOL0     C89253   8.310   9.774   5.426 -0.0351 -0.0178  0.3442
  662MOL0     C89254   8.424   9.842   5.455  0.9517  0.6814 -0.3945
  662MOL0     C89255   8.563   9.805   5.418  0.4755 -0.2832  0.1574
  662MOL0     C89256   8.591   9.667   5.465 -0.7618 -0.5100  0.2030
  662MOL0     C89257   8.608   9.637   5.612  0.7321 -0.2845  0.1509
  662MOL0     C89258   8.715   9.721   5.681  0.4403 -0.3314 -0.0691
  662MOL0     O89259   8.825   9.745   5.605  0.2334  0.1063 -0.5324
  662MOL0     C89260   8.931   9.659   5.634  0.5289 -0.1629 -0.8386
  662MOL0     C89261   8.934   9.533   5.583 -0.2967  0.9308  0.4027
  662MOL0     C89262   9.042   9.450   5.591  0.3920 -0.8747 -0.4476
  662MOL0     C89263   9.035   9.335   5.487  0.1330 -0.6438 -0.1802
  662MOL0     C89264   9.156   9.485   5.657 -0.0468  0.4429  0.2243
  662MOL0     C89265   9.279   9.409   5.665  0.0049  0.9937 -0.1464
  662MOL0     O89266   9.389   9.474   5.717  0.4475 -0.5812  0.0992
  662MOL0     C89267   9.523   9.427   5.709  0.7784  0.8284  1.0523
  662MOL0     C89268   9.587   9.427   5.834  0.6739  0.3410 -0.0323
  662MOL0     C89269   9.726   9.397   5.836 -0.1107  0.0949 -0.7496
  662MOL0     C89270   9.788   9.358   5.722  0.2373 -0.4040  0.7449
  662MOL0     O89271   9.925   9.333   5.715  0.3008 -1.0420  0.0811
  662MOL0     C89272  10.011   9.311   5.826 -0.0016  0.2666 -0.4106
  662MOL0     C89273  10.063   9.437   5.884  0.2457 -0.0673 -0.2969
  662MOL0     C89274  10.123   9.526   5.765  0.1699 -0.3003  1.0049
  662MOL0     C89275  10.261   9.589   5.805  0.0447  0.1383 -0.8956
  662MOL0     C89276  10.324   9.659   5.684  0.2141  0.6762 -0.2550
  662MOL0     C89277  10.456   9.731   5.722  0.4279 -0.3387  0.2213
  662MOL0     C89278  10.495   9.837   5.626  0.6650  1.2468  0.2265
  662MOL0     C89279  10.622   9.920   5.657 -0.1541 -0.2575  0.7868
  662MOL0    Cl89280  10.593  10.011   5.816 -0.2281  0.1287  0.4365
  662MOL0     C89281   9.719   9.345   5.607 -1.2814 -0.7217  0.0097
  662MOL0     C89282   9.589   9.390   5.595 -0.0310  0.4659 -0.7929
  662MOL0     O89283   9.299   9.298   5.611  0.9812  0.1482  0.4082
  662MOL0     C89284   9.152   9.610   5.736 -0.0167 -0.0218 -0.0433
  662MOL0     C89285   9.047   9.698   5.710  0.5134  0.7793  0.7067
  662MOL0     N89286   8.393   9.958   5.536 -0.5588  0.0410 -0.3439
  662MOL0     N89287   8.263   9.953   5.561  0.1002  0.3357  0.3100
  662MOL0     C89288   8.077   8.719   5.593  1.2460 -0.4196  0.5176
  662MOL0     C89289   8.104   8.672   5.464 -0.1649  0.0668  0.4587
  662MOL0     C89290   8.254   8.487   5.120 -0.6257  0.4415 -0.5916
  662MOL0     C89291   8.222   8.552   4.996  0.2067 -0.0637 -0.5749
  662MOL0     C89292   8.217   8.480   4.872 -0.3527  0.3826  0.6632
  662MOL0     C89293   8.256   8.350   4.868  0.0547 -0.0996  0.0428
  662MOL0     O89294   8.245   8.264   4.762  0.2023 -0.0409 -1.0811
  662MOL0     C89295   8.203   8.309   4.627 -0.0343 -0.2122 -0.3697
  662MOL0     C89296   8.303   8.248   4.536  0.3327 -0.0966 -1.3467
  662MOL0     C89297   8.449   8.309   4.533 -0.8974  1.1965 -0.5325
  662MOL0     C89298   8.543   8.246   4.413 -1.1378 -0.3145  0.2484
  662MOL0     C89299   8.564   8.099   4.438 -0.0741 -0.2275  1.2555
  662MOL0     C89300   8.594   7.987   4.477 -0.2910 -0.4490 -0.4067
  662MOL0     C89301   8.298   8.289   4.989  0.6283  1.0359 -0.4802
  662MOL0     C89302   8.283   8.355   5.116  0.0931 -0.4737 -0.2650
  662MOL0     H89303   8.292   8.904   5.321 -0.2610 -2.6524 -1.1785
  662MOL0     H89304   8.244   9.018   5.545 -1.2784  0.9481 -1.1709
  662MOL0     H89305   8.076   9.030   5.910 -1.0686  2.8046  0.0244
  662MOL0     H89306   8.168   9.051   5.763  1.1282 -0.1216  2.2827
  662MOL0     H89307   7.928   9.058   5.644  0.7438  0.6037 -0.7727
  662MOL0     H89308   7.865   9.037   5.815  0.0099 -0.1888 -0.1914
  662MOL0     H89309   7.835   9.259   5.749 -0.0798 -0.4543  0.1708
  662MOL0     H89310   7.963   9.255   5.881 -0.4315  0.9718  0.4338
  662MOL0     H89311   8.122   9.267   5.692 -0.5756 -0.3339  3.1532
  662MOL0     H89312   7.980   9.281   5.576 -1.4263 -2.2640  1.2734
  662MOL0     H89313   7.907   9.472   5.698 -0.2072  1.6647 -0.6710
  662MOL0     H89314   8.058   9.475   5.788 -0.5585  0.0936  0.0313
  662MOL0     H89315   8.189   9.521   5.589 -0.3678  0.0386 -3.6120
  662MOL0     H89316   8.039   9.513   5.491  0.3410 -0.1504 -0.2759
  662MOL0     H89317   7.954   9.713   5.633 -0.3127  0.9682 -1.1749
  662MOL0     H89318   8.115   9.712   5.711 -2.1131  2.5753  1.1578
  662MOL0     H89319   8.016   9.859   5.503  4.7584  3.1460  0.6002
  662MOL0     H89320   8.075   9.736   5.398  0.1362  0.6109 -0.3435
  662MOL0     H89321   8.303   9.684   5.366 -0.3761 -0.1717  0.6128
  662MOL0     H89322   8.552   9.812   5.309 -0.9679 -0.1827  0.2953
  662MOL0     H89323   8.634   9.881   5.450  2.7575 -2.0089 -0.5345
  662MOL0     H89324   8.689   9.656   5.418 -0.3659  1.6131  0.4482
  662MOL0     H89325   8.526   9.591   5.419  0.6979 -0.9723 -1.2031
  662MOL0     H89326   8.643   9.535   5.633  2.6247 -0.2346 -2.3212
  662MOL0     H89327   8.511   9.657   5.660 -1.0486  0.9504 -3.6038
  662MOL0     H89328   8.736   9.667   5.774 -2.0943  2.6315  2.4805
  662MOL0     H89329   8.672   9.821   5.694 -1.1607 -0.7382 -1.7787
  662MOL0     H89330   8.852   9.510   5.516 -0.1428 -0.3852  0.6410
  662MOL0     H89331   9.097   9.370   5.404  2.5825 -2.2841  0.8544
  662MOL0     H89332   9.065   9.236   5.519 -1.9332 -2.0142 -2.1221
  662MOL0     H89333   8.937   9.321   5.440 -0.1609  0.6655  0.0072
  662MOL0     H89334   9.528   9.450   5.921  1.0027  3.0607 -0.4632
  662MOL0     H89335   9.776   9.398   5.932  0.6262  1.1886 -1.1215
  662MOL0     H89336   9.962   9.239   5.891  1.1154  0.3934  0.6071
  662MOL0     H89337  10.091   9.247   5.788 -0.8222 -3.0004  2.7926
  662MOL0     H89338   9.977   9.494   5.918  0.7782  1.1981 -0.9926
  662MOL0     H89339  10.133   9.406   5.962  1.3463 -3.8588 -2.4937
  662MOL0     H89340  10.052   9.602   5.731 -0.0897 -0.1463  1.8662
  662MOL0     H89341  10.150   9.455   5.686  3.3501 -1.8439  3.2103
  662MOL0     H89342  10.250   9.648   5.896 -1.2546  0.3152 -1.1451
  662MOL0     H89343  10.335   9.509   5.809  0.7543  0.6912 -2.2097
  662MOL0     H89344  10.247   9.732   5.656 -0.7807 -1.0490 -2.3653
  662MOL0     H89345  10.335   9.583   5.606  1.2820 -1.7601  2.0944
  662MOL0     H89346  10.439   9.782   5.817 -1.0453 -3.1700  1.5987
  662MOL0     H89347  10.540   9.662   5.732  0.2009 -1.0820 -2.3087
  662MOL0     H89348  10.408   9.902   5.609  0.8094  1.3631 -0.0610
  662MOL0     H89349  10.512   9.778   5.536 -2.4736  0.0807  0.2623
  662MOL0     H89350  10.648   9.988   5.575  0.8100 -1.3683  0.1430
  662MOL0     H89351  10.698   9.841   5.653 -1.2658 -1.3069 -1.6872
  662MOL0     H89352   9.773   9.314   5.518 -0.2523  1.9027 -0.3586
  662MOL0     H89353   9.536   9.385   5.501 -0.9183 -2.2801 -0.2451
  662MOL0     H89354   9.228   9.656   5.799 -0.8997  2.2858 -0.5541
  662MOL0     H89355   9.051   9.800   5.746  3.9069  1.5186 -1.3505
  662MOL0     H89356   8.003   8.665   5.651 -1.9048  0.9608 -1.8945
  662MOL0     H89357   8.061   8.574   5.442 -2.1762  0.2897  2.9784
  662MOL0     H89358   8.175   8.649   5.003 -0.1693 -0.1983 -1.1229
  662MOL0     H89359   8.183   8.549   4.795  2.4542  1.6405  0.4232
  662MOL0     H89360   8.113   8.253   4.602 -1.0597 -0.1809  2.8054
  662MOL0     H89361   8.193   8.418   4.616  0.3787 -0.2634 -1.3396
  662MOL0     H89362   8.264   8.251   4.434  0.6072 -1.0978 -1.4959
  662MOL0     H89363   8.303   8.141   4.561  2.2490  0.7064  3.0534
  662MOL0     H89364   8.505   8.292   4.625  1.9652 -0.1029 -2.3684
  662MOL0     H89365   8.457   8.418   4.536  0.6788  1.0907  1.1007
  662MOL0     H89366   8.636   8.299   4.390  1.2699 -4.3671 -0.3941
  662MOL0     H89367   8.483   8.262   4.323 -2.2368 -3.3639  0.3131
  662MOL0     H89368   8.604   7.888   4.517 -2.6596 -2.1821 -3.6439
  662MOL0     H89369   8.332   8.186   4.979 -0.0040  0.3895  2.9220
  662MOL0     H89370   8.293   8.305   5.212 -2.2043  1.4206  1.0734
  663MOL0     O89371   7.004   6.763   0.517 -0.4290 -0.3248  0.4082
  663MOL0     C89372   6.894   6.703   0.512  0.2520  0.6716 -0.2332
  663MOL0     O89373   6.849   6.626   0.617  0.2040  0.3792 -0.3026
  663MOL0     C89374   6.946   6.593   0.708 -0.2420  0.7461  0.3454
  663MOL0     C89375   7.002   6.466   0.724 -0.4123 -0.6220 -0.2708
  663MOL0     C89376   7.096   6.434   0.825  1.2746  0.3669  0.0993
  663MOL0     C89377   7.144   6.539   0.921 -0.4622  0.6264  0.3317
  663MOL0     O89378   7.239   6.520   1.021 -0.0446 -0.8869  0.1716
  663MOL0     C89379   7.331   6.410   1.014  0.1290  1.4699 -0.0349
  663MOL0     C89380   7.427   6.414   1.132 -0.9349  0.0634  0.4076
  663MOL0     C89381   7.526   6.292   1.138  0.7350 -0.7352  0.3254
  663MOL0     C89382   7.632   6.312   1.247  0.7774  0.2163  1.3509
  663MOL0     C89383   7.646   6.179   1.322  0.1733 -0.7946  1.4076
  663MOL0     C89384   7.765   6.187   1.410 -0.4814 -1.2622  0.0081
  663MOL0     C89385   7.784   6.048   1.468 -0.7802 -0.7143 -0.9207
  663MOL0     C89386   7.860   6.056   1.596 -0.2053 -0.3764  0.3069
  663MOL0     N89387   7.800   6.141   1.704  0.1889  0.0238 -0.4312
  663MOL0     C89388   7.876   6.216   1.800 -0.3932 -0.2426 -0.2014
  663MOL0     C89389   7.795   6.231   1.908  0.2858  0.6561  1.0218
  663MOL0     C89390   7.811   6.295   2.038  0.2033 -0.1325 -0.8613
  663MOL0     C89391   7.835   6.185   2.146 -0.0123  0.4281 -0.1369
  663MOL0     C89392   7.873   6.259   2.284 -0.9880  0.7178  0.2273
  663MOL0     C89393   7.917   6.156   2.398  0.2288  0.1580 -0.1788
  663MOL0     O89394   8.050   6.118   2.380 -0.0751 -0.0881 -0.7362
  663MOL0     C89395   8.065   5.987   2.411  0.0440  0.1502 -0.3161
  663MOL0     C89396   8.159   5.957   2.505  0.8281  0.2605 -0.4767
  663MOL0     C89397   8.180   5.825   2.552  0.0971 -0.0247  0.3029
  663MOL0     C89398   8.305   5.821   2.631 -0.0926 -0.9455 -0.1192
  663MOL0     C89399   8.103   5.719   2.482  1.0703 -0.4953 -0.1792
  663MOL0     C89400   8.149   5.582   2.506 -0.9527 -0.3558  0.1384
  663MOL0     O89401   8.043   5.494   2.501 -0.6220 -0.3679  0.3891
  663MOL0     C89402   8.047   5.365   2.539  0.3047  0.6402 -0.3742
  663MOL0     C89403   7.919   5.312   2.541 -0.5131 -0.0137  0.5188
  663MOL0     C89404   7.903   5.175   2.555 -0.2713 -0.1652  0.2424
  663MOL0     C89405   8.018   5.086   2.578  0.4139  0.6650  0.1533
  663MOL0     O89406   8.018   4.944   2.584 -0.1935  0.4846  0.6440
  663MOL0     C89407   7.893   4.873   2.581  0.6393  0.7099 -0.1425
  663MOL0     C89408   7.912   4.719   2.523  0.2263 -0.3164  0.8031
  663MOL0     C89409   7.776   4.636   2.515 -0.7000  0.9608 -0.1551
  663MOL0     C89410   7.794   4.486   2.559  0.0177 -0.4731 -0.4048
  663MOL0     C89411   7.660   4.408   2.570  0.0119  0.5052  0.3992
  663MOL0     C89412   7.672   4.269   2.632  0.1057  0.4381 -0.6489
  663MOL0     C89413   7.751   4.248   2.764 -0.8177 -0.9062  0.9235
  663MOL0     C89414   7.765   4.108   2.828  0.2463  0.1246 -0.0381
  663MOL0    Cl89415   7.785   3.977   2.704 -0.1283  0.3370  0.2515
  663MOL0     C89416   8.140   5.149   2.611  0.2137  0.2717 -0.3321
  663MOL0     C89417   8.159   5.291   2.583 -0.2861  0.9442 -0.9296
  663MOL0     O89418   8.262   5.557   2.536  0.0230 -0.0847  0.2793
  663MOL0     C89419   7.995   5.756   2.387 -0.8715 -0.3995 -0.2226
  663MOL0     C89420   7.989   5.888   2.352  0.2915  0.0873 -0.4768
  663MOL0     N89421   7.676   6.162   1.880  0.2554  0.0695 -0.5083
  663MOL0     N89422   7.682   6.112   1.761  0.0838 -0.7532 -0.4525
  663MOL0     C89423   7.079   6.659   0.906 -0.2288 -0.4881 -0.8829
  663MOL0     C89424   6.979   6.687   0.809  0.2044  0.0544  0.1958
  663MOL0     C89425   6.817   6.714   0.387 -0.2456 -0.0593  0.7274
  663MOL0     C89426   6.880   6.777   0.282 -0.1909  0.5018  0.1730
  663MOL0     C89427   6.803   6.803   0.165  0.5803 -0.5583 -0.3883
  663MOL0     C89428   6.667   6.770   0.160 -0.6807  0.3333  0.0910
  663MOL0     O89429   6.595   6.793   0.049  0.0392  0.6707 -0.2570
  663MOL0     C89430   6.647   6.837  -0.079  0.2247  1.0842  0.4313
  663MOL0     C89431   6.694   6.718  -0.163 -0.2438  0.2759 -0.7634
  663MOL0     C89432   6.582   6.623  -0.212  0.5416 -0.0357  0.5693
  663MOL0     C89433   6.645   6.504  -0.295 -0.0343 -0.2526 -0.2467
  663MOL0     C89434   6.539   6.429  -0.364  0.7140  0.3014 -0.3419
  663MOL0     C89435   6.449   6.376  -0.423  0.6016 -0.5765  0.8976
  663MOL0     C89436   6.615   6.687   0.259 -0.5929  0.2461  0.2524
  663MOL0     C89437   6.691   6.673   0.372  0.2738  0.7112 -0.2548
  663MOL0     H89438   6.973   6.391   0.652 -2.0318  0.9146 -1.3031
  663MOL0     H89439   7.157   6.345   0.817 -0.5875 -0.8149 -2.6219
  663MOL0     H89440   7.279   6.316   1.031  4.1771 -0.6897  1.8264
  663MOL0     H89441   7.383   6.409   0.918 -1.6789 -0.3638 -1.0796
  663MOL0     H89442   7.484   6.507   1.123  2.6045 -1.9563 -0.0974
  663MOL0     H89443   7.368   6.426   1.223 -1.5191 -0.6201  0.1223
  663MOL0     H89444   7.462   6.207   1.165 -0.8277  1.0902  2.8853
  663MOL0     H89445   7.585   6.273   1.048  0.4463  0.5798 -0.1616
  663MOL0     H89446   7.729   6.331   1.201 -0.6720 -0.6519 -2.4143
  663MOL0     H89447   7.596   6.391   1.314  1.1495  2.3761 -0.8518
  663MOL0     H89448   7.556   6.168   1.383 -1.2013  0.1254 -0.3488
  663MOL0     H89449   7.665   6.097   1.252 -0.6814  0.2883 -0.1459
  663MOL0     H89450   7.856   6.207   1.354 -0.9804 -2.0786 -1.1189
  663MOL0     H89451   7.746   6.270   1.480  0.4507  0.0264 -1.2248
  663MOL0     H89452   7.683   6.008   1.483 -0.4323 -2.5623 -2.9615
  663MOL0     H89453   7.837   5.986   1.396  2.0230 -0.3082  0.6557
  663MOL0     H89454   7.953   6.108   1.572  2.3723 -4.2108  1.0412
  663MOL0     H89455   7.890   5.960   1.639  0.8348  1.1306  3.1533
  663MOL0     H89456   7.974   6.259   1.784 -0.2550 -0.5091 -0.0741
  663MOL0     H89457   7.909   6.343   2.043  1.0102 -1.8107  0.1761
  663MOL0     H89458   7.723   6.352   2.069 -0.3714 -0.4274 -1.8889
  663MOL0     H89459   7.917   6.124   2.108 -2.6339 -2.5228 -1.5221
  663MOL0     H89460   7.753   6.114   2.158 -1.6200  2.3432  0.8986
  663MOL0     H89461   7.789   6.321   2.317  1.2521  4.4138 -0.4699
  663MOL0     H89462   7.962   6.317   2.260  2.1087 -2.9235  1.8188
  663MOL0     H89463   7.838   6.081   2.405 -0.1113  0.5515  0.2655
  663MOL0     H89464   7.921   6.192   2.501 -0.2965 -0.1098 -0.0607
  663MOL0     H89465   8.233   6.029   2.538  1.8220 -1.3991  1.1671
  663MOL0     H89466   8.389   5.800   2.564 -0.6399  0.0618 -1.1426
  663MOL0     H89467   8.330   5.910   2.689  1.7063 -0.8094 -1.0195
  663MOL0     H89468   8.293   5.743   2.706 -0.3142 -1.0102 -0.2209
  663MOL0     H89469   7.830   5.373   2.527  0.7205  1.2280 -2.9040
  663MOL0     H89470   7.804   5.132   2.542  0.2411 -1.6004  0.8550
  663MOL0     H89471   7.852   4.873   2.682 -1.2319  1.6639 -0.8428
  663MOL0     H89472   7.818   4.911   2.511  0.3080  1.3662  0.5555
  663MOL0     H89473   7.956   4.734   2.424 -0.3981 -1.8083  0.2740
  663MOL0     H89474   7.983   4.670   2.591  1.8502 -1.5988 -1.6456
  663MOL0     H89475   7.737   4.636   2.412 -3.5016  2.6184  0.7782
  663MOL0     H89476   7.698   4.683   2.576  0.0703  3.0683 -0.7096
  663MOL0     H89477   7.867   4.432   2.497  1.7863  1.3336 -0.0124
  663MOL0     H89478   7.833   4.492   2.661  0.0327 -1.6629 -0.3268
  663MOL0     H89479   7.608   4.402   2.474 -0.0765 -0.6034  0.5073
  663MOL0     H89480   7.588   4.458   2.635 -1.3196  0.0929 -0.7028
  663MOL0     H89481   7.574   4.237   2.669  0.6402 -0.2215  0.2424
  663MOL0     H89482   7.707   4.206   2.549 -0.5643  2.0326 -2.1884
  663MOL0     H89483   7.699   4.314   2.834 -3.6263  0.6980 -2.3325
  663MOL0     H89484   7.852   4.277   2.735 -1.3058 -0.5068 -0.4601
  663MOL0     H89485   7.680   4.078   2.890 -0.0728 -1.1134 -1.0431
  663MOL0     H89486   7.847   4.113   2.900  0.8389 -0.2145 -0.6769
  663MOL0     H89487   8.219   5.084   2.646 -3.2246 -2.1658  3.8212
  663MOL0     H89488   8.259   5.334   2.590  0.1198 -0.1184  0.2196
  663MOL0     H89489   7.924   5.709   2.320 -4.9628  2.4023  1.7384
  663MOL0     H89490   7.913   5.910   2.277 -0.9096 -1.8518  0.1142
  663MOL0     H89491   7.096   6.734   0.982 -0.3889 -1.3066 -0.0144
  663MOL0     H89492   6.926   6.781   0.797  0.2698 -0.1464 -2.3361
  663MOL0     H89493   6.987   6.795   0.284  0.0753  0.3072 -3.9743
  663MOL0     H89494   6.861   6.856   0.089 -5.2843  3.2390 -2.9378
  663MOL0     H89495   6.564   6.888  -0.128 -0.3078 -1.3097 -1.3376
  663MOL0     H89496   6.738   6.898  -0.084  2.1467 -1.5842  0.2106
  663MOL0     H89497   6.763   6.657  -0.104  2.8994  1.0539 -3.3080
  663MOL0     H89498   6.762   6.756  -0.240  1.9978  2.4613  2.0430
  663MOL0     H89499   6.512   6.676  -0.277  0.9950 -0.2757 -0.1179
  663MOL0     H89500   6.524   6.588  -0.126  1.1371  1.5491  1.6491
  663MOL0     H89501   6.702   6.445  -0.223 -0.9870 -1.2714 -0.3070
  663MOL0     H89502   6.716   6.547  -0.367  0.5843  1.9848  1.6044
  663MOL0     H89503   6.365   6.340  -0.479 -0.9154  0.8309  2.1488
  663MOL0     H89504   6.511   6.658   0.249 -0.9469  2.1502 -2.9695
  663MOL0     H89505   6.651   6.635   0.466 -1.3193  3.4181  0.2512
  664MOL0     O89506  10.390   6.430   9.141  0.0735 -0.6135  0.4929
  664MOL0     C89507  10.460   6.343   9.092 -0.8082  0.3403 -0.1890
  664MOL0     O89508  10.423   6.248   9.002  0.2005 -0.8248 -0.8810
  664MOL0     C89509  10.305   6.262   8.934  0.2561 -0.0762 -0.0537
  664MOL0     C89510  10.250   6.138   8.898 -0.2839 -0.6940 -0.3983
  664MOL0     C89511  10.127   6.138   8.836 -0.7877  0.4091 -0.1789
  664MOL0     C89512  10.075   6.255   8.788  0.3527 -0.3494 -0.9738
  664MOL0     O89513   9.956   6.264   8.727 -0.5017 -0.4986 -0.4588
  664MOL0     C89514   9.859   6.152   8.747  0.3360  0.6584  0.1300
  664MOL0     C89515   9.746   6.144   8.644 -0.3656  0.3756 -0.5558
  664MOL0     C89516   9.647   6.268   8.647 -0.0239  0.1507 -0.1529
  664MOL0     C89517   9.549   6.275   8.528 -0.3304 -0.5351  0.3086
  664MOL0     C89518   9.448   6.399   8.542 -0.1983 -0.3351  0.4005
  664MOL0     C89519   9.336   6.381   8.442 -0.3937  1.1196  0.2384
  664MOL0     C89520   9.372   6.430   8.300  0.5737 -0.5646 -1.5424
  664MOL0     C89521   9.290   6.369   8.189  0.7088  0.2424 -0.5324
  664MOL0     N89522   9.144   6.393   8.216 -0.1211 -0.0734 -0.3621
  664MOL0     C89523   9.070   6.490   8.159 -0.3199 -0.9333 -0.6058
  664MOL0     C89524   8.951   6.447   8.199 -0.5598 -0.7397  0.0842
  664MOL0     C89525   8.846   6.553   8.202  0.1089 -1.2136 -0.3257
  664MOL0     C89526   8.841   6.661   8.307 -1.1715 -0.7775  0.0097
  664MOL0     C89527   8.816   6.603   8.450  1.1093  0.3046  0.0043
  664MOL0     C89528   8.832   6.722   8.559  0.4487 -0.2518  0.1780
  664MOL0     O89529   8.763   6.841   8.503 -0.4878  0.7570 -0.6094
  664MOL0     C89530   8.722   6.947   8.586 -0.0169  0.3956  0.2612
  664MOL0     C89531   8.761   6.984   8.718 -1.2140 -0.7223  0.1510
  664MOL0     C89532   8.705   7.102   8.781 -0.2801 -0.2465  0.4933
  664MOL0     C89533   8.754   7.126   8.926 -0.6370 -0.3073  0.3976
  664MOL0     C89534   8.626   7.189   8.702  0.6820  0.4051 -0.0852
  664MOL0     C89535   8.566   7.316   8.744 -0.7090 -0.5063  0.5220
  664MOL0     O89536   8.449   7.356   8.696  0.3311 -0.3899  0.4973
  664MOL0     C89537   8.405   7.489   8.713  0.1105  0.2297 -0.6373
  664MOL0     C89538   8.464   7.603   8.651 -0.3545 -0.5005 -0.1954
  664MOL0     C89539   8.394   7.729   8.655 -0.1203  1.1644  0.1891
  664MOL0     C89540   8.265   7.733   8.722 -0.4475 -1.0508  0.0259
  664MOL0     O89541   8.209   7.860   8.731 -0.4923 -0.2508 -0.0284
  664MOL0     C89542   8.088   7.867   8.808 -0.5442 -0.1581  0.2694
  664MOL0     C89543   8.048   8.014   8.812 -0.3319  0.7879  0.5188
  664MOL0     C89544   8.113   8.093   8.921  0.0027 -0.6140 -1.0730
  664MOL0     C89545   8.056   8.238   8.912 -0.3638 -0.2578 -0.2432
  664MOL0     C89546   8.121   8.311   9.025  0.7554  0.5026 -0.0147
  664MOL0     C89547   8.075   8.459   9.036 -0.1831  0.6408  0.3544
  664MOL0     C89548   7.949   8.482   9.114 -0.7482  0.1021  0.0168
  664MOL0     C89549   7.963   8.437   9.265 -0.8229 -0.0663  0.8309
  664MOL0    Cl89550   7.810   8.481   9.353 -0.4808 -0.4042  0.5118
  664MOL0     C89551   8.215   7.622   8.782 -0.1166  0.6589 -0.0503
  664MOL0     C89552   8.278   7.504   8.777 -1.2067  0.5160 -1.6229
  664MOL0     O89553   8.624   7.365   8.842  0.2582 -0.6242  0.8532
  664MOL0     C89554   8.586   7.140   8.579  0.1139 -0.3006 -0.7330
  664MOL0     C89555   8.624   7.021   8.530  0.0058 -0.1102  0.4538
  664MOL0     N89556   8.952   6.348   8.287 -0.8567 -0.0061  0.3003
  664MOL0     N89557   9.072   6.308   8.294  0.0502 -0.9315  0.3491
  664MOL0     C89558  10.131   6.374   8.814  0.5259  0.8195 -0.4720
  664MOL0     C89559  10.248   6.377   8.890 -1.1229  0.2967  0.7954
  664MOL0     C89560  10.594   6.338   9.157 -0.8069 -0.0741  0.0817
  664MOL0     C89561  10.638   6.443   9.240  1.0592 -0.0530  0.0720
  664MOL0     C89562  10.766   6.451   9.296  0.1334  0.3149 -1.0924
  664MOL0     C89563  10.847   6.339   9.281  0.2095  0.4764  0.4193
  664MOL0     O89564  10.981   6.320   9.319 -0.7331 -0.2743  1.1156
  664MOL0     C89565  11.072   6.437   9.317  0.7219  0.5844  0.2408
  664MOL0     C89566  11.225   6.396   9.286  0.0605 -0.0565  0.6193
  664MOL0     C89567  11.302   6.525   9.248  0.2981  0.4522 -1.0049
  664MOL0     C89568  11.438   6.491   9.194  0.5740  0.7724 -0.5545
  664MOL0     C89569  11.510   6.617   9.164 -0.4458 -1.2389 -0.6626
  664MOL0     C89570  11.589   6.712   9.142  0.9843  1.4688 -0.2806
  664MOL0     C89571  10.812   6.232   9.212 -0.2607  0.9755 -0.2166
  664MOL0     C89572  10.687   6.229   9.150  0.7708 -0.1090  0.0706
  664MOL0     H89573  10.291   6.043   8.932 -0.6601  0.6185  4.4826
  664MOL0     H89574  10.087   6.037   8.828  0.7312 -0.1948 -0.5918
  664MOL0     H89575   9.913   6.061   8.719 -1.5608  0.1635 -2.3288
  664MOL0     H89576   9.827   6.141   8.851 -0.6838 -1.2585 -0.3414
  664MOL0     H89577   9.793   6.140   8.545  1.3231  2.4123  0.0874
  664MOL0     H89578   9.697   6.050   8.671  0.5701  0.0689  0.1446
  664MOL0     H89579   9.583   6.255   8.735  1.1783  1.0558  0.8822
  664MOL0     H89580   9.689   6.368   8.651 -1.1346  0.8389 -3.0344
  664MOL0     H89581   9.621   6.294   8.447 -1.9475 -1.9626 -1.5869
  664MOL0     H89582   9.492   6.185   8.500 -2.6012  1.2649 -1.1865
  664MOL0     H89583   9.404   6.393   8.642  1.3801  2.0122  1.3260
  664MOL0     H89584   9.497   6.496   8.528  1.6024 -1.6435 -3.8935
  664MOL0     H89585   9.299   6.279   8.432 -1.6357  1.6566 -0.9321
  664MOL0     H89586   9.256   6.447   8.479 -0.1942 -0.2606  3.4211
  664MOL0     H89587   9.341   6.535   8.298  2.2460  0.2407  2.8063
  664MOL0     H89588   9.480   6.411   8.293  1.1060  1.4630 -0.0067
  664MOL0     H89589   9.317   6.262   8.188  2.6808  0.6758  0.5084
  664MOL0     H89590   9.314   6.414   8.093 -2.0164  1.2343 -0.8147
  664MOL0     H89591   9.090   6.592   8.126  0.6650 -1.0864 -0.4975
  664MOL0     H89592   8.865   6.601   8.105 -0.1235 -0.5594 -0.0471
  664MOL0     H89593   8.743   6.518   8.196 -0.7003  1.1983 -1.7363
  664MOL0     H89594   8.755   6.725   8.286 -2.3439 -2.0149  0.8828
  664MOL0     H89595   8.933   6.719   8.319 -2.1334  0.5124  1.4821
  664MOL0     H89596   8.885   6.524   8.483 -0.1650 -1.0231 -0.4081
  664MOL0     H89597   8.720   6.550   8.454  1.0194  0.2532 -1.9981
  664MOL0     H89598   8.935   6.745   8.584  0.5527  3.7821 -2.9060
  664MOL0     H89599   8.780   6.698   8.653 -0.5293 -2.6690 -0.8847
  664MOL0     H89600   8.830   6.912   8.762 -0.1856  1.0525  1.5988
  664MOL0     H89601   8.680   7.180   8.985 -0.1376 -1.9161  2.6269
  664MOL0     H89602   8.774   7.027   8.969 -1.9432 -0.4750  0.6570
  664MOL0     H89603   8.849   7.180   8.925  0.0382 -1.4248  1.4856
  664MOL0     H89604   8.563   7.593   8.607  0.1815  1.2856  0.5142
  664MOL0     H89605   8.447   7.821   8.637 -0.3068  1.0352 -1.1021
  664MOL0     H89606   8.010   7.805   8.761 -1.8714  0.6458  1.3465
  664MOL0     H89607   8.108   7.837   8.911 -1.7687  3.2661  1.6411
  664MOL0     H89608   8.051   8.057   8.712 -0.1207  1.2618  0.7221
  664MOL0     H89609   7.943   8.010   8.844 -1.2259  0.9372 -2.1933
  664MOL0     H89610   8.222   8.091   8.918  0.6615  4.6879  3.2331
  664MOL0     H89611   8.090   8.040   9.013  1.0593 -1.4480 -1.2744
  664MOL0     H89612   8.087   8.286   8.819 -2.5311  1.5091 -0.1530
  664MOL0     H89613   7.946   8.237   8.912 -0.4125  0.4849 -2.3116
  664MOL0     H89614   8.229   8.309   9.009  0.4197 -0.9677 -2.4730
  664MOL0     H89615   8.108   8.252   9.117  0.6605  2.9029  1.6184
  664MOL0     H89616   8.147   8.508   9.102 -0.9934 -0.3846  2.0419
  664MOL0     H89617   8.069   8.503   8.936  0.6569 -1.1226 -0.5075
  664MOL0     H89618   7.851   8.446   9.080 -1.5876  1.3089  1.0426
  664MOL0     H89619   7.939   8.590   9.130 -2.3000  0.1906 -1.2154
  664MOL0     H89620   8.049   8.483   9.315 -0.5991 -2.3825  2.7286
  664MOL0     H89621   7.975   8.328   9.258 -0.8409  0.0158 -1.5104
  664MOL0     H89622   8.120   7.617   8.834 -0.6892 -1.2021 -1.1854
  664MOL0     H89623   8.238   7.413   8.820 -2.1275  1.2102 -0.9565
  664MOL0     H89624   8.517   7.200   8.521  1.4913 -1.7122 -4.0727
  664MOL0     H89625   8.588   6.989   8.433 -0.8617  1.2470  0.2989
  664MOL0     H89626  10.088   6.465   8.774  0.6190  1.2212  0.3119
  664MOL0     H89627  10.303   6.470   8.908  1.5636 -0.8819 -0.7281
  664MOL0     H89628  10.576   6.530   9.254  0.5090 -0.3754 -0.3175
  664MOL0     H89629  10.793   6.539   9.354 -5.2252  1.2896  0.4453
  664MOL0     H89630  11.032   6.497   9.234  1.8865  0.1149 -0.6850
  664MOL0     H89631  11.054   6.498   9.406 -1.8195  3.0532 -1.7839
  664MOL0     H89632  11.227   6.335   9.195  1.7280  2.5574 -1.2240
  664MOL0     H89633  11.282   6.353   9.369  0.2138  1.2355  1.2057
  664MOL0     H89634  11.305   6.590   9.336 -3.0867 -0.1727 -0.2996
  664MOL0     H89635  11.244   6.572   9.169  1.3265 -1.0634 -2.7466
  664MOL0     H89636  11.423   6.429   9.105 -1.4573  1.3973 -0.7118
  664MOL0     H89637  11.498   6.427   9.258 -1.1242 -1.9971 -1.5605
  664MOL0     H89638  11.653   6.797   9.130  0.4506  1.6592 -2.0488
  664MOL0     H89639  10.887   6.154   9.203 -1.2778  0.1970 -3.8375
  664MOL0     H89640  10.657   6.148   9.085 -1.7763 -0.1963  1.2555
  665MOL0     O89641   5.042   7.214   4.649 -0.5807 -0.3337  0.5440
  665MOL0     C89642   5.154   7.207   4.600 -0.7187  0.8606 -0.0948
  665MOL0     O89643   5.185   7.246   4.466 -0.8525  0.4712 -0.6570
  665MOL0     C89644   5.105   7.229   4.355 -0.0495  0.9267 -0.1581
  665MOL0     C89645   5.174   7.266   4.239  0.1429  0.4147 -0.9525
  665MOL0     C89646   5.114   7.246   4.114 -0.5296 -0.3256  0.5054
  665MOL0     C89647   4.990   7.190   4.104  0.0243 -0.7284 -0.2288
  665MOL0     O89648   4.914   7.181   3.986  0.1532  0.3905  0.0957
  665MOL0     C89649   4.982   7.183   3.858  0.3882  1.2884  0.9223
  665MOL0     C89650   4.914   7.095   3.753  0.5933 -0.8008 -0.3878
  665MOL0     C89651   4.987   7.105   3.624  0.0399 -0.5445  0.4123
  665MOL0     C89652   4.909   7.038   3.508  0.2337  0.8689 -0.0546
  665MOL0     C89653   4.766   7.093   3.477  1.1120  0.5745  0.1948
  665MOL0     C89654   4.708   7.019   3.367  0.0405 -0.0693 -0.1080
  665MOL0     C89655   4.550   7.046   3.350 -0.9032 -0.3177 -0.0866
  665MOL0     C89656   4.519   7.184   3.303 -0.0506 -0.4651  0.6490
  665MOL0     N89657   4.431   7.187   3.182  0.4666  1.1291 -0.7666
  665MOL0     C89658   4.455   7.154   3.057  0.4879 -1.0000 -0.3503
  665MOL0     C89659   4.341   7.172   2.994  1.1600 -0.3354 -0.4622
  665MOL0     C89660   4.326   7.156   2.845  0.6995  0.5063 -0.7049
  665MOL0     C89661   4.384   7.267   2.771 -1.1116  0.2653 -0.6908
  665MOL0     C89662   4.374   7.248   2.626  0.4568  0.4660  0.0630
  665MOL0     C89663   4.242   7.191   2.557 -0.7712  0.3129 -0.6976
  665MOL0     O89664   4.127   7.259   2.613  0.0818  0.1449 -0.5344
  665MOL0     C89665   4.001   7.200   2.627 -0.1811 -0.9151 -0.1724
  665MOL0     C89666   3.953   7.134   2.515  0.2887 -0.3385 -0.9856
  665MOL0     C89667   3.834   7.071   2.515  0.2911 -0.3871  0.2008
  665MOL0     C89668   3.800   6.988   2.400 -0.5275  0.3939 -0.2096
  665MOL0     C89669   3.743   7.091   2.628 -0.6471  0.1396  0.3306
  665MOL0     C89670   3.610   7.023   2.649  0.0931  1.1609 -0.7295
  665MOL0     O89671   3.522   7.031   2.548 -0.0295  0.3771 -0.2692
  665MOL0     C89672   3.408   6.960   2.563  0.4672  0.0880 -0.1797
  665MOL0     C89673   3.408   6.822   2.588  0.2223  0.2343  0.8310
  665MOL0     C89674   3.291   6.759   2.618  0.0153  0.3633 -0.1310
  665MOL0     C89675   3.169   6.822   2.617  0.0044 -0.0538  0.0451
  665MOL0     O89676   3.058   6.761   2.664  0.0598 -0.0115  0.2484
  665MOL0     C89677   3.056   6.723   2.804  0.1947 -0.4798 -0.2631
  665MOL0     C89678   3.010   6.831   2.898 -0.8958  0.1533  0.2997
  665MOL0     C89679   2.858   6.837   2.906 -0.9785  0.1535  0.6788
  665MOL0     C89680   2.809   6.950   2.989 -0.1253 -0.0250  0.8913
  665MOL0     C89681   2.665   6.999   2.945 -0.0613 -0.2290 -0.4252
  665MOL0     C89682   2.675   7.107   2.824  0.1204  0.2736 -0.0434
  665MOL0     C89683   2.528   7.124   2.754  0.7028 -0.2025  0.4718
  665MOL0     C89684   2.426   7.184   2.854 -0.4928 -0.1200 -0.0624
  665MOL0    Cl89685   2.276   7.246   2.772 -0.3946  0.2495  0.7889
  665MOL0     C89686   3.164   6.961   2.573 -0.4630  0.2586 -0.2545
  665MOL0     C89687   3.285   7.031   2.554 -0.2466 -0.0699  0.0844
  665MOL0     O89688   3.589   6.985   2.765 -0.5746  0.3986  0.1576
  665MOL0     C89689   3.800   7.153   2.745  0.3447  0.6089  0.1524
  665MOL0     C89690   3.929   7.206   2.738  0.5936 -0.3182 -0.5478
  665MOL0     N89691   4.236   7.200   3.088  0.1808  0.0442  0.8525
  665MOL0     N89692   4.299   7.204   3.199  0.1073 -0.2983  0.7610
  665MOL0     C89693   4.916   7.155   4.209 -0.0914  0.5798  0.0985
  665MOL0     C89694   4.975   7.170   4.344 -0.1978  0.4689 -1.0444
  665MOL0     C89695   5.270   7.190   4.683  0.0976 -0.0790  0.8239
  665MOL0     C89696   5.257   7.179   4.820  0.4833 -0.5090  0.5832
  665MOL0     C89697   5.366   7.154   4.908  0.3154 -0.5177 -0.1960
  665MOL0     C89698   5.490   7.140   4.855  0.9094 -0.4665 -0.5558
  665MOL0     O89699   5.598   7.106   4.927 -0.4571  0.3268  0.6856
  665MOL0     C89700   5.582   7.048   5.050 -0.4575  0.6024 -0.1932
  665MOL0     C89701   5.710   7.039   5.129 -0.2349  0.3067  0.6105
  665MOL0     C89702   5.681   6.955   5.254  1.3265 -0.3259  1.2562
  665MOL0     C89703   5.800   6.956   5.339 -0.9034 -1.2210  0.1905
  665MOL0     C89704   5.792   6.856   5.444  0.1204 -0.1574 -0.2388
  665MOL0     C89705   5.772   6.762   5.519 -0.2857 -0.0420  0.4426
  665MOL0     C89706   5.513   7.159   4.719  0.3512  0.4262 -0.5223
  665MOL0     C89707   5.405   7.186   4.640  1.2721 -0.4644 -0.6404
  665MOL0     H89708   5.263   7.328   4.249 -1.6127  3.1956 -1.3654
  665MOL0     H89709   5.159   7.281   4.022 -1.4388 -0.0322  0.1591
  665MOL0     H89710   5.002   7.287   3.829  1.4736  0.3992 -1.8574
  665MOL0     H89711   5.078   7.131   3.869 -0.4510 -0.5356 -0.0453
  665MOL0     H89712   4.903   6.992   3.790  0.3734 -0.5385  0.3082
  665MOL0     H89713   4.815   7.139   3.741  0.1525 -1.6202  0.1122
  665MOL0     H89714   5.003   7.213   3.613 -0.5145 -0.1397  2.9778
  665MOL0     H89715   5.080   7.057   3.655 -0.8796 -3.2977 -0.7973
  665MOL0     H89716   4.954   7.055   3.411  1.3219  1.2905  0.5119
  665MOL0     H89717   4.906   6.928   3.516 -0.5069  0.3627 -4.7483
  665MOL0     H89718   4.699   7.099   3.564  0.1396 -0.0828 -0.4875
  665MOL0     H89719   4.771   7.198   3.446 -1.3110  0.8930  0.6608
  665MOL0     H89720   4.768   7.030   3.277  0.7132 -4.1514 -0.3826
  665MOL0     H89721   4.724   6.913   3.390  2.0752  0.4035  0.8594
  665MOL0     H89722   4.515   6.975   3.275  2.2257 -2.0098 -0.1054
  665MOL0     H89723   4.499   7.026   3.444 -0.8544  3.4627  0.9028
  665MOL0     H89724   4.615   7.229   3.276  0.8629 -2.7403 -0.1372
  665MOL0     H89725   4.472   7.240   3.385  0.5451  1.6371 -0.3592
  665MOL0     H89726   4.543   7.116   3.005  0.2269 -3.6056  0.9643
  665MOL0     H89727   4.355   7.055   2.818 -0.9182 -0.4999  1.0567
  665MOL0     H89728   4.220   7.140   2.823  0.8490  0.9102 -1.8140
  665MOL0     H89729   4.490   7.275   2.795 -1.1449  0.5429 -0.6308
  665MOL0     H89730   4.336   7.360   2.803 -1.6984  0.0349 -0.8821
  665MOL0     H89731   4.453   7.182   2.591 -0.1306  0.5064 -1.4361
  665MOL0     H89732   4.392   7.351   2.593 -1.9537  1.7340  2.3612
  665MOL0     H89733   4.240   7.087   2.588  2.8355  0.5552  0.7313
  665MOL0     H89734   4.260   7.204   2.450  1.9789 -3.0234 -0.7944
  665MOL0     H89735   4.017   7.137   2.428  1.7881 -0.2148  0.0755
  665MOL0     H89736   3.694   6.996   2.373 -0.9533 -1.8072  0.6163
  665MOL0     H89737   3.847   7.016   2.305  0.9417 -2.5909 -0.4730
  665MOL0     H89738   3.810   6.883   2.428  1.0167  1.1243  2.2434
  665MOL0     H89739   3.494   6.757   2.601  1.0956  1.7614  3.3791
  665MOL0     H89740   3.300   6.653   2.638  0.4145  0.5402  0.6406
  665MOL0     H89741   2.978   6.648   2.817 -1.1036  0.3115 -2.7564
  665MOL0     H89742   3.146   6.669   2.836 -1.4845 -1.2937  3.6011
  665MOL0     H89743   3.052   6.790   2.990 -1.9703 -2.8326 -0.4222
  665MOL0     H89744   3.049   6.927   2.864 -1.4703 -0.0283 -0.9118
  665MOL0     H89745   2.813   6.753   2.959 -1.6058  0.5509  0.7876
  665MOL0     H89746   2.818   6.843   2.804  2.4904  1.9029 -0.7395
  665MOL0     H89747   2.797   6.919   3.093 -1.2105 -0.0817  0.7514
  665MOL0     H89748   2.878   7.035   2.988 -1.7530  1.4794  4.1896
  665MOL0     H89749   2.602   7.051   3.017 -0.0957 -0.9309  0.0593
  665MOL0     H89750   2.606   6.911   2.919  1.3889 -0.7394 -2.2296
  665MOL0     H89751   2.712   7.204   2.858 -0.3934  1.4428 -2.5704
  665MOL0     H89752   2.752   7.091   2.749  0.4497 -1.3848  0.6200
  665MOL0     H89753   2.484   7.028   2.725 -2.1500  1.4732 -1.2545
  665MOL0     H89754   2.522   7.193   2.669  1.5653 -1.5133 -0.6915
  665MOL0     H89755   2.474   7.263   2.912 -0.3591  0.0750 -0.4385
  665MOL0     H89756   2.407   7.102   2.924  1.3437 -2.6309 -2.3081
  665MOL0     H89757   3.072   7.017   2.555 -0.0341  1.6084  1.4434
  665MOL0     H89758   3.285   7.137   2.533 -0.1633  0.6084  3.0781
  665MOL0     H89759   3.750   7.157   2.842 -2.8843 -0.2367 -1.3528
  665MOL0     H89760   3.964   7.259   2.826 -2.5415  0.5331  0.3041
  665MOL0     H89761   4.809   7.136   4.208 -0.2965  1.2529  2.5436
  665MOL0     H89762   4.910   7.135   4.423 -0.1223  3.5877  0.5450
  665MOL0     H89763   5.162   7.202   4.867  0.1144  1.6465 -1.0484
  665MOL0     H89764   5.347   7.165   5.014 -2.5224  5.6024 -0.8830
  665MOL0     H89765   5.506   7.100   5.108 -1.8477 -0.8268 -0.6447
  665MOL0     H89766   5.536   6.949   5.037 -2.0210  1.4288 -1.2664
  665MOL0     H89767   5.747   7.139   5.154  1.5131  0.1035 -0.9026
  665MOL0     H89768   5.780   6.974   5.075 -1.3423 -4.4662  4.2199
  665MOL0     H89769   5.663   6.856   5.210  0.2417  0.6094 -0.5448
  665MOL0     H89770   5.597   6.995   5.312  1.0091  1.8350 -0.5540
  665MOL0     H89771   5.809   7.055   5.385 -0.3066 -1.0927 -0.1863
  665MOL0     H89772   5.886   6.939   5.274  0.3477  0.8130  1.2038
  665MOL0     H89773   5.769   6.680   5.589  4.2901 -3.3774 -2.7105
  665MOL0     H89774   5.613   7.159   4.677  0.8561  1.5659  0.6054
  665MOL0     H89775   5.419   7.202   4.534  2.0992 -0.8677 -0.5978
  666MOL0     O89776   1.775   2.950   8.526  0.0363  0.4295 -0.2774
  666MOL0     C89777   1.894   2.973   8.497  0.4722  0.1161  0.2001
  666MOL0     O89778   1.955   3.093   8.499 -0.0980  0.4855 -0.2564
  666MOL0     C89779   1.901   3.177   8.583  0.3058 -0.6320 -0.0928
  666MOL0     C89780   1.873   3.147   8.713 -0.1242  0.6275  0.3765
  666MOL0     C89781   1.808   3.229   8.798 -0.0540 -0.0543 -0.1762
  666MOL0     C89782   1.758   3.352   8.754  0.5870  0.4697  0.3431
  666MOL0     O89783   1.679   3.427   8.839  0.7633  0.0075 -0.3800
  666MOL0     C89784   1.634   3.552   8.786  0.5019  0.0261 -0.4694
  666MOL0     C89785   1.584   3.643   8.901  0.5420 -0.0491 -0.3006
  666MOL0     C89786   1.533   3.782   8.849 -0.5155  1.2472  0.2854
  666MOL0     C89787   1.534   3.891   8.950  0.8435 -0.6990 -0.1438
  666MOL0     C89788   1.440   4.011   8.914  0.6722  1.0716 -0.8390
  666MOL0     C89789   1.459   4.110   9.029  0.2392  0.3438 -0.1702
  666MOL0     C89790   1.412   4.254   9.002 -0.4182 -0.2898 -1.0159
  666MOL0     C89791   1.364   4.313   9.135  0.3913  0.2278 -0.0082
  666MOL0     N89792   1.395   4.450   9.154  0.6430 -0.0381 -0.2753
  666MOL0     C89793   1.297   4.547   9.123 -0.4631  1.4090 -0.9149
  666MOL0     C89794   1.328   4.663   9.181 -0.4759  0.6620 -0.2338
  666MOL0     C89795   1.241   4.793   9.176 -0.4988 -0.7976 -0.4941
  666MOL0     C89796   1.128   4.763   9.281 -0.1631 -0.5357 -0.3329
  666MOL0     C89797   1.021   4.876   9.313 -1.2587 -0.5198 -0.1683
  666MOL0     C89798   0.936   4.909   9.198  0.0239  0.2409 -0.4840
  666MOL0     O89799   0.858   4.797   9.152  0.1885  0.3799  0.0337
  666MOL0     C89800   0.737   4.835   9.090  0.9880 -1.0390 -0.2650
  666MOL0     C89801   0.727   4.909   8.972  0.2599 -0.8141 -0.9357
  666MOL0     C89802   0.607   4.925   8.909 -0.0408 -0.1253  1.0851
  666MOL0     C89803   0.604   4.986   8.764  0.1469 -0.1788  0.2568
  666MOL0     C89804   0.494   4.864   8.958 -0.1602 -0.9884  0.2065
  666MOL0     C89805   0.362   4.875   8.887 -0.6724 -0.1812 -0.0263
  666MOL0     O89806   0.293   4.766   8.861  1.0433  0.5124  0.0222
  666MOL0     C89807   0.179   4.763   8.786 -0.1653  0.8502 -0.4919
  666MOL0     C89808   0.185   4.815   8.658 -0.7535  0.4663  0.1336
  666MOL0     C89809   0.062   4.823   8.590 -0.2350  0.5309  0.6264
  666MOL0     C89810  -0.068   4.789   8.645  0.3641  1.2051 -0.1036
  666MOL0     O89811  -0.184   4.813   8.581  0.1866 -0.1074  0.8299
  666MOL0     C89812  -0.286   4.720   8.612  0.8707 -0.8957  0.1133
  666MOL0     C89813  -0.389   4.781   8.712 -0.4629  0.2356  0.0876
  666MOL0     C89814  -0.451   4.902   8.655 -0.6897 -0.2628  0.3318
  666MOL0     C89815  -0.571   4.966   8.725  0.2570 -1.3540 -0.4655
  666MOL0     C89816  -0.599   5.105   8.660 -0.5331 -0.3185 -0.7298
  666MOL0     C89817  -0.655   5.210   8.768 -0.7580  0.3286  0.8416
  666MOL0     C89818  -0.659   5.351   8.712  0.8977 -0.2742  0.6678
  666MOL0     C89819  -0.699   5.437   8.830 -0.9993  0.1662  1.4810
  666MOL0    Cl89820  -0.833   5.378   8.930  0.0669 -0.6587 -0.0538
  666MOL0     C89821  -0.062   4.741   8.775 -0.1937  0.9509 -0.1987
  666MOL0     C89822   0.057   4.723   8.842 -0.8053 -0.1154 -0.0966
  666MOL0     O89823   0.320   4.983   8.862  0.1860 -0.8727 -0.3978
  666MOL0     C89824   0.500   4.788   9.081 -1.1842 -0.6852  1.2048
  666MOL0     C89825   0.624   4.772   9.145 -0.0369  0.7763 -1.1000
  666MOL0     N89826   1.447   4.631   9.249  0.1333 -0.8501 -0.8788
  666MOL0     N89827   1.478   4.504   9.243  0.3309  0.8328  0.0362
  666MOL0     C89828   1.794   3.391   8.626  0.2239 -0.1318  0.0299
  666MOL0     C89829   1.859   3.310   8.542  0.6059  0.2157 -0.1953
  666MOL0     C89830   1.986   2.853   8.458  0.7913 -0.9926 -0.7343
  666MOL0     C89831   2.117   2.879   8.448  0.5416 -0.1389  0.1257
  666MOL0     C89832   2.198   2.774   8.417 -0.3205 -0.5153 -1.3818
  666MOL0     C89833   2.157   2.642   8.402 -0.2587  0.0245  0.6470
  666MOL0     O89834   2.259   2.550   8.386 -0.1279 -0.6041 -0.6834
  666MOL0     C89835   2.328   2.505   8.507 -0.3401  0.6593 -0.1257
  666MOL0     C89836   2.406   2.375   8.491  0.1150  0.3796 -0.6863
  666MOL0     C89837   2.512   2.364   8.595 -0.2720 -0.9166  0.3861
  666MOL0     C89838   2.588   2.225   8.568  1.0517 -0.0492 -0.4090
  666MOL0     C89839   2.693   2.219   8.667 -1.5422  0.1966  1.1094
  666MOL0     C89840   2.770   2.182   8.756 -1.0244  0.3029  0.8532
  666MOL0     C89841   2.017   2.612   8.418  0.4002 -0.3353 -0.7396
  666MOL0     C89842   1.930   2.721   8.438  0.4680  0.2544 -0.2071
  666MOL0     H89843   1.912   3.054   8.754  3.2124  1.4406 -0.6312
  666MOL0     H89844   1.779   3.184   8.892  0.8686 -0.9427 -0.2952
  666MOL0     H89845   1.726   3.596   8.746  0.8497  0.7109  0.9797
  666MOL0     H89846   1.553   3.539   8.714  0.8240  0.5266 -0.9317
  666MOL0     H89847   1.520   3.582   8.966  4.9469 -5.0477  0.0353
  666MOL0     H89848   1.672   3.648   8.966  1.6110  3.7429 -1.8271
  666MOL0     H89849   1.600   3.807   8.765  0.3495 -3.0089 -0.5047
  666MOL0     H89850   1.436   3.775   8.799  0.4089  2.2669 -1.8044
  666MOL0     H89851   1.490   3.857   9.044 -2.5748 -0.0698 -1.3851
  666MOL0     H89852   1.638   3.919   8.971  0.7800 -1.6961  1.6325
  666MOL0     H89853   1.473   4.054   8.819 -1.8348  0.7967 -1.9009
  666MOL0     H89854   1.333   3.991   8.907  0.4564  1.5718  0.7116
  666MOL0     H89855   1.414   4.056   9.113 -0.3770 -0.2933 -0.8881
  666MOL0     H89856   1.565   4.123   9.050  0.2019  1.7089 -0.6735
  666MOL0     H89857   1.496   4.302   8.952  1.3261 -2.4045 -0.2352
  666MOL0     H89858   1.330   4.238   8.931  3.2961 -0.5227 -5.8129
  666MOL0     H89859   1.390   4.258   9.226 -3.1569 -0.2428  0.8950
  666MOL0     H89860   1.255   4.303   9.134  0.2749  1.0510  1.6268
  666MOL0     H89861   1.202   4.539   9.071 -0.1565 -2.9469 -1.1946
  666MOL0     H89862   1.294   4.884   9.206 -3.0765 -0.0842  2.3446
  666MOL0     H89863   1.189   4.812   9.081 -3.1907 -2.1062  0.6181
  666MOL0     H89864   1.177   4.749   9.378 -0.0364  0.6573 -0.2207
  666MOL0     H89865   1.071   4.679   9.240  1.1721 -0.0290 -3.4823
  666MOL0     H89866   1.064   4.975   9.331 -4.7398  1.1713 -0.3458
  666MOL0     H89867   0.956   4.846   9.395 -0.1267  0.9678  1.3566
  666MOL0     H89868   0.989   4.956   9.115 -0.8823 -0.6622 -1.6082
  666MOL0     H89869   0.872   4.985   9.242 -0.7014 -0.4504 -0.3179
  666MOL0     H89870   0.813   4.955   8.924 -0.2988  1.1932 -0.1213
  666MOL0     H89871   0.509   5.036   8.745  0.3402 -0.4671 -1.6360
  666MOL0     H89872   0.681   5.062   8.748 -0.9325  1.4598  2.2441
  666MOL0     H89873   0.621   4.904   8.694 -2.4900  0.6444 -1.4493
  666MOL0     H89874   0.278   4.845   8.610 -0.8147 -1.2274 -1.1251
  666MOL0     H89875   0.076   4.848   8.485 -0.9002  2.6700  0.9828
  666MOL0     H89876  -0.331   4.683   8.520  0.4238 -3.1548  1.1723
  666MOL0     H89877  -0.247   4.621   8.636 -0.6638 -1.5620 -0.0106
  666MOL0     H89878  -0.460   4.701   8.735  2.2483 -2.6907 -0.9058
  666MOL0     H89879  -0.337   4.808   8.805  2.1172  1.0715 -1.4828
  666MOL0     H89880  -0.485   4.877   8.554  0.3880 -4.1768  0.7757
  666MOL0     H89881  -0.372   4.975   8.637 -0.4984 -0.4561  0.3685
  666MOL0     H89882  -0.658   4.900   8.729 -0.0279 -0.9365  1.4413
  666MOL0     H89883  -0.554   4.988   8.831  0.8812  2.4494 -1.2039
  666MOL0     H89884  -0.680   5.084   8.588 -1.1703 -1.6782  0.3308
  666MOL0     H89885  -0.513   5.152   8.612 -1.7437  0.7480 -1.9772
  666MOL0     H89886  -0.759   5.184   8.789 -1.3863  1.0410 -1.0937
  666MOL0     H89887  -0.597   5.213   8.861  5.1921  2.8941 -2.3252
  666MOL0     H89888  -0.740   5.367   8.641  1.5974  1.5586  0.2112
  666MOL0     H89889  -0.570   5.388   8.659 -0.0923 -0.6311 -1.3334
  666MOL0     H89890  -0.739   5.529   8.786 -2.3202 -2.2248 -2.9063
  666MOL0     H89891  -0.604   5.452   8.883  0.0079  0.6324 -0.3841
  666MOL0     H89892  -0.150   4.723   8.836  0.5464  0.9852  0.9190
  666MOL0     H89893   0.065   4.685   8.944  0.4359  1.5682  0.4786
  666MOL0     H89894   0.409   4.748   9.124 -1.5134  1.0906  2.2493
  666MOL0     H89895   0.626   4.711   9.234  0.9138  1.0509 -0.9203
  666MOL0     H89896   1.773   3.492   8.592  0.5618  0.8187  2.4586
  666MOL0     H89897   1.882   3.335   8.438  1.9404  1.1527  0.3024
  666MOL0     H89898   2.141   2.985   8.444 -1.6188  0.3822 -3.4848
  666MOL0     H89899   2.297   2.814   8.402 -2.0439  3.9392 -2.6049
  666MOL0     H89900   2.394   2.577   8.557  0.2524 -1.3635  2.2198
  666MOL0     H89901   2.254   2.492   8.587  0.4307  1.8717  0.8290
  666MOL0     H89902   2.455   2.385   8.394 -0.4600  2.0460 -0.8414
  666MOL0     H89903   2.337   2.291   8.495  0.1187  0.4075  0.2926
  666MOL0     H89904   2.466   2.339   8.691  1.1599 -1.3278  0.9859
  666MOL0     H89905   2.570   2.456   8.610  1.2917 -2.0626  1.8305
  666MOL0     H89906   2.640   2.234   8.472  3.2134  1.0290  0.7732
  666MOL0     H89907   2.525   2.135   8.566  1.1930 -0.1614  0.0463
  666MOL0     H89908   2.844   2.150   8.826  1.7135 -3.0855 -3.0732
  666MOL0     H89909   1.971   2.514   8.416 -3.0333  1.1312 -0.1423
  666MOL0     H89910   1.823   2.712   8.452  0.3552 -3.3913 -2.2037
  667MOL0     O89911   2.648   1.001   9.573 -0.1572  0.3661  0.1824
  667MOL0     C89912   2.589   1.006   9.682  0.1298  0.2504 -0.1892
  667MOL0     O89913   2.654   0.997   9.804  0.3295  0.2348  0.6918
  667MOL0     C89914   2.791   0.968   9.815 -0.5593 -0.8519 -0.8914
  667MOL0     C89915   2.889   1.063   9.785  0.4297 -0.6366 -0.0312
  667MOL0     C89916   3.015   1.053   9.825 -0.4817 -0.0648 -0.1861
  667MOL0     C89917   3.064   0.932   9.868  0.1906  0.0612 -0.3152
  667MOL0     O89918   3.200   0.930   9.886  0.1287  0.3670  0.2140
  667MOL0     C89919   3.256   0.838   9.982 -0.1670  0.0928  0.0526
  667MOL0     C89920   3.333   0.909  10.090  0.0334  1.0222  0.3066
  667MOL0     C89921   3.246   1.015  10.159  0.0077  0.4983 -0.2415
  667MOL0     C89922   3.107   0.966  10.222 -0.5265 -0.2290 -0.3616
  667MOL0     C89923   3.103   1.014  10.374 -0.6191 -0.0001 -0.1252
  667MOL0     C89924   3.194   0.928  10.466  0.0761  0.0190  0.0067
  667MOL0     C89925   3.177   0.940  10.615 -0.4982 -0.0117 -0.0889
  667MOL0     C89926   3.249   1.063  10.668  0.7714 -0.1211  0.9903
  667MOL0     N89927   3.194   1.159  10.771  0.7979  0.8575  0.2209
  667MOL0     C89928   3.101   1.260  10.759  1.1142 -0.2799  0.6249
  667MOL0     C89929   3.106   1.327  10.879 -0.6888  0.9119 -0.6601
  667MOL0     C89930   3.040   1.458  10.927  0.5892  0.3559  0.0590
  667MOL0     C89931   3.050   1.586  10.841  0.5976 -0.6881 -0.2932
  667MOL0     C89932   3.196   1.632  10.822  0.1734 -0.4042  1.2882
  667MOL0     C89933   3.208   1.745  10.740  0.4124  0.1509 -0.1948
  667MOL0     O89934   3.223   1.703  10.604  0.6801  0.3895 -0.9486
  667MOL0     C89935   3.195   1.797  10.509 -0.7794 -0.5538 -0.3570
  667MOL0     C89936   3.128   1.764  10.392 -0.5465  0.3418 -0.3985
  667MOL0     C89937   3.109   1.865  10.283 -0.9284  0.3323 -0.1406
  667MOL0     C89938   3.041   1.825  10.156  0.2236  0.6088  0.5831
  667MOL0     C89939   3.155   1.998  10.303  0.2436  0.3925  0.2626
  667MOL0     C89940   3.136   2.101  10.203 -0.3313  1.0102 -0.0737
  667MOL0     O89941   3.013   2.104  10.137 -0.1694 -0.3160 -0.7790
  667MOL0     C89942   2.969   2.199  10.043  0.3120 -0.1153  0.0891
  667MOL0     C89943   2.838   2.230  10.014  0.1842 -0.9998  0.2505
  667MOL0     C89944   2.792   2.350   9.938 -0.0781 -0.5855 -0.7857
  667MOL0     C89945   2.883   2.411   9.859 -0.4123  0.5936 -0.3604
  667MOL0     O89946   2.861   2.529   9.788  0.7971  0.6094  0.7921
  667MOL0     C89947   2.728   2.535   9.721  0.3762 -1.1438  0.2797
  667MOL0     C89948   2.708   2.677   9.664 -0.1195  0.2078 -0.0677
  667MOL0     C89949   2.695   2.789   9.766 -0.4152  0.1645  0.8162
  667MOL0     C89950   2.652   2.922   9.685  0.2323  0.0721 -0.6053
  667MOL0     C89951   2.596   3.020   9.778 -0.3534 -0.2326 -0.0876
  667MOL0     C89952   2.461   2.972   9.824 -0.0462  0.5956 -0.5160
  667MOL0     C89953   2.382   3.084   9.884 -0.0371 -1.1094 -0.7290
  667MOL0     C89954   2.454   3.148  10.001 -0.0625 -0.2913 -0.2211
  667MOL0    Cl89955   2.463   3.043  10.151 -0.1409  0.2429 -0.2283
  667MOL0     C89956   3.019   2.369   9.859  0.2790  0.8831  0.6110
  667MOL0     C89957   3.055   2.261   9.949  0.2911 -0.0749 -0.2462
  667MOL0     O89958   3.237   2.174  10.181  0.6957 -0.7099  0.5244
  667MOL0     C89959   3.215   2.031  10.422 -0.2408  0.5983 -0.3618
  667MOL0     C89960   3.232   1.929  10.526 -0.5486 -0.3844  1.2157
  667MOL0     N89961   3.177   1.250  10.969 -0.3832  0.9968  0.7344
  667MOL0     N89962   3.236   1.156  10.904  0.1309 -0.5883 -0.4394
  667MOL0     C89963   2.974   0.824   9.903  0.7605 -0.0143  0.1982
  667MOL0     C89964   2.835   0.843   9.869  0.1103 -0.3989 -0.1548
  667MOL0     C89965   2.446   1.016   9.696 -0.4488  0.7583  0.3819
  667MOL0     C89966   2.391   0.963   9.813  1.1435 -0.0475  0.1289
  667MOL0     C89967   2.246   0.945   9.813  0.4785 -0.7006 -0.5901
  667MOL0     C89968   2.168   0.986   9.702 -0.9580  0.5746 -0.5286
  667MOL0     O89969   2.039   0.959   9.700  0.1796 -0.4242  0.2259
  667MOL0     C89970   1.953   1.021   9.597 -0.5825 -0.5691  0.8009
  667MOL0     C89971   1.832   0.934   9.593  0.3839  0.0751 -0.1715
  667MOL0     C89972   1.863   0.784   9.579 -0.6130  0.5768  0.1435
  667MOL0     C89973   1.736   0.708   9.581 -0.7854 -0.3974  0.3892
  667MOL0     C89974   1.757   0.575   9.521  0.7514  0.4819  0.5271
  667MOL0     C89975   1.755   0.462   9.470 -0.1957  0.3897  0.3870
  667MOL0     C89976   2.233   1.049   9.593 -0.1932 -0.2020  0.2731
  667MOL0     C89977   2.368   1.059   9.591 -0.6380  0.2586 -0.7697
  667MOL0     H89978   2.853   1.156   9.743 -1.7554 -2.6011 -2.9313
  667MOL0     H89979   3.086   1.131   9.801 -0.0946  0.0552  1.2317
  667MOL0     H89980   3.180   0.779  10.033  0.9381 -1.9383 -0.5224
  667MOL0     H89981   3.331   0.778   9.930  0.5138  3.0492 -2.7281
  667MOL0     H89982   3.357   0.840  10.172 -2.3870  1.0934  1.1736
  667MOL0     H89983   3.424   0.954  10.050 -1.1250  3.4106  0.1926
  667MOL0     H89984   3.308   1.065  10.234 -2.7063  3.3147  0.3209
  667MOL0     H89985   3.223   1.096  10.089 -0.5245  0.6475  0.1046
  667MOL0     H89986   3.015   0.992  10.169 -1.0613 -0.8271  0.2543
  667MOL0     H89987   3.120   0.858  10.217  3.2608  0.0306  0.8190
  667MOL0     H89988   3.117   1.119  10.399  0.5998 -0.6216  2.0800
  667MOL0     H89989   3.001   0.983  10.399 -0.5654 -0.2917 -0.2625
  667MOL0     H89990   3.185   0.822  10.441  2.1571  0.5201 -3.6036
  667MOL0     H89991   3.300   0.953  10.451  0.3365 -0.2921  1.2517
  667MOL0     H89992   3.071   0.934  10.642 -0.8907 -2.2814 -1.8171
  667MOL0     H89993   3.220   0.851  10.663 -0.7618 -2.5664 -4.1321
  667MOL0     H89994   3.273   1.124  10.580  0.8114  0.0332  1.1078
  667MOL0     H89995   3.345   1.032  10.711  1.0757 -0.9889 -0.2545
  667MOL0     H89996   3.035   1.271  10.674  2.9918  0.6945 -0.7635
  667MOL0     H89997   2.933   1.436  10.937  0.6187  0.7058  1.3622
  667MOL0     H89998   3.078   1.472  11.029 -1.0565 -0.2930  0.8084
  667MOL0     H89999   2.991   1.663  10.891 -1.6881 -1.0396 -2.2765
  667MOL0     H90000   2.999   1.565  10.747 -1.6656 -4.8423  1.5986
  667MOL0     H90001   3.249   1.544  10.785 -0.6929 -0.5539  0.3343
  667MOL0     H90002   3.239   1.652  10.921 -0.8520  1.7050  1.3726
  667MOL0     H90003   3.292   1.806  10.776 -0.9684  0.3623  3.0420
  667MOL0     H90004   3.117   1.806  10.746 -0.6923 -1.4122 -0.5046
  667MOL0     H90005   3.101   1.659  10.390 -0.5469  0.3566 -1.5945
  667MOL0     H90006   2.934   1.850  10.158 -0.2527  0.1418 -4.7104
  667MOL0     H90007   3.090   1.858  10.064 -1.2729  0.0013 -0.4826
  667MOL0     H90008   3.047   1.716  10.163  0.0555  0.4530 -1.1543
  667MOL0     H90009   2.764   2.176  10.072  0.7320 -1.5676  0.4218
  667MOL0     H90010   2.686   2.365   9.924 -0.5645 -1.2959  1.6467
  667MOL0     H90011   2.709   2.465   9.640 -1.9149  1.0509 -1.2310
  667MOL0     H90012   2.654   2.531   9.802 -3.1251 -1.4926 -2.7242
  667MOL0     H90013   2.792   2.704   9.600  0.7842 -0.0225  0.9954
  667MOL0     H90014   2.611   2.667   9.614 -0.8522  2.4520  0.8203
  667MOL0     H90015   2.797   2.800   9.805  0.3812 -2.4439 -0.3230
  667MOL0     H90016   2.630   2.749   9.845 -3.8730 -2.5373 -2.9966
  667MOL0     H90017   2.746   2.967   9.651  0.1723 -0.8941 -2.1645
  667MOL0     H90018   2.585   2.900   9.601  3.7016 -2.5827 -2.9874
  667MOL0     H90019   2.578   3.118   9.734 -2.2087 -0.2327  0.5962
  667MOL0     H90020   2.668   3.031   9.860 -0.3264  1.4146 -0.2919
  667MOL0     H90021   2.403   2.931   9.741  0.3151 -1.6780  0.2910
  667MOL0     H90022   2.471   2.892   9.898 -0.6564  1.9870  1.1447
  667MOL0     H90023   2.292   3.037   9.924 -0.8593 -0.7306 -2.0739
  667MOL0     H90024   2.369   3.153   9.801 -0.1116 -0.2489 -0.0113
  667MOL0     H90025   2.413   3.243  10.036 -1.6127 -0.5708 -1.1473
  667MOL0     H90026   2.559   3.162   9.974 -0.4327  0.2768 -1.4371
  667MOL0     H90027   3.091   2.412   9.790 -1.2178 -0.7761 -2.1592
  667MOL0     H90028   3.159   2.232   9.953  0.3110 -0.0863 -0.7708
  667MOL0     H90029   3.258   2.127  10.447 -1.3351  1.3678 -1.3459
  667MOL0     H90030   3.266   1.965  10.622 -0.1400 -1.4990  1.5040
  667MOL0     H90031   2.999   0.727   9.945 -1.3447  0.3282  2.4213
  667MOL0     H90032   2.761   0.765   9.887 -1.8438  0.8430 -2.2919
  667MOL0     H90033   2.453   0.935   9.898  1.2370 -2.6603 -0.7092
  667MOL0     H90034   2.220   0.908   9.911  4.4792 -0.7231  0.6231
  667MOL0     H90035   1.928   1.122   9.628 -3.6626 -1.6233  2.1127
  667MOL0     H90036   1.995   1.010   9.497 -0.0309  5.0814  0.1114
  667MOL0     H90037   1.779   0.976   9.507  1.7734  4.0942  0.7187
  667MOL0     H90038   1.769   0.956   9.679  0.3889 -2.2202  0.4812
  667MOL0     H90039   1.930   0.746   9.657  1.4600  1.4912 -1.1256
  667MOL0     H90040   1.917   0.770   9.485  1.5920  0.9589  1.2980
  667MOL0     H90041   1.671   0.757   9.508  3.5307  1.9969 -2.2048
  667MOL0     H90042   1.691   0.703   9.681 -3.3277  0.5563 -0.6156
  667MOL0     H90043   1.748   0.370   9.417  0.9852 -0.2908  1.3749
  667MOL0     H90044   2.176   1.087   9.508 -1.0312  1.5618  1.5499
  667MOL0     H90045   2.418   1.105   9.506  2.2392 -0.8123  0.1961
  668MOL0     O90046   5.496   7.235   5.504  0.3054 -0.5309  1.3312
  668MOL0     C90047   5.496   7.358   5.493 -0.3853 -0.8753  0.1858
  668MOL0     O90048   5.547   7.449   5.588 -0.0635  0.0645  1.5349
  668MOL0     C90049   5.575   7.417   5.716 -0.3851  0.3739 -0.3469
  668MOL0     C90050   5.680   7.488   5.777 -0.7515  0.2291 -0.7792
  668MOL0     C90051   5.726   7.448   5.907  1.3158 -0.4657  0.1119
  668MOL0     C90052   5.655   7.352   5.978 -0.7899  1.1054 -0.2917
  668MOL0     O90053   5.711   7.302   6.090  1.0690  0.4529 -0.0862
  668MOL0     C90054   5.668   7.184   6.160  0.1143  0.4760  1.0948
  668MOL0     C90055   5.777   7.152   6.258 -0.4297 -0.0499  0.2808
  668MOL0     C90056   5.718   7.062   6.370  0.3212 -1.1837 -0.5482
  668MOL0     C90057   5.685   6.918   6.330 -1.2796  0.0288  0.9434
  668MOL0     C90058   5.605   6.832   6.428 -1.3399 -0.2579  0.6708
  668MOL0     C90059   5.545   6.699   6.387 -0.7078 -0.8127 -0.2158
  668MOL0     C90060   5.456   6.630   6.498 -0.2685 -1.2837  0.1650
  668MOL0     C90061   5.450   6.482   6.455 -0.0260  0.1403  0.2686
  668MOL0     N90062   5.407   6.414   6.577 -1.0111 -0.2927 -0.0461
  668MOL0     C90063   5.285   6.430   6.627  0.3091 -0.1726  0.8734
  668MOL0     C90064   5.293   6.398   6.761  0.7597 -0.4977  0.2506
  668MOL0     C90065   5.196   6.401   6.869  0.0837  1.0768 -0.7300
  668MOL0     C90066   5.140   6.256   6.886 -0.4900  0.1487 -0.8785
  668MOL0     C90067   5.090   6.233   7.028  0.0022  1.5326 -0.3690
  668MOL0     C90068   5.063   6.080   7.051  0.2249 -0.5425 -0.0565
  668MOL0     O90069   4.953   6.042   6.968 -0.2229 -0.7795 -0.0350
  668MOL0     C90070   4.970   5.945   6.868  0.0008  0.0655  0.2270
  668MOL0     C90071   4.854   5.887   6.806 -0.4072  0.0485 -0.0826
  668MOL0     C90072   4.857   5.804   6.689 -0.3920 -0.1207  0.0734
  668MOL0     C90073   4.714   5.764   6.648 -0.3440  0.1732  1.1026
  668MOL0     C90074   4.978   5.794   6.620 -0.2790 -0.1712 -1.2050
  668MOL0     C90075   4.997   5.718   6.491  0.4971 -0.1022  0.0705
  668MOL0     O90076   5.128   5.701   6.452  0.5635 -0.2837  0.5348
  668MOL0     C90077   5.160   5.602   6.368 -0.0313 -0.0467 -1.0666
  668MOL0     C90078   5.100   5.578   6.248  0.0570  0.6294  0.1372
  668MOL0     C90079   5.124   5.459   6.180 -0.4195  0.5449  0.5779
  668MOL0     C90080   5.238   5.382   6.216  0.1731  0.0244  1.3694
  668MOL0     O90081   5.273   5.275   6.144  0.4785  0.6945 -0.7021
  668MOL0     C90082   5.361   5.168   6.189  0.1273  0.0311  0.0152
  668MOL0     C90083   5.343   5.043   6.112  0.2049  0.4388  1.1943
  668MOL0     C90084   5.481   4.966   6.122  1.4877 -0.7729  0.1820
  668MOL0     C90085   5.453   4.823   6.083 -0.1303 -1.2773 -0.8622
  668MOL0     C90086   5.581   4.745   6.128  0.7647  0.1775  0.0929
  668MOL0     C90087   5.566   4.675   6.265  0.2558 -0.0829  0.3577
  668MOL0     C90088   5.705   4.680   6.336 -0.4838 -0.7175 -0.0763
  668MOL0     C90089   5.713   4.805   6.427 -0.6868 -0.5433 -0.8294
  668MOL0    Cl90090   5.861   4.763   6.530  0.0501  0.0672  0.1252
  668MOL0     C90091   5.301   5.405   6.337 -0.1429  0.0856 -1.4802
  668MOL0     C90092   5.258   5.517   6.414 -0.0142  0.4921  0.1246
  668MOL0     O90093   4.891   5.676   6.438  0.4718 -0.1186  0.1924
  668MOL0     C90094   5.097   5.863   6.672  0.5911 -0.5041 -0.0362
  668MOL0     C90095   5.095   5.931   6.790 -0.2353 -0.6404  0.1360
  668MOL0     N90096   5.419   6.366   6.782 -0.2839  0.2827  0.2247
  668MOL0     N90097   5.495   6.378   6.678  0.5144 -0.1788 -0.5530
  668MOL0     C90098   5.534   7.300   5.927 -1.1003 -0.1749 -0.3351
  668MOL0     C90099   5.498   7.339   5.797 -0.1411  0.8066  0.2652
  668MOL0     C90100   5.413   7.422   5.387 -0.2857  0.8271  0.1891
  668MOL0     C90101   5.368   7.557   5.404  0.2311 -0.4044  0.3663
  668MOL0     C90102   5.290   7.619   5.299  1.0582 -0.1004  0.1057
  668MOL0     C90103   5.237   7.562   5.192  0.7065 -0.1552  0.1815
  668MOL0     O90104   5.132   7.613   5.118  0.4891  0.6211  0.2743
  668MOL0     C90105   5.120   7.572   4.975  0.2340  0.5741 -0.7362
  668MOL0     C90106   5.238   7.593   4.884  0.5552  0.0528 -0.1821
  668MOL0     C90107   5.207   7.664   4.756  1.2760 -0.6017  0.4342
  668MOL0     C90108   5.273   7.581   4.635 -0.1522  0.1868  1.0404
  668MOL0     C90109   5.264   7.646   4.511  0.7850 -0.2433  1.1656
  668MOL0     C90110   5.253   7.708   4.407 -0.7506 -0.1025 -0.5454
  668MOL0     C90111   5.281   7.423   5.180  0.0707 -0.3702 -0.3577
  668MOL0     C90112   5.361   7.362   5.273  0.0635 -0.4456  0.9020
  668MOL0     H90113   5.730   7.564   5.719  0.8445 -0.3327 -0.1770
  668MOL0     H90114   5.823   7.493   5.927  0.8151  1.3779 -1.2205
  668MOL0     H90115   5.570   7.219   6.196 -0.2156  0.3040  0.3943
  668MOL0     H90116   5.655   7.100   6.091 -0.0327 -1.5798  3.5014
  668MOL0     H90117   5.870   7.120   6.210 -1.1247 -0.7395 -0.6296
  668MOL0     H90118   5.815   7.242   6.307  2.4803 -2.4154  2.8588
  668MOL0     H90119   5.793   7.056   6.449 -0.7646  2.3880  0.9574
  668MOL0     H90120   5.629   7.103   6.418 -0.0465 -2.7588  0.1853
  668MOL0     H90121   5.611   6.914   6.249 -2.0201 -1.5022  1.6523
  668MOL0     H90122   5.772   6.873   6.282 -3.4470 -0.8635 -2.5180
  668MOL0     H90123   5.670   6.824   6.516 -1.9000  1.0228  1.2282
  668MOL0     H90124   5.521   6.894   6.462 -1.0242  0.2750  0.4900
  668MOL0     H90125   5.483   6.715   6.299 -0.4159 -0.1296 -0.3085
  668MOL0     H90126   5.634   6.641   6.362  1.3548  1.7043  0.7835
  668MOL0     H90127   5.509   6.642   6.592  0.8891  1.3548 -0.7385
  668MOL0     H90128   5.352   6.660   6.510 -0.7404 -1.6872 -2.3433
  668MOL0     H90129   5.546   6.441   6.422 -0.7076  3.0458 -7.3078
  668MOL0     H90130   5.392   6.471   6.363  3.0395 -0.1799 -1.7867
  668MOL0     H90131   5.192   6.473   6.592 -1.0662 -3.0795  0.6414
  668MOL0     H90132   5.242   6.425   6.966 -1.4134 -0.1008  0.3319
  668MOL0     H90133   5.119   6.473   6.840  1.0975  3.1286  1.3695
  668MOL0     H90134   5.227   6.190   6.878 -1.1947 -0.7662 -1.2006
  668MOL0     H90135   5.059   6.232   6.816 -2.0681 -2.4602  1.6346
  668MOL0     H90136   5.002   6.298   7.033 -2.3186 -1.3623 -0.7928
  668MOL0     H90137   5.159   6.266   7.106 -2.5674  2.7165  1.5660
  668MOL0     H90138   5.030   6.072   7.155  0.7377 -0.6102  0.1063
  668MOL0     H90139   5.150   6.012   7.049  0.9857  0.4246 -0.6503
  668MOL0     H90140   4.755   5.913   6.842 -0.2700  1.2777 -0.5400
  668MOL0     H90141   4.637   5.779   6.724 -1.4912  1.1573 -0.2048
  668MOL0     H90142   4.678   5.813   6.558  1.2636 -0.4885  0.0509
  668MOL0     H90143   4.721   5.657   6.626  1.5409  0.4298  0.2985
  668MOL0     H90144   5.023   5.643   6.208  0.8832 -0.5281 -3.6746
  668MOL0     H90145   5.072   5.426   6.091  0.4235 -2.1878  1.0313
  668MOL0     H90146   5.463   5.206   6.172 -0.3133  0.0641 -3.1991
  668MOL0     H90147   5.338   5.143   6.293 -1.5535 -0.3129 -0.4217
  668MOL0     H90148   5.262   4.986   6.158  0.8441  1.7683  4.1632
  668MOL0     H90149   5.317   5.073   6.010  1.9284  0.4007  0.7110
  668MOL0     H90150   5.523   4.978   6.222  4.9105  2.7009 -1.4404
  668MOL0     H90151   5.560   5.005   6.058  0.6408 -1.9523 -1.6707
  668MOL0     H90152   5.376   4.767   6.136 -0.7451 -0.1398 -0.5195
  668MOL0     H90153   5.433   4.829   5.976 -2.2528  2.7056 -0.4118
  668MOL0     H90154   5.668   4.812   6.128  0.4522  0.6047 -1.0055
  668MOL0     H90155   5.591   4.673   6.047 -5.4809 -1.6916  0.4832
  668MOL0     H90156   5.499   4.729   6.333  1.0682  2.0909 -0.4933
  668MOL0     H90157   5.518   4.577   6.260  0.9181 -0.4683  1.1882
  668MOL0     H90158   5.787   4.697   6.266  0.3204 -1.7901  0.5771
  668MOL0     H90159   5.723   4.587   6.392 -1.3719 -0.3371  0.8722
  668MOL0     H90160   5.627   4.807   6.495 -0.2712 -3.9259 -0.0197
  668MOL0     H90161   5.724   4.899   6.372 -1.3100 -0.0339 -0.1066
  668MOL0     H90162   5.388   5.352   6.374  1.6453  1.4060 -3.5301
  668MOL0     H90163   5.289   5.541   6.516  0.2319  1.1738 -0.1050
  668MOL0     H90164   5.192   5.853   6.619 -0.6487 -1.1909 -2.2542
  668MOL0     H90165   5.185   5.982   6.822 -0.0795 -2.5971  3.2525
  668MOL0     H90166   5.483   7.231   5.994  0.9951  0.7779  2.4218
  668MOL0     H90167   5.403   7.304   5.756 -0.5276  2.6420 -0.4872
  668MOL0     H90168   5.383   7.607   5.500  0.5981 -2.8643  1.6746
  668MOL0     H90169   5.267   7.723   5.323 -3.1839 -1.8863  6.1959
  668MOL0     H90170   5.096   7.465   4.972 -1.1771  0.8769 -1.1280
  668MOL0     H90171   5.035   7.628   4.933  1.2901  3.5858  0.8244
  668MOL0     H90172   5.264   7.489   4.862 -1.5719 -0.1118 -2.3478
  668MOL0     H90173   5.334   7.630   4.920  0.0106 -0.3984  1.8719
  668MOL0     H90174   5.249   7.764   4.770  0.3874 -0.3957  1.7708
  668MOL0     H90175   5.101   7.676   4.732  1.1317  1.7013  1.9378
  668MOL0     H90176   5.241   7.477   4.632  0.7911 -0.0892  0.1573
  668MOL0     H90177   5.379   7.575   4.660 -0.1037 -0.3657  0.7067
  668MOL0     H90178   5.243   7.758   4.313 -2.7460  0.8230  0.1157
  668MOL0     H90179   5.247   7.346   5.111 -1.9438  0.2471 -0.1342
  668MOL0     H90180   5.380   7.256   5.260 -2.7136 -0.9815  0.4018
  669MOL0     O90181   7.361   7.360   9.378 -0.1259 -0.3443 -0.5745
  669MOL0     C90182   7.271   7.278   9.391  0.3648 -0.0765 -0.1664
  669MOL0     O90183   7.163   7.263   9.302 -0.6246 -0.2868  0.4053
  669MOL0     C90184   7.160   7.355   9.193 -1.2984 -0.5784 -0.7439
  669MOL0     C90185   7.246   7.340   9.080 -0.2945  0.0479 -0.5777
  669MOL0     C90186   7.254   7.431   8.976 -0.2072 -0.4246  0.3583
  669MOL0     C90187   7.158   7.533   8.976  0.1569 -1.4076 -0.2886
  669MOL0     O90188   7.168   7.645   8.897  0.0006  0.4330 -0.2358
  669MOL0     C90189   7.143   7.623   8.752 -0.3883  0.4517 -0.0086
  669MOL0     C90190   7.005   7.678   8.688  0.9226  0.5907  0.3262
  669MOL0     C90191   6.975   7.631   8.548  0.2366  0.3438 -0.4779
  669MOL0     C90192   6.851   7.530   8.538 -0.1589 -0.1852  0.0664
  669MOL0     C90193   6.787   7.514   8.398 -0.6304 -0.4227  0.1578
  669MOL0     C90194   6.671   7.417   8.402  0.9602  0.4108  0.5244
  669MOL0     C90195   6.549   7.457   8.482  0.3296  0.1073 -0.6889
  669MOL0     C90196   6.448   7.353   8.491  0.7622 -0.1077 -0.1578
  669MOL0     N90197   6.319   7.389   8.542  0.2774 -0.8789 -0.4882
  669MOL0     C90198   6.243   7.338   8.640 -0.0752  0.4569 -0.0558
  669MOL0     C90199   6.136   7.417   8.664 -1.0379 -0.2576 -0.0006
  669MOL0     C90200   6.044   7.391   8.774  0.1673 -0.5908  0.2539
  669MOL0     C90201   6.071   7.514   8.864 -0.8985  0.1805 -0.1529
  669MOL0     C90202   6.038   7.474   9.010 -0.0148 -0.4416  0.3900
  669MOL0     C90203   6.101   7.351   9.074 -0.3415  0.0764  0.3886
  669MOL0     O90204   6.000   7.252   9.091  0.3477 -0.0868  0.2160
  669MOL0     C90205   6.027   7.131   9.036 -0.9526 -0.1741 -0.4027
  669MOL0     C90206   6.124   7.044   9.092  1.1740 -1.1026 -0.0293
  669MOL0     C90207   6.144   6.913   9.054 -0.0108  0.1661  0.2784
  669MOL0     C90208   6.223   6.827   9.147 -0.0120 -0.6392 -0.0289
  669MOL0     C90209   6.072   6.873   8.938  0.3656 -0.2135  1.2099
  669MOL0     C90210   6.068   6.741   8.889 -0.5354  0.2121  0.0900
  669MOL0     O90211   6.006   6.647   8.971  0.3935  0.1617  0.1419
  669MOL0     C90212   6.015   6.513   8.922 -0.0795 -0.4395 -0.7220
  669MOL0     C90213   5.901   6.455   8.880 -0.3975 -0.5460  0.6312
  669MOL0     C90214   5.902   6.318   8.850  1.2478  0.5139 -1.1260
  669MOL0     C90215   6.011   6.231   8.876  0.8527 -0.1666 -0.1386
  669MOL0     O90216   6.011   6.096   8.846 -0.1392 -0.6970  0.6307
  669MOL0     C90217   5.900   6.028   8.891 -0.0433  0.7721  0.4678
  669MOL0     C90218   5.937   5.893   8.950 -0.5243  0.4813 -0.1153
  669MOL0     C90219   5.817   5.803   8.960  0.7929 -0.7228 -0.5563
  669MOL0     C90220   5.856   5.667   9.017 -0.6628 -0.8498  0.1219
  669MOL0     C90221   5.739   5.571   9.053  0.4019 -0.0610  0.7043
  669MOL0     C90222   5.805   5.454   9.134  0.1635 -0.3802 -0.8099
  669MOL0     C90223   5.714   5.331   9.129 -0.6727  0.0258 -0.3100
  669MOL0     C90224   5.769   5.217   9.213 -0.2315  0.0436 -0.5693
  669MOL0    Cl90225   5.641   5.103   9.239  0.0778  0.6197  0.1279
  669MOL0     C90226   6.123   6.291   8.928 -0.0096 -0.6056  0.2128
  669MOL0     C90227   6.125   6.430   8.950 -0.0714  0.3093 -0.2650
  669MOL0     O90228   6.109   6.719   8.779 -0.3653 -0.1672  0.1870
  669MOL0     C90229   5.984   6.963   8.878  0.1745  0.4698 -0.2079
  669MOL0     C90230   5.963   7.094   8.920 -0.1925 -0.0412  0.2014
  669MOL0     N90231   6.137   7.507   8.558  0.4984 -0.3553 -0.3993
  669MOL0     N90232   6.249   7.502   8.495 -1.0994 -0.5535 -0.0009
  669MOL0     C90233   7.072   7.551   9.085  0.8151  0.4091 -0.0241
  669MOL0     C90234   7.070   7.463   9.194 -0.0355  0.2847 -0.3351
  669MOL0     C90235   7.299   7.178   9.496  0.7210  0.4425  1.0150
  669MOL0     C90236   7.373   7.224   9.610  0.3669  1.2373  0.7451
  669MOL0     C90237   7.397   7.134   9.714 -0.5792 -0.4041  0.2566
  669MOL0     C90238   7.346   7.002   9.724  0.2156  1.0626  0.2886
  669MOL0     O90239   7.377   6.937   9.843 -0.0269  0.7461  0.7263
  669MOL0     C90240   7.339   6.801   9.867 -0.4200  0.1531 -0.4744
  669MOL0     C90241   7.449   6.708   9.862 -1.3021  0.5018 -1.7167
  669MOL0     C90242   7.503   6.686   9.720 -0.9385 -0.1027 -0.2410
  669MOL0     C90243   7.617   6.580   9.702 -0.1170 -0.0281 -0.3459
  669MOL0     C90244   7.740   6.619   9.774 -0.4099  0.7783 -0.2478
  669MOL0     C90245   7.845   6.655   9.817  0.7926  0.8180 -0.7046
  669MOL0     C90246   7.264   6.962   9.608 -0.0867 -0.8999 -0.3114
  669MOL0     C90247   7.245   7.051   9.499  0.6457 -0.1243 -0.8536
  669MOL0     H90248   7.316   7.258   9.086  0.1765  0.5410  1.7286
  669MOL0     H90249   7.328   7.431   8.896 -0.5506  0.4501  0.0258
  669MOL0     H90250   7.224   7.670   8.695  1.2074  0.8135  2.4183
  669MOL0     H90251   7.153   7.518   8.722  2.5834  0.6264  0.0743
  669MOL0     H90252   6.915   7.651   8.742  0.6489 -0.7014 -0.7128
  669MOL0     H90253   7.011   7.787   8.696 -1.8007  0.6902  2.5476
  669MOL0     H90254   6.931   7.723   8.508 -0.0074  1.0987  1.4454
  669MOL0     H90255   7.056   7.589   8.487 -0.6360 -0.4699 -1.1072
  669MOL0     H90256   6.879   7.428   8.568  0.8188 -0.9180 -2.8926
  669MOL0     H90257   6.773   7.567   8.605  1.1681 -0.5545  1.9043
  669MOL0     H90258   6.751   7.613   8.368 -3.1355 -1.8803 -2.0616
  669MOL0     H90259   6.867   7.479   8.332  0.2823 -0.3030  1.1780
  669MOL0     H90260   6.632   7.407   8.300  1.3908 -1.6303  0.5260
  669MOL0     H90261   6.697   7.318   8.440  0.3664  0.1298  0.2069
  669MOL0     H90262   6.575   7.477   8.586 -1.2861 -2.0188  0.1987
  669MOL0     H90263   6.505   7.544   8.431 -2.0277  0.2756  1.4027
  669MOL0     H90264   6.481   7.267   8.550  1.1765 -0.9184 -1.5077
  669MOL0     H90265   6.447   7.319   8.387  4.3057  0.7974 -0.6358
  669MOL0     H90266   6.286   7.264   8.706 -1.9296  0.7793  1.6364
  669MOL0     H90267   5.948   7.368   8.727  2.7261 -2.2763 -4.8647
  669MOL0     H90268   6.066   7.292   8.814 -1.2263 -1.7918 -1.7218
  669MOL0     H90269   6.028   7.606   8.823  0.1540  0.3008 -1.0435
  669MOL0     H90270   6.178   7.536   8.875 -0.8317 -1.0042  2.2541
  669MOL0     H90271   5.928   7.466   9.011 -0.0177 -0.4957  1.7589
  669MOL0     H90272   6.052   7.559   9.078 -1.6452 -0.7254  1.1481
  669MOL0     H90273   6.138   7.367   9.175  0.0932 -0.2533  0.2817
  669MOL0     H90274   6.192   7.323   9.021 -0.5934  0.6019 -0.3407
  669MOL0     H90275   6.165   7.094   9.180 -2.4391  1.2378  0.5376
  669MOL0     H90276   6.261   6.736   9.100 -1.1706  1.0108 -4.6349
  669MOL0     H90277   6.307   6.887   9.184  0.3276  0.6082 -2.6022
  669MOL0     H90278   6.148   6.789   9.218  0.6508 -0.2670  0.8939
  669MOL0     H90279   5.809   6.511   8.872  0.4697  0.6779 -2.0761
  669MOL0     H90280   5.811   6.272   8.811  0.4719 -0.1002  1.2762
  669MOL0     H90281   5.832   6.091   8.950  1.3927  1.2475  1.6947
  669MOL0     H90282   5.853   6.001   8.796 -2.4685  3.2162  0.8451
  669MOL0     H90283   6.010   5.844   8.885  0.3590 -0.2267  1.3620
  669MOL0     H90284   5.979   5.898   9.051 -2.2872 -1.4874  0.7813
  669MOL0     H90285   5.767   5.787   8.864 -3.5620  0.1457  1.3031
  669MOL0     H90286   5.739   5.849   9.023  0.5091  0.2417 -1.5757
  669MOL0     H90287   5.932   5.611   8.962 -1.1781 -0.3800 -1.1100
  669MOL0     H90288   5.896   5.677   9.118  1.0339 -0.2537 -0.5859
  669MOL0     H90289   5.697   5.534   8.959 -2.8944 -1.1612  2.4509
  669MOL0     H90290   5.664   5.612   9.122  3.4834  0.3240  4.1532
  669MOL0     H90291   5.890   5.426   9.072 -3.3538 -1.7643 -5.5602
  669MOL0     H90292   5.822   5.497   9.233 -2.2986  3.1638 -1.7644
  669MOL0     H90293   5.705   5.302   9.024 -0.4743  1.6102 -0.7951
  669MOL0     H90294   5.610   5.349   9.160  0.5519  2.6049  2.9506
  669MOL0     H90295   5.809   5.250   9.309 -3.9990  2.8893  0.2383
  669MOL0     H90296   5.853   5.171   9.160  2.0307  0.2216  2.5859
  669MOL0     H90297   6.210   6.229   8.947  0.0303 -0.4245  0.6428
  669MOL0     H90298   6.209   6.480   8.998 -1.6622  2.1608  0.7623
  669MOL0     H90299   5.921   6.931   8.795 -0.9362  0.9147  0.4427
  669MOL0     H90300   5.889   7.162   8.879 -0.8023  1.4787  3.5127
  669MOL0     H90301   7.018   7.645   9.089 -2.3441 -1.3165  0.8655
  669MOL0     H90302   7.018   7.476   9.288 -0.4755 -2.7679 -0.0858
  669MOL0     H90303   7.414   7.325   9.606  2.7794  0.3373  1.4060
  669MOL0     H90304   7.457   7.165   9.799 -0.5002 -1.3700  0.5642
  669MOL0     H90305   7.299   6.801   9.969  0.9105 -2.7344  0.1629
  669MOL0     H90306   7.260   6.764   9.801 -2.2242  1.6868  0.7250
  669MOL0     H90307   7.417   6.607   9.890 -0.5590 -0.4075 -3.9085
  669MOL0     H90308   7.522   6.738   9.937 -0.7160 -1.4281 -1.4438
  669MOL0     H90309   7.541   6.780   9.681 -1.1092 -0.3116 -0.9233
  669MOL0     H90310   7.420   6.651   9.658 -1.9210  0.5622  0.6642
  669MOL0     H90311   7.638   6.576   9.594 -1.3175 -2.7207 -0.5572
  669MOL0     H90312   7.576   6.489   9.747  0.0006  0.4637  0.7825
  669MOL0     H90313   7.939   6.682   9.860  0.3907  0.5046  0.3868
  669MOL0     H90314   7.216   6.866   9.598 -0.9415 -0.4680 -0.4553
  669MOL0     H90315   7.186   7.010   9.417 -0.9920 -1.3329  0.8241
  670MOL0     O90316   3.864   2.675   6.681 -0.4068 -0.4680  1.0583
  670MOL0     C90317   3.842   2.719   6.795 -0.2037  0.3612  0.1447
  670MOL0     O90318   3.842   2.642   6.913 -0.9195 -0.5172  0.2762
  670MOL0     C90319   3.835   2.507   6.915 -0.3637 -0.0511  0.8361
  670MOL0     C90320   3.792   2.415   6.812 -0.3462  0.3884  0.1228
  670MOL0     C90321   3.801   2.280   6.818 -0.1110 -0.0457 -0.0596
  670MOL0     C90322   3.839   2.225   6.933  0.0851 -0.2162 -0.1444
  670MOL0     O90323   3.836   2.090   6.943 -0.0715  0.6478 -0.0394
  670MOL0     C90324   3.950   2.036   6.890  0.7659 -0.0014  0.2704
  670MOL0     C90325   3.938   1.887   6.914 -0.2816  0.4391 -1.3122
  670MOL0     C90326   4.049   1.801   6.849  0.2149  0.7119  0.6814
  670MOL0     C90327   4.018   1.655   6.867 -0.2202  0.4019 -0.0271
  670MOL0     C90328   4.120   1.558   6.792  0.5847 -0.3733  0.3946
  670MOL0     C90329   4.214   1.479   6.890 -0.2485 -0.0992 -0.0931
  670MOL0     C90330   4.149   1.347   6.927  0.2024  0.6676  0.8856
  670MOL0     C90331   4.223   1.259   7.024 -1.2306 -0.6929  0.3575
  670MOL0     N90332   4.367   1.259   6.984  0.1279 -0.0682 -0.4144
  670MOL0     C90333   4.424   1.191   6.882  0.0323 -0.0442  0.3845
  670MOL0     C90334   4.557   1.226   6.881  0.5953  0.3249 -0.8515
  670MOL0     C90335   4.662   1.171   6.785 -0.9719 -0.5000 -0.0945
  670MOL0     C90336   4.734   1.042   6.843  0.2946 -0.3854  0.0050
  670MOL0     C90337   4.800   1.080   6.979  0.0314  0.9173 -0.4489
  670MOL0     C90338   4.874   0.955   7.014  0.5924  0.5399  0.8372
  670MOL0     O90339   4.979   0.920   6.931  0.0036  0.1321 -0.9010
  670MOL0     C90340   5.059   0.818   6.975  0.2446 -0.9834 -0.2998
  670MOL0     C90341   5.171   0.799   6.898  0.1966  0.3743 -0.4483
  670MOL0     C90342   5.257   0.686   6.923 -0.9903  1.2134  0.3634
  670MOL0     C90343   5.372   0.660   6.828  0.6363  0.2545 -0.0066
  670MOL0     C90344   5.240   0.610   7.035  0.0422 -0.0839  0.0905
  670MOL0     C90345   5.340   0.521   7.085 -0.0339  0.4930 -0.3972
  670MOL0     O90346   5.355   0.413   7.000 -0.9096  0.6303 -0.2185
  670MOL0     C90347   5.472   0.341   7.030 -0.0374  0.2340  0.6832
  670MOL0     C90348   5.452   0.209   7.083  0.6684  0.1715  0.0232
  670MOL0     C90349   5.560   0.110   7.091 -0.2529 -0.1291 -0.4780
  670MOL0     C90350   5.686   0.160   7.059 -0.3714  0.4555 -0.0026
  670MOL0     O90351   5.800   0.082   7.056 -0.3364 -0.1754 -0.4892
  670MOL0     C90352   5.833   0.033   7.186  0.5136  0.1652 -0.3712
  670MOL0     C90353   5.876  -0.111   7.180 -0.3470  0.5399  0.1588
  670MOL0     C90354   5.764  -0.218   7.185  1.2435  0.4022  0.0291
  670MOL0     C90355   5.813  -0.360   7.147  0.2393 -0.6163  0.5083
  670MOL0     C90356   5.715  -0.478   7.171  1.1161 -0.5317 -1.3452
  670MOL0     C90357   5.585  -0.450   7.096  0.1231 -0.2112 -0.9845
  670MOL0     C90358   5.487  -0.570   7.085 -0.1368  1.1852  0.6433
  670MOL0     C90359   5.402  -0.620   7.210  0.0921 -0.1631  0.3893
  670MOL0    Cl90360   5.507  -0.676   7.335  0.1135  0.1081 -0.1665
  670MOL0     C90361   5.711   0.291   7.002 -0.4031  0.0311 -0.6222
  670MOL0     C90362   5.605   0.379   6.992 -0.1989 -0.1436 -0.5270
  670MOL0     O90363   5.361   0.521   7.203 -0.2827  0.0825 -0.3627
  670MOL0     C90364   5.122   0.628   7.113  0.0968 -0.2239  0.4668
  670MOL0     C90365   5.034   0.730   7.084 -0.0823 -0.4969  0.8273
  670MOL0     N90366   4.567   1.334   6.968 -0.3329  0.5409 -0.3295
  670MOL0     N90367   4.455   1.346   7.036 -0.3446  0.6459  0.7254
  670MOL0     C90368   3.849   2.302   7.055 -0.6067 -0.0863  0.8973
  670MOL0     C90369   3.853   2.443   7.045 -0.0910 -0.0556 -0.0577
  670MOL0     C90370   3.788   2.851   6.819  0.1599  0.0259  0.5123
  670MOL0     C90371   3.719   2.887   6.936 -0.9289  0.5183 -0.5629
  670MOL0     C90372   3.678   3.021   6.946  0.4848  1.1339  0.3409
  670MOL0     C90373   3.672   3.111   6.842  0.5215  0.3634 -0.3344
  670MOL0     O90374   3.592   3.220   6.858  0.8621  0.8481  0.0226
  670MOL0     C90375   3.460   3.195   6.809  0.6869 -0.3425 -0.3009
  670MOL0     C90376   3.433   3.220   6.661 -0.3818  0.0580 -0.7210
  670MOL0     C90377   3.446   3.379   6.647  0.5248 -0.2990 -0.2542
  670MOL0     C90378   3.448   3.432   6.504 -0.0855  0.9074 -0.8189
  670MOL0     C90379   3.566   3.375   6.432  0.6955 -0.9295 -0.7468
  670MOL0     C90380   3.680   3.343   6.412  0.5751  0.3368  1.0006
  670MOL0     C90381   3.743   3.080   6.727  0.0446  0.7182  0.2530
  670MOL0     C90382   3.801   2.951   6.718 -0.2268 -0.5555  0.2254
  670MOL0     H90383   3.748   2.466   6.726 -5.3522 -1.4635  1.2804
  670MOL0     H90384   3.765   2.224   6.732 -0.6489  0.0497  0.0995
  670MOL0     H90385   3.956   2.044   6.781  0.5283  0.4472  0.2876
  670MOL0     H90386   4.037   2.088   6.931  1.4597 -0.1435 -0.9800
  670MOL0     H90387   3.928   1.865   7.020  0.0201 -0.6963 -1.5044
  670MOL0     H90388   3.843   1.862   6.865  0.7854 -1.2582 -2.6367
  670MOL0     H90389   4.043   1.836   6.746  1.5203  1.3994  0.8201
  670MOL0     H90390   4.153   1.816   6.878  1.6424 -2.0700 -2.3986
  670MOL0     H90391   4.019   1.628   6.973  1.2789 -1.8540 -0.5463
  670MOL0     H90392   3.920   1.628   6.827  0.2293 -0.5765 -0.5202
  670MOL0     H90393   4.062   1.480   6.741  0.1143 -2.0470  3.2886
  670MOL0     H90394   4.179   1.611   6.717  1.0124 -3.2568 -1.4706
  670MOL0     H90395   4.299   1.456   6.825  0.5352 -0.7600  1.1257
  670MOL0     H90396   4.241   1.537   6.979  0.4547 -0.9687  0.2756
  670MOL0     H90397   4.048   1.357   6.969  1.4891  3.1626  3.8489
  670MOL0     H90398   4.138   1.294   6.832  3.1212  1.1399  0.1796
  670MOL0     H90399   4.183   1.158   7.020  1.9976 -2.1597  1.4953
  670MOL0     H90400   4.213   1.296   7.126  1.9097  0.3314  0.3987
  670MOL0     H90401   4.380   1.120   6.812  1.3210  0.2460 -0.7754
  670MOL0     H90402   4.624   1.140   6.688  0.5966  0.5016 -1.0715
  670MOL0     H90403   4.748   1.235   6.765 -2.1224  0.9213 -0.6396
  670MOL0     H90404   4.815   1.016   6.774  2.8289  2.4566  1.6534
  670MOL0     H90405   4.668   0.955   6.838 -0.6010  0.3466 -1.9520
  670MOL0     H90406   4.725   1.101   7.056  1.3340 -2.0921  1.8390
  670MOL0     H90407   4.876   1.158   6.971  2.5461 -1.2626  0.6940
  670MOL0     H90408   4.802   0.877   7.040  2.4022 -1.0229  1.4532
  670MOL0     H90409   4.917   0.993   7.107  0.0538  1.8789  0.5672
  670MOL0     H90410   5.193   0.871   6.819  0.3206  0.1003 -0.6669
  670MOL0     H90411   5.379   0.737   6.750  2.1973  2.6034  2.2643
  670MOL0     H90412   5.471   0.674   6.874  1.4125  2.6556 -2.1479
  670MOL0     H90413   5.360   0.558   6.790  1.5593  0.6183 -1.3852
  670MOL0     H90414   5.350   0.182   7.106  0.6469  1.2387  1.3429
  670MOL0     H90415   5.550   0.007   7.124  2.7204 -1.2899 -2.6562
  670MOL0     H90416   5.919   0.089   7.224  1.1245 -0.6922 -0.4601
  670MOL0     H90417   5.744   0.043   7.247  0.4888  2.5913 -0.7153
  670MOL0     H90418   5.941  -0.115   7.093 -3.5655 -0.9597 -2.4149
  670MOL0     H90419   5.931  -0.135   7.271 -0.1305 -0.4241 -0.2260
  670MOL0     H90420   5.674  -0.182   7.135 -0.6174 -1.3020  1.9500
  670MOL0     H90421   5.735  -0.223   7.290 -0.1471  0.2775 -0.3472
  670MOL0     H90422   5.844  -0.369   7.043 -0.7152  0.6089  0.0881
  670MOL0     H90423   5.912  -0.369   7.192  0.5677  0.6822  0.0992
  670MOL0     H90424   5.695  -0.492   7.278 -1.8346 -1.7444 -1.9558
  670MOL0     H90425   5.757  -0.575   7.143  2.0287 -2.4346  4.9698
  670MOL0     H90426   5.526  -0.365   7.131 -2.3969 -0.9151 -3.1538
  670MOL0     H90427   5.609  -0.425   6.992  1.3773  0.0372 -0.6480
  670MOL0     H90428   5.534  -0.662   7.049 -1.3029  0.6859  0.3402
  670MOL0     H90429   5.405  -0.544   7.017  1.6761  1.0335 -1.7454
  670MOL0     H90430   5.334  -0.704   7.191 -1.0044  1.1736 -2.1194
  670MOL0     H90431   5.346  -0.537   7.254 -0.1716  0.7262 -1.5324
  670MOL0     H90432   5.812   0.324   6.981 -0.6305 -0.3749 -2.5408
  670MOL0     H90433   5.605   0.484   6.965 -3.0192  0.0848  0.0659
  670MOL0     H90434   5.098   0.576   7.205 -3.4800 -2.3054 -1.4314
  670MOL0     H90435   4.944   0.748   7.141  0.5054  0.6103  1.4408
  670MOL0     H90436   3.857   2.257   7.154 -2.2467 -0.3192  0.9562
  670MOL0     H90437   3.875   2.503   7.133  1.9605  0.8409 -1.1280
  670MOL0     H90438   3.715   2.812   7.014 -1.6161  1.1635  0.0433
  670MOL0     H90439   3.637   3.058   7.040 -1.1433  3.0062 -1.0424
  670MOL0     H90440   3.440   3.088   6.824  2.8725 -0.7033  0.3279
  670MOL0     H90441   3.394   3.248   6.878  2.4323 -2.9446  3.7309
  670MOL0     H90442   3.331   3.185   6.639 -0.1260 -1.6915  0.6245
  670MOL0     H90443   3.491   3.159   6.591 -0.2227 -1.0713  0.3565
  670MOL0     H90444   3.539   3.415   6.693  1.7226 -1.7849 -1.3727
  670MOL0     H90445   3.362   3.428   6.695  2.1659  3.2088 -0.6738
  670MOL0     H90446   3.459   3.541   6.506 -0.2165  1.0240 -3.3728
  670MOL0     H90447   3.357   3.392   6.457  1.3720 -1.7505 -1.5662
  670MOL0     H90448   3.779   3.315   6.382 -0.7898 -2.2662 -1.5194
  670MOL0     H90449   3.736   3.149   6.643 -2.9310  1.4459  0.9749
  670MOL0     H90450   3.863   2.937   6.630  0.3068  1.6990  0.1834
  671MOL0     O90451   1.412   6.418   7.714  0.2959 -0.3867 -0.1109
  671MOL0     C90452   1.469   6.401   7.824  0.9341  0.1615 -0.4645
  671MOL0     O90453   1.528   6.498   7.898 -0.4992  0.9562 -0.3525
  671MOL0     C90454   1.536   6.617   7.846  0.6564 -1.0709 -0.0353
  671MOL0     C90455   1.657   6.659   7.792 -0.0547 -0.5523 -0.8089
  671MOL0     C90456   1.677   6.788   7.736  0.1380  0.2898 -0.8411
  671MOL0     C90457   1.577   6.887   7.742 -0.1572 -0.1375  0.2319
  671MOL0     O90458   1.582   7.022   7.702 -0.2963  0.3574 -0.2078
  671MOL0     C90459   1.697   7.054   7.621 -0.1488 -0.4693  0.1922
  671MOL0     C90460   1.698   7.206   7.587  0.9629  0.1448 -0.0505
  671MOL0     C90461   1.802   7.255   7.495  0.1512  0.3875 -0.8885
  671MOL0     C90462   1.773   7.403   7.452  0.0264 -0.5997 -1.3952
  671MOL0     C90463   1.882   7.461   7.348  0.8553  0.5620 -0.9514
  671MOL0     C90464   2.021   7.476   7.403  0.6557 -0.4187 -0.6951
  671MOL0     C90465   2.112   7.523   7.301 -0.0769  0.5587 -0.5334
  671MOL0     C90466   2.089   7.626   7.194  0.3901  0.4387 -0.3510
  671MOL0     N90467   2.100   7.757   7.243 -0.6127  0.1034 -0.7847
  671MOL0     C90468   2.018   7.856   7.212  0.1542 -1.4196  0.5964
  671MOL0     C90469   2.038   7.952   7.312 -0.2158  0.9198 -0.1389
  671MOL0     C90470   1.958   8.080   7.335 -0.3523 -0.0395 -0.6795
  671MOL0     C90471   1.839   8.063   7.436 -0.1632 -0.5336  0.4377
  671MOL0     C90472   1.766   8.189   7.469 -0.0259 -0.1411 -0.1271
  671MOL0     C90473   1.853   8.277   7.566 -0.5716  0.2715 -0.2540
  671MOL0     O90474   1.756   8.379   7.601  0.7059 -0.1563  0.7629
  671MOL0     C90475   1.718   8.473   7.509  0.0751  0.0449 -0.4845
  671MOL0     C90476   1.772   8.490   7.377  1.3523 -0.1729  0.2131
  671MOL0     C90477   1.716   8.578   7.289  1.1290  0.2570  1.0445
  671MOL0     C90478   1.776   8.582   7.151 -0.5304 -0.4949  0.6661
  671MOL0     C90479   1.618   8.672   7.340 -0.5863 -0.7732  0.4949
  671MOL0     C90480   1.559   8.780   7.266  0.3405 -0.1945 -0.0984
  671MOL0     O90481   1.557   8.898   7.334 -0.0025  0.4954 -0.5042
  671MOL0     C90482   1.540   9.020   7.272 -0.2864  0.7311 -0.2494
  671MOL0     C90483   1.546   9.125   7.361 -0.0960  1.0426 -0.0991
  671MOL0     C90484   1.537   9.256   7.311 -0.4015  0.0199  1.4342
  671MOL0     C90485   1.528   9.286   7.172  0.5511  0.6363  0.2144
  671MOL0     O90486   1.515   9.408   7.123  0.0471  0.1015  0.3998
  671MOL0     C90487   1.407   9.480   7.189 -0.1859  0.6029  1.0621
  671MOL0     C90488   1.275   9.401   7.206 -0.3648 -0.2137 -0.7949
  671MOL0     C90489   1.156   9.495   7.214  1.1582 -0.0124 -0.1207
  671MOL0     C90490   1.098   9.559   7.084  0.7379  0.2692  0.3989
  671MOL0     C90491   1.032   9.693   7.123  0.5945 -0.2959  0.6256
  671MOL0     C90492   0.981   9.768   6.993  0.1308 -0.2547  0.4034
  671MOL0     C90493   1.094   9.838   6.909  0.6693 -0.4841  0.3098
  671MOL0     C90494   1.066   9.993   6.880 -1.0829  0.2450 -0.2659
  671MOL0    Cl90495   0.909  10.038   6.815 -0.2764  0.0320 -0.6063
  671MOL0     C90496   1.540   9.173   7.083 -0.2991 -0.9799 -0.7002
  671MOL0     C90497   1.531   9.047   7.132 -0.4968  0.2646  0.5159
  671MOL0     O90498   1.505   8.746   7.158 -0.7522 -0.7179 -1.0250
  671MOL0     C90499   1.555   8.649   7.465 -0.2075 -0.3629 -0.5603
  671MOL0     C90500   1.616   8.551   7.552 -0.3572  0.5322  0.0557
  671MOL0     N90501   2.139   7.907   7.400 -0.3995  0.6843  0.1156
  671MOL0     N90502   2.176   7.794   7.354  0.1254  0.1340 -0.0987
  671MOL0     C90503   1.457   6.846   7.809 -0.3170 -0.4486  0.7384
  671MOL0     C90504   1.429   6.715   7.852  0.4784  0.7238  0.7476
  671MOL0     C90505   1.437   6.280   7.902 -0.1585  0.0951  0.1316
  671MOL0     C90506   1.415   6.287   8.046 -0.9369  0.0401  0.1279
  671MOL0     C90507   1.381   6.171   8.118  1.0538 -0.1991  0.0149
  671MOL0     C90508   1.348   6.055   8.048  0.2815 -0.0231 -0.2731
  671MOL0     O90509   1.306   5.932   8.101 -0.0331  0.1668  0.1052
  671MOL0     C90510   1.273   5.914   8.248 -0.0579 -0.2472  0.3917
  671MOL0     C90511   1.148   5.999   8.280 -0.0099  0.4140  0.5630
  671MOL0     C90512   1.105   5.983   8.427 -0.7093 -0.2258  0.3587
  671MOL0     C90513   0.976   6.061   8.446  0.6147 -0.2800 -0.2029
  671MOL0     C90514   0.929   6.099   8.581  0.0898 -0.2967 -0.3181
  671MOL0     C90515   0.902   6.116   8.695 -0.9514  0.7051  0.3691
  671MOL0     C90516   1.362   6.053   7.912  0.4144  0.2685 -0.1776
  671MOL0     C90517   1.413   6.162   7.842  0.5731 -0.2295  0.6888
  671MOL0     H90518   1.736   6.585   7.790 -0.5798 -1.1184 -2.3060
  671MOL0     H90519   1.774   6.807   7.691  0.5132  1.2041  0.2872
  671MOL0     H90520   1.784   7.041   7.686  0.8948 -0.6049 -1.1847
  671MOL0     H90521   1.704   6.994   7.529 -1.9189 -0.5109  0.0648
  671MOL0     H90522   1.598   7.216   7.543  1.2055  0.8037 -0.4698
  671MOL0     H90523   1.697   7.267   7.678 -0.6013  0.7245 -0.4201
  671MOL0     H90524   1.897   7.231   7.544 -1.1195  0.8616  2.0318
  671MOL0     H90525   1.798   7.191   7.407 -3.0904 -1.7017  0.6120
  671MOL0     H90526   1.672   7.400   7.410  0.0363 -0.0443 -1.4580
  671MOL0     H90527   1.775   7.464   7.543  0.7173 -0.0543 -1.7740
  671MOL0     H90528   1.879   7.386   7.269  0.5037 -2.3716  1.6722
  671MOL0     H90529   1.842   7.555   7.307  0.7460  0.7659 -0.3936
  671MOL0     H90530   2.012   7.551   7.482 -0.2905 -1.7572  0.5261
  671MOL0     H90531   2.073   7.384   7.434  2.7761 -0.2565 -3.3961
  671MOL0     H90532   2.210   7.536   7.348  0.6490 -0.5205 -1.6598
  671MOL0     H90533   2.136   7.439   7.234  0.2055  1.4652 -1.5978
  671MOL0     H90534   1.984   7.623   7.162 -0.5196 -1.4890  2.4039
  671MOL0     H90535   2.158   7.608   7.111  2.5357 -1.7034  1.7167
  671MOL0     H90536   1.938   7.861   7.139  1.9468 -0.8822 -1.3984
  671MOL0     H90537   2.029   8.158   7.364 -1.4913  0.6931  0.2212
  671MOL0     H90538   1.911   8.109   7.240 -1.3705 -2.0196 -0.8354
  671MOL0     H90539   1.884   8.024   7.527  1.9862  1.1193  0.1714
  671MOL0     H90540   1.773   7.989   7.390  0.2607 -1.2647  0.9978
  671MOL0     H90541   1.673   8.165   7.522 -0.2066 -0.2396 -0.4885
  671MOL0     H90542   1.733   8.241   7.378 -0.9038  0.5777  0.5807
  671MOL0     H90543   1.946   8.307   7.515 -0.7306 -1.3563 -1.5879
  671MOL0     H90544   1.880   8.228   7.660 -3.2055 -0.0033  0.4259
  671MOL0     H90545   1.849   8.426   7.335  1.5820 -1.5731  2.5528
  671MOL0     H90546   1.698   8.592   7.074 -0.0708  0.4034  0.3026
  671MOL0     H90547   1.848   8.664   7.145 -1.5227  0.6489  2.9736
  671MOL0     H90548   1.837   8.496   7.124  1.6572  1.4119 -0.8984
  671MOL0     H90549   1.557   9.092   7.464  2.5770 -1.5491 -1.0786
  671MOL0     H90550   1.539   9.335   7.387  2.5435  1.7661 -0.2712
  671MOL0     H90551   1.450   9.513   7.284  0.8699 -1.1298  1.2309
  671MOL0     H90552   1.401   9.568   7.125  2.8447  1.7501  2.1693
  671MOL0     H90553   1.261   9.334   7.121 -0.0461 -0.0137 -1.0109
  671MOL0     H90554   1.289   9.345   7.299 -1.2635  2.0590  0.7996
  671MOL0     H90555   1.174   9.583   7.276  2.6987 -1.6870  2.0085
  671MOL0     H90556   1.073   9.441   7.261 -0.1819  3.0596  1.3511
  671MOL0     H90557   1.180   9.588   7.018 -0.9951  2.3638 -0.9938
  671MOL0     H90558   1.031   9.490   7.031 -3.8684  1.5305  3.8389
  671MOL0     H90559   1.100   9.759   7.178 -2.4313  3.5093  0.2313
  671MOL0     H90560   0.949   9.667   7.190 -0.6420  0.5134 -0.5411
  671MOL0     H90561   0.909   9.704   6.942  0.7218  0.7891 -1.8704
  671MOL0     H90562   0.922   9.852   7.030  0.8232  0.2155  0.4627
  671MOL0     H90563   1.104   9.793   6.810 -0.0024 -1.5826  0.7201
  671MOL0     H90564   1.190   9.823   6.959 -0.0275 -1.6434  1.3736
  671MOL0     H90565   1.142  10.019   6.806  1.1306  1.6763  2.2886
  671MOL0     H90566   1.085  10.040   6.977  0.1130 -3.1287  1.3259
  671MOL0     H90567   1.549   9.177   6.975 -0.2895 -0.9365 -0.6975
  671MOL0     H90568   1.542   8.961   7.066 -3.3216  0.3837 -0.2259
  671MOL0     H90569   1.465   8.693   7.507  2.3212  0.8821  4.1508
  671MOL0     H90570   1.578   8.542   7.653 -3.4722 -0.2355 -1.0535
  671MOL0     H90571   1.380   6.922   7.812 -0.0093 -0.1584  3.3639
  671MOL0     H90572   1.328   6.706   7.891 -0.0433 -1.4039 -0.9188
  671MOL0     H90573   1.421   6.384   8.094 -1.9442 -0.4024  1.1999
  671MOL0     H90574   1.361   6.163   8.224 -2.5106 -2.6131 -0.6423
  671MOL0     H90575   1.246   5.809   8.257 -0.7026 -0.1867 -0.7131
  671MOL0     H90576   1.349   5.946   8.320 -1.3804  1.4359  1.1482
  671MOL0     H90577   1.066   5.959   8.220 -1.1919  0.5904  2.0077
  671MOL0     H90578   1.173   6.102   8.251  1.2952 -0.1807 -0.5771
  671MOL0     H90579   1.190   6.030   8.477  0.3674  0.9566 -2.4032
  671MOL0     H90580   1.084   5.878   8.451 -1.7004 -0.0717  0.2186
  671MOL0     H90581   0.896   5.992   8.416  0.8980 -1.6873  1.9886
  671MOL0     H90582   0.975   6.156   8.393  3.2164  1.3264  2.3399
  671MOL0     H90583   0.875   6.133   8.798 -1.5927 -0.1911  0.3686
  671MOL0     H90584   1.332   5.961   7.863 -2.3406  0.5961  0.7388
  671MOL0     H90585   1.416   6.154   7.734  2.9732  0.0822  0.6870
  672MOL0     O90586   0.632   9.191   7.082 -0.0665 -0.1741  0.6652
  672MOL0     C90587   0.620   9.249   6.970 -0.7510  0.1622 -0.7698
  672MOL0     O90588   0.650   9.189   6.851  0.1242 -0.9604 -0.1001
  672MOL0     C90589   0.706   9.061   6.843  0.9522 -0.4484 -0.0036
  672MOL0     C90590   0.664   8.973   6.749 -0.8601  0.5907  0.1556
  672MOL0     C90591   0.717   8.836   6.736  0.6982 -0.3602 -0.0033
  672MOL0     C90592   0.813   8.793   6.837  0.3386 -0.4396 -0.0795
  672MOL0     O90593   0.850   8.660   6.839 -0.4527  0.3170 -0.4290
  672MOL0     C90594   0.859   8.603   6.973 -0.6167  0.4129 -0.0691
  672MOL0     C90595   0.875   8.453   6.946  0.0641  0.0358  0.0723
  672MOL0     C90596   0.925   8.369   7.066  0.9228  0.2825  0.2083
  672MOL0     C90597   0.814   8.332   7.165  0.0482 -0.3999 -1.2435
  672MOL0     C90598   0.873   8.242   7.281  0.2400 -0.3585 -0.3266
  672MOL0     C90599   0.772   8.241   7.405  0.0754  0.3726 -1.5012
  672MOL0     C90600   0.824   8.145   7.512  0.7051  0.5313  0.3815
  672MOL0     C90601   0.767   7.998   7.482 -1.0289 -0.1617  0.3874
  672MOL0     N90602   0.764   7.911   7.602  0.3542 -0.5166 -0.2006
  672MOL0     C90603   0.691   7.940   7.720  0.9728  0.1404 -0.4379
  672MOL0     C90604   0.679   7.827   7.793  0.4404  0.0239 -0.4687
  672MOL0     C90605   0.602   7.797   7.928 -0.4241 -1.0058 -0.5516
  672MOL0     C90606   0.451   7.786   7.892  0.3276 -0.0570 -1.4151
  672MOL0     C90607   0.379   7.699   8.002  0.0885  0.0278 -0.3704
  672MOL0     C90608   0.233   7.670   7.969 -1.1953  0.2952 -0.1011
  672MOL0     O90609   0.188   7.578   8.067 -0.4883 -0.2622  0.2996
  672MOL0     C90610   0.072   7.508   8.046  0.9060 -1.2337  0.3065
  672MOL0     C90611   0.045   7.416   8.143 -0.2075  0.2397  1.0694
  672MOL0     C90612  -0.065   7.335   8.155 -0.0334 -0.0950  0.4593
  672MOL0     C90613  -0.089   7.229   8.261 -0.3794 -0.2402  0.3697
  672MOL0     C90614  -0.160   7.353   8.052  0.0349 -0.6212  0.2199
  672MOL0     C90615  -0.279   7.272   8.034  0.1739  0.2536 -0.1010
  672MOL0     O90616  -0.303   7.215   7.910  0.1023 -0.4016  0.9494
  672MOL0     C90617  -0.411   7.137   7.894  0.3840 -0.9459 -0.1070
  672MOL0     C90618  -0.521   7.185   7.836  0.4338  0.0580 -0.2737
  672MOL0     C90619  -0.639   7.104   7.815  0.4214  0.4798 -0.2579
  672MOL0     C90620  -0.639   6.967   7.830  0.8023 -0.3287 -0.2000
  672MOL0     O90621  -0.762   6.905   7.815 -0.1175  0.5089  0.7650
  672MOL0     C90622  -0.759   6.765   7.763  0.1003  0.3848 -0.1705
  672MOL0     C90623  -0.826   6.683   7.868  0.1771  0.0485 -0.7775
  672MOL0     C90624  -0.816   6.539   7.823 -0.7004 -0.4289 -0.5322
  672MOL0     C90625  -0.901   6.443   7.914 -0.4492  0.3563  0.4674
  672MOL0     C90626  -0.877   6.294   7.875 -0.0284  1.5636  0.2331
  672MOL0     C90627  -0.962   6.201   7.959 -0.1635 -0.5807  0.8972
  672MOL0     C90628  -0.888   6.061   7.944  0.4814 -1.1559  0.1652
  672MOL0     C90629  -0.963   5.955   8.026  0.4587  0.1908  0.5547
  672MOL0    Cl90630  -1.143   5.941   7.970 -0.3545  0.1514 -0.5649
  672MOL0     C90631  -0.518   6.918   7.883  0.1985 -0.1724 -0.4780
  672MOL0     C90632  -0.408   6.998   7.919 -1.3955  0.2567  1.5106
  672MOL0     O90633  -0.354   7.270   8.137 -0.6741  0.1125 -0.7031
  672MOL0     C90634  -0.129   7.447   7.935  0.5997 -0.2578  0.5082
  672MOL0     C90635  -0.014   7.513   7.935 -0.4126 -1.6014 -0.4204
  672MOL0     N90636   0.751   7.743   7.713  0.3335 -0.0806 -0.3970
  672MOL0     N90637   0.802   7.778   7.604 -0.0278  0.2342  1.1303
  672MOL0     C90638   0.864   8.890   6.935  0.0019  1.0337  0.2020
  672MOL0     C90639   0.804   9.017   6.928 -0.1408 -0.1333 -0.6578
  672MOL0     C90640   0.577   9.389   6.974 -0.7260 -0.2847 -0.7777
  672MOL0     C90641   0.543   9.436   7.099  0.1028 -0.5843  0.5461
  672MOL0     C90642   0.532   9.579   7.113  0.1541 -0.0567 -1.4899
  672MOL0     C90643   0.578   9.670   7.015 -0.2226 -0.0494  0.9544
  672MOL0     O90644   0.565   9.808   7.025 -0.3253  0.4415  0.4165
  672MOL0     C90645   0.467   9.869   7.116 -0.1092  0.1953  0.1789
  672MOL0     C90646   0.484  10.024   7.114  1.2218  0.0520 -1.4569
  672MOL0     C90647   0.371  10.099   7.176 -0.1351 -1.4862 -0.0289
  672MOL0     C90648   0.257  10.135   7.077 -0.1003  0.0128  0.1539
  672MOL0     C90649   0.153  10.227   7.134 -0.1351  0.0222  0.2713
  672MOL0     C90650   0.067  10.298   7.177  0.7917 -0.8200 -0.6776
  672MOL0     C90651   0.608   9.621   6.880 -0.7375  0.0841  0.0785
  672MOL0     C90652   0.616   9.482   6.872  0.8018 -0.2318 -0.0946
  672MOL0     H90653   0.588   9.000   6.677  0.5310  5.1912  0.0744
  672MOL0     H90654   0.690   8.768   6.656  1.2249 -0.7280  0.1248
  672MOL0     H90655   0.948   8.645   7.021  1.7618 -0.3448 -3.4723
  672MOL0     H90656   0.770   8.624   7.034  0.3069  2.2697  0.7414
  672MOL0     H90657   0.791   8.407   6.893  1.6474  1.1378 -3.6895
  672MOL0     H90658   0.959   8.444   6.876  0.2493  0.1485  0.2799
  672MOL0     H90659   0.987   8.282   7.042  0.1164  0.0704 -1.2127
  672MOL0     H90660   0.991   8.443   7.112  0.2892  1.7097 -1.0863
  672MOL0     H90661   0.765   8.419   7.209 -0.7468 -0.3940 -2.0947
  672MOL0     H90662   0.739   8.280   7.103 -1.9289  2.0439 -1.0569
  672MOL0     H90663   0.891   8.139   7.253  2.3316 -0.2397  0.4257
  672MOL0     H90664   0.962   8.292   7.319 -0.7494  0.7454  0.6622
  672MOL0     H90665   0.770   8.340   7.452  0.3522 -0.2145 -0.2127
  672MOL0     H90666   0.667   8.218   7.385 -0.1171 -0.6988  0.5372
  672MOL0     H90667   0.933   8.148   7.509  0.7732 -1.0827  0.1811
  672MOL0     H90668   0.795   8.162   7.616  0.1820  0.0965  0.3174
  672MOL0     H90669   0.823   7.947   7.403  2.0948 -0.3415  2.5637
  672MOL0     H90670   0.662   8.011   7.453 -0.5383  1.5271 -0.7768
  672MOL0     H90671   0.653   8.038   7.748  1.9665  0.0460  1.3773
  672MOL0     H90672   0.651   7.711   7.974 -0.4256 -0.4478  0.5375
  672MOL0     H90673   0.615   7.884   7.993 -2.2613  1.3146 -3.0588
  672MOL0     H90674   0.434   7.735   7.797 -1.8628 -2.1008 -0.0357
  672MOL0     H90675   0.421   7.891   7.900  2.9011  0.8279 -2.2004
  672MOL0     H90676   0.373   7.747   8.100  1.1235 -0.1295 -0.2102
  672MOL0     H90677   0.440   7.608   8.012  0.3844 -0.0166 -2.1838
  672MOL0     H90678   0.226   7.619   7.873 -0.2452  1.7996 -1.0169
  672MOL0     H90679   0.182   7.766   7.980 -0.3673  0.7536 -0.1565
  672MOL0     H90680   0.109   7.404   8.230 -1.0011 -2.8845  1.3419
  672MOL0     H90681  -0.091   7.127   8.222  0.2444 -0.4700  0.9122
  672MOL0     H90682  -0.000   7.232   8.325 -1.9235  3.2502  2.6360
  672MOL0     H90683  -0.182   7.246   8.315 -0.5998 -1.0683  0.2558
  672MOL0     H90684  -0.509   7.290   7.809  1.8930  0.4245  1.6236
  672MOL0     H90685  -0.731   7.155   7.787 -0.2181 -0.7477 -0.4279
  672MOL0     H90686  -0.809   6.755   7.666  2.1196 -0.2850 -1.2251
  672MOL0     H90687  -0.657   6.731   7.742 -0.5809 -1.0800 -1.3210
  672MOL0     H90688  -0.784   6.705   7.966 -0.0769  0.7074 -0.8096
  672MOL0     H90689  -0.924   6.731   7.876  1.5451  2.6985  3.6988
  672MOL0     H90690  -0.708   6.524   7.827 -0.4096  1.5621  0.4518
  672MOL0     H90691  -0.840   6.534   7.717 -0.7519 -0.0371 -0.5417
  672MOL0     H90692  -0.876   6.457   8.020  1.0240 -3.8210  0.8328
  672MOL0     H90693  -1.004   6.478   7.906 -0.8855 -1.2030 -1.5471
  672MOL0     H90694  -0.768   6.283   7.878  0.5102  5.4186  0.0432
  672MOL0     H90695  -0.911   6.292   7.771 -1.5601  0.1145  0.7128
  672MOL0     H90696  -0.961   6.249   8.057 -0.5674 -1.7361  1.4929
  672MOL0     H90697  -1.067   6.196   7.930 -0.4747  1.3853  1.5417
  672MOL0     H90698  -0.785   6.060   7.980 -0.0865 -4.5524  2.0539
  672MOL0     H90699  -0.881   6.033   7.838  1.5363 -1.7015  0.3707
  672MOL0     H90700  -0.950   5.952   8.135  1.4254 -1.5032  0.4299
  672MOL0     H90701  -0.905   5.867   7.999  3.9467  2.8920 -1.6438
  672MOL0     H90702  -0.515   6.816   7.920 -3.6826 -0.2982 -0.1096
  672MOL0     H90703  -0.332   6.939   7.969 -1.8939 -0.7752  1.0787
  672MOL0     H90704  -0.199   7.439   7.852  0.7598 -3.3967  0.5552
  672MOL0     H90705   0.023   7.567   7.848  1.1928 -1.3881  0.3731
  672MOL0     H90706   0.929   8.877   7.021  2.5774  1.0633 -1.5989
  672MOL0     H90707   0.843   9.090   6.999  0.2402  0.3603 -1.3632
  672MOL0     H90708   0.531   9.370   7.184  0.9871  1.2092  2.1447
  672MOL0     H90709   0.497   9.617   7.208 -1.6279  0.5135 -2.3264
  672MOL0     H90710   0.365   9.847   7.085 -1.0059  1.7896  1.7916
  672MOL0     H90711   0.485   9.830   7.217  0.5299 -3.7641 -1.3001
  672MOL0     H90712   0.510  10.040   7.009  2.5639  3.2647 -0.7443
  672MOL0     H90713   0.572  10.046   7.176 -0.3618 -0.7008  1.2626
  672MOL0     H90714   0.414  10.192   7.215 -0.0236  0.3897 -4.0721
  672MOL0     H90715   0.335  10.035   7.257 -0.5090 -1.9282 -0.5360
  672MOL0     H90716   0.187  10.053   7.058 -2.7467  1.7662  1.6570
  672MOL0     H90717   0.285  10.190   6.987 -0.7216  2.6525  1.4599
  672MOL0     H90718  -0.011  10.364   7.207  0.9784 -1.0640  0.3890
  672MOL0     H90719   0.638   9.675   6.791 -4.0002  3.4068  0.7728
  672MOL0     H90720   0.662   9.442   6.783  1.5797  3.8800 -1.7436
  673MOL0     O90721   3.051   7.242   6.291  0.1835  0.5629 -0.7382
  673MOL0     C90722   3.091   7.250   6.174  0.7594 -0.5407 -0.8026
  673MOL0     O90723   3.191   7.342   6.127  0.1354  0.4335  0.3261
  673MOL0     C90724   3.248   7.428   6.217  1.1928  0.3564 -0.5298
  673MOL0     C90725   3.216   7.558   6.213  0.2885  0.4018  0.4166
  673MOL0     C90726   3.289   7.646   6.292 -0.8535  0.8359 -0.7476
  673MOL0     C90727   3.391   7.599   6.372 -0.3523 -0.5588 -0.1940
  673MOL0     O90728   3.467   7.683   6.451 -0.8219  0.0455 -0.9064
  673MOL0     C90729   3.607   7.694   6.444  0.8395 -0.2701  0.3863
  673MOL0     C90730   3.630   7.788   6.319 -0.1506  0.0233 -0.1191
  673MOL0     C90731   3.646   7.712   6.187 -0.1532  1.1193  0.6321
  673MOL0     C90732   3.629   7.817   6.073 -0.3373 -0.3902 -0.7832
  673MOL0     C90733   3.748   7.922   6.064 -0.3293 -0.8640  0.5586
  673MOL0     C90734   3.748   8.016   5.941 -0.3553 -0.4023 -0.4481
  673MOL0     C90735   3.887   8.065   5.905 -0.1791 -0.0492 -0.0765
  673MOL0     C90736   3.897   8.164   5.783  1.0741  0.1656  0.5512
  673MOL0     N90737   4.036   8.209   5.785  0.5008  0.2257  0.5409
  673MOL0     C90738   4.074   8.332   5.819 -0.1976  0.3357 -0.0947
  673MOL0     C90739   4.207   8.321   5.839 -0.2988 -0.5779  0.1562
  673MOL0     C90740   4.281   8.435   5.920 -0.2271  0.3594 -0.2064
  673MOL0     C90741   4.234   8.429   6.067  0.4915  0.5320  0.1781
  673MOL0     C90742   4.254   8.562   6.127  0.7374  0.0090 -0.2140
  673MOL0     C90743   4.401   8.614   6.124  0.4989 -0.9157 -0.1289
  673MOL0     O90744   4.406   8.749   6.175  0.1712 -0.3323  0.9720
  673MOL0     C90745   4.389   8.774   6.309  0.3817  0.2800 -1.1817
  673MOL0     C90746   4.397   8.909   6.345 -0.1484  0.1052  0.6137
  673MOL0     C90747   4.378   8.950   6.473  1.1831 -0.3212 -0.0811
  673MOL0     C90748   4.362   9.098   6.487  0.3509 -0.1539 -0.2029
  673MOL0     C90749   4.359   8.862   6.583 -0.3472  0.1098 -0.8098
  673MOL0     C90750   4.337   8.913   6.720  0.2455 -0.6792 -0.4096
  673MOL0     O90751   4.288   8.813   6.796 -0.2164  0.2313 -0.3359
  673MOL0     C90752   4.349   8.793   6.925 -0.3479  0.2880  0.1296
  673MOL0     C90753   4.476   8.847   6.967 -0.1305  0.6429  0.5190
  673MOL0     C90754   4.521   8.820   7.098  0.1146 -0.9533  0.3886
  673MOL0     C90755   4.437   8.751   7.186 -0.1863 -0.0427 -0.2662
  673MOL0     O90756   4.460   8.732   7.323  0.8803 -0.6396 -0.2337
  673MOL0     C90757   4.577   8.793   7.380 -1.4640  0.5871  0.4755
  673MOL0     C90758   4.711   8.726   7.338  0.2095 -1.0098 -0.2443
  673MOL0     C90759   4.825   8.792   7.408 -0.6384  0.0288 -0.5112
  673MOL0     C90760   4.844   8.750   7.559 -0.0640  0.0347 -0.6690
  673MOL0     C90761   4.948   8.829   7.635 -0.2056 -0.5372 -0.1032
  673MOL0     C90762   5.089   8.789   7.593 -0.3118  0.2198 -0.6952
  673MOL0     C90763   5.193   8.875   7.668 -0.8032 -0.4627  0.1036
  673MOL0     C90764   5.344   8.827   7.639  0.2377  0.3423  0.3220
  673MOL0    Cl90765   5.445   8.893   7.779 -0.0742  0.1188  0.1193
  673MOL0     C90766   4.317   8.703   7.143  0.3200 -0.4256 -0.2866
  673MOL0     C90767   4.272   8.715   7.012 -0.3773 -0.8208  1.0155
  673MOL0     O90768   4.364   9.021   6.762 -0.4307  0.0256 -0.4338
  673MOL0     C90769   4.361   8.720   6.548 -0.1682  0.5190 -0.0816
  673MOL0     C90770   4.366   8.681   6.417 -0.1465 -0.0299  1.0304
  673MOL0     N90771   4.248   8.193   5.813  0.5821  1.0533 -0.2476
  673MOL0     N90772   4.142   8.121   5.783 -0.4797 -0.6326  0.0680
  673MOL0     C90773   3.411   7.467   6.389 -0.3474 -0.0472 -0.9162
  673MOL0     C90774   3.338   7.384   6.307  0.4288  0.3915  0.0570
  673MOL0     C90775   3.041   7.157   6.071 -0.6493  0.0188 -0.0684
  673MOL0     C90776   2.910   7.106   6.084 -0.8295 -1.2446 -0.1836
  673MOL0     C90777   2.852   7.032   5.981 -0.3694 -0.5532 -0.3169
  673MOL0     C90778   2.924   6.991   5.871  0.3407 -0.0760  0.2143
  673MOL0     O90779   2.869   6.895   5.780 -0.4464 -0.4312 -0.0492
  673MOL0     C90780   2.950   6.818   5.689  0.5765  0.0588 -0.1950
  673MOL0     C90781   2.856   6.710   5.644  0.5237  0.4396  0.1364
  673MOL0     C90782   2.937   6.596   5.570  0.2593  1.1047 -0.3060
  673MOL0     C90783   2.841   6.490   5.529 -0.6451 -0.8305 -0.4739
  673MOL0     C90784   2.919   6.386   5.463 -0.0893  0.2363 -0.4402
  673MOL0     C90785   2.992   6.309   5.392 -0.9396 -0.5441 -0.5898
  673MOL0     C90786   3.052   7.045   5.865 -0.9117  0.4815 -0.0779
  673MOL0     C90787   3.110   7.126   5.951  0.2405 -0.6510 -0.5329
  673MOL0     H90788   3.150   7.592   6.134 -1.4635 -0.2723  1.5205
  673MOL0     H90789   3.280   7.754   6.290  4.3031  1.5242 -3.0296
  673MOL0     H90790   3.646   7.738   6.536 -0.6617 -2.2605  2.0807
  673MOL0     H90791   3.662   7.601   6.426 -0.7916 -1.1208 -0.4214
  673MOL0     H90792   3.558   7.869   6.304  1.1899  1.0190 -1.4314
  673MOL0     H90793   3.715   7.854   6.339 -1.1420  1.9438 -1.8833
  673MOL0     H90794   3.732   7.644   6.176 -1.1154 -0.8082  3.7877
  673MOL0     H90795   3.561   7.644   6.179 -0.5067  1.6951 -0.8502
  673MOL0     H90796   3.623   7.781   5.970 -1.4337  3.1523 -2.1321
  673MOL0     H90797   3.533   7.870   6.074  1.3128  2.8330  0.4817
  673MOL0     H90798   3.755   7.984   6.155 -1.7415  0.2133 -0.0250
  673MOL0     H90799   3.838   7.860   6.061  1.9998  2.3225 -2.0586
  673MOL0     H90800   3.711   7.961   5.854  0.1172 -0.2119 -0.7682
  673MOL0     H90801   3.679   8.097   5.968 -4.1851 -3.0690 -1.3551
  673MOL0     H90802   3.934   8.119   5.988 -2.8032  1.1315  0.7745
  673MOL0     H90803   3.942   7.975   5.878  0.5252 -0.2957  1.9975
  673MOL0     H90804   3.835   8.253   5.798  3.4910  1.4236  4.9573
  673MOL0     H90805   3.868   8.114   5.691  0.6314 -1.3418  1.4832
  673MOL0     H90806   4.013   8.422   5.821  0.2448  0.6209  0.8755
  673MOL0     H90807   4.385   8.404   5.902 -0.1897  0.7021 -0.6143
  673MOL0     H90808   4.262   8.535   5.879  1.0201  1.1735  1.1063
  673MOL0     H90809   4.293   8.355   6.122  1.6421  1.0726 -0.2913
  673MOL0     H90810   4.129   8.401   6.073 -0.1782  2.6172 -0.8161
  673MOL0     H90811   4.218   8.552   6.230 -1.8740 -3.1586 -1.2593
  673MOL0     H90812   4.186   8.635   6.084  0.4739  0.5197  1.0230
  673MOL0     H90813   4.452   8.611   6.027  1.1933 -0.1233  0.1938
  673MOL0     H90814   4.461   8.548   6.187  0.6497 -1.8016 -1.1591
  673MOL0     H90815   4.413   8.983   6.267  2.2683 -1.6486 -0.6976
  673MOL0     H90816   4.286   9.120   6.562  0.8910  3.1836 -0.4722
  673MOL0     H90817   4.458   9.147   6.510 -0.2693  0.3748  1.4261
  673MOL0     H90818   4.335   9.130   6.387  1.8984  0.5880 -0.4165
  673MOL0     H90819   4.542   8.903   6.902 -0.1627  0.6107  0.4578
  673MOL0     H90820   4.617   8.865   7.115 -0.1490 -0.4103  0.4489
  673MOL0     H90821   4.581   8.898   7.352  0.9344  0.6713  0.8520
  673MOL0     H90822   4.580   8.783   7.489  2.6358 -0.2321  0.4495
  673MOL0     H90823   4.721   8.620   7.362  0.9331 -1.8198 -3.6706
  673MOL0     H90824   4.729   8.738   7.231  2.3470  1.1458  0.2613
  673MOL0     H90825   4.816   8.900   7.392 -2.0317  0.6276  3.2784
  673MOL0     H90826   4.916   8.759   7.356 -0.2164  1.7280 -0.9175
  673MOL0     H90827   4.749   8.773   7.608 -0.6076 -2.2812 -0.5006
  673MOL0     H90828   4.860   8.642   7.570 -0.5839 -0.3567 -3.0336
  673MOL0     H90829   4.933   8.818   7.742  0.8267 -1.7654 -0.0570
  673MOL0     H90830   4.939   8.936   7.619  0.6222 -0.2362  1.2728
  673MOL0     H90831   5.101   8.686   7.629  2.4067  0.4113 -0.7951
  673MOL0     H90832   5.103   8.803   7.486 -1.8007  0.1620 -0.9157
  673MOL0     H90833   5.184   8.865   7.776  0.7546  0.6133  0.3717
  673MOL0     H90834   5.188   8.983   7.649  2.3106  0.0984  1.7671
  673MOL0     H90835   5.379   8.866   7.543  1.8040 -0.9650  0.3257
  673MOL0     H90836   5.350   8.718   7.640  0.1646  0.3404  0.6256
  673MOL0     H90837   4.248   8.662   7.216  0.7806  2.8102  2.1855
  673MOL0     H90838   4.177   8.671   6.984 -1.1920  0.6936  1.2868
  673MOL0     H90839   4.359   8.639   6.620  0.7964 -0.3467 -0.9900
  673MOL0     H90840   4.368   8.574   6.401  0.1936 -0.1180  1.6465
  673MOL0     H90841   3.484   7.434   6.461  0.0559  0.5115 -1.0584
  673MOL0     H90842   3.354   7.278   6.323  3.7804  0.8651  0.3860
  673MOL0     H90843   2.851   7.122   6.173 -1.6365 -0.2029 -0.8732
  673MOL0     H90844   2.756   6.982   5.990 -0.7388  0.1743 -0.0851
  673MOL0     H90845   3.001   6.872   5.609 -1.3142  2.2685  0.0034
  673MOL0     H90846   3.023   6.772   5.758  0.1586 -1.0410 -0.4757
  673MOL0     H90847   2.776   6.733   5.573 -0.6747 -2.1208  0.5322
  673MOL0     H90848   2.813   6.664   5.733  3.5238  1.3296  2.2057
  673MOL0     H90849   3.009   6.556   5.642 -2.2316 -4.9723 -0.6236
  673MOL0     H90850   2.983   6.627   5.476 -0.6735 -3.8219 -2.7273
  673MOL0     H90851   2.771   6.537   5.459  0.2433  0.8551 -0.2732
  673MOL0     H90852   2.779   6.465   5.616  2.1582  2.4683  2.7663
  673MOL0     H90853   3.062   6.257   5.331 -0.0756 -0.0925  0.0051
  673MOL0     H90854   3.106   7.014   5.775 -1.1805 -4.2345  1.1470
  673MOL0     H90855   3.207   7.169   5.927  0.4581  0.4401  1.9685
  674MOL0     O90856   8.226   4.841  10.340 -0.3499  0.2159  0.3043
  674MOL0     C90857   8.155   4.868  10.248 -1.0250 -1.1810  1.2137
  674MOL0     O90858   8.049   4.961  10.256  0.3928 -0.7813 -0.0968
  674MOL0     C90859   8.058   5.069  10.353 -0.2990 -0.0475 -0.3174
  674MOL0     C90860   7.952   5.164  10.354 -0.6870  0.6189  0.7222
  674MOL0     C90861   7.942   5.273  10.440 -0.4850 -0.6186 -0.4859
  674MOL0     C90862   8.044   5.300  10.528  0.8636 -0.1062  0.5337
  674MOL0     O90863   8.014   5.401  10.610 -0.2877 -0.0499 -0.3569
  674MOL0     C90864   8.015   5.536  10.562 -0.6393  0.1694 -1.1677
  674MOL0     C90865   7.874   5.595  10.581 -0.2826 -1.1887 -0.1113
  674MOL0     C90866   7.790   5.554  10.707 -0.8260 -1.0183 -0.0785
  674MOL0     C90867   7.879   5.577  10.834 -0.8629 -0.4221  0.3912
  674MOL0     C90868   7.820   5.530  10.966  0.4053 -0.5692 -0.0853
  674MOL0     C90869   7.677   5.588  10.997 -0.1398  0.1304  0.1309
  674MOL0     C90870   7.644   5.553  11.143 -0.3528  0.6968  0.1942
  674MOL0     C90871   7.546   5.650  11.206 -0.2889  0.4493  0.4936
  674MOL0     N90872   7.412   5.656  11.155 -0.1827 -0.3937  0.0397
  674MOL0     C90873   7.306   5.595  11.213 -0.8953 -0.7351 -0.1969
  674MOL0     C90874   7.196   5.642  11.138 -0.2532  0.3399 -0.2949
  674MOL0     C90875   7.055   5.597  11.154 -0.6950  1.0076  0.4926
  674MOL0     C90876   7.052   5.459  11.086 -0.4185  0.4757 -1.0892
  674MOL0     C90877   6.904   5.400  11.098  0.2534 -0.9919  0.5911
  674MOL0     C90878   6.902   5.251  11.106 -0.9482  0.4336 -0.0650
  674MOL0     O90879   6.933   5.191  10.973 -0.3522 -0.4908  0.3804
  674MOL0     C90880   6.865   5.079  10.936 -0.6424  0.6643 -0.2408
  674MOL0     C90881   6.891   4.957  11.000  0.1660 -0.0599  0.7272
  674MOL0     C90882   6.817   4.843  10.983 -0.2256 -0.4821 -0.0136
  674MOL0     C90883   6.889   4.713  11.009 -0.7532 -1.1486 -0.1505
  674MOL0     C90884   6.693   4.861  10.914  0.2056 -0.2062 -0.7827
  674MOL0     C90885   6.592   4.743  10.913 -0.5408  0.1385 -0.0899
  674MOL0     O90886   6.604   4.636  11.000 -0.4337 -0.0540  0.0425
  674MOL0     C90887   6.512   4.538  11.001 -0.2658  0.1167 -0.6951
  674MOL0     C90888   6.443   4.515  11.123  0.2172 -0.0701 -0.1519
  674MOL0     C90889   6.353   4.407  11.133  0.1560  0.9848  0.1799
  674MOL0     C90890   6.354   4.308  11.024 -0.3588  0.0191 -0.1559
  674MOL0     O90891   6.293   4.186  11.017 -0.1577  0.1867  0.0599
  674MOL0     C90892   6.285   4.117  11.143 -0.7438 -0.0786 -0.4474
  674MOL0     C90893   6.392   4.005  11.147  0.4569 -1.1078  0.3770
  674MOL0     C90894   6.360   3.867  11.083  0.4040 -0.7207  0.6599
  674MOL0     C90895   6.460   3.850  10.963  1.2887  0.0788 -0.6499
  674MOL0     C90896   6.463   3.949  10.858 -0.3451 -0.0914  0.1094
  674MOL0     C90897   6.538   3.909  10.724  0.4252 -0.5928 -0.1576
  674MOL0     C90898   6.603   4.031  10.659 -0.0709  0.5600  0.6446
  674MOL0     C90899   6.739   4.071  10.724 -1.0069 -0.5683  0.1110
  674MOL0    Cl90900   6.864   3.957  10.684 -0.4347  0.1666 -0.2201
  674MOL0     C90901   6.450   4.324  10.926 -0.6447  0.3236 -0.3459
  674MOL0     C90902   6.516   4.435  10.904 -0.7208  0.0397  0.3058
  674MOL0     O90903   6.505   4.745  10.832 -0.0654  0.2214  1.0589
  674MOL0     C90904   6.660   4.982  10.860  0.6133  0.0899  0.2126
  674MOL0     C90905   6.744   5.090  10.866 -0.8448  0.0956  0.3873
  674MOL0     N90906   7.243   5.722  11.039 -0.2874 -0.2260 -1.0735
  674MOL0     N90907   7.364   5.736  11.054 -0.1047 -0.4222  0.7083
  674MOL0     C90908   8.154   5.216  10.545 -0.0166  0.0820 -0.4981
  674MOL0     C90909   8.154   5.106  10.452  1.0063 -0.8354  0.1966
  674MOL0     C90910   8.179   4.803  10.118  1.0433 -0.3679 -0.4651
  674MOL0     C90911   8.078   4.813  10.013  0.2375  0.5522 -0.1842
  674MOL0     C90912   8.100   4.744   9.883 -0.8826  0.3830 -0.9454
  674MOL0     C90913   8.212   4.668   9.850 -0.6938 -0.8347 -0.4619
  674MOL0     O90914   8.232   4.578   9.746 -0.1816  0.3904 -0.7361
  674MOL0     C90915   8.133   4.560   9.646 -0.1423  0.1123  0.1534
  674MOL0     C90916   8.070   4.421   9.663 -0.6315  0.5079  0.7878
  674MOL0     C90917   8.186   4.321   9.632  0.4305 -0.8937 -0.4237
  674MOL0     C90918   8.119   4.187   9.622 -0.4051  1.0371  0.3499
  674MOL0     C90919   8.217   4.077   9.597  0.1488 -1.5656  0.2237
  674MOL0     C90920   8.301   3.996   9.568 -0.8425  0.9068  0.0479
  674MOL0     C90921   8.312   4.666   9.952  1.1616  0.0168  0.8096
  674MOL0     C90922   8.301   4.737  10.078 -0.2934  0.1214  0.0586
  674MOL0     H90923   7.876   5.141  10.281 -4.3935 -0.6684  4.6027
  674MOL0     H90924   7.865   5.349  10.434  1.0402  1.0701  0.3318
  674MOL0     H90925   8.081   5.599  10.622 -0.0990  0.9149 -2.5179
  674MOL0     H90926   8.044   5.542  10.457 -0.3738  3.0074 -1.0127
  674MOL0     H90927   7.892   5.702  10.576  2.4165 -1.3390  3.1195
  674MOL0     H90928   7.816   5.547  10.501 -1.2286 -1.1193  0.5203
  674MOL0     H90929   7.694   5.605  10.720 -0.8077 -1.2124  0.8922
  674MOL0     H90930   7.761   5.449  10.711 -2.6510 -0.5810 -0.6005
  674MOL0     H90931   7.972   5.521  10.828 -1.5981 -1.5802 -0.7068
  674MOL0     H90932   7.894   5.685  10.844  1.9590 -0.3936 -2.7630
  674MOL0     H90933   7.799   5.423  10.955 -0.2710 -0.5756  1.1612
  674MOL0     H90934   7.884   5.547  11.053  0.1108 -0.3813  0.0959
  674MOL0     H90935   7.673   5.697  10.991 -0.4865  0.0808 -0.5698
  674MOL0     H90936   7.600   5.559  10.926 -0.0220 -0.1183  0.1031
  674MOL0     H90937   7.614   5.448  11.149  1.9976 -0.0870 -0.5236
  674MOL0     H90938   7.734   5.565  11.205 -0.7161  1.8725  0.5119
  674MOL0     H90939   7.599   5.745  11.202 -0.9679  0.8813  1.3170
  674MOL0     H90940   7.536   5.623  11.312  1.4270 -2.1732  0.0745
  674MOL0     H90941   7.300   5.533  11.302 -0.9165 -0.7508 -0.2092
  674MOL0     H90942   7.035   5.590  11.262  0.0944 -4.5673  0.5815
  674MOL0     H90943   6.975   5.650  11.102 -0.3829 -0.2115 -1.3276
  674MOL0     H90944   7.122   5.391  11.135 -2.0376 -1.2346 -1.0421
  674MOL0     H90945   7.086   5.472  10.983  5.2558  0.2275  0.4630
  674MOL0     H90946   6.839   5.448  11.024  1.4297  3.3686  2.0668
  674MOL0     H90947   6.869   5.439  11.194 -0.5289  2.1352 -0.8322
  674MOL0     H90948   6.802   5.225  11.141 -2.3871  0.2532 -3.9185
  674MOL0     H90949   6.978   5.214  11.177 -0.5625  2.4870  0.6532
  674MOL0     H90950   6.968   4.959  11.077  0.4279  0.2803  0.4547
  674MOL0     H90951   6.882   4.644  10.924  1.4451 -2.4231  0.6122
  674MOL0     H90952   6.995   4.734  11.028 -0.8146 -1.9170  1.1207
  674MOL0     H90953   6.839   4.669  11.095  0.3038 -0.3318  0.9138
  674MOL0     H90954   6.437   4.597  11.193  0.1367 -0.3935  0.2213
  674MOL0     H90955   6.294   4.380  11.220  0.3710 -0.7804 -0.1728
  674MOL0     H90956   6.306   4.176  11.232 -2.2052  0.5787 -0.5085
  674MOL0     H90957   6.192   4.063  11.157 -0.5960  0.3788  2.9627
  674MOL0     H90958   6.487   4.048  11.113  0.6312 -2.3876 -0.8300
  674MOL0     H90959   6.419   3.986  11.252 -2.6703  0.7780  1.6589
  674MOL0     H90960   6.258   3.866  11.042 -0.4869  0.0081  2.7040
  674MOL0     H90961   6.366   3.781  11.150 -2.5244  0.0159  2.0295
  674MOL0     H90962   6.556   3.837  11.015 -0.7247 -3.4194  2.7134
  674MOL0     H90963   6.436   3.762  10.903  1.0620  2.1844 -3.8954
  674MOL0     H90964   6.506   4.036  10.909  2.4312 -1.6397  0.6844
  674MOL0     H90965   6.364   3.983  10.828 -1.3980 -0.5853  2.7137
  674MOL0     H90966   6.609   3.828  10.744 -0.5980 -1.5021 -0.1254
  674MOL0     H90967   6.462   3.872  10.654 -1.3604 -0.0951  1.4654
  674MOL0     H90968   6.534   4.116  10.662  0.1419  0.7197  1.0306
  674MOL0     H90969   6.627   4.017  10.553  3.9006  1.1151  1.2970
  674MOL0     H90970   6.743   4.079  10.833  1.5017 -3.0829  0.3285
  674MOL0     H90971   6.762   4.170  10.685 -4.0649  0.7084  1.2132
  674MOL0     H90972   6.469   4.249  10.850  2.2764 -0.0208  0.6011
  674MOL0     H90973   6.586   4.451  10.822 -0.2318  0.3034  0.7644
  674MOL0     H90974   6.577   4.986  10.790  1.6779 -0.5408 -1.1313
  674MOL0     H90975   6.727   5.183  10.813 -0.7112  0.1550  0.4465
  674MOL0     H90976   8.234   5.223  10.617 -2.1574 -1.2158  2.2180
  674MOL0     H90977   8.244   5.048  10.467  0.4645 -1.2408  2.1165
  674MOL0     H90978   7.991   4.874  10.037 -0.2035 -0.9678  2.4788
  674MOL0     H90979   8.024   4.743   9.806  0.2438  2.1924 -2.1591
  674MOL0     H90980   8.048   4.628   9.644  0.4113  0.8759 -3.8131
  674MOL0     H90981   8.176   4.573   9.547 -3.0844 -3.0355 -1.7963
  674MOL0     H90982   7.988   4.410   9.591  0.8760 -1.8486 -0.6974
  674MOL0     H90983   8.028   4.397   9.762 -3.6863 -1.7458 -0.8846
  674MOL0     H90984   8.258   4.327   9.713  2.2309 -0.2858 -1.9949
  674MOL0     H90985   8.240   4.345   9.540  0.8774  0.3717  0.1472
  674MOL0     H90986   8.051   4.198   9.537  0.0133  1.4687  0.0613
  674MOL0     H90987   8.078   4.168   9.722  4.0259  0.8024  2.3409
  674MOL0     H90988   8.382   3.927   9.557 -0.6127  0.9556  1.2284
  674MOL0     H90989   8.392   4.597   9.928  2.2575  1.0637  1.3424
  674MOL0     H90990   8.384   4.720  10.147 -1.3454 -3.4049  0.6499
  675MOL0     O90991   9.093  11.395   2.965  0.3008 -0.6258 -0.6231
  675MOL0     C90992   9.184  11.468   2.917  0.5421 -0.5352  0.9059
  675MOL0     O90993   9.204  11.484   2.776 -0.1164 -0.7997 -0.7344
  675MOL0     C90994   9.121  11.407   2.701  1.6137  0.2906  1.0598
  675MOL0     C90995   8.999  11.456   2.640  0.9771 -0.2232 -0.0662
  675MOL0     C90996   8.912  11.367   2.578 -0.7359  0.2620  1.0087
  675MOL0     C90997   8.942  11.228   2.560  0.0380 -1.3698  0.0356
  675MOL0     O90998   8.863  11.139   2.497  0.2849 -0.2931  0.8388
  675MOL0     C90999   8.909  11.095   2.363 -0.4910 -0.1801 -1.1186
  675MOL0     C91000   8.914  11.207   2.263  0.4237 -0.3818 -0.0201
  675MOL0     C91001   8.786  11.294   2.244  0.2417  0.0637 -0.1532
  675MOL0     C91002   8.695  11.202   2.171  0.9927  1.0479 -0.0429
  675MOL0     C91003   8.560  11.268   2.135  0.4072  0.1326  0.1242
  675MOL0     C91004   8.469  11.295   2.245 -0.8099 -0.5347  0.1430
  675MOL0     C91005   8.392  11.168   2.291  0.7905 -0.2733  0.6090
  675MOL0     C91006   8.279  11.217   2.378  0.5175 -0.8554 -0.7239
  675MOL0     N91007   8.164  11.248   2.303 -0.2401 -0.1715  0.5813
  675MOL0     C91008   8.125  11.366   2.243 -0.7866  0.5112 -0.7693
  675MOL0     C91009   8.023  11.333   2.166  0.9565 -0.0835 -0.4622
  675MOL0     C91010   7.961  11.438   2.082 -0.2193  0.4566  1.2302
  675MOL0     C91011   8.058  11.472   1.967  0.7821 -0.6000 -0.3888
  675MOL0     C91012   8.088  11.365   1.862 -0.0101  0.6895  0.0754
  675MOL0     C91013   7.968  11.324   1.785  0.1948 -0.1470 -0.7677
  675MOL0     O91014   7.983  11.200   1.719  0.2747  0.5000  0.0666
  675MOL0     C91015   7.909  11.090   1.750 -0.6556 -0.0576 -0.3465
  675MOL0     C91016   7.850  11.060   1.873  0.4615  0.3995 -0.6316
  675MOL0     C91017   7.786  10.941   1.894 -0.8016  0.4112 -0.8689
  675MOL0     C91018   7.713  10.915   2.022 -0.9712 -1.1482 -0.8878
  675MOL0     C91019   7.787  10.841   1.791 -0.4156 -0.5722 -0.2131
  675MOL0     C91020   7.729  10.704   1.815 -0.9062 -0.7593  0.3915
  675MOL0     O91021   7.739  10.657   1.934 -0.0519  0.1026 -0.1688
  675MOL0     C91022   7.678  10.531   1.957 -0.1659 -0.7534  0.5429
  675MOL0     C91023   7.539  10.520   1.946  0.2817 -0.5403  0.3176
  675MOL0     C91024   7.478  10.407   1.994  0.0894  0.2818  0.4100
  675MOL0     C91025   7.553  10.293   2.037  0.9015 -0.6284 -0.5814
  675MOL0     O91026   7.511  10.173   2.070  0.3843 -0.0029 -0.7976
  675MOL0     C91027   7.399  10.176   2.157 -0.1678 -0.5908  0.4760
  675MOL0     C91028   7.352  10.034   2.187 -1.0466  1.1834  0.3096
  675MOL0     C91029   7.445   9.956   2.284 -0.1107 -0.3624  0.5869
  675MOL0     C91030   7.571   9.897   2.213  0.7016 -0.0634 -0.2396
  675MOL0     C91031   7.666   9.822   2.313  1.6713  0.0390  0.9060
  675MOL0     C91032   7.743   9.913   2.419 -0.1745  0.8007 -0.0513
  675MOL0     C91033   7.867   9.977   2.363  0.1896 -1.1957  1.2914
  675MOL0     C91034   7.972   9.874   2.329  0.0329  0.0823 -0.6665
  675MOL0    Cl91035   8.109   9.958   2.271 -0.0707  0.2395  0.2601
  675MOL0     C91036   7.685  10.310   2.042 -0.0783  0.9060 -0.2817
  675MOL0     C91037   7.754  10.431   2.008  0.8009  0.5247 -0.9029
  675MOL0     O91038   7.672  10.648   1.723  1.1767  0.6922 -0.6746
  675MOL0     C91039   7.834  10.885   1.666  0.5824 -0.1471  0.3800
  675MOL0     C91040   7.885  11.005   1.647  0.2147  0.7531  0.7656
  675MOL0     N91041   7.990  11.197   2.166  0.3686  0.6618 -0.5492
  675MOL0     N91042   8.068  11.149   2.254  0.0561 -0.9088  1.0704
  675MOL0     C91043   9.065  11.186   2.612  0.0805  0.7200  0.0388
  675MOL0     C91044   9.150  11.272   2.681 -0.4783 -0.9821 -0.6744
  675MOL0     C91045   9.278  11.534   3.016  0.5273 -0.8282 -0.8153
  675MOL0     C91046   9.245  11.551   3.151  0.2751  0.3788  0.0010
  675MOL0     C91047   9.322  11.615   3.251 -0.5387 -0.1390  0.2127
  675MOL0     C91048   9.435  11.678   3.213  0.1615 -0.0857  0.2517
  675MOL0     O91049   9.500  11.746   3.313 -0.2956 -0.3567  0.0636
  675MOL0     C91050   9.635  11.782   3.291 -0.4977 -0.3947 -0.0575
  675MOL0     C91051   9.704  11.836   3.419 -0.4489  0.3999  0.5903
  675MOL0     C91052   9.843  11.885   3.388 -0.1921  0.4619 -0.2743
  675MOL0     C91053   9.922  11.951   3.510  0.0838 -0.5393  0.0716
  675MOL0     C91054   9.864  12.075   3.568 -0.9407 -0.4191 -0.3519
  675MOL0     C91055   9.814  12.177   3.611  0.4342 -0.7127  0.1197
  675MOL0     C91056   9.476  11.664   3.076 -0.5478 -0.7046 -0.3578
  675MOL0     C91057   9.391  11.599   2.980 -0.8505 -0.6602  0.9685
  675MOL0     H91058   8.990  11.563   2.656 -1.4109 -0.1457 -1.4711
  675MOL0     H91059   8.820  11.403   2.532  0.8802  1.9915 -1.1197
  675MOL0     H91060   9.009  11.053   2.370  0.2508  1.1435 -3.0691
  675MOL0     H91061   8.852  11.011   2.320  1.6450 -1.8294 -0.9062
  675MOL0     H91062   8.997  11.268   2.302  0.2742 -1.2038  1.6488
  675MOL0     H91063   8.959  11.175   2.169  0.7904  2.1854 -0.7979
  675MOL0     H91064   8.740  11.332   2.336  0.0561  1.6338 -0.8612
  675MOL0     H91065   8.826  11.378   2.186  1.4927 -1.0483 -0.9260
  675MOL0     H91066   8.742  11.181   2.075 -0.6589  2.7658 -1.2990
  675MOL0     H91067   8.680  11.109   2.228 -1.4062  1.6586  0.4193
  675MOL0     H91068   8.575  11.367   2.091 -0.2221 -0.5015 -1.6220
  675MOL0     H91069   8.530  11.198   2.056  4.0495 -1.5494  0.0131
  675MOL0     H91070   8.526  11.349   2.322 -1.3081  0.9375 -0.5008
  675MOL0     H91071   8.396  11.363   2.200  0.7248  0.8849 -0.2911
  675MOL0     H91072   8.361  11.116   2.200 -1.4676  0.7286  0.7434
  675MOL0     H91073   8.458  11.102   2.348  0.4035 -0.9339  0.2992
  675MOL0     H91074   8.312  11.306   2.432 -1.3173 -0.9748  0.6876
  675MOL0     H91075   8.250  11.146   2.456 -0.4912 -0.2622 -0.5322
  675MOL0     H91076   8.165  11.467   2.250 -2.6818  1.1854  1.7286
  675MOL0     H91077   7.862  11.412   2.043  0.7464 -2.0308  0.2170
  675MOL0     H91078   7.947  11.534   2.133  0.7361  1.5211 -0.4434
  675MOL0     H91079   8.159  11.490   2.003  0.2891 -0.2193  0.8492
  675MOL0     H91080   8.012  11.558   1.917 -2.1568 -1.1461  1.1535
  675MOL0     H91081   8.131  11.272   1.900 -1.6061 -1.1786 -2.3305
  675MOL0     H91082   8.165  11.405   1.796  1.2375 -2.3399 -0.4610
  675MOL0     H91083   7.942  11.401   1.711 -1.2681 -0.7759 -0.9413
  675MOL0     H91084   7.876  11.316   1.843 -2.0890 -2.1989 -4.3205
  675MOL0     H91085   7.846  11.137   1.950 -3.5638 -1.6082  1.4605
  675MOL0     H91086   7.671  11.012   2.047  0.5625 -0.3990 -1.1125
  675MOL0     H91087   7.627  10.848   2.022 -1.0007 -1.3069  2.6478
  675MOL0     H91088   7.771  10.876   2.106 -0.4548 -0.2181 -0.8051
  675MOL0     H91089   7.472  10.599   1.910 -0.6332 -1.9106 -1.1458
  675MOL0     H91090   7.370  10.401   1.994  0.0683  0.0554 -1.2378
  675MOL0     H91091   7.425  10.234   2.246  0.1708 -1.3182  0.8606
  675MOL0     H91092   7.314  10.227   2.111 -0.3086  0.5693  1.9519
  675MOL0     H91093   7.256  10.029   2.240 -0.9170 -3.6613  0.5519
  675MOL0     H91094   7.346   9.973   2.097 -1.9086  0.2597  0.9572
  675MOL0     H91095   7.394   9.863   2.311 -4.3918  0.7368 -2.6465
  675MOL0     H91096   7.477  10.021   2.366  1.5335  1.0649 -1.0981
  675MOL0     H91097   7.520   9.837   2.136  0.7131 -0.4699  0.0679
  675MOL0     H91098   7.631   9.972   2.160 -1.0544  2.0567  0.6258
  675MOL0     H91099   7.731   9.764   2.247 -0.7715  0.3357 -1.9420
  675MOL0     H91100   7.598   9.758   2.370  0.3321 -1.4692 -2.1429
  675MOL0     H91101   7.676   9.992   2.455  0.1775  2.4498 -2.7414
  675MOL0     H91102   7.773   9.853   2.506 -1.8049 -1.3065 -0.8503
  675MOL0     H91103   7.919  10.037   2.438 -0.8242 -0.0635  1.1196
  675MOL0     H91104   7.845  10.046   2.281  0.6179 -1.1967  1.1730
  675MOL0     H91105   7.955   9.806   2.245  1.2246  0.2119 -1.0261
  675MOL0     H91106   7.993   9.801   2.407 -2.1982  0.1414  0.0779
  675MOL0     H91107   7.752  10.230   2.073  0.6728  1.7642  0.3748
  675MOL0     H91108   7.859  10.440   2.035  0.6040  0.4925 -0.1023
  675MOL0     H91109   7.827  10.814   1.584 -3.3697  0.2266  0.2249
  675MOL0     H91110   7.933  11.033   1.554  2.0213  0.0371  1.4255
  675MOL0     H91111   9.075  11.079   2.606 -0.0573  0.6145  1.3139
  675MOL0     H91112   9.241  11.227   2.720 -1.9357 -3.7500 -0.2731
  675MOL0     H91113   9.157  11.508   3.198  0.8527 -0.3384  0.4300
  675MOL0     H91114   9.302  11.625   3.357 -0.7930 -1.3187  0.2854
  675MOL0     H91115   9.684  11.695   3.247 -3.7171 -1.7267 -1.3198
  675MOL0     H91116   9.645  11.859   3.214  0.1541 -1.3039 -0.9031
  675MOL0     H91117   9.699  11.761   3.499 -0.0527  1.8078  1.9935
  675MOL0     H91118   9.656  11.928   3.453 -2.7639 -0.4077 -0.3370
  675MOL0     H91119   9.841  11.946   3.297  1.1237  0.1878 -0.5158
  675MOL0     H91120   9.907  11.803   3.354  1.6050  1.9349 -0.5936
  675MOL0     H91121  10.029  11.964   3.492 -0.5803  0.6424 -3.8553
  675MOL0     H91122   9.908  11.881   3.593 -1.9984 -1.4085 -0.9208
  675MOL0     H91123   9.793  12.276   3.644 -0.9821 -0.0009 -2.6352
  675MOL0     H91124   9.571  11.695   3.034 -1.8638 -0.0349 -3.0819
  675MOL0     H91125   9.422  11.583   2.878  0.6452  1.7517  0.9572
  676MOL0     O91126   6.674   5.866   6.064  0.0906  0.2190  0.9524
  676MOL0     C91127   6.721   5.958   5.999  0.6784  0.0246  0.3625
  676MOL0     O91128   6.758   5.946   5.864  0.3465 -0.4981  0.0104
  676MOL0     C91129   6.738   5.826   5.796  0.1472  0.1960  0.2638
  676MOL0     C91130   6.636   5.818   5.697  0.4871  0.0499  0.1526
  676MOL0     C91131   6.600   5.695   5.632 -0.4545 -1.6901 -0.0881
  676MOL0     C91132   6.676   5.581   5.659  0.1140 -0.1606 -0.2364
  676MOL0     O91133   6.647   5.473   5.577  0.5150 -0.0367  0.7662
  676MOL0     C91134   6.708   5.353   5.610  0.1454  0.7741 -0.0835
  676MOL0     C91135   6.646   5.291   5.737  0.3902 -0.1629  0.1636
  676MOL0     C91136   6.715   5.154   5.772 -0.2806 -0.0179 -0.3933
  676MOL0     C91137   6.616   5.068   5.852  0.4213 -0.3661  0.0642
  676MOL0     C91138   6.670   4.941   5.904 -0.4147 -0.5918 -0.0546
  676MOL0     C91139   6.580   4.867   6.001 -0.2302  0.6631  0.3008
  676MOL0     C91140   6.442   4.833   5.941  0.4001  0.0473  0.1282
  676MOL0     C91141   6.331   4.826   6.043 -0.8374  0.5859 -0.7906
  676MOL0     N91142   6.339   4.717   6.139 -0.9357 -0.2343 -0.0125
  676MOL0     C91143   6.245   4.676   6.231  0.2009 -1.0140 -0.0068
  676MOL0     C91144   6.300   4.577   6.305  1.1170  0.2572 -0.5234
  676MOL0     C91145   6.244   4.519   6.433 -0.1536  0.0305 -0.2802
  676MOL0     C91146   6.330   4.580   6.551  0.0257  0.5300  0.3478
  676MOL0     C91147   6.402   4.465   6.622 -0.0811  0.4774 -0.0693
  676MOL0     C91148   6.527   4.415   6.550 -0.0822 -0.1756  0.7745
  676MOL0     O91149   6.601   4.313   6.617 -0.2777  0.0249 -0.1832
  676MOL0     C91150   6.698   4.361   6.708  0.4766  0.2843  1.0114
  676MOL0     C91151   6.776   4.260   6.775  0.8544  0.5957 -0.0550
  676MOL0     C91152   6.891   4.295   6.856 -0.5369  0.2209 -0.0146
  676MOL0     C91153   6.963   4.184   6.927 -0.1567  0.7285 -0.5888
  676MOL0     C91154   6.921   4.435   6.861  0.0033  0.4033 -1.3938
  676MOL0     C91155   7.042   4.493   6.925 -1.6120 -0.2227  0.1114
  676MOL0     O91156   7.147   4.411   6.957 -0.3404  0.1650 -0.6130
  676MOL0     C91157   7.256   4.466   7.020 -0.1968 -0.9718 -0.1021
  676MOL0     C91158   7.375   4.448   6.959 -0.0479  0.9184  0.4103
  676MOL0     C91159   7.498   4.491   7.011 -0.6120 -0.4425  0.4298
  676MOL0     C91160   7.494   4.574   7.122 -0.1555  0.3982 -0.0676
  676MOL0     O91161   7.614   4.607   7.189  0.5949 -0.3524  0.0452
  676MOL0     C91162   7.621   4.659   7.320  0.0068 -0.6948 -0.2217
  676MOL0     C91163   7.768   4.685   7.360 -0.0601 -0.3733 -0.8746
  676MOL0     C91164   7.845   4.766   7.261  0.1279 -0.2934 -0.4313
  676MOL0     C91165   7.994   4.790   7.305 -0.2228 -0.9168 -1.0598
  676MOL0     C91166   8.079   4.880   7.217 -0.1166 -1.0210  0.2367
  676MOL0     C91167   8.065   4.854   7.067 -0.8571  0.9765 -0.6236
  676MOL0     C91168   8.136   4.963   6.984 -0.1912  0.6309  0.8915
  676MOL0     C91169   8.073   4.963   6.839  0.1707 -0.0393  0.2691
  676MOL0    Cl91170   8.151   4.831   6.769  0.4028  0.3666 -0.3745
  676MOL0     C91171   7.368   4.611   7.180  0.3873  0.6322  0.1937
  676MOL0     C91172   7.251   4.558   7.133 -0.3181  0.6459 -0.2680
  676MOL0     O91173   7.049   4.618   6.922  0.2557  0.5647 -0.0241
  676MOL0     C91174   6.830   4.531   6.814  0.1941 -0.3743  0.2492
  676MOL0     C91175   6.717   4.493   6.745  0.3281  0.1733  0.1831
  676MOL0     N91176   6.426   4.550   6.253  0.5262  0.5278 -0.1329
  676MOL0     N91177   6.444   4.634   6.152  0.3925  0.1172 -0.4050
  676MOL0     C91178   6.786   5.587   5.748  1.3354  0.2552 -0.8489
  676MOL0     C91179   6.810   5.707   5.816 -0.9993 -0.6704  0.5570
  676MOL0     C91180   6.724   6.090   6.068  0.5242  1.1905  0.5720
  676MOL0     C91181   6.704   6.104   6.197 -0.6032  1.1001  0.6376
  676MOL0     C91182   6.706   6.233   6.262  0.4322  0.6930  0.5298
  676MOL0     C91183   6.734   6.351   6.190  0.0794 -0.1640  0.1278
  676MOL0     O91184   6.730   6.482   6.236 -0.4240 -0.1559 -0.4927
  676MOL0     C91185   6.692   6.505   6.374  0.3962  0.7224 -0.0283
  676MOL0     C91186   6.798   6.574   6.439  0.0632  0.0218 -0.6366
  676MOL0     C91187   6.918   6.487   6.459  0.6919  0.2722 -0.0393
  676MOL0     C91188   7.032   6.565   6.524  0.3515  0.2119 -0.8186
  676MOL0     C91189   7.155   6.484   6.521  0.1351  0.4850 -0.2214
  676MOL0     C91190   7.257   6.419   6.517 -0.3036  0.2949  0.3315
  676MOL0     C91191   6.758   6.335   6.054 -0.5958 -0.0444  0.7959
  676MOL0     C91192   6.760   6.207   5.992  1.1498 -0.5879  0.5312
  676MOL0     H91193   6.595   5.916   5.676 -1.2221 -0.7474 -0.3826
  676MOL0     H91194   6.522   5.684   5.557 -0.5209 -0.1635 -0.2841
  676MOL0     H91195   6.671   5.285   5.533 -4.9873 -0.3807  2.8970
  676MOL0     H91196   6.817   5.353   5.618  0.3463 -3.3424 -0.8790
  676MOL0     H91197   6.662   5.357   5.823  2.5355 -1.7955  1.1070
  676MOL0     H91198   6.540   5.294   5.710  0.7849  0.6312 -1.4166
  676MOL0     H91199   6.735   5.084   5.690  1.6400  0.6438 -0.5309
  676MOL0     H91200   6.800   5.177   5.836 -4.7801  4.9765  4.9632
  676MOL0     H91201   6.569   5.131   5.928  1.1213 -0.3696  0.5088
  676MOL0     H91202   6.540   5.050   5.776 -0.1167 -0.1085  0.5342
  676MOL0     H91203   6.711   4.876   5.826 -1.2048 -2.6975  1.2061
  676MOL0     H91204   6.752   4.978   5.967  0.2271  3.6382 -2.9068
  676MOL0     H91205   6.633   4.778   6.038  1.4537  1.2645 -0.5254
  676MOL0     H91206   6.563   4.927   6.091 -0.8770  1.8505 -0.5895
  676MOL0     H91207   6.410   4.916   5.876 -2.7583  1.0043  2.6291
  676MOL0     H91208   6.444   4.737   5.889  0.8249 -0.6542  1.4104
  676MOL0     H91209   6.240   4.807   5.985 -1.8150  0.8640  0.6214
  676MOL0     H91210   6.323   4.918   6.101  0.6570  1.2716 -1.6183
  676MOL0     H91211   6.144   4.716   6.234  1.3206  2.4272 -2.1926
  676MOL0     H91212   6.136   4.535   6.440 -0.2509  0.4900 -2.3640
  676MOL0     H91213   6.267   4.412   6.422  0.1335  0.3011 -2.8626
  676MOL0     H91214   6.267   4.631   6.624 -0.0747 -2.1430  2.2751
  676MOL0     H91215   6.411   4.646   6.518  1.1026 -0.1943  1.4641
  676MOL0     H91216   6.334   4.380   6.625 -1.0097  1.2139  0.0525
  676MOL0     H91217   6.418   4.495   6.726  1.5650  0.4238 -0.2725
  676MOL0     H91218   6.593   4.500   6.531 -0.6803  0.7231  2.5434
  676MOL0     H91219   6.494   4.374   6.454 -1.2403  3.4550 -0.5740
  676MOL0     H91220   6.742   4.158   6.763  0.6676  0.5279  0.9260
  676MOL0     H91221   7.045   4.167   6.856 -2.3670  0.5884 -3.2813
  676MOL0     H91222   6.994   4.222   7.025 -1.4363  1.5090 -0.4588
  676MOL0     H91223   6.902   4.094   6.933 -0.7427  1.2125  1.6697
  676MOL0     H91224   7.371   4.408   6.858 -1.3169  1.4148  0.2410
  676MOL0     H91225   7.591   4.456   6.969  2.1136  3.1041  2.7979
  676MOL0     H91226   7.573   4.757   7.310  1.0838 -0.1570 -0.3040
  676MOL0     H91227   7.567   4.596   7.391  0.1492 -1.9836 -1.2150
  676MOL0     H91228   7.768   4.739   7.455  3.8621  1.8334 -1.8783
  676MOL0     H91229   7.823   4.590   7.369 -2.2714 -1.6293  0.5701
  676MOL0     H91230   7.792   4.861   7.253  2.6710  1.3077  0.4577
  676MOL0     H91231   7.837   4.720   7.162  0.2412  0.8749 -1.0058
  676MOL0     H91232   7.998   4.827   7.408  2.2793  1.8241 -1.9958
  676MOL0     H91233   8.047   4.694   7.302  1.1952 -0.3321  1.8437
  676MOL0     H91234   8.180   4.877   7.258 -0.2352  0.4657  0.6867
  676MOL0     H91235   8.032   4.979   7.220  2.0280  0.1783 -2.3106
  676MOL0     H91236   8.107   4.754   7.054 -1.6071  0.5241  0.2712
  676MOL0     H91237   7.961   4.839   7.036 -0.2564  0.8049 -2.6339
  676MOL0     H91238   8.245   4.951   6.976 -0.3726 -0.1672 -0.9476
  676MOL0     H91239   8.106   5.062   7.019 -2.2501  0.0991  0.7558
  676MOL0     H91240   8.098   5.052   6.781  0.1810  0.0149  0.3569
  676MOL0     H91241   7.964   4.954   6.832 -0.0564 -0.5494  3.0773
  676MOL0     H91242   7.374   4.686   7.259 -0.2109  2.1020 -1.1144
  676MOL0     H91243   7.156   4.592   7.173  0.2455  1.2791  0.5728
  676MOL0     H91244   6.837   4.639   6.811 -1.3500 -0.2629 -0.7603
  676MOL0     H91245   6.666   4.577   6.699 -3.7228 -0.6741  2.6553
  676MOL0     H91246   6.850   5.501   5.765 -1.4362 -3.3321 -5.8096
  676MOL0     H91247   6.893   5.716   5.885 -1.4864 -0.1223  1.0873
  676MOL0     H91248   6.689   6.023   6.269  0.4441  0.3364  0.0174
  676MOL0     H91249   6.692   6.229   6.369  0.4449 -0.3780  0.4958
  676MOL0     H91250   6.602   6.567   6.367 -1.3588 -1.8893 -4.0075
  676MOL0     H91251   6.650   6.416   6.422 -0.4953  0.1301 -1.8371
  676MOL0     H91252   6.757   6.598   6.538  1.8766 -1.9467  0.6934
  676MOL0     H91253   6.826   6.667   6.388  1.6252  1.6370  2.7764
  676MOL0     H91254   6.948   6.433   6.368  0.3714  0.1142 -0.0532
  676MOL0     H91255   6.891   6.407   6.528 -1.0024 -0.5267 -1.5426
  676MOL0     H91256   7.018   6.588   6.630  0.5291 -1.4908 -0.3938
  676MOL0     H91257   7.053   6.654   6.464  3.1348 -0.0841 -0.4265
  676MOL0     H91258   7.353   6.372   6.504 -1.6658 -2.0913 -2.0339
  676MOL0     H91259   6.789   6.414   5.986 -3.7594  1.5469  0.9978
  676MOL0     H91260   6.761   6.196   5.884  0.3462  1.2941  0.2815
  677MOL0     O91261   2.908   7.993   2.418  0.4583  0.7640  0.6480
  677MOL0     C91262   2.857   7.906   2.484 -0.2991 -0.4580 -0.4734
  677MOL0     O91263   2.817   7.788   2.436  0.1996  0.1339  0.2864
  677MOL0     C91264   2.848   7.742   2.307  0.5211  0.8833 -1.0897
  677MOL0     C91265   2.981   7.735   2.275 -0.6522 -1.3397 -0.3968
  677MOL0     C91266   3.019   7.687   2.142 -0.7838  0.4079 -0.8526
  677MOL0     C91267   2.918   7.639   2.055 -0.3682  0.0526 -1.1004
  677MOL0     O91268   2.939   7.586   1.932 -0.2635 -0.7032  0.4902
  677MOL0     C91269   3.044   7.486   1.927 -0.0430  0.2339  0.1705
  677MOL0     C91270   3.021   7.395   1.801  1.0265 -0.0345  0.3039
  677MOL0     C91271   3.026   7.470   1.666 -0.4636  0.9413 -0.2529
  677MOL0     C91272   3.026   7.387   1.541 -0.1928 -0.0553  0.4656
  677MOL0     C91273   3.027   7.460   1.408  0.1877 -0.1929 -0.5710
  677MOL0     C91274   3.051   7.364   1.288 -0.9946 -0.2889  0.4472
  677MOL0     C91275   3.054   7.419   1.144 -0.1465  0.5696 -0.1568
  677MOL0     C91276   3.104   7.318   1.048  0.1235  0.4663 -0.0566
  677MOL0     N91277   3.137   7.373   0.917 -0.0482 -1.1325  0.7516
  677MOL0     C91278   3.262   7.422   0.895  0.7075  0.3259  0.5776
  677MOL0     C91279   3.274   7.437   0.758  0.5843  0.3266  0.0248
  677MOL0     C91280   3.403   7.495   0.676 -0.3717  0.5460 -0.9729
  677MOL0     C91281   3.512   7.586   0.745  0.5041 -0.1944 -0.2930
  677MOL0     C91282   3.507   7.736   0.692  0.5497  0.3656  0.2941
  677MOL0     C91283   3.381   7.807   0.739  0.3217 -0.2002 -0.3647
  677MOL0     O91284   3.394   7.947   0.698  0.5209  0.1755  0.3852
  677MOL0     C91285   3.461   8.025   0.787  0.7186 -0.4431 -0.3599
  677MOL0     C91286   3.410   8.096   0.893 -0.0374 -0.2386  0.1205
  677MOL0     C91287   3.478   8.177   0.980 -0.4034 -0.0827  1.1979
  677MOL0     C91288   3.398   8.233   1.083  0.7632 -0.0600 -0.0198
  677MOL0     C91289   3.622   8.185   0.962  0.7413 -0.2987  0.7733
  677MOL0     C91290   3.710   8.264   1.049  0.3507 -0.3619 -0.2227
  677MOL0     O91291   3.660   8.347   1.135  0.5560 -1.5979 -0.6060
  677MOL0     C91292   3.737   8.442   1.210  1.7509  0.3517  0.8603
  677MOL0     C91293   3.692   8.575   1.213  0.4435  0.6077  0.3815
  677MOL0     C91294   3.752   8.662   1.293 -1.0139  0.1685  0.3715
  677MOL0     C91295   3.865   8.630   1.374  0.5083  0.6539  0.0634
  677MOL0     O91296   3.929   8.723   1.451  0.1951  0.1390 -0.5541
  677MOL0     C91297   3.958   8.849   1.394 -0.2788 -0.1580  1.2667
  677MOL0     C91298   4.001   8.947   1.494  0.0654 -0.6008 -0.4482
  677MOL0     C91299   4.144   8.912   1.535 -0.0062  0.4652 -0.4153
  677MOL0     C91300   4.188   9.011   1.635 -0.5828  0.5372 -0.6526
  677MOL0     C91301   4.144   8.994   1.782  0.5198 -0.2302 -0.6786
  677MOL0     C91302   4.250   9.031   1.889 -0.0080 -0.3470 -0.1683
  677MOL0     C91303   4.199   9.043   2.038 -0.0941 -0.3758 -0.4495
  677MOL0     C91304   4.294   9.109   2.138 -0.4036  0.9346  1.0584
  677MOL0    Cl91305   4.315   9.276   2.107  0.2594 -0.2917 -0.1398
  677MOL0     C91306   3.910   8.500   1.365 -0.4668 -0.7702 -1.6708
  677MOL0     C91307   3.850   8.408   1.286  0.2088 -0.8818  0.1525
  677MOL0     O91308   3.823   8.237   1.040 -0.2237 -0.3756  0.0164
  677MOL0     C91309   3.676   8.122   0.844  0.8363  0.9466 -0.4271
  677MOL0     C91310   3.607   8.037   0.762  0.1599 -0.6921  0.4937
  677MOL0     N91311   3.158   7.401   0.699 -0.1122 -1.0478 -0.0293
  677MOL0     N91312   3.077   7.370   0.796 -0.4945  0.0084 -0.0382
  677MOL0     C91313   2.789   7.642   2.097 -0.0303  0.3768  0.5010
  677MOL0     C91314   2.749   7.693   2.222 -0.2800 -0.7754 -0.4066
  677MOL0     C91315   2.816   7.933   2.626 -0.2994 -0.5718 -0.8781
  677MOL0     C91316   2.772   7.827   2.702  0.3533  0.0599 -0.2856
  677MOL0     C91317   2.741   7.847   2.837  0.2039 -1.4544 -0.7785
  677MOL0     C91318   2.759   7.969   2.900  0.0188 -0.5636  0.9564
  677MOL0     O91319   2.739   7.996   3.030  0.0150  0.6799  0.3854
  677MOL0     C91320   2.826   7.939   3.133 -0.0947  0.8759  0.1323
  677MOL0     C91321   2.759   7.915   3.262  0.7580  0.4228  0.1024
  677MOL0     C91322   2.651   7.817   3.237 -0.2575 -0.2318  0.9868
  677MOL0     C91323   2.589   7.786   3.360 -0.6535  0.0621  0.4516
  677MOL0     C91324   2.495   7.891   3.400  0.2246 -1.3406  1.0081
  677MOL0     C91325   2.426   7.981   3.438 -0.0034 -0.1148  0.0447
  677MOL0     C91326   2.794   8.079   2.823  0.0039  0.5384  0.8427
  677MOL0     C91327   2.825   8.056   2.696 -0.7452 -0.7341  0.2041
  677MOL0     H91328   3.052   7.766   2.351 -0.4852 -2.7206  0.0476
  677MOL0     H91329   3.122   7.681   2.110 -0.4958 -3.9475  0.2030
  677MOL0     H91330   3.138   7.541   1.921  1.5987 -2.0804  2.4514
  677MOL0     H91331   3.046   7.426   2.019 -1.3729  2.5639  1.8315
  677MOL0     H91332   3.085   7.307   1.802  1.4084  0.2020  2.3011
  677MOL0     H91333   2.919   7.355   1.805 -1.6100  5.5338 -0.7821
  677MOL0     H91334   2.947   7.546   1.662 -1.8558 -0.2483  2.1787
  677MOL0     H91335   3.126   7.510   1.681 -0.6019  0.3996  2.7396
  677MOL0     H91336   3.105   7.311   1.540  0.2549  0.3734 -1.4421
  677MOL0     H91337   2.932   7.332   1.547 -2.3173  2.5487 -3.6739
  677MOL0     H91338   2.929   7.509   1.402 -1.0822 -2.5730 -0.2636
  677MOL0     H91339   3.109   7.532   1.406 -1.3876  1.6741 -1.0943
  677MOL0     H91340   3.151   7.326   1.310 -0.6493  0.9201  1.0453
  677MOL0     H91341   2.975   7.285   1.292 -2.2416  0.9254  2.1585
  677MOL0     H91342   2.962   7.468   1.112  0.1544  1.5030  0.3642
  677MOL0     H91343   3.132   7.496   1.134  1.2846 -1.0446 -2.3688
  677MOL0     H91344   3.024   7.243   1.047 -2.1939  2.7887 -0.6106
  677MOL0     H91345   3.195   7.269   1.082 -0.3339 -1.7542 -1.7898
  677MOL0     H91346   3.341   7.447   0.966  0.1524  2.0061  0.6387
  677MOL0     H91347   3.455   7.413   0.625 -1.5585 -0.8590 -0.0045
  677MOL0     H91348   3.355   7.554   0.598 -0.2989 -0.2163 -1.6109
  677MOL0     H91349   3.608   7.550   0.709 -1.3889 -1.4984 -4.7366
  677MOL0     H91350   3.503   7.577   0.853  1.2747  0.6391 -0.1513
  677MOL0     H91351   3.512   7.740   0.583 -1.1007  0.9389  0.2147
  677MOL0     H91352   3.593   7.785   0.738  1.0669 -0.0877 -0.1724
  677MOL0     H91353   3.368   7.794   0.847  0.7318  2.4273  0.0693
  677MOL0     H91354   3.294   7.757   0.695 -1.1423  1.0815  0.9500
  677MOL0     H91355   3.303   8.076   0.902  0.3635 -2.0830  1.4816
  677MOL0     H91356   3.448   8.229   1.181 -0.2280  1.5329  0.5844
  677MOL0     H91357   3.383   8.339   1.061 -0.6528  0.2469  2.1151
  677MOL0     H91358   3.299   8.187   1.092  0.5090  0.5689  0.4720
  677MOL0     H91359   3.605   8.605   1.156 -0.4357 -3.4866 -0.7846
  677MOL0     H91360   3.709   8.762   1.297 -1.5289  0.0871 -1.6608
  677MOL0     H91361   4.019   8.845   1.303  1.5659  3.1296  2.2047
  677MOL0     H91362   3.855   8.880   1.375  0.2597 -0.2842 -2.5817
  677MOL0     H91363   4.005   9.046   1.447 -0.9378  0.0568  0.7788
  677MOL0     H91364   3.931   8.960   1.577 -0.9173  0.7835 -1.4305
  677MOL0     H91365   4.212   8.911   1.450  3.1469 -2.7421  1.8334
  677MOL0     H91366   4.148   8.813   1.581 -0.1966  0.9091  0.5842
  677MOL0     H91367   4.297   9.011   1.628 -0.5103 -3.6421 -2.4702
  677MOL0     H91368   4.153   9.107   1.597 -0.2997  0.0251 -2.3244
  677MOL0     H91369   4.089   8.900   1.794 -0.9151 -0.0054 -4.3086
  677MOL0     H91370   4.059   9.061   1.797  0.4974 -0.6458  1.3164
  677MOL0     H91371   4.325   8.951   1.878 -2.5011 -3.1291  1.3425
  677MOL0     H91372   4.286   9.133   1.873  4.3650 -1.4967  0.9953
  677MOL0     H91373   4.168   8.940   2.057  1.0103 -1.1473 -2.4575
  677MOL0     H91374   4.104   9.098   2.039  0.3144  0.3438 -0.1072
  677MOL0     H91375   4.385   9.048   2.130 -0.3134  1.2870 -1.1147
  677MOL0     H91376   4.272   9.098   2.245  0.5083 -0.2981  1.1433
  677MOL0     H91377   3.995   8.489   1.433 -2.5993  2.0623  1.8237
  677MOL0     H91378   3.875   8.303   1.286 -1.8657 -1.4760 -2.4132
  677MOL0     H91379   3.781   8.142   0.823  1.1545 -2.1670 -2.3341
  677MOL0     H91380   3.647   7.998   0.669  5.1862  1.8197  1.2940
  677MOL0     H91381   2.719   7.606   2.022 -0.0363  2.1423 -0.3921
  677MOL0     H91382   2.648   7.696   2.262  1.5758 -1.5042  5.1543
  677MOL0     H91383   2.768   7.728   2.659  3.5054 -0.9044  1.3404
  677MOL0     H91384   2.703   7.764   2.896  1.2764 -1.0318  0.5629
  677MOL0     H91385   2.869   7.843   3.105 -0.2417  0.0488  2.5272
  677MOL0     H91386   2.911   8.005   3.151 -0.1648  0.5872  1.5844
  677MOL0     H91387   2.718   8.010   3.296  0.4439  1.2313 -2.2854
  677MOL0     H91388   2.828   7.874   3.335 -2.2989 -2.7011  1.5604
  677MOL0     H91389   2.695   7.730   3.187 -3.4897 -1.5647  0.2246
  677MOL0     H91390   2.585   7.862   3.163  0.1924  1.0895  1.3574
  677MOL0     H91391   2.666   7.766   3.435  1.2782 -0.3140 -1.5377
  677MOL0     H91392   2.522   7.699   3.352 -4.1911  2.6960 -1.4958
  677MOL0     H91393   2.375   8.067   3.477  1.6296  2.3298 -2.8346
  677MOL0     H91394   2.803   8.178   2.866 -0.6998  0.1580  1.9169
  677MOL0     H91395   2.847   8.133   2.623 -0.4882 -0.3901  0.6376
  678MOL0     O91396   7.589  10.519  10.492 -1.0027  0.2628 -0.7607
  678MOL0     C91397   7.691  10.456  10.505  0.2642 -0.6620 -0.2837
  678MOL0     O91398   7.748  10.437  10.622 -0.8260  0.2098  0.4858
  678MOL0     C91399   7.703  10.479  10.743 -0.2572  0.9626 -0.4678
  678MOL0     C91400   7.576  10.449  10.797 -1.6046  0.2160  0.5780
  678MOL0     C91401   7.542  10.495  10.926  0.0865  0.2466 -1.3437
  678MOL0     C91402   7.626  10.570  11.009  0.9712  1.5637 -0.3781
  678MOL0     O91403   7.560  10.612  11.127 -0.0333 -0.4791  1.3396
  678MOL0     C91404   7.649  10.661  11.232  0.4713 -1.0291 -0.5471
  678MOL0     C91405   7.580  10.670  11.368 -0.7048 -1.2521  0.4454
  678MOL0     C91406   7.562  10.548  11.457  0.8865 -0.0187 -0.3670
  678MOL0     C91407   7.690  10.486  11.522  0.0883  0.2316  0.2370
  678MOL0     C91408   7.766  10.383  11.428 -0.3575  0.4583 -0.3419
  678MOL0     C91409   7.854  10.273  11.493 -0.1699  0.8239  0.5973
  678MOL0     C91410   7.917  10.186  11.386  0.1157 -0.4160 -1.3574
  678MOL0     C91411   8.038  10.100  11.420 -0.6055 -0.0969 -0.0069
  678MOL0     N91412   8.001   9.973  11.484  0.0219 -0.6693 -0.4100
  678MOL0     C91413   7.946   9.964  11.609 -0.4028 -0.6945 -0.1850
  678MOL0     C91414   7.894   9.833  11.611 -0.2602 -1.0234  0.0760
  678MOL0     C91415   7.810   9.774  11.718  0.7157  0.5063 -0.5664
  678MOL0     C91416   7.685   9.699  11.676 -0.3818  1.0231 -0.7898
  678MOL0     C91417   7.593   9.685  11.798  0.6819  1.4508  0.2479
  678MOL0     C91418   7.459   9.622  11.766 -0.2562 -0.6693 -0.3907
  678MOL0     O91419   7.477   9.481  11.757 -0.7535 -0.1510  0.2965
  678MOL0     C91420   7.415   9.423  11.649  0.0606  0.7624  0.2655
  678MOL0     C91421   7.296   9.354  11.676  0.6799  1.0711  0.9187
  678MOL0     C91422   7.235   9.282  11.573  0.1368 -0.1164 -1.0856
  678MOL0     C91423   7.097   9.227  11.606 -0.9333 -0.2298 -0.2630
  678MOL0     C91424   7.295   9.262  11.450  0.4114 -0.3686 -0.2435
  678MOL0     C91425   7.239   9.191  11.336  0.5960 -0.0829 -0.7790
  678MOL0     O91426   7.320   9.157  11.223 -0.1220 -0.2343 -0.6413
  678MOL0     C91427   7.261   9.103  11.113 -0.2895 -0.0926 -0.1314
  678MOL0     C91428   7.210   8.967  11.117 -0.0643 -0.5285  0.0101
  678MOL0     C91429   7.171   8.913  10.998  0.1143  0.2571  0.9434
  678MOL0     C91430   7.168   8.987  10.878  0.6656 -0.0390 -0.4569
  678MOL0     O91431   7.109   8.918  10.772  0.2658  0.1619  0.3768
  678MOL0     C91432   7.147   8.954  10.634 -0.9524  0.8244 -0.7590
  678MOL0     C91433   7.113   8.834  10.554 -0.7600  0.1107  0.5423
  678MOL0     C91434   6.967   8.810  10.535 -0.7549  1.8220 -0.7423
  678MOL0     C91435   6.887   8.923  10.479  0.9102  0.8720  0.6883
  678MOL0     C91436   6.796   8.983  10.584 -0.5248  0.2396  0.0893
  678MOL0     C91437   6.696   9.092  10.537 -0.0522  0.3100  1.0202
  678MOL0     C91438   6.590   9.134  10.642 -0.1239 -0.4304 -0.4620
  678MOL0     C91439   6.504   9.237  10.581 -0.4073 -0.9778  0.7574
  678MOL0    Cl91440   6.377   9.299  10.701 -0.4145  0.4455  0.1527
  678MOL0     C91441   7.203   9.114  10.877 -0.2583  0.4059 -0.1783
  678MOL0     C91442   7.264   9.174  10.992  0.1449 -0.0895  0.4300
  678MOL0     O91443   7.119   9.150  11.351  0.5811  0.5505  0.0623
  678MOL0     C91444   7.414   9.327  11.426 -0.6157 -0.1398 -0.3548
  678MOL0     C91445   7.474   9.408  11.527 -0.8154 -0.0999  1.1702
  678MOL0     N91446   7.916   9.777  11.486  0.9614 -0.2662 -0.2900
  678MOL0     N91447   7.983   9.860  11.412  1.0686  0.1775 -0.4192
  678MOL0     C91448   7.752  10.601  10.947  0.0600 -0.0704 -1.2184
  678MOL0     C91449   7.789  10.547  10.826 -0.6500  0.9458  0.1508
  678MOL0     C91450   7.731  10.359  10.399 -0.3117 -0.4921  0.7627
  678MOL0     C91451   7.699  10.364  10.261  0.8863  0.6054  0.3569
  678MOL0     C91452   7.717  10.253  10.174  0.2772 -0.2916  0.6160
  678MOL0     C91453   7.772  10.138  10.224  0.7011 -0.0724  0.4722
  678MOL0     O91454   7.799  10.039  10.130  0.0914  1.0547 -0.3502
  678MOL0     C91455   7.847   9.915  10.178 -0.1694  0.1100 -0.1227
  678MOL0     C91456   7.857   9.805  10.069 -0.0218 -0.6840 -0.2999
  678MOL0     C91457   7.940   9.680  10.143  0.4969  0.4738 -0.0371
  678MOL0     C91458   7.949   9.563  10.041 -0.4833  0.0195 -0.1658
  678MOL0     C91459   7.818   9.499  10.031 -0.6984 -0.3063  0.5761
  678MOL0     C91460   7.710   9.448  10.023 -0.1258  0.4342 -0.8194
  678MOL0     C91461   7.820  10.135  10.358  0.4329 -0.0940 -0.4297
  678MOL0     C91462   7.808  10.251  10.441  0.3067 -0.1930 -0.2052
  678MOL0     H91463   7.508  10.397  10.730  1.9165 -0.3095 -2.9854
  678MOL0     H91464   7.443  10.476  10.966  0.8650 -0.5016  0.3191
  678MOL0     H91465   7.730  10.589  11.248  0.0935 -1.1811  0.7781
  678MOL0     H91466   7.683  10.760  11.201 -4.1142  0.4823 -1.4643
  678MOL0     H91467   7.643  10.735  11.429 -0.7498  1.4091 -2.1410
  678MOL0     H91468   7.489  10.728  11.351  0.5579  0.6735 -0.0454
  678MOL0     H91469   7.484  10.569  11.532 -0.3942 -1.2287 -1.3065
  678MOL0     H91470   7.516  10.470  11.396  1.1232  0.0404 -0.6251
  678MOL0     H91471   7.768  10.558  11.550 -0.8899  1.4021  0.0277
  678MOL0     H91472   7.669  10.435  11.616 -0.2453 -0.0125  0.0306
  678MOL0     H91473   7.697  10.323  11.368 -0.3786 -0.0813  0.2170
  678MOL0     H91474   7.835  10.438  11.363  3.4755 -1.9925  1.2664
  678MOL0     H91475   7.940  10.308  11.551  1.5772 -2.1821  0.0738
  678MOL0     H91476   7.791  10.219  11.565 -0.0423 -1.3615 -0.8352
  678MOL0     H91477   7.850  10.133  11.318 -0.7892 -0.9026 -0.1307
  678MOL0     H91478   7.964  10.262  11.323  0.9975 -0.8286 -1.2151
  678MOL0     H91479   8.106  10.155  11.485 -0.5178  0.1571 -0.3055
  678MOL0     H91480   8.088  10.087  11.323 -0.0351  0.6998  0.1673
  678MOL0     H91481   7.950  10.032  11.692  0.6602 -3.3282  2.0935
  678MOL0     H91482   7.863   9.709  11.789 -1.7698 -1.6755 -0.5586
  678MOL0     H91483   7.787   9.856  11.785  2.4127  0.1750  0.4900
  678MOL0     H91484   7.707   9.596  11.646  1.0164 -0.3209  4.0373
  678MOL0     H91485   7.637   9.750  11.591  1.1400  3.4477 -0.3007
  678MOL0     H91486   7.567   9.788  11.824  1.1299  2.0444 -1.5032
  678MOL0     H91487   7.639   9.632  11.881  4.3706  1.4545 -1.6148
  678MOL0     H91488   7.421   9.665  11.673 -1.4696 -2.7836 -0.9544
  678MOL0     H91489   7.395   9.636  11.853  1.7398 -0.0867  1.0520
  678MOL0     H91490   7.246   9.347  11.772 -0.0871  0.7063  0.5051
  678MOL0     H91491   7.091   9.120  11.585 -1.5953 -0.1011 -0.7863
  678MOL0     H91492   7.050   9.243  11.704 -0.3512  0.4877 -0.0893
  678MOL0     H91493   7.030   9.267  11.529 -1.1711  0.8826  0.4797
  678MOL0     H91494   7.215   8.909  11.208  0.7795 -0.8795 -0.2494
  678MOL0     H91495   7.143   8.808  10.993 -1.6590  0.5801  2.7275
  678MOL0     H91496   7.091   9.044  10.606 -0.3302  1.9707  1.3733
  678MOL0     H91497   7.255   8.976  10.631 -1.0206  2.0128  2.0099
  678MOL0     H91498   7.165   8.842  10.458  1.1869 -1.1383  1.4270
  678MOL0     H91499   7.160   8.748  10.601 -0.4168 -0.2327 -0.4092
  678MOL0     H91500   6.933   8.766  10.629  0.9109  1.7607 -0.1352
  678MOL0     H91501   6.977   8.726  10.466  2.9456  0.7909  0.8346
  678MOL0     H91502   6.938   9.007  10.430  0.0802  0.6972 -0.5001
  678MOL0     H91503   6.818   8.883  10.405  0.9062  1.9767  0.0700
  678MOL0     H91504   6.848   9.029  10.668  1.1772  4.5320 -2.9474
  678MOL0     H91505   6.739   8.897  10.621 -2.6546  1.0334 -1.1117
  678MOL0     H91506   6.749   9.184  10.511 -0.7558  1.7558  4.2633
  678MOL0     H91507   6.632   9.040  10.465  0.9004  0.4836  0.0360
  678MOL0     H91508   6.641   9.178  10.728  0.0427 -1.1311 -0.1948
  678MOL0     H91509   6.529   9.054  10.684  1.6983 -2.2730 -1.1589
  678MOL0     H91510   6.452   9.181  10.502  2.8730 -0.5446 -1.9073
  678MOL0     H91511   6.556   9.321  10.534 -1.6003 -1.4151 -1.5118
  678MOL0     H91512   7.191   9.178  10.790  0.8417  1.1971  0.2379
  678MOL0     H91513   7.302   9.274  10.973 -2.3046  1.0720  1.2262
  678MOL0     H91514   7.470   9.321  11.333 -2.3930 -0.0418 -1.4719
  678MOL0     H91515   7.576   9.437  11.503 -2.2152  2.6658 -2.5242
  678MOL0     H91516   7.834  10.649  11.000 -3.0715  2.1584  2.1020
  678MOL0     H91517   7.888  10.558  10.783 -0.2902 -3.6261 -0.6943
  678MOL0     H91518   7.650  10.456  10.230 -0.7985 -0.6460 -0.9021
  678MOL0     H91519   7.700  10.240  10.067  0.9887  2.4697  0.0592
  678MOL0     H91520   7.950   9.937  10.208  0.8925 -2.0418 -1.8530
  678MOL0     H91521   7.794   9.873  10.264  0.2067 -0.2409 -0.0564
  678MOL0     H91522   7.910   9.843   9.981 -1.3714  1.0535 -0.4167
  678MOL0     H91523   7.760   9.771  10.032  0.0001  1.6125 -2.7260
  678MOL0     H91524   7.896   9.652  10.239 -0.5775  3.5505  0.4900
  678MOL0     H91525   8.041   9.704  10.175  0.8888 -2.7723  1.5604
  678MOL0     H91526   8.024   9.490  10.072  0.2941  0.9000  0.0743
  678MOL0     H91527   7.973   9.602   9.941  0.6911  2.8737  1.1099
  678MOL0     H91528   7.610   9.415  10.003 -1.0591 -0.0492  3.6347
  678MOL0     H91529   7.887  10.060  10.399  3.7610  1.9364 -1.7991
  678MOL0     H91530   7.834  10.237  10.545 -0.4712 -1.0282 -0.1069
  679MOL0     O91531   0.450   7.593   7.147  0.6167 -0.3935  0.1194
  679MOL0     C91532   0.506   7.634   7.254 -0.2718 -0.7863  0.7764
  679MOL0     O91533   0.549   7.759   7.273  0.1012 -0.9810 -0.3396
  679MOL0     C91534   0.562   7.845   7.164  1.2300  0.4549  0.7542
  679MOL0     C91535   0.452   7.871   7.077  0.2408  0.3793 -0.8096
  679MOL0     C91536   0.463   7.952   6.970  0.6460 -0.3403  0.3624
  679MOL0     C91537   0.580   8.013   6.937  1.3052  1.1024 -0.4060
  679MOL0     O91538   0.576   8.099   6.833  0.5439  0.3246  0.2465
  679MOL0     C91539   0.471   8.099   6.734  0.3930  0.6178 -0.3081
  679MOL0     C91540   0.516   8.198   6.636  0.2960 -0.1680 -0.4435
  679MOL0     C91541   0.422   8.185   6.518 -0.1524 -0.0860 -0.5117
  679MOL0     C91542   0.442   8.302   6.409 -0.6073 -0.0713  1.0093
  679MOL0     C91543   0.523   8.219   6.297 -0.3912 -0.0868  0.5534
  679MOL0     C91544   0.517   8.308   6.173 -0.3752  0.7966 -0.0605
  679MOL0     C91545   0.631   8.269   6.076  1.0659  0.2201 -0.9720
  679MOL0     C91546   0.583   8.290   5.931 -0.5214 -0.0199  0.1374
  679MOL0     N91547   0.554   8.431   5.897  0.1475 -0.6868  0.7044
  679MOL0     C91548   0.486   8.471   5.786 -0.6464  0.0278  0.4052
  679MOL0     C91549   0.505   8.606   5.782 -0.5169  0.4468  1.3173
  679MOL0     C91550   0.461   8.714   5.682  0.3217  0.7312 -0.1927
  679MOL0     C91551   0.576   8.788   5.614 -0.0188 -0.3935 -0.1041
  679MOL0     C91552   0.651   8.687   5.517 -0.1746 -0.5052 -0.1032
  679MOL0     C91553   0.781   8.750   5.461 -0.9237  0.1437  0.2314
  679MOL0     O91554   0.879   8.730   5.565 -0.3460 -0.6579  0.1512
  679MOL0     C91555   0.984   8.814   5.558  0.4303  0.6204  0.1970
  679MOL0     C91556   1.048   8.855   5.677 -0.0471 -0.5170  0.3294
  679MOL0     C91557   1.170   8.937   5.675  0.0202  0.0272  0.3031
  679MOL0     C91558   1.215   9.009   5.804 -0.4905  0.3459 -0.3262
  679MOL0     C91559   1.239   8.945   5.551  0.0018  0.3349  0.3838
  679MOL0     C91560   1.365   9.016   5.528 -0.2902  0.4582  0.1534
  679MOL0     O91561   1.481   8.977   5.592  0.8814  0.5176 -0.1031
  679MOL0     C91562   1.577   9.071   5.589 -0.8669 -1.0312  0.0948
  679MOL0     C91563   1.663   9.075   5.480  0.4948 -0.5571 -0.5740
  679MOL0     C91564   1.769   9.165   5.491 -0.1438  0.5696  0.2428
  679MOL0     C91565   1.793   9.243   5.602  0.5318  0.0973  0.7186
  679MOL0     O91566   1.901   9.332   5.619  0.2376  0.4036 -0.7076
  679MOL0     C91567   1.963   9.382   5.507  0.9536  0.8512  0.6269
  679MOL0     C91568   2.080   9.475   5.533 -0.0808  0.0358  0.2339
  679MOL0     C91569   2.040   9.583   5.635  0.2500 -0.2189 -0.7074
  679MOL0     C91570   2.133   9.700   5.640 -0.4754  0.8980 -0.0521
  679MOL0     C91571   2.106   9.792   5.756  0.0625 -0.9577 -1.1441
  679MOL0     C91572   2.247   9.867   5.767  0.6742 -0.7198 -0.1263
  679MOL0     C91573   2.235  10.014   5.812 -1.2849  0.8498  0.0804
  679MOL0     C91574   2.211  10.022   5.956  0.7180  0.7709 -0.2624
  679MOL0    Cl91575   2.365  10.007   6.056  0.2512  0.5652  0.4467
  679MOL0     C91576   1.704   9.239   5.708  0.6427  0.4308 -0.2163
  679MOL0     C91577   1.591   9.157   5.698 -0.3558  0.1839  0.3242
  679MOL0     O91578   1.357   9.112   5.447 -0.8227 -0.9834 -0.5271
  679MOL0     C91579   1.171   8.904   5.434 -0.3737 -0.1239  0.0066
  679MOL0     C91580   1.056   8.828   5.442  1.2670  0.6287 -0.5918
  679MOL0     N91581   0.590   8.641   5.882  0.2584  0.8565  0.3281
  679MOL0     N91582   0.613   8.536   5.951 -0.2911  0.4415 -0.7448
  679MOL0     C91583   0.690   7.984   7.019  0.4284  0.2226 -0.1156
  679MOL0     C91584   0.685   7.912   7.142 -0.1355 -0.6955 -0.0891
  679MOL0     C91585   0.500   7.545   7.374  1.2953  0.3189 -0.2528
  679MOL0     C91586   0.532   7.594   7.503  0.6525  0.2199  0.8833
  679MOL0     C91587   0.504   7.515   7.614 -0.0477 -0.1639 -0.1744
  679MOL0     C91588   0.444   7.381   7.602 -0.3341 -0.0473  0.0416
  679MOL0     O91589   0.421   7.289   7.705 -0.4973 -0.0862 -0.7487
  679MOL0     C91590   0.451   7.335   7.836 -1.6455 -0.9005  0.3681
  679MOL0     C91591   0.408   7.241   7.946  0.0094  0.9078  0.2254
  679MOL0     C91592   0.267   7.179   7.944  0.4924  0.4033  0.1543
  679MOL0     C91593   0.250   7.072   8.047 -0.1995  0.5457 -1.0622
  679MOL0     C91594   0.165   6.968   8.007  0.4348 -0.6108 -0.0824
  679MOL0     C91595   0.088   6.890   7.964  0.9582  0.0431 -1.2819
  679MOL0     C91596   0.418   7.334   7.473  1.1096  0.5067  0.0974
  679MOL0     C91597   0.457   7.410   7.365  0.5146  0.1284 -0.4687
  679MOL0     H91598   0.364   7.809   7.093  1.1400 -0.6788  0.2253
  679MOL0     H91599   0.367   7.948   6.919 -0.4151 -1.3387  2.3284
  679MOL0     H91600   0.462   8.003   6.682 -0.3828  0.7445 -0.4155
  679MOL0     H91601   0.376   8.124   6.782 -0.0052 -1.2367 -0.0548
  679MOL0     H91602   0.506   8.293   6.689  0.4821 -2.0083  3.2025
  679MOL0     H91603   0.621   8.181   6.610  0.7647 -1.1950  1.8949
  679MOL0     H91604   0.429   8.086   6.473 -2.9660 -0.8149  0.4572
  679MOL0     H91605   0.322   8.192   6.563  0.8689  0.2871  1.8631
  679MOL0     H91606   0.340   8.327   6.380 -0.6580  1.1976  2.1539
  679MOL0     H91607   0.501   8.391   6.433 -1.1114  0.2971  0.9060
  679MOL0     H91608   0.628   8.206   6.326  0.2243 -0.1881 -1.5770
  679MOL0     H91609   0.480   8.121   6.276  0.4471 -0.6547  1.4054
  679MOL0     H91610   0.420   8.282   6.130 -0.8873 -0.6867  1.8441
  679MOL0     H91611   0.525   8.414   6.198  1.6099  0.5753  0.4598
  679MOL0     H91612   0.726   8.319   6.100  1.6142 -1.3748  0.3281
  679MOL0     H91613   0.651   8.163   6.096  2.5773  0.2225 -2.2128
  679MOL0     H91614   0.486   8.242   5.912  0.6139 -1.9214 -1.0850
  679MOL0     H91615   0.654   8.251   5.858  1.5642  3.6512 -0.0324
  679MOL0     H91616   0.430   8.404   5.721 -4.6833  0.4983  3.0279
  679MOL0     H91617   0.376   8.682   5.621  0.6536 -2.3043  0.7170
  679MOL0     H91618   0.395   8.778   5.742 -2.7552 -4.3004  2.5963
  679MOL0     H91619   0.637   8.828   5.695 -3.5482 -0.0332  2.6622
  679MOL0     H91620   0.536   8.876   5.563  1.9784  0.8503  0.3795
  679MOL0     H91621   0.593   8.673   5.426  1.6657  5.3390 -2.6910
  679MOL0     H91622   0.669   8.592   5.568 -3.3154 -0.3866  1.4421
  679MOL0     H91623   0.763   8.855   5.440  0.9634  0.3386 -0.5908
  679MOL0     H91624   0.810   8.706   5.365  0.0012  1.5308 -0.1503
  679MOL0     H91625   0.995   8.828   5.768  1.3119  1.1139  1.6608
  679MOL0     H91626   1.189   9.115   5.803  1.7985  0.9441  0.2950
  679MOL0     H91627   1.162   8.967   5.891  0.1066  0.2991  0.0169
  679MOL0     H91628   1.324   9.003   5.808 -0.0313 -0.9694 -5.8256
  679MOL0     H91629   1.658   9.001   5.401 -2.3832 -0.4677 -0.5655
  679MOL0     H91630   1.824   9.188   5.400 -0.1593  2.6229  0.7060
  679MOL0     H91631   1.999   9.295   5.451 -1.0169  1.2159 -1.3428
  679MOL0     H91632   1.895   9.442   5.447  0.2254  2.0622  2.5944
  679MOL0     H91633   2.166   9.417   5.567  0.7490 -0.2848 -2.2141
  679MOL0     H91634   2.119   9.519   5.440  0.9158  1.7130  1.4039
  679MOL0     H91635   2.047   9.533   5.732 -3.4540  0.0408 -0.1545
  679MOL0     H91636   1.936   9.617   5.628 -0.0118 -0.7179  0.4265
  679MOL0     H91637   2.228   9.647   5.651 -0.9421 -0.3291 -1.6093
  679MOL0     H91638   2.144   9.755   5.546 -3.1879 -0.2198 -1.1259
  679MOL0     H91639   2.096   9.743   5.854  2.2458  1.3059  0.3304
  679MOL0     H91640   2.035   9.871   5.728  1.2904 -0.3191 -2.5799
  679MOL0     H91641   2.304   9.808   5.840  0.3040 -0.7093  0.1771
  679MOL0     H91642   2.296   9.869   5.670  0.0832  0.4382 -0.4194
  679MOL0     H91643   2.157  10.068   5.758 -1.8633 -0.7936 -0.7792
  679MOL0     H91644   2.324  10.064   5.772  0.4624 -2.6656 -0.8504
  679MOL0     H91645   2.143   9.946   5.996  0.3600  0.6459 -1.0880
  679MOL0     H91646   2.158  10.117   5.973  0.0915  0.1243  1.6725
  679MOL0     H91647   1.721   9.283   5.806  1.2114 -2.2231  0.9594
  679MOL0     H91648   1.538   9.139   5.791 -0.0188  1.0720  0.6957
  679MOL0     H91649   1.227   8.918   5.342 -1.3619 -0.6444 -0.6928
  679MOL0     H91650   1.036   8.759   5.361 -0.5173 -0.1316  0.4621
  679MOL0     H91651   0.784   8.023   6.983 -1.7136  3.8281 -2.3872
  679MOL0     H91652   0.771   7.894   7.206 -1.9241  1.6655  3.2626
  679MOL0     H91653   0.575   7.692   7.521  0.3852  0.2230  1.5221
  679MOL0     H91654   0.531   7.564   7.707 -2.6305  2.2142 -0.5611
  679MOL0     H91655   0.557   7.358   7.845 -1.8961  0.0424  0.9800
  679MOL0     H91656   0.396   7.428   7.852  0.3501  0.6148 -1.1555
  679MOL0     H91657   0.426   7.296   8.039 -2.3801  5.1840 -1.5723
  679MOL0     H91658   0.476   7.155   7.943  0.4845  1.2888 -0.2545
  679MOL0     H91659   0.259   7.127   7.848  0.4342 -1.1337  0.9600
  679MOL0     H91660   0.189   7.254   7.962  1.5226  0.8829  3.1248
  679MOL0     H91661   0.228   7.124   8.141  1.8346  1.1679 -0.8675
  679MOL0     H91662   0.347   7.027   8.070 -1.4877 -0.2032  4.1831
  679MOL0     H91663   0.023   6.812   7.930  1.9407 -0.5231 -1.8924
  679MOL0     H91664   0.378   7.235   7.450  3.1585 -0.2706 -0.2841
  679MOL0     H91665   0.456   7.366   7.266  2.7808 -0.5003 -0.2709
  680MOL0     O91666   9.936   2.419   6.886  0.0742  0.3276  0.1793
  680MOL0     C91667   9.954   2.493   6.988 -0.6866 -0.8128 -0.1286
  680MOL0     O91668   9.880   2.495   7.100 -0.0210 -0.4512 -0.0840
  680MOL0     C91669   9.771   2.414   7.110 -0.9157  0.1133  1.4491
  680MOL0     C91670   9.763   2.329   7.215 -0.8778 -0.0057 -0.3753
  680MOL0     C91671   9.653   2.250   7.234  0.1695  0.2582  0.9374
  680MOL0     C91672   9.561   2.244   7.131 -0.1288  0.1303  0.2545
  680MOL0     O91673   9.471   2.142   7.149 -0.4757  0.4425  0.0083
  680MOL0     C91674   9.417   2.056   7.042 -0.5626 -0.1401  0.9643
  680MOL0     C91675   9.307   1.976   7.114 -0.3230 -0.8504  0.3052
  680MOL0     C91676   9.242   1.863   7.041 -0.1526  0.3910 -0.6653
  680MOL0     C91677   9.114   1.811   7.109 -0.0817  0.3002 -1.0710
  680MOL0     C91678   9.041   1.696   7.039  0.3420  0.7665 -0.3609
  680MOL0     C91679   9.129   1.585   6.981  0.3775  0.3158  0.8418
  680MOL0     C91680   9.054   1.477   6.907  1.1934  1.9175  0.0076
  680MOL0     C91681   8.951   1.393   6.980 -0.7210  0.2168 -0.1767
  680MOL0     N91682   9.015   1.324   7.096  0.0573 -0.0455  0.0524
  680MOL0     C91683   9.046   1.190   7.108  0.2173 -0.2302 -1.1504
  680MOL0     C91684   9.043   1.164   7.237  0.3524 -0.1688 -0.3517
  680MOL0     C91685   9.060   1.037   7.323  0.1357 -0.2911 -1.2619
  680MOL0     C91686   8.928   0.950   7.309 -0.3929  0.2292  0.4632
  680MOL0     C91687   8.825   0.990   7.404  0.0859 -0.0437 -0.9283
  680MOL0     C91688   8.709   0.908   7.366  0.7551  0.1054  1.3283
  680MOL0     O91689   8.616   0.903   7.473 -0.4923 -0.1633  0.4557
  680MOL0     C91690   8.482   0.880   7.450 -0.1853  0.3050  0.3356
  680MOL0     C91691   8.404   0.986   7.424  0.7813 -0.7472  0.4510
  680MOL0     C91692   8.263   0.970   7.425  0.6597  0.6880 -0.7013
  680MOL0     C91693   8.184   1.092   7.399  0.6150  0.3144  0.2632
  680MOL0     C91694   8.200   0.839   7.443 -0.0809 -0.4161  0.8183
  680MOL0     C91695   8.051   0.822   7.439 -0.6941  1.0605 -0.1815
  680MOL0     O91696   8.006   0.691   7.467 -0.1574  0.1640  0.2601
  680MOL0     C91697   7.871   0.676   7.460 -0.3594 -0.2010  0.2486
  680MOL0     C91698   7.794   0.739   7.559  0.4824 -0.6704 -1.2856
  680MOL0     C91699   7.657   0.747   7.558  0.4635 -0.0759  0.1828
  680MOL0     C91700   7.587   0.689   7.445 -0.2699 -1.5894  0.0854
  680MOL0     O91701   7.465   0.742   7.436 -0.3673 -0.2400 -0.0583
  680MOL0     C91702   7.455   0.809   7.315  0.0652 -0.3876 -0.0681
  680MOL0     C91703   7.314   0.879   7.296 -0.4666  0.7383 -0.2630
  680MOL0     C91704   7.190   0.802   7.327 -0.5873 -0.1376  0.1613
  680MOL0     C91705   7.194   0.658   7.272  0.2524  0.5641 -0.0846
  680MOL0     C91706   7.051   0.601   7.256  0.8078  0.6429  0.1985
  680MOL0     C91707   7.050   0.460   7.210 -0.1369  1.1735  0.4376
  680MOL0     C91708   6.919   0.410   7.126 -0.5677  0.2317  1.1821
  680MOL0     C91709   6.960   0.314   7.014  0.4931  0.1146 -0.9136
  680MOL0    Cl91710   6.833   0.292   6.888 -0.3194 -0.3722 -0.0678
  680MOL0     C91711   7.667   0.633   7.342 -0.0850 -0.7786 -0.3037
  680MOL0     C91712   7.809   0.621   7.352 -0.4891 -0.3254  0.7648
  680MOL0     O91713   7.977   0.915   7.407 -0.1526  0.2879 -0.0364
  680MOL0     C91714   8.287   0.733   7.465  0.7285  0.7067 -0.5820
  680MOL0     C91715   8.427   0.753   7.466  0.0227  0.1661  0.8585
  680MOL0     N91716   9.001   1.279   7.311  0.2133 -0.4137  0.1045
  680MOL0     N91717   9.006   1.373   7.221  0.0201  0.0042 -1.9165
  680MOL0     C91718   9.574   2.312   7.011 -0.0353 -0.5473 -0.1348
  680MOL0     C91719   9.676   2.401   7.010 -0.3220 -0.8679  0.6088
  680MOL0     C91720  10.063   2.594   6.991  0.4633 -0.0534 -0.6828
  680MOL0     C91721  10.086   2.680   7.100  0.1863 -1.2084  0.3369
  680MOL0     C91722  10.183   2.775   7.106  0.7831 -0.1675 -0.7988
  680MOL0     C91723  10.275   2.782   7.002 -0.3697 -0.2643  0.1292
  680MOL0     O91724  10.383   2.860   7.015 -0.7593 -0.8318 -0.9247
  680MOL0     C91725  10.378   2.991   6.957 -0.0942  0.1807  1.0193
  680MOL0     C91726  10.528   3.053   6.944  0.9165 -0.0093  0.0869
  680MOL0     C91727  10.612   2.981   6.843  0.2595  0.1705  1.0251
  680MOL0     C91728  10.641   2.835   6.864  0.1085 -0.0710 -1.1924
  680MOL0     C91729  10.704   2.792   6.989  0.5578  1.0163  0.2497
  680MOL0     C91730  10.775   2.761   7.077 -0.1740 -0.7227 -0.5739
  680MOL0     C91731  10.263   2.698   6.893 -0.8079  0.6264 -0.1600
  680MOL0     C91732  10.155   2.606   6.877  0.3484 -0.7276 -0.0929
  680MOL0     H91733   9.830   2.331   7.300 -0.4765  2.4704 -0.6664
  680MOL0     H91734   9.651   2.188   7.323  1.3201  0.5060  1.1578
  680MOL0     H91735   9.359   2.108   6.965 -1.6349 -0.7044  1.3708
  680MOL0     H91736   9.481   1.985   6.991  0.7717  1.9855 -0.4641
  680MOL0     H91737   9.345   1.932   7.207  3.6966  1.0357 -0.2227
  680MOL0     H91738   9.232   2.053   7.130  0.4958  0.1703 -0.6017
  680MOL0     H91739   9.215   1.899   6.941  2.2811 -3.5311 -2.9836
  680MOL0     H91740   9.312   1.783   7.016  0.2407  0.6614 -0.4487
  680MOL0     H91741   9.152   1.756   7.195 -1.1829 -3.9979 -3.0568
  680MOL0     H91742   9.049   1.889   7.151 -2.0293 -1.6281 -0.3201
  680MOL0     H91743   8.955   1.667   7.101 -1.6358  0.3322 -3.0996
  680MOL0     H91744   8.997   1.737   6.947 -0.3029  0.5690 -0.1492
  680MOL0     H91745   9.198   1.626   6.907 -0.3756 -1.4857 -0.9245
  680MOL0     H91746   9.183   1.539   7.064 -1.4680  0.2213  2.0613
  680MOL0     H91747   8.991   1.527   6.834 -4.4962  1.2542  3.8333
  680MOL0     H91748   9.119   1.401   6.862  1.3841  3.3236 -2.2068
  680MOL0     H91749   8.910   1.317   6.912 -0.4489 -0.4236  0.3697
  680MOL0     H91750   8.871   1.461   7.010 -1.6858 -0.2039 -1.6658
  680MOL0     H91751   9.059   1.119   7.027  0.2933 -2.1695  0.4765
  680MOL0     H91752   9.145   0.984   7.280  0.2609  0.9508 -2.6330
  680MOL0     H91753   9.078   1.074   7.424  1.5463  0.3439 -1.7126
  680MOL0     H91754   8.956   0.849   7.342  0.3999  0.2504 -0.1072
  680MOL0     H91755   8.889   0.949   7.207 -5.1531  2.0864  2.0078
  680MOL0     H91756   8.794   1.094   7.392 -1.5387 -0.4963 -0.9508
  680MOL0     H91757   8.864   0.968   7.503  1.4884  0.8585 -1.2592
  680MOL0     H91758   8.742   0.804   7.353  1.6524  0.6982 -2.8121
  680MOL0     H91759   8.671   0.946   7.270  3.4615  0.3266  0.2329
  680MOL0     H91760   8.461   1.079   7.417  4.0636 -2.3018  3.2281
  680MOL0     H91761   8.123   1.115   7.487  1.5390  3.7652  0.1520
  680MOL0     H91762   8.239   1.182   7.370 -1.6010  1.2756 -1.2142
  680MOL0     H91763   8.115   1.080   7.315  0.3196 -1.7740  0.7576
  680MOL0     H91764   7.838   0.782   7.649  0.0133 -3.2860  0.3025
  680MOL0     H91765   7.596   0.787   7.638 -1.9852 -1.1968 -0.9876
  680MOL0     H91766   7.521   0.896   7.311 -0.2432 -0.0735  1.0950
  680MOL0     H91767   7.462   0.747   7.226 -1.0617  3.9240 -3.5397
  680MOL0     H91768   7.320   0.967   7.360  2.2305 -0.5797  1.5064
  680MOL0     H91769   7.302   0.903   7.190 -0.2117 -1.8372 -0.9442
  680MOL0     H91770   7.108   0.839   7.264 -1.2523 -1.6966  0.0721
  680MOL0     H91771   7.153   0.795   7.430 -1.4808 -1.4371 -0.2236
  680MOL0     H91772   7.247   0.643   7.178  6.1892  1.4489  2.6909
  680MOL0     H91773   7.261   0.601   7.336  3.3536  3.5884 -0.3540
  680MOL0     H91774   6.984   0.650   7.184  0.5534  0.5257  0.3552
  680MOL0     H91775   7.010   0.611   7.357 -0.5568 -3.4218  0.2434
  680MOL0     H91776   7.138   0.442   7.148 -1.6935 -2.5801 -0.9639
  680MOL0     H91777   7.069   0.400   7.300 -0.7355  0.5486  0.1594
  680MOL0     H91778   6.866   0.493   7.079  0.9030 -0.1677 -1.4144
  680MOL0     H91779   6.845   0.350   7.180 -0.7849 -0.8914 -0.2799
  680MOL0     H91780   6.951   0.215   7.060 -1.8648  0.3798 -0.6550
  680MOL0     H91781   7.053   0.342   6.965  0.5157 -2.3752 -2.5142
  680MOL0     H91782   7.617   0.603   7.251 -0.5724  1.3221 -0.7867
  680MOL0     H91783   7.871   0.585   7.270 -0.4252  2.2677 -0.4315
  680MOL0     H91784   8.243   0.638   7.493  2.1920 -0.4750 -2.0857
  680MOL0     H91785   8.493   0.674   7.499  0.5017  2.0856  5.2993
  680MOL0     H91786   9.513   2.314   6.922 -0.3062  1.4619  0.0485
  680MOL0     H91787   9.672   2.477   6.932 -1.6400 -1.9005 -0.3748
  680MOL0     H91788  10.012   2.690   7.178 -1.8609  5.8036 -1.7761
  680MOL0     H91789  10.211   2.835   7.192  0.8018 -1.9528  0.4888
  680MOL0     H91790  10.331   2.994   6.858  1.8974  4.4676 -0.0389
  680MOL0     H91791  10.318   3.048   7.028 -1.2798 -1.8436  1.7331
  680MOL0     H91792  10.578   3.050   7.041  0.4959 -4.8428  0.3667
  680MOL0     H91793  10.516   3.157   6.910  1.0800  0.2482  0.7973
  680MOL0     H91794  10.708   3.033   6.837  0.2074  0.1876  0.2552
  680MOL0     H91795  10.566   2.988   6.744  4.1938  2.1971 -0.9108
  680MOL0     H91796  10.701   2.796   6.782 -0.2482 -1.8400 -0.6477
  680MOL0     H91797  10.557   2.765   6.856 -0.8707  0.7295  1.1034
  680MOL0     H91798  10.845   2.751   7.157 -0.8229  3.7747  0.8094
  680MOL0     H91799  10.331   2.703   6.808 -1.3121  0.1880 -0.5974
  680MOL0     H91800  10.137   2.542   6.792 -2.1720 -1.0120  0.5890
  681MOL0     O91801   1.385   1.911   4.945 -0.1893 -0.1118 -0.3563
  681MOL0     C91802   1.496   1.917   4.995 -1.7238  0.7479  0.4983
  681MOL0     O91803   1.557   2.025   5.038  0.5429 -0.1332  0.0956
  681MOL0     C91804   1.489   2.143   5.019 -0.6591  0.4801  0.5334
  681MOL0     C91805   1.518   2.208   4.897 -1.0321  0.0797  0.4618
  681MOL0     C91806   1.474   2.340   4.879 -0.2673 -0.4872 -0.3128
  681MOL0     C91807   1.371   2.397   4.965  0.2457 -0.5374  0.4307
  681MOL0     O91808   1.325   2.520   4.922  0.8253  0.3334  0.3196
  681MOL0     C91809   1.419   2.622   4.954 -1.0083 -0.1096 -0.1649
  681MOL0     C91810   1.354   2.755   4.906 -0.4588  0.4555 -0.6475
  681MOL0     C91811   1.221   2.777   4.973  0.4930 -0.2944 -0.7084
  681MOL0     C91812   1.129   2.869   4.882  0.1386  0.2316 -0.0291
  681MOL0     C91813   1.169   3.018   4.887  0.0913  0.0547 -0.3647
  681MOL0     C91814   1.081   3.107   4.798  0.5184  0.0940  0.3508
  681MOL0     C91815   1.138   3.248   4.779 -0.2916  0.3431  0.1863
  681MOL0     C91816   1.192   3.256   4.634  0.7703 -0.6586  0.5450
  681MOL0     N91817   1.267   3.373   4.601  0.2842 -0.0752 -0.2163
  681MOL0     C91818   1.243   3.502   4.649  0.5278  0.4780 -0.6770
  681MOL0     C91819   1.312   3.574   4.564  0.9688 -0.5462  0.7321
  681MOL0     C91820   1.303   3.722   4.557 -0.3693  0.9181  0.1143
  681MOL0     C91821   1.391   3.788   4.671  0.4634 -0.3505 -0.6894
  681MOL0     C91822   1.418   3.934   4.646 -0.2943  0.0621 -1.3003
  681MOL0     C91823   1.542   3.983   4.718  0.8267 -0.5495 -0.1827
  681MOL0     O91824   1.565   4.122   4.695  0.4991  0.0170  0.0635
  681MOL0     C91825   1.687   4.172   4.741 -0.7999  0.1078 -0.4237
  681MOL0     C91826   1.806   4.113   4.705 -1.3563  0.7435 -0.0227
  681MOL0     C91827   1.925   4.150   4.763  0.1791 -0.0577  0.3145
  681MOL0     C91828   2.043   4.083   4.708 -0.5015  0.8032  0.2306
  681MOL0     C91829   1.930   4.252   4.861  0.8145  0.3688  0.4427
  681MOL0     C91830   2.052   4.308   4.920 -0.6620 -0.2555 -0.6365
  681MOL0     O91831   2.169   4.270   4.868  0.2081  0.4933 -0.1962
  681MOL0     C91832   2.293   4.316   4.903  0.0348  0.0720  0.9111
  681MOL0     C91833   2.375   4.349   4.790  0.9968 -0.0208 -1.0870
  681MOL0     C91834   2.505   4.397   4.809  0.2015 -0.4634  1.0568
  681MOL0     C91835   2.563   4.413   4.929  0.2932 -0.6003 -0.8418
  681MOL0     O91836   2.694   4.457   4.930  0.9089  0.0015 -0.2239
  681MOL0     C91837   2.772   4.473   5.049 -0.3953 -0.9402 -0.4358
  681MOL0     C91838   2.745   4.609   5.108 -0.1286  0.1053 -0.6197
  681MOL0     C91839   2.794   4.727   5.020 -0.0643 -0.5094  0.5732
  681MOL0     C91840   2.839   4.847   5.111  0.3744  0.0033 -0.4078
  681MOL0     C91841   2.868   4.974   5.036  0.4475 -0.2253  0.2376
  681MOL0     C91842   2.752   5.031   4.965 -0.7092  0.6801 -0.1886
  681MOL0     C91843   2.651   5.094   5.065  0.2284 -0.6891 -0.8662
  681MOL0     C91844   2.522   5.140   4.997 -0.1859  1.1587 -0.0272
  681MOL0    Cl91845   2.561   5.276   4.879  0.0777  0.8758  0.0847
  681MOL0     C91846   2.470   4.404   5.039 -0.3110  0.2327  0.9696
  681MOL0     C91847   2.342   4.356   5.024 -2.1650  0.3148 -0.4625
  681MOL0     O91848   2.048   4.388   5.015  0.2637  0.7327  0.1492
  681MOL0     C91849   1.805   4.302   4.907  0.3436 -0.2689  0.1724
  681MOL0     C91850   1.685   4.265   4.849  0.0111  0.4844 -0.5718
  681MOL0     N91851   1.390   3.490   4.487  0.2420  0.1331 -0.3499
  681MOL0     N91852   1.361   3.367   4.511  0.5585 -1.2342 -0.1297
  681MOL0     C91853   1.335   2.327   5.080 -0.1183  0.7445 -0.5107
  681MOL0     C91854   1.403   2.204   5.107 -0.3143 -0.1104  0.2330
  681MOL0     C91855   1.588   1.795   5.008  0.1953 -0.3327  0.0947
  681MOL0     C91856   1.707   1.788   5.083  0.4843 -0.3837  0.8740
  681MOL0     C91857   1.792   1.674   5.095 -0.2912 -0.5202 -0.1137
  681MOL0     C91858   1.746   1.564   5.017 -0.2600  0.4393  0.4231
  681MOL0     O91859   1.816   1.452   5.048 -0.4030  0.3974  0.3446
  681MOL0     C91860   1.770   1.333   4.988  0.2392  0.2978 -0.4690
  681MOL0     C91861   1.870   1.295   4.879 -0.1908  0.6258  0.5510
  681MOL0     C91862   1.871   1.387   4.755 -0.4594  0.5334  1.0936
  681MOL0     C91863   1.995   1.367   4.671 -0.3026  0.0325  0.0251
  681MOL0     C91864   1.990   1.431   4.539  0.0012  0.5725 -0.3582
  681MOL0     C91865   2.009   1.470   4.429  0.3258 -0.1025  0.4601
  681MOL0     C91866   1.642   1.577   4.930  0.2636  0.3645  0.2989
  681MOL0     C91867   1.558   1.692   4.915  0.1221  0.4087 -0.9291
  681MOL0     H91868   1.601   2.162   4.843 -0.5979  0.3604  0.8892
  681MOL0     H91869   1.506   2.400   4.794  2.2385 -1.1924  0.0360
  681MOL0     H91870   1.438   2.616   5.062 -1.5555 -2.4753 -0.1426
  681MOL0     H91871   1.512   2.611   4.897 -0.3330  2.1565  0.3800
  681MOL0     H91872   1.428   2.833   4.926 -0.7432  0.6547 -0.3595
  681MOL0     H91873   1.350   2.753   4.797 -0.9054  3.2893 -0.7840
  681MOL0     H91874   1.160   2.686   4.975 -1.0658  0.4948 -4.2072
  681MOL0     H91875   1.228   2.808   5.078 -0.2482  1.0091 -1.0149
  681MOL0     H91876   1.126   2.846   4.775 -1.3813  2.5592 -0.5697
  681MOL0     H91877   1.030   2.856   4.928 -0.1727 -0.9154 -0.9637
  681MOL0     H91878   1.161   3.049   4.991  0.1264 -0.6241 -0.1613
  681MOL0     H91879   1.276   3.025   4.862  0.3751  1.9720  1.1270
  681MOL0     H91880   1.060   3.046   4.709 -2.4887 -0.3464  1.2633
  681MOL0     H91881   0.982   3.121   4.842  1.4429  1.3047  2.1773
  681MOL0     H91882   1.067   3.328   4.803 -1.6039 -0.6555 -0.2403
  681MOL0     H91883   1.223   3.257   4.846 -0.9091  2.7242  0.7599
  681MOL0     H91884   1.106   3.252   4.567  0.4754 -0.9355  0.9319
  681MOL0     H91885   1.262   3.173   4.618  1.9565  0.4205 -0.0398
  681MOL0     H91886   1.177   3.539   4.727  2.3760  2.4480  0.0542
  681MOL0     H91887   1.340   3.749   4.457  0.9803  1.2496  0.6820
  681MOL0     H91888   1.196   3.747   4.560 -0.4347  0.9035 -1.2264
  681MOL0     H91889   1.489   3.742   4.662  1.7682  1.7210  1.6697
  681MOL0     H91890   1.352   3.766   4.771 -2.3044  2.9394 -0.8444
  681MOL0     H91891   1.332   3.989   4.685 -0.9329 -0.9930 -1.1764
  681MOL0     H91892   1.440   3.948   4.540  2.5553  1.0741 -0.6705
  681MOL0     H91893   1.628   3.922   4.691 -0.4630 -0.2612 -6.4976
  681MOL0     H91894   1.511   3.991   4.822  2.2079 -0.1011  0.2103
  681MOL0     H91895   1.803   4.031   4.634  0.7988  1.0222 -0.4891
  681MOL0     H91896   2.107   4.149   4.649  2.7524 -3.1504 -1.1467
  681MOL0     H91897   2.111   4.044   4.784  0.0589  1.5597  0.1249
  681MOL0     H91898   2.016   3.993   4.650  2.8457 -1.3865  1.7399
  681MOL0     H91899   2.319   4.340   4.698 -1.8253 -2.7101  0.7136
  681MOL0     H91900   2.579   4.416   4.732  1.8978 -0.9875  2.5006
  681MOL0     H91901   2.751   4.396   5.123  2.0864 -0.4925  0.8469
  681MOL0     H91902   2.879   4.461   5.027  0.3041  3.2835 -0.1442
  681MOL0     H91903   2.644   4.618   5.148  0.1548 -2.6876  0.9847
  681MOL0     H91904   2.811   4.612   5.195 -1.0638  2.5096  0.0942
  681MOL0     H91905   2.711   4.758   4.956 -0.9327 -2.1519  0.8594
  681MOL0     H91906   2.881   4.707   4.957 -0.8189 -1.0604 -0.3140
  681MOL0     H91907   2.764   4.856   5.189  2.0395 -0.6288  1.3342
  681MOL0     H91908   2.922   4.815   5.174  0.7024 -0.7752 -1.2108
  681MOL0     H91909   2.948   4.949   4.965 -1.0783  1.1837 -2.1196
  681MOL0     H91910   2.911   5.051   5.100  2.1345 -1.7816  1.0683
  681MOL0     H91911   2.803   5.100   4.897  1.5064 -4.1635 -4.0242
  681MOL0     H91912   2.699   4.969   4.892 -2.7788  1.4126  0.6014
  681MOL0     H91913   2.699   5.179   5.114  3.5867 -3.0080  0.1748
  681MOL0     H91914   2.627   5.026   5.148  2.3885 -0.2628  0.1743
  681MOL0     H91915   2.450   5.180   5.069 -1.2242  0.3979 -0.6229
  681MOL0     H91916   2.476   5.056   4.944 -0.0590 -0.3294  2.1350
  681MOL0     H91917   2.490   4.430   5.143 -1.8150  0.3875  1.2475
  681MOL0     H91918   2.287   4.348   5.117  0.4780 -2.5958  1.0188
  681MOL0     H91919   1.798   4.374   4.987 -0.2288  1.3931 -1.2938
  681MOL0     H91920   1.589   4.306   4.876  0.0067  0.9487 -1.2526
  681MOL0     H91921   1.259   2.367   5.146  1.1097  2.7883 -0.2422
  681MOL0     H91922   1.370   2.139   5.187  0.1449 -0.8945 -0.2091
  681MOL0     H91923   1.737   1.883   5.126 -0.9882  1.2964 -1.5462
  681MOL0     H91924   1.869   1.672   5.171  0.7781  0.1527 -1.1459
  681MOL0     H91925   1.782   1.253   5.062 -1.4775 -0.7854 -1.2981
  681MOL0     H91926   1.665   1.334   4.959  0.6932 -1.0530 -2.4190
  681MOL0     H91927   1.839   1.201   4.832 -1.7414  0.8988  0.9418
  681MOL0     H91928   1.968   1.277   4.923  1.4211  0.3990 -2.8669
  681MOL0     H91929   1.873   1.494   4.777  1.6524  0.6844  0.4344
  681MOL0     H91930   1.775   1.379   4.702 -0.5028 -1.8277  1.4395
  681MOL0     H91931   2.006   1.260   4.652 -3.0720 -0.3262  0.0555
  681MOL0     H91932   2.080   1.418   4.718 -1.0310  0.8458  0.4863
  681MOL0     H91933   2.029   1.506   4.330  1.4333  1.4752  1.2063
  681MOL0     H91934   1.629   1.500   4.854 -0.3570  1.0178 -0.2753
  681MOL0     H91935   1.479   1.694   4.841 -1.6971  0.2267  0.9136
  682MOL0     O91936   5.132   8.228  10.840 -0.7067  1.3441 -0.1470
  682MOL0     C91937   5.232   8.258  10.778  0.7969  0.5120  0.2043
  682MOL0     O91938   5.352   8.212  10.803 -0.1254  0.7033 -0.3888
  682MOL0     C91939   5.380   8.148  10.921 -0.4526 -0.6246 -0.0765
  682MOL0     C91940   5.364   8.196  11.055  0.0228 -0.3824  1.0694
  682MOL0     C91941   5.380   8.117  11.167  0.0971 -0.8888  0.3710
  682MOL0     C91942   5.415   7.979  11.149  0.3604 -0.0145 -0.1468
  682MOL0     O91943   5.432   7.886  11.251  0.0956  0.1814  0.8274
  682MOL0     C91944   5.471   7.935  11.381 -0.4773 -0.2848  0.9416
  682MOL0     C91945   5.529   7.803  11.442  1.3671 -0.4486  0.2513
  682MOL0     C91946   5.418   7.693  11.453 -0.6635 -0.8160  0.3343
  682MOL0     C91947   5.488   7.556  11.483  0.5550 -0.1072  0.3909
  682MOL0     C91948   5.386   7.450  11.522 -0.3512 -0.3059  0.2168
  682MOL0     C91949   5.443   7.316  11.569  0.3489 -0.6542  0.4664
  682MOL0     C91950   5.327   7.224  11.628 -0.5460  0.0063  0.2311
  682MOL0     C91951   5.309   7.242  11.780 -1.5305 -0.7455  0.0355
  682MOL0     N91952   5.234   7.150  11.860 -1.3191  0.4880 -0.6717
  682MOL0     C91953   5.268   7.016  11.868 -1.0696  0.2910  0.1557
  682MOL0     C91954   5.181   6.961  11.949  0.2383  0.3924  0.4690
  682MOL0     C91955   5.172   6.815  12.008 -0.5094 -0.9009 -0.9481
  682MOL0     C91956   5.306   6.770  12.079  0.3954 -0.1082  0.1551
  682MOL0     C91957   5.386   6.864  12.173  1.0226 -0.3492 -0.2044
  682MOL0     C91958   5.307   6.920  12.291  0.5136 -0.1380 -0.5271
  682MOL0     O91959   5.280   6.823  12.399 -0.3708  0.3133  0.2065
  682MOL0     C91960   5.164   6.857  12.476 -0.1749  0.3310 -0.1463
  682MOL0     C91961   5.091   6.753  12.529 -0.1804  1.1247  0.7058
  682MOL0     C91962   4.972   6.767  12.588  0.1677 -0.1779  0.0530
  682MOL0     C91963   4.908   6.628  12.629 -0.3267 -0.4144  0.4630
  682MOL0     C91964   4.916   6.900  12.612 -0.2507  0.1486 -0.0160
  682MOL0     C91965   4.783   6.931  12.673 -1.1849  0.0335 -0.1225
  682MOL0     O91966   4.704   6.824  12.716 -0.3895  0.2918 -0.1014
  682MOL0     C91967   4.612   6.845  12.818  0.5436  1.1984 -0.2948
  682MOL0     C91968   4.477   6.852  12.808  0.6599  0.1435  0.2649
  682MOL0     C91969   4.395   6.869  12.924 -0.2864 -0.0119 -0.2119
  682MOL0     C91970   4.454   6.864  13.051  0.1273 -1.0024  0.2172
  682MOL0     O91971   4.392   6.863  13.168 -0.7306 -0.2202 -1.1039
  682MOL0     C91972   4.245   6.871  13.173 -0.3233  0.0485 -0.9968
  682MOL0     C91973   4.177   6.841  13.306 -0.8350  0.2364  0.6967
  682MOL0     C91974   4.236   6.707  13.365  0.5048  0.2849 -0.2519
  682MOL0     C91975   4.198   6.715  13.521 -0.0241  0.4164  0.3438
  682MOL0     C91976   4.052   6.684  13.541 -0.1096  0.1502 -0.3934
  682MOL0     C91977   4.021   6.678  13.693  0.5877 -0.1817 -0.5624
  682MOL0     C91978   3.886   6.613  13.715  0.5678  0.5937 -1.0007
  682MOL0     C91979   3.889   6.462  13.713 -0.0982  0.4644 -0.0480
  682MOL0    Cl91980   3.971   6.381  13.858 -0.0962 -0.0582  0.0764
  682MOL0     C91981   4.592   6.851  13.067  0.3318  0.4013  0.5212
  682MOL0     C91982   4.665   6.832  12.947 -0.2575 -0.5264 -0.5774
  682MOL0     O91983   4.757   7.047  12.690  0.1924 -0.2638  0.2331
  682MOL0     C91984   4.989   7.010  12.559  0.1052  0.0101 -0.4968
  682MOL0     C91985   5.114   6.986  12.505 -0.3096  0.1871  0.4351
  682MOL0     N91986   5.100   7.057  11.992  0.5213  0.1678 -0.2685
  682MOL0     N91987   5.142   7.172  11.960  0.9033 -0.0319 -0.4901
  682MOL0     C91988   5.445   7.933  11.019 -0.2049  0.8112  0.0518
  682MOL0     C91989   5.434   8.023  10.915  0.5481  0.6153  0.9608
  682MOL0     C91990   5.214   8.348  10.658  0.4033 -0.4119 -0.7595
  682MOL0     C91991   5.088   8.368  10.592  0.1661 -0.2396  0.1161
  682MOL0     C91992   5.089   8.459  10.478 -0.4160  0.7420  0.9746
  682MOL0     C91993   5.206   8.524  10.432  0.7115 -0.2692 -1.3472
  682MOL0     O91994   5.207   8.592  10.312  0.0836  0.8616 -0.8002
  682MOL0     C91995   5.099   8.675  10.264 -0.2236 -0.3079  0.1637
  682MOL0     C91996   5.139   8.832  10.253 -0.7209  0.4419  0.9866
  682MOL0     C91997   5.280   8.843  10.201  0.2716 -0.3924  1.5101
  682MOL0     C91998   5.328   8.980  10.188  0.6370  0.7085 -0.2894
  682MOL0     C91999   5.402   9.014  10.316  0.9192  0.5321  0.3125
  682MOL0     C92000   5.468   9.039  10.408  0.5234 -0.2460 -0.0504
  682MOL0     C92001   5.319   8.505  10.506 -0.0764 -0.7166 -0.9057
  682MOL0     C92002   5.323   8.418  10.616 -0.9258 -0.4991 -0.9200
  682MOL0     H92003   5.308   8.289  11.066 -1.7707 -1.6612  4.3144
  682MOL0     H92004   5.356   8.150  11.268  1.0446  0.4828  0.1784
  682MOL0     H92005   5.537   8.021  11.368  0.6410 -1.0826  1.2022
  682MOL0     H92006   5.384   7.972  11.435  0.1422  0.9753  1.1208
  682MOL0     H92007   5.615   7.768  11.384  0.7531 -0.6136 -0.5863
  682MOL0     H92008   5.579   7.823  11.538  2.9928 -6.4344  1.0331
  682MOL0     H92009   5.344   7.728  11.526  0.0518  5.2502 -1.3319
  682MOL0     H92010   5.366   7.682  11.358  0.9103 -3.7587 -0.3081
  682MOL0     H92011   5.536   7.508  11.397 -0.6672 -2.7670  1.0782
  682MOL0     H92012   5.564   7.554  11.562  3.3603 -3.0073 -2.0900
  682MOL0     H92013   5.318   7.489  11.598 -0.7977 -1.1260  0.2406
  682MOL0     H92014   5.316   7.434  11.439  3.0788 -0.7396 -2.8687
  682MOL0     H92015   5.487   7.276  11.477 -1.2362  1.8774 -1.5483
  682MOL0     H92016   5.520   7.334  11.644 -0.3355 -1.7098  1.4503
  682MOL0     H92017   5.228   7.232  11.581  0.2980  1.7761 -1.3646
  682MOL0     H92018   5.359   7.121  11.614  1.4197  0.7979 -1.5814
  682MOL0     H92019   5.274   7.345  11.794 -0.1408 -0.4632  1.7140
  682MOL0     H92020   5.413   7.230  11.814 -0.6421 -1.4966 -2.6873
  682MOL0     H92021   5.353   6.962  11.826 -0.8342 -0.3091  1.3744
  682MOL0     H92022   5.105   6.824  12.093  0.6869  2.7983 -0.2461
  682MOL0     H92023   5.138   6.741  11.935  1.8233 -2.8203 -0.2363
  682MOL0     H92024   5.365   6.741  11.992  0.3257  1.7191 -0.5440
  682MOL0     H92025   5.292   6.675  12.132  2.0542 -0.2841  0.3262
  682MOL0     H92026   5.418   6.948  12.111  2.9049 -0.8655 -0.0060
  682MOL0     H92027   5.477   6.814  12.209  0.5883 -1.0893 -0.0993
  682MOL0     H92028   5.220   6.980  12.265 -0.0679  0.4834  2.5120
  682MOL0     H92029   5.382   6.983  12.340  1.1849 -1.0403 -0.3559
  682MOL0     H92030   5.129   6.653  12.513  2.6576  2.3166 -0.5669
  682MOL0     H92031   4.950   6.538  12.583 -0.4293 -0.3792  0.3024
  682MOL0     H92032   4.918   6.623  12.738 -0.2007 -1.8935  0.4031
  682MOL0     H92033   4.800   6.632  12.609 -0.7871  1.2699  2.8078
  682MOL0     H92034   4.432   6.851  12.710 -0.8238 -0.0166  0.9216
  682MOL0     H92035   4.287   6.880  12.923 -0.2943  1.4948  2.8614
  682MOL0     H92036   4.204   6.961  13.126  1.6332 -0.8671 -4.8557
  682MOL0     H92037   4.211   6.790  13.108 -0.9355 -2.5203  2.2302
  682MOL0     H92038   4.193   6.922  13.379 -4.6617  0.0770  1.9514
  682MOL0     H92039   4.070   6.828  13.289 -0.5720 -2.5886  0.7770
  682MOL0     H92040   4.345   6.709  13.369  0.4987 -0.6097  2.0616
  682MOL0     H92041   4.199   6.615  13.319 -0.7907 -0.3864  1.9605
  682MOL0     H92042   4.249   6.639  13.581  1.4008 -0.5781 -1.9908
  682MOL0     H92043   4.222   6.811  13.568  1.8076  0.5339 -0.7280
  682MOL0     H92044   4.038   6.585  13.496 -1.3140  0.8882 -1.7197
  682MOL0     H92045   3.978   6.751  13.498 -0.9530 -1.8612 -2.2702
  682MOL0     H92046   4.094   6.615  13.744  1.0860  1.0931  0.3488
  682MOL0     H92047   4.027   6.779  13.736  3.2479 -0.6223  0.3002
  682MOL0     H92048   3.814   6.639  13.638 -0.1872  2.1267  0.1742
  682MOL0     H92049   3.858   6.645  13.816  1.1499 -0.4866 -0.4797
  682MOL0     H92050   3.928   6.419  13.621 -3.8017  1.0649 -2.0987
  682MOL0     H92051   3.786   6.427  13.722  0.6301 -1.4680  1.5370
  682MOL0     H92052   4.626   6.851  13.170 -1.9264 -3.5953  1.4821
  682MOL0     H92053   4.773   6.819  12.957 -0.0824  0.5673 -0.8440
  682MOL0     H92054   4.961   7.115  12.564 -0.1151 -0.0963  0.7484
  682MOL0     H92055   5.173   7.072  12.474 -0.8453  0.0083 -1.2010
  682MOL0     H92056   5.493   7.835  11.014  2.9250  2.2922 -2.7756
  682MOL0     H92057   5.462   7.994  10.814  2.7577  1.0888  1.3838
  682MOL0     H92058   5.006   8.299  10.609 -0.7767  0.7423 -0.3236
  682MOL0     H92059   4.998   8.466  10.419  0.0282  0.2681  0.2151
  682MOL0     H92060   5.052   8.635  10.174 -0.8430  0.5112  0.1163
  682MOL0     H92061   5.020   8.669  10.339  1.4953  0.1697  2.1258
  682MOL0     H92062   5.132   8.868  10.356 -2.6453 -0.4169  1.1957
  682MOL0     H92063   5.066   8.892  10.200 -0.3763  0.6373  0.7268
  682MOL0     H92064   5.279   8.803  10.099 -2.7171  2.0896  0.4345
  682MOL0     H92065   5.349   8.777  10.254  0.8117 -2.9284 -2.0279
  682MOL0     H92066   5.246   9.053  10.184 -0.6736 -0.7152 -0.5792
  682MOL0     H92067   5.393   8.981  10.100  0.6520 -3.0500 -0.4583
  682MOL0     H92068   5.503   9.085  10.498 -2.8544  2.1470  0.2325
  682MOL0     H92069   5.408   8.561  10.479 -1.6429  1.5514 -1.6250
  682MOL0     H92070   5.419   8.410  10.666 -0.9749  1.0354 -0.5124
  683MOL0     O92071  11.494   7.091  10.580 -0.3907 -0.1558 -0.0734
  683MOL0     C92072  11.488   7.171  10.676 -0.3245  0.9281 -0.0800
  683MOL0     O92073  11.405   7.275  10.696  0.2060  0.1404 -0.2171
  683MOL0     C92074  11.298   7.276  10.624 -0.4033  0.5724  1.3726
  683MOL0     C92075  11.182   7.226  10.672  0.6434  0.9140 -0.5855
  683MOL0     C92076  11.070   7.208  10.593  0.5523  0.7174  0.1304
  683MOL0     C92077  11.065   7.260  10.465  0.3380 -1.0736  0.2222
  683MOL0     O92078  10.945   7.263  10.402  0.8248  0.7973 -0.3309
  683MOL0     C92079  10.923   7.304  10.261 -0.8074  0.1016  0.3511
  683MOL0     C92080  10.777   7.324  10.219 -0.3330  0.2294  0.3849
  683MOL0     C92081  10.718   7.453  10.282  0.0109 -0.3464  0.5475
  683MOL0     C92082  10.564   7.463  10.245  1.2821 -0.3215  0.1565
  683MOL0     C92083  10.508   7.580  10.324  0.1124  0.1135  0.3095
  683MOL0     C92084  10.353   7.579  10.317 -1.3163 -0.6357  0.2596
  683MOL0     C92085  10.295   7.602  10.181  0.6127 -0.1702 -0.4594
  683MOL0     C92086  10.144   7.579  10.181  0.2516 -0.2018 -0.0022
  683MOL0     N92087  10.073   7.670  10.265  0.3170 -0.1301  0.0421
  683MOL0     C92088  10.004   7.612  10.367 -0.8262 -0.3451 -1.0948
  683MOL0     C92089   9.930   7.710  10.423 -0.0364 -0.1911  0.3806
  683MOL0     C92090   9.832   7.701  10.535  0.5042  0.4578 -0.5563
  683MOL0     C92091   9.907   7.678  10.666 -0.6995  0.6810 -0.9941
  683MOL0     C92092   9.953   7.814  10.731 -0.0024 -0.0442 -0.6575
  683MOL0     C92093   9.837   7.906  10.786 -0.0930 -0.7250  0.0191
  683MOL0     O92094   9.753   7.857  10.896  0.0839 -0.5829 -0.0087
  683MOL0     C92095   9.807   7.859  11.023  0.0709 -0.7652  0.2778
  683MOL0     C92096   9.885   7.958  11.076  0.3147  0.0080  0.4286
  683MOL0     C92097   9.933   7.957  11.205  0.4973  0.1354 -0.5344
  683MOL0     C92098  10.052   8.049  11.238 -0.7197 -0.2549  0.3443
  683MOL0     C92099   9.882   7.861  11.291 -0.8829  0.4959 -0.3513
  683MOL0     C92100   9.907   7.852  11.438 -0.3494 -0.1670  0.3156
  683MOL0     O92101   9.827   7.759  11.508 -0.5124  0.9205 -0.2950
  683MOL0     C92102   9.873   7.730  11.637  0.5649  0.1146  0.5669
  683MOL0     C92103   9.965   7.638  11.662 -0.3809  0.1238 -0.0454
  683MOL0     C92104  10.005   7.591  11.791 -0.1554 -0.4121 -0.9287
  683MOL0     C92105   9.944   7.653  11.905 -0.0249 -0.1751  0.7454
  683MOL0     O92106   9.973   7.620  12.036  0.4098 -0.0170 -1.0513
  683MOL0     C92107  10.025   7.724  12.116  1.3554 -0.0683  0.2991
  683MOL0     C92108  10.155   7.782  12.062  0.1042 -0.3315 -0.0800
  683MOL0     C92109  10.266   7.683  12.055 -0.3680  0.8574  0.3352
  683MOL0     C92110  10.400   7.772  12.053  0.3886  0.1926 -0.9656
  683MOL0     C92111  10.518   7.684  12.027 -0.5187 -0.2019  0.2461
  683MOL0     C92112  10.650   7.766  12.002  0.9390  0.3948  0.6136
  683MOL0     C92113  10.744   7.686  11.924 -0.8529 -0.2490  0.2385
  683MOL0     C92114  10.850   7.774  11.872 -0.1419  0.0100 -0.8679
  683MOL0    Cl92115  10.946   7.681  11.757 -0.4084 -0.0898 -0.6814
  683MOL0     C92116   9.845   7.758  11.874  0.3865  0.4938 -0.6897
  683MOL0     C92117   9.822   7.793  11.747  0.3674 -0.0014  0.4686
  683MOL0     O92118   9.980   7.935  11.486 -0.2091 -0.4670  0.4626
  683MOL0     C92119   9.808   7.759  11.240  0.1899 -0.5844  0.1900
  683MOL0     C92120   9.773   7.753  11.106  0.1206 -0.3107 -0.4571
  683MOL0     N92121   9.970   7.825  10.358 -0.2919  0.2618  0.5084
  683MOL0     N92122  10.058   7.801  10.257 -0.7811 -0.4417  0.1703
  683MOL0     C92123  11.189   7.303  10.414  0.2880 -0.2916 -1.7415
  683MOL0     C92124  11.306   7.310  10.492 -0.0670 -0.1945 -1.1298
  683MOL0     C92125  11.572   7.134  10.801  0.0570 -0.4248  0.0088
  683MOL0     C92126  11.682   7.042  10.775  2.0072 -0.9278 -0.0583
  683MOL0     C92127  11.773   7.030  10.872  0.1676  0.9292 -0.0820
  683MOL0     C92128  11.755   7.085  11.004 -1.0826  0.6139  0.0019
  683MOL0     O92129  11.843   7.060  11.105  1.4851 -0.3124 -1.8476
  683MOL0     C92130  11.981   7.093  11.082  0.1816 -0.5187  0.1528
  683MOL0     C92131  12.001   7.241  11.080  0.0528 -0.6052  0.2879
  683MOL0     C92132  11.937   7.318  11.205  0.9592  0.4383  0.0522
  683MOL0     C92133  12.010   7.306  11.345  0.2088 -0.3800 -0.5145
  683MOL0     C92134  12.154   7.335  11.332 -0.0058  0.9160  0.2512
  683MOL0     C92135  12.269   7.368  11.327  0.6230  0.1991  0.2379
  683MOL0     C92136  11.651   7.172  11.024  0.2016 -0.1255  0.1055
  683MOL0     C92137  11.553   7.194  10.926  0.4950  0.3031 -0.0680
  683MOL0     H92138  11.175   7.190  10.774  0.7182 -2.7124 -1.7202
  683MOL0     H92139  10.978   7.159  10.624  0.5327 -0.7450 -2.0255
  683MOL0     H92140  10.984   7.393  10.244 -0.3246 -0.2703  0.0958
  683MOL0     H92141  10.971   7.231  10.196 -1.7360 -0.6089  0.4360
  683MOL0     H92142  10.767   7.328  10.110 -3.4193  3.4957  0.6026
  683MOL0     H92143  10.719   7.238  10.253 -1.5088  0.7197 -0.3217
  683MOL0     H92144  10.729   7.453  10.391 -0.5601  2.9261  0.6846
  683MOL0     H92145  10.774   7.541  10.251 -2.0481  0.1965 -1.9552
  683MOL0     H92146  10.548   7.488  10.140  0.0584 -2.0589 -0.1092
  683MOL0     H92147  10.510   7.371  10.267 -1.3378  1.1822  0.4178
  683MOL0     H92148  10.524   7.571  10.432  0.1592  3.0663  0.6155
  683MOL0     H92149  10.537   7.680  10.290  0.6700 -0.7040 -1.7994
  683MOL0     H92150  10.326   7.481  10.358  0.2045 -0.0315  2.9380
  683MOL0     H92151  10.316   7.662  10.378 -2.3982 -1.9399  1.4610
  683MOL0     H92152  10.330   7.690  10.127 -1.7372 -0.5520 -2.8173
  683MOL0     H92153  10.335   7.518  10.124 -1.4514 -1.7489  0.2671
  683MOL0     H92154  10.140   7.480  10.226 -0.7384  0.5099  1.5620
  683MOL0     H92155  10.107   7.590  10.079  0.4735  0.6694  0.0007
  683MOL0     H92156   9.990   7.513  10.408 -2.6322 -1.5083 -4.1899
  683MOL0     H92157   9.761   7.783  10.520 -0.0143  0.1693  0.2761
  683MOL0     H92158   9.777   7.608  10.519  1.6789 -0.9812  2.9867
  683MOL0     H92159   9.996   7.616  10.657 -1.0809 -0.5258  2.2492
  683MOL0     H92160   9.846   7.624  10.739  0.6787  3.4215  2.4793
  683MOL0     H92161  10.021   7.869  10.666  0.2835  0.3229 -0.0590
  683MOL0     H92162  10.007   7.776  10.818 -0.4475  1.8912  0.5289
  683MOL0     H92163   9.780   7.945  10.701 -1.2192  0.3279  1.2111
  683MOL0     H92164   9.893   7.995  10.814  1.5559 -2.4790  2.7633
  683MOL0     H92165   9.912   8.044  11.015  1.0846  0.8229  1.8562
  683MOL0     H92166  10.023   8.135  11.299  2.0555  0.7539  0.3921
  683MOL0     H92167  10.117   7.980  11.293 -1.6371 -1.6960 -0.3409
  683MOL0     H92168  10.102   8.076  11.144  0.8135 -1.6087  0.7239
  683MOL0     H92169  10.026   7.595  11.584  0.6668 -1.6371  1.6766
  683MOL0     H92170  10.091   7.525  11.791 -1.1414 -1.7622 -1.7420
  683MOL0     H92171   9.953   7.805  12.131  3.3226  1.1460  4.8118
  683MOL0     H92172  10.054   7.686  12.215  2.3007 -0.8228 -0.2513
  683MOL0     H92173  10.132   7.817  11.961 -1.1172  0.5842  0.4983
  683MOL0     H92174  10.178   7.872  12.119  0.0130 -0.5375  0.2851
  683MOL0     H92175  10.260   7.609  11.975  1.0189 -0.0983  1.0706
  683MOL0     H92176  10.284   7.620  12.142  0.2652  0.7584  0.1391
  683MOL0     H92177  10.395   7.856  11.983 -0.6943  1.4031  0.4994
  683MOL0     H92178  10.415   7.831  12.144  1.5189 -1.3711 -0.0785
  683MOL0     H92179  10.498   7.627  11.935  3.4019  0.2912 -1.1240
  683MOL0     H92180  10.534   7.616  12.111  2.0158 -0.7436 -0.5718
  683MOL0     H92181  10.627   7.855  11.943  0.3710  0.3644  0.7845
  683MOL0     H92182  10.688   7.806  12.096 -0.3282  2.6437  0.2366
  683MOL0     H92183  10.698   7.634  11.839  1.0894  0.4101 -1.2996
  683MOL0     H92184  10.790   7.623  12.001  2.0994  0.0237 -1.1554
  683MOL0     H92185  10.908   7.819  11.953 -1.8304  1.6372 -0.4933
  683MOL0     H92186  10.799   7.851  11.813 -0.7486 -0.4564 -0.9774
  683MOL0     H92187   9.787   7.803  11.954  4.4125  1.6401  1.8641
  683MOL0     H92188   9.757   7.879  11.738  2.1211  1.3463  0.0487
  683MOL0     H92189   9.767   7.679  11.300 -0.8669 -2.6501 -3.0151
  683MOL0     H92190   9.702   7.679  11.072 -1.8830  0.7426  1.2161
  683MOL0     H92191  11.202   7.353  10.318  0.2545  2.8752 -0.2473
  683MOL0     H92192  11.405   7.341  10.460  0.6167 -1.3842 -0.2464
  683MOL0     H92193  11.703   6.993  10.680  2.2145 -0.3859 -0.2990
  683MOL0     H92194  11.856   6.963  10.852 -0.2719 -0.7230  3.0662
  683MOL0     H92195  12.041   7.056  11.166 -0.8066  0.8767  1.5387
  683MOL0     H92196  12.018   7.050  10.989 -3.2257 -5.0026  0.5529
  683MOL0     H92197  11.956   7.272  10.986  2.5158  3.7444  0.2551
  683MOL0     H92198  12.109   7.258  11.085  0.3284 -1.0510 -2.6831
  683MOL0     H92199  11.829   7.319  11.221  1.2040 -1.3975  2.2752
  683MOL0     H92200  11.950   7.424  11.180  1.8812  0.3150 -0.0513
  683MOL0     H92201  11.991   7.203  11.375 -2.0421 -1.1181 -3.8884
  683MOL0     H92202  11.976   7.382  11.417 -0.3444 -1.9137  0.9168
  683MOL0     H92203  12.359   7.425  11.317 -0.4673  2.0404  0.4474
  683MOL0     H92204  11.626   7.220  11.118  0.1590  0.8322 -0.3833
  683MOL0     H92205  11.468   7.262  10.936 -0.9489 -0.8405 -3.1540
  684MOL0     O92206  10.183   7.244  11.434 -0.0211 -0.2816  0.2278
  684MOL0     C92207  10.181   7.123  11.436 -0.3920 -0.4632 -0.3679
  684MOL0     O92208  10.096   7.046  11.510  0.2627  0.0925 -0.0623
  684MOL0     C92209  10.016   7.102  11.611  0.1142  0.8181  0.2806
  684MOL0     C92210   9.912   7.014  11.646  0.0189 -0.1156  0.2083
  684MOL0     C92211   9.821   7.022  11.744  0.1150  0.3906 -0.2428
  684MOL0     C92212   9.826   7.137  11.828 -0.1321 -0.8148  0.5240
  684MOL0     O92213   9.738   7.160  11.935 -0.2081  0.4894 -0.3531
  684MOL0     C92214   9.722   7.287  12.000 -0.0373  0.4285  1.3617
  684MOL0     C92215   9.586   7.291  12.083 -1.2569 -0.5813  1.0163
  684MOL0     C92216   9.584   7.397  12.201  0.2909  0.4890  1.1315
  684MOL0     C92217   9.536   7.526  12.135  0.6800  0.5108 -0.1229
  684MOL0     C92218   9.546   7.637  12.234 -0.2760  0.2736 -0.2570
  684MOL0     C92219   9.427   7.636  12.340 -0.1025  0.7382  0.1016
  684MOL0     C92220   9.432   7.761  12.429 -0.8241 -0.4050 -0.7290
  684MOL0     C92221   9.298   7.779  12.506 -0.3139  0.6709  0.0642
  684MOL0     N92222   9.176   7.793  12.420  0.0755  0.4630  0.5767
  684MOL0     C92223   9.064   7.714  12.425 -0.4824 -0.2259  0.9495
  684MOL0     C92224   9.014   7.718  12.297 -0.0884  0.6354  0.4790
  684MOL0     C92225   8.907   7.641  12.228  0.1377 -0.4927  0.0906
  684MOL0     C92226   8.772   7.679  12.293  0.4599  0.0266 -0.2674
  684MOL0     C92227   8.658   7.580  12.251 -0.0302 -0.3625  0.2043
  684MOL0     C92228   8.528   7.644  12.189 -0.1816 -0.0832 -0.5942
  684MOL0     O92229   8.428   7.542  12.165 -0.1777  0.5494  0.4878
  684MOL0     C92230   8.301   7.582  12.123 -0.2629  0.0281  1.7686
  684MOL0     C92231   8.265   7.718  12.099 -0.3276  0.2714 -0.2042
  684MOL0     C92232   8.145   7.740  12.032 -1.1091 -0.6667  0.0436
  684MOL0     C92233   8.130   7.890  11.998  0.7418 -0.6756 -0.3859
  684MOL0     C92234   8.056   7.636  12.008  0.2885  0.0919  0.9449
  684MOL0     C92235   7.924   7.654  11.931  0.5090  0.6614 -0.1442
  684MOL0     O92236   7.827   7.750  11.951 -0.4063 -0.1130 -0.3887
  684MOL0     C92237   7.713   7.720  11.892  0.0107 -0.6072  0.5404
  684MOL0     C92238   7.602   7.711  11.975  0.2443 -0.1947  0.9319
  684MOL0     C92239   7.478   7.679  11.915 -1.1792  0.2477 -0.2017
  684MOL0     C92240   7.474   7.669  11.776  0.1909 -1.3308  0.2363
  684MOL0     O92241   7.365   7.638  11.705  0.0480  0.0012 -0.5930
  684MOL0     C92242   7.251   7.574  11.770  0.2543  1.5120  0.8770
  684MOL0     C92243   7.134   7.579  11.666  0.4258 -0.1365  0.1756
  684MOL0     C92244   7.154   7.485  11.554 -0.6604  0.1980 -0.0119
  684MOL0     C92245   7.040   7.505  11.456  0.2241  0.3259  0.1081
  684MOL0     C92246   7.058   7.410  11.339  0.0523 -0.5167  0.3767
  684MOL0     C92247   6.928   7.411  11.257 -0.7156 -0.0049  0.4207
  684MOL0     C92248   6.924   7.285  11.169 -0.4437 -0.0853 -0.9373
  684MOL0     C92249   6.897   7.159  11.243  0.4130 -0.0333 -0.3888
  684MOL0    Cl92250   6.865   7.042  11.115 -0.0231  0.0721  0.0923
  684MOL0     C92251   7.583   7.693  11.697  0.1165  0.1183 -0.6664
  684MOL0     C92252   7.702   7.716  11.752 -0.1652 -0.1345  0.1391
  684MOL0     O92253   7.911   7.562  11.846  0.5040  0.6248  0.0059
  684MOL0     C92254   8.088   7.508  12.044  0.0002 -0.5022 -0.1871
  684MOL0     C92255   8.209   7.480  12.094 -1.1696  0.1117 -0.3524
  684MOL0     N92256   9.082   7.817  12.237  0.3922 -0.1103  0.0095
  684MOL0     N92257   9.176   7.872  12.308 -0.3112  0.5634 -0.1589
  684MOL0     C92258   9.928   7.228  11.801  0.1696  0.0670  0.8619
  684MOL0     C92259  10.016   7.219  11.691 -0.1428 -0.4449  0.6301
  684MOL0     C92260  10.278   7.041  11.363  0.0371  0.4285 -0.0969
  684MOL0     C92261  10.292   6.905  11.380 -0.2043  0.3021 -0.7019
  684MOL0     C92262  10.399   6.833  11.320 -0.4573 -0.0395 -0.7642
  684MOL0     C92263  10.491   6.891  11.243 -0.3458 -0.7076 -0.0815
  684MOL0     O92264  10.607   6.831  11.209 -0.7137  0.5882 -0.0185
  684MOL0     C92265  10.607   6.685  11.195  0.3336  0.6359 -0.4001
  684MOL0     C92266  10.657   6.640  11.063 -0.4053  0.6605 -0.4416
  684MOL0     C92267  10.553   6.684  10.954  0.4419 -0.1492 -0.2572
  684MOL0     C92268  10.438   6.587  10.934 -0.7349 -1.1374 -0.8285
  684MOL0     C92269  10.326   6.644  10.860 -0.0161 -0.0241  0.1037
  684MOL0     C92270  10.251   6.703  10.790  0.2270 -0.4454 -0.0090
  684MOL0     C92271  10.469   7.032  11.222 -0.7230  0.6440 -0.0323
  684MOL0     C92272  10.365   7.098  11.271  1.1610 -0.1343  0.5101
  684MOL0     H92273   9.919   6.918  11.594  0.4372  1.6897 -3.3895
  684MOL0     H92274   9.738   6.952  11.746  1.3346 -1.0923  1.8777
  684MOL0     H92275   9.812   7.296  12.062  0.4321 -0.4420  0.8306
  684MOL0     H92276   9.716   7.355  11.914  3.7390 -2.2375 -1.4058
  684MOL0     H92277   9.507   7.313  12.011  1.0691 -0.3488 -1.6639
  684MOL0     H92278   9.562   7.196  12.131 -1.6589 -0.8266  0.3399
  684MOL0     H92279   9.519   7.359  12.281 -1.7737 -1.5958 -1.3429
  684MOL0     H92280   9.690   7.406  12.227  1.0430  1.8274 -1.9895
  684MOL0     H92281   9.602   7.532  12.048  0.8907 -0.2984 -0.0247
  684MOL0     H92282   9.431   7.522  12.105  0.5459  0.6580  0.3127
  684MOL0     H92283   9.642   7.620  12.284 -0.2381  1.1858  0.0037
  684MOL0     H92284   9.547   7.735  12.186 -2.5828  0.4488 -0.0601
  684MOL0     H92285   9.342   7.613  12.274 -0.1361  1.0367  0.0419
  684MOL0     H92286   9.428   7.545  12.401 -1.2808  0.2863 -0.5238
  684MOL0     H92287   9.508   7.734  12.503 -1.7956 -2.5944 -0.4266
  684MOL0     H92288   9.452   7.854  12.376  0.2132 -0.1589  0.0686
  684MOL0     H92289   9.314   7.869  12.566 -2.3657  0.2301  1.3609
  684MOL0     H92290   9.302   7.694  12.574  1.5931 -0.1021 -0.9391
  684MOL0     H92291   9.028   7.646  12.502 -0.4922  0.6516  1.7352
  684MOL0     H92292   8.904   7.661  12.121  3.0941  0.4128  0.0754
  684MOL0     H92293   8.915   7.533  12.242  1.5933 -0.2044  1.9638
  684MOL0     H92294   8.747   7.784  12.275  1.9718  0.4543 -0.0665
  684MOL0     H92295   8.785   7.664  12.400 -1.3524 -1.1838 -0.1889
  684MOL0     H92296   8.625   7.528  12.341  0.6411  3.5400  2.9785
  684MOL0     H92297   8.700   7.511  12.177  1.0919 -2.3910  2.5965
  684MOL0     H92298   8.564   7.697  12.101  0.2695  2.4918  1.0342
  684MOL0     H92299   8.490   7.720  12.258  0.3573  0.1408 -0.5432
  684MOL0     H92300   8.331   7.800  12.125 -2.2547  1.1026  2.6676
  684MOL0     H92301   8.029   7.929  12.013  0.6789 -0.6426 -0.8892
  684MOL0     H92302   8.200   7.952  12.055 -1.5510  0.5785  1.2415
  684MOL0     H92303   8.162   7.891  11.894  2.0334 -3.9089 -0.1262
  684MOL0     H92304   7.614   7.719  12.082 -2.0289 -1.9138  1.3761
  684MOL0     H92305   7.385   7.664  11.968 -0.3629  1.4842  1.7065
  684MOL0     H92306   7.264   7.467  11.788 -0.9270  0.8052 -1.9585
  684MOL0     H92307   7.224   7.624  11.863 -0.5653 -0.3976  1.7099
  684MOL0     H92308   7.034   7.564  11.708  0.5435 -2.0062 -0.1049
  684MOL0     H92309   7.139   7.677  11.620  0.8821  0.5768  1.6766
  684MOL0     H92310   7.140   7.382  11.586 -1.1338  0.8640  2.0930
  684MOL0     H92311   7.248   7.502  11.501 -1.1104  0.8104 -0.6424
  684MOL0     H92312   6.949   7.478  11.511 -1.0836  1.6682 -1.3238
  684MOL0     H92313   7.041   7.612  11.434  2.4048  0.4326  0.4605
  684MOL0     H92314   7.081   7.306  11.363 -1.0597 -0.9786 -0.4890
  684MOL0     H92315   7.133   7.449  11.271 -0.9928 -2.3077 -1.9266
  684MOL0     H92316   6.840   7.416  11.322 -0.0594  2.8017  1.2131
  684MOL0     H92317   6.935   7.500  11.195  0.0233  1.4254  2.4521
  684MOL0     H92318   7.018   7.275  11.113 -1.1376 -2.6126 -1.8001
  684MOL0     H92319   6.840   7.306  11.103 -0.8544 -1.4945 -0.9028
  684MOL0     H92320   6.814   7.160  11.315  1.5743  1.5774  0.9988
  684MOL0     H92321   6.983   7.136  11.305 -0.4560  4.2134  2.8331
  684MOL0     H92322   7.564   7.688  11.590  0.6605 -1.2100 -0.7271
  684MOL0     H92323   7.787   7.728  11.687 -0.9675 -0.5917 -1.0304
  684MOL0     H92324   8.010   7.433  12.035 -1.0888  0.8316 -2.8837
  684MOL0     H92325   8.240   7.378  12.116  0.8259  0.6737 -0.3782
  684MOL0     H92326   9.938   7.311  11.870 -1.6012 -0.4653  1.8201
  684MOL0     H92327  10.083   7.304  11.691 -0.9509  0.2402 -0.6384
  684MOL0     H92328  10.229   6.847  11.447  1.7336 -0.1783  0.8235
  684MOL0     H92329  10.398   6.726  11.340 -1.1935 -0.1303 -1.2696
  684MOL0     H92330  10.658   6.631  11.276  2.8145  0.0983 -2.1655
  684MOL0     H92331  10.507   6.642  11.200  0.4134  0.2928 -1.4688
  684MOL0     H92332  10.649   6.531  11.070  1.2831  0.6103  1.5329
  684MOL0     H92333  10.757   6.678  11.041 -0.0802  0.3401  0.4581
  684MOL0     H92334  10.593   6.719  10.858  0.0046 -0.9535 -0.7460
  684MOL0     H92335  10.489   6.767  10.986  0.6162  0.4149 -1.3283
  684MOL0     H92336  10.398   6.543  11.025 -0.1446 -3.0171 -1.4325
  684MOL0     H92337  10.490   6.512  10.874 -2.1792 -3.0088  0.1940
  684MOL0     H92338  10.192   6.764  10.724  2.9936 -2.3071 -4.6259
  684MOL0     H92339  10.541   7.077  11.154  3.1087 -6.0900 -1.4523
  684MOL0     H92340  10.356   7.205  11.257 -2.3455 -0.4394 -0.4934
  685MOL0     O92341   9.210   8.486   0.009  0.0473  0.5316  0.7406
  685MOL0     C92342   9.264   8.580  -0.033  0.1399 -0.0454  0.7176
  685MOL0     O92343   9.341   8.664   0.038  0.4387  0.9048 -0.6194
  685MOL0     C92344   9.424   8.616   0.136  0.1066  0.3606 -0.3281
  685MOL0     C92345   9.477   8.487   0.147  0.8320 -0.1594 -0.4608
  685MOL0     C92346   9.577   8.449   0.233  1.0471  0.3036  0.2213
  685MOL0     C92347   9.619   8.540   0.329  0.8043 -0.6540  0.0788
  685MOL0     O92348   9.719   8.510   0.421  0.9848  0.2070 -0.4000
  685MOL0     C92349   9.830   8.422   0.397  0.6321  0.2953  0.7358
  685MOL0     C92350   9.936   8.468   0.494 -0.9414  0.7628 -0.2750
  685MOL0     C92351  10.007   8.605   0.474  0.2254  0.0710 -0.7827
  685MOL0     C92352  10.120   8.617   0.575  0.1118 -0.4642  0.2168
  685MOL0     C92353  10.180   8.755   0.592  0.4081 -0.4383  0.1435
  685MOL0     C92354  10.078   8.859   0.653  0.4177  1.0445  0.0372
  685MOL0     C92355  10.028   8.818   0.794 -0.5751  0.1576  0.7074
  685MOL0     C92356   9.904   8.888   0.862 -0.0563  0.8444  0.0268
  685MOL0     N92357   9.906   9.027   0.885  0.3420 -0.0458  0.8182
  685MOL0     C92358   9.870   9.122   0.794  0.0578 -0.2894  0.1835
  685MOL0     C92359   9.919   9.236   0.863  0.3975  0.1408  0.3652
  685MOL0     C92360   9.931   9.371   0.810 -0.3762 -0.2900  0.2832
  685MOL0     C92361  10.073   9.427   0.788 -0.6137 -0.3781  0.6159
  685MOL0     C92362  10.175   9.406   0.908 -0.2303 -1.3961 -0.4822
  685MOL0     C92363  10.300   9.499   0.893  0.1988 -0.2602  0.8034
  685MOL0     O92364  10.294   9.637   0.926  0.4163  1.1016  0.0440
  685MOL0     C92365  10.402   9.713   0.879  0.3758  0.6602 -1.3146
  685MOL0     C92366  10.430   9.814   0.971 -0.3124  0.4398 -0.4156
  685MOL0     C92367  10.529   9.902   0.950  0.2555  0.1721 -0.1443
  685MOL0     C92368  10.544  10.007   1.049  0.7692 -0.3355  1.0517
  685MOL0     C92369  10.604   9.883   0.837 -0.5628 -1.4114  0.1148
  685MOL0     C92370  10.709   9.980   0.805 -0.1326  0.4886 -0.1425
  685MOL0     O92371  10.683  10.103   0.762  0.1996 -0.7048 -0.2796
  685MOL0     C92372  10.791  10.181   0.724 -0.1072 -0.1548 -1.3273
  685MOL0     C92373  10.798  10.299   0.797  0.1166  0.6223  0.6996
  685MOL0     C92374  10.898  10.389   0.752  0.8840 -0.5111 -0.2136
  685MOL0     C92375  10.985  10.371   0.654  0.0139 -0.4257 -0.3389
  685MOL0     O92376  11.056  10.478   0.624 -0.6395 -0.3521  0.1613
  685MOL0     C92377  11.111  10.483   0.493  0.1937 -0.4165  0.3315
  685MOL0     C92378  11.157  10.631   0.469  0.7316 -0.5473  0.2596
  685MOL0     C92379  11.244  10.650   0.345  0.4220 -0.7365 -0.5704
  685MOL0     C92380  11.295  10.799   0.323  0.6675  0.0251  0.3398
  685MOL0     C92381  11.373  10.797   0.192 -0.9787 -0.7256 -0.2438
  685MOL0     C92382  11.467  10.916   0.155 -0.0864 -0.2696  0.1418
  685MOL0     C92383  11.555  10.880   0.034  0.6518  0.1762 -0.2238
  685MOL0     C92384  11.657  10.989  -0.001 -0.1070 -0.1645  1.2139
  685MOL0    Cl92385  11.774  11.003   0.142 -0.7025 -0.4228 -0.6937
  685MOL0     C92386  10.991  10.248   0.586  0.1071  0.8594 -0.0205
  685MOL0     C92387  10.891  10.156   0.625 -0.0460  1.5351  0.0811
  685MOL0     O92388  10.817   9.917   0.803  0.1801 -0.2003  1.0065
  685MOL0     C92389  10.580   9.787   0.732 -0.3856 -0.6847  0.0648
  685MOL0     C92390  10.473   9.703   0.756  0.1507  0.3570 -0.4652
  685MOL0     N92391   9.967   9.203   0.984 -0.4834  0.6624  0.1051
  685MOL0     N92392   9.958   9.080   1.000  0.1157  0.5699  0.7419
  685MOL0     C92393   9.550   8.667   0.338 -0.7473 -0.5121 -0.4281
  685MOL0     C92394   9.464   8.711   0.235  0.9205  0.2133 -0.8157
  685MOL0     C92395   9.224   8.611  -0.168  0.8929 -0.9795 -0.2393
  685MOL0     C92396   9.120   8.548  -0.235 -0.1887  0.7685  0.6962
  685MOL0     C92397   9.085   8.580  -0.370  0.0467 -0.0929  0.7787
  685MOL0     C92398   9.153   8.688  -0.437 -0.3327  0.0611 -0.5392
  685MOL0     O92399   9.129   8.732  -0.570  0.5338  0.3223 -0.1967
  685MOL0     C92400   9.023   8.665  -0.637 -0.5491 -1.2299 -0.1787
  685MOL0     C92401   8.986   8.734  -0.767  0.6723 -0.0679 -0.6344
  685MOL0     C92402   8.951   8.880  -0.743 -0.6054 -0.1786  0.5957
  685MOL0     C92403   8.874   8.933  -0.868 -0.2167 -0.2280 -0.2424
  685MOL0     C92404   8.904   9.078  -0.891 -0.1012  0.3045  0.1042
  685MOL0     C92405   8.919   9.197  -0.903  0.3426 -0.2664  1.1243
  685MOL0     C92406   9.252   8.750  -0.373 -0.0303  0.0685  0.6678
  685MOL0     C92407   9.295   8.717  -0.240 -0.0541 -0.2704  0.5166
  685MOL0     H92408   9.442   8.421   0.068  0.7823 -0.0023 -0.5706
  685MOL0     H92409   9.613   8.347   0.232 -2.6408 -1.1685 -2.2371
  685MOL0     H92410   9.813   8.314   0.402  0.1337  0.4073  1.4233
  685MOL0     H92411   9.868   8.438   0.295 -1.9011  1.5575 -0.0856
  685MOL0     H92412   9.902   8.465   0.598  1.3057  0.2051  0.4916
  685MOL0     H92413  10.016   8.398   0.468 -1.9965 -0.9314  0.8482
  685MOL0     H92414  10.061   8.614   0.379  1.4488 -1.5879 -0.2780
  685MOL0     H92415   9.939   8.691   0.476  0.4482  0.2531  2.0580
  685MOL0     H92416  10.094   8.569   0.669 -0.8869  0.6357  0.5262
  685MOL0     H92417  10.202   8.546   0.558  0.1276 -1.2999  3.2933
  685MOL0     H92418  10.265   8.745   0.659 -0.4060 -0.8164  1.1503
  685MOL0     H92419  10.227   8.787   0.499  2.3124 -1.7865  0.5805
  685MOL0     H92420  10.125   8.956   0.674  2.5490 -0.1144  0.8571
  685MOL0     H92421  10.001   8.862   0.575 -0.3202  1.0407  0.7430
  685MOL0     H92422   9.978   8.722   0.776 -1.0217  0.3628  0.8403
  685MOL0     H92423  10.112   8.807   0.863  1.2865  0.3611 -1.4280
  685MOL0     H92424   9.885   8.841   0.959 -1.8068 -0.0675 -0.7108
  685MOL0     H92425   9.818   8.854   0.804  2.1665  0.3191 -3.1935
  685MOL0     H92426   9.831   9.121   0.693 -0.4261  3.1599  0.2193
  685MOL0     H92427   9.876   9.372   0.715  0.9855  3.3459 -0.6338
  685MOL0     H92428   9.880   9.449   0.866 -1.5240 -0.4199 -0.5473
  685MOL0     H92429  10.061   9.525   0.740 -0.5384 -1.2970 -1.3718
  685MOL0     H92430  10.110   9.370   0.703 -0.2752 -0.8114  1.0503
  685MOL0     H92431  10.199   9.300   0.915 -1.8295 -1.7443  0.2023
  685MOL0     H92432  10.125   9.431   1.002  1.3976 -1.3003  0.3963
  685MOL0     H92433  10.326   9.480   0.789 -2.0685 -0.7697  0.2665
  685MOL0     H92434  10.382   9.464   0.956  3.9235  2.8566 -1.8095
  685MOL0     H92435  10.368   9.811   1.060 -1.3130 -1.0586 -1.1165
  685MOL0     H92436  10.635  10.067   1.037 -0.0644  0.5172 -1.9911
  685MOL0     H92437  10.456  10.072   1.040 -0.4419 -1.6658  2.5984
  685MOL0     H92438  10.541   9.957   1.146  1.2813 -1.9494  0.2729
  685MOL0     H92439  10.715  10.310   0.866 -1.3855 -2.1816 -0.4849
  685MOL0     H92440  10.904  10.491   0.788 -1.6233 -0.6499  0.8345
  685MOL0     H92441  11.200  10.421   0.479  0.5998  0.3426 -0.5399
  685MOL0     H92442  11.032  10.446   0.426  0.6662 -1.6444  0.4270
  685MOL0     H92443  11.074  10.702   0.462  1.6831  0.5282 -0.6654
  685MOL0     H92444  11.201  10.678   0.558 -0.8202 -0.5874  1.0759
  685MOL0     H92445  11.189  10.626   0.254 -2.2365 -1.5934  1.1378
  685MOL0     H92446  11.329  10.583   0.362  1.1029  0.4907  1.1339
  685MOL0     H92447  11.209  10.867   0.320  0.8407  0.2507  0.3775
  685MOL0     H92448  11.362  10.840   0.400  0.4384  0.0523  0.5263
  685MOL0     H92449  11.299  10.796   0.112  1.7838  2.8425 -3.1932
  685MOL0     H92450  11.435  10.707   0.192  0.1536  0.0360 -0.9225
  685MOL0     H92451  11.398  10.998   0.134  0.7041  0.0677 -1.2345
  685MOL0     H92452  11.539  10.939   0.234  1.6765  3.5170 -2.2747
  685MOL0     H92453  11.485  10.869  -0.049 -2.2184 -1.3392  2.2023
  685MOL0     H92454  11.610  10.789   0.060  2.1340  0.7390 -1.2670
  685MOL0     H92455  11.607  11.083  -0.028  1.4810 -0.1284 -2.1133
  685MOL0     H92456  11.703  10.945  -0.090  2.3339  0.6520  1.9936
  685MOL0     H92457  11.059  10.221   0.505  1.1826 -0.5669  1.2902
  685MOL0     H92458  10.900  10.064   0.568 -1.2255  2.0929 -1.0665
  685MOL0     H92459  10.650   9.791   0.649 -1.7434  1.0162 -1.0854
  685MOL0     H92460  10.445   9.639   0.673  3.2670  2.2706 -3.2555
  685MOL0     H92461   9.580   8.745   0.407  3.2844 -0.6532 -1.7860
  685MOL0     H92462   9.427   8.812   0.221  0.6900  0.1196 -0.8837
  685MOL0     H92463   9.060   8.472  -0.187 -0.1452 -1.1727 -2.1165
  685MOL0     H92464   9.005   8.523  -0.416 -0.5861  1.1401  0.3117
  685MOL0     H92465   9.058   8.563  -0.652 -0.1223 -1.4886  2.1408
  685MOL0     H92466   8.939   8.667  -0.567  1.5055  0.1504  2.4520
  685MOL0     H92467   8.895   8.691  -0.810  0.0697 -0.7028  1.1558
  685MOL0     H92468   9.073   8.722  -0.831  0.9625 -1.1183 -0.0700
  685MOL0     H92469   9.045   8.929  -0.715  0.9703 -1.7100 -1.6469
  685MOL0     H92470   8.886   8.891  -0.656 -0.5947 -1.4923  0.7996
  685MOL0     H92471   8.767   8.913  -0.860 -0.0616 -0.5286  1.6625
  685MOL0     H92472   8.916   8.887  -0.957  1.0847 -0.8334  0.6447
  685MOL0     H92473   8.924   9.303  -0.913  1.4726 -0.3218  0.9895
  685MOL0     H92474   9.307   8.830  -0.423 -0.5826  1.6969  2.5392
  685MOL0     H92475   9.369   8.776  -0.188  0.7958 -1.3003  0.5151
  686MOL0     O92476   7.834   9.877   6.599  0.0335  0.3433  0.1106
  686MOL0     C92477   7.719   9.854   6.599  0.1091  0.2696 -0.0739
  686MOL0     O92478   7.649   9.808   6.702  0.1868  0.1704  0.2976
  686MOL0     C92479   7.725   9.765   6.811  0.4953  0.6526 -0.4732
  686MOL0     C92480   7.719   9.850   6.928  0.4306 -0.0828 -0.0158
  686MOL0     C92481   7.776   9.809   7.045 -0.1466  0.3092 -0.9372
  686MOL0     C92482   7.839   9.684   7.060  1.2060  0.1940  0.1013
  686MOL0     O92483   7.906   9.631   7.169  0.0537  0.4131 -0.5982
  686MOL0     C92484   7.892   9.699   7.299 -0.6790  1.0022  0.2878
  686MOL0     C92485   7.949   9.616   7.408 -0.0554 -0.4453 -0.0617
  686MOL0     C92486   7.942   9.659   7.550 -0.4060  0.4213  0.2938
  686MOL0     C92487   7.991   9.805   7.583 -0.1389  0.3829 -0.2945
  686MOL0     C92488   8.024   9.828   7.732  0.1059  0.8186  0.5440
  686MOL0     C92489   7.906   9.811   7.825  0.3210  0.0226 -0.7597
  686MOL0     C92490   7.935   9.841   7.979  0.6757  0.6761  0.2785
  686MOL0     C92491   7.794   9.861   8.051  1.1177 -0.2775 -0.0476
  686MOL0     N92492   7.690   9.766   8.006 -0.8184 -0.4918 -0.1102
  686MOL0     C92493   7.696   9.640   8.049  0.3960  0.5111 -0.1414
  686MOL0     C92494   7.602   9.572   7.981 -0.4995 -0.1710 -0.8491
  686MOL0     C92495   7.558   9.438   8.029  0.3538 -0.8940  0.4708
  686MOL0     C92496   7.472   9.447   8.159 -0.2131  0.2671  0.0948
  686MOL0     C92497   7.336   9.375   8.154  0.8645 -0.1133  0.6595
  686MOL0     C92498   7.281   9.354   8.286  0.3118 -0.8592  0.5449
  686MOL0     O92499   7.215   9.472   8.325  1.0491 -0.2004  0.3388
  686MOL0     C92500   7.132   9.462   8.437 -0.0304  0.1863 -0.4216
  686MOL0     C92501   7.005   9.519   8.442 -0.5678 -0.6847  0.4413
  686MOL0     C92502   6.909   9.507   8.550 -0.6111 -0.8654 -0.4647
  686MOL0     C92503   6.778   9.576   8.560 -0.0650 -0.2814  0.9204
  686MOL0     C92504   6.944   9.417   8.657 -0.4427  0.4172  0.2427
  686MOL0     C92505   6.858   9.368   8.771 -0.6413  0.0114  0.5540
  686MOL0     O92506   6.900   9.255   8.850  0.3619 -0.2362 -0.9162
  686MOL0     C92507   6.802   9.234   8.942  0.2318 -0.3722 -0.6051
  686MOL0     C92508   6.688   9.165   8.916 -1.0030  0.5426  0.6297
  686MOL0     C92509   6.595   9.148   9.016  0.3553 -0.2348  1.1859
  686MOL0     C92510   6.620   9.188   9.148  0.5118  0.5064  0.2275
  686MOL0     O92511   6.519   9.162   9.231  0.0743 -0.1159 -0.2266
  686MOL0     C92512   6.431   9.272   9.263 -0.0193 -0.4818  0.0279
  686MOL0     C92513   6.309   9.277   9.173 -1.0976  0.2069 -0.4363
  686MOL0     C92514   6.217   9.160   9.196 -0.3372 -0.3291 -0.5098
  686MOL0     C92515   6.141   9.175   9.334  0.1636  0.1970 -0.1607
  686MOL0     C92516   6.009   9.087   9.343  0.6383  0.2071  0.5615
  686MOL0     C92517   6.054   8.936   9.366  0.9235 -0.8166  0.0276
  686MOL0     C92518   5.934   8.836   9.404 -0.3206  0.4624  0.0477
  686MOL0     C92519   5.860   8.811   9.278  0.5970  0.1081 -0.5191
  686MOL0    Cl92520   5.710   8.922   9.276 -0.2294 -0.0771 -0.2828
  686MOL0     C92521   6.736   9.252   9.181 -0.6047  0.8919  0.8281
  686MOL0     C92522   6.826   9.274   9.077 -0.0273 -0.0705 -0.0142
  686MOL0     O92523   6.776   9.449   8.812  0.0890 -0.4812  0.2189
  686MOL0     C92524   7.077   9.349   8.649  0.0268 -0.6179 -0.5307
  686MOL0     C92525   7.165   9.380   8.541  0.6503  0.6089  0.0648
  686MOL0     N92526   7.529   9.669   7.904  0.2235  0.5710  0.5460
  686MOL0     N92527   7.578   9.786   7.931 -0.4070  0.2722  0.4258
  686MOL0     C92528   7.848   9.606   6.940  0.8361  0.2392  0.6888
  686MOL0     C92529   7.787   9.639   6.817  0.2688  0.4954  0.4369
  686MOL0     C92530   7.624   9.886   6.488 -0.5508 -0.3016  1.0650
  686MOL0     C92531   7.487   9.858   6.490 -0.0035 -0.3527  0.8779
  686MOL0     C92532   7.402   9.897   6.391 -0.6209 -0.6443  0.6340
  686MOL0     C92533   7.442   9.973   6.291 -0.0640 -1.3345  0.2032
  686MOL0     O92534   7.360   9.999   6.180  0.2283 -0.0507 -0.1403
  686MOL0     C92535   7.229   9.943   6.163  0.1994 -0.7045 -0.1373
  686MOL0     C92536   7.142   9.980   6.034 -0.4254  0.4989  0.2135
  686MOL0     C92537   7.028   9.874   6.011  0.1070 -0.4762  0.8947
  686MOL0     C92538   6.938   9.894   5.880 -0.4013 -0.9721  0.5667
  686MOL0     C92539   7.005   9.814   5.773  0.1481  0.0500  0.3498
  686MOL0     C92540   7.054   9.747   5.690  0.0656 -0.4670  0.0751
  686MOL0     C92541   7.571  10.016   6.285  0.1219  0.6293 -0.2316
  686MOL0     C92542   7.664   9.965   6.374 -0.4537 -1.6357 -0.5551
  686MOL0     H92543   7.679   9.943   6.890 -0.4486  0.0326  1.1330
  686MOL0     H92544   7.770   9.874   7.132 -0.3994 -1.3168  0.3128
  686MOL0     H92545   7.945   9.794   7.306 -1.5646  1.5543 -0.3222
  686MOL0     H92546   7.784   9.714   7.313 -0.6446  1.8922 -0.3511
  686MOL0     H92547   7.891   9.523   7.407 -1.3149  0.3183  0.2257
  686MOL0     H92548   8.054   9.596   7.385  0.1385 -0.5373  0.8343
  686MOL0     H92549   7.837   9.652   7.580 -1.1057 -1.7438 -2.3274
  686MOL0     H92550   7.993   9.584   7.612  0.1508 -0.7416 -1.4943
  686MOL0     H92551   8.084   9.828   7.530 -0.8576  1.6152 -1.0860
  686MOL0     H92552   7.914   9.878   7.553  1.0981  0.7872 -2.8190
  686MOL0     H92553   8.107   9.767   7.770  0.3391 -0.3652 -1.7297
  686MOL0     H92554   8.050   9.933   7.753 -1.9194  1.8029 -1.4767
  686MOL0     H92555   7.814   9.862   7.797 -1.3717 -2.1371  0.5302
  686MOL0     H92556   7.875   9.706   7.825 -1.6976  0.5853 -0.4305
  686MOL0     H92557   7.990   9.756   8.021 -2.9199 -0.0092  4.4334
  686MOL0     H92558   7.993   9.933   7.986 -2.6877  2.8740  2.6728
  686MOL0     H92559   7.759   9.960   8.020  0.2783 -0.9808 -1.4132
  686MOL0     H92560   7.797   9.855   8.161 -1.1400 -0.4449  0.0590
  686MOL0     H92561   7.769   9.612   8.124  0.5402 -3.9059 -1.6403
  686MOL0     H92562   7.509   9.386   7.945  1.0731 -3.0531  1.3131
  686MOL0     H92563   7.649   9.382   8.050  1.6842 -0.4791 -3.3795
  686MOL0     H92564   7.462   9.553   8.183  1.5057  0.7600 -1.1933
  686MOL0     H92565   7.529   9.416   8.247  0.2096  0.7723  0.0046
  686MOL0     H92566   7.358   9.281   8.102  2.6277  0.7613 -0.2735
  686MOL0     H92567   7.275   9.441   8.092  3.0337 -0.8366 -2.4460
  686MOL0     H92568   7.353   9.320   8.361  1.7950 -1.3994 -1.0501
  686MOL0     H92569   7.203   9.278   8.277 -1.1071  0.7770 -1.6830
  686MOL0     H92570   6.987   9.597   8.368  3.5615  2.0708  1.9761
  686MOL0     H92571   6.763   9.651   8.482  1.1013 -0.6628  0.2936
  686MOL0     H92572   6.701   9.500   8.553 -3.7112  3.0999  0.9336
  686MOL0     H92573   6.769   9.634   8.652 -0.9169  0.7615  0.2137
  686MOL0     H92574   6.662   9.132   8.815  0.6745  1.0558  0.0033
  686MOL0     H92575   6.497   9.121   8.979  1.0632 -1.3857  0.0928
  686MOL0     H92576   6.400   9.270   9.368  0.1569 -0.2231  0.0869
  686MOL0     H92577   6.485   9.366   9.247  1.8633 -1.7389 -1.4210
  686MOL0     H92578   6.268   9.372   9.209  0.4176  1.2981 -1.4742
  686MOL0     H92579   6.327   9.292   9.066 -1.4913  1.6310 -0.3284
  686MOL0     H92580   6.266   9.063   9.200 -1.0951 -0.7475 -1.0936
  686MOL0     H92581   6.140   9.147   9.120 -2.2233  1.3483  1.0059
  686MOL0     H92582   6.210   9.142   9.413 -2.5218 -1.0078  1.8494
  686MOL0     H92583   6.119   9.280   9.356 -0.9905 -0.0790  0.0832
  686MOL0     H92584   5.944   9.088   9.255  2.0604 -0.4687 -0.5312
  686MOL0     H92585   5.958   9.124   9.433 -0.2746  1.4555 -0.4357
  686MOL0     H92586   6.096   8.901   9.271 -1.8585 -2.5618 -0.6723
  686MOL0     H92587   6.117   8.917   9.453 -0.5902  0.0412  1.3555
  686MOL0     H92588   5.876   8.874   9.488 -0.6780 -2.5652  1.2969
  686MOL0     H92589   5.975   8.740   9.438 -1.0326  0.1719  0.1169
  686MOL0     H92590   5.831   8.706   9.274 -1.1554  0.6038 -2.9476
  686MOL0     H92591   5.920   8.828   9.187  1.1596  3.5169  0.3539
  686MOL0     H92592   6.764   9.278   9.283 -0.9159  0.8164  0.9351
  686MOL0     H92593   6.905   9.344   9.101  0.2059  0.0438 -1.0481
  686MOL0     H92594   7.106   9.299   8.741 -3.5077  1.4344  1.9387
  686MOL0     H92595   7.269   9.349   8.545  1.8916  4.4059  1.1823
  686MOL0     H92596   7.901   9.511   6.947 -1.5022 -1.1951 -0.1459
  686MOL0     H92597   7.791   9.588   6.721  1.6104  1.8717 -0.2914
  686MOL0     H92598   7.443   9.799   6.570  1.7736  0.0937  2.2515
  686MOL0     H92599   7.297   9.871   6.403 -0.3297 -3.3777 -1.5852
  686MOL0     H92600   7.230   9.834   6.174  2.2308 -0.8732 -1.2892
  686MOL0     H92601   7.171   9.986   6.245 -0.5569  2.0897 -1.9956
  686MOL0     H92602   7.208   9.986   5.947 -1.6671 -0.3172 -0.8211
  686MOL0     H92603   7.097  10.077   6.053  0.1319  1.1952 -1.7501
  686MOL0     H92604   6.956   9.892   6.091 -2.8889 -0.5305 -1.5938
  686MOL0     H92605   7.052   9.767   6.019 -1.8637 -1.0244  0.1634
  686MOL0     H92606   6.938  10.000   5.854  2.0978 -1.2261 -0.7627
  686MOL0     H92607   6.833   9.871   5.898 -0.5249  0.0900  1.3341
  686MOL0     H92608   7.096   9.676   5.622  3.7402  2.0261 -0.5147
  686MOL0     H92609   7.604  10.081   6.205  4.3983 -1.4001 -0.3940
  686MOL0     H92610   7.764  10.004   6.359 -0.4345 -2.4064 -2.8190
  687MOL0     O92611   2.132   6.091   0.701  0.7385 -0.9883 -0.6374
  687MOL0     C92612   2.185   6.162   0.787 -0.4772  0.0927 -0.3105
  687MOL0     O92613   2.133   6.195   0.910  0.0580 -0.0951 -0.1791
  687MOL0     C92614   2.014   6.149   0.939 -0.3777  0.8633  0.2843
  687MOL0     C92615   1.891   6.210   0.905  0.1263  0.0894 -0.7812
  687MOL0     C92616   1.774   6.149   0.946 -0.6381 -0.1090 -0.4316
  687MOL0     C92617   1.770   6.025   1.003  0.0686 -0.2125 -0.3053
  687MOL0     O92618   1.642   5.973   1.022  0.3979 -0.1034 -0.0119
  687MOL0     C92619   1.610   5.904   1.140 -0.6803 -0.3434  0.8630
  687MOL0     C92620   1.458   5.903   1.162  0.3537  0.1496  0.5030
  687MOL0     C92621   1.389   5.851   1.032 -0.3026 -0.4169 -0.1473
  687MOL0     C92622   1.419   5.698   1.013 -1.6202 -1.3618  0.2819
  687MOL0     C92623   1.308   5.653   0.902  0.4604  0.0271 -0.2963
  687MOL0     C92624   1.342   5.513   0.854 -0.0139  1.3286 -0.1298
  687MOL0     C92625   1.470   5.501   0.782 -0.5120 -0.2319  0.7914
  687MOL0     C92626   1.473   5.382   0.680  0.6436  0.3017  0.2365
  687MOL0     N92627   1.429   5.249   0.722  0.6462 -0.0353  0.3026
  687MOL0     C92628   1.295   5.198   0.705  0.1368  0.6080  0.3656
  687MOL0     C92629   1.287   5.092   0.795 -1.0538 -0.9015 -0.0057
  687MOL0     C92630   1.179   5.002   0.826 -0.7032  0.1503  0.6190
  687MOL0     C92631   1.174   4.882   0.734 -0.0458  0.0437 -0.3279
  687MOL0     C92632   1.057   4.806   0.792  0.2169 -0.1728  1.1138
  687MOL0     C92633   0.997   4.727   0.670 -0.0242  0.4202  0.1734
  687MOL0     O92634   0.890   4.628   0.722  0.5195  0.1542 -0.0178
  687MOL0     C92635   0.785   4.584   0.643  0.7775  0.4426 -0.4340
  687MOL0     C92636   0.666   4.536   0.700 -0.3083 -0.2304 -0.1924
  687MOL0     C92637   0.574   4.465   0.624  0.2051 -0.2714 -1.4507
  687MOL0     C92638   0.458   4.407   0.701 -0.0324  0.0638 -0.3183
  687MOL0     C92639   0.577   4.458   0.486 -0.7260  0.1905  0.2331
  687MOL0     C92640   0.469   4.404   0.400  0.9327  1.0369 -0.0400
  687MOL0     O92641   0.507   4.351   0.284 -0.0773 -0.0335 -0.3124
  687MOL0     C92642   0.406   4.336   0.186 -0.0215 -0.5588 -0.3022
  687MOL0     C92643   0.371   4.430   0.086 -0.2299 -0.6729 -0.0542
  687MOL0     C92644   0.268   4.415  -0.007  0.6282  0.0699 -0.2677
  687MOL0     C92645   0.194   4.291  -0.013  0.6554 -0.1269  0.5233
  687MOL0     O92646   0.101   4.255  -0.105  0.1255 -0.5112 -0.2110
  687MOL0     C92647   0.111   4.302  -0.238 -0.5705  0.8414  0.6426
  687MOL0     C92648   0.062   4.186  -0.331 -0.4942 -0.0956  0.5287
  687MOL0     C92649   0.057   4.225  -0.472 -0.3812  0.4057 -0.4985
  687MOL0     C92650   0.186   4.184  -0.554 -0.0129  0.2790 -0.7514
  687MOL0     C92651   0.190   4.036  -0.596  0.7290  0.4113 -0.2664
  687MOL0     C92652   0.310   3.996  -0.680 -0.5473  0.3319 -0.5002
  687MOL0     C92653   0.450   3.971  -0.607  1.6788  0.5534 -0.1039
  687MOL0     C92654   0.496   3.833  -0.652 -0.3282 -0.6442 -0.4683
  687MOL0    Cl92655   0.462   3.712  -0.517 -0.3351  0.3573 -0.2106
  687MOL0     C92656   0.218   4.200   0.088 -0.2310  0.0997  0.3585
  687MOL0     C92657   0.320   4.218   0.186 -0.4041 -0.2955  0.2779
  687MOL0     O92658   0.345   4.429   0.430  0.6053  0.1832 -0.0795
  687MOL0     C92659   0.696   4.509   0.424  0.4820 -0.1831  0.3290
  687MOL0     C92660   0.794   4.568   0.506  0.1135 -0.1067 -0.0327
  687MOL0     N92661   1.405   5.094   0.868  0.5109  0.4687 -0.7712
  687MOL0     N92662   1.493   5.175   0.815  0.3633 -0.4489 -0.8392
  687MOL0     C92663   1.882   5.955   1.027  1.1429 -0.0370 -0.6344
  687MOL0     C92664   2.007   6.020   1.008  1.4732 -0.1345  0.4700
  687MOL0     C92665   2.321   6.213   0.747 -0.4688  0.3472  0.3374
  687MOL0     C92666   2.388   6.302   0.817 -0.2948  0.0723 -0.1088
  687MOL0     C92667   2.519   6.343   0.788 -0.4334 -0.3448  0.6930
  687MOL0     C92668   2.571   6.301   0.669  0.2698 -0.2702 -0.6958
  687MOL0     O92669   2.698   6.333   0.628  0.4244  0.2600 -0.0663
  687MOL0     C92670   2.778   6.416   0.719  0.3262 -0.6991 -0.2671
  687MOL0     C92671   2.923   6.416   0.686 -0.0535 -0.3991  0.5665
  687MOL0     C92672   2.980   6.272   0.672  0.2136  0.2171  0.8293
  687MOL0     C92673   2.952   6.195   0.537 -0.5552  0.0531  1.8962
  687MOL0     C92674   3.063   6.216   0.439 -0.0324 -0.1367  1.4727
  687MOL0     C92675   3.143   6.244   0.347  0.3132 -0.1112  0.7319
  687MOL0     C92676   2.513   6.193   0.600  0.6748  0.0659  0.3289
  687MOL0     C92677   2.395   6.150   0.643 -0.9263 -0.4617  0.2883
  687MOL0     H92678   1.908   6.307   0.859 -1.4798  0.3314 -0.9063
  687MOL0     H92679   1.691   6.210   0.911  0.4983  2.5406  1.1551
  687MOL0     H92680   1.645   5.800   1.139  0.0331 -0.1380 -1.4678
  687MOL0     H92681   1.657   5.953   1.225  3.0268 -0.0258 -1.1542
  687MOL0     H92682   1.426   5.838   1.243 -0.5828 -3.0035 -2.1834
  687MOL0     H92683   1.439   6.010   1.177  2.9499  0.8470 -0.5906
  687MOL0     H92684   1.281   5.854   1.052  0.0707  0.3598  2.0013
  687MOL0     H92685   1.410   5.916   0.946  0.0053  3.4182  2.5638
  687MOL0     H92686   1.518   5.680   0.971 -0.2060  4.8663  0.0394
  687MOL0     H92687   1.412   5.635   1.103  0.9705  1.0431  2.3448
  687MOL0     H92688   1.211   5.644   0.951  0.4673 -2.8693 -0.6895
  687MOL0     H92689   1.294   5.723   0.819 -0.2627  1.4816  0.9902
  687MOL0     H92690   1.333   5.441   0.936  0.8892  2.0016  0.5749
  687MOL0     H92691   1.269   5.481   0.778  2.1800  1.4118 -2.4153
  687MOL0     H92692   1.494   5.592   0.726 -1.1807 -1.0532 -0.9001
  687MOL0     H92693   1.559   5.499   0.846  0.6767  0.0218 -0.7701
  687MOL0     H92694   1.576   5.363   0.650 -0.5551 -3.0591 -2.2864
  687MOL0     H92695   1.419   5.402   0.587 -0.9276  1.1189  1.2742
  687MOL0     H92696   1.207   5.231   0.650 -1.1838 -3.9519 -0.6697
  687MOL0     H92697   1.189   4.977   0.932 -1.8057 -1.2012  0.4393
  687MOL0     H92698   1.085   5.055   0.810 -1.6813 -1.7895 -0.5432
  687MOL0     H92699   1.266   4.825   0.750 -0.0458  1.0336  4.9121
  687MOL0     H92700   1.164   4.925   0.634 -0.3397 -0.1382 -0.3797
  687MOL0     H92701   0.988   4.874   0.844 -1.8339 -0.7907 -0.6360
  687MOL0     H92702   1.085   4.726   0.860  0.5881 -0.5665  0.5129
  687MOL0     H92703   1.070   4.662   0.622 -0.6029  1.1381 -1.7597
  687MOL0     H92704   0.965   4.794   0.590  0.6650 -1.2041 -1.5272
  687MOL0     H92705   0.652   4.565   0.804  1.9057 -0.7291  0.2945
  687MOL0     H92706   0.422   4.313   0.657 -0.4486  1.4755 -3.2540
  687MOL0     H92707   0.475   4.371   0.803 -0.9931 -1.2712 -0.5941
  687MOL0     H92708   0.369   4.470   0.699 -2.6687 -3.3067 -0.2821
  687MOL0     H92709   0.433   4.519   0.077 -0.5132 -0.4924 -0.2404
  687MOL0     H92710   0.247   4.497  -0.075  0.1560  1.2470  1.2470
  687MOL0     H92711   0.066   4.398  -0.266  0.2458  1.0194 -0.0769
  687MOL0     H92712   0.219   4.306  -0.256 -0.6126 -1.5796 -0.3962
  687MOL0     H92713   0.125   4.097  -0.320 -0.0379  0.4432  2.6601
  687MOL0     H92714  -0.039   4.165  -0.295 -0.8527 -1.0968 -0.9552
  687MOL0     H92715   0.053   4.334  -0.485 -2.1976  0.2538 -1.5086
  687MOL0     H92716  -0.026   4.176  -0.524  0.2840  0.2004 -1.3736
  687MOL0     H92717   0.178   4.233  -0.651 -2.3877 -3.9490 -2.9694
  687MOL0     H92718   0.272   4.206  -0.489 -0.4164 -0.0785 -0.0782
  687MOL0     H92719   0.097   4.018  -0.652 -1.3986  1.0939  2.7537
  687MOL0     H92720   0.192   3.973  -0.507  1.1510  2.6789  1.4079
  687MOL0     H92721   0.282   3.902  -0.729  0.1966  0.8613 -1.9956
  687MOL0     H92722   0.319   4.067  -0.762 -0.4230  0.4355 -0.3980
  687MOL0     H92723   0.431   3.972  -0.500  0.1245  1.6297 -0.3549
  687MOL0     H92724   0.522   4.043  -0.647  1.4387 -1.7961 -5.6852
  687MOL0     H92725   0.602   3.844  -0.674 -0.6670  2.7284 -0.9096
  687MOL0     H92726   0.449   3.811  -0.748  0.4540  2.4828 -1.6916
  687MOL0     H92727   0.158   4.111   0.097  0.7209 -0.7836 -1.6018
  687MOL0     H92728   0.340   4.146   0.264  0.2415 -2.2398 -1.5848
  687MOL0     H92729   0.728   4.520   0.321  3.9329 -0.3417  1.2590
  687MOL0     H92730   0.882   4.605   0.455 -0.0950 -1.1361 -1.1962
  687MOL0     H92731   1.878   5.850   1.055 -2.0357 -0.4508 -2.2198
  687MOL0     H92732   2.105   5.979   1.029  1.6355 -0.7825 -1.3791
  687MOL0     H92733   2.338   6.347   0.902 -1.5237 -3.0548  0.9864
  687MOL0     H92734   2.558   6.424   0.849 -1.2941 -0.4963  1.4598
  687MOL0     H92735   2.749   6.520   0.707 -0.6599 -0.7497  1.3221
  687MOL0     H92736   2.763   6.384   0.823  1.0838  3.1678  1.2101
  687MOL0     H92737   2.969   6.467   0.772 -2.3117 -0.1716  1.6936
  687MOL0     H92738   2.942   6.487   0.605  1.6739 -1.6630 -0.1989
  687MOL0     H92739   2.948   6.200   0.747  0.4698  0.8387  1.5381
  687MOL0     H92740   3.087   6.293   0.683  1.1498 -1.7175 -2.7113
  687MOL0     H92741   2.858   6.218   0.485  0.3462 -1.1803 -0.4474
  687MOL0     H92742   2.940   6.088   0.558  1.3992 -1.8473 -4.3607
  687MOL0     H92743   3.196   6.273   0.259 -1.2632 -1.5379 -0.7754
  687MOL0     H92744   2.565   6.141   0.520 -2.1098 -0.3949 -1.3191
  687MOL0     H92745   2.358   6.058   0.600  1.7974 -1.4252 -0.1871
  688MOL0     O92746   4.954  11.494   3.812  0.5651  1.2685 -0.3248
  688MOL0     C92747   4.962  11.513   3.688 -0.6053 -0.1347  0.4772
  688MOL0     O92748   4.893  11.607   3.620 -0.3837  0.6125  0.3158
  688MOL0     C92749   4.775  11.671   3.660 -0.0595  1.1575  0.4691
  688MOL0     C92750   4.752  11.737   3.774  0.0561 -0.8321 -0.6928
  688MOL0     C92751   4.635  11.811   3.784  0.1581 -0.2274 -1.0482
  688MOL0     C92752   4.536  11.821   3.682  0.1606  0.1842 -0.2660
  688MOL0     O92753   4.424  11.895   3.692  0.8472  0.7755 -0.2537
  688MOL0     C92754   4.369  11.927   3.820  0.6671 -0.9727 -0.0273
  688MOL0     C92755   4.225  11.991   3.802 -1.1275 -0.5140 -0.1151
  688MOL0     C92756   4.156  12.028   3.937  0.2754 -0.2491 -0.4449
  688MOL0     C92757   4.123  11.898   4.018 -0.6989  0.5763  0.2005
  688MOL0     C92758   4.016  11.808   3.943  0.7110  0.1547  0.0230
  688MOL0     C92759   3.972  11.694   4.040 -0.7483 -0.1956  0.4385
  688MOL0     C92760   3.863  11.600   3.986  0.0912  0.9122 -0.9158
  688MOL0     C92761   3.837  11.476   4.072  0.0199  0.9947  1.0615
  688MOL0     N92762   3.778  11.498   4.198  0.5205 -0.0818 -0.6698
  688MOL0     C92763   3.640  11.519   4.193  0.0856 -0.1836  1.0073
  688MOL0     C92764   3.608  11.490   4.318 -0.4427  1.3210 -1.2219
  688MOL0     C92765   3.463  11.499   4.362 -0.5470 -0.4394  0.3541
  688MOL0     C92766   3.430  11.443   4.491 -0.6615  0.4078 -0.2211
  688MOL0     C92767   3.422  11.294   4.479 -0.5846 -0.0181 -0.1688
  688MOL0     C92768   3.287  11.244   4.502  0.2586 -0.4072  0.0846
  688MOL0     O92769   3.265  11.100   4.489 -0.3901 -0.0777 -0.1262
  688MOL0     C92770   3.144  11.046   4.533 -0.0539 -0.0359  0.2027
  688MOL0     C92771   3.142  10.915   4.584  0.3378  1.0634  0.0928
  688MOL0     C92772   3.023  10.846   4.621  0.3415 -1.3823 -0.5480
  688MOL0     C92773   3.045  10.697   4.665  0.0439 -0.7777 -0.2660
  688MOL0     C92774   2.897  10.904   4.599  0.3625  0.9789 -0.4508
  688MOL0     C92775   2.769  10.838   4.618  0.5649 -0.1121  0.2565
  688MOL0     O92776   2.758  10.748   4.713 -0.4870 -0.1827 -0.0148
  688MOL0     C92777   2.646  10.671   4.745 -0.3957 -0.3057 -1.7184
  688MOL0     C92778   2.518  10.682   4.693 -0.2780  0.1152 -0.3426
  688MOL0     C92779   2.412  10.604   4.737  0.3498  0.1937 -0.7327
  688MOL0     C92780   2.437  10.504   4.836  0.8836 -0.7324 -1.0053
  688MOL0     O92781   2.327  10.429   4.879  0.1171 -0.1652  0.1501
  688MOL0     C92782   2.336  10.295   4.911 -0.6442 -0.2472  0.0153
  688MOL0     C92783   2.305  10.219   4.785 -0.0631 -0.0970  0.1382
  688MOL0     C92784   2.390  10.238   4.650 -0.2522 -0.6751 -0.0812
  688MOL0     C92785   2.359  10.142   4.541  0.2528 -0.4453 -0.3204
  688MOL0     C92786   2.450  10.147   4.419 -0.7808  0.4271 -0.1525
  688MOL0     C92787   2.402  10.073   4.298  0.2478  0.6404  0.0592
  688MOL0     C92788   2.363   9.927   4.338 -0.6591 -0.3274  0.6544
  688MOL0     C92789   2.347   9.833   4.219 -0.4951 -0.2859 -0.9488
  688MOL0    Cl92790   2.509   9.818   4.154 -0.4718 -0.5469  0.0358
  688MOL0     C92791   2.562  10.491   4.905  0.0874  0.2241  0.0170
  688MOL0     C92792   2.662  10.577   4.858  0.2132  1.3605 -0.6720
  688MOL0     O92793   2.675  10.879   4.552 -0.6521  0.0683  0.2283
  688MOL0     C92794   2.898  11.029   4.525  0.2234  0.0584  0.1940
  688MOL0     C92795   3.016  11.099   4.501 -0.1472 -0.4663 -0.8093
  688MOL0     N92796   3.725  11.473   4.400 -0.0266 -1.0603 -0.6709
  688MOL0     N92797   3.828  11.476   4.323 -0.2112  0.5138 -0.1450
  688MOL0     C92798   4.565  11.758   3.566  0.1321 -0.1088 -0.1375
  688MOL0     C92799   4.682  11.688   3.553  1.0631  1.1134  0.1774
  688MOL0     C92800   5.082  11.461   3.619 -0.6544  0.5408  0.7260
  688MOL0     C92801   5.076  11.400   3.491 -0.0251  0.9665 -0.1152
  688MOL0     C92802   5.189  11.344   3.436  0.1799  0.7374  0.2180
  688MOL0     C92803   5.318  11.361   3.497 -0.2777 -0.5613 -0.4620
  688MOL0     O92804   5.422  11.317   3.418  0.3385 -0.0595  0.2250
  688MOL0     C92805   5.511  11.431   3.386 -0.2141  0.0244  0.6182
  688MOL0     C92806   5.450  11.516   3.268 -0.1104  0.5394 -0.3799
  688MOL0     C92807   5.557  11.611   3.219 -0.6732 -0.5531 -0.1504
  688MOL0     C92808   5.494  11.722   3.139  0.2543 -0.1665  0.3995
  688MOL0     C92809   5.595  11.821   3.102 -0.3804  0.1206  0.0891
  688MOL0     C92810   5.678  11.902   3.092  0.6401  1.1506  0.0121
  688MOL0     C92811   5.322  11.431   3.624  0.3913 -0.0821  0.5835
  688MOL0     C92812   5.207  11.486   3.678  0.0960  0.3883  0.2718
  688MOL0     H92813   4.821  11.731   3.858  0.4962  0.8839 -0.9089
  688MOL0     H92814   4.621  11.863   3.878 -1.0980 -2.6428  0.1771
  688MOL0     H92815   4.358  11.833   3.874 -1.7135 -0.0092  1.3580
  688MOL0     H92816   4.433  11.995   3.878 -1.0299 -0.8639  1.8427
  688MOL0     H92817   4.236  12.086   3.747  0.6580  0.5097  1.8596
  688MOL0     H92818   4.172  11.931   3.727 -1.2152 -1.3843  0.6342
  688MOL0     H92819   4.208  12.104   3.996 -3.5449  0.0753  2.9848
  688MOL0     H92820   4.063  12.078   3.906  0.2000 -0.0096  0.1559
  688MOL0     H92821   4.220  11.849   4.018 -0.5207  0.8956 -1.1192
  688MOL0     H92822   4.094  11.934   4.118  0.6096  2.7501 -0.1267
  688MOL0     H92823   3.922  11.857   3.918  0.5610 -1.1066 -2.2130
  688MOL0     H92824   4.076  11.761   3.864  0.7427 -0.2985  0.3160
  688MOL0     H92825   4.065  11.645   4.071 -0.7499  0.1413  0.9933
  688MOL0     H92826   3.936  11.749   4.127 -0.0282 -0.0646  0.6653
  688MOL0     H92827   3.768  11.653   3.988  0.2454  1.2144 -1.4790
  688MOL0     H92828   3.884  11.563   3.885 -0.1906 -3.3250  0.3897
  688MOL0     H92829   3.933  11.427   4.086 -0.1744 -0.5049 -1.9697
  688MOL0     H92830   3.774  11.413   4.008 -2.5505  3.4194  1.0050
  688MOL0     H92831   3.585  11.553   4.106 -0.1030  2.0673  1.9388
  688MOL0     H92832   3.437  11.603   4.382 -1.5909 -0.4650 -0.7763
  688MOL0     H92833   3.397  11.459   4.285 -0.9429  1.5984 -0.4254
  688MOL0     H92834   3.338  11.493   4.523  0.7231  1.3843  2.5808
  688MOL0     H92835   3.497  11.472   4.572 -0.9628 -2.1796  1.0731
  688MOL0     H92836   3.487  11.255   4.558 -1.2703  2.0125  1.4928
  688MOL0     H92837   3.451  11.265   4.378 -2.6721  1.4792 -1.2632
  688MOL0     H92838   3.219  11.297   4.434  0.1221 -2.9231 -1.9271
  688MOL0     H92839   3.260  11.273   4.604  0.0151 -0.5291  0.0565
  688MOL0     H92840   3.238  10.868   4.602  1.6351  0.7943 -5.6324
  688MOL0     H92841   3.003  10.669   4.762 -1.7399 -0.8818 -1.0285
  688MOL0     H92842   3.003  10.624   4.595 -1.1927  0.8438 -1.2599
  688MOL0     H92843   3.151  10.671   4.672  1.2187  3.6523  2.1909
  688MOL0     H92844   2.486  10.772   4.641 -2.7838 -1.2945 -1.4037
  688MOL0     H92845   2.313  10.616   4.694  1.0438 -1.0577 -2.8104
  688MOL0     H92846   2.433  10.261   4.949 -1.6436 -2.2052  0.9801
  688MOL0     H92847   2.261  10.266   4.985 -1.0104 -1.2578 -0.7171
  688MOL0     H92848   2.316  10.112   4.804  0.8238 -0.2382 -1.0639
  688MOL0     H92849   2.197  10.219   4.767  0.1538  0.1362 -1.3327
  688MOL0     H92850   2.497  10.229   4.669 -0.3818  0.6443  1.5524
  688MOL0     H92851   2.376  10.342   4.618 -0.8982 -0.3550  1.1767
  688MOL0     H92852   2.359  10.046   4.593 -1.3796  1.0320  2.6420
  688MOL0     H92853   2.256  10.161   4.508  1.0920 -0.9634 -3.5618
  688MOL0     H92854   2.550  10.107   4.439 -2.4492 -3.1467  1.9935
  688MOL0     H92855   2.453  10.251   4.385 -2.0099  0.6523  0.3656
  688MOL0     H92856   2.328  10.133   4.243  2.4854  1.3697 -2.3625
  688MOL0     H92857   2.497  10.073   4.244  0.3527 -3.0184  0.0229
  688MOL0     H92858   2.270   9.936   4.394  2.8186 -0.3546  7.3546
  688MOL0     H92859   2.430   9.871   4.404 -2.3807 -0.1916  2.6116
  688MOL0     H92860   2.275   9.876   4.149 -0.1620  0.1304 -1.0367
  688MOL0     H92861   2.316   9.730   4.242  3.5176 -1.3105  0.6819
  688MOL0     H92862   2.572  10.420   4.987  1.0408  1.2584  0.8235
  688MOL0     H92863   2.763  10.565   4.896  0.2814  1.1048 -0.9276
  688MOL0     H92864   2.800  11.062   4.492  0.8327  3.3719  1.2774
  688MOL0     H92865   3.015  11.188   4.438  0.8903 -1.3664 -2.1600
  688MOL0     H92866   4.488  11.773   3.491 -2.3653 -1.8027  1.9455
  688MOL0     H92867   4.705  11.645   3.455  0.4747 -1.7133  1.1667
  688MOL0     H92868   4.976  11.394   3.451 -0.8772 -2.8672  2.1386
  688MOL0     H92869   5.184  11.276   3.351  2.4245 -3.1026  2.8173
  688MOL0     H92870   5.538  11.502   3.465 -1.4484  1.2353 -0.0212
  688MOL0     H92871   5.603  11.390   3.345  0.4551  0.2052  1.8784
  688MOL0     H92872   5.366  11.573   3.307  0.9905  0.4704  2.2659
  688MOL0     H92873   5.409  11.450   3.191  2.0645 -1.1633 -0.1954
  688MOL0     H92874   5.627  11.562   3.152 -1.9706 -0.3936 -1.6916
  688MOL0     H92875   5.600  11.655   3.309 -1.2545 -1.3329  0.5284
  688MOL0     H92876   5.404  11.768   3.181  0.3235  2.7495 -2.2642
  688MOL0     H92877   5.452  11.675   3.049  1.3057  0.2056 -0.2969
  688MOL0     H92878   5.761  11.968   3.080 -1.6372  3.8989 -2.1082
  688MOL0     H92879   5.424  11.443   3.661  0.0098  2.4244  1.0279
  688MOL0     H92880   5.205  11.539   3.773 -0.2676  2.1330 -0.6564
  689MOL0     O92881   8.983   5.069   8.882  0.3822  0.0971 -0.2790
  689MOL0     C92882   9.086   5.133   8.869  0.3447 -0.2450 -0.4765
  689MOL0     O92883   9.173   5.157   8.965  0.0160 -0.2643  0.3258
  689MOL0     C92884   9.189   5.086   9.081  0.3894  0.4801  0.9547
  689MOL0     C92885   9.159   4.951   9.103 -0.1934  0.5414  1.0165
  689MOL0     C92886   9.189   4.891   9.216  0.4214  0.1763  0.8567
  689MOL0     C92887   9.223   4.967   9.331  0.9138 -1.1017 -0.8394
  689MOL0     O92888   9.218   4.917   9.461 -0.1528  0.3626 -0.0038
  689MOL0     C92889   9.267   4.784   9.475 -0.4437 -0.3980 -0.1522
  689MOL0     C92890   9.302   4.747   9.624 -0.8589  0.0347 -0.2636
  689MOL0     C92891   9.307   4.595   9.637 -0.2841  0.3352 -0.2284
  689MOL0     C92892   9.171   4.536   9.660  1.1282  0.4109  0.9423
  689MOL0     C92893   9.170   4.390   9.708 -0.3294 -0.6920 -0.5053
  689MOL0     C92894   9.212   4.366   9.859  0.4666 -0.1462  0.0619
  689MOL0     C92895   9.269   4.230   9.893  0.1236  0.1510  0.8068
  689MOL0     C92896   9.256   4.183  10.039  1.1573 -0.2179  0.1809
  689MOL0     N92897   9.328   4.056  10.053 -0.8841 -0.1903 -0.4582
  689MOL0     C92898   9.337   3.982  10.168  0.4694 -0.5272 -0.3111
  689MOL0     C92899   9.439   3.889  10.154  0.5846 -0.8881 -0.1704
  689MOL0     C92900   9.463   3.807  10.283 -1.1442  0.5970  0.4504
  689MOL0     C92901   9.418   3.663  10.248 -1.0238 -0.9140  0.3469
  689MOL0     C92902   9.477   3.587  10.142  0.5260  0.5031 -0.3895
  689MOL0     C92903   9.431   3.447  10.142  0.5813  0.5517 -0.2411
  689MOL0     O92904   9.493   3.357  10.234  0.0898  0.1416 -0.0044
  689MOL0     C92905   9.438   3.287  10.329  0.4369  0.0614 -1.0252
  689MOL0     C92906   9.521   3.269  10.446  0.2231  0.1131 -0.3920
  689MOL0     C92907   9.478   3.186  10.544  0.5026  0.0942  0.4181
  689MOL0     C92908   9.567   3.160  10.662 -0.4257 -0.6633  0.1425
  689MOL0     C92909   9.341   3.129  10.543 -0.2135 -0.6821  1.4801
  689MOL0     C92910   9.283   3.042  10.650 -0.9287 -0.7226  0.0765
  689MOL0     O92911   9.173   2.971  10.626 -0.0410  0.3237  0.3983
  689MOL0     C92912   9.116   2.907  10.731 -0.0505  0.4761  0.1975
  689MOL0     C92913   9.036   2.978  10.824  0.2539  0.4857  1.0985
  689MOL0     C92914   8.957   2.907  10.915  0.5278 -0.2140 -0.0344
  689MOL0     C92915   8.969   2.768  10.930  0.2637 -0.7162 -0.7709
  689MOL0     O92916   8.904   2.705  11.032  0.2840  0.5489 -0.2770
  689MOL0     C92917   8.847   2.572  10.996 -0.3651  0.5871  0.4585
  689MOL0     C92918   8.772   2.514  11.110 -0.0351 -0.4193 -0.4053
  689MOL0     C92919   8.625   2.562  11.124  0.3731  1.1734 -0.3482
  689MOL0     C92920   8.521   2.504  11.031  0.7258 -0.3055  0.0952
  689MOL0     C92921   8.384   2.569  11.045 -0.0729 -0.3676 -0.5915
  689MOL0     C92922   8.287   2.529  10.947  0.5611  0.1216  0.6399
  689MOL0     C92923   8.278   2.631  10.832  0.3281  0.0039 -0.1718
  689MOL0     C92924   8.181   2.579  10.730  0.4874  0.1695  0.4627
  689MOL0    Cl92925   8.013   2.616  10.790 -0.3732 -0.5807  0.2122
  689MOL0     C92926   9.061   2.699  10.845 -0.1071  0.4145  0.1854
  689MOL0     C92927   9.136   2.766  10.752  0.0159 -0.9365 -0.6506
  689MOL0     O92928   9.321   3.070  10.767 -0.7472  0.1194  0.1769
  689MOL0     C92929   9.251   3.175  10.443 -0.0175  0.2374  0.6250
  689MOL0     C92930   9.303   3.242  10.330  0.2988  0.4282 -0.2826
  689MOL0     N92931   9.497   3.910  10.033 -1.0204  0.5851  0.0377
  689MOL0     N92932   9.423   4.003   9.981  0.4685 -1.3861  0.9620
  689MOL0     C92933   9.248   5.104   9.316  0.6444 -1.3682  0.1709
  689MOL0     C92934   9.236   5.156   9.182  0.7281  0.0073 -1.2470
  689MOL0     C92935   9.101   5.195   8.740 -0.3596 -0.6461 -0.2198
  689MOL0     C92936   9.154   5.321   8.726  0.3714  0.0777 -0.1931
  689MOL0     C92937   9.169   5.384   8.600  0.3243  0.9431 -0.3064
  689MOL0     C92938   9.125   5.322   8.481 -1.0280 -0.8825  0.5876
  689MOL0     O92939   9.150   5.384   8.360 -0.7613  0.4875 -0.4379
  689MOL0     C92940   9.047   5.485   8.323  0.1009  0.3970  0.3292
  689MOL0     C92941   9.047   5.499   8.170 -0.0730  0.1716 -0.1386
  689MOL0     C92942   8.964   5.380   8.108  0.5195 -0.0263 -0.6935
  689MOL0     C92943   8.958   5.399   7.957  0.3084  0.6027  0.4053
  689MOL0     C92944   8.840   5.475   7.902 -0.0856  0.4057 -0.9426
  689MOL0     C92945   8.757   5.550   7.876  0.2821 -0.8936  0.1490
  689MOL0     C92946   9.067   5.201   8.488 -0.3056 -0.0151  0.7236
  689MOL0     C92947   9.059   5.136   8.615 -0.7305 -0.2403  0.4705
  689MOL0     H92948   9.127   4.891   9.018  2.5731 -1.2478  1.1201
  689MOL0     H92949   9.158   4.787   9.223  2.0907 -0.3058  1.6230
  689MOL0     H92950   9.191   4.718   9.433 -1.6532  0.6979  0.2339
  689MOL0     H92951   9.353   4.764   9.410 -0.3138 -0.2873 -0.0142
  689MOL0     H92952   9.398   4.790   9.651  0.9265 -2.3641 -2.3468
  689MOL0     H92953   9.226   4.785   9.693  1.8955 -0.3001  3.2429
  689MOL0     H92954   9.358   4.543   9.554  1.0616 -0.2684  0.9329
  689MOL0     H92955   9.362   4.568   9.728 -4.2986  1.4849  2.7771
  689MOL0     H92956   9.132   4.586   9.749  3.5007  2.7730  0.8196
  689MOL0     H92957   9.108   4.552   9.572  0.9891 -1.6605  0.6174
  689MOL0     H92958   9.066   4.361   9.694 -0.2572  0.0870 -3.1665
  689MOL0     H92959   9.227   4.331   9.636  0.8543 -1.1911  0.7926
  689MOL0     H92960   9.286   4.443   9.887  3.5300 -2.5849 -0.7452
  689MOL0     H92961   9.125   4.386   9.922  0.2268  1.1152 -0.6216
  689MOL0     H92962   9.209   4.162   9.831  1.1454  1.3430 -1.6413
  689MOL0     H92963   9.369   4.218   9.849 -0.9888  0.0199 -1.9254
  689MOL0     H92964   9.153   4.184  10.077  1.1849 -0.2757  0.2579
  689MOL0     H92965   9.300   4.271  10.087  2.4937 -0.4284 -0.5986
  689MOL0     H92966   9.263   4.005  10.243 -0.9878 -1.5526 -1.3939
  689MOL0     H92967   9.567   3.808  10.319 -0.5867  1.0525 -1.0703
  689MOL0     H92968   9.412   3.834  10.375  0.5987  2.9623  0.8318
  689MOL0     H92969   9.308   3.669  10.252 -0.9686 -0.1662  3.3775
  689MOL0     H92970   9.430   3.605  10.340 -1.9004 -0.2541  0.9058
  689MOL0     H92971   9.586   3.591  10.144  0.6001 -1.2053  1.6661
  689MOL0     H92972   9.427   3.624  10.051 -3.8890 -0.5240  1.3472
  689MOL0     H92973   9.443   3.403  10.042 -1.9307 -0.1582 -0.3070
  689MOL0     H92974   9.325   3.463  10.166  0.6531  0.8097 -0.0936
  689MOL0     H92975   9.621   3.311  10.446  0.7141 -0.9667  0.9806
  689MOL0     H92976   9.565   3.053  10.684  0.5713 -1.1329 -1.7725
  689MOL0     H92977   9.672   3.188  10.646 -0.2176 -0.1890  2.1183
  689MOL0     H92978   9.526   3.222  10.742 -1.4771  1.6756 -2.0581
  689MOL0     H92979   9.033   3.086  10.824 -1.2179  0.4636  0.7645
  689MOL0     H92980   8.902   2.964  10.989 -1.2817  1.3025 -2.4103
  689MOL0     H92981   8.784   2.576  10.906 -0.6395 -1.6914  0.4816
  689MOL0     H92982   8.917   2.493  10.967 -2.4672 -0.7953 -1.1879
  689MOL0     H92983   8.776   2.406  11.092  2.3343 -0.0437 -2.6477
  689MOL0     H92984   8.829   2.528  11.202  0.5312  3.4728 -1.1942
  689MOL0     H92985   8.629   2.670  11.106  1.8678  1.1651 -0.2094
  689MOL0     H92986   8.598   2.547  11.229  0.3227 -0.0950 -0.5334
  689MOL0     H92987   8.561   2.536  10.935 -0.1170 -0.3162 -0.2685
  689MOL0     H92988   8.511   2.397  11.048  2.7197 -0.2149  2.3686
  689MOL0     H92989   8.388   2.678  11.043  1.1390 -0.3927 -3.3408
  689MOL0     H92990   8.338   2.559  11.144  1.1041  0.4961  0.0706
  689MOL0     H92991   8.305   2.429  10.907 -1.2109 -0.6751  1.6940
  689MOL0     H92992   8.190   2.523  10.997 -0.9265  1.2692 -1.9136
  689MOL0     H92993   8.369   2.659  10.778 -0.3242 -0.2580 -1.4603
  689MOL0     H92994   8.239   2.728  10.866 -1.4729  0.3551 -2.8815
  689MOL0     H92995   8.206   2.473  10.715  1.4889  0.6339 -1.4334
  689MOL0     H92996   8.201   2.637  10.640 -1.5117  0.0926 -0.0846
  689MOL0     H92997   9.061   2.592  10.829  5.5055  0.2640 -0.9962
  689MOL0     H92998   9.197   2.709  10.682 -1.2301 -2.3753 -0.6379
  689MOL0     H92999   9.151   3.132  10.435  1.5901 -4.1156  1.3409
  689MOL0     H93000   9.235   3.261  10.247 -0.7008  2.0930  0.8506
  689MOL0     H93001   9.274   5.174   9.394  0.6855 -1.0996 -0.0795
  689MOL0     H93002   9.253   5.261   9.161 -2.1521  0.9335  0.3625
  689MOL0     H93003   9.165   5.375   8.820  0.7372 -3.5082  2.0464
  689MOL0     H93004   9.212   5.483   8.598 -0.9360  1.4981 -0.7199
  689MOL0     H93005   8.949   5.445   8.352  1.1107 -0.9534  2.0418
  689MOL0     H93006   9.068   5.580   8.374 -0.6364  0.6578  0.1710
  689MOL0     H93007   9.145   5.504   8.122  0.5002 -2.3173  0.6218
  689MOL0     H93008   8.977   5.582   8.158 -1.3744 -0.6640  1.3250
  689MOL0     H93009   8.865   5.377   8.155  0.6550 -0.1561 -0.4123
  689MOL0     H93010   9.017   5.286   8.129 -1.3905 -1.6962 -2.7786
  689MOL0     H93011   8.945   5.297   7.920  3.7507  0.0358  0.4353
  689MOL0     H93012   9.050   5.442   7.918 -1.0667  2.0856 -1.4173
  689MOL0     H93013   8.682   5.626   7.863 -1.2942 -2.4462 -0.1408
  689MOL0     H93014   9.027   5.157   8.398  2.4176  1.4488 -1.3586
  689MOL0     H93015   9.003   5.044   8.627  1.3380 -1.3966  1.8321
  690MOL0     O93016   1.226   2.355  10.942  0.4806 -0.7474 -0.3012
  690MOL0     C93017   1.339   2.326  10.984 -0.4134  0.3345 -0.0564
  690MOL0     O93018   1.382   2.319  11.113 -0.7365 -0.2679 -0.5161
  690MOL0     C93019   1.311   2.361  11.219 -0.6403  0.5439 -0.4336
  690MOL0     C93020   1.299   2.277  11.331 -0.2712 -0.6306  0.1267
  690MOL0     C93021   1.229   2.324  11.439  1.0484  0.1249 -0.5387
  690MOL0     C93022   1.169   2.458  11.435  0.1025  0.2998 -0.4149
  690MOL0     O93023   1.115   2.510  11.548 -0.6299 -0.2538  0.0327
  690MOL0     C93024   1.214   2.530  11.648  0.3400  0.6987 -0.2652
  690MOL0     C93025   1.151   2.633  11.746  0.5015 -0.5565  0.3609
  690MOL0     C93026   1.098   2.754  11.670 -0.3744  0.0609  0.1885
  690MOL0     C93027   1.189   2.881  11.658  1.1717 -0.3285 -0.3105
  690MOL0     C93028   1.111   3.014  11.634  0.5707 -0.1573  1.5166
  690MOL0     C93029   1.007   3.005  11.511  0.6474  0.2472  0.2573
  690MOL0     C93030   0.951   3.145  11.474  0.3576  1.0691  0.3576
  690MOL0     C93031   0.843   3.115  11.367 -0.7175 -0.1156 -0.1118
  690MOL0     N93032   0.898   3.043  11.253 -0.2254 -0.0714 -0.7182
  690MOL0     C93033   0.985   3.094  11.162 -0.4256  1.0514  0.8166
  690MOL0     C93034   0.996   2.981  11.076 -0.6307 -0.9732 -0.7987
  690MOL0     C93035   1.089   2.986  10.965 -0.5486  0.0560 -0.1437
  690MOL0     C93036   1.049   3.083  10.851 -0.5157  0.3642 -0.7137
  690MOL0     C93037   0.927   3.016  10.781  0.5891 -0.0053  0.5070
  690MOL0     C93038   0.880   3.094  10.668  0.2961 -0.0716  0.3747
  690MOL0     O93039   0.973   3.079  10.560  0.9735  0.5097  0.3565
  690MOL0     C93040   0.927   3.110  10.430 -0.5975 -0.4497 -0.6916
  690MOL0     C93041   0.930   3.009  10.342 -0.1074 -1.0017 -0.4049
  690MOL0     C93042   0.902   3.026  10.204  0.1049 -0.2551 -0.0469
  690MOL0     C93043   0.950   2.917  10.110  0.7051 -0.5797 -0.4433
  690MOL0     C93044   0.840   3.141  10.154 -1.0591 -0.5239 -0.0968
  690MOL0     C93045   0.808   3.174  10.025  0.5434 -1.3440  1.1740
  690MOL0     O93046   0.763   3.080   9.936 -1.0860  0.0953  0.2116
  690MOL0     C93047   0.735   3.113   9.806  0.7236  0.5352  0.9610
  690MOL0     C93048   0.604   3.140   9.777  1.0255  0.2249  0.2798
  690MOL0     C93049   0.567   3.209   9.660 -0.0599  0.0999 -0.4026
  690MOL0     C93050   0.662   3.249   9.564 -0.3342  0.1233  0.0511
  690MOL0     O93051   0.619   3.320   9.456 -0.3104  0.1360 -0.1205
  690MOL0     C93052   0.718   3.339   9.344  0.3123 -0.5183  0.0484
  690MOL0     C93053   0.673   3.444   9.232 -0.3318  0.4399 -0.1940
  690MOL0     C93054   0.521   3.425   9.194 -0.0101 -0.1650 -0.0007
  690MOL0     C93055   0.426   3.513   9.268 -0.0090  0.8649  0.0803
  690MOL0     C93056   0.280   3.485   9.242  0.9756  0.7769  0.9408
  690MOL0     C93057   0.188   3.582   9.316 -0.0983 -1.2185  0.2769
  690MOL0     C93058   0.041   3.574   9.272 -0.1038 -0.1374 -0.7625
  690MOL0     C93059   0.022   3.660   9.142  0.8628  1.1648 -0.1655
  690MOL0    Cl93060  -0.162   3.695   9.105 -0.4052  0.1276  0.4151
  690MOL0     C93061   0.796   3.199   9.586  0.2941  0.0029  1.0550
  690MOL0     C93062   0.838   3.143   9.712  0.2244  0.1518  0.7050
  690MOL0     O93063   0.829   3.291   9.991 -0.0329  0.5685 -0.1844
  690MOL0     C93064   0.836   3.244  10.251 -0.6431 -0.0250  0.1781
  690MOL0     C93065   0.885   3.229  10.385  0.7891  0.1455  0.1741
  690MOL0     N93066   0.923   2.874  11.126  0.3685 -1.0551  0.3739
  690MOL0     N93067   0.854   2.920  11.220 -0.3692 -0.4449  0.2925
  690MOL0     C93068   1.180   2.536  11.318 -0.5594  0.1231  0.0964
  690MOL0     C93069   1.247   2.489  11.207 -0.1606 -0.2859  0.2344
  690MOL0     C93070   1.431   2.281  10.876 -0.0254 -1.1850 -0.2267
  690MOL0     C93071   1.376   2.223  10.757 -0.1094 -0.2938 -0.4192
  690MOL0     C93072   1.466   2.174  10.661 -0.9023 -0.6178 -0.4407
  690MOL0     C93073   1.603   2.198  10.678 -0.9612 -0.9556  0.0200
  690MOL0     O93074   1.696   2.186  10.573 -0.0372  0.1852 -0.3896
  690MOL0     C93075   1.663   2.258  10.456  0.7299  0.3782  0.1043
  690MOL0     C93076   1.621   2.150  10.353 -0.7489 -0.1174  0.0025
  690MOL0     C93077   1.563   2.213  10.229  0.5723 -0.3232 -0.0433
  690MOL0     C93078   1.493   2.111  10.143  0.6712 -0.0898  0.3960
  690MOL0     C93079   1.436   2.166  10.018 -0.2167  0.2376  0.6839
  690MOL0     C93080   1.387   2.224   9.924 -1.0240  0.5607 -0.2337
  690MOL0     C93081   1.652   2.259  10.790 -0.3289 -0.9770  1.4313
  690MOL0     C93082   1.567   2.296  10.891 -0.9408  0.5672  0.0083
  690MOL0     H93083   1.345   2.180  11.315 -1.6377 -1.0710 -1.3520
  690MOL0     H93084   1.214   2.269  11.532 -2.5691  0.8801 -0.5207
  690MOL0     H93085   1.229   2.433  11.696  0.2885 -0.2386 -2.0712
  690MOL0     H93086   1.307   2.579  11.616  0.2666  2.4836  1.9857
  690MOL0     H93087   1.069   2.575  11.790 -0.0506 -1.7600 -2.0722
  690MOL0     H93088   1.209   2.665  11.833 -1.5631 -2.6243  2.6625
  690MOL0     H93089   1.067   2.732  11.567  0.4649  0.0099 -0.0580
  690MOL0     H93090   1.004   2.786  11.716  0.0000  2.2421 -0.4573
  690MOL0     H93091   1.246   2.890  11.752  0.0884 -2.5840  0.6411
  690MOL0     H93092   1.261   2.867  11.578 -2.1691 -0.3031 -3.5817
  690MOL0     H93093   1.056   3.038  11.725  0.5601 -0.5306  1.6083
  690MOL0     H93094   1.186   3.093  11.619  2.0056 -1.7638 -0.3930
  690MOL0     H93095   1.068   2.956  11.435  2.9042  0.4641  1.8303
  690MOL0     H93096   0.918   2.946  11.533  0.5253 -0.2816 -1.5237
  690MOL0     H93097   0.913   3.194  11.564 -0.4216  3.5435 -1.2212
  690MOL0     H93098   1.026   3.214  11.435  0.6829  0.5462  0.0462
  690MOL0     H93099   0.806   3.215  11.342  0.8543  1.0225  1.8123
  690MOL0     H93100   0.759   3.060  11.412 -2.4028  1.1268 -1.5938
  690MOL0     H93101   1.022   3.192  11.136 -0.5780  0.4404 -2.1288
  690MOL0     H93102   1.182   3.026  11.008  0.0069  0.3440 -1.5732
  690MOL0     H93103   1.109   2.883  10.932 -0.3003 -1.2064  3.4488
  690MOL0     H93104   1.138   3.094  10.789 -0.6355  1.9558 -0.6544
  690MOL0     H93105   1.034   3.183  10.893 -0.8705  0.0459 -0.0662
  690MOL0     H93106   0.845   3.015  10.854  1.0690  1.3017  1.0883
  690MOL0     H93107   0.943   2.913  10.748 -3.2651 -1.9398  3.7756
  690MOL0     H93108   0.882   3.202  10.685 -2.2562  0.1746 -0.5050
  690MOL0     H93109   0.776   3.068  10.648 -0.4403  0.1726  3.4223
  690MOL0     H93110   0.975   2.919  10.383  0.2206 -0.8432 -0.4082
  690MOL0     H93111   0.967   2.827  10.168 -2.3108 -0.9655  0.0064
  690MOL0     H93112   0.876   2.883  10.037 -2.0133  2.1524  0.7785
  690MOL0     H93113   1.046   2.936  10.061  1.8461 -0.6856  1.6717
  690MOL0     H93114   0.528   3.119   9.852  1.4327  1.3212  1.0115
  690MOL0     H93115   0.472   3.261   9.660  1.5882  3.6176  2.4977
  690MOL0     H93116   0.812   3.382   9.380 -0.5343  0.7186  0.8589
  690MOL0     H93117   0.741   3.246   9.291  0.8213 -0.3429 -0.0478
  690MOL0     H93118   0.684   3.546   9.271 -1.0877 -0.0564  1.3794
  690MOL0     H93119   0.721   3.426   9.135 -0.0166 -2.4775  0.4133
  690MOL0     H93120   0.481   3.325   9.212 -2.9313  0.9684  0.4669
  690MOL0     H93121   0.511   3.452   9.089  0.2183  3.1333  0.7268
  690MOL0     H93122   0.449   3.477   9.369  1.4349 -4.3887 -1.8529
  690MOL0     H93123   0.456   3.615   9.241  2.4118  0.2074 -0.0022
  690MOL0     H93124   0.246   3.382   9.256 -1.0613  1.3288  0.4456
  690MOL0     H93125   0.271   3.506   9.135 -3.9603 -1.5474  0.6366
  690MOL0     H93126   0.175   3.554   9.421  0.0647  0.0201  0.6430
  690MOL0     H93127   0.226   3.684   9.302 -1.1103 -0.2563  3.6383
  690MOL0     H93128  -0.023   3.608   9.354 -1.3818 -0.1028 -1.7393
  690MOL0     H93129   0.013   3.469   9.261  2.7498 -0.9075 -1.5115
  690MOL0     H93130   0.076   3.605   9.064  0.1592  1.6894 -1.0406
  690MOL0     H93131   0.067   3.758   9.157 -0.7926  2.4029 -2.5996
  690MOL0     H93132   0.871   3.218   9.509 -0.3882 -2.2952 -0.2931
  690MOL0     H93133   0.942   3.122   9.735  0.3507 -1.9908 -1.4619
  690MOL0     H93134   0.799   3.342  10.222  1.9648  0.8782 -0.4855
  690MOL0     H93135   0.882   3.309  10.458  3.2621  0.0062  0.5171
  690MOL0     H93136   1.134   2.634  11.313 -0.7415 -0.0316 -1.9838
  690MOL0     H93137   1.260   2.559  11.124 -0.5976  2.6123  2.4420
  690MOL0     H93138   1.270   2.203  10.750  0.1146 -3.5954  2.6364
  690MOL0     H93139   1.430   2.140  10.565 -2.2973 -3.0189  0.8512
  690MOL0     H93140   1.577   2.324  10.470 -1.2754 -1.8882 -0.7597
  690MOL0     H93141   1.748   2.312  10.414 -0.1284  0.2664 -1.9290
  690MOL0     H93142   1.540   2.087  10.393 -1.6248  1.1171  0.2502
  690MOL0     H93143   1.698   2.078  10.324 -0.6540  0.6950 -1.8849
  690MOL0     H93144   1.650   2.244  10.170  0.3913  1.1502  0.4404
  690MOL0     H93145   1.502   2.299  10.254  3.7562  2.5994 -1.5015
  690MOL0     H93146   1.418   2.055  10.199  3.4151 -3.1538  1.3599
  690MOL0     H93147   1.566   2.035  10.111  1.5923 -0.3293  2.8273
  690MOL0     H93148   1.349   2.259   9.831  2.1667  3.2250 -0.7394
  690MOL0     H93149   1.759   2.278  10.789 -0.3653 -0.7426  1.8911
  690MOL0     H93150   1.612   2.327  10.984  0.2147 -0.9165 -0.0160
  691MOL0     O93151   8.684   6.557   1.418 -0.4970  0.1172  0.1199
  691MOL0     C93152   8.597   6.639   1.399 -0.5485 -0.0691 -0.0995
  691MOL0     O93153   8.575   6.762   1.456 -0.3508  0.1604 -0.5143
  691MOL0     C93154   8.663   6.814   1.545  0.4844  0.6944 -0.1155
  691MOL0     C93155   8.658   6.785   1.677 -0.1015  0.1469 -0.0383
  691MOL0     C93156   8.761   6.825   1.762  0.4093 -0.7693 -0.2690
  691MOL0     C93157   8.862   6.904   1.713 -0.6567 -0.0014 -0.3780
  691MOL0     O93158   8.968   6.949   1.797  0.2628 -0.7291 -0.6332
  691MOL0     C93159   8.986   6.891   1.927 -0.5154 -0.0524 -0.5460
  691MOL0     C93160   9.116   6.939   1.995 -0.2406  0.6291  0.5883
  691MOL0     C93161   9.247   6.870   1.954  0.1361  0.2120  0.4473
  691MOL0     C93162   9.362   6.900   2.066 -0.3958  0.9713 -0.3295
  691MOL0     C93163   9.487   6.811   2.048 -0.2983  0.5449 -0.6961
  691MOL0     C93164   9.558   6.823   1.920 -0.4039 -0.7767  1.4318
  691MOL0     C93165   9.641   6.942   1.904  0.4976 -0.4438  0.4698
  691MOL0     C93166   9.602   7.050   1.793 -0.0842  0.1104  0.1520
  691MOL0     N93167   9.646   7.196   1.831  0.9766 -0.6694  0.1194
  691MOL0     C93168   9.774   7.242   1.808  0.3045  0.1126 -0.1936
  691MOL0     C93169   9.766   7.372   1.833  0.5613 -0.5053  0.2283
  691MOL0     C93170   9.880   7.467   1.823  0.6084 -0.1915  0.0798
  691MOL0     C93171   9.931   7.508   1.682 -0.5062 -0.2941 -0.1016
  691MOL0     C93172  10.055   7.590   1.684 -0.3560 -0.6387 -0.3155
  691MOL0     C93173  10.101   7.645   1.554 -0.4581  0.7463  0.0431
  691MOL0     O93174  10.212   7.726   1.580  0.0500 -0.0573 -0.2722
  691MOL0     C93175  10.222   7.847   1.524 -0.1982  0.2913  0.2144
  691MOL0     C93176  10.292   7.943   1.588  0.1798  0.9230  0.9152
  691MOL0     C93177  10.302   8.074   1.551 -0.1122 -0.3559 -0.7397
  691MOL0     C93178  10.379   8.172   1.645  0.0499  0.4216 -0.5301
  691MOL0     C93179  10.241   8.116   1.428  0.7943 -0.0039  0.0393
  691MOL0     C93180  10.250   8.252   1.361  1.0395 -0.3150 -0.5846
  691MOL0     O93181  10.209   8.260   1.237 -0.1065  0.9473  0.1109
  691MOL0     C93182  10.266   8.351   1.152  2.1394 -0.3316 -0.0711
  691MOL0     C93183  10.401   8.364   1.143  0.5544 -0.8812 -1.0973
  691MOL0     C93184  10.461   8.427   1.037  0.0698  0.3773  0.0570
  691MOL0     C93185  10.369   8.483   0.937 -0.5177  0.1288  0.7037
  691MOL0     O93186  10.412   8.565   0.831  0.1373  0.0012  0.1835
  691MOL0     C93187  10.552   8.605   0.811  0.9395 -0.0323 -0.3547
  691MOL0     C93188  10.576   8.739   0.878 -0.4918 -0.1886  0.3985
  691MOL0     C93189  10.465   8.843   0.853  0.1439 -0.3183 -0.0238
  691MOL0     C93190  10.499   8.983   0.909  0.0106 -0.3183 -0.1040
  691MOL0     C93191  10.414   9.097   0.858 -0.0378 -1.1278 -0.2287
  691MOL0     C93192  10.414   9.118   0.711 -0.6774 -0.4529  0.2026
  691MOL0     C93193  10.547   9.128   0.648 -0.3079  0.1236  0.5929
  691MOL0     C93194  10.636   9.228   0.704 -0.0353 -0.7891 -0.4802
  691MOL0    Cl93195  10.585   9.395   0.665 -0.0231  0.7381 -0.3252
  691MOL0     C93196  10.231   8.469   0.935  0.2764  0.3793 -0.8982
  691MOL0     C93197  10.180   8.400   1.049  0.6175  0.5868 -0.2747
  691MOL0     O93198  10.309   8.335   1.426  0.0859 -0.5804 -0.0861
  691MOL0     C93199  10.164   8.018   1.358  0.1154  0.5376 -0.0304
  691MOL0     C93200  10.164   7.881   1.395  0.4951  0.4452 -0.6573
  691MOL0     N93201   9.641   7.404   1.884  0.0802 -0.7742  0.0773
  691MOL0     N93202   9.569   7.295   1.882  0.7601  0.1400 -0.7781
  691MOL0     C93203   8.852   6.946   1.580  0.5384 -0.1815  0.4002
  691MOL0     C93204   8.766   6.878   1.494  0.4614  0.4360 -0.0901
  691MOL0     C93205   8.505   6.622   1.275  0.0042  0.3195  0.6033
  691MOL0     C93206   8.517   6.501   1.196 -0.8787  0.1026  0.4183
  691MOL0     C93207   8.435   6.477   1.089 -0.2635  0.4595  0.3884
  691MOL0     C93208   8.340   6.569   1.044  0.7264  0.2627  0.8020
  691MOL0     O93209   8.273   6.553   0.922 -0.0436 -0.1535 -0.6600
  691MOL0     C93210   8.322   6.470   0.818 -0.3025  0.9414  0.0170
  691MOL0     C93211   8.233   6.475   0.698  0.9302  0.5446  0.0060
  691MOL0     C93212   8.250   6.352   0.605  0.3522 -1.2271  0.4060
  691MOL0     C93213   8.221   6.381   0.457  0.6209  0.6866  1.3276
  691MOL0     C93214   8.315   6.470   0.389  0.1436 -0.5114 -0.5076
  691MOL0     C93215   8.396   6.530   0.323 -0.4820 -0.0680  0.0009
  691MOL0     C93216   8.325   6.683   1.122 -0.7722  0.3127 -0.8658
  691MOL0     C93217   8.394   6.703   1.244  0.1600 -0.4177  0.8967
  691MOL0     H93218   8.570   6.743   1.726  0.5950  0.5307  1.5946
  691MOL0     H93219   8.772   6.784   1.862 -1.8510 -1.9497 -0.4306
  691MOL0     H93220   8.900   6.918   1.990 -0.9137  1.1743 -1.5729
  691MOL0     H93221   8.987   6.782   1.919  0.8346 -0.0370 -0.7744
  691MOL0     H93222   9.135   7.044   1.972 -0.6207  0.5142 -0.2802
  691MOL0     H93223   9.106   6.919   2.103  1.8652  0.9962  0.8838
  691MOL0     H93224   9.233   6.762   1.942 -1.1247  0.2289  1.5164
  691MOL0     H93225   9.270   6.911   1.855  1.4120 -0.8138  0.2892
  691MOL0     H93226   9.410   6.998   2.065  5.7930 -1.6025  0.0065
  691MOL0     H93227   9.329   6.891   2.169  3.1693  0.6378  0.9325
  691MOL0     H93228   9.555   6.839   2.130 -3.0538  3.9971  0.6470
  691MOL0     H93229   9.457   6.711   2.083  1.1562  0.2115 -0.3276
  691MOL0     H93230   9.627   6.739   1.915 -0.0893 -0.5050  1.1685
  691MOL0     H93231   9.484   6.813   1.840 -0.5177 -0.2051  1.4575
  691MOL0     H93232   9.632   6.989   2.002  0.4972 -2.9986  1.7670
  691MOL0     H93233   9.747   6.924   1.887 -0.2688 -2.4396 -3.6286
  691MOL0     H93234   9.493   7.045   1.785  0.0819 -0.5579 -3.2906
  691MOL0     H93235   9.633   7.029   1.690  3.0471  2.7532  0.4026
  691MOL0     H93236   9.862   7.190   1.774  1.3258  1.5127  0.2001
  691MOL0     H93237   9.847   7.554   1.881 -1.5813 -1.2000  0.4679
  691MOL0     H93238   9.974   7.428   1.864 -0.8437 -0.4312  3.5796
  691MOL0     H93239   9.845   7.558   1.638  0.7688  1.4062 -0.7856
  691MOL0     H93240   9.943   7.413   1.629 -1.5058 -1.0101  0.9161
  691MOL0     H93241  10.139   7.552   1.743  0.7703 -0.4663 -1.7582
  691MOL0     H93242  10.017   7.675   1.741 -2.7950 -0.6659 -1.7856
  691MOL0     H93243  10.019   7.704   1.512 -0.5215  3.4544  3.5956
  691MOL0     H93244  10.119   7.564   1.482 -1.7129  0.9155 -0.4895
  691MOL0     H93245  10.353   7.908   1.671 -0.8371  2.6208  2.4454
  691MOL0     H93246  10.308   8.251   1.672  0.8053  0.7812  0.4824
  691MOL0     H93247  10.412   8.143   1.746  0.4293  5.3290  1.0358
  691MOL0     H93248  10.469   8.207   1.594  0.3837 -0.4884 -0.5790
  691MOL0     H93249  10.462   8.314   1.217 -0.6449 -0.7113  0.0379
  691MOL0     H93250  10.569   8.435   1.028  0.4480  0.3541  3.3509
  691MOL0     H93251  10.618   8.528   0.851 -0.2050 -1.0331 -0.3461
  691MOL0     H93252  10.572   8.604   0.703  0.4056 -1.3015 -0.4584
  691MOL0     H93253  10.592   8.727   0.985  4.5921  1.4073  0.0647
  691MOL0     H93254  10.672   8.777   0.841 -1.2658 -0.4360 -2.0750
  691MOL0     H93255  10.366   8.805   0.881 -0.2371 -1.6660 -2.8513
  691MOL0     H93256  10.451   8.858   0.746 -0.1770  1.8014  0.2635
  691MOL0     H93257  10.488   8.976   1.017  1.6240 -1.1424  0.0295
  691MOL0     H93258  10.605   9.007   0.897 -0.3514  1.2088 -0.5816
  691MOL0     H93259  10.451   9.186   0.911  0.0386  1.1332 -3.7503
  691MOL0     H93260  10.314   9.098   0.902  0.7166  2.6153  1.8264
  691MOL0     H93261  10.356   9.034   0.671  2.7904 -4.1956  2.2822
  691MOL0     H93262  10.370   9.217   0.696  2.5393  1.0904  0.3041
  691MOL0     H93263  10.532   9.133   0.540 -2.4395 -0.9655  0.7963
  691MOL0     H93264  10.594   9.033   0.675 -2.3690 -1.9483 -2.5196
  691MOL0     H93265  10.737   9.211   0.667  0.9709  1.2522  1.1668
  691MOL0     H93266  10.636   9.221   0.813  0.6723  1.4860 -0.2791
  691MOL0     H93267  10.173   8.523   0.861 -1.2753 -1.0189 -0.7852
  691MOL0     H93268  10.073   8.387   1.062  1.0651 -0.3230  3.8919
  691MOL0     H93269  10.125   8.042   1.260  1.9694  1.2077 -0.6436
  691MOL0     H93270  10.121   7.796   1.344  3.7382 -1.5613 -0.3690
  691MOL0     H93271   8.939   7.002   1.548  1.8278 -3.0554 -1.4946
  691MOL0     H93272   8.768   6.899   1.387 -1.2044  1.0659 -0.0290
  691MOL0     H93273   8.587   6.420   1.214  0.8013  1.4210  0.1113
  691MOL0     H93274   8.439   6.377   1.046 -1.8587  0.0910  1.0253
  691MOL0     H93275   8.422   6.498   0.785 -0.4073 -0.3960 -1.5773
  691MOL0     H93276   8.324   6.366   0.854  1.8567  1.4032  1.3951
  691MOL0     H93277   8.250   6.565   0.638  2.4578 -0.1166 -0.5920
  691MOL0     H93278   8.130   6.476   0.736 -0.7297  2.3080 -3.9158
  691MOL0     H93279   8.188   6.276   0.655  1.8459 -1.1636  2.5010
  691MOL0     H93280   8.350   6.309   0.592 -0.3299 -2.0804 -2.8364
  691MOL0     H93281   8.116   6.409   0.452  0.2739 -0.7227 -0.1869
  691MOL0     H93282   8.224   6.290   0.397  1.9779  1.8292 -0.4653
  691MOL0     H93283   8.457   6.598   0.268 -2.8571  0.3611 -2.3328
  691MOL0     H93284   8.262   6.759   1.079 -0.5202  0.5090 -0.8883
  691MOL0     H93285   8.376   6.792   1.304 -0.2049  1.2525 -1.5316
  692MOL0     O93286   4.548   5.824   4.720  0.7024 -0.3691  0.1302
  692MOL0     C93287   4.646   5.887   4.688 -1.3081 -0.3566 -0.0504
  692MOL0     O93288   4.680   5.911   4.551  1.0129 -0.1660  0.1070
  692MOL0     C93289   4.581   5.898   4.456 -0.2129  0.3371 -0.3744
  692MOL0     C93290   4.563   5.788   4.388 -0.3281  0.3799  0.2242
  692MOL0     C93291   4.464   5.767   4.286 -0.4395  0.2287  0.8058
  692MOL0     C93292   4.364   5.869   4.265  0.6705 -0.3243  0.2260
  692MOL0     O93293   4.271   5.851   4.169  0.3280  0.3560  0.0224
  692MOL0     C93294   4.285   5.942   4.059  0.3036 -0.2118  0.7991
  692MOL0     C93295   4.170   5.922   3.958 -0.3533 -0.3758  0.2841
  692MOL0     C93296   4.198   5.804   3.857 -0.3984 -0.1947 -0.3931
  692MOL0     C93297   4.084   5.769   3.766  0.4136 -0.9031  0.3935
  692MOL0     C93298   4.110   5.631   3.704 -0.1106 -0.3531 -0.3764
  692MOL0     C93299   4.027   5.622   3.579 -0.3819 -0.4729 -0.4563
  692MOL0     C93300   4.055   5.497   3.506 -0.7696  0.7359  0.0673
  692MOL0     C93301   3.979   5.487   3.383 -0.1106  0.5183 -0.7094
  692MOL0     N93302   4.043   5.379   3.307  0.8107 -0.3752 -0.3164
  692MOL0     C93303   4.051   5.243   3.334 -0.5544 -0.5965 -0.4446
  692MOL0     C93304   4.083   5.190   3.208  0.4305  0.5701  0.2551
  692MOL0     C93305   4.115   5.040   3.205  0.3010  0.7965  0.6388
  692MOL0     C93306   3.988   4.963   3.223 -0.9155 -0.2530  0.2701
  692MOL0     C93307   4.020   4.820   3.191  0.7974 -0.0236  1.1458
  692MOL0     C93308   3.891   4.723   3.205 -0.0628 -0.0795 -0.3537
  692MOL0     O93309   3.779   4.771   3.132  0.5261 -0.0951 -0.2545
  692MOL0     C93310   3.777   4.775   2.995 -0.1949 -1.0235  0.5337
  692MOL0     C93311   3.724   4.888   2.927 -0.5331  0.4247 -0.8853
  692MOL0     C93312   3.725   4.896   2.789  0.2483  0.6581 -0.6526
  692MOL0     C93313   3.666   5.016   2.727 -0.2999  0.5754 -0.2747
  692MOL0     C93314   3.788   4.805   2.710 -0.1448  1.0285 -0.2049
  692MOL0     C93315   3.820   4.832   2.565  0.9842  1.0389  0.9822
  692MOL0     O93316   3.801   4.727   2.480  0.2395 -0.0147 -0.2842
  692MOL0     C93317   3.896   4.732   2.386  0.5880  0.3205  0.3914
  692MOL0     C93318   4.021   4.671   2.413 -0.3688  1.1909 -0.8235
  692MOL0     C93319   4.111   4.639   2.316  0.5510  0.2285  1.0203
  692MOL0     C93320   4.086   4.686   2.184  0.2289  0.3503 -0.3061
  692MOL0     O93321   4.181   4.646   2.087 -0.1672 -0.2023  0.1262
  692MOL0     C93322   4.198   4.728   1.970  0.5751  0.6052 -0.0022
  692MOL0     C93323   4.234   4.629   1.859 -0.8480  0.0159  0.2550
  692MOL0     C93324   4.108   4.560   1.792 -0.7191 -0.1059  0.1997
  692MOL0     C93325   4.156   4.458   1.679 -0.1150 -0.3249 -0.5158
  692MOL0     C93326   4.045   4.360   1.648  0.1014  1.2257  0.2862
  692MOL0     C93327   4.094   4.266   1.538 -0.2148  0.1627 -0.6494
  692MOL0     C93328   3.978   4.169   1.487  0.3447  0.1394  0.5954
  692MOL0     C93329   4.028   4.107   1.356 -0.4265 -0.6731  0.0556
  692MOL0    Cl93330   4.024   4.208   1.213 -0.1983  0.0370  0.2685
  692MOL0     C93331   3.964   4.755   2.162 -0.7409 -0.2553  0.0883
  692MOL0     C93332   3.871   4.768   2.259  0.3239 -1.4606  1.0675
  692MOL0     O93333   3.864   4.943   2.532  0.3220 -1.2200 -0.3068
  692MOL0     C93334   3.845   4.690   2.776  0.4022 -0.5755 -0.2454
  692MOL0     C93335   3.843   4.679   2.921  1.3939 -0.3186  0.6646
  692MOL0     N93336   4.109   5.290   3.118  1.2301 -0.3195 -0.2236
  692MOL0     N93337   4.091   5.403   3.183  0.8125  0.3240  0.2955
  692MOL0     C93338   4.373   5.978   4.352 -0.4512 -0.6388  0.1818
  692MOL0     C93339   4.477   5.992   4.437  0.3998 -0.2899  0.2166
  692MOL0     C93340   4.739   5.952   4.790  0.1288  0.5543  0.1423
  692MOL0     C93341   4.843   6.033   4.747 -0.6315  0.4720 -0.1199
  692MOL0     C93342   4.937   6.088   4.844  0.0561  0.0742  0.2955
  692MOL0     C93343   4.913   6.069   4.983  0.5061  0.7617  0.0365
  692MOL0     O93344   5.007   6.120   5.072  0.0957  0.5898  1.4727
  692MOL0     C93345   5.071   6.243   5.076  0.3962  0.1103  0.4172
  692MOL0     C93346   5.147   6.268   5.212 -0.2482  0.9260  0.0080
  692MOL0     C93347   5.094   6.186   5.339  0.9244 -0.6719 -0.6536
  692MOL0     C93348   5.185   6.211   5.451 -1.3344  0.5797  0.4406
  692MOL0     C93349   5.165   6.332   5.536  0.7427 -0.1436 -0.1015
  692MOL0     C93350   5.155   6.428   5.608 -0.3426 -0.3183 -0.0664
  692MOL0     C93351   4.810   5.984   5.025 -0.1421 -0.0271  0.8312
  692MOL0     C93352   4.723   5.925   4.923  0.0450  0.1517  0.0473
  692MOL0     H93353   4.631   5.705   4.403 -2.6990 -1.9457 -1.1122
  692MOL0     H93354   4.447   5.673   4.235 -1.3172 -0.1541  1.7593
  692MOL0     H93355   4.283   6.042   4.104  1.7326  0.0220  0.3788
  692MOL0     H93356   4.380   5.929   4.008  0.6938  0.0011  1.4510
  692MOL0     H93357   4.075   5.909   4.010 -0.5202 -1.7739 -0.3231
  692MOL0     H93358   4.155   6.010   3.894 -2.7853 -1.2489 -0.4567
  692MOL0     H93359   4.289   5.819   3.798  0.5764  0.0234  1.0982
  692MOL0     H93360   4.232   5.718   3.916  0.8462  1.0823  0.8311
  692MOL0     H93361   3.986   5.770   3.814 -1.6355  2.3418 -3.2665
  692MOL0     H93362   4.077   5.847   3.690 -1.2025 -1.5854 -0.2135
  692MOL0     H93363   4.215   5.620   3.675  0.6258 -0.6238  2.0789
  692MOL0     H93364   4.078   5.546   3.766  4.4930 -3.3730 -1.6157
  692MOL0     H93365   3.921   5.627   3.604 -1.4236 -3.4736 -3.4804
  692MOL0     H93366   4.050   5.708   3.515 -0.7287  0.3046  0.4348
  692MOL0     H93367   4.162   5.505   3.486 -0.4782  0.1388  1.2744
  692MOL0     H93368   4.025   5.408   3.562 -2.5392  2.2640  1.6965
  692MOL0     H93369   3.982   5.583   3.329 -2.2609  0.4787 -0.9877
  692MOL0     H93370   3.875   5.462   3.408  0.5594 -1.9778 -0.1159
  692MOL0     H93371   4.043   5.192   3.430  0.7238 -0.2125 -0.1256
  692MOL0     H93372   4.154   5.029   3.104 -0.4203  3.0562  0.0379
  692MOL0     H93373   4.176   5.020   3.294 -0.2963  2.7837  1.5590
  692MOL0     H93374   3.923   5.002   3.143 -1.8263 -0.6647  0.7920
  692MOL0     H93375   3.945   4.973   3.323  2.4381 -0.6260  1.8856
  692MOL0     H93376   4.096   4.787   3.261 -1.5124 -2.7942  2.5520
  692MOL0     H93377   4.057   4.802   3.089 -0.3859 -1.8084  0.9927
  692MOL0     H93378   3.863   4.720   3.311  0.8117 -1.7116 -0.1206
  692MOL0     H93379   3.935   4.626   3.180  0.3765  0.0943 -0.2728
  692MOL0     H93380   3.666   4.962   2.981  2.3182  1.5975  0.8061
  692MOL0     H93381   3.594   5.061   2.796  0.9953  1.4795  0.5405
  692MOL0     H93382   3.741   5.090   2.699  0.4664  0.3369  1.0600
  692MOL0     H93383   3.612   4.984   2.637  0.4645 -1.9398  0.0933
  692MOL0     H93384   4.046   4.639   2.514  0.3245 -1.9091 -1.8847
  692MOL0     H93385   4.205   4.585   2.325 -1.5438 -3.6477  1.6573
  692MOL0     H93386   4.109   4.790   1.954 -0.6840 -1.2029 -0.3173
  692MOL0     H93387   4.285   4.792   1.988 -0.2774  2.1933 -1.2855
  692MOL0     H93388   4.294   4.666   1.776  0.5363 -0.6511  0.9275
  692MOL0     H93389   4.298   4.553   1.906 -0.4946  0.4719  0.5247
  692MOL0     H93390   4.051   4.641   1.745  0.7881 -0.2492 -2.0291
  692MOL0     H93391   4.042   4.506   1.861 -1.3720  3.3246  2.5238
  692MOL0     H93392   4.179   4.517   1.589 -0.2454  1.5888  0.6647
  692MOL0     H93393   4.246   4.398   1.693 -0.1940 -1.2507 -3.2777
  692MOL0     H93394   3.955   4.416   1.622  0.6934  3.0383  1.9431
  692MOL0     H93395   4.008   4.305   1.734 -1.1226  0.7686 -0.5025
  692MOL0     H93396   4.132   4.339   1.466  1.1095 -1.1762 -1.3614
  692MOL0     H93397   4.178   4.202   1.566 -2.1593 -1.2828  2.4405
  692MOL0     H93398   3.880   4.214   1.471 -1.7328 -3.2032  2.7653
  692MOL0     H93399   3.963   4.093   1.564  0.0424 -0.8955 -0.4673
  692MOL0     H93400   3.966   4.017   1.347 -0.4478 -0.5714 -0.9977
  692MOL0     H93401   4.130   4.071   1.369 -0.5783 -1.5968 -1.1381
  692MOL0     H93402   3.935   4.778   2.060  0.5446 -0.6853 -0.4045
  692MOL0     H93403   3.773   4.806   2.229  0.7099 -1.0751  0.2615
  692MOL0     H93404   3.891   4.614   2.713  6.4007 -0.1640  2.9824
  692MOL0     H93405   3.874   4.590   2.975  1.4290  0.1990  1.5219
  692MOL0     H93406   4.300   6.057   4.345 -0.6415 -0.9503 -1.7847
  692MOL0     H93407   4.484   6.087   4.489 -1.2177  1.5941 -2.7247
  692MOL0     H93408   4.850   6.056   4.641 -2.0108 -0.6344 -0.4794
  692MOL0     H93409   5.015   6.154   4.810 -0.8505  1.2822  0.5001
  692MOL0     H93410   5.137   6.258   4.990  1.5867 -0.8427  1.1195
  692MOL0     H93411   4.988   6.314   5.068 -1.3570 -1.5713  2.4678
  692MOL0     H93412   5.151   6.376   5.234  1.7984  0.5586  1.7495
  692MOL0     H93413   5.249   6.234   5.191 -0.6958  0.0731 -0.8170
  692MOL0     H93414   5.079   6.082   5.311  2.8104 -0.3254 -3.3432
  692MOL0     H93415   4.996   6.227   5.366  0.8709 -2.0981  1.5278
  692MOL0     H93416   5.287   6.217   5.412 -1.1748  1.9244  1.0267
  692MOL0     H93417   5.192   6.121   5.513  1.8222 -1.0191 -1.9451
  692MOL0     H93418   5.161   6.508   5.678  1.9549 -0.5906  0.1447
  692MOL0     H93419   4.802   5.955   5.130 -2.2858  2.0937  1.3464
  692MOL0     H93420   4.641   5.859   4.947 -0.7224  0.3680 -1.8335
  693MOL0     O93421   3.528  11.028   6.197  1.2167  0.7829  0.1018
  693MOL0     C93422   3.527  10.907   6.207 -0.2471  0.2595  0.0288
  693MOL0     O93423   3.478  10.834   6.320 -0.2758  0.0649  0.5573
  693MOL0     C93424   3.418  10.928   6.411 -1.0030  1.2146 -0.8950
  693MOL0     C93425   3.276  10.947   6.410 -0.0524 -0.3138  0.1382
  693MOL0     C93426   3.218  11.043   6.487  0.1643  0.1310 -0.6653
  693MOL0     C93427   3.301  11.129   6.572  0.6295 -0.4699 -0.3113
  693MOL0     O93428   3.242  11.204   6.672  0.3799  0.7001  0.9321
  693MOL0     C93429   3.210  11.331   6.612  0.0450 -0.8547 -0.2957
  693MOL0     C93430   3.188  11.428   6.735 -0.6546  0.2928 -0.2204
  693MOL0     C93431   3.141  11.562   6.697  0.4532 -0.4196  0.3159
  693MOL0     C93432   3.090  11.638   6.821  0.4987 -1.0492 -0.4842
  693MOL0     C93433   3.200  11.738   6.864  0.1415  0.1097  0.1014
  693MOL0     C93434   3.174  11.821   6.986 -0.4094 -0.1322 -0.2131
  693MOL0     C93435   3.060  11.916   6.964  0.2577 -0.3542 -0.7510
  693MOL0     C93436   3.047  12.009   7.090 -0.7574  0.7085  0.3044
  693MOL0     N93437   2.946  12.115   7.076  0.1499  0.5766  0.2355
  693MOL0     C93438   2.956  12.235   7.004 -0.1884  0.0028 -0.7243
  693MOL0     C93439   2.832  12.286   6.994  0.0472  0.0633 -0.2743
  693MOL0     C93440   2.771  12.412   6.936  0.2060 -0.2128  0.0263
  693MOL0     C93441   2.759  12.522   7.031 -1.0033 -0.1202 -0.5703
  693MOL0     C93442   2.678  12.488   7.155  0.8608 -0.0234  1.2527
  693MOL0     C93443   2.661  12.607   7.246  0.0597 -0.9418  0.0530
  693MOL0     O93444   2.562  12.700   7.186  0.3530 -0.0489 -0.0166
  693MOL0     C93445   2.461  12.752   7.261  0.1213  0.3767  0.0436
  693MOL0     C93446   2.462  12.750   7.400 -0.6525 -0.4335 -0.1326
  693MOL0     C93447   2.348  12.796   7.470  0.1825 -0.1756  0.3537
  693MOL0     C93448   2.371  12.819   7.619  0.5402  0.5915 -0.1136
  693MOL0     C93449   2.236  12.839   7.406  0.3416  1.0925 -0.7174
  693MOL0     C93450   2.119  12.899   7.471  0.4150 -0.3598  0.5433
  693MOL0     O93451   2.000  12.906   7.400  0.1448 -0.5711 -0.3951
  693MOL0     C93452   1.900  12.969   7.457  0.6008 -0.1396 -0.4597
  693MOL0     C93453   1.888  13.109   7.438 -0.0566  0.6421 -0.2257
  693MOL0     C93454   1.775  13.172   7.479 -0.8132  0.3572 -0.1378
  693MOL0     C93455   1.672  13.111   7.544  0.2326 -0.3235 -0.0566
  693MOL0     O93456   1.553  13.168   7.576  1.1086  0.6481  0.0029
  693MOL0     C93457   1.529  13.313   7.558 -0.7029 -0.2354 -0.3749
  693MOL0     C93458   1.425  13.362   7.655  0.3651  0.5279 -0.7263
  693MOL0     C93459   1.290  13.395   7.582 -0.6273 -0.5678  0.8195
  693MOL0     C93460   1.182  13.418   7.692 -0.6709  0.2427 -0.0006
  693MOL0     C93461   1.047  13.452   7.639  0.4917  0.3665  0.3353
  693MOL0     C93462   0.963  13.337   7.574 -0.3765 -0.9933  0.5346
  693MOL0     C93463   0.814  13.360   7.570 -0.0110 -0.5465 -0.1970
  693MOL0     C93464   0.776  13.482   7.489 -0.3806  0.4275 -0.1192
  693MOL0    Cl93465   0.821  13.454   7.309 -0.2600  0.1057 -0.0165
  693MOL0     C93466   1.690  12.977   7.574 -0.5979 -0.0903  0.4144
  693MOL0     C93467   1.801  12.902   7.528  0.0205  0.4318  0.0366
  693MOL0     O93468   2.137  12.953   7.582  0.1825  0.2220 -0.6381
  693MOL0     C93469   2.236  12.836   7.263 -1.0574  0.7683 -0.3624
  693MOL0     C93470   2.347  12.787   7.193 -0.0765 -0.4920 -0.1987
  693MOL0     N93471   2.741  12.202   7.063 -0.2836  0.2898  0.4584
  693MOL0     N93472   2.811  12.095   7.097 -1.1514  0.6105  0.0646
  693MOL0     C93473   3.437  11.125   6.569 -0.1440  0.0592 -0.1277
  693MOL0     C93474   3.490  11.023   6.486  0.2617 -0.7008 -0.6722
  693MOL0     C93475   3.587  10.825   6.107  0.3010 -0.7184  0.6150
  693MOL0     C93476   3.623  10.884   5.987  0.7453 -0.3635 -0.0943
  693MOL0     C93477   3.685  10.802   5.884  0.7992  0.4765 -0.1891
  693MOL0     C93478   3.690  10.664   5.905 -0.0937  0.6460  0.2973
  693MOL0     O93479   3.733  10.600   5.794 -0.2402  0.6703 -0.1234
  693MOL0     C93480   3.812  10.486   5.823 -0.4107  0.4563  0.2599
  693MOL0     C93481   3.942  10.525   5.907  0.3443  0.6920  0.3839
  693MOL0     C93482   4.071  10.434   5.889  0.1210  0.3955  0.0123
  693MOL0     C93483   4.186  10.474   5.988  1.4595 -0.4564 -0.2595
  693MOL0     C93484   4.237  10.610   5.970 -1.0490  0.4208 -0.2090
  693MOL0     C93485   4.287  10.716   5.942  0.5471 -0.3012  0.2397
  693MOL0     C93486   3.647  10.601   6.025 -0.0557  0.0475  0.4781
  693MOL0     C93487   3.599  10.685   6.125  0.1426  0.3754 -0.4343
  693MOL0     H93488   3.215  10.880   6.350 -1.9016  0.4470  1.1160
  693MOL0     H93489   3.113  11.070   6.478  0.2522  0.2614 -1.3293
  693MOL0     H93490   3.284  11.380   6.548  1.6219 -0.7714  1.4818
  693MOL0     H93491   3.117  11.313   6.558 -0.7407  0.7749  0.4283
  693MOL0     H93492   3.115  11.383   6.802 -1.8479  1.3538 -0.7729
  693MOL0     H93493   3.281  11.437   6.792  0.0249  1.9294 -1.4875
  693MOL0     H93494   3.225  11.613   6.648  0.1634 -0.5695 -0.3481
  693MOL0     H93495   3.049  11.560   6.638  1.7874 -0.9659 -1.8766
  693MOL0     H93496   3.005  11.702   6.797  0.9018 -0.5945 -0.7167
  693MOL0     H93497   3.056  11.574   6.903 -0.4446 -1.7398 -1.3790
  693MOL0     H93498   3.285  11.670   6.873  2.4961  2.8184 -0.1631
  693MOL0     H93499   3.217  11.805   6.779 -1.5130 -0.3858 -0.6629
  693MOL0     H93500   3.154  11.757   7.073 -3.2804 -0.3922 -0.9441
  693MOL0     H93501   3.260  11.885   7.005 -1.1127  0.5337  0.8199
  693MOL0     H93502   3.077  11.985   6.881  1.3218  0.3443  0.0215
  693MOL0     H93503   2.974  11.850   6.949  0.2505 -0.5037 -0.0551
  693MOL0     H93504   3.142  12.055   7.116  0.7272 -2.3666  0.7549
  693MOL0     H93505   3.023  11.941   7.172 -0.8831  1.4500  0.9000
  693MOL0     H93506   3.059  12.254   6.974  0.8761 -1.3641  1.7656
  693MOL0     H93507   2.854  12.446   6.873 -1.7591  1.1093 -1.9968
  693MOL0     H93508   2.672  12.400   6.891 -0.8221  4.7595  0.3531
  693MOL0     H93509   2.713  12.609   6.984  2.3331 -0.4564 -5.1173
  693MOL0     H93510   2.859  12.541   7.072 -0.4421 -0.6947 -1.6134
  693MOL0     H93511   2.736  12.417   7.214 -0.1479 -1.5038  0.5471
  693MOL0     H93512   2.583  12.441   7.128  1.2394 -0.5345  0.7839
  693MOL0     H93513   2.760  12.650   7.265  0.7317 -0.3513 -3.8535
  693MOL0     H93514   2.631  12.565   7.342  1.4292 -3.8225 -0.6652
  693MOL0     H93515   2.551  12.726   7.457  1.2113  1.9528 -1.8203
  693MOL0     H93516   2.283  12.790   7.677 -0.0564  1.9504 -0.2946
  693MOL0     H93517   2.454  12.759   7.658  1.3343 -0.1885 -2.7412
  693MOL0     H93518   2.400  12.924   7.622  0.1167  0.8291 -2.2919
  693MOL0     H93519   1.976  13.167   7.409  0.2506  0.5014  0.4183
  693MOL0     H93520   1.765  13.279   7.460  0.1739  0.2975 -1.0987
  693MOL0     H93521   1.619  13.374   7.574  0.2707 -1.4875 -0.8652
  693MOL0     H93522   1.502  13.339   7.455  2.9064  0.3644 -1.3156
  693MOL0     H93523   1.412  13.293   7.739  1.7405  0.6780 -0.3546
  693MOL0     H93524   1.466  13.451   7.704  1.4146 -0.7390  0.8020
  693MOL0     H93525   1.251  13.315   7.519 -2.1690 -0.4562  1.5908
  693MOL0     H93526   1.298  13.482   7.515  0.5013  0.1757  1.8654
  693MOL0     H93527   1.181  13.326   7.752  1.5381  1.1706  1.5757
  693MOL0     H93528   1.215  13.501   7.755 -2.5633 -0.9800  2.8177
  693MOL0     H93529   1.058  13.530   7.564 -0.1812 -1.0345 -1.2967
  693MOL0     H93530   0.993  13.502   7.719 -2.2418 -0.1212 -1.0752
  693MOL0     H93531   0.998  13.326   7.471  0.8440 -1.8937  1.0323
  693MOL0     H93532   0.983  13.242   7.624 -1.1399 -2.3061 -1.5253
  693MOL0     H93533   0.795  13.386   7.674  3.5950  0.3219  0.3995
  693MOL0     H93534   0.759  13.272   7.537  0.8679 -2.0360  2.0232
  693MOL0     H93535   0.824  13.571   7.530 -0.8840  0.6084  0.0900
  693MOL0     H93536   0.669  13.500   7.506 -0.5135 -0.0049 -0.4650
  693MOL0     H93537   1.600  12.928   7.610 -2.1169  0.8334 -1.8406
  693MOL0     H93538   1.813  12.794   7.528 -0.5685  0.3177 -2.2973
  693MOL0     H93539   2.159  12.879   7.200 -1.0210  1.9171  0.3519
  693MOL0     H93540   2.353  12.780   7.085 -1.7447  1.1427 -0.4637
  693MOL0     H93541   3.500  11.195   6.623  3.2709 -3.0134  0.2160
  693MOL0     H93542   3.597  11.039   6.483  0.2182  0.2329  1.3188
  693MOL0     H93543   3.619  10.991   5.971 -0.7636 -0.7323 -2.8092
  693MOL0     H93544   3.710  10.855   5.793 -2.2549  2.1116 -0.1930
  693MOL0     H93545   3.750  10.407   5.866  0.9829 -1.3946 -0.9822
  693MOL0     H93546   3.842  10.455   5.723  1.4160  0.9843  0.6066
  693MOL0     H93547   3.912  10.549   6.009 -2.2169  3.4065 -0.8334
  693MOL0     H93548   3.969  10.627   5.877  3.3254 -0.8878 -3.1333
  693MOL0     H93549   4.108  10.449   5.787 -0.5203  0.5405 -0.2044
  693MOL0     H93550   4.032  10.334   5.908  1.0386 -0.1692 -0.9822
  693MOL0     H93551   4.269  10.405   5.973  0.7603 -1.5801  0.8519
  693MOL0     H93552   4.145  10.470   6.089  0.6244 -2.1294 -0.6317
  693MOL0     H93553   4.328  10.815   5.945 -0.7015  0.3849 -2.3885
  693MOL0     H93554   3.643  10.493   6.036 -0.2315  0.0651  0.5882
  693MOL0     H93555   3.582  10.638   6.221  1.2040  1.2399  0.2050
  694MOL0     O93556   0.353   0.731  10.642 -0.5465  0.3889  0.0994
  694MOL0     C93557   0.411   0.834  10.676  0.4023  0.1938 -0.4661
  694MOL0     O93558   0.346   0.952  10.704  0.5641 -1.0836 -0.5131
  694MOL0     C93559   0.214   0.938  10.698 -0.4581  0.2628  0.8541
  694MOL0     C93560   0.143   0.879  10.804 -0.2988 -0.8966  1.2157
  694MOL0     C93561   0.005   0.878  10.796  0.3141 -0.1000  0.7638
  694MOL0     C93562  -0.066   0.934  10.691 -0.5420  0.5926  0.2876
  694MOL0     O93563  -0.200   0.928  10.707  0.3895 -0.1138  0.2302
  694MOL0     C93564  -0.285   0.919  10.585  0.1855  0.1368  0.3415
  694MOL0     C93565  -0.432   0.903  10.617 -0.6960  0.2807  0.4908
  694MOL0     C93566  -0.472   0.759  10.668 -1.4402 -0.0301  0.0974
  694MOL0     C93567  -0.620   0.743  10.698 -0.2616 -0.8925  1.2185
  694MOL0     C93568  -0.683   0.631  10.769 -0.0095 -0.4610  0.0029
  694MOL0     C93569  -0.599   0.585  10.887  0.1450 -0.2277  0.1654
  694MOL0     C93570  -0.668   0.473  10.975 -0.3666  0.1355 -0.0425
  694MOL0     C93571  -0.560   0.405  11.072  0.6185 -1.2573 -0.2829
  694MOL0     N93572  -0.620   0.330  11.180  0.5039 -0.6546 -0.5421
  694MOL0     C93573  -0.748   0.318  11.222 -0.9553 -1.0331  0.1571
  694MOL0     C93574  -0.749   0.256  11.341  0.2694 -0.1452  0.5098
  694MOL0     C93575  -0.874   0.238  11.415 -0.3633  0.3683 -0.7231
  694MOL0     C93576  -0.930   0.087  11.410 -0.6265  0.3121  0.0875
  694MOL0     C93577  -0.994   0.067  11.262  0.3225 -0.0550 -1.0054
  694MOL0     C93578  -1.085  -0.053  11.261  0.1662  0.6271 -0.0265
  694MOL0     O93579  -1.127  -0.091  11.125  0.3219  0.2118  0.6528
  694MOL0     C93580  -1.220  -0.201  11.123  0.2757 -0.7220  0.4825
  694MOL0     C93581  -1.236  -0.244  10.991  0.1920  0.0395 -0.1373
  694MOL0     C93582  -1.303  -0.368  10.954  0.9391  0.3845  0.5743
  694MOL0     C93583  -1.305  -0.410  10.805 -0.2798 -0.3600  0.0423
  694MOL0     C93584  -1.368  -0.441  11.059  0.0223 -0.2191 -0.6012
  694MOL0     C93585  -1.447  -0.567  11.047 -0.3999  0.7682 -0.4756
  694MOL0     O93586  -1.431  -0.654  11.157  0.8688 -0.5111 -0.6861
  694MOL0     C93587  -1.509  -0.760  11.187  1.2126  1.4180  0.1844
  694MOL0     C93588  -1.439  -0.871  11.234 -0.7673 -0.1803 -0.3116
  694MOL0     C93589  -1.519  -0.990  11.243 -0.7523 -0.4323 -0.3129
  694MOL0     C93590  -1.655  -1.004  11.218  0.0527  0.9311  0.2687
  694MOL0     O93591  -1.736  -1.129  11.216  0.2119  1.4699 -0.1355
  694MOL0     C93592  -1.699  -1.237  11.307 -0.2851 -1.3011  1.0076
  694MOL0     C93593  -1.701  -1.183  11.448  0.9412  0.7586 -0.9117
  694MOL0     C93594  -1.740  -1.310  11.541 -0.6917 -0.0296  0.1648
  694MOL0     C93595  -1.735  -1.267  11.685  0.4412  0.2675 -0.8942
  694MOL0     C93596  -1.801  -1.378  11.773  0.5537  0.0956  0.0809
  694MOL0     C93597  -1.768  -1.361  11.918  0.5702  0.6683 -0.1371
  694MOL0     C93598  -1.866  -1.437  12.008 -0.8936  0.6008 -1.1799
  694MOL0     C93599  -1.852  -1.412  12.159 -0.6864 -0.4280 -0.3076
  694MOL0    Cl93600  -1.873  -1.239  12.207  0.1268 -0.2569  0.0165
  694MOL0     C93601  -1.723  -0.888  11.180 -0.0616  0.7180 -0.9162
  694MOL0     C93602  -1.654  -0.764  11.171  0.2009 -0.0264 -0.3216
  694MOL0     O93603  -1.516  -0.591  10.949 -0.0601 -0.3035 -0.4478
  694MOL0     C93604  -1.368  -0.386  11.194  0.0435 -0.5988  0.0646
  694MOL0     C93605  -1.281  -0.271  11.225  1.1962 -0.1804 -0.1501
  694MOL0     N93606  -0.625   0.198  11.352  0.0329  1.0060 -0.2086
  694MOL0     N93607  -0.549   0.250  11.257  0.0757 -0.0310 -0.1690
  694MOL0     C93608   0.005   1.009  10.600 -0.9776 -0.7812  1.1884
  694MOL0     C93609   0.151   1.004  10.591  0.8557  0.5967 -0.6052
  694MOL0     C93610   0.559   0.831  10.676 -0.0367 -0.6929 -0.1268
  694MOL0     C93611   0.621   0.942  10.738 -0.5896 -1.1174  0.3317
  694MOL0     C93612   0.757   0.963  10.721  0.5667 -0.1180  0.2665
  694MOL0     C93613   0.835   0.865  10.670  0.1600  0.6669  0.3676
  694MOL0     O93614   0.971   0.857  10.682 -0.1402 -0.0363 -0.2565
  694MOL0     C93615   1.048   0.960  10.748  0.4758  0.6601  0.6802
  694MOL0     C93616   1.065   1.084  10.659 -0.7233  0.3441  0.9320
  694MOL0     C93617   1.108   1.203  10.749  0.8000  0.5758  1.3628
  694MOL0     C93618   1.173   1.327  10.671 -0.3214  0.4444  0.3218
  694MOL0     C93619   1.188   1.450  10.750 -0.0566  0.4995 -0.8216
  694MOL0     C93620   1.202   1.557  10.809  0.6338 -0.4639  0.3185
  694MOL0     C93621   0.773   0.740  10.629  0.0663 -0.8877  0.0010
  694MOL0     C93622   0.635   0.727  10.625 -0.3500  0.3628 -0.1627
  694MOL0     H93623   0.188   0.841  10.895 -1.1883  0.7905  2.4267
  694MOL0     H93624  -0.050   0.834  10.878 -1.2664 -1.7142 -1.0570
  694MOL0     H93625  -0.301   1.011  10.529 -0.1030  0.6764  1.2931
  694MOL0     H93626  -0.254   0.852  10.504  1.3578 -1.5864  2.1300
  694MOL0     H93627  -0.465   0.981  10.686 -0.0696  0.2659  0.8150
  694MOL0     H93628  -0.493   0.919  10.528 -2.5911 -4.0643  0.7719
  694MOL0     H93629  -0.445   0.682  10.594  2.5323  1.2570 -0.0143
  694MOL0     H93630  -0.408   0.724  10.749  2.7482 -2.3507 -3.7507
  694MOL0     H93631  -0.632   0.830  10.763 -0.1037  1.6977 -1.9594
  694MOL0     H93632  -0.675   0.758  10.605  1.0833 -2.2793  0.1481
  694MOL0     H93633  -0.772   0.677  10.813 -1.5212 -0.1583 -3.0817
  694MOL0     H93634  -0.701   0.553  10.694  0.8038  1.6366 -2.5473
  694MOL0     H93635  -0.505   0.554  10.840  1.7615  3.2695  0.7431
  694MOL0     H93636  -0.567   0.664  10.955  0.1551 -0.2264  0.1595
  694MOL0     H93637  -0.744   0.513  11.043 -0.5080 -0.0981 -0.0630
  694MOL0     H93638  -0.701   0.391  10.910  5.2586 -3.5999  1.1055
  694MOL0     H93639  -0.505   0.491  11.112  1.6485 -2.3225  0.6165
  694MOL0     H93640  -0.490   0.348  11.011  0.8564  0.3882 -1.6444
  694MOL0     H93641  -0.839   0.363  11.182 -2.6412 -4.0839  0.2578
  694MOL0     H93642  -0.855   0.267  11.519  0.4810 -0.7692 -0.5346
  694MOL0     H93643  -0.944   0.317  11.389  0.9342  2.1879  0.9936
  694MOL0     H93644  -1.000   0.074  11.492  2.0332 -0.7579  2.3622
  694MOL0     H93645  -0.852   0.011  11.420 -1.1445 -0.0306  1.7962
  694MOL0     H93646  -0.924   0.063  11.177  0.6004 -1.1017 -0.7456
  694MOL0     H93647  -1.060   0.152  11.243 -4.1627 -3.1633 -0.9118
  694MOL0     H93648  -1.174  -0.030  11.320  1.1587 -0.4795  1.9771
  694MOL0     H93649  -1.029  -0.135  11.305  0.4275 -1.0621 -3.1931
  694MOL0     H93650  -1.173  -0.184  10.926  2.8378  0.0288  2.2333
  694MOL0     H93651  -1.269  -0.513  10.793  0.9600 -0.0567  0.9205
  694MOL0     H93652  -1.406  -0.392  10.768 -1.6187  0.7291  3.8082
  694MOL0     H93653  -1.229  -0.349  10.755  0.9586 -0.8706  1.2464
  694MOL0     H93654  -1.333  -0.862  11.258 -0.2928 -0.3909 -2.1635
  694MOL0     H93655  -1.474  -1.083  11.274 -1.7726 -0.5006  1.0125
  694MOL0     H93656  -1.755  -1.330  11.303 -1.6111 -0.7822  4.3264
  694MOL0     H93657  -1.602  -1.260  11.263 -0.5237  0.6628 -0.7198
  694MOL0     H93658  -1.600  -1.162  11.486  1.3622 -2.6796  0.2539
  694MOL0     H93659  -1.764  -1.095  11.466  1.3127  0.4105  3.1817
  694MOL0     H93660  -1.666  -1.390  11.533 -0.9072 -0.4048  1.6923
  694MOL0     H93661  -1.840  -1.353  11.524 -0.4808 -0.8144  0.8609
  694MOL0     H93662  -1.631  -1.255  11.717  0.4465 -1.9052  0.0818
  694MOL0     H93663  -1.790  -1.173  11.681 -1.9774 -1.0753 -3.1404
  694MOL0     H93664  -1.772  -1.477  11.735  1.4074  0.3763 -0.0258
  694MOL0     H93665  -1.910  -1.371  11.780  0.6689  1.3038  0.8936
  694MOL0     H93666  -1.669  -1.403  11.935 -0.6839 -2.0489  1.1853
  694MOL0     H93667  -1.760  -1.257  11.951 -0.0289  0.6341  0.1246
  694MOL0     H93668  -1.866  -1.547  12.003  0.3002  0.4694  0.8046
  694MOL0     H93669  -1.968  -1.402  11.991 -1.0401 -0.0454 -1.6992
  694MOL0     H93670  -1.751  -1.452  12.173 -1.0078 -2.9200 -3.7848
  694MOL0     H93671  -1.921  -1.485  12.203  0.3397 -1.5586 -0.5110
  694MOL0     H93672  -1.831  -0.886  11.166 -0.6565  1.6768  2.6725
  694MOL0     H93673  -1.701  -0.675  11.132 -1.8482 -2.4148 -3.8615
  694MOL0     H93674  -1.432  -0.428  11.270 -2.2048  2.2797 -0.0373
  694MOL0     H93675  -1.289  -0.238  11.328  0.6068 -3.8573  1.1598
  694MOL0     H93676  -0.044   1.073  10.527 -0.6261 -2.4149 -0.5687
  694MOL0     H93677   0.211   1.063  10.523  0.9644 -0.6463 -1.6296
  694MOL0     H93678   0.557   1.025  10.764 -1.2295 -0.5319 -2.7054
  694MOL0     H93679   0.800   1.053  10.764  0.9485 -0.8430  1.4504
  694MOL0     H93680   1.008   0.989  10.846 -1.2497  2.7250 -0.5573
  694MOL0     H93681   1.152   0.930  10.769  0.1870  0.3102  1.6405
  694MOL0     H93682   0.968   1.111  10.617 -0.4654  2.8304  1.7986
  694MOL0     H93683   1.146   1.071  10.586  0.6797  2.7165  1.9733
  694MOL0     H93684   1.182   1.163  10.819  3.3562  0.1549 -1.3135
  694MOL0     H93685   1.023   1.242  10.804 -0.0095  3.2250 -1.4841
  694MOL0     H93686   1.109   1.350  10.585  2.2054 -0.4030 -1.9503
  694MOL0     H93687   1.267   1.291  10.628  0.4111 -0.2639  2.4213
  694MOL0     H93688   1.208   1.643  10.873  1.3073 -1.0021  0.9983
  694MOL0     H93689   0.837   0.654  10.616  0.7958 -0.5195  1.0086
  694MOL0     H93690   0.582   0.639  10.590 -0.0988 -0.0596  0.4885
  695MOL0     O93691   8.099   5.147   7.424  0.4889 -0.6008 -0.1344
  695MOL0     C93692   8.010   5.114   7.491 -1.1668 -0.1057 -0.0398
  695MOL0     O93693   8.025   5.062   7.616 -0.2879 -1.4730 -0.4476
  695MOL0     C93694   8.134   5.066   7.699 -0.0288 -0.5661  0.1700
  695MOL0     C93695   8.155   4.958   7.773 -0.0492 -1.2110 -0.4385
  695MOL0     C93696   8.267   4.954   7.858  0.6639  0.1297  0.8328
  695MOL0     C93697   8.356   5.066   7.870 -0.4557 -0.6858  0.1834
  695MOL0     O93698   8.472   5.052   7.941  0.0943 -0.2338 -0.0047
  695MOL0     C93699   8.544   5.163   7.985 -0.9428 -0.5120  0.0568
  695MOL0     C93700   8.687   5.115   8.025 -1.6071 -0.2951 -0.6462
  695MOL0     C93701   8.712   4.995   8.106 -0.8036  0.5570  0.0906
  695MOL0     C93702   8.732   4.883   8.010  0.2175 -0.0462 -1.2228
  695MOL0     C93703   8.716   4.739   8.069  0.5681 -0.5009 -0.2598
  695MOL0     C93704   8.716   4.643   7.953  0.5127 -0.5253 -0.2696
  695MOL0     C93705   8.696   4.498   8.022 -0.5008  0.0557  0.2722
  695MOL0     C93706   8.544   4.466   8.035 -0.1671  0.2983  0.7183
  695MOL0     N93707   8.481   4.387   7.917  0.5435 -0.0307 -1.0378
  695MOL0     C93708   8.433   4.444   7.808 -0.1854  0.1709 -0.3193
  695MOL0     C93709   8.347   4.367   7.740  0.4326  0.0113 -0.1174
  695MOL0     C93710   8.287   4.388   7.602  0.0822 -0.3714 -0.4561
  695MOL0     C93711   8.311   4.533   7.551  0.6452 -0.5202 -0.1795
  695MOL0     C93712   8.222   4.642   7.629 -0.2596  0.2947  1.1421
  695MOL0     C93713   8.078   4.600   7.613 -0.7327 -0.1092  0.1873
  695MOL0     O93714   8.036   4.545   7.726 -0.2032 -0.3097  0.0933
  695MOL0     C93715   7.919   4.470   7.707 -0.7362  0.8053 -0.7737
  695MOL0     C93716   7.794   4.525   7.688  0.1837 -0.0571  0.7367
  695MOL0     C93717   7.685   4.444   7.671  0.2362 -0.9195 -0.0318
  695MOL0     C93718   7.552   4.527   7.668  0.6189 -0.4995 -0.4222
  695MOL0     C93719   7.696   4.303   7.669 -0.7637 -0.7046  0.1545
  695MOL0     C93720   7.583   4.213   7.662 -0.5360 -0.9039 -0.1644
  695MOL0     O93721   7.613   4.088   7.709 -0.8741  0.0243  0.7548
  695MOL0     C93722   7.517   3.997   7.703  0.3275 -0.0300 -0.2369
  695MOL0     C93723   7.474   3.942   7.585  0.3593  0.2808  0.0843
  695MOL0     C93724   7.360   3.857   7.572  0.9014  0.2023  0.2338
  695MOL0     C93725   7.289   3.832   7.695 -0.0940 -0.3834  0.8933
  695MOL0     O93726   7.173   3.755   7.709 -0.3112 -0.4235  0.2765
  695MOL0     C93727   7.119   3.698   7.594  0.2755 -0.7204 -0.2891
  695MOL0     C93728   7.007   3.603   7.635  0.0182  0.1127 -0.5942
  695MOL0     C93729   7.056   3.477   7.716 -0.0648 -0.4423 -0.0641
  695MOL0     C93730   7.068   3.342   7.630 -0.1410  0.3045  0.5067
  695MOL0     C93731   6.953   3.306   7.532 -0.8962 -0.9410 -0.2306
  695MOL0     C93732   6.915   3.161   7.517  0.1119  0.4961  0.4533
  695MOL0     C93733   6.875   3.077   7.642 -0.1599 -0.9570 -0.2651
  695MOL0     C93734   6.795   2.958   7.597  0.3878  0.3087  0.2478
  695MOL0    Cl93735   6.769   2.846   7.739  0.0755 -0.0991  0.4816
  695MOL0     C93736   7.322   3.905   7.809  1.1753  0.2569  0.4238
  695MOL0     C93737   7.443   3.979   7.815  0.8022 -0.0599  1.4305
  695MOL0     O93738   7.479   4.249   7.607 -0.2505  0.0596  0.1511
  695MOL0     C93739   7.819   4.250   7.700  0.1714 -0.7198 -0.4948
  695MOL0     C93740   7.928   4.337   7.719  0.3298 -0.4295  0.7040
  695MOL0     N93741   8.340   4.248   7.809 -0.3808 -0.5293 -0.1593
  695MOL0     N93742   8.424   4.263   7.909 -0.2894 -0.1809 -1.4328
  695MOL0     C93743   8.323   5.191   7.799  0.3770  0.1101 -0.2847
  695MOL0     C93744   8.214   5.187   7.712 -0.1078  0.4091  0.3572
  695MOL0     C93745   7.872   5.115   7.439 -0.9262  0.6143  0.0861
  695MOL0     C93746   7.763   5.072   7.527 -0.0061  0.8145  0.3079
  695MOL0     C93747   7.638   5.083   7.481  0.8009 -0.9665  0.2033
  695MOL0     C93748   7.613   5.139   7.361  0.0213 -0.5185 -0.3440
  695MOL0     O93749   7.495   5.150   7.313  0.8855 -1.2938 -0.2320
  695MOL0     C93750   7.451   5.290   7.295  0.2658 -0.0626  0.0114
  695MOL0     C93751   7.397   5.355   7.431  0.0210  0.9470 -0.0802
  695MOL0     C93752   7.368   5.504   7.400  0.3945 -0.1936  0.1245
  695MOL0     C93753   7.344   5.578   7.532  0.3293 -0.0285 -0.3061
  695MOL0     C93754   7.226   5.508   7.603 -0.0699  0.3190 -0.3300
  695MOL0     C93755   7.132   5.459   7.656 -0.3280 -0.2847  0.2430
  695MOL0     C93756   7.710   5.183   7.279 -0.0082  0.3796  0.1156
  695MOL0     C93757   7.843   5.173   7.319  0.6563  0.0976 -1.0165
  695MOL0     H93758   8.081   4.882   7.794 -2.1183  0.1571 -2.3531
  695MOL0     H93759   8.283   4.865   7.919 -1.4749 -0.0129  1.2604
  695MOL0     H93760   8.560   5.240   7.908  1.7157 -0.2064  0.8228
  695MOL0     H93761   8.502   5.213   8.073  0.4205  0.4478  0.1999
  695MOL0     H93762   8.744   5.105   7.932  1.4233 -1.3436  1.1831
  695MOL0     H93763   8.729   5.207   8.068 -4.8821  2.6403 -3.1066
  695MOL0     H93764   8.802   5.004   8.167 -0.9235 -1.9332  0.7521
  695MOL0     H93765   8.628   4.972   8.174  1.4725 -2.7156  2.1019
  695MOL0     H93766   8.672   4.882   7.918  0.5744 -3.2184 -1.5510
  695MOL0     H93767   8.837   4.895   7.979  0.9235 -1.6323  0.3910
  695MOL0     H93768   8.796   4.705   8.135 -2.0205 -2.0707  2.2726
  695MOL0     H93769   8.627   4.738   8.132  1.3235  2.1061  1.0062
  695MOL0     H93770   8.643   4.667   7.876 -1.4639 -0.4000  1.5409
  695MOL0     H93771   8.817   4.643   7.910  1.3749 -2.4149  1.5350
  695MOL0     H93772   8.737   4.420   7.957 -1.7371  0.3022 -0.8461
  695MOL0     H93773   8.737   4.491   8.123 -1.7176  0.4694  0.8164
  695MOL0     H93774   8.502   4.557   8.079  3.0861  2.5242 -0.4772
  695MOL0     H93775   8.543   4.391   8.114  0.9815 -1.8194 -1.1680
  695MOL0     H93776   8.457   4.545   7.777 -2.2938  1.3841  1.7105
  695MOL0     H93777   8.340   4.333   7.524 -1.5224  3.5752 -4.7440
  695MOL0     H93778   8.184   4.351   7.598 -2.1758  4.6966  2.1507
  695MOL0     H93779   8.285   4.542   7.445 -1.1206  2.9024  0.4314
  695MOL0     H93780   8.415   4.563   7.562  0.9939 -1.6596 -0.2181
  695MOL0     H93781   8.238   4.737   7.576 -2.6350 -0.9353 -2.1459
  695MOL0     H93782   8.255   4.662   7.731  0.6659  0.4838  0.8155
  695MOL0     H93783   8.062   4.536   7.525 -0.6915  0.6393 -0.3795
  695MOL0     H93784   8.019   4.690   7.594 -0.1937  0.3949  0.8949
  695MOL0     H93785   7.784   4.632   7.700  0.2623 -0.3147  4.0654
  695MOL0     H93786   7.568   4.615   7.732  0.4583 -0.0532 -0.9938
  695MOL0     H93787   7.510   4.574   7.579  3.7339  2.2236 -0.6448
  695MOL0     H93788   7.484   4.468   7.730  2.2443 -1.4048  0.5881
  695MOL0     H93789   7.518   3.982   7.494 -0.6756 -1.6100 -1.3160
  695MOL0     H93790   7.323   3.812   7.481  0.3503 -1.1440  1.0863
  695MOL0     H93791   7.082   3.768   7.519 -0.9033 -3.1107 -2.0879
  695MOL0     H93792   7.201   3.637   7.554  0.9174  0.2794 -0.5187
  695MOL0     H93793   6.940   3.663   7.696 -0.1841  0.7689 -1.4334
  695MOL0     H93794   6.945   3.571   7.551  2.9341 -2.1026 -2.1306
  695MOL0     H93795   6.975   3.437   7.778  0.3107  1.2178  1.5735
  695MOL0     H93796   7.144   3.501   7.776  0.0479  0.0068 -0.4031
  695MOL0     H93797   7.168   3.330   7.588  0.2824 -0.5863  1.7100
  695MOL0     H93798   7.068   3.266   7.708  1.7438  0.8817  1.1191
  695MOL0     H93799   6.985   3.334   7.431 -0.8875 -0.6189 -0.1418
  695MOL0     H93800   6.869   3.367   7.566 -1.0872 -3.9068  5.8782
  695MOL0     H93801   6.844   3.146   7.435  2.0740  0.8615 -1.4042
  695MOL0     H93802   7.006   3.112   7.482 -1.4742 -0.3904 -2.8749
  695MOL0     H93803   6.824   3.143   7.712  3.9775  0.2177  1.9573
  695MOL0     H93804   6.956   3.034   7.701  0.2182 -1.1915 -0.9461
  695MOL0     H93805   6.855   2.913   7.518 -0.4433 -1.1718  0.4386
  695MOL0     H93806   6.694   2.972   7.559  0.4178 -4.0958 -2.0291
  695MOL0     H93807   7.260   3.900   7.898  0.1358 -0.2119 -0.3079
  695MOL0     H93808   7.474   4.024   7.909  0.7478  2.0212  0.5028
  695MOL0     H93809   7.832   4.147   7.732 -2.7397 -0.3322  2.4512
  695MOL0     H93810   8.024   4.290   7.737  0.9428  0.0076 -1.1951
  695MOL0     H93811   8.387   5.278   7.809  1.6337 -0.6463 -1.4010
  695MOL0     H93812   8.182   5.272   7.652 -1.5320 -0.7254 -0.5445
  695MOL0     H93813   7.784   5.046   7.630  2.2533 -1.8969 -0.7231
  695MOL0     H93814   7.562   5.070   7.557 -0.8229 -1.3729 -1.4057
  695MOL0     H93815   7.523   5.359   7.250 -2.5519  1.9282 -1.7185
  695MOL0     H93816   7.371   5.282   7.221 -0.4724 -3.3458  0.9963
  695MOL0     H93817   7.475   5.350   7.507  0.5728 -3.3905 -0.6830
  695MOL0     H93818   7.314   5.294   7.468  0.1874  0.5750 -0.3183
  695MOL0     H93819   7.288   5.530   7.329  1.3865  4.7337  0.4576
  695MOL0     H93820   7.467   5.543   7.373 -0.2831  1.4785 -0.0901
  695MOL0     H93821   7.323   5.685   7.525  0.2902  0.0217  0.4287
  695MOL0     H93822   7.437   5.566   7.589  0.0126  0.7176  0.3990
  695MOL0     H93823   7.050   5.406   7.701 -0.0634 -2.6113 -1.8118
  695MOL0     H93824   7.692   5.239   7.189 -3.6735  2.9541  2.2042
  695MOL0     H93825   7.930   5.207   7.264  0.9649 -0.4988 -0.9078
  696MOL0     O93826   3.376   0.388   3.602 -0.6303  0.0057  0.4193
  696MOL0     C93827   3.259   0.378   3.625  0.6801  0.9022 -0.6635
  696MOL0     O93828   3.202   0.286   3.712 -0.0615  0.3387 -0.1784
  696MOL0     C93829   3.278   0.177   3.747 -0.0060 -0.3007  0.9111
  696MOL0     C93830   3.232   0.048   3.718  0.8458  0.1713  2.0436
  696MOL0     C93831   3.299  -0.076   3.753 -0.2005 -0.1184 -0.4076
  696MOL0     C93832   3.422  -0.067   3.825  1.1368  0.1632  0.7540
  696MOL0     O93833   3.499  -0.176   3.862  0.7736  0.3259 -0.5624
  696MOL0     C93834   3.437  -0.292   3.916 -0.4294 -0.6396  0.5882
  696MOL0     C93835   3.512  -0.338   4.040 -0.7681 -0.0110 -0.7851
  696MOL0     C93836   3.441  -0.453   4.122 -0.2092  0.2152  0.4814
  696MOL0     C93837   3.540  -0.539   4.188 -1.9976 -0.2684 -0.1525
  696MOL0     C93838   3.492  -0.685   4.204  0.1486  0.5092 -0.2688
  696MOL0     C93839   3.482  -0.764   4.078  0.3429 -0.6174 -0.2342
  696MOL0     C93840   3.422  -0.904   4.101  0.0085  0.2075 -0.2778
  696MOL0     C93841   3.439  -0.986   3.972 -0.1120 -0.1502 -0.3027
  696MOL0     N93842   3.353  -0.943   3.862 -0.6280 -0.7048  0.2454
  696MOL0     C93843   3.367  -1.006   3.736 -0.2390  0.6708 -0.6041
  696MOL0     C93844   3.291  -0.930   3.652  0.2210  0.2896  0.3181
  696MOL0     C93845   3.283  -0.957   3.504  0.0641  0.3728  0.1065
  696MOL0     C93846   3.282  -0.838   3.419 -0.0715  0.0472  0.2412
  696MOL0     C93847   3.382  -0.732   3.467  0.5041  0.1384  1.7493
  696MOL0     C93848   3.529  -0.786   3.469 -0.1718 -0.5044  0.5651
  696MOL0     O93849   3.604  -0.806   3.345 -0.4136  0.5404 -0.3288
  696MOL0     C93850   3.682  -0.695   3.322  0.1353  0.4386 -0.5939
  696MOL0     C93851   3.787  -0.677   3.405  0.3269  0.0591 -0.0945
  696MOL0     C93852   3.878  -0.576   3.382 -0.6110 -0.7183 -0.6655
  696MOL0     C93853   3.991  -0.571   3.476 -0.2882 -0.2934 -0.2575
  696MOL0     C93854   3.859  -0.481   3.275 -0.7823 -0.4688  0.2544
  696MOL0     C93855   3.960  -0.382   3.225  0.0846 -0.1671 -0.4418
  696MOL0     O93856   3.938  -0.317   3.111  0.3207 -0.6425 -0.0356
  696MOL0     C93857   3.999  -0.197   3.082 -0.3105  0.1048  0.0125
  696MOL0     C93858   4.075  -0.181   2.963  0.5036  0.9809 -0.2331
  696MOL0     C93859   4.126  -0.048   2.929 -0.2953  0.2203  0.0918
  696MOL0     C93860   4.102   0.054   3.029  1.8560 -1.0871  0.4656
  696MOL0     O93861   4.133   0.179   2.976  1.2437 -0.4633 -1.0297
  696MOL0     C93862   4.196   0.270   3.067 -0.1203 -0.1496 -0.5355
  696MOL0     C93863   4.235   0.394   2.982  0.5371 -0.2119 -0.4847
  696MOL0     C93864   4.104   0.442   2.920 -0.2249 -0.6918 -0.5197
  696MOL0     C93865   4.131   0.555   2.822 -0.1325 -0.1273  0.7264
  696MOL0     C93866   4.135   0.693   2.891 -0.3943  0.5764  0.1001
  696MOL0     C93867   4.122   0.806   2.787 -0.3433  0.0698 -0.0756
  696MOL0     C93868   4.138   0.948   2.843  0.4900  1.2640  0.1618
  696MOL0     C93869   4.192   1.031   2.740 -0.1231 -0.0132 -0.0038
  696MOL0    Cl93870   4.371   1.033   2.741  0.2747  0.2320  0.0436
  696MOL0     C93871   4.048   0.023   3.153 -0.1616  0.1030 -0.5924
  696MOL0     C93872   3.983  -0.094   3.178 -0.7089  0.3911 -0.2832
  696MOL0     O93873   4.066  -0.383   3.273 -0.3242 -0.2286  0.1929
  696MOL0     C93874   3.733  -0.487   3.207  0.9580  0.0492 -1.0711
  696MOL0     C93875   3.648  -0.606   3.227 -0.1670 -1.5368 -0.4680
  696MOL0     N93876   3.231  -0.832   3.728  0.9265  0.0063  0.0099
  696MOL0     N93877   3.264  -0.837   3.857 -0.7597  0.2853  0.0861
  696MOL0     C93878   3.472   0.065   3.854  0.3754 -0.6110 -0.3199
  696MOL0     C93879   3.397   0.178   3.825 -0.3477  0.3048 -0.9468
  696MOL0     C93880   3.172   0.472   3.560  0.4021 -1.3521 -0.6189
  696MOL0     C93881   3.216   0.610   3.542 -0.5248  0.1299 -0.5534
  696MOL0     C93882   3.136   0.700   3.488 -0.5863  0.0927 -0.4968
  696MOL0     C93883   3.009   0.670   3.442 -1.2719 -0.2571 -0.7032
  696MOL0     O93884   2.923   0.763   3.382  1.0063  0.1629 -0.3408
  696MOL0     C93885   2.896   0.726   3.245  0.4304 -0.2364 -0.8044
  696MOL0     C93886   2.766   0.784   3.186 -0.2179 -0.3199 -0.1423
  696MOL0     C93887   2.792   0.934   3.162 -1.1326 -0.4048 -1.2922
  696MOL0     C93888   2.672   0.992   3.086  0.4466 -0.8362  0.3341
  696MOL0     C93889   2.685   1.145   3.070 -0.7777  1.1075  0.0712
  696MOL0     C93890   2.689   1.261   3.053 -0.0815  0.1611 -0.6817
  696MOL0     C93891   2.960   0.548   3.482  0.7782  0.3158  0.2998
  696MOL0     C93892   3.035   0.453   3.542 -0.6515  0.3027  0.5428
  696MOL0     H93893   3.146   0.040   3.653  3.3450 -1.9104 -1.3081
  696MOL0     H93894   3.259  -0.171   3.721 -0.2652 -0.2425  0.0401
  696MOL0     H93895   3.331  -0.278   3.942 -0.7667 -2.5594  0.4161
  696MOL0     H93896   3.452  -0.372   3.843  3.5162  1.9830 -1.7873
  696MOL0     H93897   3.611  -0.372   4.009 -1.3264 -1.4054 -1.0820
  696MOL0     H93898   3.528  -0.248   4.101 -1.0144  1.1566 -2.3735
  696MOL0     H93899   3.371  -0.412   4.195  0.5890 -0.4841  1.6768
  696MOL0     H93900   3.380  -0.513   4.054 -0.0822  1.3833 -0.6869
  696MOL0     H93901   3.640  -0.535   4.144 -0.9743  1.9067  2.1248
  696MOL0     H93902   3.548  -0.498   4.289 -2.0851  0.8065 -0.5714
  696MOL0     H93903   3.542  -0.735   4.287 -0.5540 -0.1455 -0.2293
  696MOL0     H93904   3.392  -0.674   4.246  0.5737 -1.0299  1.2554
  696MOL0     H93905   3.417  -0.720   4.002 -0.5553  0.2618  1.0082
  696MOL0     H93906   3.584  -0.766   4.038  0.9034  3.1763  0.6702
  696MOL0     H93907   3.485  -0.944   4.180 -2.0750 -0.0508  1.3446
  696MOL0     H93908   3.319  -0.889   4.136  0.0301  6.7507 -1.6519
  696MOL0     H93909   3.420  -1.090   4.000  2.0700 -0.5198 -0.0697
  696MOL0     H93910   3.548  -0.983   3.962 -0.1895  2.4712 -1.1550
  696MOL0     H93911   3.433  -1.089   3.714  1.1193  1.0230  1.8703
  696MOL0     H93912   3.369  -1.019   3.477  1.8505  3.0144 -0.6424
  696MOL0     H93913   3.193  -1.016   3.485 -0.6456  2.1679 -2.8258
  696MOL0     H93914   3.180  -0.801   3.406  0.6721  1.3386 -2.7175
  696MOL0     H93915   3.307  -0.876   3.319 -1.0025 -0.1177  0.0688
  696MOL0     H93916   3.356  -0.693   3.566  1.4342 -0.1473  2.1184
  696MOL0     H93917   3.387  -0.648   3.397  0.9044 -3.7734 -3.4511
  696MOL0     H93918   3.515  -0.887   3.510 -4.3450  0.2916  1.5373
  696MOL0     H93919   3.591  -0.732   3.542 -1.1490  3.7790 -1.4578
  696MOL0     H93920   3.799  -0.760   3.474 -1.8042 -0.8786 -0.7518
  696MOL0     H93921   3.991  -0.655   3.546  0.8921 -2.4043 -2.6214
  696MOL0     H93922   4.088  -0.583   3.425  1.1745 -1.5977  2.5918
  696MOL0     H93923   3.991  -0.483   3.541 -0.8584 -0.2022 -0.3789
  696MOL0     H93924   4.082  -0.247   2.877  0.0842  3.4423 -2.2806
  696MOL0     H93925   4.176  -0.019   2.838 -1.2184  0.7820 -0.2493
  696MOL0     H93926   4.133   0.304   3.150 -0.2774 -1.3754 -0.1324
  696MOL0     H93927   4.289   0.232   3.110 -1.3345 -0.3521  2.1128
  696MOL0     H93928   4.273   0.474   3.046  0.0115  0.1182 -0.5737
  696MOL0     H93929   4.306   0.365   2.904  2.1390  0.9498  0.4784
  696MOL0     H93930   4.035   0.463   3.003 -0.6380  0.0990 -1.0562
  696MOL0     H93931   4.054   0.366   2.859 -2.8444  0.2509  0.2910
  696MOL0     H93932   4.218   0.524   2.763  0.2163 -1.4472  1.8938
  696MOL0     H93933   4.045   0.567   2.755  0.2578  0.8172  0.3746
  696MOL0     H93934   4.232   0.698   2.942 -0.6141 -0.2994  0.6006
  696MOL0     H93935   4.051   0.709   2.959 -1.0210 -4.9618  1.0709
  696MOL0     H93936   4.199   0.784   2.713  1.2485 -0.2301  1.6182
  696MOL0     H93937   4.029   0.790   2.732 -0.2484  1.0663 -0.5562
  696MOL0     H93938   4.197   0.941   2.935  3.0812 -1.7517 -1.5254
  696MOL0     H93939   4.034   0.978   2.862  0.2597  1.8150 -1.8185
  696MOL0     H93940   4.172   1.136   2.758  2.9067  0.3085  2.3116
  696MOL0     H93941   4.146   0.996   2.647 -1.9356 -0.5610  1.0392
  696MOL0     H93942   4.045   0.094   3.236  1.6998 -1.7636  1.2090
  696MOL0     H93943   3.925  -0.107   3.269  2.5908 -0.8603  1.7914
  696MOL0     H93944   3.706  -0.410   3.136  0.8759  0.7819 -0.2613
  696MOL0     H93945   3.552  -0.607   3.177 -0.9472 -0.8416  0.9286
  696MOL0     H93946   3.561   0.089   3.912 -0.5359  0.6295  0.6222
  696MOL0     H93947   3.427   0.278   3.856 -0.3658 -0.3404  1.2596
  696MOL0     H93948   3.317   0.636   3.572 -1.5322  1.6504  1.7949
  696MOL0     H93949   3.165   0.804   3.472  1.3212 -0.3390 -0.1100
  696MOL0     H93950   2.992   0.741   3.193  1.0603 -1.9615 -0.2100
  696MOL0     H93951   2.872   0.620   3.232 -1.6244 -0.5302  3.7032
  696MOL0     H93952   2.687   0.767   3.260 -0.0071 -1.0211 -0.0644
  696MOL0     H93953   2.747   0.729   3.094  0.0130  1.6502 -1.4119
  696MOL0     H93954   2.880   0.944   3.098 -0.9320 -1.5721 -1.2315
  696MOL0     H93955   2.809   0.992   3.253  0.2133 -1.4999 -0.8154
  696MOL0     H93956   2.578   0.977   3.141  0.8480  1.4333  1.7654
  696MOL0     H93957   2.666   0.935   2.993  3.9195 -4.6314  2.1314
  696MOL0     H93958   2.691   1.368   3.039  1.0515 -0.2064 -4.5809
  696MOL0     H93959   2.860   0.524   3.446 -0.1732  2.5399  1.2814
  696MOL0     H93960   3.005   0.349   3.552 -0.2514 -0.1541 -2.2313
  697MOL0     O93961   7.279   4.380   1.591 -0.4436 -0.8462 -0.4776
  697MOL0     C93962   7.366   4.295   1.597  0.2210  0.2519  0.3132
  697MOL0     O93963   7.494   4.316   1.641  0.2534  0.3632  0.3859
  697MOL0     C93964   7.552   4.443   1.666 -1.1077 -0.3251  0.3499
  697MOL0     C93965   7.688   4.449   1.724  0.2535  0.9579 -0.0307
  697MOL0     C93966   7.749   4.573   1.754 -0.1605 -0.2513  0.3324
  697MOL0     C93967   7.686   4.692   1.726 -0.5422  0.0722 -0.6327
  697MOL0     O93968   7.750   4.818   1.763  0.4193 -0.2754 -0.3779
  697MOL0     C93969   7.783   4.918   1.660  0.3632  0.6975  0.3058
  697MOL0     C93970   7.867   4.859   1.540  0.1404  0.3635  0.4530
  697MOL0     C93971   7.840   4.933   1.411  0.5185 -0.4130  0.7749
  697MOL0     C93972   7.691   4.935   1.358  0.3496  0.1095  0.4533
  697MOL0     C93973   7.634   4.793   1.348  0.1025 -0.4212  0.3805
  697MOL0     C93974   7.694   4.724   1.221 -0.0636  0.1121 -1.0873
  697MOL0     C93975   7.644   4.573   1.205  0.2852 -0.1904  0.3031
  697MOL0     C93976   7.715   4.487   1.307  0.0450  0.4140  1.0784
  697MOL0     N93977   7.688   4.350   1.281  0.0160 -1.1638  0.8769
  697MOL0     C93978   7.781   4.261   1.257 -0.2605 -0.1984 -0.2722
  697MOL0     C93979   7.717   4.142   1.240  0.6938 -0.8835  0.6270
  697MOL0     C93980   7.796   4.018   1.238 -0.0378  0.3769 -0.1246
  697MOL0     C93981   7.712   3.889   1.262 -0.0690 -0.1004  0.6259
  697MOL0     C93982   7.799   3.765   1.241 -0.4569 -0.2454 -0.6666
  697MOL0     C93983   7.725   3.640   1.287  0.7021 -0.5537 -0.1897
  697MOL0     O93984   7.617   3.607   1.206  0.5854 -0.1068 -0.6164
  697MOL0     C93985   7.633   3.521   1.094 -0.5388  0.5561 -0.1733
  697MOL0     C93986   7.755   3.462   1.050  0.2659 -0.3249 -0.1287
  697MOL0     C93987   7.765   3.353   0.952 -0.2724 -1.6400 -0.2675
  697MOL0     C93988   7.895   3.285   0.934 -0.7096 -0.1359  0.1819
  697MOL0     C93989   7.644   3.311   0.886  0.4770 -0.0375  1.5984
  697MOL0     C93990   7.635   3.194   0.796 -0.4026  0.0664  0.3307
  697MOL0     O93991   7.531   3.108   0.808 -0.7278  0.2729  0.3014
  697MOL0     C93992   7.537   2.976   0.762 -0.1931  0.3276 -0.1943
  697MOL0     C93993   7.419   2.908   0.750  0.8638 -0.2677  0.1188
  697MOL0     C93994   7.422   2.777   0.701  0.2903 -0.0264 -0.2259
  697MOL0     C93995   7.546   2.715   0.649  0.1687 -0.5113 -0.4122
  697MOL0     O93996   7.546   2.605   0.571  0.4981 -0.8409 -0.0375
  697MOL0     C93997   7.572   2.481   0.627  0.7999 -0.0103  0.9701
  697MOL0     C93998   7.574   2.372   0.524  0.2003 -0.4523  0.0606
  697MOL0     C93999   7.657   2.411   0.403  0.1017  0.9285 -0.0969
  697MOL0     C94000   7.665   2.309   0.280  0.6718 -0.6348 -0.5321
  697MOL0     C94001   7.753   2.356   0.162  0.1009  0.5671 -0.6810
  697MOL0     C94002   7.690   2.467   0.075 -0.4964  0.5659  0.7138
  697MOL0     C94003   7.776   2.502  -0.047 -0.7811 -0.3748  0.1161
  697MOL0     C94004   7.906   2.571  -0.010 -0.6799  0.2381 -0.3107
  697MOL0    Cl94005   8.021   2.555  -0.145  0.0849 -0.0035 -0.0556
  697MOL0     C94006   7.666   2.776   0.682 -1.4643  0.2099  0.3798
  697MOL0     C94007   7.664   2.908   0.735  0.0031  0.2350 -0.4416
  697MOL0     O94008   7.735   3.194   0.718  0.5225 -0.6880 -0.0287
  697MOL0     C94009   7.521   3.381   0.923 -0.0618 -0.0822 -0.3651
  697MOL0     C94010   7.521   3.478   1.030  0.6028 -0.3056 -0.1731
  697MOL0     N94011   7.579   4.168   1.232 -0.9878 -0.4099 -0.3812
  697MOL0     N94012   7.567   4.294   1.255 -0.9777  0.9853 -0.1595
  697MOL0     C94013   7.561   4.692   1.664  0.8002 -0.3890  1.1313
  697MOL0     C94014   7.494   4.570   1.639  0.1012 -0.1370  0.3067
  697MOL0     C94015   7.326   4.160   1.556 -0.7422 -0.5565 -0.5351
  697MOL0     C94016   7.191   4.116   1.563  0.2681  0.8270  0.0288
  697MOL0     C94017   7.168   3.977   1.547  0.0637 -0.7187 -0.7863
  697MOL0     C94018   7.276   3.885   1.505  0.5309  0.0904  0.5527
  697MOL0     O94019   7.264   3.744   1.491  0.2942  0.0722  0.5308
  697MOL0     C94020   7.157   3.691   1.412  0.3124 -0.1175  0.0202
  697MOL0     C94021   7.204   3.654   1.271 -0.0998  0.6017  0.1026
  697MOL0     C94022   7.251   3.770   1.180  0.4551 -0.1867 -0.0061
  697MOL0     C94023   7.136   3.829   1.086  0.3367  0.0522  0.8939
  697MOL0     C94024   7.072   3.943   1.163  0.1722 -1.1757  0.0284
  697MOL0     C94025   7.027   4.044   1.220  0.8071  0.9772  0.6918
  697MOL0     C94026   7.404   3.939   1.493 -0.0200 -0.7286  1.2311
  697MOL0     C94027   7.425   4.076   1.515  1.2533  0.5444  0.0861
  697MOL0     H94028   7.730   4.350   1.740  0.6017  1.0112 -0.5632
  697MOL0     H94029   7.848   4.579   1.799 -1.4317  1.1776  3.2732
  697MOL0     H94030   7.692   4.963   1.620  0.7573  1.4512  0.2512
  697MOL0     H94031   7.840   4.992   1.716 -0.4939  0.1254  2.0290
  697MOL0     H94032   7.970   4.863   1.575 -0.5783 -2.2055  3.2336
  697MOL0     H94033   7.858   4.752   1.520  1.7525  1.0238 -6.1962
  697MOL0     H94034   7.884   5.033   1.401  0.3212 -0.5373 -2.5041
  697MOL0     H94035   7.899   4.880   1.336 -2.3695 -1.1163 -1.1550
  697MOL0     H94036   7.631   4.997   1.425 -0.8600  0.3479 -0.8063
  697MOL0     H94037   7.699   4.981   1.260  0.1353  0.0343  0.3989
  697MOL0     H94038   7.653   4.726   1.432 -0.2668 -1.3593 -0.2754
  697MOL0     H94039   7.525   4.804   1.347 -0.0088 -1.4421  0.4491
  697MOL0     H94040   7.658   4.786   1.138 -0.2875 -0.3146 -1.3132
  697MOL0     H94041   7.803   4.727   1.209  0.0097  0.6054 -0.3584
  697MOL0     H94042   7.535   4.566   1.211  0.2995 -3.8165 -1.2069
  697MOL0     H94043   7.671   4.544   1.103  0.8055 -2.3605  1.0051
  697MOL0     H94044   7.691   4.500   1.413  0.6583 -4.6743  2.1124
  697MOL0     H94045   7.821   4.513   1.292 -0.3825  0.7946 -1.8112
  697MOL0     H94046   7.884   4.267   1.291 -0.2164 -1.7356 -0.0662
  697MOL0     H94047   7.834   4.011   1.136 -0.7970  3.6392 -0.7475
  697MOL0     H94048   7.882   4.016   1.305  0.6223 -1.5473 -0.9643
  697MOL0     H94049   7.626   3.907   1.196  0.6081  3.0402  0.4290
  697MOL0     H94050   7.676   3.877   1.365  0.7588 -2.8653  0.6687
  697MOL0     H94051   7.893   3.768   1.297 -0.8844  1.9788 -0.0046
  697MOL0     H94052   7.824   3.763   1.134 -1.6623  0.9771 -0.9914
  697MOL0     H94053   7.684   3.654   1.387  0.1519 -0.6738 -0.3966
  697MOL0     H94054   7.787   3.556   1.320 -0.8146 -1.0753  1.4552
  697MOL0     H94055   7.832   3.488   1.122 -1.0422  0.7266  0.9322
  697MOL0     H94056   7.905   3.190   0.881  0.1408 -1.1089  2.0330
  697MOL0     H94057   7.947   3.363   0.877  0.0833 -1.7321 -1.3891
  697MOL0     H94058   7.945   3.280   1.031 -1.8235  1.2709  0.8806
  697MOL0     H94059   7.322   2.946   0.781  0.0193 -1.2780 -1.1655
  697MOL0     H94060   7.336   2.714   0.679  2.1494 -2.7413 -0.3457
  697MOL0     H94061   7.676   2.472   0.662  1.4598 -1.2290 -1.1461
  697MOL0     H94062   7.503   2.461   0.710 -0.1875  1.4238  0.5229
  697MOL0     H94063   7.628   2.287   0.566 -2.4018 -2.7232 -0.8561
  697MOL0     H94064   7.475   2.337   0.492 -1.0435  0.1403  2.9406
  697MOL0     H94065   7.757   2.438   0.439  1.7046  0.1962 -3.6263
  697MOL0     H94066   7.617   2.505   0.363 -1.6745 -1.1858 -3.8464
  697MOL0     H94067   7.698   2.212   0.315  2.9079 -0.6131 -2.3140
  697MOL0     H94068   7.563   2.286   0.249  0.4741 -1.2867  0.5738
  697MOL0     H94069   7.781   2.266   0.106 -2.0854 -0.6843  0.1437
  697MOL0     H94070   7.854   2.384   0.195 -0.2774 -0.0585  1.1456
  697MOL0     H94071   7.593   2.439   0.034  0.4427 -0.0597 -1.1685
  697MOL0     H94072   7.679   2.559   0.134  1.1909 -1.3617  4.4161
  697MOL0     H94073   7.728   2.549  -0.134  0.4380 -1.2823 -1.0996
  697MOL0     H94074   7.812   2.408  -0.090 -1.6908 -0.7453  0.1575
  697MOL0     H94075   7.947   2.540   0.087  1.3400  0.6539 -0.9876
  697MOL0     H94076   7.877   2.676  -0.009 -1.5854 -0.0034  0.6493
  697MOL0     H94077   7.764   2.736   0.657 -0.3444  2.6474  0.5142
  697MOL0     H94078   7.765   2.948   0.737 -0.2701  1.1940 -2.5823
  697MOL0     H94079   7.428   3.369   0.868  0.4428  2.8841 -2.0242
  697MOL0     H94080   7.430   3.523   1.069 -0.2877  0.2475 -2.6726
  697MOL0     H94081   7.505   4.781   1.639  1.1331 -0.9236 -1.9016
  697MOL0     H94082   7.393   4.581   1.601  0.0099  0.4260  0.7016
  697MOL0     H94083   7.102   4.178   1.571  0.3156  0.8150  0.7044
  697MOL0     H94084   7.068   3.938   1.563 -0.7685  0.6885 -2.2178
  697MOL0     H94085   7.122   3.604   1.468  1.7348 -1.7253 -1.4939
  697MOL0     H94086   7.068   3.755   1.406 -0.9105 -1.7946 -0.4876
  697MOL0     H94087   7.124   3.599   1.220  3.2684 -3.5905 -1.3536
  697MOL0     H94088   7.290   3.587   1.283  1.4172  2.5417  0.6338
  697MOL0     H94089   7.318   3.723   1.108 -0.6703  2.7865 -3.2794
  697MOL0     H94090   7.301   3.852   1.231 -1.4670 -0.0595  1.8399
  697MOL0     H94091   7.052   3.759   1.073 -1.6370  2.1265  1.6950
  697MOL0     H94092   7.171   3.858   0.987 -0.6803 -1.0263  0.1838
  697MOL0     H94093   7.001   4.125   1.285  1.4747 -0.6885  3.1705
  697MOL0     H94094   7.479   3.865   1.470 -0.0032  0.0122 -1.3837
  697MOL0     H94095   7.526   4.116   1.513  1.6900 -0.3897  1.7639
  698MOL0     O94096   0.980   7.485   2.994 -0.5057 -0.4202  0.5677
  698MOL0     C94097   0.918   7.439   3.086  0.4739 -0.1273  0.5549
  698MOL0     O94098   0.788   7.390   3.080 -0.2103 -0.6877 -0.0263
  698MOL0     C94099   0.713   7.367   2.967 -0.6004  0.4209  0.7599
  698MOL0     C94100   0.600   7.303   3.006  0.2184 -0.8250 -0.0864
  698MOL0     C94101   0.514   7.248   2.905  0.3129  0.7154  0.1436
  698MOL0     C94102   0.531   7.278   2.778 -0.2396  0.1062  0.9551
  698MOL0     O94103   0.423   7.259   2.693 -0.5204  0.5652 -0.8128
  698MOL0     C94104   0.454   7.177   2.574  0.3796 -0.2422 -0.2057
  698MOL0     C94105   0.500   7.035   2.607 -0.2518  0.2684  0.0974
  698MOL0     C94106   0.652   7.006   2.626  0.6784 -0.0672  0.7641
  698MOL0     C94107   0.753   7.068   2.521 -0.1538 -1.2881  0.1239
  698MOL0     C94108   0.894   7.008   2.520 -0.3836  0.3298  0.1310
  698MOL0     C94109   0.996   7.111   2.465 -0.0066  0.8809  0.1271
  698MOL0     C94110   1.066   7.192   2.576 -0.3862  0.1690  0.6320
  698MOL0     C94111   1.145   7.315   2.518  0.7275 -0.1897 -0.3948
  698MOL0     N94112   1.276   7.284   2.466 -0.0342  0.5848 -0.5706
  698MOL0     C94113   1.378   7.372   2.435 -0.9166 -0.9049 -1.1403
  698MOL0     C94114   1.479   7.304   2.378 -0.5667 -0.6694  0.7763
  698MOL0     C94115   1.606   7.353   2.323 -0.8514  0.1691  0.0652
  698MOL0     C94116   1.594   7.506   2.294 -0.8115 -0.5195  0.0289
  698MOL0     C94117   1.485   7.539   2.199 -0.4419 -0.8033  0.1830
  698MOL0     C94118   1.515   7.665   2.117  0.3037 -0.1679 -0.4921
  698MOL0     O94119   1.637   7.650   2.044  0.0828 -0.1506  0.2942
  698MOL0     C94120   1.633   7.644   1.909  0.0828 -0.5123  0.7960
  698MOL0     C94121   1.565   7.748   1.838  0.7171  1.3475  0.4262
  698MOL0     C94122   1.561   7.743   1.703  0.1867 -0.2197 -0.3671
  698MOL0     C94123   1.475   7.851   1.651  0.4121  0.9508  0.4633
  698MOL0     C94124   1.634   7.635   1.641 -0.1550 -0.9587 -0.3823
  698MOL0     C94125   1.647   7.630   1.496 -0.0980  1.0142  0.1048
  698MOL0     O94126   1.741   7.534   1.441  0.0036 -0.6470  0.4569
  698MOL0     C94127   1.736   7.519   1.302  0.4743  0.4850 -0.1671
  698MOL0     C94128   1.678   7.401   1.251 -1.1335 -1.2838 -0.0373
  698MOL0     C94129   1.661   7.379   1.114 -0.0107  0.4079 -0.1051
  698MOL0     C94130   1.731   7.459   1.024  0.7732 -0.8807 -0.0606
  698MOL0     O94131   1.729   7.446   0.886  0.3587 -0.3342  0.3917
  698MOL0     C94132   1.682   7.333   0.817 -0.2776  0.2364  0.4986
  698MOL0     C94133   1.775   7.213   0.826 -0.4196 -0.0061 -0.3282
  698MOL0     C94134   1.734   7.097   0.738  0.0698  0.7749  0.1306
  698MOL0     C94135   1.786   6.953   0.772 -0.0209 -0.2810 -0.7999
  698MOL0     C94136   1.932   6.947   0.799 -0.1616  0.4973  0.8327
  698MOL0     C94137   1.998   6.812   0.820 -0.2882 -0.1119 -0.0633
  698MOL0     C94138   2.010   6.735   0.686 -1.1522  0.4149 -0.2185
  698MOL0     C94139   2.130   6.640   0.683 -0.4614 -0.3529  0.1527
  698MOL0    Cl94140   2.092   6.526   0.811  0.3897 -0.3393  0.4362
  698MOL0     C94141   1.789   7.579   1.067  0.4611 -0.4803  0.3828
  698MOL0     C94142   1.792   7.614   1.207  0.3750 -0.3269 -0.7303
  698MOL0     O94143   1.575   7.700   1.431  0.3516  0.8911 -0.1188
  698MOL0     C94144   1.697   7.539   1.718  0.8253 -0.2437  0.2499
  698MOL0     C94145   1.696   7.547   1.853  0.4570 -0.0452  1.1128
  698MOL0     N94146   1.439   7.175   2.374 -1.2207 -0.1997 -0.3593
  698MOL0     N94147   1.322   7.164   2.434 -0.3748  0.5431  0.4523
  698MOL0     C94148   0.644   7.360   2.737 -0.0234  0.2501  0.3721
  698MOL0     C94149   0.745   7.401   2.828  1.4236  0.6564  0.2707
  698MOL0     C94150   0.965   7.449   3.220  0.5893  0.3882  0.0227
  698MOL0     C94151   1.060   7.552   3.247  0.6986 -0.8333  0.2713
  698MOL0     C94152   1.096   7.570   3.377 -0.2106  0.3110 -0.0752
  698MOL0     C94153   1.047   7.493   3.482 -0.8952  0.4380  0.2594
  698MOL0     O94154   1.114   7.509   3.602  0.0515  0.2257  0.2175
  698MOL0     C94155   1.192   7.395   3.630  0.1030 -0.5499  0.0201
  698MOL0     C94156   1.286   7.394   3.748 -0.5288  1.3344 -0.4224
  698MOL0     C94157   1.231   7.414   3.886  0.8074  0.1547  0.7450
  698MOL0     C94158   1.335   7.432   3.996  0.5632 -0.4077 -0.2217
  698MOL0     C94159   1.421   7.549   3.988 -0.9787  1.1054  1.5871
  698MOL0     C94160   1.475   7.655   3.972  0.8361 -0.3896 -0.1184
  698MOL0     C94161   0.951   7.389   3.461  0.2153 -0.7026  0.7256
  698MOL0     C94162   0.917   7.369   3.327 -0.8593 -0.5118  0.7297
  698MOL0     H94163   0.585   7.281   3.111  0.5740  1.4148  0.4868
  698MOL0     H94164   0.429   7.184   2.930  1.1581 -1.2735 -1.7413
  698MOL0     H94165   0.358   7.169   2.523 -2.0064 -2.4699  4.0949
  698MOL0     H94166   0.528   7.232   2.515 -0.0588  0.9063  0.2750
  698MOL0     H94167   0.441   7.002   2.694 -0.4186 -0.0178 -0.1199
  698MOL0     H94168   0.475   6.967   2.525  0.1332  1.9223 -1.4372
  698MOL0     H94169   0.683   7.053   2.720 -1.3497  3.4806 -0.1641
  698MOL0     H94170   0.681   6.900   2.623  0.5015 -0.1206 -2.8337
  698MOL0     H94171   0.705   7.045   2.425 -1.9635 -2.3006  1.2165
  698MOL0     H94172   0.762   7.177   2.527  1.2576 -1.1271 -2.9639
  698MOL0     H94173   0.904   6.980   2.625 -3.9587  1.2067  0.8275
  698MOL0     H94174   0.886   6.911   2.470 -0.3105 -0.4144  1.5106
  698MOL0     H94175   1.074   7.058   2.411 -0.2264 -0.4745  1.0861
  698MOL0     H94176   0.945   7.188   2.406  0.3263  1.5123  0.6398
  698MOL0     H94177   0.999   7.222   2.658  2.1384  1.7088  2.2609
  698MOL0     H94178   1.137   7.139   2.639  0.8194  2.7577  1.5935
  698MOL0     H94179   1.155   7.393   2.594  1.5229 -0.6512 -0.0050
  698MOL0     H94180   1.082   7.345   2.434 -0.7346 -0.6230  0.5299
  698MOL0     H94181   1.369   7.474   2.469 -1.2063 -1.1337 -0.5026
  698MOL0     H94182   1.676   7.340   2.406  0.3923 -0.6799 -1.0940
  698MOL0     H94183   1.644   7.295   2.239 -3.2876 -1.6185  0.0790
  698MOL0     H94184   1.697   7.530   2.266 -0.7287  1.8404  2.0775
  698MOL0     H94185   1.577   7.562   2.386 -0.5559 -1.5114  0.6932
  698MOL0     H94186   1.395   7.561   2.257 -0.5341 -1.4033  0.2784
  698MOL0     H94187   1.460   7.465   2.121  4.7179 -0.6454 -1.9783
  698MOL0     H94188   1.517   7.755   2.179 -0.7014  0.1750 -0.9328
  698MOL0     H94189   1.439   7.683   2.040  0.0459  0.5831 -0.0732
  698MOL0     H94190   1.531   7.833   1.897  2.2039  2.3625 -0.1302
  698MOL0     H94191   1.376   7.810   1.630  0.4729  0.3201  1.3650
  698MOL0     H94192   1.459   7.932   1.723  0.4767  0.5580  0.9242
  698MOL0     H94193   1.525   7.896   1.564 -0.0676  1.1992  0.3133
  698MOL0     H94194   1.650   7.318   1.315  0.5132 -2.8668 -1.2399
  698MOL0     H94195   1.595   7.297   1.085 -0.5884  0.8329 -0.0200
  698MOL0     H94196   1.584   7.302   0.854 -0.7205  0.2177 -0.6320
  698MOL0     H94197   1.672   7.359   0.711  0.3988 -0.2280  0.3169
  698MOL0     H94198   1.878   7.233   0.795  0.4679 -1.9082  1.1595
  698MOL0     H94199   1.783   7.180   0.930  0.3231 -1.0497 -0.6998
  698MOL0     H94200   1.786   7.114   0.643  1.9466 -1.0158  0.7785
  698MOL0     H94201   1.625   7.089   0.724  0.1328 -1.8965  0.6608
  698MOL0     H94202   1.733   6.912   0.858 -0.3598  0.4472 -0.6507
  698MOL0     H94203   1.772   6.874   0.698  0.5047 -3.1333  1.8978
  698MOL0     H94204   1.948   6.997   0.896 -0.1255  0.4310  0.8617
  698MOL0     H94205   1.986   7.005   0.723 -1.1331 -1.6606 -1.6347
  698MOL0     H94206   2.100   6.839   0.846  0.0712 -1.4920  0.0637
  698MOL0     H94207   1.961   6.747   0.900 -1.9781 -0.3938 -1.0144
  698MOL0     H94208   2.031   6.799   0.599  0.8058 -2.4196 -2.0162
  698MOL0     H94209   1.917   6.686   0.657 -2.5025  3.4955 -1.4748
  698MOL0     H94210   2.228   6.686   0.701 -0.1382 -1.2626  0.8332
  698MOL0     H94211   2.143   6.597   0.583  1.3139  1.3509 -0.4104
  698MOL0     H94212   1.828   7.647   0.992 -0.2661 -0.4876 -0.0143
  698MOL0     H94213   1.842   7.703   1.243  1.2929 -0.9842 -0.3138
  698MOL0     H94214   1.748   7.452   1.678 -1.6334 -2.4257  1.5497
  698MOL0     H94215   1.757   7.479   1.910  2.3728 -0.8223 -1.6608
  698MOL0     H94216   0.657   7.367   2.630  1.8229 -4.7418  0.0381
  698MOL0     H94217   0.835   7.449   2.790  3.3053 -1.5269  1.7233
  698MOL0     H94218   1.103   7.618   3.172  1.8775 -2.7888 -0.8744
  698MOL0     H94219   1.160   7.656   3.397 -1.6700  2.1047 -2.5655
  698MOL0     H94220   1.118   7.315   3.646 -1.7317  1.1964  0.6810
  698MOL0     H94221   1.260   7.358   3.553  0.1938 -0.5475  0.0988
  698MOL0     H94222   1.371   7.458   3.722  0.6187 -0.7916 -2.2692
  698MOL0     H94223   1.331   7.295   3.756 -1.2744  1.0434  0.4430
  698MOL0     H94224   1.167   7.332   3.921  3.6695 -1.9858  1.2782
  698MOL0     H94225   1.178   7.510   3.891 -0.1636 -0.3894  1.2807
  698MOL0     H94226   1.390   7.337   3.997 -0.9825 -1.3647 -1.5898
  698MOL0     H94227   1.292   7.458   4.094 -1.2610  1.2702 -1.3829
  698MOL0     H94228   1.507   7.757   3.968 -1.1871  0.3991  1.8422
  698MOL0     H94229   0.889   7.348   3.541 -0.6911 -0.8135 -0.0172
  698MOL0     H94230   0.856   7.283   3.301 -0.2577 -0.6963 -0.1063
  699MOL0     O94231   3.066   5.597   1.962 -0.2359  0.2263  0.1749
  699MOL0     C94232   3.075   5.492   1.903 -0.2958 -0.5033 -0.3442
  699MOL0     O94233   3.173   5.396   1.933 -0.6053  0.1763 -0.9159
  699MOL0     C94234   3.267   5.427   2.031  0.3716  1.3581  0.7922
  699MOL0     C94235   3.332   5.546   2.047  0.0292  0.6042  0.2081
  699MOL0     C94236   3.429   5.556   2.158  0.7992 -0.7629  0.7034
  699MOL0     C94237   3.458   5.442   2.226 -0.0737 -0.1693 -0.8617
  699MOL0     O94238   3.565   5.445   2.313 -0.0146  0.8250 -0.2258
  699MOL0     C94239   3.574   5.359   2.423  0.4971  0.1303  1.2505
  699MOL0     C94240   3.678   5.425   2.515  0.6132  0.7853  0.7733
  699MOL0     C94241   3.815   5.430   2.447 -0.3434 -0.5875  0.2538
  699MOL0     C94242   3.931   5.477   2.543  0.0423  0.4472  0.2383
  699MOL0     C94243   4.039   5.376   2.585  1.5202 -0.4922  0.5959
  699MOL0     C94244   4.121   5.424   2.715  0.4393 -0.4402  0.4821
  699MOL0     C94245   4.217   5.541   2.699  0.2258 -0.1433  1.1443
  699MOL0     C94246   4.145   5.674   2.724  0.2603 -0.2625  0.4948
  699MOL0     N94247   4.176   5.724   2.850 -0.1127 -0.1252 -1.2539
  699MOL0     C94248   4.159   5.659   2.972 -0.2197 -0.6967 -0.4526
  699MOL0     C94249   4.201   5.752   3.061 -0.2585 -0.4117 -0.6660
  699MOL0     C94250   4.212   5.740   3.216 -0.5462 -0.3520 -0.3665
  699MOL0     C94251   4.283   5.846   3.294 -0.3169 -0.1164  0.4566
  699MOL0     C94252   4.439   5.817   3.304  0.9767 -0.2779  0.2344
  699MOL0     C94253   4.480   5.936   3.397 -0.5123 -0.6675  0.2075
  699MOL0     O94254   4.623   5.920   3.432 -0.0782  0.4077 -0.6573
  699MOL0     C94255   4.676   5.954   3.557 -0.6409  0.2736 -0.1831
  699MOL0     C94256   4.642   6.071   3.620  0.3138 -0.3681 -0.3867
  699MOL0     C94257   4.698   6.108   3.748 -1.0025  1.3858 -0.4751
  699MOL0     C94258   4.655   6.236   3.822 -0.9553  0.1839 -0.5349
  699MOL0     C94259   4.808   6.029   3.802  0.0431 -0.3884  0.7836
  699MOL0     C94260   4.885   6.048   3.926  0.2735 -0.1123 -0.4068
  699MOL0     O94261   5.010   6.002   3.926  0.2960 -0.2998 -0.6414
  699MOL0     C94262   5.098   6.025   4.028  0.4724 -0.8493 -0.6506
  699MOL0     C94263   5.191   5.928   4.048 -1.2524  1.0768  0.3980
  699MOL0     C94264   5.289   5.945   4.144  0.2548  0.7770 -1.2026
  699MOL0     C94265   5.304   6.070   4.212  0.6225 -1.1730 -0.2415
  699MOL0     O94266   5.390   6.102   4.310  0.0099  0.0975 -0.3156
  699MOL0     C94267   5.499   6.026   4.362  1.2171 -0.3974 -0.7572
  699MOL0     C94268   5.569   6.101   4.485 -0.2402  0.3490  0.8989
  699MOL0     C94269   5.473   6.096   4.611  0.4750 -0.3145  0.9831
  699MOL0     C94270   5.542   6.149   4.732 -0.4827  0.3273  0.5028
  699MOL0     C94271   5.624   6.048   4.797 -0.4772  1.2387 -0.3378
  699MOL0     C94272   5.543   5.982   4.915  0.1768  0.2204 -0.0663
  699MOL0     C94273   5.619   5.896   5.013 -0.7303 -0.5264  0.5757
  699MOL0     C94274   5.663   5.767   4.960 -0.1182 -0.0310  0.1870
  699MOL0    Cl94275   5.791   5.721   5.072  0.1485 -0.0319 -0.6484
  699MOL0     C94276   5.215   6.168   4.174  0.2116 -1.3619 -0.5425
  699MOL0     C94277   5.099   6.150   4.094  1.0386  0.6289 -0.9300
  699MOL0     O94278   4.815   6.082   4.022 -0.8113  1.1813 -0.3199
  699MOL0     C94279   4.838   5.919   3.723 -1.2153 -1.1207  0.4556
  699MOL0     C94280   4.775   5.875   3.604  0.2403  0.1249 -0.1775
  699MOL0     N94281   4.241   5.866   3.000 -0.5439 -0.1127 -0.0645
  699MOL0     N94282   4.224   5.847   2.872  0.1118  0.4224 -0.1256
  699MOL0     C94283   3.376   5.325   2.226 -0.5638 -0.5707 -0.4279
  699MOL0     C94284   3.286   5.321   2.123 -0.6390  0.4980  0.2964
  699MOL0     C94285   2.974   5.463   1.796 -0.8547 -0.2102 -0.6223
  699MOL0     C94286   2.985   5.348   1.715  0.1736 -0.8233  0.4481
  699MOL0     C94287   2.899   5.321   1.603  0.5573 -0.2106  0.0558
  699MOL0     C94288   2.793   5.414   1.580 -0.3491  0.9451  0.3547
  699MOL0     O94289   2.705   5.407   1.471  0.0362 -0.3366 -0.1883
  699MOL0     C94290   2.734   5.307   1.380 -0.3593 -0.4103  0.0099
  699MOL0     C94291   2.849   5.362   1.289  0.6396  0.8451 -1.2783
  699MOL0     C94292   2.948   5.253   1.237 -0.6611 -0.7013  0.0995
  699MOL0     C94293   3.078   5.319   1.208 -1.0761 -0.1730  0.2498
  699MOL0     C94294   3.142   5.356   1.331 -0.1549  0.6788 -0.8459
  699MOL0     C94295   3.203   5.378   1.434  0.0197 -0.2839  0.4934
  699MOL0     C94296   2.785   5.527   1.663  0.5108  0.8927  0.8457
  699MOL0     C94297   2.875   5.548   1.771  0.5711 -1.3289  1.0152
  699MOL0     H94298   3.333   5.626   1.974  2.5250  0.3250 -0.1577
  699MOL0     H94299   3.487   5.647   2.163 -0.3739  0.2728 -2.0395
  699MOL0     H94300   3.474   5.340   2.463  0.7985 -2.9229  0.7762
  699MOL0     H94301   3.605   5.257   2.399 -3.5505 -0.9978 -0.0906
  699MOL0     H94302   3.637   5.521   2.549 -1.5761 -0.4797  1.9263
  699MOL0     H94303   3.676   5.358   2.601  0.6335  2.6385  2.2913
  699MOL0     H94304   3.839   5.336   2.398  3.1332  0.9204 -1.2920
  699MOL0     H94305   3.808   5.509   2.372  2.4952 -0.6520 -0.1942
  699MOL0     H94306   3.982   5.555   2.487 -2.3679 -0.2648 -3.3357
  699MOL0     H94307   3.883   5.522   2.631 -0.9954 -2.7129  1.4238
  699MOL0     H94308   3.991   5.278   2.592 -0.8021  0.5829  1.0510
  699MOL0     H94309   4.111   5.366   2.504  1.1863 -2.0268  0.4625
  699MOL0     H94310   4.063   5.447   2.805 -0.5060 -2.3239  0.4048
  699MOL0     H94311   4.174   5.333   2.746 -2.1622 -1.5281  2.1187
  699MOL0     H94312   4.305   5.523   2.760  0.7953  0.4033  0.5103
  699MOL0     H94313   4.246   5.540   2.593  2.3298 -2.6192  1.6220
  699MOL0     H94314   4.038   5.656   2.709  0.2063 -1.2082  1.8242
  699MOL0     H94315   4.187   5.740   2.648 -1.1232 -0.0268 -0.0905
  699MOL0     H94316   4.112   5.567   3.005 -0.3367  0.1549  1.9608
  699MOL0     H94317   4.114   5.733   3.265 -0.6172  2.1790  0.0152
  699MOL0     H94318   4.258   5.648   3.252  1.4770  1.9775  3.6161
  699MOL0     H94319   4.247   5.854   3.397  0.6672  2.1545  0.6873
  699MOL0     H94320   4.275   5.941   3.241 -0.7236 -0.6543 -0.4819
  699MOL0     H94321   4.493   5.822   3.209  0.6160 -0.2825  0.0250
  699MOL0     H94322   4.460   5.723   3.356  2.0680  0.9283  2.0888
  699MOL0     H94323   4.438   5.940   3.498  2.5103  0.2876  1.5425
  699MOL0     H94324   4.457   6.036   3.357 -2.7076 -1.9250 -1.9700
  699MOL0     H94325   4.559   6.128   3.579  0.8192  0.9572  0.3588
  699MOL0     H94326   4.638   6.327   3.764  2.1553  1.7197  0.7502
  699MOL0     H94327   4.574   6.208   3.890  0.5153 -2.4454  0.2969
  699MOL0     H94328   4.740   6.274   3.879  0.4290  1.2782 -3.1724
  699MOL0     H94329   5.183   5.832   3.997 -1.0547  0.8711  0.7508
  699MOL0     H94330   5.355   5.868   4.183 -0.8300 -0.3034 -1.4308
  699MOL0     H94331   5.454   5.940   4.411 -0.5151  0.4690 -0.7573
  699MOL0     H94332   5.573   5.985   4.292  3.4442  2.2699 -0.1229
  699MOL0     H94333   5.667   6.060   4.509 -1.2435 -2.5230  0.5023
  699MOL0     H94334   5.592   6.204   4.458  1.6089  0.0381  1.1574
  699MOL0     H94335   5.422   6.001   4.629 -0.7140 -0.1124 -0.9636
  699MOL0     H94336   5.396   6.168   4.582  1.4374  0.4046  0.1280
  699MOL0     H94337   5.603   6.234   4.701  1.2688 -1.4025 -1.0455
  699MOL0     H94338   5.461   6.186   4.797 -1.1777 -0.7498  0.2687
  699MOL0     H94339   5.716   6.093   4.835 -0.2012  0.3999  0.0149
  699MOL0     H94340   5.659   5.964   4.737 -1.6358  1.1241 -0.8970
  699MOL0     H94341   5.492   6.052   4.982  0.9108 -0.6316  1.4391
  699MOL0     H94342   5.461   5.923   4.873 -2.0560  1.5857  2.0731
  699MOL0     H94343   5.558   5.878   5.102 -1.0603 -0.2430  0.4080
  699MOL0     H94344   5.709   5.956   5.033 -0.1909  0.1709 -3.1400
  699MOL0     H94345   5.705   5.758   4.859  1.0510 -3.0219  0.8458
  699MOL0     H94346   5.576   5.701   4.962 -0.4037  0.3111 -0.5520
  699MOL0     H94347   5.228   6.263   4.224 -0.7641 -0.9652 -1.0165
  699MOL0     H94348   5.036   6.230   4.059  1.5931  1.6604  0.3099
  699MOL0     H94349   4.919   5.855   3.759 -0.0875  1.4479  2.9011
  699MOL0     H94350   4.814   5.791   3.548  4.5645  1.4861  0.4768
  699MOL0     H94351   3.380   5.238   2.291 -0.1474  0.9735  1.7282
  699MOL0     H94352   3.226   5.231   2.109 -1.0316  1.0607 -2.1958
  699MOL0     H94353   3.074   5.288   1.734  2.2578  1.7659 -0.4753
  699MOL0     H94354   2.940   5.235   1.551  2.2474  0.2037  0.6064
  699MOL0     H94355   2.767   5.216   1.431  2.3794  1.5973  2.1762
  699MOL0     H94356   2.642   5.293   1.322 -0.0567 -0.3171 -0.4998
  699MOL0     H94357   2.897   5.443   1.345  1.5768  1.2297 -2.6001
  699MOL0     H94358   2.793   5.411   1.209  0.8844  1.8729 -0.8504
  699MOL0     H94359   2.894   5.209   1.153  1.0381 -0.0913 -1.3638
  699MOL0     H94360   2.963   5.169   1.307 -0.1325 -0.0874  0.7390
  699MOL0     H94361   3.053   5.408   1.150  1.5069  0.0813 -0.6343
  699MOL0     H94362   3.144   5.256   1.147  2.2562  3.5349 -0.4264
  699MOL0     H94363   3.264   5.404   1.518  0.4748  2.2351 -0.5489
  699MOL0     H94364   2.710   5.597   1.626  0.7900  0.4255 -0.6521
  699MOL0     H94365   2.879   5.645   1.820  2.5567 -1.6081  1.4783
  700MOL0     O94366   5.611   4.401   2.746  0.9133 -0.9114  0.0434
  700MOL0     C94367   5.655   4.297   2.693  0.2395  0.2795  0.2701
  700MOL0     O94368   5.752   4.298   2.599  0.1121 -0.3156  0.0465
  700MOL0     C94369   5.839   4.406   2.609 -0.0329 -0.0858  0.2547
  700MOL0     C94370   5.826   4.501   2.506  0.0385  0.1745  0.1493
  700MOL0     C94371   5.912   4.609   2.494 -0.4810  0.4827 -0.1317
  700MOL0     C94372   6.014   4.628   2.593 -0.2939 -1.2355 -0.9725
  700MOL0     O94373   6.092   4.740   2.582  0.4185  0.2095  0.5147
  700MOL0     C94374   6.227   4.714   2.565  0.2146 -0.5374  0.5566
  700MOL0     C94375   6.319   4.815   2.479  0.0870 -0.3114 -1.0633
  700MOL0     C94376   6.343   4.746   2.337 -0.1248  0.8281  0.1299
  700MOL0     C94377   6.206   4.727   2.271  0.5131 -0.1742  0.9870
  700MOL0     C94378   6.205   4.613   2.166  0.0169  0.2016 -1.1029
  700MOL0     C94379   6.270   4.648   2.030 -0.5313 -0.1151  0.3447
  700MOL0     C94380   6.264   4.531   1.941  0.4646  0.7495  1.1462
  700MOL0     C94381   6.320   4.544   1.803 -0.7206 -0.0514  0.3250
  700MOL0     N94382   6.286   4.440   1.701  0.0385  0.1583 -0.1548
  700MOL0     C94383   6.161   4.392   1.683  0.8152 -1.0965  0.3277
  700MOL0     C94384   6.180   4.298   1.587 -0.3406 -0.1704  0.0591
  700MOL0     C94385   6.063   4.227   1.525  0.3532  0.1336  0.9093
  700MOL0     C94386   6.083   4.078   1.504  0.2002 -0.0683  0.2126
  700MOL0     C94387   6.129   4.046   1.363  1.0784  0.4595  1.1532
  700MOL0     C94388   6.123   3.890   1.351 -0.6163 -0.9939 -0.9033
  700MOL0     O94389   6.206   3.836   1.449  0.1150  0.6153 -0.0594
  700MOL0     C94390   6.248   3.703   1.443 -0.2289 -0.0659 -0.0412
  700MOL0     C94391   6.170   3.590   1.424  0.6747 -0.4866  1.1601
  700MOL0     C94392   6.222   3.464   1.399 -0.7635 -0.0162 -0.3135
  700MOL0     C94393   6.115   3.351   1.386 -0.4395 -0.1585  0.1709
  700MOL0     C94394   6.364   3.445   1.401  0.3722 -0.2120  0.9749
  700MOL0     C94395   6.425   3.319   1.363 -0.3240 -1.1777  0.4493
  700MOL0     O94396   6.367   3.199   1.414  0.4866 -0.2688 -0.3997
  700MOL0     C94397   6.401   3.078   1.349 -0.3044  0.1038 -0.3051
  700MOL0     C94398   6.341   3.069   1.220 -0.0026  0.6916 -0.6990
  700MOL0     C94399   6.367   2.952   1.145  0.1489  0.5523  0.1414
  700MOL0     C94400   6.463   2.851   1.191  1.0395 -0.0951 -0.5027
  700MOL0     O94401   6.488   2.728   1.139 -0.1010  0.5328  0.3178
  700MOL0     C94402   6.392   2.656   1.055 -0.2534  0.0705 -0.4320
  700MOL0     C94403   6.444   2.519   1.010  1.4606 -0.6186  0.7786
  700MOL0     C94404   6.490   2.437   1.133 -0.4841  0.4609 -0.9120
  700MOL0     C94405   6.605   2.342   1.102 -0.3608  0.6696 -0.6443
  700MOL0     C94406   6.608   2.281   0.948 -0.8672 -0.4762 -0.3378
  700MOL0     C94407   6.726   2.179   0.941  0.5401  0.5427  0.4597
  700MOL0     C94408   6.758   2.125   0.801 -0.0034 -0.2172  0.6933
  700MOL0     C94409   6.886   2.052   0.798 -0.1730  0.9437 -0.5552
  700MOL0    Cl94410   6.830   1.903   0.869 -0.1477  0.4737  0.0243
  700MOL0     C94411   6.526   2.871   1.313  0.5821 -0.2845  0.6472
  700MOL0     C94412   6.495   2.979   1.400 -0.0208 -0.5076 -0.0976
  700MOL0     O94413   6.536   3.329   1.304  0.2875  0.2033 -0.4783
  700MOL0     C94414   6.442   3.565   1.420 -0.6946  0.2139 -0.5685
  700MOL0     C94415   6.386   3.692   1.445 -0.3058 -0.4301  0.4322
  700MOL0     N94416   6.309   4.292   1.549  0.6927  0.2482  0.3219
  700MOL0     N94417   6.376   4.376   1.615 -0.1294 -0.2442 -0.0990
  700MOL0     C94418   6.024   4.547   2.707  0.9849 -0.3872  0.0775
  700MOL0     C94419   5.937   4.430   2.711  0.9620  0.5241 -0.2653
  700MOL0     C94420   5.578   4.172   2.709 -0.3995  1.2242  0.2764
  700MOL0     C94421   5.455   4.182   2.775 -0.0408 -0.7768  0.2855
  700MOL0     C94422   5.393   4.061   2.823 -0.5512  0.2422  0.0912
  700MOL0     C94423   5.451   3.934   2.803  0.1773  0.4667  0.1495
  700MOL0     O94424   5.403   3.811   2.842 -0.4766  0.3300 -0.1089
  700MOL0     C94425   5.285   3.792   2.917 -0.0868  0.0024 -0.5022
  700MOL0     C94426   5.310   3.774   3.068 -0.8434  0.8684  1.0681
  700MOL0     C94427   5.431   3.692   3.081  0.1011  0.1397 -1.1530
  700MOL0     C94428   5.435   3.632   3.226 -0.2641  0.5974  0.5126
  700MOL0     C94429   5.528   3.522   3.234  0.9168 -0.0169  0.8185
  700MOL0     C94430   5.615   3.442   3.207 -0.0245 -0.9987 -0.0293
  700MOL0     C94431   5.574   3.932   2.740  0.7211 -0.0302  0.4484
  700MOL0     C94432   5.635   4.046   2.699  0.7913  1.2881  1.5407
  700MOL0     H94433   5.753   4.486   2.427  0.2550 -0.7843  0.1133
  700MOL0     H94434   5.917   4.678   2.410  2.3695  0.9451  0.3153
  700MOL0     H94435   6.270   4.702   2.665  3.5165  1.9106 -0.3999
  700MOL0     H94436   6.243   4.610   2.536 -0.3374 -0.8696  1.3926
  700MOL0     H94437   6.262   4.908   2.473 -2.8673 -1.7298  1.6867
  700MOL0     H94438   6.418   4.829   2.522  1.4737 -2.0768 -3.4732
  700MOL0     H94439   6.409   4.806   2.274 -0.1168  0.8102  0.1210
  700MOL0     H94440   6.386   4.648   2.360 -0.6236 -0.5250 -4.0327
  700MOL0     H94441   6.122   4.702   2.337  0.2585 -1.0101  0.3666
  700MOL0     H94442   6.179   4.824   2.228 -1.5567 -1.7446 -1.5853
  700MOL0     H94443   6.240   4.518   2.206  1.9426  2.2109  2.5157
  700MOL0     H94444   6.101   4.588   2.147  1.0113 -4.3125 -1.7067
  700MOL0     H94445   6.215   4.727   1.977  0.0652 -0.2709 -0.5410
  700MOL0     H94446   6.376   4.672   2.045 -0.2692  1.9415 -3.4479
  700MOL0     H94447   6.312   4.446   1.992 -1.6146 -1.6798 -0.6493
  700MOL0     H94448   6.159   4.507   1.921  0.6534  0.6533  0.2570
  700MOL0     H94449   6.427   4.557   1.821 -0.8695  2.6495 -0.3582
  700MOL0     H94450   6.283   4.635   1.754  3.1508  0.3847 -2.2028
  700MOL0     H94451   6.074   4.424   1.740  1.4720  4.6860 -1.2809
  700MOL0     H94452   5.977   4.245   1.590  0.8705  1.0253  1.3653
  700MOL0     H94453   6.040   4.278   1.431  4.6535  2.0045  0.6570
  700MOL0     H94454   5.984   4.036   1.523 -0.2030  1.2622  1.2547
  700MOL0     H94455   6.158   4.039   1.573  1.4283  1.5186 -0.1553
  700MOL0     H94456   6.229   4.078   1.333  2.5069 -2.7799  2.0590
  700MOL0     H94457   6.070   4.077   1.276  0.9470 -2.0689  0.2473
  700MOL0     H94458   6.165   3.855   1.256  3.4757 -0.6401  0.5732
  700MOL0     H94459   6.022   3.850   1.369 -1.1364  1.3312  2.1322
  700MOL0     H94460   6.062   3.602   1.426  0.3583  0.8456 -4.9207
  700MOL0     H94461   6.125   3.285   1.473  2.9218  2.6782  2.2140
  700MOL0     H94462   6.015   3.395   1.382 -0.0003  0.7672 -0.9417
  700MOL0     H94463   6.132   3.296   1.293 -2.0117 -1.3063  0.5141
  700MOL0     H94464   6.283   3.150   1.178 -0.3343  0.3285 -0.9392
  700MOL0     H94465   6.302   2.936   1.060  0.8988  0.2279 -0.3846
  700MOL0     H94466   6.298   2.644   1.109 -0.6010  2.0340 -0.5395
  700MOL0     H94467   6.363   2.712   0.966 -0.2430 -1.9505 -1.7764
  700MOL0     H94468   6.364   2.463   0.959 -0.8601  1.3441  2.0433
  700MOL0     H94469   6.532   2.544   0.950  0.4635  0.2066 -0.4084
  700MOL0     H94470   6.398   2.385   1.161 -0.1709  1.3730  2.1886
  700MOL0     H94471   6.513   2.496   1.223 -1.6935  0.4852 -0.5975
  700MOL0     H94472   6.703   2.376   1.137 -1.8643  2.9515  1.7157
  700MOL0     H94473   6.579   2.258   1.168 -0.9588 -1.1520 -3.0379
  700MOL0     H94474   6.630   2.354   0.869 -2.4645  0.0206 -0.3657
  700MOL0     H94475   6.513   2.236   0.920 -1.1911  1.5172 -2.9057
  700MOL0     H94476   6.814   2.224   0.987  1.2511  0.5668 -0.8669
  700MOL0     H94477   6.698   2.097   1.008 -1.8951  2.6298  2.2008
  700MOL0     H94478   6.767   2.210   0.732 -1.4275 -0.4749  0.1500
  700MOL0     H94479   6.678   2.060   0.764  0.6771 -0.4196 -0.4787
  700MOL0     H94480   6.961   2.102   0.861  1.3519 -2.4850  0.5698
  700MOL0     H94481   6.925   2.031   0.698  3.8066 -2.6860  1.4224
  700MOL0     H94482   6.597   2.797   1.347 -0.6911 -2.1902 -0.6294
  700MOL0     H94483   6.548   2.985   1.494  2.6079 -4.4613 -1.0827
  700MOL0     H94484   6.548   3.563   1.399 -0.3889 -2.6907  0.7575
  700MOL0     H94485   6.461   3.769   1.457 -0.7637 -0.2067  2.0585
  700MOL0     H94486   6.089   4.575   2.790  1.1640  0.8665 -0.4602
  700MOL0     H94487   5.944   4.360   2.793  1.1915 -1.2329 -1.7260
  700MOL0     H94488   5.392   4.270   2.780 -0.8877 -1.2703 -1.0957
  700MOL0     H94489   5.293   4.080   2.860 -0.3574  2.8625 -0.5478
  700MOL0     H94490   5.218   3.879   2.917 -3.1694 -2.1195  2.6000
  700MOL0     H94491   5.237   3.704   2.874  0.2560  1.2128 -3.6358
  700MOL0     H94492   5.218   3.727   3.105 -1.6496  3.1985  2.1936
  700MOL0     H94493   5.318   3.873   3.113 -0.0864  0.4175  1.9733
  700MOL0     H94494   5.514   3.761   3.062  1.7705 -1.4098  0.1576
  700MOL0     H94495   5.434   3.616   3.002 -3.5982 -4.6512  2.6745
  700MOL0     H94496   5.335   3.593   3.249 -1.1611  4.1317  3.4903
  700MOL0     H94497   5.454   3.707   3.303  0.8144 -2.4735  3.4603
  700MOL0     H94498   5.690   3.369   3.186  1.6307  1.3424 -2.9267
  700MOL0     H94499   5.625   3.837   2.730  0.1411 -0.8996  4.1690
  700MOL0     H94500   5.737   4.031   2.664  0.7155  2.7923  0.5606
  701MOL0     O94501  10.583   8.050  11.081 -0.0324 -1.2288  0.0900
  701MOL0     C94502  10.691   8.102  11.123  0.0922 -0.3641  0.6339
  701MOL0     O94503  10.815   8.048  11.105 -0.2962  1.0233 -0.5267
  701MOL0     C94504  10.863   7.970  11.001  0.1334  0.2146 -0.2009
  701MOL0     C94505  10.784   7.915  10.896  0.0310 -0.2241  0.6964
  701MOL0     C94506  10.845   7.866  10.783  0.2276  0.0418 -0.1724
  701MOL0     C94507  10.983   7.824  10.786  0.1876  1.0514  0.0715
  701MOL0     O94508  11.054   7.765  10.691  0.4454  0.5147  0.1231
  701MOL0     C94509  11.001   7.645  10.627 -0.4895 -0.7095 -0.9248
  701MOL0     C94510  10.955   7.665  10.484  0.3461 -0.1280 -0.6885
  701MOL0     C94511  11.085   7.684  10.394 -0.4754  0.2956 -0.0950
  701MOL0     C94512  11.033   7.719  10.251 -0.8541  0.0717  0.2066
  701MOL0     C94513  11.147   7.738  10.139  1.1151  0.3181  0.0526
  701MOL0     C94514  11.206   7.604  10.105 -0.8696  0.3904 -0.2937
  701MOL0     C94515  11.317   7.614   9.995  0.1821 -1.0538 -0.4365
  701MOL0     C94516  11.413   7.496   9.988  0.4704 -0.9384  0.0172
  701MOL0     N94517  11.522   7.508  10.090 -0.3033  0.6036 -0.5227
  701MOL0     C94518  11.547   7.605  10.187 -0.4836 -0.5998  0.1648
  701MOL0     C94519  11.654   7.555  10.253 -0.0483  0.3620  0.8592
  701MOL0     C94520  11.728   7.617  10.374  0.3220  0.0417  0.2466
  701MOL0     C94521  11.645   7.589  10.504 -0.5481  0.0745  1.1095
  701MOL0     C94522  11.680   7.691  10.614 -0.5907 -0.1550 -0.3042
  701MOL0     C94523  11.642   7.639  10.760  0.6659  0.1813 -0.2363
  701MOL0     O94524  11.499   7.627  10.760 -0.0556 -0.3858  0.1107
  701MOL0     C94525  11.432   7.571  10.871  0.4266 -0.3082  0.8905
  701MOL0     C94526  11.295   7.524  10.863 -0.3954 -0.0167  0.7472
  701MOL0     C94527  11.228   7.457  10.965 -0.7011  0.0210  0.2599
  701MOL0     C94528  11.085   7.433  10.934 -0.0479  0.7872  0.5860
  701MOL0     C94529  11.292   7.432  11.094  0.7502 -0.7610  0.7278
  701MOL0     C94530  11.224   7.380  11.219  0.3380 -0.4226  0.2594
  701MOL0     O94531  11.097   7.328  11.208  0.0837  0.6571  0.5945
  701MOL0     C94532  10.996   7.354  11.291  1.0211 -0.5119 -0.2821
  701MOL0     C94533  10.993   7.453  11.392 -0.1555  0.7195  0.1941
  701MOL0     C94534  10.890   7.462  11.482 -0.9356  0.0553 -0.1002
  701MOL0     C94535  10.779   7.385  11.479 -0.1023 -0.2038 -0.7411
  701MOL0     O94536  10.669   7.398  11.559  0.3479  0.0470 -0.0068
  701MOL0     C94537  10.684   7.318  11.682  0.2167  0.5573  0.0080
  701MOL0     C94538  10.548   7.303  11.748  0.1235  0.1772  0.1503
  701MOL0     C94539  10.550   7.234  11.885  0.4159 -0.3491  0.4169
  701MOL0     C94540  10.398   7.212  11.929  0.2174 -0.8532  0.0326
  701MOL0     C94541  10.396   7.171  12.078  0.5987  0.5301  0.3584
  701MOL0     C94542  10.249   7.154  12.112 -0.0073 -0.8899  0.0011
  701MOL0     C94543  10.206   7.011  12.068  0.6000 -0.5475  0.3720
  701MOL0     C94544  10.054   6.991  12.049 -1.0014  0.4779  1.1118
  701MOL0    Cl94545  10.022   6.839  12.146  0.1657 -0.6655  0.2252
  701MOL0     C94546  10.782   7.292  11.383  0.3939 -0.4086  0.5570
  701MOL0     C94547  10.884   7.269  11.292  0.2332  0.1751  0.6503
  701MOL0     O94548  11.286   7.394  11.323 -0.2283 -1.3865  0.2668
  701MOL0     C94549  11.419   7.490  11.101 -0.4771 -1.3997 -0.1308
  701MOL0     C94550  11.492   7.554  10.994 -0.6538  0.6783  0.3374
  701MOL0     N94551  11.697   7.437  10.199 -0.1825 -0.6107 -0.5041
  701MOL0     N94552  11.625   7.413  10.093 -0.2491 -0.0399 -0.5005
  701MOL0     C94553  11.055   7.856  10.905 -0.7091 -0.0804 -0.7545
  701MOL0     C94554  10.993   7.935  11.002  0.8408  0.4798  0.7010
  701MOL0     C94555  10.667   8.229  11.207 -0.0422  0.6052  0.3944
  701MOL0     C94556  10.755   8.260  11.316  0.0467  0.8867  0.8399
  701MOL0     C94557  10.736   8.378  11.399 -0.2158  0.0737 -0.8864
  701MOL0     C94558  10.615   8.452  11.400  0.4109  0.6415 -0.0174
  701MOL0     O94559  10.581   8.559  11.478  0.4019  0.3499 -0.6992
  701MOL0     C94560  10.674   8.587  11.590 -0.8767 -0.1115 -0.7752
  701MOL0     C94561  10.794   8.671  11.553  0.2294 -0.3690 -0.3677
  701MOL0     C94562  10.771   8.763  11.429  0.2506  0.3259 -0.1965
  701MOL0     C94563  10.904   8.842  11.410 -0.0756  0.3712  0.5295
  701MOL0     C94564  10.881   8.977  11.371 -1.5799 -0.2029  1.4330
  701MOL0     C94565  10.858   9.096  11.351  0.1820  0.0331  0.1721
  701MOL0     C94566  10.527   8.414  11.293  0.8149 -0.3775 -0.2022
  701MOL0     C94567  10.559   8.318  11.193  0.4836  0.2985  0.0305
  701MOL0     H94568  10.678   7.938  10.894 -0.4327 -2.2216 -0.2493
  701MOL0     H94569  10.782   7.849  10.696  0.1360 -1.0740  0.1041
  701MOL0     H94570  11.081   7.570  10.619 -1.3998 -1.9167  0.6535
  701MOL0     H94571  10.923   7.592  10.682  1.0535 -3.0347 -0.8444
  701MOL0     H94572  10.884   7.589  10.451 -0.4413  1.2285 -2.2282
  701MOL0     H94573  10.896   7.757  10.478 -3.2577 -2.3663 -2.3063
  701MOL0     H94574  11.144   7.758  10.448  0.0856 -1.3270  1.6368
  701MOL0     H94575  11.150   7.596  10.392 -4.4872 -3.0896  2.2030
  701MOL0     H94576  10.970   7.635  10.219  1.4248 -1.1822 -1.3355
  701MOL0     H94577  10.970   7.808  10.243 -2.0810 -0.9317 -2.5919
  701MOL0     H94578  11.099   7.782  10.051  0.7731 -1.0187 -0.4459
  701MOL0     H94579  11.216   7.816  10.173  2.6474 -0.5695 -0.9322
  701MOL0     H94580  11.251   7.554  10.191 -1.0385 -0.1138 -0.4967
  701MOL0     H94581  11.122   7.538  10.084 -0.0794 -0.6737 -0.1589
  701MOL0     H94582  11.251   7.634   9.910 -1.0283  1.0051  0.9108
  701MOL0     H94583  11.384   7.700  10.003 -0.3009 -0.4189 -2.6224
  701MOL0     H94584  11.461   7.506   9.891 -0.0614  1.3279 -0.0615
  701MOL0     H94585  11.351   7.406   9.999 -1.0966  0.0962 -0.0317
  701MOL0     H94586  11.497   7.700  10.204  1.9053  1.2853 -2.2651
  701MOL0     H94587  11.818   7.557  10.389 -0.3882 -0.7977  1.2805
  701MOL0     H94588  11.750   7.724  10.364  4.5495  0.0028  5.2670
  701MOL0     H94589  11.663   7.487  10.540 -1.4253 -1.1695 -1.6988
  701MOL0     H94590  11.539   7.597  10.480 -0.6106 -3.0884 -0.1367
  701MOL0     H94591  11.617   7.779  10.602 -1.1775  0.0250  3.1740
  701MOL0     H94592  11.786   7.720  10.612 -0.7757  0.6692  1.0450
  701MOL0     H94593  11.686   7.715  10.825  5.3453 -0.1775 -2.5766
  701MOL0     H94594  11.690   7.542  10.777 -2.4953 -1.1035  2.5541
  701MOL0     H94595  11.244   7.547  10.770 -2.9038 -0.3137  1.9584
  701MOL0     H94596  11.066   7.326  10.942  2.9391 -0.5480 -4.9110
  701MOL0     H94597  11.025   7.486  11.009 -1.6364 -1.1323  0.7439
  701MOL0     H94598  11.053   7.475  10.838  2.9122  1.5697 -0.1516
  701MOL0     H94599  11.078   7.516  11.413  1.0851 -0.4885 -1.0355
  701MOL0     H94600  10.879   7.544  11.553 -0.4333 -1.7950  2.2328
  701MOL0     H94601  10.706   7.214  11.655  2.0903  1.1179 -0.7355
  701MOL0     H94602  10.767   7.358  11.742  0.9754  2.0502 -1.9538
  701MOL0     H94603  10.515   7.405  11.770  2.7532  1.4952 -1.4933
  701MOL0     H94604  10.473   7.253  11.686 -0.5762  0.2291  0.9373
  701MOL0     H94605  10.597   7.294  11.963  0.5075 -0.2093  0.2537
  701MOL0     H94606  10.604   7.139  11.879 -0.7548 -1.1067  1.4074
  701MOL0     H94607  10.343   7.306  11.922  0.7680 -0.0447  4.0730
  701MOL0     H94608  10.362   7.138  11.857 -0.4249  2.2490 -3.1231
  701MOL0     H94609  10.442   7.251  12.138 -0.6149  1.4854  0.0674
  701MOL0     H94610  10.460   7.088  12.110  1.0968  1.0539  0.7431
  701MOL0     H94611  10.221   7.193  12.210 -4.8175  3.1881 -2.5760
  701MOL0     H94612  10.198   7.218  12.040 -3.6281 -1.3815  1.9280
  701MOL0     H94613  10.254   6.937  12.134 -2.0217 -1.9728  0.8100
  701MOL0     H94614  10.264   6.997  11.977  2.9372  0.0126  1.6796
  701MOL0     H94615  10.031   6.974  11.943 -0.9171 -0.9697  1.3153
  701MOL0     H94616   9.993   7.075  12.084 -2.9164 -1.2957  2.2390
  701MOL0     H94617  10.687   7.240  11.376  1.2443 -1.9580  0.0303
  701MOL0     H94618  10.874   7.185  11.225 -0.1506 -0.1786  1.1380
  701MOL0     H94619  11.471   7.474  11.195  0.0694  0.2358 -0.1204
  701MOL0     H94620  11.593   7.589  11.016 -0.1597  1.5614 -2.8610
  701MOL0     H94621  11.163   7.855  10.919 -0.0472  3.9265 -3.8324
  701MOL0     H94622  11.057   7.946  11.089  2.5168 -1.1113 -0.2687
  701MOL0     H94623  10.843   8.200  11.338  0.0485  1.3379  2.0999
  701MOL0     H94624  10.817   8.399  11.468 -0.2181 -2.7269  0.0958
  701MOL0     H94625  10.621   8.650  11.662 -1.3513 -0.1472 -1.0879
  701MOL0     H94626  10.713   8.497  11.639  2.1006  1.7158  0.4493
  701MOL0     H94627  10.876   8.602  11.532 -0.5367 -1.1958 -0.6993
  701MOL0     H94628  10.819   8.733  11.640 -2.5439  1.9123 -1.0326
  701MOL0     H94629  10.682   8.827  11.420 -0.3820 -0.1028  2.2371
  701MOL0     H94630  10.768   8.701  11.339  1.6056  0.2646 -0.2184
  701MOL0     H94631  10.961   8.794  11.330  1.3272  3.5921 -0.5344
  701MOL0     H94632  10.967   8.837  11.499  0.0451 -1.1698  0.3926
  701MOL0     H94633  10.832   9.197  11.328 -1.3673 -0.3290  0.2163
  701MOL0     H94634  10.430   8.459  11.279  0.8262 -1.1823 -4.0516
  701MOL0     H94635  10.486   8.329  11.113 -0.9798  2.2966  1.5559
  702MOL0     O94636   1.346   2.901  11.292  0.0191 -0.0758 -0.8145
  702MOL0     C94637   1.422   2.895  11.202  0.6586  0.1804 -0.2802
  702MOL0     O94638   1.468   2.992  11.123 -0.0564  0.0040  0.4959
  702MOL0     C94639   1.410   3.125  11.124  1.4690  0.5357  0.5363
  702MOL0     C94640   1.351   3.174  11.240  0.7922 -0.0172  0.1000
  702MOL0     C94641   1.283   3.301  11.239 -0.6631  0.9095  0.1175
  702MOL0     C94642   1.299   3.383  11.123 -0.2288  0.5086  0.9056
  702MOL0     O94643   1.233   3.510  11.108 -0.0248 -0.9032 -0.0710
  702MOL0     C94644   1.202   3.577  10.979 -0.8970  1.0568 -1.2510
  702MOL0     C94645   1.317   3.665  10.922  0.3177 -0.0966  0.0782
  702MOL0     C94646   1.348   3.791  11.005  0.1282 -0.1490 -0.0635
  702MOL0     C94647   1.261   3.913  10.964  0.6443 -0.2169  1.0632
  702MOL0     C94648   1.282   4.028  11.066 -0.6561  0.2639  1.1040
  702MOL0     C94649   1.213   4.160  11.025 -0.2708  0.3701  0.8133
  702MOL0     C94650   1.275   4.230  10.897 -0.5229 -0.2987 -0.1574
  702MOL0     C94651   1.222   4.374  10.872  0.7408  0.8579 -0.2918
  702MOL0     N94652   1.249   4.470  10.975  0.1064  0.2403  0.0841
  702MOL0     C94653   1.334   4.572  10.967  0.1116 -0.0282 -0.1382
  702MOL0     C94654   1.289   4.662  11.061  0.7977  0.4747 -0.5075
  702MOL0     C94655   1.365   4.787  11.100  0.4332  0.4541  0.3199
  702MOL0     C94656   1.419   4.873  10.983  0.4401  0.1241 -1.1066
  702MOL0     C94657   1.498   4.994  11.024  0.7498  0.4928 -0.5448
  702MOL0     C94658   1.551   5.072  10.902  0.1402 -0.1091  0.9462
  702MOL0     O94659   1.446   5.072  10.794 -0.7207 -0.5266 -0.3836
  702MOL0     C94660   1.378   5.193  10.780  0.2300 -0.0046 -0.0475
  702MOL0     C94661   1.396   5.273  10.663  0.2369 -0.2900  0.4338
  702MOL0     C94662   1.346   5.409  10.659  0.4792  0.0918  0.3651
  702MOL0     C94663   1.403   5.504  10.556  0.4312  0.6590 -0.2332
  702MOL0     C94664   1.278   5.451  10.779 -0.1577  0.3559 -0.3566
  702MOL0     C94665   1.229   5.582  10.795 -0.5873  0.3751  0.5983
  702MOL0     O94666   1.092   5.588  10.819  0.6550 -0.6136 -0.0546
  702MOL0     C94667   1.014   5.696  10.781  0.4784  0.6012 -0.3241
  702MOL0     C94668   0.933   5.684  10.668 -0.3324  0.8246  0.0360
  702MOL0     C94669   0.850   5.797  10.629 -0.2079  0.1290 -0.0870
  702MOL0     C94670   0.854   5.904  10.715  0.3263  0.1515 -0.4028
  702MOL0     O94671   0.771   6.005  10.664  0.0232  0.9375 -0.1891
  702MOL0     C94672   0.801   6.143  10.694 -0.6251  0.8817  0.1035
  702MOL0     C94673   0.753   6.228  10.575  0.2188  0.4807  0.0450
  702MOL0     C94674   0.620   6.199  10.515 -0.3351  0.0827 -0.1750
  702MOL0     C94675   0.574   6.322  10.439 -0.5607  0.3066  1.3096
  702MOL0     C94676   0.533   6.431  10.534  0.5565  1.2172  0.2766
  702MOL0     C94677   0.463   6.551  10.459 -0.3249  0.1565  0.9773
  702MOL0     C94678   0.391   6.648  10.549  0.5076  0.6200 -0.0146
  702MOL0     C94679   0.327   6.760  10.468  0.4042  0.5135  1.5896
  702MOL0    Cl94680   0.185   6.706  10.349 -0.0113  0.2518  0.3408
  702MOL0     C94681   0.939   5.914  10.824  0.7169  0.0072 -0.0444
  702MOL0     C94682   1.019   5.807  10.861 -0.3305 -0.4080 -0.3757
  702MOL0     O94683   1.307   5.677  10.785  0.7524  0.1517  0.8331
  702MOL0     C94684   1.258   5.363  10.888  0.2641  0.2310 -0.4876
  702MOL0     C94685   1.296   5.233  10.884  0.0058 -0.7799 -1.0714
  702MOL0     N94686   1.185   4.611  11.129  0.0285  0.6339 -0.9026
  702MOL0     N94687   1.169   4.498  11.075 -0.2686 -0.2117 -0.9038
  702MOL0     C94688   1.368   3.332  11.018  0.0423 -0.1998  0.8790
  702MOL0     C94689   1.416   3.205  11.013  0.1195  0.1921 -0.6879
  702MOL0     C94690   1.508   2.771  11.189 -0.5649 -0.4102 -0.1428
  702MOL0     C94691   1.497   2.655  11.277 -0.4800 -1.0161  0.5821
  702MOL0     C94692   1.595   2.557  11.284 -0.3331 -0.0457 -0.8016
  702MOL0     C94693   1.699   2.554  11.188  0.3572 -0.3140 -1.4732
  702MOL0     O94694   1.779   2.440  11.183  0.5985 -0.2898  0.1167
  702MOL0     C94695   1.918   2.479  11.186 -0.7596  0.7705  0.5068
  702MOL0     C94696   2.003   2.361  11.234 -0.1961 -0.0006  0.7521
  702MOL0     C94697   1.976   2.237  11.139  0.0948  0.2899  0.4629
  702MOL0     C94698   2.021   2.267  10.991 -0.6502 -0.1452 -0.2023
  702MOL0     C94699   2.164   2.264  10.968 -1.3708  0.1659  0.7276
  702MOL0     C94700   2.289   2.266  10.957  0.6976  0.0772 -0.6223
  702MOL0     C94701   1.699   2.655  11.090  0.1953 -0.5109 -0.3835
  702MOL0     C94702   1.602   2.761  11.090 -1.4219  0.5944  0.0568
  702MOL0     H94703   1.338   3.115  11.331 -0.6741 -0.1755 -0.1828
  702MOL0     H94704   1.240   3.326  11.336 -0.1381 -3.6216  1.7776
  702MOL0     H94705   1.182   3.496  10.909  1.7463 -2.4077  1.6194
  702MOL0     H94706   1.115   3.641  11.000 -0.9107  0.4220  0.8975
  702MOL0     H94707   1.415   3.621  10.900  1.0743  2.4233 -2.1432
  702MOL0     H94708   1.287   3.691  10.820  1.6540  1.2715 -0.0061
  702MOL0     H94709   1.334   3.758  11.108 -3.0125  1.1656  0.0662
  702MOL0     H94710   1.449   3.823  10.980 -0.1278  0.1683 -0.7351
  702MOL0     H94711   1.298   3.944  10.866  0.3205  7.5117  2.7604
  702MOL0     H94712   1.153   3.895  10.958  0.5334  0.7719 -2.7951
  702MOL0     H94713   1.247   3.976  11.156 -0.2601 -0.0842  1.0617
  702MOL0     H94714   1.389   4.044  11.082 -0.4866  1.2440 -0.7903
  702MOL0     H94715   1.105   4.142  11.012  0.1342 -1.8734  0.0741
  702MOL0     H94716   1.228   4.223  11.113 -2.8106 -0.1507  1.7090
  702MOL0     H94717   1.384   4.230  10.906 -0.4511  0.1480 -0.9764
  702MOL0     H94718   1.254   4.186  10.799  1.9038 -1.0992 -0.3744
  702MOL0     H94719   1.115   4.354  10.862  0.4716  2.7524 -2.1077
  702MOL0     H94720   1.251   4.421  10.777 -0.4910  1.4682 -0.3889
  702MOL0     H94721   1.415   4.573  10.894 -0.3397  0.0541 -0.6489
  702MOL0     H94722   1.299   4.849  11.162 -1.0626  2.0474 -2.6405
  702MOL0     H94723   1.456   4.757  11.151  0.6445  1.0187  0.2854
  702MOL0     H94724   1.324   4.902  10.936  0.5267 -0.9115 -1.9711
  702MOL0     H94725   1.480   4.801  10.929  1.0594 -1.1301  1.1236
  702MOL0     H94726   1.584   4.965  11.085  0.8563  2.4692  0.3212
  702MOL0     H94727   1.434   5.068  11.074  0.8685  1.8283 -2.3081
  702MOL0     H94728   1.645   5.025  10.872 -0.3423  0.1285 -1.0580
  702MOL0     H94729   1.596   5.170  10.918 -0.8534  1.6554 -4.8075
  702MOL0     H94730   1.463   5.242  10.583 -1.1478 -0.0602 -0.8606
  702MOL0     H94731   1.502   5.527  10.597 -0.2281 -3.0565  4.2232
  702MOL0     H94732   1.424   5.454  10.461  2.0710  5.0194 -2.4693
  702MOL0     H94733   1.348   5.594  10.526 -0.2707  0.1520 -0.5100
  702MOL0     H94734   0.933   5.588  10.616  1.1532 -0.5954  2.5181
  702MOL0     H94735   0.794   5.801  10.537 -1.3722 -1.5069  0.5154
  702MOL0     H94736   0.733   6.170  10.776 -1.9817 -3.6144  0.7469
  702MOL0     H94737   0.908   6.161  10.714  0.1787 -2.9106  0.0529
  702MOL0     H94738   0.762   6.331  10.613 -2.9457  0.5547  0.8919
  702MOL0     H94739   0.833   6.231  10.500 -1.8459  1.6281 -2.2547
  702MOL0     H94740   0.548   6.182  10.596  0.9643 -0.4232  0.9225
  702MOL0     H94741   0.616   6.111  10.451  1.2521 -1.5524  1.8149
  702MOL0     H94742   0.668   6.353  10.392 -0.1016 -1.9666  0.6214
  702MOL0     H94743   0.502   6.295  10.362  1.6270 -0.5454 -0.5438
  702MOL0     H94744   0.608   6.477  10.598 -2.3144  4.2107  1.7960
  702MOL0     H94745   0.456   6.381  10.593  2.1995  0.7286  2.1073
  702MOL0     H94746   0.534   6.600  10.392 -2.5817  1.8172 -0.3464
  702MOL0     H94747   0.384   6.515  10.391  0.9328  2.5527 -1.9801
  702MOL0     H94748   0.462   6.693  10.619 -0.0890  1.7047 -0.0876
  702MOL0     H94749   0.315   6.587  10.599 -0.8616  1.8900 -0.4599
  702MOL0     H94750   0.405   6.804  10.406  0.9656  0.0859  1.9880
  702MOL0     H94751   0.297   6.841  10.535 -0.2196 -0.0579  2.0103
  702MOL0     H94752   0.937   5.993  10.899 -3.5174  0.7940 -0.6914
  702MOL0     H94753   1.085   5.811  10.947 -0.3596  0.1394 -0.3800
  702MOL0     H94754   1.208   5.404  10.976  3.5552  0.7346  1.3064
  702MOL0     H94755   1.279   5.171  10.972 -2.4673 -2.5487 -2.6761
  702MOL0     H94756   1.380   3.396  10.932 -0.2420  1.8692  2.3057
  702MOL0     H94757   1.456   3.168  10.919  0.8653  0.4096 -0.4661
  702MOL0     H94758   1.419   2.650  11.352 -1.1208  1.1754  0.1251
  702MOL0     H94759   1.594   2.495  11.374  0.8418  3.0321  1.5391
  702MOL0     H94760   1.947   2.512  11.086  0.0188  2.9184  1.3943
  702MOL0     H94761   1.937   2.562  11.255 -2.5574  0.3692  1.5531
  702MOL0     H94762   1.973   2.339  11.337 -0.4846 -2.4980  0.2045
  702MOL0     H94763   2.109   2.388  11.235 -0.1357  0.2732 -2.4904
  702MOL0     H94764   1.868   2.217  11.136 -0.0240  0.8932  0.7008
  702MOL0     H94765   2.034   2.154  11.180  2.2761  0.0555 -2.6708
  702MOL0     H94766   1.984   2.361  10.950  0.9935  0.1436 -1.1317
  702MOL0     H94767   1.975   2.186  10.934  0.7382 -2.1455  1.3274
  702MOL0     H94768   2.396   2.264  10.961  0.8469  1.2935 -2.6016
  702MOL0     H94769   1.770   2.658  11.008  0.8524  0.7044  0.1906
  702MOL0     H94770   1.620   2.836  11.015  0.8447 -1.3173 -1.4508
  703MOL0     O94771   0.098   5.235   1.740 -0.4437  0.2166 -0.1639
  703MOL0     C94772   0.094   5.333   1.670  0.0835 -0.8893 -0.2263
  703MOL0     O94773   0.144   5.354   1.547 -0.1345  0.6622  0.2035
  703MOL0     C94774   0.197   5.240   1.488 -0.5057  0.2326  0.7846
  703MOL0     C94775   0.331   5.203   1.515 -0.6334  0.5045 -0.0870
  703MOL0     C94776   0.389   5.091   1.442 -0.7850  0.0800  0.5159
  703MOL0     C94777   0.316   5.030   1.342 -0.8608  0.0417  0.0852
  703MOL0     O94778   0.393   4.936   1.264 -0.1731 -0.2829 -0.6442
  703MOL0     C94779   0.317   4.835   1.195 -1.1932  0.3519  0.2946
  703MOL0     C94780   0.294   4.884   1.046 -0.2861  0.6895 -0.6409
  703MOL0     C94781   0.285   4.775   0.934  0.6148 -0.1018 -0.6451
  703MOL0     C94782   0.145   4.775   0.883 -0.1936  0.1958 -0.5064
  703MOL0     C94783   0.067   4.650   0.935 -0.2356 -0.2533 -0.0296
  703MOL0     C94784   0.006   4.672   1.073  0.1784 -0.2232  0.3702
  703MOL0     C94785  -0.117   4.583   1.104  0.3748 -0.2001  0.7663
  703MOL0     C94786  -0.080   4.439   1.134  0.0778  0.6383  0.4975
  703MOL0     N94787  -0.194   4.349   1.148 -1.0652 -0.3422  0.8758
  703MOL0     C94788  -0.309   4.385   1.211  0.7958 -0.0477  0.4933
  703MOL0     C94789  -0.398   4.285   1.175  0.3877  0.2940 -0.2223
  703MOL0     C94790  -0.546   4.250   1.205 -0.3347  0.4943  0.1312
  703MOL0     C94791  -0.557   4.156   1.328  0.2091 -0.1057 -0.2273
  703MOL0     C94792  -0.520   4.014   1.296  0.7859 -0.1931  0.4871
  703MOL0     C94793  -0.557   3.919   1.408 -0.0169 -0.3569 -0.4608
  703MOL0     O94794  -0.701   3.912   1.426 -0.8232  0.2005 -0.0520
  703MOL0     C94795  -0.767   3.852   1.532  0.0573 -0.8907 -0.3745
  703MOL0     C94796  -0.700   3.784   1.635 -0.4972  0.5428 -0.1496
  703MOL0     C94797  -0.769   3.733   1.756 -0.5636  0.1726  0.7647
  703MOL0     C94798  -0.685   3.648   1.862  0.3073  0.0120  1.0522
  703MOL0     C94799  -0.904   3.774   1.766  1.4666 -0.4157 -0.6515
  703MOL0     C94800  -0.985   3.748   1.887 -0.5963 -1.1997 -0.0906
  703MOL0     O94801  -0.917   3.760   2.012  0.6054 -0.7715 -0.7557
  703MOL0     C94802  -0.994   3.763   2.127 -1.1856  0.2705  0.2097
  703MOL0     C94803  -0.973   3.658   2.220  0.8661  0.5707  0.0433
  703MOL0     C94804  -1.048   3.670   2.342 -0.5265 -0.4170 -0.6978
  703MOL0     C94805  -1.148   3.765   2.360 -0.2179 -0.5100 -0.5787
  703MOL0     O94806  -1.215   3.769   2.479 -0.2011  0.3761  0.1988
  703MOL0     C94807  -1.367   3.780   2.476 -0.2843  0.1319 -1.1183
  703MOL0     C94808  -1.427   3.774   2.614  0.1547 -0.8498 -0.2376
  703MOL0     C94809  -1.426   3.643   2.703  1.0646  0.0343  0.1255
  703MOL0     C94810  -1.527   3.539   2.663 -0.1641 -0.4509  0.1446
  703MOL0     C94811  -1.509   3.400   2.734  0.8702 -0.7495  0.1848
  703MOL0     C94812  -1.532   3.419   2.884 -0.2457  0.6314  0.0982
  703MOL0     C94813  -1.561   3.283   2.954 -0.0789  0.3270 -0.1328
  703MOL0     C94814  -1.709   3.245   2.958  0.5028  0.0036  0.4691
  703MOL0    Cl94815  -1.779   3.304   3.114 -0.5893  0.3113  0.2451
  703MOL0     C94816  -1.169   3.863   2.264  0.2713  0.4119  0.6100
  703MOL0     C94817  -1.083   3.865   2.148  0.1898 -1.3021 -0.6936
  703MOL0     O94818  -1.099   3.716   1.875  0.5043 -0.0861  0.0485
  703MOL0     C94819  -0.976   3.841   1.661 -0.2815  1.3704  0.4085
  703MOL0     C94820  -0.907   3.867   1.546  0.0503  0.1060  0.7247
  703MOL0     N94821  -0.328   4.189   1.108 -0.7775 -0.0443 -0.6076
  703MOL0     N94822  -0.208   4.231   1.088 -0.6948 -0.2294 -0.3612
  703MOL0     C94823   0.182   5.066   1.321  0.0726  0.3786 -0.8947
  703MOL0     C94824   0.123   5.174   1.397 -0.0283  0.0220  0.3925
  703MOL0     C94825   0.010   5.445   1.723 -0.9416  0.2297 -0.0930
  703MOL0     C94826   0.013   5.575   1.671  0.2428  0.2804  0.1435
  703MOL0     C94827  -0.076   5.669   1.721 -0.3483 -0.0515 -0.0218
  703MOL0     C94828  -0.176   5.635   1.805  0.2138  0.6479 -0.4915
  703MOL0     O94829  -0.271   5.727   1.827 -0.1835 -0.8120  0.2418
  703MOL0     C94830  -0.365   5.710   1.944 -0.2435  0.3324  0.6308
  703MOL0     C94831  -0.410   5.855   1.994  0.1600 -0.6120 -0.0336
  703MOL0     C94832  -0.304   5.964   2.014 -0.0830  0.0783 -0.6947
  703MOL0     C94833  -0.260   6.046   1.888 -0.3435 -0.5181 -0.4123
  703MOL0     C94834  -0.351   6.148   1.839  0.3827  0.9250  0.2234
  703MOL0     C94835  -0.436   6.223   1.805 -0.3025 -0.0860 -0.7255
  703MOL0     C94836  -0.163   5.513   1.866  0.3777  0.2696  0.2527
  703MOL0     C94837  -0.077   5.418   1.826 -0.2470  1.2698 -0.1850
  703MOL0     H94838   0.374   5.272   1.588  2.6311 -0.6102 -0.7976
  703MOL0     H94839   0.494   5.066   1.456 -0.6304  0.3509 -0.1351
  703MOL0     H94840   0.387   4.751   1.189 -1.1789  0.4541 -1.3454
  703MOL0     H94841   0.222   4.809   1.243  0.2530 -0.3742  2.9586
  703MOL0     H94842   0.205   4.948   1.052 -2.2505 -1.9555 -0.1961
  703MOL0     H94843   0.385   4.942   1.022  0.4424  0.1517  0.7351
  703MOL0     H94844   0.348   4.813   0.853  0.8205 -0.8666 -0.8536
  703MOL0     H94845   0.320   4.675   0.961  0.1815 -0.2144 -0.4929
  703MOL0     H94846   0.088   4.866   0.904  0.0072  0.2663 -0.2545
  703MOL0     H94847   0.154   4.761   0.774  1.4213 -3.7941 -0.0289
  703MOL0     H94848  -0.012   4.643   0.859 -1.9695 -0.2267  1.7071
  703MOL0     H94849   0.127   4.558   0.932  0.6533  0.3142  0.1859
  703MOL0     H94850   0.093   4.665   1.138  3.8740  1.0171 -3.9135
  703MOL0     H94851  -0.037   4.772   1.072 -1.1711 -0.6665  3.1953
  703MOL0     H94852  -0.170   4.619   1.193 -0.5877  1.7133 -0.4847
  703MOL0     H94853  -0.189   4.586   1.021 -0.3007  1.8567  1.3628
  703MOL0     H94854  -0.014   4.416   1.219 -1.1136 -3.5649  0.5304
  703MOL0     H94855  -0.017   4.398   1.054 -1.1976 -0.7458  0.1414
  703MOL0     H94856  -0.328   4.478   1.264 -1.2980 -0.9961  1.5578
  703MOL0     H94857  -0.607   4.341   1.205 -0.1890  0.6118  1.2737
  703MOL0     H94858  -0.584   4.201   1.115 -2.0729  1.1293  0.4677
  703MOL0     H94859  -0.659   4.165   1.364  1.5065  3.5419  3.3321
  703MOL0     H94860  -0.499   4.204   1.408 -1.0756 -0.6560  1.0667
  703MOL0     H94861  -0.417   4.014   1.259  0.1590 -0.1545 -1.3683
  703MOL0     H94862  -0.584   3.983   1.212  1.2287 -0.6884  0.3262
  703MOL0     H94863  -0.511   3.954   1.501 -0.8973  0.4314 -0.2970
  703MOL0     H94864  -0.523   3.822   1.372 -0.5831 -0.1543 -1.5673
  703MOL0     H94865  -0.594   3.773   1.618 -0.6803  0.1736 -1.0823
  703MOL0     H94866  -0.643   3.713   1.939 -0.1872  0.9887  0.5063
  703MOL0     H94867  -0.748   3.570   1.906 -1.3032 -0.6342 -2.1104
  703MOL0     H94868  -0.613   3.605   1.792 -0.9626 -1.3090  0.5108
  703MOL0     H94869  -0.903   3.579   2.196  1.5886 -0.5433  4.8314
  703MOL0     H94870  -1.019   3.619   2.434 -0.8887  3.0498  1.5390
  703MOL0     H94871  -1.396   3.880   2.440 -0.9355  0.9854  1.5320
  703MOL0     H94872  -1.405   3.703   2.409 -0.1224 -0.6690 -0.3002
  703MOL0     H94873  -1.361   3.842   2.669  0.1132 -0.5387 -0.5638
  703MOL0     H94874  -1.524   3.823   2.603 -0.7989 -2.1274  1.9275
  703MOL0     H94875  -1.454   3.661   2.807  0.5412 -2.8503  0.5641
  703MOL0     H94876  -1.321   3.614   2.702  1.2308  0.6204 -0.0697
  703MOL0     H94877  -1.631   3.571   2.673 -0.3440 -0.8844 -0.2684
  703MOL0     H94878  -1.509   3.517   2.557  2.2080 -6.3365  1.3782
  703MOL0     H94879  -1.408   3.366   2.708  0.4794 -3.3543  1.6968
  703MOL0     H94880  -1.571   3.320   2.692  0.2847 -0.7711  1.0533
  703MOL0     H94881  -1.453   3.474   2.935 -0.2808  0.1692  0.6731
  703MOL0     H94882  -1.626   3.474   2.900 -1.3983  0.0093 -3.6305
  703MOL0     H94883  -1.526   3.280   3.057  1.5603 -2.6185 -0.6478
  703MOL0     H94884  -1.505   3.203   2.904 -0.0781 -0.2644  0.7853
  703MOL0     H94885  -1.724   3.137   2.947 -1.2446  0.2863 -0.1558
  703MOL0     H94886  -1.763   3.288   2.874  0.2978  2.4121  1.7614
  703MOL0     H94887  -1.244   3.940   2.278 -0.7564 -0.4457 -0.0123
  703MOL0     H94888  -1.094   3.942   2.072  0.1099  0.1901  0.7836
  703MOL0     H94889  -1.081   3.866   1.672  0.1102  3.0152  0.6803
  703MOL0     H94890  -0.960   3.923   1.470  0.3962  0.3512  0.6621
  703MOL0     H94891   0.131   5.009   1.244 -1.8090  2.0136 -0.9494
  703MOL0     H94892   0.026   5.211   1.365  0.9120  0.7132 -1.8000
  703MOL0     H94893   0.077   5.626   1.599 -2.6799  0.8299 -2.2325
  703MOL0     H94894  -0.084   5.773   1.690  1.6174  0.3760  0.8098
  703MOL0     H94895  -0.454   5.656   1.912 -0.3492 -0.3555  2.0001
  703MOL0     H94896  -0.320   5.654   2.027 -3.5362 -0.0464  2.3502
  703MOL0     H94897  -0.463   5.849   2.090 -0.4768 -1.4695 -0.4270
  703MOL0     H94898  -0.480   5.893   1.920  0.9303 -2.4011 -1.7629
  703MOL0     H94899  -0.214   5.913   2.048 -0.5082  0.1426  0.5650
  703MOL0     H94900  -0.334   6.034   2.093  1.1650 -1.0443  0.8444
  703MOL0     H94901  -0.260   5.977   1.804 -3.3350 -1.1194 -0.0290
  703MOL0     H94902  -0.167   6.099   1.913 -0.9305 -0.7401  2.6635
  703MOL0     H94903  -0.504   6.288   1.753  0.5665  2.1353  0.7922
  703MOL0     H94904  -0.238   5.474   1.935  1.9292 -2.2904  0.6302
  703MOL0     H94905  -0.067   5.330   1.889  4.2095  1.3990 -0.3873
  704MOL0     O94906  10.361   0.939   0.494 -0.5485  0.5905 -0.3246
  704MOL0     C94907  10.285   1.035   0.481  1.3303 -1.1866  0.8492
  704MOL0     O94908  10.142   1.023   0.465  0.4711  0.7404  0.3394
  704MOL0     C94909  10.099   0.900   0.496  0.5192 -0.8725  0.1515
  704MOL0     C94910  10.102   0.792   0.411 -0.0519 -0.2415 -1.1744
  704MOL0     C94911  10.031   0.674   0.453  0.0841 -0.2838 -0.0610
  704MOL0     C94912   9.944   0.678   0.562 -1.0339 -0.4855 -0.0991
  704MOL0     O94913   9.868   0.577   0.596 -0.7793 -0.5326 -0.3211
  704MOL0     C94914   9.798   0.515   0.495  0.5614 -0.1188 -0.2227
  704MOL0     C94915   9.689   0.419   0.557 -0.6421 -0.7007  0.6945
  704MOL0     C94916   9.663   0.288   0.470 -1.2834  1.2534  0.1851
  704MOL0     C94917   9.777   0.185   0.494 -0.4335  0.7622 -0.0317
  704MOL0     C94918   9.746   0.035   0.443 -0.0551  0.2598 -0.6854
  704MOL0     C94919   9.703  -0.059   0.557  0.3743  0.1220  0.0505
  704MOL0     C94920   9.692  -0.200   0.508 -0.4370 -0.2215 -0.1070
  704MOL0     C94921   9.685  -0.292   0.627  0.6727  0.7255  0.3306
  704MOL0     N94922   9.665  -0.430   0.583 -0.0777  0.3112 -0.3512
  704MOL0     C94923   9.545  -0.482   0.550 -0.0603  1.4135 -0.0337
  704MOL0     C94924   9.574  -0.617   0.530  0.8605  0.1022  0.2516
  704MOL0     C94925   9.465  -0.720   0.521  0.0062 -0.3307  0.2772
  704MOL0     C94926   9.415  -0.739   0.383 -0.5049 -0.3331  0.4541
  704MOL0     C94927   9.282  -0.825   0.397  0.6593  1.0030  0.5158
  704MOL0     C94928   9.195  -0.842   0.256 -1.3017 -0.0706 -0.3029
  704MOL0     O94929   9.097  -0.940   0.280  0.8809 -0.6323  0.1614
  704MOL0     C94930   8.958  -0.910   0.303 -1.4250 -0.7868 -0.1044
  704MOL0     C94931   8.876  -0.830   0.230  0.1592 -0.4676 -0.5964
  704MOL0     C94932   8.746  -0.805   0.258  0.6426  0.0801  0.2006
  704MOL0     C94933   8.664  -0.718   0.155 -0.1957  0.4586  1.0968
  704MOL0     C94934   8.688  -0.858   0.376  0.0617 -0.6185  0.5421
  704MOL0     C94935   8.560  -0.823   0.429  0.1011  0.0450  0.0186
  704MOL0     O94936   8.518  -0.914   0.531 -0.1296 -0.3239 -0.1586
  704MOL0     C94937   8.415  -0.884   0.619  0.7599 -0.8368 -0.2431
  704MOL0     C94938   8.404  -0.758   0.685 -0.2881 -0.4578 -0.2089
  704MOL0     C94939   8.300  -0.728   0.768  0.3277 -0.2154 -0.4215
  704MOL0     C94940   8.214  -0.833   0.806  0.0475  1.2774 -0.4290
  704MOL0     O94941   8.111  -0.813   0.886 -0.6490 -0.9016  0.3090
  704MOL0     C94942   8.044  -0.686   0.901  0.0146  0.1388  0.5605
  704MOL0     C94943   7.903  -0.724   0.981  0.3916 -0.0385 -0.3107
  704MOL0     C94944   7.817  -0.605   1.006 -0.0232  0.3058  0.3495
  704MOL0     C94945   7.735  -0.591   1.137 -0.1520  0.4383  0.7844
  704MOL0     C94946   7.696  -0.443   1.175  0.6725  0.5536  0.6204
  704MOL0     C94947   7.792  -0.364   1.268 -0.0214  0.5193  0.6473
  704MOL0     C94948   7.715  -0.235   1.307 -0.2653  0.1819  0.2255
  704MOL0     C94949   7.767  -0.148   1.419 -0.3209 -0.2808 -0.4044
  704MOL0    Cl94950   7.935  -0.070   1.380 -0.1675 -0.1454 -0.5099
  704MOL0     C94951   8.236  -0.965   0.754  0.2081 -0.3284 -0.9929
  704MOL0     C94952   8.330  -0.991   0.661 -1.4122 -0.0642 -0.3085
  704MOL0     O94953   8.496  -0.721   0.394 -0.4790 -0.0226  0.1978
  704MOL0     C94954   8.776  -0.933   0.463 -1.4143 -0.6703  0.0651
  704MOL0     C94955   8.906  -0.962   0.422 -0.8142 -0.4520  1.4225
  704MOL0     N94956   9.708  -0.641   0.542  0.7568 -0.4355 -0.5000
  704MOL0     N94957   9.763  -0.523   0.561  0.7016 -0.2744  0.0653
  704MOL0     C94958   9.949   0.790   0.648  0.0603  0.1531  0.1217
  704MOL0     C94959  10.016   0.906   0.614 -0.5792 -0.4040  1.5233
  704MOL0     C94960  10.344   1.168   0.481 -0.6620  0.0530 -0.6454
  704MOL0     C94961  10.480   1.196   0.473 -0.3797 -0.1886 -0.1285
  704MOL0     C94962  10.529   1.330   0.472  0.1649 -0.0339  0.4468
  704MOL0     C94963  10.432   1.439   0.489  0.2148  0.4380 -0.1138
  704MOL0     O94964  10.484   1.560   0.524  0.6871  1.0254 -0.6495
  704MOL0     C94965  10.433   1.667   0.446 -0.8003 -0.6749 -0.2908
  704MOL0     C94966  10.511   1.702   0.312  0.0891 -0.4644 -0.5946
  704MOL0     C94967  10.479   1.836   0.251 -0.1546  0.5811  0.0721
  704MOL0     C94968  10.555   1.862   0.119  0.3923  0.5922  0.4604
  704MOL0     C94969  10.518   1.998   0.067  0.0664 -0.2838  0.7758
  704MOL0     C94970  10.496   2.108   0.021  0.2135 -0.3604  0.8217
  704MOL0     C94971  10.290   1.413   0.497 -0.0941  0.4423  0.5564
  704MOL0     C94972  10.250   1.277   0.484  0.0715  0.7218  0.3767
  704MOL0     H94973  10.169   0.782   0.327  2.6072  0.4938  0.7398
  704MOL0     H94974  10.062   0.580   0.407 -2.3974 -0.4268 -1.6150
  704MOL0     H94975   9.746   0.583   0.426  0.0767  0.1493  0.4001
  704MOL0     H94976   9.861   0.448   0.436  1.2001 -2.5764  3.0006
  704MOL0     H94977   9.723   0.386   0.656 -0.8763 -1.7329  0.4500
  704MOL0     H94978   9.597   0.478   0.561 -0.6342 -0.6526  0.1976
  704MOL0     H94979   9.578   0.236   0.515  1.2888 -1.1841  2.6194
  704MOL0     H94980   9.633   0.309   0.367 -0.8383 -2.8619 -0.9470
  704MOL0     H94981   9.871   0.217   0.449  3.1917 -2.0120  4.5920
  704MOL0     H94982   9.791   0.185   0.603  0.1998  3.1738 -0.0683
  704MOL0     H94983   9.657   0.039   0.380  0.7176 -0.1741 -1.8221
  704MOL0     H94984   9.832  -0.012   0.394  1.2987 -0.9984  2.5602
  704MOL0     H94985   9.776  -0.066   0.638  0.8459  0.2889 -0.3555
  704MOL0     H94986   9.607  -0.023   0.597 -0.4614 -3.4603  1.6569
  704MOL0     H94987   9.612  -0.220   0.435 -1.9251 -0.3909  1.5090
  704MOL0     H94988   9.784  -0.224   0.453 -1.6759 -0.5796 -2.1356
  704MOL0     H94989   9.599  -0.259   0.687  1.9004  0.8219  2.1245
  704MOL0     H94990   9.772  -0.279   0.692  2.4463  3.4437 -2.2831
  704MOL0     H94991   9.445  -0.440   0.560  0.1814  1.7371  1.1762
  704MOL0     H94992   9.494  -0.818   0.559 -1.1836 -0.7406  0.1726
  704MOL0     H94993   9.379  -0.694   0.583  0.6515 -5.9556  4.2957
  704MOL0     H94994   9.486  -0.794   0.321  0.7283 -1.0486  2.3970
  704MOL0     H94995   9.394  -0.641   0.339 -1.3756 -1.0014 -0.6776
  704MOL0     H94996   9.220  -0.780   0.475 -0.0381 -1.2123  1.3250
  704MOL0     H94997   9.316  -0.925   0.427  0.9415 -0.3249 -3.6424
  704MOL0     H94998   9.257  -0.881   0.174 -0.6493  1.8391 -0.7736
  704MOL0     H94999   9.158  -0.745   0.224  1.5824  0.7647 -1.4644
  704MOL0     H95000   8.919  -0.783   0.142 -1.2148  1.5840 -0.2474
  704MOL0     H95001   8.729  -0.705   0.068  1.7166 -0.3112  2.3319
  704MOL0     H95002   8.563  -0.753   0.132 -0.1805  2.0424 -1.8013
  704MOL0     H95003   8.652  -0.615   0.189 -0.5020  2.0502 -3.2067
  704MOL0     H95004   8.480  -0.684   0.666 -1.3859  1.6996  2.9254
  704MOL0     H95005   8.288  -0.625   0.800 -1.0331  0.0166 -1.6061
  704MOL0     H95006   8.107  -0.616   0.957  2.8282 -0.4336 -1.6640
  704MOL0     H95007   8.020  -0.645   0.803  1.3488 -0.2558  0.0519
  704MOL0     H95008   7.842  -0.801   0.933 -0.2511  0.3807 -0.1790
  704MOL0     H95009   7.938  -0.764   1.076  1.6156  0.8398 -0.3693
  704MOL0     H95010   7.739  -0.588   0.932  1.2662  1.9579 -0.7161
  704MOL0     H95011   7.890  -0.523   0.999 -1.1210  1.3787  1.0764
  704MOL0     H95012   7.643  -0.648   1.120 -0.5974  0.3674  3.0576
  704MOL0     H95013   7.781  -0.651   1.216  1.7581 -4.0076 -3.2530
  704MOL0     H95014   7.593  -0.449   1.212 -0.5986 -3.1065 -2.8068
  704MOL0     H95015   7.678  -0.393   1.080 -2.7717  1.5251  1.6567
  704MOL0     H95016   7.831  -0.412   1.358  0.0213 -0.5999  0.0449
  704MOL0     H95017   7.878  -0.345   1.203  0.9745 -1.8272  1.2042
  704MOL0     H95018   7.608  -0.254   1.318 -0.4991 -1.4960 -3.4985
  704MOL0     H95019   7.715  -0.172   1.218 -0.3428 -2.8421 -2.0578
  704MOL0     H95020   7.766  -0.199   1.516  0.1814  0.4027 -0.0284
  704MOL0     H95021   7.691  -0.074   1.445 -1.2145 -2.3167  3.5670
  704MOL0     H95022   8.159  -1.039   0.773  1.1926 -1.1179  0.0756
  704MOL0     H95023   8.323  -1.090   0.617 -3.1686 -0.4518  0.7433
  704MOL0     H95024   8.747  -0.981   0.556 -1.6429  1.1001  0.9508
  704MOL0     H95025   8.971  -1.018   0.489  0.0903  0.0103  0.9435
  704MOL0     H95026   9.876   0.782   0.729  1.0238 -0.5823  0.9374
  704MOL0     H95027  10.008   1.001   0.665 -0.6516 -1.0228  2.6944
  704MOL0     H95028  10.549   1.113   0.458  1.2399  1.2179 -0.7340
  704MOL0     H95029  10.635   1.352   0.483  1.0343 -2.7476 -1.3710
  704MOL0     H95030  10.326   1.668   0.423 -1.3422  1.4416  1.8557
  704MOL0     H95031  10.446   1.753   0.513  0.1892 -0.9247 -0.1546
  704MOL0     H95032  10.493   1.617   0.246  1.7897 -4.1579  3.2373
  704MOL0     H95033  10.619   1.708   0.333  0.5196 -2.4681 -1.9688
  704MOL0     H95034  10.497   1.904   0.335  1.8273 -0.5378  0.6213
  704MOL0     H95035  10.372   1.839   0.227 -0.1149  0.6917 -0.0970
  704MOL0     H95036  10.518   1.784   0.052  0.7476 -0.9218  1.9644
  704MOL0     H95037  10.664   1.854   0.127  0.3300 -0.6188  0.2887
  704MOL0     H95038  10.464   2.206  -0.007 -3.3923 -0.9946  2.2346
  704MOL0     H95039  10.220   1.495   0.505 -1.6959 -0.0214 -4.7525
  704MOL0     H95040  10.143   1.259   0.491  0.6290 -2.5634  2.5496
  705MOL0     O95041   8.099   6.758  10.143 -0.0194  0.1596 -0.0180
  705MOL0     C95042   8.183   6.674  10.177 -0.5790 -0.6595 -0.6471
  705MOL0     O95043   8.316   6.685  10.161 -0.0173  0.1293  0.0774
  705MOL0     C95044   8.364   6.815  10.127 -0.4135 -0.0863 -0.5400
  705MOL0     C95045   8.417   6.837   9.998  0.1610  0.5406  0.3874
  705MOL0     C95046   8.478   6.955   9.967  0.5681  0.1290 -0.9283
  705MOL0     C95047   8.488   7.060  10.056  0.1453 -0.7231  0.1857
  705MOL0     O95048   8.534   7.191  10.029 -0.4442  0.0453  1.2257
  705MOL0     C95049   8.609   7.222   9.906 -0.1291  0.0744 -0.3539
  705MOL0     C95050   8.706   7.345   9.931 -0.1606 -1.0873 -0.8521
  705MOL0     C95051   8.821   7.357   9.827  0.4232  0.3415 -0.0361
  705MOL0     C95052   8.869   7.499   9.820  0.1423 -0.5218 -0.7566
  705MOL0     C95053   8.991   7.535   9.737  0.2523  0.8201 -0.7374
  705MOL0     C95054   8.975   7.613   9.606 -0.3980  0.1196 -0.5147
  705MOL0     C95055   9.092   7.610   9.512 -0.3345  0.0083 -0.3216
  705MOL0     C95056   9.222   7.658   9.573 -0.5397  0.9204  0.1378
  705MOL0     N95057   9.311   7.537   9.593  0.4265  0.6502  1.1960
  705MOL0     C95058   9.314   7.448   9.698 -0.5811 -0.0464 -0.1043
  705MOL0     C95059   9.421   7.358   9.677 -0.2201 -0.4131  0.6765
  705MOL0     C95060   9.458   7.236   9.758 -0.5236  0.3951 -0.3198
  705MOL0     C95061   9.373   7.119   9.721  0.1593  0.7736 -1.2136
  705MOL0     C95062   9.227   7.137   9.761  1.1708  0.8515 -0.0993
  705MOL0     C95063   9.139   7.016   9.723 -0.6444  0.1355 -0.9157
  705MOL0     O95064   9.004   7.057   9.742  0.5891 -0.5635 -0.3560
  705MOL0     C95065   8.928   6.945   9.736 -0.2181  0.0263  0.3061
  705MOL0     C95066   8.927   6.865   9.847  0.2605  0.0380 -0.1866
  705MOL0     C95067   8.845   6.749   9.855 -0.0934 -0.2150  0.0223
  705MOL0     C95068   8.838   6.677   9.992  0.4826  0.7618 -0.3216
  705MOL0     C95069   8.746   6.726   9.755 -0.4829 -0.1870  0.0310
  705MOL0     C95070   8.642   6.615   9.761  0.0552 -0.7408  0.7164
  705MOL0     O95071   8.534   6.647   9.676 -0.5433 -0.0054 -0.4120
  705MOL0     C95072   8.416   6.570   9.700 -0.7716  0.3223  0.5157
  705MOL0     C95073   8.343   6.548   9.578  0.7239 -0.5699 -0.4271
  705MOL0     C95074   8.226   6.476   9.570  0.3737  0.4591 -0.6594
  705MOL0     C95075   8.169   6.416   9.694  0.1035  0.1783  0.3177
  705MOL0     O95076   8.054   6.344   9.708 -0.8974 -0.1779 -0.4870
  705MOL0     C95077   7.974   6.304   9.592 -0.5480  0.3034 -0.8633
  705MOL0     C95078   7.973   6.146   9.589 -0.7076 -1.2753  0.2549
  705MOL0     C95079   7.860   6.090   9.685 -0.1808  0.8435  0.5338
  705MOL0     C95080   7.895   5.951   9.746  0.2312  0.7116 -0.3400
  705MOL0     C95081   7.785   5.850   9.738 -0.7326 -0.6938 -0.7121
  705MOL0     C95082   7.667   5.908   9.818  0.3000 -0.0623  0.3111
  705MOL0     C95083   7.558   5.808   9.876 -0.5466  0.0709  0.1383
  705MOL0     C95084   7.512   5.719   9.758 -0.2709 -0.1672 -1.0796
  705MOL0    Cl95085   7.369   5.626   9.818 -0.2530  0.5376 -0.1935
  705MOL0     C95086   8.229   6.445   9.814  0.6783 -0.2317 -0.6423
  705MOL0     C95087   8.349   6.522   9.821  0.3449  0.2397  0.0516
  705MOL0     O95088   8.659   6.519   9.837 -0.2834  0.3333  0.6156
  705MOL0     C95089   8.739   6.812   9.644  0.6891 -0.2563  0.2282
  705MOL0     C95090   8.832   6.918   9.632 -0.3086 -0.7009 -0.7700
  705MOL0     N95091   9.466   7.389   9.543  1.0478  0.1569 -0.3225
  705MOL0     N95092   9.408   7.493   9.500 -0.1178 -0.1282 -1.0028
  705MOL0     C95093   8.434   7.043  10.180  0.6565  1.2037  1.1937
  705MOL0     C95094   8.374   6.921  10.218  0.8768  0.5586 -0.9483
  705MOL0     C95095   8.125   6.544  10.212  0.2014  0.1008 -0.1846
  705MOL0     C95096   8.005   6.502  10.156  0.4271 -0.4334 -0.5089
  705MOL0     C95097   7.951   6.383  10.193  0.8896 -0.8077  0.3120
  705MOL0     C95098   8.026   6.288  10.264  0.2639 -0.7309  0.4127
  705MOL0     O95099   7.984   6.164  10.305 -0.6497 -0.2272 -0.5757
  705MOL0     C95100   7.851   6.112  10.269  0.3837  0.2103  0.2896
  705MOL0     C95101   7.822   5.968  10.325  0.5004  0.1640  0.4021
  705MOL0     C95102   7.942   5.862  10.304  0.7197  0.0229  0.4568
  705MOL0     C95103   7.968   5.864  10.158  0.8454 -1.7627  0.0954
  705MOL0     C95104   8.068   5.765  10.125 -0.1099 -0.1737  0.1463
  705MOL0     C95105   8.149   5.691  10.081 -0.2906  0.0220 -0.6431
  705MOL0     C95106   8.154   6.320  10.313  0.8997  0.7312  0.4359
  705MOL0     C95107   8.207   6.450  10.284 -0.0475 -0.2441 -0.7719
  705MOL0     H95108   8.403   6.769   9.915 -0.8767 -0.3353  1.2372
  705MOL0     H95109   8.524   6.965   9.869 -1.7167 -0.3618 -2.1123
  705MOL0     H95110   8.680   7.142   9.881  3.9226  3.3047 -0.2505
  705MOL0     H95111   8.534   7.251   9.832 -1.9161  1.9458  2.0194
  705MOL0     H95112   8.645   7.436   9.925  1.3780  0.2173  1.7936
  705MOL0     H95113   8.744   7.340  10.033 -0.9020  2.9154 -0.2269
  705MOL0     H95114   8.902   7.291   9.858  1.0848  0.3905 -1.6029
  705MOL0     H95115   8.791   7.335   9.725  0.6138  1.8884 -0.4474
  705MOL0     H95116   8.789   7.572   9.803  0.9473  0.4435 -0.5291
  705MOL0     H95117   8.886   7.520   9.926 -2.2413 -0.4330 -0.3401
  705MOL0     H95118   9.072   7.574   9.800  0.1165 -3.0686  2.2096
  705MOL0     H95119   9.022   7.439   9.694 -0.3068  0.4906 -0.4215
  705MOL0     H95120   8.891   7.571   9.549 -2.5564  1.6049  1.3687
  705MOL0     H95121   8.950   7.717   9.631  0.6214  0.1759  0.3175
  705MOL0     H95122   9.100   7.515   9.458  0.9933  1.5661 -3.1000
  705MOL0     H95123   9.076   7.669   9.422 -0.5660 -4.1224 -3.2819
  705MOL0     H95124   9.199   7.711   9.666  0.3115  1.5545  0.0023
  705MOL0     H95125   9.279   7.718   9.502  4.5982  0.9543  3.7272
  705MOL0     H95126   9.266   7.456   9.796  2.1376  1.3021  1.2314
  705MOL0     H95127   9.564   7.218   9.737 -0.4477  0.9254 -0.4004
  705MOL0     H95128   9.467   7.251   9.866  2.3993  1.6108 -0.6374
  705MOL0     H95129   9.411   7.030   9.772  0.1878  1.8754  0.7840
  705MOL0     H95130   9.378   7.100   9.613  1.8467  0.1179 -1.0498
  705MOL0     H95131   9.183   7.221   9.707 -0.2301  1.0128  1.2234
  705MOL0     H95132   9.204   7.138   9.868 -1.9076 -2.6123 -0.5162
  705MOL0     H95133   9.171   6.931   9.784 -3.6663  1.3156  2.7315
  705MOL0     H95134   9.164   7.001   9.618  2.7062 -1.5894 -0.0301
  705MOL0     H95135   8.993   6.901   9.925  2.2902 -2.6179 -0.5230
  705MOL0     H95136   8.864   6.735  10.081 -0.4676 -1.2409  1.3493
  705MOL0     H95137   8.731   6.658  10.008  0.6343 -1.6814 -1.5941
  705MOL0     H95138   8.896   6.584   9.989  0.5267  0.6884  1.6559
  705MOL0     H95139   8.384   6.591   9.487  1.4964  1.4105  0.7945
  705MOL0     H95140   8.172   6.478   9.476 -1.5846 -1.6962  0.3192
  705MOL0     H95141   7.877   6.356   9.593  0.0202  1.4333 -1.9546
  705MOL0     H95142   8.023   6.338   9.500  1.2894 -1.2603 -0.5258
  705MOL0     H95143   7.959   6.116   9.485 -0.8046 -0.7809  0.1204
  705MOL0     H95144   8.071   6.107   9.616 -0.6330 -0.7510  0.7705
  705MOL0     H95145   7.776   6.077   9.616  1.4220  2.1241 -1.8458
  705MOL0     H95146   7.837   6.149   9.774  0.4540 -1.2036  2.1412
  705MOL0     H95147   7.986   5.904   9.707 -0.8900  1.1804 -3.9313
  705MOL0     H95148   7.905   5.983   9.850 -2.5675  0.3687  0.1013
  705MOL0     H95149   7.807   5.753   9.784 -0.0216 -0.7619 -1.1770
  705MOL0     H95150   7.767   5.838   9.631  1.5387 -0.2029 -1.1938
  705MOL0     H95151   7.716   5.950   9.906  1.1221  1.8932 -0.9994
  705MOL0     H95152   7.617   5.983   9.756  3.2435  1.1918 -0.7430
  705MOL0     H95153   7.480   5.876   9.910 -0.1111  1.1575 -0.9513
  705MOL0     H95154   7.607   5.747   9.952  0.8089  1.6151  0.5493
  705MOL0     H95155   7.593   5.662   9.712  0.8715  0.1173  0.5080
  705MOL0     H95156   7.461   5.783   9.685  1.4431  0.4251 -1.8101
  705MOL0     H95157   8.179   6.403   9.901  1.4563 -1.4689 -0.7670
  705MOL0     H95158   8.399   6.525   9.917  1.1598 -1.9146 -0.2399
  705MOL0     H95159   8.672   6.810   9.558 -0.4067  3.0607  0.8672
  705MOL0     H95160   8.828   6.991   9.553 -1.7835  2.0970  1.6895
  705MOL0     H95161   8.427   7.130  10.245 -1.0309  0.5071  2.0251
  705MOL0     H95162   8.346   6.898  10.320 -1.6729  0.0185 -1.6936
  705MOL0     H95163   7.941   6.562  10.092  1.6112 -1.3272 -2.6621
  705MOL0     H95164   7.861   6.349  10.142  0.7416  0.3290 -0.2025
  705MOL0     H95165   7.771   6.176  10.308 -1.9809 -2.7055  0.5612
  705MOL0     H95166   7.829   6.115  10.162 -1.0053 -1.2822  0.4851
  705MOL0     H95167   7.731   5.927  10.280  1.0450  0.4994 -1.0709
  705MOL0     H95168   7.793   5.970  10.430 -2.3527 -0.1328 -0.3082
  705MOL0     H95169   7.903   5.762  10.320  1.5210 -0.2697  0.6342
  705MOL0     H95170   8.032   5.870  10.366  0.5262  0.1203  0.7234
  705MOL0     H95171   8.000   5.964  10.129 -2.3881 -0.5057  0.4403
  705MOL0     H95172   7.877   5.843  10.101  0.8292  1.2191 -1.1652
  705MOL0     H95173   8.217   5.622  10.037  1.4526  1.8436 -0.9630
  705MOL0     H95174   8.209   6.253  10.378 -0.9958  1.9772  3.5563
  705MOL0     H95175   8.303   6.476  10.328 -1.0918  0.5543  1.1758
  706MOL0     O95176  10.851   9.206   4.387  0.2672 -1.2125  0.3078
  706MOL0     C95177  10.864   9.126   4.293  1.2781  0.3630  0.5118
  706MOL0     O95178  10.930   9.138   4.179  0.4292  0.0317  0.3542
  706MOL0     C95179  10.979   9.257   4.140  0.5723  0.7116  0.5584
  706MOL0     C95180  10.903   9.370   4.131 -0.0894 -0.2625  0.7602
  706MOL0     C95181  10.966   9.496   4.096 -0.1851  0.4404 -0.4050
  706MOL0     C95182  11.095   9.498   4.055  0.8104  0.2320  0.0144
  706MOL0     O95183  11.158   9.613   4.009  0.5510  0.0363  0.8276
  706MOL0     C95184  11.117   9.731   4.085  0.0267 -0.4150 -0.2127
  706MOL0     C95185  11.237   9.825   4.103 -0.1483 -0.1724 -0.1843
  706MOL0     C95186  11.350   9.763   4.178  0.3134 -0.0224  0.2377
  706MOL0     C95187  11.479   9.853   4.160  1.0438  0.7875  0.3306
  706MOL0     C95188  11.608   9.814   4.230 -0.2350  0.0023  0.5522
  706MOL0     C95189  11.721   9.920   4.215 -0.5362  0.2646  0.2526
  706MOL0     C95190  11.832   9.866   4.297 -0.1311 -0.2888 -0.6950
  706MOL0     C95191  11.940   9.977   4.300 -0.5332 -0.2122 -0.1014
  706MOL0     N95192  12.062   9.935   4.375 -0.9379 -0.1533  0.1233
  706MOL0     C95193  12.072   9.920   4.510  0.0386 -0.7708 -0.4207
  706MOL0     C95194  12.204   9.880   4.520  0.4888 -0.2548 -0.0606
  706MOL0     C95195  12.279   9.822   4.633 -0.9939 -1.4133 -0.0639
  706MOL0     C95196  12.296   9.930   4.744  0.3571  0.2179 -0.4505
  706MOL0     C95197  12.408  10.029   4.704 -0.5612 -0.2786  0.0741
  706MOL0     C95198  12.450  10.117   4.831 -0.9364  0.0711 -0.0715
  706MOL0     O95199  12.563  10.053   4.892 -1.2893  0.1563  0.1494
  706MOL0     C95200  12.623  10.099   5.006  0.4340  1.1085 -0.1759
  706MOL0     C95201  12.619  10.230   5.050 -0.3233  1.1482 -0.0004
  706MOL0     C95202  12.702  10.261   5.159  0.3002 -0.9572 -0.5305
  706MOL0     C95203  12.711  10.410   5.187  0.8106  0.1357 -0.1730
  706MOL0     C95204  12.779  10.165   5.241 -0.1318  0.4222  0.1076
  706MOL0     C95205  12.880  10.192   5.342 -0.2658  0.3613 -0.5362
  706MOL0     O95206  12.954  10.089   5.372 -0.8005 -0.7533 -0.4419
  706MOL0     C95207  13.017  10.090   5.495 -0.1065 -0.3162 -0.4145
  706MOL0     C95208  13.147  10.041   5.498  0.7374 -0.2286  0.5002
  706MOL0     C95209  13.217  10.034   5.619 -0.1594  0.1708 -0.7485
  706MOL0     C95210  13.156  10.085   5.741  0.0882  1.0032 -0.2891
  706MOL0     O95211  13.225  10.078   5.865 -0.2218 -0.0901 -0.1690
  706MOL0     C95212  13.323   9.969   5.895 -1.2075 -0.1119  0.2448
  706MOL0     C95213  13.377   9.964   6.039 -1.1578 -0.2176  0.1154
  706MOL0     C95214  13.260   9.914   6.126  0.3111  0.2068  0.1711
  706MOL0     C95215  13.308   9.898   6.275 -0.8757  1.2441  0.3997
  706MOL0     C95216  13.197   9.837   6.364  0.4782 -0.4315 -0.4638
  706MOL0     C95217  13.186   9.681   6.377  0.2218 -0.5609  0.3639
  706MOL0     C95218  13.075   9.630   6.468  1.2005  0.1275  0.1745
  706MOL0     C95219  12.959   9.561   6.382 -0.6220  0.4535 -0.0844
  706MOL0    Cl95220  12.883   9.429   6.478  0.5312 -0.6076  0.2444
  706MOL0     C95221  13.027  10.125   5.738 -0.1975 -0.1376 -0.0458
  706MOL0     C95222  12.965  10.144   5.616 -0.3052 -0.0270 -0.1986
  706MOL0     O95223  12.890  10.304   5.395  0.1308  0.7566  0.2694
  706MOL0     C95224  12.768  10.033   5.193  0.2044 -0.0902  0.3998
  706MOL0     C95225  12.692  10.001   5.087 -0.6357 -0.9048  0.7836
  706MOL0     N95226  12.268   9.873   4.403  0.0974 -0.0537 -0.0214
  706MOL0     N95227  12.184   9.898   4.314 -0.3241  0.5346 -0.0690
  706MOL0     C95228  11.169   9.382   4.049 -0.1343  0.4385  0.0029
  706MOL0     C95229  11.107   9.257   4.099  0.1610  0.4960 -0.2309
  706MOL0     C95230  10.798   8.988   4.317  0.1362  0.9819 -0.2589
  706MOL0     C95231  10.817   8.873   4.238  0.5788  0.3729 -0.2634
  706MOL0     C95232  10.772   8.748   4.282  0.3088  0.1543  0.1225
  706MOL0     C95233  10.696   8.728   4.391  0.1894 -0.9089  0.1298
  706MOL0     O95234  10.669   8.599   4.423 -0.1617 -0.2345 -0.1579
  706MOL0     C95235  10.673   8.568   4.564 -0.3808 -0.6138  0.4542
  706MOL0     C95236  10.810   8.613   4.637  0.0258  0.0807 -0.0689
  706MOL0     C95237  10.941   8.584   4.568  0.5233  0.1476 -0.0928
  706MOL0     C95238  10.959   8.431   4.528  1.0012  0.2232 -0.3011
  706MOL0     C95239  11.092   8.388   4.503 -0.0569  0.1438  0.1154
  706MOL0     C95240  11.214   8.372   4.488  0.6369 -0.0796  0.9685
  706MOL0     C95241  10.651   8.840   4.461 -0.7508 -0.4207 -0.0455
  706MOL0     C95242  10.695   8.973   4.419 -0.2945 -0.2041  0.5947
  706MOL0     H95243  10.800   9.384   4.162 -0.8204 -2.7106 -0.2876
  706MOL0     H95244  10.898   9.580   4.102  0.1239  0.6326  4.6749
  706MOL0     H95245  11.049   9.788   4.022  2.0772  1.6184 -0.7445
  706MOL0     H95246  11.061   9.714   4.177 -0.7911  2.5004 -0.0455
  706MOL0     H95247  11.267   9.856   4.003  2.0167  0.5978  0.6530
  706MOL0     H95248  11.203   9.915   4.155  3.0698  2.0939 -1.6698
  706MOL0     H95249  11.321   9.754   4.283 -1.5414 -1.4732 -0.3364
  706MOL0     H95250  11.377   9.668   4.131 -1.6595  0.9004 -3.0815
  706MOL0     H95251  11.488   9.858   4.051  0.6380  1.5838  0.3266
  706MOL0     H95252  11.451   9.955   4.185 -1.1369  0.4708 -0.6197
  706MOL0     H95253  11.577   9.799   4.333 -1.5818 -3.6517 -0.2573
  706MOL0     H95254  11.649   9.717   4.201  2.0206  0.9565  0.3715
  706MOL0     H95255  11.743   9.944   4.111  0.6565  6.5337  1.5449
  706MOL0     H95256  11.690  10.019   4.249  3.4149  1.5555  0.5640
  706MOL0     H95257  11.794   9.828   4.392  0.2055  0.7440 -0.1301
  706MOL0     H95258  11.875   9.776   4.252  2.4816  1.5787 -2.2298
  706MOL0     H95259  11.891  10.066   4.340  0.8015  0.6169 -0.2498
  706MOL0     H95260  11.973  10.004   4.199  0.2149  1.5004  0.5719
  706MOL0     H95261  12.005   9.914   4.595  0.7604  1.3322  0.3605
  706MOL0     H95262  12.220   9.738   4.671  3.2379 -5.5440 -1.7084
  706MOL0     H95263  12.379   9.785   4.609  0.9975  3.0002  0.3741
  706MOL0     H95264  12.326   9.886   4.839 -0.7717 -0.1862 -0.2661
  706MOL0     H95265  12.200   9.982   4.757  1.0653  0.9041  3.0293
  706MOL0     H95266  12.363  10.096   4.630  0.5673 -0.8480 -1.1550
  706MOL0     H95267  12.499   9.982   4.667  0.7436  3.0939 -1.3670
  706MOL0     H95268  12.367  10.132   4.900 -2.3103  1.6761 -1.9702
  706MOL0     H95269  12.483  10.217   4.801 -1.4975  0.0629 -0.7274
  706MOL0     H95270  12.563  10.305   4.996 -1.5462 -0.5889 -1.2528
  706MOL0     H95271  12.623  10.473   5.169 -0.2860 -0.2999  3.0146
  706MOL0     H95272  12.721  10.423   5.295  2.8649  2.1202 -0.5411
  706MOL0     H95273  12.798  10.455   5.139 -0.5007  1.2825 -1.5886
  706MOL0     H95274  13.199  10.009   5.409 -0.7648 -1.4312  0.0038
  706MOL0     H95275  13.319   9.998   5.616 -0.5321 -0.8840 -1.4886
  706MOL0     H95276  13.268   9.879   5.869 -0.1051 -0.7192 -0.0463
  706MOL0     H95277  13.403   9.983   5.821  0.2565 -0.7139  1.6558
  706MOL0     H95278  13.466   9.900   6.048 -0.3206  1.0265  1.0225
  706MOL0     H95279  13.397  10.066   6.071 -3.1656 -0.7215  3.4408
  706MOL0     H95280  13.219   9.822   6.084  5.2738 -1.1340 -2.5369
  706MOL0     H95281  13.180   9.988   6.120  2.3395  2.5964  0.8596
  706MOL0     H95282  13.398   9.837   6.286 -0.3189  1.7873 -0.9115
  706MOL0     H95283  13.321   9.998   6.317 -0.7710  1.1130  0.6810
  706MOL0     H95284  13.103   9.872   6.321  0.7007 -0.7786 -1.2638
  706MOL0     H95285  13.210   9.861   6.470  0.2297 -0.2639 -0.4711
  706MOL0     H95286  13.197   9.617   6.289 -0.0936 -1.6281  1.0883
  706MOL0     H95287  13.281   9.668   6.430 -1.4650 -0.3931  3.6824
  706MOL0     H95288  13.039   9.723   6.515  1.0517  0.4785 -0.6083
  706MOL0     H95289  13.127   9.562   6.536 -0.0890 -0.4685  0.5917
  706MOL0     H95290  13.002   9.520   6.290  0.4746  1.6320 -0.1292
  706MOL0     H95291  12.884   9.634   6.351  0.6191  1.6879 -0.2847
  706MOL0     H95292  12.970  10.150   5.827  1.0460  0.7122  0.5411
  706MOL0     H95293  12.868  10.190   5.634  0.1881  1.1305 -0.4527
  706MOL0     H95294  12.817   9.950   5.243  0.2391  1.9232  4.1094
  706MOL0     H95295  12.691   9.898   5.052 -1.4512  0.1140 -2.6384
  706MOL0     H95296  11.273   9.396   4.022 -0.0824  3.2782  1.3436
  706MOL0     H95297  11.162   9.163   4.087 -1.4672 -0.6671  0.9897
  706MOL0     H95298  10.876   8.893   4.149  0.0622  1.1432 -0.4398
  706MOL0     H95299  10.788   8.663   4.216 -2.4974 -2.4966  2.5423
  706MOL0     H95300  10.593   8.611   4.625  0.9645 -1.9754  3.3833
  706MOL0     H95301  10.653   8.462   4.585 -0.4981 -0.6389  0.2261
  706MOL0     H95302  10.802   8.571   4.738  1.8943  1.0969  0.5531
  706MOL0     H95303  10.821   8.721   4.653  0.8649 -0.2304  1.6574
  706MOL0     H95304  11.030   8.618   4.621 -0.2634  0.8389  0.8268
  706MOL0     H95305  10.944   8.634   4.471 -2.7732  2.0938  0.6451
  706MOL0     H95306  10.918   8.403   4.431  1.0885 -0.1927 -0.2188
  706MOL0     H95307  10.912   8.371   4.606 -0.5293 -2.9945 -3.4377
  706MOL0     H95308  11.318   8.353   4.470  1.4471  1.6898  3.2372
  706MOL0     H95309  10.579   8.850   4.541 -2.2187  1.2221 -1.4757
  706MOL0     H95310  10.669   9.063   4.473 -0.0487  0.3899 -0.2593
  707MOL0     O95311   3.163  11.168   8.620 -0.4359 -0.0113 -0.6773
  707MOL0     C95312   3.208  11.239   8.711 -0.2019 -0.3113 -0.4951
  707MOL0     O95313   3.251  11.371   8.690  0.1097  0.7160 -0.7403
  707MOL0     C95314   3.213  11.445   8.583  0.5513 -0.7615  0.1936
  707MOL0     C95315   3.195  11.580   8.608 -0.5564 -0.4909  0.1883
  707MOL0     C95316   3.170  11.674   8.509 -0.2167  0.1732  1.3722
  707MOL0     C95317   3.137  11.633   8.374  0.8658 -0.0500 -0.0394
  707MOL0     O95318   3.097  11.712   8.263 -0.7262  0.3919  0.1270
  707MOL0     C95319   3.019  11.829   8.300  0.6705 -0.0214 -0.6401
  707MOL0     C95320   3.049  11.952   8.207  0.3660 -0.9182  0.5220
  707MOL0     C95321   2.939  12.063   8.222  0.1973  0.5615  0.5261
  707MOL0     C95322   2.803  12.025   8.153  0.2233 -0.3513 -0.3756
  707MOL0     C95323   2.698  12.132   8.132 -0.7129 -0.7996 -0.0328
  707MOL0     C95324   2.606  12.101   8.021 -0.0379 -1.1427  0.6741
  707MOL0     C95325   2.507  12.215   8.006  0.6136  0.1681  0.4290
  707MOL0     C95326   2.398  12.172   7.896 -0.0051  0.6739 -0.4297
  707MOL0     N95327   2.325  12.290   7.849 -0.2781 -0.1638 -0.5115
  707MOL0     C95328   2.297  12.305   7.718  0.1189  0.8710  1.2015
  707MOL0     C95329   2.223  12.427   7.730  0.7674  0.3905  1.8513
  707MOL0     C95330   2.162  12.507   7.614 -0.1614  0.4083 -0.2572
  707MOL0     C95331   2.018  12.482   7.591 -0.2463  0.7567  0.3429
  707MOL0     C95332   1.983  12.334   7.561  1.3381 -0.3549  0.4340
  707MOL0     C95333   1.836  12.334   7.521 -0.3845 -0.0677 -0.0424
  707MOL0     O95334   1.813  12.384   7.389 -0.3965 -0.1574 -0.5820
  707MOL0     C95335   1.678  12.393   7.364 -1.1325 -0.6459 -0.3186
  707MOL0     C95336   1.586  12.475   7.435  0.3616 -0.2904  0.1828
  707MOL0     C95337   1.456  12.490   7.389 -0.6385  0.2700  0.7137
  707MOL0     C95338   1.382  12.598   7.460 -0.7523  0.2120  0.3084
  707MOL0     C95339   1.419  12.420   7.277 -0.3774  0.1562  0.5691
  707MOL0     C95340   1.284  12.427   7.223  1.1979  0.0520  0.0877
  707MOL0     O95341   1.188  12.475   7.308 -0.1332  0.0752 -1.0072
  707MOL0     C95342   1.055  12.478   7.262  0.5996  0.8254  0.2464
  707MOL0     C95343   1.004  12.605   7.218 -0.2424  0.4477  0.6228
  707MOL0     C95344   0.875  12.622   7.176  0.5769  0.1091 -0.6897
  707MOL0     C95345   0.786  12.509   7.178  0.8862 -0.3107 -0.2902
  707MOL0     O95346   0.659  12.510   7.133 -0.7284 -0.2724 -0.5443
  707MOL0     C95347   0.589  12.631   7.088 -0.2860 -0.4172  0.7875
  707MOL0     C95348   0.503  12.572   6.970 -0.1641  0.5383 -0.2231
  707MOL0     C95349   0.408  12.670   6.921  0.9451 -0.5940 -1.2365
  707MOL0     C95350   0.467  12.785   6.831  0.9397 -0.3469  0.0120
  707MOL0     C95351   0.363  12.882   6.781 -0.0125  0.3388 -0.2610
  707MOL0     C95352   0.427  13.001   6.715  0.6030 -0.6092  0.1248
  707MOL0     C95353   0.361  13.116   6.632 -0.6602 -0.4247  0.2386
  707MOL0     C95354   0.460  13.237   6.613 -0.6590 -0.1014 -0.1502
  707MOL0    Cl95355   0.382  13.357   6.506  0.1170 -0.3193  0.4101
  707MOL0     C95356   0.833  12.382   7.221 -0.8041 -0.0074  0.6053
  707MOL0     C95357   0.963  12.368   7.256  0.6996  0.4484 -1.0058
  707MOL0     O95358   1.253  12.377   7.116 -0.4148 -0.1759  0.2101
  707MOL0     C95359   1.507  12.337   7.201  0.3251 -0.7159  0.6481
  707MOL0     C95360   1.645  12.330   7.243  0.5598 -1.7331 -0.2915
  707MOL0     N95361   2.206  12.464   7.861 -0.1101 -0.9564  0.7813
  707MOL0     N95362   2.268  12.385   7.937 -0.6000  0.6273 -0.3539
  707MOL0     C95363   3.133  11.500   8.358 -0.4847  0.7668 -0.0827
  707MOL0     C95364   3.184  11.410   8.453 -0.0150  0.3494  0.6859
  707MOL0     C95365   3.208  11.179   8.845 -0.3082 -0.5857 -0.4706
  707MOL0     C95366   3.264  11.238   8.962  0.1943  0.5546 -0.3771
  707MOL0     C95367   3.256  11.173   9.080  1.1346  0.4996 -0.5326
  707MOL0     C95368   3.203  11.044   9.102 -1.1152  0.1837  0.1156
  707MOL0     O95369   3.186  10.987   9.221  0.2172 -0.4467 -0.1472
  707MOL0     C95370   3.259  11.039   9.339 -0.5937  0.4398  0.2476
  707MOL0     C95371   3.197  11.164   9.408  0.4810 -0.2790 -0.6521
  707MOL0     C95372   3.303  11.243   9.499  0.1030  0.1913  0.2501
  707MOL0     C95373   3.390  11.327   9.407  0.3868 -0.3834 -0.9697
  707MOL0     C95374   3.448  11.425   9.504 -0.2600  1.0694 -0.1434
  707MOL0     C95375   3.496  11.491   9.589 -0.2262 -0.6525 -0.4738
  707MOL0     C95376   3.162  10.974   8.987 -0.4266 -0.1220  1.0736
  707MOL0     C95377   3.154  11.050   8.859 -0.7147 -0.1289  0.7040
  707MOL0     H95378   3.210  11.612   8.710 -1.2699  2.4380 -0.5392
  707MOL0     H95379   3.171  11.782   8.520  2.1292  0.6480 -1.9593
  707MOL0     H95380   2.914  11.801   8.285  0.2301  1.1958  0.0106
  707MOL0     H95381   3.026  11.868   8.402 -2.0362  5.1164 -2.0817
  707MOL0     H95382   3.143  12.004   8.224 -0.5030  0.5314  1.1366
  707MOL0     H95383   3.046  11.914   8.104 -3.2630  2.1599 -0.7672
  707MOL0     H95384   2.930  12.099   8.325  1.3085  0.4017  0.6967
  707MOL0     H95385   2.983  12.142   8.160 -0.1057  1.1759  1.0760
  707MOL0     H95386   2.815  11.991   8.050 -1.4475 -1.0150 -0.3743
  707MOL0     H95387   2.755  11.944   8.209 -2.9489  1.6038 -0.0153
  707MOL0     H95388   2.638  12.140   8.223 -1.0462 -0.6253 -0.2677
  707MOL0     H95389   2.739  12.231   8.114  1.0410 -1.3451  0.6995
  707MOL0     H95390   2.650  12.094   7.921 -3.5019 -2.6474 -0.9231
  707MOL0     H95391   2.558  12.002   8.025  0.9922 -1.7497 -0.8812
  707MOL0     H95392   2.470  12.242   8.105 -2.2959 -2.4195  0.2159
  707MOL0     H95393   2.560  12.301   7.964 -1.3827  1.0926 -0.3262
  707MOL0     H95394   2.323  12.105   7.939  0.9863  0.1438  0.5071
  707MOL0     H95395   2.442  12.113   7.815 -0.9726 -0.6084 -0.0513
  707MOL0     H95396   2.323  12.245   7.631  2.2655  0.4368  2.0913
  707MOL0     H95397   2.176  12.612   7.643 -0.9891 -0.0314  1.9548
  707MOL0     H95398   2.229  12.498   7.528 -1.4062 -0.9359 -1.1428
  707MOL0     H95399   1.967  12.539   7.514 -1.6111 -1.7442 -0.7299
  707MOL0     H95400   1.965  12.500   7.685 -0.4665 -0.7089  0.5227
  707MOL0     H95401   1.995  12.277   7.654  1.2224 -1.1268 -0.0183
  707MOL0     H95402   2.044  12.293   7.480 -0.3435  0.7342 -1.4724
  707MOL0     H95403   1.789  12.401   7.594 -0.2242 -0.1198  0.1086
  707MOL0     H95404   1.792  12.234   7.529  0.7261 -0.4631  1.6039
  707MOL0     H95405   1.617  12.533   7.521  1.1022 -1.2248  0.5712
  707MOL0     H95406   1.429  12.624   7.555  0.9479 -0.6193 -0.2727
  707MOL0     H95407   1.378  12.693   7.406 -1.7856  0.9053  1.5414
  707MOL0     H95408   1.280  12.565   7.483 -1.6998  0.7506 -2.6443
  707MOL0     H95409   1.071  12.691   7.218  0.0969  0.2470  3.1327
  707MOL0     H95410   0.847  12.717   7.132 -0.4108 -0.0970 -0.5458
  707MOL0     H95411   0.518  12.675   7.159 -1.6662 -1.0442 -0.1601
  707MOL0     H95412   0.653  12.707   7.042 -0.3659 -2.0375 -2.2630
  707MOL0     H95413   0.560  12.526   6.888 -1.1100  1.6887 -1.5833
  707MOL0     H95414   0.440  12.488   6.999 -0.2475 -0.4842 -3.0288
  707MOL0     H95415   0.355  12.720   7.003  1.9077 -0.4081 -0.7174
  707MOL0     H95416   0.343  12.611   6.855  0.7218 -0.3840 -1.2083
  707MOL0     H95417   0.541  12.836   6.893 -1.7899 -1.1112  4.3215
  707MOL0     H95418   0.516  12.740   6.744 -2.7686  0.1012 -2.5274
  707MOL0     H95419   0.311  12.908   6.873  1.1738 -2.8403  1.4377
  707MOL0     H95420   0.293  12.849   6.704 -1.6030  1.4450  0.6642
  707MOL0     H95421   0.494  13.044   6.790  0.6322  0.2708 -0.3918
  707MOL0     H95422   0.495  12.978   6.632  0.7255  3.4386 -1.0835
  707MOL0     H95423   0.274  13.151   6.688 -0.1041  2.3734 -0.5006
  707MOL0     H95424   0.327  13.077   6.536 -1.5041  0.3442  0.2161
  707MOL0     H95425   0.541  13.188   6.559 -1.3456 -0.0919 -1.2211
  707MOL0     H95426   0.490  13.290   6.704 -4.1170  2.4932 -0.2772
  707MOL0     H95427   0.761  12.302   7.231  0.5055 -2.0961 -4.0403
  707MOL0     H95428   0.983  12.270   7.299 -0.8948  0.1275 -0.9233
  707MOL0     H95429   1.481  12.264   7.125  0.4998 -1.2460  1.0911
  707MOL0     H95430   1.710  12.254   7.201 -0.5470 -4.0835  1.9772
  707MOL0     H95431   3.122  11.463   8.257  4.0838  2.5464 -1.4910
  707MOL0     H95432   3.188  11.308   8.417  2.2938  0.4127  0.6196
  707MOL0     H95433   3.305  11.337   8.946  3.3558 -0.9710 -2.9907
  707MOL0     H95434   3.292  11.221   9.171  4.1198  1.6247 -2.1677
  707MOL0     H95435   3.264  10.956   9.411  0.2153  1.1761  1.0695
  707MOL0     H95436   3.365  11.042   9.313 -1.1244  1.7136 -2.0163
  707MOL0     H95437   3.116  11.115   9.463  2.1968 -3.5938 -0.8115
  707MOL0     H95438   3.146  11.224   9.333 -2.9450 -2.8453 -0.6198
  707MOL0     H95439   3.357  11.189   9.578  1.3574 -2.4515 -2.2288
  707MOL0     H95440   3.241  11.314   9.555 -0.2040 -0.7111  1.0826
  707MOL0     H95441   3.320  11.388   9.349 -0.6857 -0.5153  0.1513
  707MOL0     H95442   3.466  11.267   9.355  1.0475 -2.6557  2.3008
  707MOL0     H95443   3.532  11.553   9.669 -1.8386  0.3581 -0.4835
  707MOL0     H95444   3.122  10.874   9.001 -0.4978 -0.2051  0.2938
  707MOL0     H95445   3.126  10.996   8.769 -3.5750  2.5131 -0.2036
  708MOL0     O95446   3.553  10.837  11.383 -0.7333  0.2905  0.1619
  708MOL0     C95447   3.585  10.835  11.264 -0.5830 -0.1903 -0.2593
  708MOL0     O95448   3.535  10.916  11.171  0.2780  0.0966  0.5411
  708MOL0     C95449   3.471  11.033  11.202  0.3795  0.3749  0.2723
  708MOL0     C95450   3.506  11.149  11.140 -0.4137  0.2437 -0.8979
  708MOL0     C95451   3.416  11.263  11.154 -0.4126  1.4275 -0.0370
  708MOL0     C95452   3.315  11.259  11.249 -0.7280 -0.4616 -0.4371
  708MOL0     O95453   3.239  11.364  11.279  0.6126 -0.2463 -0.3283
  708MOL0     C95454   3.288  11.451  11.385 -0.3964  0.7033  0.4658
  708MOL0     C95455   3.176  11.540  11.458 -0.2238  0.9399  0.9384
  708MOL0     C95456   3.246  11.628  11.556  0.2833 -0.1590 -1.4015
  708MOL0     C95457   3.150  11.726  11.627  0.6178  0.3329 -0.5416
  708MOL0     C95458   3.216  11.766  11.750 -0.4097 -0.9826  0.2094
  708MOL0     C95459   3.164  11.870  11.842 -0.5704 -0.2327  0.0513
  708MOL0     C95460   3.109  11.995  11.767  0.6637  0.6070 -0.4221
  708MOL0     C95461   3.104  12.116  11.861  0.6308 -0.0195 -0.3593
  708MOL0     N95462   3.135  12.244  11.802 -0.3975 -0.1077  0.2456
  708MOL0     C95463   3.101  12.288  11.677 -0.5960 -1.0856  0.1995
  708MOL0     C95464   3.150  12.414  11.664  0.0220 -0.0310 -1.0112
  708MOL0     C95465   3.150  12.494  11.539 -0.6179  0.8695 -0.0370
  708MOL0     C95466   3.224  12.623  11.553  0.3458  0.3111  0.5338
  708MOL0     C95467   3.254  12.681  11.413  0.3940 -0.0495 -0.0216
  708MOL0     C95468   3.150  12.792  11.380 -0.7861  0.7498 -0.2530
  708MOL0     O95469   3.161  12.915  11.460 -0.5704 -0.3611  0.0524
  708MOL0     C95470   3.054  13.000  11.437 -0.1102  0.9397  0.0050
  708MOL0     C95471   2.973  13.011  11.329 -0.0836  0.6535 -0.6126
  708MOL0     C95472   2.868  13.107  11.324  0.3456  0.2970 -0.4002
  708MOL0     C95473   2.777  13.109  11.208 -1.0969 -0.3798  0.4123
  708MOL0     C95474   2.860  13.193  11.435  0.1462  0.3798 -0.3858
  708MOL0     C95475   2.765  13.312  11.443 -0.1259 -1.0546  0.7946
  708MOL0     O95476   2.751  13.375  11.568  0.2309  0.9493  0.1708
  708MOL0     C95477   2.709  13.505  11.578 -0.2505  0.1057 -0.2135
  708MOL0     C95478   2.576  13.548  11.558 -0.1371 -0.4066  0.3327
  708MOL0     C95479   2.540  13.684  11.598 -0.5439  0.8419  0.8525
  708MOL0     C95480   2.638  13.772  11.628 -0.3316  0.2075 -0.2282
  708MOL0     O95481   2.615  13.911  11.654 -0.1061  0.4422 -0.1302
  708MOL0     C95482   2.505  13.970  11.591 -0.3412  0.0199 -0.5007
  708MOL0     C95483   2.521  13.972  11.438 -0.1438 -0.0313 -0.1424
  708MOL0     C95484   2.417  14.068  11.386  0.4913 -0.3277 -0.5160
  708MOL0     C95485   2.401  14.076  11.234 -0.2951  0.7849  0.3301
  708MOL0     C95486   2.288  14.170  11.185 -0.3425 -0.6774 -0.5149
  708MOL0     C95487   2.273  14.193  11.035  0.0929 -0.1270  0.6696
  708MOL0     C95488   2.148  14.289  11.017  0.1899 -0.0518 -1.2344
  708MOL0     C95489   2.195  14.433  10.995  0.4003 -0.1339  0.2899
  708MOL0    Cl95490   2.053  14.532  10.952 -0.2174  0.0780 -0.6333
  708MOL0     C95491   2.768  13.728  11.643 -0.6277 -0.3428 -0.1893
  708MOL0     C95492   2.801  13.595  11.633 -0.3449  0.1960 -0.1604
  708MOL0     O95493   2.711  13.351  11.341 -0.2668  0.1650 -0.6913
  708MOL0     C95494   2.937  13.176  11.543  0.1130 -0.1345 -0.2317
  708MOL0     C95495   3.037  13.086  11.546  0.8772 -0.5674 -0.2995
  708MOL0     N95496   3.207  12.450  11.783  1.0813 -0.4634  0.1271
  708MOL0     N95497   3.203  12.351  11.857 -0.0313  0.9529  0.3528
  708MOL0     C95498   3.271  11.139  11.307  0.0283 -0.7221 -0.1943
  708MOL0     C95499   3.354  11.032  11.285  0.1866  0.1995 -0.9230
  708MOL0     C95500   3.687  10.737  11.231 -0.8783 -0.6172 -0.0411
  708MOL0     C95501   3.761  10.751  11.112 -0.2996  0.1214 -0.0411
  708MOL0     C95502   3.846  10.646  11.073  0.1474  0.1202 -0.6282
  708MOL0     C95503   3.870  10.538  11.158  0.2282  0.7968  0.4832
  708MOL0     O95504   3.966  10.451  11.132  0.5724 -0.3143  0.3661
  708MOL0     C95505   4.042  10.465  11.014  0.1040 -0.7036  0.5260
  708MOL0     C95506   4.142  10.348  10.994 -0.0001 -0.6468 -0.1299
  708MOL0     C95507   4.070  10.210  10.982 -0.2521  0.5734 -0.4995
  708MOL0     C95508   4.117  10.107  10.874 -0.0507  0.1007  0.3120
  708MOL0     C95509   4.258  10.093  10.890  0.9050  0.5678 -0.0484
  708MOL0     C95510   4.379  10.093  10.900  0.7011  0.3645  0.6120
  708MOL0     C95511   3.810  10.532  11.288 -0.0439  0.0532  0.4067
  708MOL0     C95512   3.715  10.631  11.324  0.6564  0.8929 -0.0611
  708MOL0     H95513   3.581  11.168  11.065 -0.5688  0.2952 -1.0406
  708MOL0     H95514   3.461  11.351  11.110 -0.2447 -0.5481 -4.3592
  708MOL0     H95515   3.346  11.397  11.460  0.7487  1.1466 -0.0876
  708MOL0     H95516   3.351  11.525  11.336 -0.1555  1.2679  1.5805
  708MOL0     H95517   3.125  11.609  11.390  3.7141  1.6997 -1.5876
  708MOL0     H95518   3.114  11.473  11.518  0.4458 -4.9430 -3.9455
  708MOL0     H95519   3.300  11.559  11.621 -1.3414 -1.2861 -1.2032
  708MOL0     H95520   3.318  11.694  11.508  0.1008 -0.5650 -2.2380
  708MOL0     H95521   3.114  11.808  11.564 -0.2656 -0.2103 -0.7752
  708MOL0     H95522   3.060  11.672  11.658  0.8082  0.7876  0.8713
  708MOL0     H95523   3.234  11.675  11.808  1.7099 -0.1370  0.9602
  708MOL0     H95524   3.320  11.788  11.724  0.2566 -1.2705  2.4658
  708MOL0     H95525   3.092  11.818  11.906  1.0761  0.8367  2.9697
  708MOL0     H95526   3.241  11.897  11.915 -0.2363 -2.6067  0.6969
  708MOL0     H95527   3.174  12.009  11.680  1.6608 -3.3595 -0.5078
  708MOL0     H95528   3.010  11.962  11.733  0.9243 -1.2014  0.4039
  708MOL0     H95529   3.169  12.088  11.944 -1.4323  0.1593  1.3940
  708MOL0     H95530   3.003  12.115  11.902  0.7241 -1.1888 -0.1459
  708MOL0     H95531   3.067  12.233  11.590 -0.7429 -0.3528 -0.2167
  708MOL0     H95532   3.208  12.441  11.463 -1.2698  1.5152 -1.0025
  708MOL0     H95533   3.050  12.508  11.498  0.0711  1.0577 -1.7290
  708MOL0     H95534   3.317  12.612  11.610  1.2571  1.7558 -0.5739
  708MOL0     H95535   3.172  12.693  11.619 -0.6359 -0.3434  0.4765
  708MOL0     H95536   3.239  12.597  11.344 -1.4917 -1.2083  1.6859
  708MOL0     H95537   3.355  12.719  11.399 -0.6327  2.2062 -1.9821
  708MOL0     H95538   3.048  12.755  11.388 -0.3323 -0.4297  0.3000
  708MOL0     H95539   3.167  12.811  11.274  1.3988 -1.3337 -0.3794
  708MOL0     H95540   2.991  12.948  11.242 -0.4694  1.0898 -1.0090
  708MOL0     H95541   2.674  13.114  11.246 -0.0009 -0.8746  3.7054
  708MOL0     H95542   2.792  13.194  11.141 -1.1796 -0.6788  0.0052
  708MOL0     H95543   2.787  13.022  11.143 -3.3504 -0.5512  0.1916
  708MOL0     H95544   2.492  13.489  11.523 -1.2697  2.9364 -3.3551
  708MOL0     H95545   2.434  13.701  11.580 -1.4606 -2.6465  2.0884
  708MOL0     H95546   2.418  13.914  11.625  0.7993 -2.0008 -0.7370
  708MOL0     H95547   2.508  14.064  11.647  0.9954  0.4800 -1.2976
  708MOL0     H95548   2.622  13.995  11.403 -0.3447  1.6577  0.3078
  708MOL0     H95549   2.492  13.875  11.396 -2.2272  0.2792  0.4493
  708MOL0     H95550   2.444  14.169  11.419  2.4148 -0.6730 -0.9215
  708MOL0     H95551   2.322  14.039  11.432  0.3845  0.4691 -0.2083
  708MOL0     H95552   2.502  14.101  11.200  0.0055  0.0759  0.6779
  708MOL0     H95553   2.376  13.971  11.213 -0.3210 -0.3285  4.9930
  708MOL0     H95554   2.291  14.267  11.236 -0.7507  0.5805 -2.7754
  708MOL0     H95555   2.186  14.135  11.207  0.7809 -5.4016 -1.6964
  708MOL0     H95556   2.373  14.221  11.000  0.4506 -0.6112  1.2912
  708MOL0     H95557   2.264  14.096  10.985  3.1131  0.0218 -0.3845
  708MOL0     H95558   2.077  14.289  11.100  1.0265 -1.9710 -0.4657
  708MOL0     H95559   2.087  14.256  10.932 -2.4744  1.6667 -0.1404
  708MOL0     H95560   2.272  14.439  10.918  0.5361  0.9204  0.4979
  708MOL0     H95561   2.246  14.465  11.086 -0.0201  0.1628  0.4282
  708MOL0     H95562   2.851  13.789  11.677 -2.8185  3.2861 -0.8212
  708MOL0     H95563   2.897  13.562  11.670 -0.9011  0.0692  1.2257
  708MOL0     H95564   2.912  13.232  11.633 -1.0925 -2.8148  1.2168
  708MOL0     H95565   3.099  13.075  11.635  1.1295  1.1884 -0.2244
  708MOL0     H95566   3.183  11.142  11.371 -0.1482  0.5476 -0.4529
  708MOL0     H95567   3.329  10.935  11.327  0.8932  1.5861  3.1475
  708MOL0     H95568   3.739  10.840  11.053 -1.2048 -0.1501 -0.1258
  708MOL0     H95569   3.876  10.640  10.969 -0.5003  0.8857 -0.8656
  708MOL0     H95570   3.972  10.452  10.931 -1.5671 -2.1290  2.0814
  708MOL0     H95571   4.106  10.554  11.003  0.6254 -1.3093 -1.8065
  708MOL0     H95572   4.212  10.348  11.078  0.7440 -1.0516 -0.7297
  708MOL0     H95573   4.204  10.372  10.907 -0.1081  0.5609  0.1029
  708MOL0     H95574   3.961  10.210  10.979 -0.2759 -1.3119 -2.2215
  708MOL0     H95575   4.102  10.165  11.077  2.7163 -0.1354 -1.7256
  708MOL0     H95576   4.098  10.121  10.768  4.9307 -2.2744 -1.2217
  708MOL0     H95577   4.067  10.012  10.894 -0.9274  0.4039 -0.4015
  708MOL0     H95578   4.484  10.092  10.923  1.3661 -3.3494 -1.7610
  708MOL0     H95579   3.831  10.444  11.348  1.6533 -0.6198 -1.0766
  708MOL0     H95580   3.651  10.612  11.410  2.2110  0.1012  0.9634
  709MOL0     O95581   5.255   8.452   7.858 -0.6168  0.3925 -0.1476
  709MOL0     C95582   5.281   8.334   7.833 -0.6260  0.5929  0.0765
  709MOL0     O95583   5.254   8.235   7.918 -0.0939  0.5588  0.8936
  709MOL0     C95584   5.161   8.250   8.022  0.6613 -0.3631  0.6222
  709MOL0     C95585   5.023   8.246   8.000 -1.0398  0.0936  0.3784
  709MOL0     C95586   4.936   8.253   8.108 -0.7037  0.3915  0.1030
  709MOL0     C95587   4.979   8.277   8.240  0.1173 -0.6399  0.5851
  709MOL0     O95588   4.898   8.310   8.337  0.5617  0.6538  0.3894
  709MOL0     C95589   4.878   8.456   8.364 -0.2164  0.9052  0.7850
  709MOL0     C95590   4.954   8.531   8.472  0.2822  0.6444  0.4645
  709MOL0     C95591   5.002   8.456   8.594  0.6217  0.4160 -0.2311
  709MOL0     C95592   4.896   8.422   8.700 -1.3191  0.5197  0.5014
  709MOL0     C95593   4.969   8.365   8.828 -0.2283  0.0054 -0.1158
  709MOL0     C95594   5.011   8.218   8.820  0.0541 -0.5994  0.2187
  709MOL0     C95595   5.104   8.182   8.929  0.2827 -0.5029 -0.7271
  709MOL0     C95596   5.158   8.047   8.897  0.4947  0.6629  0.2970
  709MOL0     N95597   5.190   7.986   9.020  0.7534  0.0113 -1.3255
  709MOL0     C95598   5.111   7.901   9.085 -0.2863 -0.3188  0.0859
  709MOL0     C95599   5.151   7.876   9.207  0.7529  0.0256 -0.2819
  709MOL0     C95600   5.102   7.772   9.306  0.2188 -0.6331 -0.1295
  709MOL0     C95601   4.998   7.823   9.407 -0.8462  0.1463 -0.6121
  709MOL0     C95602   4.859   7.862   9.369  0.9301 -0.4017  0.5716
  709MOL0     C95603   4.769   7.908   9.485 -0.9987 -1.2856 -0.2154
  709MOL0     O95604   4.676   8.005   9.450  0.2814 -0.3073 -0.8125
  709MOL0     C95605   4.549   7.975   9.404 -1.1311 -0.2135 -0.4237
  709MOL0     C95606   4.500   7.848   9.364  0.0296  1.1381 -0.3919
  709MOL0     C95607   4.383   7.822   9.296  0.5619 -0.1053  1.2420
  709MOL0     C95608   4.360   7.684   9.243  0.6673  0.1754  0.7611
  709MOL0     C95609   4.313   7.936   9.256  0.6760  0.3890 -0.4561
  709MOL0     C95610   4.195   7.921   9.170 -0.1207  0.6831 -0.6192
  709MOL0     O95611   4.201   7.995   9.063 -0.4448  0.5296  0.4240
  709MOL0     C95612   4.097   7.998   8.978  0.2785  0.5411  0.0496
  709MOL0     C95613   4.130   7.981   8.840  0.1400 -0.1101 -0.1013
  709MOL0     C95614   4.037   7.967   8.742  0.2834  1.1220 -0.0266
  709MOL0     C95615   3.895   7.963   8.780 -0.1734 -0.3721  0.3614
  709MOL0     O95616   3.791   7.966   8.698  0.2082 -1.1247  0.5600
  709MOL0     C95617   3.821   7.905   8.566  0.1304  0.6260  0.5293
  709MOL0     C95618   3.698   7.858   8.486 -0.5437  0.3986  0.3515
  709MOL0     C95619   3.744   7.805   8.352  0.4491  0.3164 -0.3499
  709MOL0     C95620   3.832   7.681   8.350 -0.1179 -0.0835 -0.9232
  709MOL0     C95621   3.837   7.619   8.208 -0.2650  0.4950  0.2593
  709MOL0     C95622   3.841   7.725   8.094 -0.2640 -0.4588  0.5007
  709MOL0     C95623   3.877   7.657   7.951 -0.2169 -0.2105  0.2673
  709MOL0     C95624   3.794   7.705   7.838 -0.4466 -0.2656 -0.2459
  709MOL0    Cl95625   3.825   7.876   7.814  0.3701  0.0802  0.2906
  709MOL0     C95626   3.854   7.992   8.917  0.8047 -0.4731  0.2384
  709MOL0     C95627   3.958   8.017   9.003  0.1283  0.0325 -0.7055
  709MOL0     O95628   4.115   7.835   9.203  0.5046 -0.2081 -0.3964
  709MOL0     C95629   4.355   8.059   9.289 -0.1607 -0.3724 -0.7374
  709MOL0     C95630   4.464   8.083   9.377 -0.3434  0.5805  0.1937
  709MOL0     N95631   5.275   7.943   9.215 -0.9140 -0.1670 -0.1550
  709MOL0     N95632   5.294   8.011   9.103 -0.8814 -0.3184 -0.3303
  709MOL0     C95633   5.123   8.273   8.259  0.5735  0.3077 -0.1700
  709MOL0     C95634   5.214   8.250   8.152  1.0731  0.8772 -0.4344
  709MOL0     C95635   5.362   8.292   7.714  0.2249  0.4261 -0.2325
  709MOL0     C95636   5.402   8.155   7.691 -0.1313 -1.0672 -0.3129
  709MOL0     C95637   5.492   8.131   7.587  0.1401 -0.2924 -1.0251
  709MOL0     C95638   5.527   8.227   7.500  0.3788  0.3281 -0.3380
  709MOL0     O95639   5.616   8.204   7.396 -0.7156  1.2998 -0.6654
  709MOL0     C95640   5.759   8.173   7.442  0.6873 -1.0754  0.5658
  709MOL0     C95641   5.845   8.109   7.323  0.6290  0.9688 -0.5315
  709MOL0     C95642   5.771   7.987   7.273 -0.0067  0.7493 -1.4444
  709MOL0     C95643   5.869   7.896   7.183  0.0322 -0.1283  0.5648
  709MOL0     C95644   5.891   7.963   7.062 -0.2184  0.3105  0.3110
  709MOL0     C95645   5.912   8.030   6.959 -1.1465  0.3766  0.7602
  709MOL0     C95646   5.478   8.357   7.510 -1.1062  0.2161 -1.1838
  709MOL0     C95647   5.393   8.389   7.618 -0.9208 -0.2257  0.3950
  709MOL0     H95648   4.973   8.221   7.906 -0.4282 -2.0574  0.5711
  709MOL0     H95649   4.833   8.257   8.074 -0.7107 -2.9340 -0.6133
  709MOL0     H95650   4.903   8.503   8.268 -3.0314  1.3862  0.2080
  709MOL0     H95651   4.771   8.473   8.377 -0.9307 -2.4820  0.1521
  709MOL0     H95652   5.045   8.559   8.417  0.4953 -1.3835 -0.2730
  709MOL0     H95653   4.898   8.622   8.497 -0.8260  1.2945 -3.5410
  709MOL0     H95654   5.056   8.361   8.585 -0.3701 -0.6289  3.2823
  709MOL0     H95655   5.080   8.521   8.634 -1.2005  1.3111  2.0815
  709MOL0     H95656   4.832   8.504   8.735 -1.8721  0.1653  0.3418
  709MOL0     H95657   4.833   8.348   8.650  1.5026 -0.5499 -1.7575
  709MOL0     H95658   5.046   8.439   8.852 -3.5723  3.3548  1.3024
  709MOL0     H95659   4.904   8.374   8.916 -1.9466 -0.3005 -1.3058
  709MOL0     H95660   4.924   8.152   8.817 -0.1210 -0.5397  2.2261
  709MOL0     H95661   5.053   8.216   8.719  2.7439  1.9097  1.1481
  709MOL0     H95662   5.189   8.247   8.950 -1.3451  1.1793  1.0000
  709MOL0     H95663   5.046   8.180   9.022  3.2375  0.1625  1.2430
  709MOL0     H95664   5.239   8.055   8.824 -2.0091 -0.6448 -2.9186
  709MOL0     H95665   5.089   7.992   8.832  1.4618 -1.3291  0.8759
  709MOL0     H95666   5.022   7.857   9.041  0.9569 -2.9891  0.0141
  709MOL0     H95667   5.054   7.687   9.257 -0.0373  0.0090 -1.0153
  709MOL0     H95668   5.193   7.728   9.349  0.8373  0.1385 -0.6037
  709MOL0     H95669   5.045   7.908   9.458  1.0371  0.0240 -2.0241
  709MOL0     H95670   4.987   7.743   9.480 -0.1230  1.3763  0.9068
  709MOL0     H95671   4.800   7.776   9.335  3.0483 -1.0297 -1.8526
  709MOL0     H95672   4.860   7.926   9.280  0.9121  0.8244  1.4348
  709MOL0     H95673   4.838   7.957   9.554 -0.5923 -2.5763  0.3363
  709MOL0     H95674   4.715   7.826   9.535 -0.9025 -1.4067 -0.3087
  709MOL0     H95675   4.555   7.760   9.392 -3.8653 -0.5637  2.9215
  709MOL0     H95676   4.269   7.646   9.289 -0.5904  0.5691 -1.2441
  709MOL0     H95677   4.340   7.685   9.135 -2.7785 -0.2159  1.2814
  709MOL0     H95678   4.444   7.614   9.243  0.6679  0.1084 -1.2355
  709MOL0     H95679   4.237   7.978   8.823  0.0442  1.5172 -1.2342
  709MOL0     H95680   4.067   7.950   8.639 -1.4280  0.4586 -0.4621
  709MOL0     H95681   3.853   7.989   8.504 -1.7449  0.4194 -0.8044
  709MOL0     H95682   3.895   7.826   8.578  2.5943  2.5691 -0.9217
  709MOL0     H95683   3.642   7.783   8.544 -0.5107  1.3943  1.7283
  709MOL0     H95684   3.631   7.943   8.473 -2.6010 -1.1047  0.6218
  709MOL0     H95685   3.801   7.887   8.309 -0.8761  2.4083  1.6463
  709MOL0     H95686   3.657   7.796   8.286  1.1524  0.6443 -1.3372
  709MOL0     H95687   3.935   7.713   8.370 -1.2446  3.6996 -0.4943
  709MOL0     H95688   3.798   7.607   8.422 -0.0794  0.4427 -0.3575
  709MOL0     H95689   3.745   7.560   8.203  0.4703 -0.7320  0.8037
  709MOL0     H95690   3.924   7.553   8.195 -0.0185  1.2813 -2.8961
  709MOL0     H95691   3.744   7.772   8.083  0.2633  0.2421 -1.4254
  709MOL0     H95692   3.916   7.797   8.128  2.4000 -2.2174 -1.2107
  709MOL0     H95693   3.860   7.550   7.963 -2.8627  0.3169  2.2864
  709MOL0     H95694   3.984   7.668   7.931 -0.6654  1.8941 -1.4165
  709MOL0     H95695   3.688   7.690   7.860 -0.3961 -1.0846 -0.5359
  709MOL0     H95696   3.834   7.657   7.749 -0.2985  1.4261 -1.1237
  709MOL0     H95697   3.749   7.999   8.944 -1.5471  1.5473 -7.1000
  709MOL0     H95698   3.929   8.045   9.103  0.8121 -0.7506 -0.2738
  709MOL0     H95699   4.304   8.150   9.259 -1.2864 -1.1381 -1.2546
  709MOL0     H95700   4.496   8.185   9.394  2.4969  0.0055 -1.0353
  709MOL0     H95701   5.172   8.313   8.347  0.4511  1.2855 -0.5348
  709MOL0     H95702   5.322   8.242   8.150  0.9412 -2.3185 -2.9961
  709MOL0     H95703   5.363   8.083   7.762 -0.9623 -1.4004 -1.0850
  709MOL0     H95704   5.530   8.032   7.560  5.1022  1.3002 -0.8991
  709MOL0     H95705   5.814   8.263   7.473 -1.1445  0.3419 -0.0861
  709MOL0     H95706   5.753   8.122   7.539 -1.7673 -0.6437  0.7081
  709MOL0     H95707   5.945   8.071   7.344  0.0844 -1.0375 -1.3227
  709MOL0     H95708   5.865   8.179   7.242 -2.9215  1.7497 -0.8861
  709MOL0     H95709   5.690   8.014   7.205 -2.6480  1.1067  1.6335
  709MOL0     H95710   5.728   7.926   7.352 -0.0418  2.3933 -0.1429
  709MOL0     H95711   5.823   7.797   7.175  0.5068 -0.2959 -0.1721
  709MOL0     H95712   5.968   7.884   7.229  0.0239 -1.3261  0.2946
  709MOL0     H95713   5.941   8.087   6.873 -2.5915  1.0695  0.7109
  709MOL0     H95714   5.504   8.438   7.443 -4.8516  2.3479 -0.3693
  709MOL0     H95715   5.352   8.489   7.626 -1.2596 -0.3067 -0.2458
  710MOL0     O95716   1.994   2.377   3.902 -0.5654  0.0754 -0.3098
  710MOL0     C95717   2.072   2.407   3.816  0.9589  0.6584 -0.6333
  710MOL0     O95718   2.088   2.329   3.702  0.6764 -0.1281 -0.2063
  710MOL0     C95719   2.037   2.208   3.658 -1.2052  1.4983 -0.2535
  710MOL0     C95720   2.032   2.203   3.517  0.2298  0.4228  0.2376
  710MOL0     C95721   1.968   2.094   3.458 -0.6204 -0.1049  0.8656
  710MOL0     C95722   1.919   1.988   3.540  0.0871  0.6714 -0.0504
  710MOL0     O95723   1.853   1.885   3.472 -0.1105 -1.0480 -0.1514
  710MOL0     C95724   1.715   1.908   3.453  0.5616  0.6237  0.5825
  710MOL0     C95725   1.660   1.820   3.330  0.2048  0.0104 -0.6167
  710MOL0     C95726   1.518   1.866   3.300  1.3615 -0.2045 -0.3807
  710MOL0     C95727   1.454   1.789   3.183 -0.3111 -0.5711  0.1227
  710MOL0     C95728   1.294   1.793   3.166  0.2229 -0.3464 -0.0977
  710MOL0     C95729   1.208   1.733   3.287  0.3845  0.6092 -0.4982
  710MOL0     C95730   1.259   1.591   3.325  0.9297 -0.1891 -0.4348
  710MOL0     C95731   1.152   1.498   3.357  0.3071  0.5560  1.1058
  710MOL0     N95732   1.197   1.356   3.360 -0.4341 -0.2440 -0.6266
  710MOL0     C95733   1.223   1.276   3.252  0.1968  0.2769  1.3086
  710MOL0     C95734   1.294   1.168   3.310  0.1652 -0.6068 -0.3174
  710MOL0     C95735   1.360   1.051   3.244 -0.0471  0.0785 -0.6986
  710MOL0     C95736   1.323   1.023   3.093  0.8398 -0.2729  0.0465
  710MOL0     C95737   1.419   0.908   3.041  0.3480 -1.0810 -0.7100
  710MOL0     C95738   1.385   0.858   2.902 -1.0899  0.1743 -0.2877
  710MOL0     O95739   1.384   0.962   2.813  0.3371 -0.4463 -0.4782
  710MOL0     C95740   1.504   1.019   2.765  0.7469 -0.6100 -0.1991
  710MOL0     C95741   1.491   1.120   2.671  0.6212 -0.2118 -0.1634
  710MOL0     C95742   1.602   1.202   2.628 -0.0676 -0.8036 -0.3267
  710MOL0     C95743   1.576   1.292   2.517  1.3460  0.1520 -0.3459
  710MOL0     C95744   1.730   1.163   2.662 -0.9439  0.2919 -0.3199
  710MOL0     C95745   1.848   1.241   2.634  0.5067 -0.6549 -0.1338
  710MOL0     O95746   1.840   1.375   2.623 -0.4355  0.8267 -0.5566
  710MOL0     C95747   1.944   1.464   2.580  0.7807  0.1351  0.3081
  710MOL0     C95748   1.910   1.587   2.515 -0.0237  0.8061  0.1451
  710MOL0     C95749   2.007   1.670   2.463 -1.4218 -0.3676 -0.0364
  710MOL0     C95750   2.138   1.641   2.487 -0.5412 -0.1755 -0.4118
  710MOL0     O95751   2.235   1.719   2.423 -0.2028  0.3586  0.4797
  710MOL0     C95752   2.296   1.807   2.519  0.5627 -0.8657  0.0528
  710MOL0     C95753   2.237   1.945   2.534  0.0514 -0.5759 -0.0274
  710MOL0     C95754   2.208   2.005   2.392 -0.5612 -0.4066 -0.0424
  710MOL0     C95755   2.098   2.116   2.409 -0.9774 -0.7263  0.0309
  710MOL0     C95756   2.103   2.206   2.285  0.5445 -0.6391  0.1205
  710MOL0     C95757   1.960   2.259   2.258 -0.1261  0.2793 -0.6192
  710MOL0     C95758   1.938   2.329   2.129 -0.2328 -0.1911 -0.8787
  710MOL0     C95759   1.838   2.442   2.132 -0.0433  0.0206  0.8303
  710MOL0    Cl95760   1.712   2.423   2.260  0.3566  0.5881  0.3831
  710MOL0     C95761   2.176   1.525   2.546  0.2080  0.7053 -1.4188
  710MOL0     C95762   2.076   1.436   2.599 -0.2330 -0.7033  0.1724
  710MOL0     O95763   1.952   1.178   2.624 -0.1416  0.5478 -0.1366
  710MOL0     C95764   1.741   1.053   2.752  0.4718 -0.6847  0.5570
  710MOL0     C95765   1.635   0.984   2.796  0.5354 -0.0401  0.3352
  710MOL0     N95766   1.301   1.186   3.449 -1.2523 -0.2151 -0.7927
  710MOL0     N95767   1.236   1.293   3.473  0.8061  0.8230 -0.5390
  710MOL0     C95768   1.948   1.981   3.683  1.4470 -0.6562  0.5423
  710MOL0     C95769   1.997   2.098   3.736  0.0374 -0.0099 -0.2170
  710MOL0     C95770   2.172   2.519   3.853 -0.5284 -0.2330  1.0878
  710MOL0     C95771   2.151   2.603   3.969 -0.3571 -0.3922 -0.2855
  710MOL0     C95772   2.242   2.699   4.004 -0.6067 -0.4957 -0.0032
  710MOL0     C95773   2.366   2.694   3.943 -1.4432 -0.2695 -0.7362
  710MOL0     O95774   2.479   2.757   3.986 -0.0280 -0.0027 -0.2013
  710MOL0     C95775   2.471   2.844   4.105 -0.0802 -0.9872  0.0453
  710MOL0     C95776   2.563   2.794   4.215  0.8498 -0.3980  0.1200
  710MOL0     C95777   2.483   2.702   4.306 -0.0665 -0.2965  1.3311
  710MOL0     C95778   2.579   2.619   4.394 -1.1188 -0.2043  0.2145
  710MOL0     C95779   2.629   2.501   4.320 -0.6429  0.6420  0.3776
  710MOL0     C95780   2.675   2.412   4.245 -0.4136 -0.0921 -0.6824
  710MOL0     C95781   2.378   2.634   3.812  1.1862 -0.5250 -0.0729
  710MOL0     C95782   2.278   2.547   3.767  0.8238 -0.2534 -0.1353
  710MOL0     H95783   2.084   2.282   3.463 -1.2141 -1.3722 -4.2542
  710MOL0     H95784   1.955   2.081   3.351 -3.1139  3.1360  0.6165
  710MOL0     H95785   1.664   1.882   3.546  0.9011  3.3961  1.6237
  710MOL0     H95786   1.693   2.014   3.435 -2.9859  0.2704  2.0593
  710MOL0     H95787   1.719   1.835   3.239 -0.4737  1.2405 -0.8737
  710MOL0     H95788   1.658   1.716   3.366  1.6960  0.1904  0.0974
  710MOL0     H95789   1.458   1.857   3.391  0.0664  0.1302 -1.1742
  710MOL0     H95790   1.532   1.972   3.278 -1.4020  0.3924  0.3842
  710MOL0     H95791   1.498   1.831   3.092  1.4605 -0.2793  1.0737
  710MOL0     H95792   1.494   1.687   3.187  1.2574  0.0677  1.8265
  710MOL0     H95793   1.282   1.901   3.158  0.0596 -0.4902 -3.6441
  710MOL0     H95794   1.268   1.755   3.066 -3.0756  0.9556  0.1402
  710MOL0     H95795   1.225   1.795   3.375 -1.0058  0.3499 -0.0237
  710MOL0     H95796   1.101   1.725   3.263  0.2089  1.7061 -0.1381
  710MOL0     H95797   1.312   1.550   3.238  2.1874 -2.0097  1.1223
  710MOL0     H95798   1.338   1.593   3.400  0.3375 -3.2687  0.4209
  710MOL0     H95799   1.080   1.517   3.277 -1.6770  2.0018  3.1196
  710MOL0     H95800   1.114   1.532   3.453  1.1750  4.1716  0.3293
  710MOL0     H95801   1.187   1.300   3.152 -1.5510  1.6522  2.2148
  710MOL0     H95802   1.466   1.075   3.256 -0.0101  1.0059 -2.6753
  710MOL0     H95803   1.349   0.962   3.308  1.1157  0.8955  0.7163
  710MOL0     H95804   1.353   1.117   3.046 -0.3042  0.6048  1.0016
  710MOL0     H95805   1.219   1.004   3.065  1.1353  0.8669 -1.9657
  710MOL0     H95806   1.393   0.824   3.106  3.4192 -1.2484  0.5065
  710MOL0     H95807   1.518   0.948   3.066 -0.1786  1.2499 -2.0085
  710MOL0     H95808   1.294   0.797   2.905 -0.6879 -0.4790 -0.9906
  710MOL0     H95809   1.468   0.790   2.881  0.7430  2.3472 -0.4255
  710MOL0     H95810   1.392   1.150   2.638 -0.3833 -1.4893  1.5228
  710MOL0     H95811   1.597   1.397   2.540 -0.3598  0.0881  1.7651
  710MOL0     H95812   1.643   1.263   2.436  1.4413  1.1014 -0.6171
  710MOL0     H95813   1.473   1.274   2.487  0.5445 -0.0955  2.2741
  710MOL0     H95814   1.809   1.627   2.506 -1.2897 -2.2071 -0.3197
  710MOL0     H95815   1.994   1.761   2.406 -0.0152 -0.4878 -0.5744
  710MOL0     H95816   2.318   1.758   2.614 -1.3856 -0.9506  0.4947
  710MOL0     H95817   2.394   1.828   2.475 -0.0353 -1.8712 -1.8278
  710MOL0     H95818   2.154   1.945   2.605  0.1216  0.7351  0.0810
  710MOL0     H95819   2.303   2.017   2.582  0.3765 -1.3215  0.6548
  710MOL0     H95820   2.171   1.933   2.319  1.0423 -0.7476 -0.5600
  710MOL0     H95821   2.292   2.061   2.350 -0.7812 -1.5017 -2.0316
  710MOL0     H95822   1.998   2.073   2.413 -2.0597  1.5085 -0.8392
  710MOL0     H95823   2.108   2.176   2.500 -1.6763  1.5084 -1.2603
  710MOL0     H95824   2.141   2.157   2.195 -0.0331  1.6283 -1.4697
  710MOL0     H95825   2.167   2.289   2.317 -1.3108  0.5131  1.0975
  710MOL0     H95826   1.881   2.182   2.255  0.5048 -0.3779 -0.6413
  710MOL0     H95827   1.949   2.326   2.343 -1.0064 -3.3825  2.4727
  710MOL0     H95828   1.921   2.259   2.046  0.8500  0.0448 -1.3075
  710MOL0     H95829   2.036   2.361   2.092 -0.0162 -0.0513 -0.1941
  710MOL0     H95830   1.788   2.440   2.035 -0.0041  2.1371  0.7130
  710MOL0     H95831   1.889   2.539   2.143 -0.9679  0.9100 -1.8731
  710MOL0     H95832   2.281   1.503   2.560 -0.6679 -2.2129  1.8754
  710MOL0     H95833   2.112   1.356   2.663  1.7579 -1.4954 -1.8265
  710MOL0     H95834   1.835   1.031   2.801  1.1128  0.7846  0.0596
  710MOL0     H95835   1.645   0.908   2.872 -0.1563 -1.4739 -0.9577
  710MOL0     H95836   1.925   1.905   3.757  2.5293 -0.8648  0.6858
  710MOL0     H95837   1.997   2.104   3.845  1.0227 -0.0249 -0.2057
  710MOL0     H95838   2.058   2.606   4.024 -1.1216  1.5720 -1.5556
  710MOL0     H95839   2.231   2.769   4.086  2.4849  1.7907 -1.3896
  710MOL0     H95840   2.511   2.944   4.088 -1.1493 -0.6663 -0.6474
  710MOL0     H95841   2.374   2.875   4.143  0.0960  0.4201 -0.6135
  710MOL0     H95842   2.585   2.890   4.262 -3.8178  1.0802 -0.1416
  710MOL0     H95843   2.653   2.745   4.177  1.0124  1.8731 -2.7287
  710MOL0     H95844   2.417   2.630   4.257 -0.0569  1.7827 -2.0711
  710MOL0     H95845   2.415   2.764   4.365 -0.0402  1.6680 -0.6018
  710MOL0     H95846   2.532   2.596   4.491 -2.5373 -1.0411 -0.6188
  710MOL0     H95847   2.667   2.682   4.405  0.2716 -1.9024 -0.6420
  710MOL0     H95848   2.704   2.323   4.194  3.1650 -0.6472  1.9180
  710MOL0     H95849   2.467   2.659   3.755  1.1004  2.3796  0.9004
  710MOL0     H95850   2.277   2.482   3.680 -1.9497 -2.8361  1.6234
  711MOL0     O95851   8.418   0.051   8.173 -0.8592  0.1573  0.3731
  711MOL0     C95852   8.540   0.070   8.176  0.2066 -0.2538  0.2757
  711MOL0     O95853   8.632  -0.019   8.219  0.2057 -0.0440 -0.1066
  711MOL0     C95854   8.600  -0.142   8.267 -0.0030  0.0967 -0.3099
  711MOL0     C95855   8.625  -0.258   8.191 -0.4396  0.5957 -1.0301
  711MOL0     C95856   8.601  -0.381   8.244 -0.6466  0.5407  0.5232
  711MOL0     C95857   8.552  -0.396   8.370 -0.2707 -0.3971 -0.4939
  711MOL0     O95858   8.551  -0.524   8.420  0.2453 -0.3748 -0.0864
  711MOL0     C95859   8.442  -0.568   8.501  0.1771 -1.2465  0.6282
  711MOL0     C95860   8.483  -0.578   8.651 -0.6313  0.9257  0.2256
  711MOL0     C95861   8.389  -0.645   8.752 -0.0449  0.0942 -0.1152
  711MOL0     C95862   8.386  -0.584   8.886  0.7705 -0.1381 -0.4009
  711MOL0     C95863   8.246  -0.604   8.956  0.6796  0.3732  0.0696
  711MOL0     C95864   8.185  -0.745   8.970 -0.2960 -0.7726  0.0307
  711MOL0     C95865   8.138  -0.788   9.105  0.1257  1.0411 -0.3657
  711MOL0     C95866   8.249  -0.826   9.206 -0.5213 -0.5551 -1.4740
  711MOL0     N95867   8.185  -0.888   9.321  0.1021  0.0932  0.6745
  711MOL0     C95868   8.115  -0.815   9.410  0.2233  0.3492 -0.8453
  711MOL0     C95869   8.061  -0.906   9.500 -0.3723 -0.4474 -0.1555
  711MOL0     C95870   8.000  -0.858   9.625  0.7170 -1.0626  0.8460
  711MOL0     C95871   8.075  -0.886   9.747 -0.2617  0.3209 -0.7280
  711MOL0     C95872   8.197  -0.781   9.767  1.1211  1.0171  0.6204
  711MOL0     C95873   8.327  -0.844   9.726 -0.1353  0.5509 -1.1831
  711MOL0     O95874   8.439  -0.754   9.753  0.5157 -0.7956 -0.1160
  711MOL0     C95875   8.486  -0.665   9.663 -0.2364 -0.3633  1.0863
  711MOL0     C95876   8.601  -0.580   9.683  0.1230  0.5149 -0.4047
  711MOL0     C95877   8.644  -0.484   9.602  0.2300 -0.7926  0.5641
  711MOL0     C95878   8.768  -0.406   9.644 -0.6475 -0.7809  0.3076
  711MOL0     C95879   8.568  -0.461   9.477 -1.1510 -0.1892  0.4525
  711MOL0     C95880   8.614  -0.357   9.381 -0.2229  0.3367  0.3159
  711MOL0     O95881   8.517  -0.319   9.290 -0.0924  0.0050  0.8143
  711MOL0     C95882   8.558  -0.246   9.180 -0.9875 -1.0445  0.3853
  711MOL0     C95883   8.596  -0.311   9.065 -0.4545 -0.0687 -0.8649
  711MOL0     C95884   8.643  -0.246   8.951  1.1508 -0.1308  0.2091
  711MOL0     C95885   8.670  -0.110   8.959 -0.6810  0.6637  0.5229
  711MOL0     O95886   8.746  -0.046   8.874 -0.4054 -0.7050  0.2974
  711MOL0     C95887   8.667   0.035   8.785  0.2066 -0.2982 -0.0153
  711MOL0     C95888   8.777   0.126   8.722 -0.0249  0.0811 -0.0505
  711MOL0     C95889   8.889   0.054   8.647 -0.3035  0.6161  0.1828
  711MOL0     C95890   8.842  -0.040   8.531 -0.3006  0.1680 -0.8858
  711MOL0     C95891   8.952  -0.090   8.454 -0.4784  0.0826  0.1552
  711MOL0     C95892   9.063  -0.164   8.522  0.2142 -0.9582  0.6191
  711MOL0     C95893   9.007  -0.274   8.605  0.9512  0.6664  0.6620
  711MOL0     C95894   9.123  -0.367   8.653 -0.0481 -0.1683 -0.1242
  711MOL0    Cl95895   9.255  -0.270   8.740  0.1688 -0.4957 -0.2389
  711MOL0     C95896   8.627  -0.042   9.076 -0.4719  0.0954  0.7879
  711MOL0     C95897   8.581  -0.105   9.188 -0.4094  0.5800  0.2796
  711MOL0     O95898   8.731  -0.323   9.374 -0.1759 -0.5462 -0.7916
  711MOL0     C95899   8.456  -0.542   9.454 -0.3059  0.7336 -0.8791
  711MOL0     C95900   8.412  -0.635   9.548 -0.5636 -0.7852  0.1559
  711MOL0     N95901   8.088  -1.036   9.451 -0.0255  0.0255 -0.3675
  711MOL0     N95902   8.178  -1.025   9.355  1.3238  0.3477 -0.1875
  711MOL0     C95903   8.524  -0.281   8.457  0.6659 -0.7615  0.0636
  711MOL0     C95904   8.545  -0.154   8.397 -0.3734 -0.2345  0.2663
  711MOL0     C95905   8.578   0.201   8.115 -0.5865  0.2361 -0.1920
  711MOL0     C95906   8.714   0.220   8.099  0.1663 -0.3046 -0.3281
  711MOL0     C95907   8.765   0.339   8.055  0.9278 -0.3967 -0.5044
  711MOL0     C95908   8.677   0.445   8.023 -0.6586  1.1873  1.2963
  711MOL0     O95909   8.709   0.576   7.990  0.2554  0.1797  0.3768
  711MOL0     C95910   8.846   0.629   8.002  0.5591 -0.5286 -0.4574
  711MOL0     C95911   8.932   0.585   7.885 -0.1009  0.6297 -0.5406
  711MOL0     C95912   8.869   0.631   7.750  0.0795  0.7620  0.4037
  711MOL0     C95913   8.943   0.583   7.614  0.9351  0.0671 -0.6488
  711MOL0     C95914   9.058   0.677   7.587  0.2052 -0.3251  0.6506
  711MOL0     C95915   9.139   0.768   7.561  0.7419  0.7983 -0.0743
  711MOL0     C95916   8.540   0.426   8.040  0.5720  0.4519  1.0829
  711MOL0     C95917   8.493   0.303   8.089 -0.0012 -1.1038  0.8676
  711MOL0     H95918   8.670  -0.248   8.093 -1.1326  0.9848 -1.3193
  711MOL0     H95919   8.633  -0.458   8.175  2.6738  0.5928  1.8325
  711MOL0     H95920   8.366  -0.491   8.491  0.7441 -0.9168 -1.9226
  711MOL0     H95921   8.402  -0.660   8.457 -2.9937  0.4655 -0.3333
  711MOL0     H95922   8.580  -0.627   8.658 -0.5227  0.6011 -2.4993
  711MOL0     H95923   8.486  -0.472   8.680  2.9709  1.0223 -0.0680
  711MOL0     H95924   8.287  -0.643   8.712 -0.6941  2.2986  1.4476
  711MOL0     H95925   8.418  -0.750   8.763  1.7428  0.4879 -0.7661
  711MOL0     H95926   8.467  -0.639   8.934 -0.6073 -1.4046  0.5683
  711MOL0     H95927   8.405  -0.476   8.882 -0.7915  0.4440  3.3141
  711MOL0     H95928   8.267  -0.559   9.054  0.7435 -0.4801  0.4547
  711MOL0     H95929   8.173  -0.546   8.898  1.7521  2.9045  1.0972
  711MOL0     H95930   8.105  -0.754   8.895 -0.1355  2.2146 -0.6418
  711MOL0     H95931   8.249  -0.825   8.932 -2.1073 -2.0777 -0.4133
  711MOL0     H95932   8.077  -0.706   9.144  1.1897  2.6455 -1.9394
  711MOL0     H95933   8.066  -0.870   9.100 -0.6270  1.6309  0.4459
  711MOL0     H95934   8.316  -0.741   9.225  0.6498 -1.6839 -0.3686
  711MOL0     H95935   8.312  -0.902   9.158  0.3351 -1.1616  0.5017
  711MOL0     H95936   8.120  -0.707   9.414 -1.8572  0.5644 -2.3589
  711MOL0     H95937   7.962  -0.757   9.606 -0.4584 -1.8875 -1.5485
  711MOL0     H95938   7.901  -0.904   9.635 -0.1608  0.5423 -0.0902
  711MOL0     H95939   8.121  -0.985   9.738 -0.5669  0.2941 -2.2788
  711MOL0     H95940   8.009  -0.878   9.834 -0.3813  0.7474 -0.8558
  711MOL0     H95941   8.207  -0.753   9.872  1.7782 -1.9200  1.4369
  711MOL0     H95942   8.189  -0.696   9.699  1.6682 -0.5481 -1.5275
  711MOL0     H95943   8.341  -0.883   9.625 -1.3679 -0.7100 -0.9023
  711MOL0     H95944   8.334  -0.931   9.791 -0.7504  0.2116 -1.5653
  711MOL0     H95945   8.659  -0.614   9.769 -0.3134  2.3904  0.6992
  711MOL0     H95946   8.805  -0.443   9.740 -1.6868 -0.9349  0.6546
  711MOL0     H95947   8.852  -0.414   9.573  0.0369 -1.1088  1.1322
  711MOL0     H95948   8.738  -0.302   9.661 -1.0522 -0.9297  0.5158
  711MOL0     H95949   8.565  -0.415   9.076 -1.2412  0.1374 -1.0731
  711MOL0     H95950   8.652  -0.288   8.852  0.4402  1.9578 -0.7958
  711MOL0     H95951   8.626  -0.039   8.715  2.0314  0.1445 -1.6505
  711MOL0     H95952   8.589   0.093   8.835  1.5269  1.6183 -0.0935
  711MOL0     H95953   8.723   0.195   8.656 -1.4255 -1.3142 -0.4292
  711MOL0     H95954   8.827   0.176   8.805  1.0808 -0.6579 -0.2531
  711MOL0     H95955   8.955  -0.009   8.707  0.4657 -0.3331 -1.5969
  711MOL0     H95956   8.954   0.127   8.599 -0.2915 -1.5215 -3.4157
  711MOL0     H95957   8.789  -0.125   8.573  0.6975 -1.7516 -3.2484
  711MOL0     H95958   8.766   0.006   8.467 -1.3459 -0.4966 -0.1560
  711MOL0     H95959   8.992   0.000   8.408  1.3456 -1.7648 -2.1249
  711MOL0     H95960   8.906  -0.161   8.385 -0.9510 -0.8199  1.3669
  711MOL0     H95961   9.133  -0.199   8.445  0.4189 -2.2999  1.3873
  711MOL0     H95962   9.114  -0.088   8.581 -1.7756  0.4796  0.5972
  711MOL0     H95963   8.926  -0.327   8.554  0.1642  0.8836  1.6669
  711MOL0     H95964   8.956  -0.235   8.693 -1.6440  1.0753 -0.9204
  711MOL0     H95965   9.171  -0.418   8.568 -2.6443 -1.5452 -0.8517
  711MOL0     H95966   9.099  -0.444   8.726  0.0278  1.0657  1.2406
  711MOL0     H95967   8.641   0.065   9.082 -0.1609  0.4808 -3.4885
  711MOL0     H95968   8.553  -0.044   9.274  0.6816  0.1494  0.9661
  711MOL0     H95969   8.395  -0.521   9.366 -1.8067 -3.1566 -0.9318
  711MOL0     H95970   8.327  -0.690   9.508  1.3887 -0.6253 -5.0651
  711MOL0     H95971   8.471  -0.282   8.552 -0.2822 -2.0755 -0.4404
  711MOL0     H95972   8.508  -0.061   8.439 -0.1504 -0.1959  0.3768
  711MOL0     H95973   8.788   0.146   8.131  2.2150  1.1618 -1.4220
  711MOL0     H95974   8.871   0.358   8.066  1.1230 -2.4202  1.8966
  711MOL0     H95975   8.837   0.738   7.995  0.9492 -0.5269 -0.9517
  711MOL0     H95976   8.889   0.612   8.101 -0.1162 -1.9342 -0.3793
  711MOL0     H95977   8.957   0.479   7.893 -1.3012  0.4782  1.6961
  711MOL0     H95978   9.028   0.637   7.891  0.2678 -0.2153  3.0082
  711MOL0     H95979   8.861   0.739   7.739  2.7511  1.2419  2.4578
  711MOL0     H95980   8.768   0.588   7.743  0.5168 -0.0938 -1.3003
  711MOL0     H95981   8.864   0.590   7.539  0.9834 -2.0667 -0.9389
  711MOL0     H95982   8.978   0.480   7.619 -2.3370 -1.2467 -2.3678
  711MOL0     H95983   9.201   0.855   7.574 -0.3122  1.4679  0.6900
  711MOL0     H95984   8.477   0.507   8.005  1.8014  0.2157 -2.0454
  711MOL0     H95985   8.385   0.290   8.094 -0.0452 -0.7117  1.0196
  712MOL0     O95986   2.114  10.518   0.748  0.4989 -0.2876  0.2394
  712MOL0     C95987   2.044  10.427   0.714  0.5787 -0.4590 -0.2238
  712MOL0     O95988   1.908  10.421   0.729  0.2385  0.2143 -0.6947
  712MOL0     C95989   1.838  10.534   0.766  1.2860 -0.2049 -0.2367
  712MOL0     C95990   1.878  10.673   0.767  0.4398  0.0259 -0.5835
  712MOL0     C95991   1.796  10.777   0.821 -0.7381 -0.0998  0.9590
  712MOL0     C95992   1.671  10.746   0.858 -0.5763 -0.1205  0.1042
  712MOL0     O95993   1.580  10.825   0.906 -0.1439 -0.2073 -0.3553
  712MOL0     C95994   1.558  10.962   0.841  0.4128  0.3669  0.3730
  712MOL0     C95995   1.457  11.032   0.924 -0.6217  0.1623 -0.5539
  712MOL0     C95996   1.335  10.941   0.926  1.0225  0.1413 -0.3218
  712MOL0     C95997   1.210  11.024   0.932  0.5168  0.0143 -0.7519
  712MOL0     C95998   1.083  10.949   0.903 -0.5301 -0.0079  0.3319
  712MOL0     C95999   1.013  10.867   1.008  0.6965  0.2028 -0.6214
  712MOL0     C96000   0.885  10.796   0.956  0.5644 -0.2559  0.2924
  712MOL0     C96001   0.780  10.897   0.923 -0.0657  0.0564  1.0486
  712MOL0     N96002   0.663  10.816   0.888  0.2776 -0.1390  0.1556
  712MOL0     C96003   0.601  10.731   0.979 -0.0513  0.0249 -0.1080
  712MOL0     C96004   0.548  10.631   0.897 -0.8619  0.1680  0.0625
  712MOL0     C96005   0.497  10.499   0.950  0.4581 -0.7378  0.4504
  712MOL0     C96006   0.393  10.429   0.851  0.8299  0.0251  0.8240
  712MOL0     C96007   0.253  10.489   0.846  0.3031  0.4939 -0.4749
  712MOL0     C96008   0.170  10.466   0.973 -0.0416 -0.6995 -0.2583
  712MOL0     O96009   0.139  10.329   0.984  0.0185  0.0380 -0.0586
  712MOL0     C96010   0.124  10.289   1.114  1.2301  0.7643  0.5913
  712MOL0     C96011  -0.005  10.303   1.165 -0.6877 -0.1693  0.7430
  712MOL0     C96012  -0.037  10.261   1.297 -0.1602  0.0918  1.3482
  712MOL0     C96013  -0.185  10.280   1.339  0.4349 -0.2374  0.1545
  712MOL0     C96014   0.064  10.205   1.378 -0.7028  0.2150 -0.5239
  712MOL0     C96015   0.043  10.161   1.516 -0.2171  0.4085 -1.2641
  712MOL0     O96016  -0.063  10.221   1.588  0.0745 -0.2060  0.5103
  712MOL0     C96017  -0.068  10.186   1.723 -0.3212 -0.2268  0.9747
  712MOL0     C96018  -0.150  10.087   1.778 -0.1064  0.4449  0.5616
  712MOL0     C96019  -0.156  10.055   1.919  0.1483  0.1535 -0.4579
  712MOL0     C96020  -0.070  10.134   2.004  0.2101  0.3202 -0.3488
  712MOL0     O96021  -0.072  10.131   2.141  0.2094 -0.5481  0.3102
  712MOL0     C96022  -0.200  10.122   2.197  0.6289 -0.1511 -0.4085
  712MOL0     C96023  -0.176  10.147   2.343  0.3586 -0.0090 -0.2477
  712MOL0     C96024  -0.302  10.154   2.421  0.5071  0.3637  0.4188
  712MOL0     C96025  -0.280  10.165   2.584  0.4841  0.0726  1.1697
  712MOL0     C96026  -0.187  10.077   2.668 -0.0164  0.9444  0.5401
  712MOL0     C96027  -0.220  10.058   2.817  0.2709  0.6395  0.7229
  712MOL0     C96028  -0.247  10.177   2.901  0.2598  0.7682 -0.7774
  712MOL0     C96029  -0.366  10.159   3.007  0.6220  0.3935  0.3225
  712MOL0    Cl96030  -0.519  10.134   2.912  0.6256  0.4068 -0.3049
  712MOL0     C96031   0.020  10.215   1.947 -1.5711 -0.2104  0.0350
  712MOL0     C96032   0.024  10.242   1.805  0.4418 -0.0674 -0.3954
  712MOL0     O96033   0.110  10.064   1.554 -0.1925  0.3324  0.7971
  712MOL0     C96034   0.195  10.206   1.327  0.2545  0.7639  0.6123
  712MOL0     C96035   0.222  10.250   1.195  0.1033  0.7684 -0.7786
  712MOL0     N96036   0.569  10.670   0.772  0.1416 -0.9492  0.2557
  712MOL0     N96037   0.634  10.775   0.764 -0.5437  0.0953 -0.3165
  712MOL0     C96038   1.628  10.614   0.868 -0.1155  0.5168  0.1447
  712MOL0     C96039   1.708  10.512   0.814  0.6744 -0.6492 -0.6443
  712MOL0     C96040   2.100  10.319   0.638  1.2271  0.0643  0.6086
  712MOL0     C96041   2.228  10.331   0.577 -0.6364  0.1735  0.8250
  712MOL0     C96042   2.285  10.224   0.500  0.6550 -0.0911  0.1165
  712MOL0     C96043   2.195  10.111   0.480  0.3309 -0.8733  0.8370
  712MOL0     O96044   2.241  10.007   0.410  0.1864  0.5408  0.0055
  712MOL0     C96045   2.270   9.884   0.482 -0.3757  0.6033  0.0855
  712MOL0     C96046   2.413   9.869   0.537  0.1881 -0.2100 -0.0727
  712MOL0     C96047   2.523   9.892   0.438 -0.4396  0.7192  0.2436
  712MOL0     C96048   2.663   9.860   0.500  0.9209  0.8207 -0.3191
  712MOL0     C96049   2.767   9.894   0.409 -0.2247  0.5266 -0.0610
  712MOL0     C96050   2.870   9.903   0.345 -0.0067  0.2483 -0.0886
  712MOL0     C96051   2.070  10.106   0.535 -0.0722  0.3938  0.1346
  712MOL0     C96052   2.020  10.206   0.616  0.0164 -0.8174 -0.3216
  712MOL0     H96053   1.971  10.716   0.732 -0.7207  0.9248 -2.7917
  712MOL0     H96054   1.836  10.877   0.840 -0.8102  0.5343 -1.8082
  712MOL0     H96055   1.642  11.032   0.836  0.6815 -0.0408 -2.7760
  712MOL0     H96056   1.530  10.957   0.735 -1.1289  1.8035  0.6629
  712MOL0     H96057   1.492  11.044   1.027 -2.4738  0.6345  0.0693
  712MOL0     H96058   1.442  11.133   0.885  1.7097  0.7534 -0.0529
  712MOL0     H96059   1.334  10.863   0.849 -2.7703 -2.3944  1.9248
  712MOL0     H96060   1.346  10.884   1.019 -1.2712  0.9461  0.5178
  712MOL0     H96061   1.203  11.074   1.030 -1.2032  1.2618 -1.4543
  712MOL0     H96062   1.208  11.098   0.851  3.3280  2.3190  1.0768
  712MOL0     H96063   1.022  11.036   0.876  0.9945  0.3310 -2.2941
  712MOL0     H96064   1.099  10.889   0.813  1.8609  2.1485 -0.7893
  712MOL0     H96065   1.087  10.800   1.052  1.6488  2.0131  0.6877
  712MOL0     H96066   0.974  10.928   1.091  1.1762 -0.5629  0.1795
  712MOL0     H96067   0.916  10.727   0.878  0.5690 -1.1915  1.0938
  712MOL0     H96068   0.851  10.728   1.035  2.2795 -2.2132 -0.5769
  712MOL0     H96069   0.805  10.974   0.851 -0.6013  1.2697  2.1241
  712MOL0     H96070   0.747  10.942   1.017 -5.7546  0.6055 -0.8085
  712MOL0     H96071   0.611  10.742   1.086 -0.7802 -0.5194  0.0254
  712MOL0     H96072   0.581  10.431   0.965  0.4899 -0.3260  2.4006
  712MOL0     H96073   0.454  10.507   1.050  1.5083 -1.3639  0.9703
  712MOL0     H96074   0.389  10.325   0.882  3.3434 -0.2104  0.5498
  712MOL0     H96075   0.437  10.432   0.751 -1.2331  2.3101 -0.1216
  712MOL0     H96076   0.209  10.446   0.755  5.0425 -1.8201 -2.0269
  712MOL0     H96077   0.265  10.595   0.821 -1.3542  0.7405 -0.3615
  712MOL0     H96078   0.082  10.529   0.955  1.7961  2.3310  0.7125
  712MOL0     H96079   0.223  10.505   1.060 -0.5831 -0.5231 -0.0056
  712MOL0     H96080  -0.084  10.329   1.095  2.5899 -1.5466 -3.9432
  712MOL0     H96081  -0.217  10.188   1.387  2.8515  0.1157  2.7225
  712MOL0     H96082  -0.202  10.372   1.396  2.7142  2.0596 -2.5085
  712MOL0     H96083  -0.246  10.297   1.250  2.9021  1.6618 -1.3249
  712MOL0     H96084  -0.218  10.037   1.710  1.4067  1.7341 -2.0186
  712MOL0     H96085  -0.235   9.990   1.955  1.4261 -0.3433  1.6158
  712MOL0     H96086  -0.265  10.200   2.158  1.9392 -0.2493 -2.9639
  712MOL0     H96087  -0.224  10.018   2.170  4.1413 -1.1602 -0.1117
  712MOL0     H96088  -0.118  10.061   2.377 -1.5799 -2.1921 -2.0627
  712MOL0     H96089  -0.128  10.244   2.355 -0.4311  0.7715 -2.7617
  712MOL0     H96090  -0.355  10.058   2.412 -0.2253  0.5505  2.2557
  712MOL0     H96091  -0.365  10.233   2.380 -0.6366  0.0123  1.4230
  712MOL0     H96092  -0.254  10.267   2.614  0.6183 -0.7205  4.0268
  712MOL0     H96093  -0.375  10.157   2.636 -0.3497 -0.2516 -0.3471
  712MOL0     H96094  -0.084  10.112   2.661  0.1880  0.6031  1.7121
  712MOL0     H96095  -0.187   9.978   2.621  0.0623  2.3021 -2.5635
  712MOL0     H96096  -0.307   9.991   2.819 -0.0618  0.9887 -0.9696
  712MOL0     H96097  -0.141  10.003   2.869  0.0071 -0.0995  0.3653
  712MOL0     H96098  -0.264  10.265   2.839  1.0375  1.3903 -0.1283
  712MOL0     H96099  -0.155  10.207   2.951  0.6323  1.5169 -1.8806
  712MOL0     H96100  -0.371  10.247   3.072 -0.5529 -0.0568  0.8786
  712MOL0     H96101  -0.335  10.074   3.070  0.6723  0.8839  0.9701
  712MOL0     H96102   0.071  10.281   2.016 -2.3603 -0.7792  1.1830
  712MOL0     H96103   0.082  10.325   1.766 -0.2169  1.1164  1.0707
  712MOL0     H96104   0.285  10.163   1.370  1.6705  1.8010 -1.1534
  712MOL0     H96105   0.324  10.247   1.157 -0.5832  0.0146 -2.6937
  712MOL0     H96106   1.526  10.604   0.906 -0.3640  3.4688  0.5353
  712MOL0     H96107   1.657  10.420   0.840 -3.6708  1.0580 -2.1076
  712MOL0     H96108   2.286  10.421   0.591  0.9669 -1.2196  4.8429
  712MOL0     H96109   2.378  10.222   0.443  1.3336  0.0696  1.2032
  712MOL0     H96110   2.220   9.864   0.577  3.1012 -3.5497  1.3429
  712MOL0     H96111   2.256   9.801   0.412  3.5315 -0.6526  0.5078
  712MOL0     H96112   2.442   9.782   0.596  3.1513  1.3822  0.9970
  712MOL0     H96113   2.409   9.955   0.605  0.9716  0.3884 -0.7649
  712MOL0     H96114   2.526   9.995   0.402  0.4845  0.5361 -0.2398
  712MOL0     H96115   2.513   9.826   0.352 -0.7829 -2.2102  2.4066
  712MOL0     H96116   2.693   9.756   0.516  2.3077  1.2156 -0.2931
  712MOL0     H96117   2.667   9.916   0.595 -2.1841  0.4988  0.1371
  712MOL0     H96118   2.967   9.921   0.304  0.7373  1.2517  2.0106
  712MOL0     H96119   1.997  10.029   0.512  0.4611  0.5144 -2.2962
  712MOL0     H96120   1.924  10.194   0.664  0.1848  0.9563  0.5553
  713MOL0     O96121   4.196   9.987   5.853 -0.2499 -0.0740  0.1026
  713MOL0     C96122   4.300  10.052   5.843 -0.4913  0.3606  0.2999
  713MOL0     O96123   4.333  10.154   5.765 -0.5275 -0.0524 -0.3270
  713MOL0     C96124   4.261  10.196   5.653  0.0716 -0.8211  1.3389
  713MOL0     C96125   4.143  10.145   5.596  0.7731 -0.3332 -0.8086
  713MOL0     C96126   4.090  10.188   5.477 -1.2230  1.3031 -0.4171
  713MOL0     C96127   4.152  10.295   5.415 -0.6061  0.7845  0.0992
  713MOL0     O96128   4.104  10.328   5.290  0.1738  0.7845 -0.6924
  713MOL0     C96129   4.188  10.409   5.193  0.1144  0.1921  1.4177
  713MOL0     C96130   4.140  10.361   5.054 -0.8993 -0.3118  0.9759
  713MOL0     C96131   4.231  10.426   4.948  0.2806  0.7408 -0.8177
  713MOL0     C96132   4.208  10.352   4.817 -0.9084 -1.6164 -0.8640
  713MOL0     C96133   4.288  10.421   4.705 -0.2954  0.6474  0.1309
  713MOL0     C96134   4.437  10.395   4.709 -0.0569 -0.3873 -0.1530
  713MOL0     C96135   4.507  10.437   4.578 -0.1823  0.0029 -0.2021
  713MOL0     C96136   4.478  10.355   4.440  0.2229 -0.4236  0.8580
  713MOL0     N96137   4.532  10.430   4.325 -0.4180  0.2293  0.2322
  713MOL0     C96138   4.493  10.419   4.191  0.7310  0.3577 -0.7071
  713MOL0     C96139   4.557  10.518   4.130  0.3097  0.3244  0.2389
  713MOL0     C96140   4.537  10.558   3.989 -0.2570  0.2187  0.3252
  713MOL0     C96141   4.426  10.664   3.980 -0.3677 -0.1300  0.4500
  713MOL0     C96142   4.378  10.706   3.835  0.4436 -0.7130 -0.5382
  713MOL0     C96143   4.477  10.796   3.766 -0.2701  0.2874  0.3364
  713MOL0     O96144   4.437  10.835   3.631  0.0425 -0.4101 -1.3400
  713MOL0     C96145   4.486  10.940   3.565 -0.6098 -0.2913 -0.1230
  713MOL0     C96146   4.612  10.994   3.611  0.3191  0.2568  0.5101
  713MOL0     C96147   4.679  11.087   3.526 -0.7021  0.0783  0.3654
  713MOL0     C96148   4.815  11.134   3.568  0.0418 -0.2734  0.5121
  713MOL0     C96149   4.618  11.130   3.404 -0.0718 -0.1531 -0.4552
  713MOL0     C96150   4.678  11.220   3.311 -0.3634 -0.8510 -0.4498
  713MOL0     O96151   4.606  11.236   3.204 -0.3403  0.5651  0.1495
  713MOL0     C96152   4.606  11.351   3.145  1.1874 -0.9791  0.6498
  713MOL0     C96153   4.700  11.362   3.043 -1.1734  0.5654  0.7195
  713MOL0     C96154   4.716  11.477   2.962  0.3454  1.0070 -1.3646
  713MOL0     C96155   4.636  11.587   2.994  0.4400  0.3692  0.7009
  713MOL0     O96156   4.668  11.691   2.917 -0.5209 -1.2430  0.4264
  713MOL0     C96157   4.629  11.821   2.972 -0.4002 -1.1014 -0.1730
  713MOL0     C96158   4.719  11.869   3.088 -0.3235  0.9621 -0.1523
  713MOL0     C96159   4.728  12.019   3.136  0.1659  0.3960 -0.2285
  713MOL0     C96160   4.622  12.020   3.248 -0.0915  0.1658  1.5308
  713MOL0     C96161   4.593  12.163   3.290 -0.1538 -0.0609  0.1260
  713MOL0     C96162   4.561  12.177   3.442  0.2516  1.3659  0.2148
  713MOL0     C96163   4.544  12.321   3.475 -0.9997 -0.7281 -1.5973
  713MOL0     C96164   4.663  12.413   3.444  0.0101  0.8475  0.3478
  713MOL0    Cl96165   4.808  12.374   3.548  0.1283 -0.1401  0.1390
  713MOL0     C96166   4.541  11.576   3.090  0.1588 -0.0202  0.6082
  713MOL0     C96167   4.521  11.460   3.165 -0.8346 -0.6418  0.7344
  713MOL0     O96168   4.791  11.272   3.326  0.0370 -0.2965 -0.2291
  713MOL0     C96169   4.491  11.073   3.365 -0.0209  1.4838  0.5108
  713MOL0     C96170   4.438  10.967   3.441 -0.0209  0.3630  0.2276
  713MOL0     N96171   4.631  10.583   4.222 -0.2194  0.2997  0.3066
  713MOL0     N96172   4.616  10.535   4.342  0.4943  0.2362  1.0305
  713MOL0     C96173   4.257  10.370   5.469 -0.1631 -0.0653  0.6229
  713MOL0     C96174   4.318  10.308   5.585  0.2754 -0.5219  0.2007
  713MOL0     C96175   4.425   9.996   5.912  0.9751 -0.1932 -0.1354
  713MOL0     C96176   4.423   9.869   5.971 -0.2208 -0.1418 -0.1608
  713MOL0     C96177   4.533   9.824   6.047 -0.8730  0.2862 -0.3829
  713MOL0     C96178   4.644   9.902   6.073 -0.2525 -0.1001  0.3709
  713MOL0     O96179   4.748   9.853   6.148  0.4382 -0.9118  0.2439
  713MOL0     C96180   4.858   9.929   6.191 -0.6025 -0.7419 -0.2419
  713MOL0     C96181   4.825  10.009   6.324 -0.7678  0.5129  0.0635
  713MOL0     C96182   4.958  10.081   6.380 -0.0016 -1.0823 -1.0374
  713MOL0     C96183   5.057   9.986   6.438  0.7787 -0.3398 -0.8589
  713MOL0     C96184   5.145  10.061   6.522 -0.2321 -0.5533 -0.1472
  713MOL0     C96185   5.236  10.113   6.585 -0.1613 -0.0351 -0.2333
  713MOL0     C96186   4.640  10.032   6.017  0.1691  0.1995 -0.3622
  713MOL0     C96187   4.534  10.069   5.930 -0.4039  0.0591 -0.6630
  713MOL0     H96188   4.094  10.070   5.657  0.8261 -0.5123 -0.9844
  713MOL0     H96189   4.007  10.130   5.438 -1.3521  1.3629 -0.2331
  713MOL0     H96190   4.167  10.516   5.204 -0.0016  0.2010  1.1226
  713MOL0     H96191   4.294  10.395   5.214  0.0961  1.4409  2.4690
  713MOL0     H96192   4.157  10.253   5.049  1.3624  0.0073  0.8019
  713MOL0     H96193   4.035  10.388   5.036 -0.9137 -1.1118 -0.2011
  713MOL0     H96194   4.212  10.532   4.931 -0.6186  1.1468  2.2862
  713MOL0     H96195   4.334  10.421   4.985  0.4271  1.1275 -1.1644
  713MOL0     H96196   4.249  10.251   4.820  1.3429 -0.7975 -1.9633
  713MOL0     H96197   4.103  10.368   4.792 -1.1159 -0.9532  0.3213
  713MOL0     H96198   4.234  10.406   4.611  1.8356 -0.8574 -0.9207
  713MOL0     H96199   4.288  10.530   4.712  0.8142  0.6583  0.0947
  713MOL0     H96200   4.480  10.456   4.790  1.0379 -0.3774 -0.7160
  713MOL0     H96201   4.459  10.292   4.736 -0.0937  0.1997  2.4160
  713MOL0     H96202   4.478  10.542   4.566  0.3186  0.7646  3.9258
  713MOL0     H96203   4.614  10.450   4.591  0.0728  1.3931 -2.9991
  713MOL0     H96204   4.371  10.336   4.426  0.2241 -1.4728  2.0713
  713MOL0     H96205   4.530  10.260   4.459  1.1183  0.3620  2.6028
  713MOL0     H96206   4.435  10.335   4.153 -0.2158 -0.4132  2.2309
  713MOL0     H96207   4.621  10.603   3.935  0.6748 -0.9537  0.7719
  713MOL0     H96208   4.508  10.474   3.925 -0.3647 -0.8572  1.7347
  713MOL0     H96209   4.443  10.754   4.040 -1.4638 -0.6792  1.6393
  713MOL0     H96210   4.332  10.619   4.015 -1.1175  0.9357 -0.1349
  713MOL0     H96211   4.291  10.769   3.855  0.7067 -0.6098  0.3132
  713MOL0     H96212   4.347  10.619   3.776 -0.8489 -0.5458 -0.1359
  713MOL0     H96213   4.575  10.749   3.758 -0.7660 -1.0690  1.8211
  713MOL0     H96214   4.481  10.890   3.823 -2.5418 -0.4608  1.9058
  713MOL0     H96215   4.653  10.988   3.711  0.8041  3.5061  0.6228
  713MOL0     H96216   4.812  11.240   3.596  0.9775  0.6081 -2.3754
  713MOL0     H96217   4.845  11.070   3.651 -0.8814 -1.2006  0.1432
  713MOL0     H96218   4.891  11.123   3.490  1.2497 -2.2308  1.8856
  713MOL0     H96219   4.760  11.276   3.013  2.1581  2.0862  2.5040
  713MOL0     H96220   4.786  11.480   2.879  0.6401  0.6085 -1.1328
  713MOL0     H96221   4.642  11.893   2.891  0.5145 -1.3021 -0.2176
  713MOL0     H96222   4.522  11.831   2.991 -0.5772 -1.8437 -0.7617
  713MOL0     H96223   4.687  11.808   3.173 -1.5015  0.4459 -0.9330
  713MOL0     H96224   4.823  11.847   3.061 -0.1105 -2.0315  2.5328
  713MOL0     H96225   4.715  12.090   3.055  3.8261  0.3179 -1.0711
  713MOL0     H96226   4.823  12.049   3.183 -0.7779  3.4750 -0.1086
  713MOL0     H96227   4.523  11.987   3.218  0.7936 -2.2490  1.0630
  713MOL0     H96228   4.641  11.964   3.340 -3.1431 -1.2252  1.4087
  713MOL0     H96229   4.517  12.200   3.220  0.4844  0.3392 -0.3699
  713MOL0     H96230   4.689  12.215   3.286 -0.1815  0.3801  2.9193
  713MOL0     H96231   4.475  12.112   3.460  0.9576  0.5459  0.7481
  713MOL0     H96232   4.638  12.126   3.500 -2.0795 -3.5530 -0.4374
  713MOL0     H96233   4.535  12.315   3.584  4.1840 -0.4520 -0.9001
  713MOL0     H96234   4.457  12.365   3.426 -1.5835 -0.1658 -0.0986
  713MOL0     H96235   4.640  12.518   3.465  1.8024  1.0819  1.2962
  713MOL0     H96236   4.688  12.413   3.337  0.0476  2.4154  0.3269
  713MOL0     H96237   4.488  11.661   3.132  1.5768  0.0482  2.3832
  713MOL0     H96238   4.439  11.460   3.236 -1.0977 -0.9778  0.4362
  713MOL0     H96239   4.434  11.097   3.276 -0.2606 -1.6729 -0.3145
  713MOL0     H96240   4.347  10.914   3.412  0.6964 -0.3679 -0.7992
  713MOL0     H96241   4.300  10.459   5.424  1.4802  1.0400  4.0091
  713MOL0     H96242   4.399  10.365   5.629  1.8980 -0.2699 -2.8716
  713MOL0     H96243   4.345   9.796   5.953  1.5104 -1.7743 -1.3612
  713MOL0     H96244   4.534   9.720   6.077  1.0651  0.2309 -0.4742
  713MOL0     H96245   4.953   9.878   6.208  0.8132  0.2901 -3.9219
  713MOL0     H96246   4.888  10.006   6.119 -2.2286  0.7616  0.5896
  713MOL0     H96247   4.803   9.931   6.398 -0.0336  1.3752  1.2140
  713MOL0     H96248   4.748  10.085   6.310  0.9064  2.0533 -1.3020
  713MOL0     H96249   4.929  10.131   6.473  1.6441 -1.3273 -0.3530
  713MOL0     H96250   5.003  10.154   6.312 -0.6923 -2.1725 -2.7175
  713MOL0     H96251   5.105   9.931   6.357 -2.6232 -1.7132 -2.0856
  713MOL0     H96252   5.006   9.907   6.494  1.6234 -0.3679 -0.0983
  713MOL0     H96253   5.321  10.159   6.631  0.4352 -2.5320  1.3117
  713MOL0     H96254   4.708  10.113   6.042 -1.9632  1.9320  0.1324
  713MOL0     H96255   4.531  10.173   5.900 -3.4999 -0.0611 -1.0978
  714MOL0     O96256   4.983   3.869   7.782  0.1434 -0.1921 -0.5210
  714MOL0     C96257   5.025   3.978   7.750 -0.2915  0.2400  0.1121
  714MOL0     O96258   4.947   4.088   7.728  0.5138  0.5849 -1.6811
  714MOL0     C96259   4.809   4.078   7.761 -0.6739  0.7364 -0.8758
  714MOL0     C96260   4.754   4.024   7.875 -0.3171  0.5034  0.2128
  714MOL0     C96261   4.619   3.995   7.894 -0.1195  0.3012 -0.3536
  714MOL0     C96262   4.534   4.012   7.782 -0.0374 -0.7061  0.5583
  714MOL0     O96263   4.401   3.976   7.817  0.7521 -0.0458 -0.5399
  714MOL0     C96264   4.299   4.008   7.721 -0.2127 -1.0964  0.1870
  714MOL0     C96265   4.266   3.892   7.621  1.0699 -0.9176 -0.4890
  714MOL0     C96266   4.204   3.960   7.491 -0.5233  0.5523  0.7319
  714MOL0     C96267   4.294   3.906   7.369  0.0437  0.0458 -0.7729
  714MOL0     C96268   4.298   3.977   7.240  0.2264  0.8548 -1.0929
  714MOL0     C96269   4.389   3.917   7.143  0.1416 -0.4120 -0.1666
  714MOL0     C96270   4.361   3.993   7.015  0.6806  0.3424  1.1005
  714MOL0     C96271   4.441   3.965   6.886 -0.8128 -0.4749 -0.3016
  714MOL0     N96272   4.579   3.975   6.897 -0.2591 -0.6307  0.1625
  714MOL0     C96273   4.670   3.879   6.914 -0.2754 -0.2497 -0.0163
  714MOL0     C96274   4.787   3.941   6.942 -0.0430  0.1810  0.3975
  714MOL0     C96275   4.919   3.886   6.977 -0.2518  0.4177  0.0836
  714MOL0     C96276   5.007   3.862   6.853  0.8054  0.6681  0.1259
  714MOL0     C96277   5.155   3.895   6.872  0.1627 -0.5762  0.5870
  714MOL0     C96278   5.181   4.044   6.891  0.8252 -0.8856 -0.1035
  714MOL0     O96279   5.324   4.056   6.887 -0.3406  0.7374 -1.1168
  714MOL0     C96280   5.380   4.171   6.912  0.4540 -0.4040  0.2280
  714MOL0     C96281   5.485   4.195   7.001 -0.2253 -0.4230 -0.0960
  714MOL0     C96282   5.532   4.329   7.014 -0.4465  0.2928  0.0023
  714MOL0     C96283   5.637   4.348   7.116 -0.2927  0.0770  0.3086
  714MOL0     C96284   5.475   4.439   6.944  0.5552  0.3565  0.5918
  714MOL0     C96285   5.524   4.579   6.961 -0.4820  0.4737 -0.5471
  714MOL0     O96286   5.667   4.591   6.988 -0.1042 -0.0259 -0.7798
  714MOL0     C96287   5.696   4.730   6.999  0.4496  0.3190 -0.5847
  714MOL0     C96288   5.663   4.786   7.125  0.4315 -0.6779  0.2972
  714MOL0     C96289   5.705   4.918   7.159 -0.5301  0.5966 -0.2728
  714MOL0     C96290   5.804   4.985   7.097  0.2760  0.6808  0.2674
  714MOL0     O96291   5.869   5.105   7.129  0.1947  0.1047  0.1112
  714MOL0     C96292   5.829   5.169   7.250 -1.7063  0.5224  1.0351
  714MOL0     C96293   5.891   5.306   7.277  0.8249 -0.3043  0.6812
  714MOL0     C96294   5.825   5.425   7.202  0.7601 -0.2200 -0.0012
  714MOL0     C96295   5.932   5.540   7.199  0.5994 -0.1103  0.0006
  714MOL0     C96296   5.854   5.655   7.135  0.1721  0.0274 -0.2676
  714MOL0     C96297   5.957   5.758   7.094 -0.1357  0.5801  0.1289
  714MOL0     C96298   5.900   5.890   7.052 -0.7625  0.3767  0.1926
  714MOL0     C96299   5.835   5.905   6.911  0.2744 -0.3523  0.8541
  714MOL0    Cl96300   5.660   5.876   6.934  0.2441 -0.0696 -0.5946
  714MOL0     C96301   5.834   4.921   6.975 -0.2543 -0.3907  0.0846
  714MOL0     C96302   5.783   4.804   6.924  0.2777  1.0983 -0.8754
  714MOL0     O96303   5.445   4.672   6.957  0.6258  0.0718  0.3826
  714MOL0     C96304   5.362   4.415   6.866 -0.3258  0.0870 -0.1293
  714MOL0     C96305   5.314   4.282   6.850  0.0253 -0.1210 -0.0336
  714MOL0     N96306   4.761   4.081   6.955  0.0831  0.3936 -0.1016
  714MOL0     N96307   4.632   4.098   6.916 -0.9193  0.4238 -0.1019
  714MOL0     C96308   4.584   4.064   7.663 -0.3665  1.2000 -0.1490
  714MOL0     C96309   4.724   4.100   7.658  0.2574 -0.9889  0.6786
  714MOL0     C96310   5.176   3.997   7.741  0.3085 -0.3097 -0.0703
  714MOL0     C96311   5.262   3.891   7.756  0.0833 -0.1996  0.3487
  714MOL0     C96312   5.394   3.904   7.731 -1.0263 -0.4288 -0.7942
  714MOL0     C96313   5.452   4.029   7.713  0.3376 -0.8184  0.5928
  714MOL0     O96314   5.578   4.054   7.661 -0.0412  0.2542  0.4063
  714MOL0     C96315   5.685   3.953   7.665 -0.2187  0.0013  0.4250
  714MOL0     C96316   5.746   3.919   7.797 -0.1392  0.2026  0.0946
  714MOL0     C96317   5.803   4.041   7.877  0.2040 -0.7096  0.0926
  714MOL0     C96318   5.889   3.995   7.989 -0.7459  0.9397 -1.2223
  714MOL0     C96319   5.807   3.922   8.090 -0.8535  0.4003 -0.7836
  714MOL0     C96320   5.747   3.861   8.181  0.1683 -0.0762  0.5742
  714MOL0     C96321   5.367   4.134   7.692 -0.3192 -0.5422  0.5022
  714MOL0     C96322   5.230   4.120   7.703 -0.1754 -0.0991  0.4123
  714MOL0     H96323   4.826   3.999   7.952  1.6643  3.1888 -0.6207
  714MOL0     H96324   4.575   3.958   7.986  0.6188 -0.9728 -0.4870
  714MOL0     H96325   4.216   4.053   7.778  1.2627  0.5370  1.1427
  714MOL0     H96326   4.323   4.092   7.655  1.5022 -2.0414 -0.4483
  714MOL0     H96327   4.346   3.822   7.595  0.9911 -1.1743 -0.0541
  714MOL0     H96328   4.184   3.841   7.671 -0.3596  1.5032 -0.1764
  714MOL0     H96329   4.105   3.927   7.460 -0.2178  1.3107 -1.2262
  714MOL0     H96330   4.211   4.069   7.490  0.2903  0.5080 -0.1920
  714MOL0     H96331   4.397   3.902   7.406  0.5449  1.2993 -1.9781
  714MOL0     H96332   4.265   3.802   7.352  2.7341 -0.6014 -1.8917
  714MOL0     H96333   4.203   3.952   7.193  1.3986 -1.9131 -2.1931
  714MOL0     H96334   4.314   4.084   7.258  0.8125  0.9769 -2.2263
  714MOL0     H96335   4.496   3.915   7.168  0.6365 -2.5301 -2.1479
  714MOL0     H96336   4.357   3.816   7.118  0.5634 -0.2681 -1.3674
  714MOL0     H96337   4.254   3.981   6.999  1.1688 -2.8652 -0.6198
  714MOL0     H96338   4.382   4.098   7.034  2.4931 -0.1133  1.9130
  714MOL0     H96339   4.397   4.035   6.814 -1.2847  0.0052  0.4353
  714MOL0     H96340   4.413   3.861   6.865  1.6811 -1.5396  1.2155
  714MOL0     H96341   4.651   3.773   6.924 -2.1251  0.1229  0.8317
  714MOL0     H96342   4.962   3.959   7.047 -1.2802 -0.1797  1.3735
  714MOL0     H96343   4.915   3.799   7.043  1.2628  1.0108  1.0104
  714MOL0     H96344   4.974   3.926   6.771  1.0130 -1.8749 -2.0880
  714MOL0     H96345   4.981   3.757   6.836 -0.0699  0.5693  1.8626
  714MOL0     H96346   5.217   3.864   6.788 -1.2581 -2.5693  0.2027
  714MOL0     H96347   5.191   3.836   6.957  1.1733 -1.2409 -0.2769
  714MOL0     H96348   5.151   4.075   6.992  2.0651  0.5333 -0.1353
  714MOL0     H96349   5.138   4.104   6.811  0.3497  0.6112  1.2388
  714MOL0     H96350   5.532   4.118   7.061  0.7577  1.0480  1.0994
  714MOL0     H96351   5.638   4.264   7.185 -0.4694 -0.2822 -0.1261
  714MOL0     H96352   5.737   4.361   7.072 -0.8366  1.7815 -0.5079
  714MOL0     H96353   5.615   4.438   7.175 -4.2023 -0.1816 -0.4888
  714MOL0     H96354   5.604   4.724   7.192 -0.0077 -1.4425 -0.7771
  714MOL0     H96355   5.671   4.956   7.255 -1.0121  0.0029 -0.1994
  714MOL0     H96356   5.721   5.187   7.249 -2.0468 -1.2058  2.3688
  714MOL0     H96357   5.854   5.100   7.331 -1.7942  0.5104  1.0520
  714MOL0     H96358   5.886   5.325   7.385 -2.7840  0.8008  0.4587
  714MOL0     H96359   5.992   5.297   7.237  1.0267  1.9890  0.5476
  714MOL0     H96360   5.736   5.466   7.250 -1.5871 -4.3461 -0.4118
  714MOL0     H96361   5.799   5.396   7.100 -0.2337  1.3010 -0.2208
  714MOL0     H96362   5.945   5.571   7.303 -1.9172  1.7147 -0.1396
  714MOL0     H96363   6.027   5.510   7.154  1.4217  1.9257  0.2739
  714MOL0     H96364   5.786   5.704   7.205  0.3195  4.2697 -2.7225
  714MOL0     H96365   5.807   5.626   7.040  1.0954  2.7347 -1.6761
  714MOL0     H96366   6.014   5.771   7.186  1.2254  0.0042 -0.5936
  714MOL0     H96367   6.034   5.723   7.023  0.3532  2.5044 -0.3445
  714MOL0     H96368   5.985   5.958   7.040 -0.9393  0.2607 -2.4950
  714MOL0     H96369   5.834   5.928   7.130  0.6480  2.0938  0.6115
  714MOL0     H96370   5.868   5.817   6.856 -0.8276 -1.6972  2.2528
  714MOL0     H96371   5.853   6.005   6.872  0.2253 -1.5678 -2.5855
  714MOL0     H96372   5.908   4.976   6.918  1.3157 -4.1456 -1.7984
  714MOL0     H96373   5.827   4.763   6.834  0.4621  2.1158 -1.2638
  714MOL0     H96374   5.322   4.489   6.797 -1.1028  0.5084  0.7542
  714MOL0     H96375   5.240   4.266   6.771  0.5027  2.2284 -1.0481
  714MOL0     H96376   4.533   4.062   7.568  0.1543  1.4989 -0.4404
  714MOL0     H96377   4.759   4.142   7.564 -2.4681 -3.5333 -1.6824
  714MOL0     H96378   5.233   3.786   7.762  2.0705 -0.9971 -2.2003
  714MOL0     H96379   5.465   3.822   7.740 -0.6765  0.0609  2.2827
  714MOL0     H96380   5.643   3.862   7.621 -3.2651  2.6007 -2.6514
  714MOL0     H96381   5.755   3.990   7.589 -2.3816  1.4696 -0.9835
  714MOL0     H96382   5.830   3.850   7.782  1.3297  2.0446 -0.5391
  714MOL0     H96383   5.666   3.864   7.849 -1.2239  1.0947 -0.5890
  714MOL0     H96384   5.731   4.110   7.922  1.4569  0.3025  0.6028
  714MOL0     H96385   5.867   4.097   7.808  0.0317  1.6683  1.7338
  714MOL0     H96386   5.944   4.083   8.026 -0.2606 -0.3360  1.2853
  714MOL0     H96387   5.960   3.928   7.942 -0.1651 -1.0259  2.1265
  714MOL0     H96388   5.695   3.808   8.258 -3.1956 -0.5698 -1.8234
  714MOL0     H96389   5.417   4.228   7.669  1.5586 -2.3072 -3.8275
  714MOL0     H96390   5.159   4.201   7.688 -2.5527 -2.3263 -1.2403
  715MOL0     O96391   9.287   0.911  10.750 -1.4413 -0.6094 -0.9327
  715MOL0     C96392   9.194   0.835  10.722  0.1595  0.2379  0.6263
  715MOL0     O96393   9.154   0.810  10.596  0.1857  0.4777  0.7780
  715MOL0     C96394   9.203   0.854  10.475  0.4032 -0.4459  0.5210
  715MOL0     C96395   9.163   0.778  10.367  0.2998 -0.6230 -0.4916
  715MOL0     C96396   9.200   0.813  10.240 -0.0517 -0.9651 -0.4458
  715MOL0     C96397   9.281   0.927  10.212 -0.1898 -0.9013 -0.2871
  715MOL0     O96398   9.328   0.965  10.095 -1.3770  0.2418 -0.5618
  715MOL0     C96399   9.311   0.893   9.973  0.4420 -1.3893  0.3672
  715MOL0     C96400   9.417   0.782   9.954 -0.2326  0.4110  0.6657
  715MOL0     C96401   9.546   0.821   9.867  0.7042  0.3676 -0.0635
  715MOL0     C96402   9.622   0.945   9.922  1.0775  0.3851 -0.5295
  715MOL0     C96403   9.769   0.936   9.891 -0.9418 -0.3302  1.3797
  715MOL0     C96404   9.848   0.826   9.967 -0.3984 -0.6129 -0.2225
  715MOL0     C96405   9.990   0.867   9.988 -0.8704  1.1273 -0.0399
  715MOL0     C96406  10.072   0.755  10.053  0.3853  0.6613  1.2384
  715MOL0     N96407  10.078   0.629   9.980 -0.3408  0.0044 -0.1892
  715MOL0     C96408  10.110   0.622   9.852  0.0331  0.1524  0.8703
  715MOL0     C96409  10.164   0.498   9.833  1.4353  0.8802 -0.1407
  715MOL0     C96410  10.204   0.447   9.701  0.8069  0.0557  0.6911
  715MOL0     C96411  10.357   0.410   9.685  0.0869  0.1689 -1.1483
  715MOL0     C96412  10.422   0.389   9.549 -0.0939 -1.1353 -0.5439
  715MOL0     C96413  10.394   0.250   9.493  0.5615  0.5957  0.5789
  715MOL0     O96414  10.254   0.223   9.490 -0.6503  0.0631  1.5602
  715MOL0     C96415  10.175   0.264   9.384 -0.2701  0.0360 -0.1931
  715MOL0     C96416  10.222   0.313   9.262  0.5708  0.3877 -0.6160
  715MOL0     C96417  10.132   0.312   9.151  0.3075  0.9951  1.1778
  715MOL0     C96418  10.184   0.326   9.014  0.3010  0.1505 -0.3979
  715MOL0     C96419   9.995   0.285   9.174  0.1871  0.2352  0.3426
  715MOL0     C96420   9.894   0.303   9.078 -0.8058  0.3139  1.1303
  715MOL0     O96421   9.874   0.440   9.051  0.1626  0.2225 -0.3912
  715MOL0     C96422   9.815   0.473   8.934  0.3941 -0.0530  0.1229
  715MOL0     C96423   9.680   0.443   8.908 -0.5934 -0.6063 -0.7532
  715MOL0     C96424   9.613   0.476   8.788  0.1787 -0.3724  1.1160
  715MOL0     C96425   9.681   0.543   8.684  0.7739  1.4905 -0.2166
  715MOL0     O96426   9.618   0.568   8.564  0.0720 -0.1405 -0.3355
  715MOL0     C96427   9.694   0.609   8.446 -0.0867  1.0803 -0.2696
  715MOL0     C96428   9.770   0.487   8.392 -0.3181 -0.1719 -0.5432
  715MOL0     C96429   9.771   0.507   8.237 -0.1429 -0.0000  0.0438
  715MOL0     C96430   9.875   0.413   8.176  0.3979  1.0315  1.1046
  715MOL0     C96431   9.896   0.443   8.024  0.8448 -0.5766  0.4357
  715MOL0     C96432  10.012   0.356   7.973 -0.0265 -0.3506 -0.2635
  715MOL0     C96433  10.003   0.381   7.816 -0.5927  0.0400 -1.0087
  715MOL0     C96434  10.121   0.312   7.748  0.6882  0.2471 -0.0469
  715MOL0    Cl96435  10.118   0.138   7.805 -0.1561  0.5280  0.8013
  715MOL0     C96436   9.816   0.575   8.712  1.1322 -0.7996  0.9484
  715MOL0     C96437   9.880   0.546   8.835  0.2499 -0.2307  0.8209
  715MOL0     O96438   9.819   0.213   9.052 -0.0432  0.0190 -0.9915
  715MOL0     C96439   9.949   0.261   9.299  0.6952  0.4314 -0.6803
  715MOL0     C96440  10.036   0.244   9.407  0.7570 -0.7976  0.0077
  715MOL0     N96441  10.139   0.426   9.952  0.3367  0.9006 -0.3633
  715MOL0     N96442  10.097   0.510  10.038 -1.0363  0.7818  0.3385
  715MOL0     C96443   9.316   0.999  10.326 -0.1719 -0.4841  0.8302
  715MOL0     C96444   9.292   0.966  10.457 -0.1800  0.1319  0.5918
  715MOL0     C96445   9.105   0.778  10.816  0.6894  0.0342 -0.2928
  715MOL0     C96446   8.967   0.750  10.779  0.2077  0.2058  0.5197
  715MOL0     C96447   8.883   0.693  10.874  0.1909  0.4054  0.6667
  715MOL0     C96448   8.922   0.666  11.007 -0.2681 -0.6824 -0.8265
  715MOL0     O96449   8.839   0.584  11.084  0.4053 -0.5485  1.2001
  715MOL0     C96450   8.799   0.665  11.191 -0.1140  0.8217 -1.2392
  715MOL0     C96451   8.689   0.595  11.278 -0.8236  0.2623  0.9023
  715MOL0     C96452   8.666   0.678  11.398 -0.2655  0.3660 -0.4513
  715MOL0     C96453   8.760   0.645  11.521  0.1664  0.6658  0.0980
  715MOL0     C96454   8.718   0.520  11.573  0.0976  0.2573 -0.5749
  715MOL0     C96455   8.676   0.413  11.613  0.0126 -0.0524  0.3580
  715MOL0     C96456   9.049   0.699  11.042 -0.0458  0.5692 -0.0775
  715MOL0     C96457   9.146   0.746  10.953  0.8955  0.9721  0.5572
  715MOL0     H96458   9.124   0.679  10.388  0.8728 -0.6961  0.2587
  715MOL0     H96459   9.179   0.739  10.164 -0.9696 -1.1080 -0.0624
  715MOL0     H96460   9.209   0.855   9.970 -0.7646  1.5390  1.2225
  715MOL0     H96461   9.323   0.963   9.890  1.4976 -3.2228 -1.1293
  715MOL0     H96462   9.464   0.758  10.050  2.2085 -1.6385 -0.9247
  715MOL0     H96463   9.377   0.688   9.915 -1.0264  0.6096  0.9763
  715MOL0     H96464   9.610   0.735   9.890  0.2328  0.0965  0.2732
  715MOL0     H96465   9.527   0.824   9.759  2.0328  2.0938 -0.2799
  715MOL0     H96466   9.579   1.038   9.883  2.1320  0.6053 -1.1757
  715MOL0     H96467   9.614   0.949  10.031 -0.3515  2.8043 -0.6566
  715MOL0     H96468   9.784   0.912   9.786 -1.2492  2.3182  0.6500
  715MOL0     H96469   9.810   1.034   9.917 -1.7200 -0.7171  4.5237
  715MOL0     H96470   9.809   0.791  10.063  2.5201 -0.4614  1.1176
  715MOL0     H96471   9.843   0.739   9.901 -0.5125 -0.8797  0.1329
  715MOL0     H96472  10.036   0.904   9.896 -0.5924  2.6938  0.6891
  715MOL0     H96473   9.993   0.955  10.054 -1.6062  0.8585  0.3581
  715MOL0     H96474  10.008   0.740  10.141 -0.6950  2.0266  0.7244
  715MOL0     H96475  10.172   0.775  10.092  2.1783  2.4444 -3.4921
  715MOL0     H96476  10.082   0.694   9.776 -0.5634 -2.0715 -1.1302
  715MOL0     H96477  10.152   0.353   9.683  1.4086 -0.0635 -0.5398
  715MOL0     H96478  10.180   0.532   9.636  3.5521  0.0762 -0.4137
  715MOL0     H96479  10.389   0.321   9.741 -1.6520 -1.1330 -2.1217
  715MOL0     H96480  10.397   0.501   9.731 -6.0172  1.3141  3.2003
  715MOL0     H96481  10.531   0.403   9.548  0.1044 -2.4288  0.3535
  715MOL0     H96482  10.371   0.463   9.486  0.1822 -2.6078 -2.5956
  715MOL0     H96483  10.433   0.170   9.556  0.0428 -0.3593 -0.2900
  715MOL0     H96484  10.442   0.242   9.395 -1.1627  1.6403 -0.4091
  715MOL0     H96485  10.327   0.336   9.251  0.3694  1.6953  0.0626
  715MOL0     H96486  10.272   0.392   9.018  1.8352 -1.8148  2.7143
  715MOL0     H96487  10.228   0.234   8.975  0.4080  0.1088 -0.1774
  715MOL0     H96488  10.115   0.383   8.951 -1.2006 -0.2940  0.8030
  715MOL0     H96489   9.624   0.403   8.993 -0.9344 -0.7083 -1.0241
  715MOL0     H96490   9.508   0.455   8.768  1.0389 -3.0567 -1.4638
  715MOL0     H96491   9.613   0.627   8.375  1.1717  0.7828 -1.8165
  715MOL0     H96492   9.749   0.702   8.461 -3.3635  2.9767  1.1358
  715MOL0     H96493   9.873   0.481   8.431 -1.5594 -0.7402  3.0624
  715MOL0     H96494   9.721   0.396   8.429 -0.5040  0.2366  0.2374
  715MOL0     H96495   9.807   0.609   8.227  1.6684 -0.7170 -1.2808
  715MOL0     H96496   9.674   0.493   8.187  1.0738 -0.3517 -2.3806
  715MOL0     H96497   9.974   0.414   8.223  0.1110 -4.0419  2.4888
  715MOL0     H96498   9.846   0.307   8.169 -1.3395  1.5853 -0.8195
  715MOL0     H96499   9.901   0.548   7.996 -2.1934  0.1458  2.0746
  715MOL0     H96500   9.802   0.414   7.976 -1.3703  2.1166  2.7421
  715MOL0     H96501  10.101   0.382   8.031  0.4793  0.9267 -1.5604
  715MOL0     H96502   9.991   0.252   7.998 -2.0868 -0.3961 -1.9630
  715MOL0     H96503   9.995   0.487   7.790  2.1549  0.4910 -0.3963
  715MOL0     H96504   9.913   0.338   7.772 -0.8244  1.2567 -1.7776
  715MOL0     H96505  10.219   0.359   7.756  0.0174  2.5330 -3.4122
  715MOL0     H96506  10.114   0.298   7.640 -0.8505 -0.3303  0.0903
  715MOL0     H96507   9.867   0.634   8.637  2.3673 -0.9863  1.6019
  715MOL0     H96508   9.983   0.579   8.841  0.4383  0.2907 -2.9858
  715MOL0     H96509   9.842   0.261   9.317  0.9592 -0.3723  1.0151
  715MOL0     H96510  10.007   0.209   9.506  0.3006  1.5411  0.7772
  715MOL0     H96511   9.371   1.091  10.308 -1.7826  0.1601 -1.2922
  715MOL0     H96512   9.332   1.022  10.541 -0.4788  0.4848  0.4989
  715MOL0     H96513   8.916   0.778  10.687 -0.7604  3.4997  1.9301
  715MOL0     H96514   8.779   0.675  10.851 -0.5310  2.0277  2.4142
  715MOL0     H96515   8.890   0.688  11.246  0.1715 -0.0609 -1.3344
  715MOL0     H96516   8.753   0.759  11.159  2.9766  4.3019  3.2971
  715MOL0     H96517   8.715   0.492  11.307  2.7802 -0.1300 -2.8547
  715MOL0     H96518   8.599   0.572  11.219 -0.1853 -1.4983  0.5520
  715MOL0     H96519   8.558   0.680  11.412 -0.2432  3.7749 -0.0287
  715MOL0     H96520   8.683   0.785  11.382 -2.7382  0.7351 -0.9803
  715MOL0     H96521   8.753   0.719  11.600 -1.0588 -0.4765  1.1112
  715MOL0     H96522   8.861   0.639  11.480 -0.1927 -0.7031 -0.6783
  715MOL0     H96523   8.644   0.317  11.646  2.8097 -0.4873  2.0875
  715MOL0     H96524   9.073   0.690  11.148 -0.7714  4.7033  0.6273
  715MOL0     H96525   9.249   0.762  10.984  0.5370 -0.3147  2.6039
  716MOL0     O96526  10.206   4.657   2.448  0.6181 -0.2701 -0.2110
  716MOL0     C96527  10.168   4.759   2.384 -0.3945  0.3093 -0.9212
  716MOL0     O96528  10.156   4.774   2.252  0.2471 -0.2983  0.5810
  716MOL0     C96529  10.171   4.662   2.175  0.4146 -0.2531  0.8037
  716MOL0     C96530  10.088   4.646   2.060  0.5147 -0.2051 -0.3964
  716MOL0     C96531  10.107   4.547   1.966 -0.1652  0.3419 -0.9695
  716MOL0     C96532  10.222   4.461   1.969  0.2241 -0.5086 -0.4894
  716MOL0     O96533  10.231   4.361   1.871  0.8577 -0.2250  0.2655
  716MOL0     C96534  10.327   4.255   1.876  0.1365  0.1751  0.2530
  716MOL0     C96535  10.288   4.135   1.785 -0.0230 -0.3699 -0.1738
  716MOL0     C96536  10.152   4.089   1.804  0.4764  0.3571 -0.0588
  716MOL0     C96537  10.132   4.031   1.953  0.1152 -0.7396  0.2113
  716MOL0     C96538   9.998   3.967   1.965  0.8610 -0.5750 -0.2520
  716MOL0     C96539   9.981   3.876   2.083  0.7270 -0.1958 -0.1992
  716MOL0     C96540  10.053   3.741   2.062 -0.2580 -0.5478  0.1507
  716MOL0     C96541   9.987   3.646   1.955 -0.4257 -0.6030 -0.1056
  716MOL0     N96542   9.865   3.583   2.015  0.0503  0.5297 -0.4152
  716MOL0     C96543   9.865   3.477   2.105 -0.3533  0.0452 -0.2952
  716MOL0     C96544   9.740   3.468   2.162  0.0334 -0.8833  0.8710
  716MOL0     C96545   9.706   3.362   2.256 -0.6317 -0.5047 -0.5473
  716MOL0     C96546   9.671   3.426   2.389  0.7538  0.3642 -0.6764
  716MOL0     C96547   9.662   3.327   2.518 -0.5736 -0.3621 -0.0521
  716MOL0     C96548   9.583   3.387   2.641 -0.1468  0.0104  0.8175
  716MOL0     O96549   9.664   3.485   2.707 -0.3008 -0.7509 -0.1608
  716MOL0     C96550   9.630   3.536   2.834 -0.1997 -0.1024  0.7759
  716MOL0     C96551   9.552   3.467   2.930 -0.0373 -0.3925 -0.4074
  716MOL0     C96552   9.535   3.524   3.057  0.2148 -0.0728 -0.6152
  716MOL0     C96553   9.440   3.452   3.150  0.2380 -1.1554  0.4882
  716MOL0     C96554   9.597   3.656   3.084  0.5434  0.6217  0.1696
  716MOL0     C96555   9.560   3.737   3.205 -0.2046 -0.3256 -0.2938
  716MOL0     O96556   9.611   3.865   3.203 -0.1296 -0.2312  0.3373
  716MOL0     C96557   9.566   3.948   3.297 -0.3396 -0.9952 -0.1027
  716MOL0     C96558   9.492   4.054   3.254 -0.4647 -0.1905 -0.5430
  716MOL0     C96559   9.465   4.161   3.345  0.1550  0.1468 -0.1278
  716MOL0     C96560   9.494   4.152   3.477  0.0081  0.6435  0.0464
  716MOL0     O96561   9.454   4.235   3.579 -0.3467  0.6910 -0.3993
  716MOL0     C96562   9.372   4.344   3.553 -0.3139  0.6783 -0.5501
  716MOL0     C96563   9.392   4.441   3.657 -0.0551 -0.7872 -0.0459
  716MOL0     C96564   9.297   4.567   3.647  0.0386 -0.0652  0.6770
  716MOL0     C96565   9.308   4.658   3.775  0.9911 -0.4245 -0.1944
  716MOL0     C96566   9.191   4.755   3.767  0.1324 -1.3402 -0.0904
  716MOL0     C96567   9.158   4.819   3.906 -0.7739  0.0221  0.1181
  716MOL0     C96568   9.043   4.911   3.893  0.9999  0.5547  0.7772
  716MOL0     C96569   8.991   4.962   4.026  0.5937 -0.5112 -0.0103
  716MOL0    Cl96570   8.843   5.076   3.983 -0.7093  0.0321 -0.5326
  716MOL0     C96571   9.581   4.045   3.513 -0.4711 -0.7671  0.8728
  716MOL0     C96572   9.613   3.940   3.425  0.6690 -0.3057  0.0676
  716MOL0     O96573   9.497   3.683   3.295 -0.6599 -0.5983  0.4156
  716MOL0     C96574   9.680   3.712   2.985  0.1983 -1.0857  0.3825
  716MOL0     C96575   9.684   3.656   2.861 -0.8566  0.5249  0.0371
  716MOL0     N96576   9.664   3.568   2.095 -0.5208  0.4722  0.3487
  716MOL0     N96577   9.741   3.636   2.009 -0.0446  0.1205  0.1964
  716MOL0     C96578  10.311   4.475   2.074  0.2777  0.2568 -0.0688
  716MOL0     C96579  10.281   4.576   2.171 -0.5799 -0.2360 -0.6824
  716MOL0     C96580  10.141   4.888   2.444 -0.6099  0.0629 -0.0307
  716MOL0     C96581  10.163   5.011   2.376 -0.3883 -0.9667  0.1997
  716MOL0     C96582  10.169   5.139   2.453  0.1702 -0.6135  0.5951
  716MOL0     C96583  10.155   5.144   2.590 -0.3974 -0.0469  0.1415
  716MOL0     O96584  10.146   5.249   2.680  0.2854 -0.2248  0.0662
  716MOL0     C96585  10.191   5.378   2.638  1.0792 -0.8058  0.1216
  716MOL0     C96586  10.130   5.481   2.736 -0.7752 -0.7508 -0.1007
  716MOL0     C96587  10.131   5.622   2.665 -0.5955  0.2740 -0.0452
  716MOL0     C96588  10.095   5.740   2.769  0.6161  1.4903  0.1244
  716MOL0     C96589  10.051   5.861   2.687 -0.7444  0.7678  0.7070
  716MOL0     C96590  10.020   5.950   2.619  0.0495  0.4559  0.2432
  716MOL0     C96591  10.125   5.016   2.652  0.6525 -0.8844  0.4737
  716MOL0     C96592  10.117   4.894   2.583 -1.3894 -0.6910  0.1322
  716MOL0     H96593  10.009   4.720   2.050 -0.2651 -1.0630 -0.7432
  716MOL0     H96594  10.041   4.543   1.879  0.3864 -5.7595 -1.5562
  716MOL0     H96595  10.424   4.293   1.842 -0.1143  0.6544  0.0639
  716MOL0     H96596  10.339   4.222   1.980  0.6451 -0.5646 -0.0317
  716MOL0     H96597  10.298   4.174   1.683 -3.1008  3.2351  0.6861
  716MOL0     H96598  10.359   4.053   1.798 -0.6456 -0.5968  2.4019
  716MOL0     H96599  10.089   4.169   1.762  2.8685  0.9156 -2.9053
  716MOL0     H96600  10.122   4.010   1.734 -0.3334  0.0897  0.5657
  716MOL0     H96601  10.210   3.958   1.973  2.8279  1.9675  0.2870
  716MOL0     H96602  10.130   4.110   2.029  0.9894  0.1700 -0.6782
  716MOL0     H96603   9.918   4.039   1.949  1.1606 -0.6543 -2.5267
  716MOL0     H96604   9.985   3.904   1.876 -0.1773 -3.0009  1.5271
  716MOL0     H96605  10.018   3.929   2.171 -0.7057 -1.0566  0.9632
  716MOL0     H96606   9.874   3.855   2.088  0.3333  1.3695 -1.4146
  716MOL0     H96607  10.157   3.754   2.033 -0.3408  1.8729  0.7542
  716MOL0     H96608  10.059   3.701   2.164  1.2419  1.5253  0.9386
  716MOL0     H96609  10.060   3.573   1.919 -2.5183 -1.3765 -3.1388
  716MOL0     H96610   9.957   3.700   1.864  0.2644 -4.0997 -2.5975
  716MOL0     H96611   9.954   3.429   2.144 -0.8115  0.8337  1.8533
  716MOL0     H96612   9.625   3.309   2.206  1.3394 -1.6353 -2.7243
  716MOL0     H96613   9.792   3.297   2.273  1.0914  1.7381 -0.2358
  716MOL0     H96614   9.578   3.481   2.372  0.9828  0.7273 -0.7574
  716MOL0     H96615   9.739   3.506   2.422  1.9571 -0.6337 -0.6954
  716MOL0     H96616   9.766   3.307   2.544 -1.4074 -1.2504  3.0458
  716MOL0     H96617   9.616   3.232   2.490 -2.1851  0.5231 -0.5359
  716MOL0     H96618   9.557   3.300   2.700 -2.2467 -0.2419 -0.3739
  716MOL0     H96619   9.482   3.425   2.619 -0.9178  0.1654  4.0815
  716MOL0     H96620   9.511   3.368   2.912  0.9062 -1.3540  2.3071
  716MOL0     H96621   9.368   3.522   3.193  2.1314  1.5298 -0.4446
  716MOL0     H96622   9.376   3.383   3.095  0.5572 -0.7105 -0.4633
  716MOL0     H96623   9.491   3.400   3.232  0.7823  1.9569  2.2992
  716MOL0     H96624   9.469   4.072   3.150  0.8576 -1.9239 -1.1786
  716MOL0     H96625   9.410   4.243   3.299 -0.6234  0.8386  1.9259
  716MOL0     H96626   9.406   4.391   3.460  0.2115 -0.2897 -0.8596
  716MOL0     H96627   9.272   4.304   3.541 -0.6549  2.0968 -3.1750
  716MOL0     H96628   9.382   4.394   3.755 -4.1661  0.2706  0.2261
  716MOL0     H96629   9.490   4.487   3.660 -2.2302  4.4857  0.8313
  716MOL0     H96630   9.194   4.533   3.633  0.4728 -1.3813  0.5020
  716MOL0     H96631   9.331   4.626   3.561 -3.4965 -0.5100 -1.2211
  716MOL0     H96632   9.310   4.599   3.867 -1.6829  0.1695  0.3079
  716MOL0     H96633   9.402   4.713   3.791  1.1708 -0.6017 -0.6072
  716MOL0     H96634   9.099   4.709   3.729 -0.7465 -0.6065  1.0849
  716MOL0     H96635   9.214   4.837   3.697  0.7069 -1.4374 -0.0183
  716MOL0     H96636   9.137   4.740   3.978  1.4038 -0.1526  0.6297
  716MOL0     H96637   9.249   4.865   3.944 -1.3679 -0.9612  2.9767
  716MOL0     H96638   8.966   4.843   3.856  3.8466 -1.4975 -1.7661
  716MOL0     H96639   9.070   4.991   3.824  2.2854 -0.7519 -0.2638
  716MOL0     H96640   9.061   5.025   4.082 -2.1081  2.3353  0.4958
  716MOL0     H96641   8.946   4.889   4.093  1.0692 -0.0419  0.8312
  716MOL0     H96642   9.618   4.038   3.615  3.5161  1.0778 -0.2743
  716MOL0     H96643   9.686   3.862   3.447  1.0629  0.7583  2.9567
  716MOL0     H96644   9.733   3.801   3.016  2.9437 -1.7787 -1.8856
  716MOL0     H96645   9.757   3.701   2.794  0.2444 -1.1379  0.0613
  716MOL0     H96646  10.412   4.438   2.089 -0.5641 -1.5723  1.5366
  716MOL0     H96647  10.356   4.602   2.245  2.4421  1.4074 -4.0096
  716MOL0     H96648  10.183   5.016   2.269 -3.9842 -1.1594 -0.6129
  716MOL0     H96649  10.198   5.231   2.404  1.3199 -1.3618 -0.1601
  716MOL0     H96650  10.300   5.368   2.626  0.8349 -1.7813 -1.4526
  716MOL0     H96651  10.151   5.401   2.539 -0.7588 -0.8907  0.8086
  716MOL0     H96652  10.192   5.480   2.826 -2.3809 -1.8696  1.0563
  716MOL0     H96653  10.026   5.454   2.755 -1.0146 -1.4092 -2.1416
  716MOL0     H96654  10.048   5.619   2.594  1.3309 -0.8428 -2.3867
  716MOL0     H96655  10.230   5.641   2.622 -0.8401  0.7358 -0.4158
  716MOL0     H96656  10.186   5.763   2.826  1.2380 -2.5659  1.1175
  716MOL0     H96657  10.019   5.705   2.840 -0.5364  1.7989 -0.9296
  716MOL0     H96658   9.992   6.032   2.556  2.9135  0.0005 -1.8246
  716MOL0     H96659  10.103   5.030   2.757 -1.0920 -1.0979  0.1665
  716MOL0     H96660  10.103   4.807   2.647  2.1789 -2.9922 -1.8973
  717MOL0     O96661  10.595   3.252   3.797 -0.1817 -0.4189  0.1548
  717MOL0     C96662  10.491   3.211   3.751  0.3677  0.5123  0.0613
  717MOL0     O96663  10.477   3.097   3.674  0.0183  0.3579  0.1164
  717MOL0     C96664  10.577   3.011   3.627 -0.7849 -0.3163  0.1365
  717MOL0     C96665  10.537   2.891   3.579  0.1885 -0.0349 -0.7358
  717MOL0     C96666  10.629   2.793   3.537  0.6988  0.1314 -0.5038
  717MOL0     C96667  10.763   2.821   3.525  0.8345 -0.2526  0.3762
  717MOL0     O96668  10.837   2.708   3.486  0.2190 -0.1466 -0.0333
  717MOL0     C96669  10.978   2.727   3.499  0.1278 -0.6338 -0.3617
  717MOL0     C96670  11.051   2.619   3.422 -0.0636 -0.5440 -0.9580
  717MOL0     C96671  11.000   2.595   3.284  0.5239 -0.2824  0.4890
  717MOL0     C96672  10.906   2.476   3.259  0.0581  0.2837  0.6333
  717MOL0     C96673  10.877   2.443   3.110  0.6912  0.1317 -0.5636
  717MOL0     C96674  10.790   2.320   3.098  0.1861  0.6195  0.2550
  717MOL0     C96675  10.765   2.284   2.954  0.5065 -0.5134 -0.6833
  717MOL0     C96676  10.660   2.369   2.877  0.1190  0.0838  0.0216
  717MOL0     N96677  10.528   2.362   2.926  0.1683 -0.3105 -0.4084
  717MOL0     C96678  10.463   2.453   3.010 -0.3989  0.8033 -0.7051
  717MOL0     C96679  10.333   2.417   3.017 -0.0227  0.2049 -0.0012
  717MOL0     C96680  10.230   2.486   3.086  1.5056  0.8647  0.2649
  717MOL0     C96681  10.250   2.494   3.237  0.2675 -0.4447  0.5401
  717MOL0     C96682  10.108   2.448   3.290  0.3914 -0.1422 -0.0112
  717MOL0     C96683  10.084   2.473   3.444  0.9458 -0.1391  0.2991
  717MOL0     O96684  10.144   2.596   3.472 -0.9535 -0.0594 -0.2684
  717MOL0     C96685  10.120   2.628   3.602 -0.0181 -0.4457  1.1257
  717MOL0     C96686  10.221   2.678   3.681 -0.6885  0.8066 -0.1422
  717MOL0     C96687  10.204   2.760   3.785 -1.0765 -0.2096  0.3985
  717MOL0     C96688  10.333   2.794   3.871  0.3371 -0.1020  0.0029
  717MOL0     C96689  10.069   2.797   3.819  0.1865  0.3369 -0.1904
  717MOL0     C96690  10.033   2.899   3.927  0.3755 -0.2167 -0.2793
  717MOL0     O96691   9.898   2.907   3.946  0.0817 -1.2741 -0.3182
  717MOL0     C96692   9.853   2.971   4.060 -0.5139 -0.1365 -0.4995
  717MOL0     C96693   9.780   3.098   4.050 -0.8594 -0.1877 -0.8518
  717MOL0     C96694   9.724   3.158   4.166  0.6157 -0.3166 -0.0403
  717MOL0     C96695   9.745   3.095   4.292  0.8632  0.2522 -0.2446
  717MOL0     O96696   9.701   3.131   4.419  0.3099  0.1417 -0.0150
  717MOL0     C96697   9.626   3.252   4.445 -0.1903  0.0756 -1.2179
  717MOL0     C96698   9.499   3.212   4.531 -0.9165  0.2798 -1.1140
  717MOL0     C96699   9.432   3.339   4.573  0.5444  0.2113 -0.4791
  717MOL0     C96700   9.318   3.329   4.674  0.2997  0.0722  0.0194
  717MOL0     C96701   9.257   3.458   4.717  0.1606  0.2759  0.4720
  717MOL0     C96702   9.112   3.474   4.659  0.1433 -0.2902  0.4794
  717MOL0     C96703   9.054   3.615   4.697 -0.5240  0.1327 -0.1634
  717MOL0     C96704   8.918   3.654   4.624  0.0026 -0.1721 -0.2707
  717MOL0    Cl96705   8.781   3.548   4.646 -0.1869  0.4883  0.0607
  717MOL0     C96706   9.822   2.973   4.295  0.1102 -1.2815 -0.5902
  717MOL0     C96707   9.875   2.909   4.177  1.7058  0.3356  0.4748
  717MOL0     O96708  10.116   2.977   3.978  0.0298  0.4487  0.7183
  717MOL0     C96709   9.964   2.736   3.750  1.2334  0.4023  0.1121
  717MOL0     C96710   9.985   2.656   3.633 -0.0673 -0.2934 -0.4022
  717MOL0     N96711  10.317   2.302   2.941  0.1002  0.3930 -0.1085
  717MOL0     N96712  10.428   2.284   2.879 -0.2466  0.4191 -0.8067
  717MOL0     C96713  10.810   2.957   3.559  0.0877  0.8612 -0.0628
  717MOL0     C96714  10.716   3.044   3.616 -0.8323  1.4924  0.2246
  717MOL0     C96715  10.364   3.280   3.791 -0.9807 -0.5075 -1.0989
  717MOL0     C96716  10.378   3.408   3.858  0.8609  0.2615 -0.7902
  717MOL0     C96717  10.256   3.477   3.884  0.0051 -1.1018 -0.6916
  717MOL0     C96718  10.128   3.435   3.859  0.7267 -0.3576  0.2437
  717MOL0     O96719  10.024   3.507   3.903 -0.0743  0.2998  0.6693
  717MOL0     C96720   9.900   3.481   3.839 -0.2478 -1.0621  0.7424
  717MOL0     C96721   9.787   3.570   3.877  0.2399 -0.2782 -0.4442
  717MOL0     C96722   9.812   3.721   3.858 -0.5554 -0.4515 -0.6557
  717MOL0     C96723   9.820   3.747   3.707  0.3070  0.5808 -0.2948
  717MOL0     C96724   9.856   3.889   3.684 -0.3551  0.8508 -0.2153
  717MOL0     C96725   9.856   4.009   3.661 -0.9171 -0.0006  0.1103
  717MOL0     C96726  10.118   3.313   3.792  0.1124  0.0528  0.6760
  717MOL0     C96727  10.237   3.244   3.754 -0.9373 -0.6390  0.6671
  717MOL0     H96728  10.429   2.885   3.571 -0.4027  1.3553  3.5200
  717MOL0     H96729  10.589   2.697   3.506 -0.3170  0.8584 -1.5164
  717MOL0     H96730  11.012   2.824   3.462 -3.0933  1.0287  0.5892
  717MOL0     H96731  11.014   2.719   3.602  2.5462  1.1428 -0.9866
  717MOL0     H96732  11.158   2.641   3.421  0.0274 -0.9795 -0.9909
  717MOL0     H96733  11.039   2.526   3.478  0.3153  0.1623  0.3238
  717MOL0     H96734  10.963   2.695   3.258  1.4272  0.2787  1.2685
  717MOL0     H96735  11.087   2.574   3.221  0.2608 -2.5552  0.8014
  717MOL0     H96736  10.953   2.384   3.296  6.1906  0.3888 -5.0610
  717MOL0     H96737  10.817   2.502   3.317  0.6876  2.5761  0.6631
  717MOL0     H96738  10.830   2.530   3.062  0.7817  1.9981  2.4440
  717MOL0     H96739  10.974   2.432   3.060 -0.2680  0.0520 -2.5119
  717MOL0     H96740  10.829   2.239   3.160  1.1477  0.5440 -0.4245
  717MOL0     H96741  10.687   2.341   3.130 -0.5895  4.0381 -3.5757
  717MOL0     H96742  10.854   2.297   2.892 -0.6532  3.5518 -1.8343
  717MOL0     H96743  10.738   2.178   2.948 -0.0460 -0.3591 -1.0273
  717MOL0     H96744  10.646   2.342   2.772 -2.0980 -1.3123  0.6131
  717MOL0     H96745  10.691   2.474   2.877  2.3913 -0.5160 -1.2762
  717MOL0     H96746  10.513   2.532   3.066  1.4418 -0.4219 -0.5107
  717MOL0     H96747  10.237   2.582   3.035 -3.0200 -0.2653 -3.1519
  717MOL0     H96748  10.132   2.444   3.059  0.8450  2.2489  0.4352
  717MOL0     H96749  10.260   2.599   3.266 -1.4105 -0.1743  0.2510
  717MOL0     H96750  10.321   2.426   3.285  1.6032 -0.1387 -0.9616
  717MOL0     H96751  10.081   2.345   3.267  1.7667 -0.4585 -0.3175
  717MOL0     H96752  10.030   2.516   3.254 -0.5514 -0.5242  1.2573
  717MOL0     H96753  10.133   2.393   3.501  0.6268 -0.2062  0.4852
  717MOL0     H96754   9.977   2.472   3.470  0.4878 -0.0126 -1.4594
  717MOL0     H96755  10.321   2.666   3.641 -0.3462  2.2991  0.1798
  717MOL0     H96756  10.401   2.709   3.865  0.7151  0.2580 -0.9537
  717MOL0     H96757  10.370   2.893   3.842  0.3687 -0.1041  0.0371
  717MOL0     H96758  10.298   2.807   3.974 -0.6800  1.3855 -0.4882
  717MOL0     H96759   9.771   3.149   3.954 -1.0482  2.4247  0.4652
  717MOL0     H96760   9.672   3.253   4.154  1.7309  0.3491  0.2961
  717MOL0     H96761   9.686   3.327   4.496 -2.9142  3.4495 -2.5833
  717MOL0     H96762   9.581   3.297   4.356 -0.3899 -2.0708 -2.2733
  717MOL0     H96763   9.446   3.146   4.462  1.9374 -0.9647 -2.2851
  717MOL0     H96764   9.542   3.153   4.614 -3.0337  1.7828  1.2088
  717MOL0     H96765   9.399   3.379   4.477  0.1694  4.1907  1.1049
  717MOL0     H96766   9.507   3.407   4.614  0.5392 -0.8654  1.4126
  717MOL0     H96767   9.240   3.261   4.639  0.4889 -1.1429  1.8059
  717MOL0     H96768   9.364   3.275   4.758  2.3230 -0.7391 -1.5423
  717MOL0     H96769   9.311   3.541   4.670 -1.2073 -0.3182 -2.3800
  717MOL0     H96770   9.263   3.458   4.826  0.7899 -1.9539  0.4951
  717MOL0     H96771   9.113   3.469   4.550 -0.5785  2.6148  0.2593
  717MOL0     H96772   9.048   3.393   4.694 -1.6480  0.4562 -0.9233
  717MOL0     H96773   9.125   3.697   4.688 -2.0655  1.3104 -2.4371
  717MOL0     H96774   9.032   3.611   4.804 -3.2343 -1.0218 -0.6682
  717MOL0     H96775   8.931   3.640   4.517 -0.4414 -2.1424 -0.1132
  717MOL0     H96776   8.883   3.754   4.653 -0.1162 -0.7832  1.8954
  717MOL0     H96777   9.837   2.930   4.393 -3.0230 -2.2011 -0.3963
  717MOL0     H96778   9.921   2.811   4.174  0.0312 -0.5333  1.4206
  717MOL0     H96779   9.862   2.759   3.777  0.2706 -3.2932  0.2424
  717MOL0     H96780   9.897   2.616   3.584  0.7532 -3.4032  0.4255
  717MOL0     H96781  10.911   2.993   3.544  0.6723 -1.6742 -3.3779
  717MOL0     H96782  10.741   3.147   3.639  3.8061  0.6292  0.0036
  717MOL0     H96783  10.472   3.463   3.868 -1.0939  4.1269 -1.8092
  717MOL0     H96784  10.265   3.574   3.932 -1.9195  0.4149 -3.1662
  717MOL0     H96785   9.914   3.488   3.731  1.3917  1.4425  1.0476
  717MOL0     H96786   9.861   3.383   3.869  0.8568 -0.6481  3.9299
  717MOL0     H96787   9.767   3.541   3.981 -1.2339 -0.4631 -0.7593
  717MOL0     H96788   9.699   3.536   3.822  1.3491 -1.0329 -1.8270
  717MOL0     H96789   9.904   3.760   3.902  0.5959 -0.2539 -3.0903
  717MOL0     H96790   9.722   3.771   3.898  0.1759 -1.6449  2.8404
  717MOL0     H96791   9.722   3.726   3.662 -0.9888  1.8958  1.7883
  717MOL0     H96792   9.891   3.683   3.655  0.9277  0.0322  1.1827
  717MOL0     H96793   9.869   4.113   3.635  0.8597 -0.6129 -1.6969
  717MOL0     H96794  10.026   3.260   3.770  1.0592 -0.3597 -2.9981
  717MOL0     H96795  10.231   3.149   3.701  0.5187 -0.6596  0.5036
  718MOL0     O96796  10.509   3.896   5.824 -0.0854  1.1129 -0.7634
  718MOL0     C96797  10.497   3.908   5.701 -0.1790  0.5557  0.5709
  718MOL0     O96798  10.432   3.814   5.624  1.1085 -0.4602 -0.0817
  718MOL0     C96799  10.369   3.714   5.695  0.4623 -0.0148 -0.5588
  718MOL0     C96800  10.429   3.590   5.705 -0.5581  0.8871 -0.1126
  718MOL0     C96801  10.379   3.477   5.757  0.7617  0.0323  0.7100
  718MOL0     C96802  10.245   3.492   5.799  1.0314 -0.0478 -0.2673
  718MOL0     O96803  10.167   3.391   5.854 -0.2100  0.2045  0.2053
  718MOL0     C96804  10.214   3.260   5.839  0.2542 -0.1176  0.7650
  718MOL0     C96805  10.207   3.206   5.691 -0.0113  0.1286 -0.9617
  718MOL0     C96806  10.170   3.060   5.682 -0.5748  1.0150  0.6106
  718MOL0     C96807  10.245   2.964   5.772 -0.0989  0.6097 -0.0810
  718MOL0     C96808  10.206   2.819   5.737  0.6150 -0.5806  0.0265
  718MOL0     C96809  10.071   2.771   5.796  0.3263  0.4751 -0.8536
  718MOL0     C96810  10.066   2.621   5.763  0.2704 -0.1736  0.5769
  718MOL0     C96811   9.923   2.580   5.782  0.8746 -0.3583 -0.2061
  718MOL0     N96812   9.829   2.647   5.687 -0.0242 -0.3449  0.6985
  718MOL0     C96813   9.838   2.643   5.546 -0.8111  0.1650 -0.3224
  718MOL0     C96814   9.747   2.732   5.503  0.0198  0.1013 -0.8234
  718MOL0     C96815   9.727   2.751   5.353  0.5811 -0.8861 -0.6747
  718MOL0     C96816   9.685   2.627   5.277  0.4902  0.1893 -0.8320
  718MOL0     C96817   9.623   2.675   5.153  0.2487 -1.3567  0.0514
  718MOL0     C96818   9.602   2.556   5.061 -0.1509  0.7938 -0.2752
  718MOL0     O96819   9.520   2.598   4.950  0.6113  0.4685 -1.0444
  718MOL0     C96820   9.509   2.513   4.837  0.2404 -0.9237  0.1063
  718MOL0     C96821   9.413   2.537   4.741 -0.3834 -0.3451  1.1962
  718MOL0     C96822   9.391   2.452   4.628  0.4536 -0.0608  0.5711
  718MOL0     C96823   9.269   2.484   4.538 -0.9436  0.0939 -1.2051
  718MOL0     C96824   9.480   2.336   4.606  0.0830 -0.4018  0.9970
  718MOL0     C96825   9.468   2.257   4.490  0.4508  0.0659 -0.1469
  718MOL0     O96826   9.437   2.326   4.371  0.1770  0.2770 -0.1679
  718MOL0     C96827   9.438   2.250   4.263 -0.6774  0.3087  0.4483
  718MOL0     C96828   9.312   2.209   4.206 -0.8487 -1.0705  0.3049
  718MOL0     C96829   9.311   2.147   4.082 -0.3408  0.7292 -0.7721
  718MOL0     C96830   9.431   2.117   4.018 -0.5961 -0.5841  0.0459
  718MOL0     O96831   9.439   2.068   3.887 -0.2585  0.2204 -0.8542
  718MOL0     C96832   9.326   2.037   3.821 -0.7319  0.2402 -0.0969
  718MOL0     C96833   9.364   1.945   3.701  0.1813 -0.5470 -0.0895
  718MOL0     C96834   9.478   1.842   3.736  0.3452 -0.6042  1.1441
  718MOL0     C96835   9.486   1.730   3.625  0.1014 -0.0378 -0.0246
  718MOL0     C96836   9.602   1.626   3.646 -0.7590  0.0497  0.5624
  718MOL0     C96837   9.601   1.533   3.772 -0.4443  0.3403 -0.0547
  718MOL0     C96838   9.467   1.469   3.792 -0.2931 -0.6192 -0.0326
  718MOL0     C96839   9.453   1.375   3.907 -1.2158 -0.2746 -0.2534
  718MOL0    Cl96840   9.519   1.444   4.058  0.4897 -0.3614 -0.0311
  718MOL0     C96841   9.547   2.135   4.084 -0.1280  0.7645  0.8797
  718MOL0     C96842   9.555   2.205   4.202  0.1085  0.7200 -0.0687
  718MOL0     O96843   9.469   2.133   4.509 -0.0517 -0.3163 -0.7366
  718MOL0     C96844   9.585   2.318   4.693 -0.3958  0.0690  0.1985
  718MOL0     C96845   9.590   2.404   4.807  0.4811  0.9044 -0.4464
  718MOL0     N96846   9.681   2.787   5.608  0.5779 -0.0396  0.4528
  718MOL0     N96847   9.736   2.743   5.722  0.0260 -0.1487  0.9134
  718MOL0     C96848  10.175   3.616   5.806 -0.3108 -0.3261 -0.6390
  718MOL0     C96849  10.246   3.724   5.756  1.0789  0.8599  0.6270
  718MOL0     C96850  10.552   4.021   5.624 -1.0753  0.7551 -0.0174
  718MOL0     C96851  10.543   4.018   5.487  0.6083 -0.1496 -0.5469
  718MOL0     C96852  10.596   4.121   5.410 -0.4975  0.0377  0.5061
  718MOL0     C96853  10.663   4.230   5.468 -1.0949  0.2222 -0.2214
  718MOL0     O96854  10.704   4.342   5.408  0.8120 -0.5549 -0.1199
  718MOL0     C96855  10.757   4.329   5.276 -0.3083 -0.1753 -0.5491
  718MOL0     C96856  10.892   4.258   5.263 -1.0194  0.0493 -0.3362
  718MOL0     C96857  11.011   4.356   5.307 -0.6152  0.3330 -0.7865
  718MOL0     C96858  11.150   4.289   5.330 -0.3732  0.6307  0.8829
  718MOL0     C96859  11.247   4.393   5.363  0.4124  0.0768 -0.3630
  718MOL0     C96860  11.326   4.474   5.406  0.4930 -0.4312 -0.1707
  718MOL0     C96861  10.687   4.223   5.612  0.1788  0.5018 -0.5827
  718MOL0     C96862  10.627   4.120   5.690 -0.9088  0.4272  0.5565
  718MOL0     H96863  10.528   3.592   5.660 -0.5825  1.8202 -0.1462
  718MOL0     H96864  10.431   3.383   5.770 -0.0357 -0.2446  2.2193
  718MOL0     H96865  10.315   3.267   5.880  0.3549  2.9872  0.2496
  718MOL0     H96866  10.142   3.202   5.897 -0.6290  1.8812  1.7524
  718MOL0     H96867  10.130   3.257   5.633 -0.6111 -1.3342 -1.5270
  718MOL0     H96868  10.300   3.219   5.636  1.3760 -1.8104  0.7647
  718MOL0     H96869  10.070   3.059   5.724 -0.5700  2.9946  0.7990
  718MOL0     H96870  10.166   3.023   5.579  3.1515  1.2469  0.2461
  718MOL0     H96871  10.353   2.986   5.770 -0.1455  0.8280 -0.2937
  718MOL0     H96872  10.200   2.978   5.870 -0.1926  0.5528 -0.1156
  718MOL0     H96873  10.197   2.817   5.628 -3.6031 -1.7439  0.2310
  718MOL0     H96874  10.290   2.752   5.758 -0.1769 -2.1315 -1.4737
  718MOL0     H96875  10.075   2.791   5.903 -1.9012 -1.1591 -0.3934
  718MOL0     H96876   9.984   2.824   5.757  0.6845  1.3284 -0.5065
  718MOL0     H96877  10.115   2.599   5.667 -3.0172 -1.5082 -0.9283
  718MOL0     H96878  10.112   2.562   5.843  0.0438 -0.3840  0.5503
  718MOL0     H96879   9.897   2.606   5.885  0.5324 -2.7609  0.3630
  718MOL0     H96880   9.922   2.471   5.776 -1.9772 -0.5443  1.5341
  718MOL0     H96881   9.922   2.602   5.491 -0.1943  2.9451 -1.5910
  718MOL0     H96882   9.655   2.833   5.345 -0.6984 -1.7966  0.7725
  718MOL0     H96883   9.819   2.779   5.301  0.3027 -0.1325 -0.7691
  718MOL0     H96884   9.605   2.565   5.317 -3.7000  1.7871 -5.7146
  718MOL0     H96885   9.770   2.559   5.266  0.0351 -1.0615  2.2975
  718MOL0     H96886   9.684   2.756   5.112 -2.8306  2.5505  2.4450
  718MOL0     H96887   9.526   2.725   5.163  0.4413 -1.1895  1.2224
  718MOL0     H96888   9.557   2.470   5.112 -0.5295  1.0053 -0.2446
  718MOL0     H96889   9.701   2.520   5.034 -0.7076 -3.2112  2.0879
  718MOL0     H96890   9.338   2.615   4.753 -0.8934 -0.9264  1.9216
  718MOL0     H96891   9.306   2.538   4.450  1.3687  2.1684  0.8699
  718MOL0     H96892   9.218   2.394   4.502 -1.0128 -0.4096  0.1282
  718MOL0     H96893   9.201   2.539   4.603 -0.7583  1.4012 -2.0644
  718MOL0     H96894   9.214   2.251   4.229 -2.6199 -4.2716 -0.7357
  718MOL0     H96895   9.223   2.103   4.037  1.4420 -1.7106 -2.1110
  718MOL0     H96896   9.245   1.979   3.867 -1.2055 -2.5710 -3.9139
  718MOL0     H96897   9.279   2.119   3.765 -1.5749 -2.6723 -4.1338
  718MOL0     H96898   9.263   1.914   3.676 -1.6258  3.6792  1.0926
  718MOL0     H96899   9.403   2.020   3.631  0.1715 -0.7290 -0.2896
  718MOL0     H96900   9.459   1.795   3.833 -0.4588 -0.4893  1.0479
  718MOL0     H96901   9.575   1.890   3.755 -0.5627  1.3803  1.0424
  718MOL0     H96902   9.394   1.671   3.619  0.1653 -0.1471  0.0546
  718MOL0     H96903   9.504   1.788   3.534 -0.3351  1.3679  0.7568
  718MOL0     H96904   9.695   1.683   3.652 -1.0618  0.9523 -2.0662
  718MOL0     H96905   9.591   1.566   3.555  0.1486  0.9764 -0.1802
  718MOL0     H96906   9.681   1.459   3.763  0.2210  1.0651 -0.2917
  718MOL0     H96907   9.624   1.590   3.863 -0.5614 -0.9063  0.7691
  718MOL0     H96908   9.446   1.413   3.700  2.4257 -1.0846 -0.4431
  718MOL0     H96909   9.395   1.551   3.805  1.3381  0.7313  0.8111
  718MOL0     H96910   9.497   1.277   3.888 -1.5874 -0.5848  0.4546
  718MOL0     H96911   9.344   1.365   3.900 -1.6117  3.0934 -0.8310
  718MOL0     H96912   9.639   2.101   4.037  0.1971 -1.2351  2.7982
  718MOL0     H96913   9.655   2.232   4.235  0.7375 -0.6263 -0.8245
  718MOL0     H96914   9.657   2.238   4.676 -1.3589 -0.3443 -2.3955
  718MOL0     H96915   9.678   2.369   4.859  1.8819 -0.3393 -3.3937
  718MOL0     H96916  10.074   3.635   5.842 -0.8581 -1.3496 -1.5908
  718MOL0     H96917  10.200   3.818   5.783  0.3841  0.9210 -0.7296
  718MOL0     H96918  10.496   3.938   5.429 -1.2701  0.5647 -0.1002
  718MOL0     H96919  10.584   4.118   5.302  0.8016 -2.6453  0.3654
  718MOL0     H96920  10.697   4.273   5.204 -2.2518 -1.3127  1.8093
  718MOL0     H96921  10.770   4.437   5.263  1.2694  0.0276  2.0034
  718MOL0     H96922  10.904   4.240   5.156  1.4272  3.3773 -0.7668
  718MOL0     H96923  10.891   4.167   5.323  0.8204  1.1465  1.4892
  718MOL0     H96924  10.979   4.409   5.397 -1.3802  1.6255 -1.7789
  718MOL0     H96925  11.012   4.446   5.246  1.9910  1.1574  0.3081
  718MOL0     H96926  11.189   4.248   5.237  3.9961  3.8130  0.9917
  718MOL0     H96927  11.129   4.201   5.393 -3.1668  0.6641  0.1302
  718MOL0     H96928  11.402   4.539   5.444  2.4030 -2.1694 -0.8242
  718MOL0     H96929  10.739   4.307   5.658  0.1906  0.0114  0.3159
  718MOL0     H96930  10.628   4.136   5.798  0.2174  2.8898  0.2394
  719MOL0     O96931   6.602   4.689   2.127  1.2000  0.0685 -0.2366
  719MOL0     C96932   6.699   4.633   2.179 -0.8795 -0.0372 -0.4897
  719MOL0     O96933   6.821   4.697   2.202  0.2408  0.0477  1.1671
  719MOL0     C96934   6.816   4.841   2.194  0.1328  0.9170  0.2399
  719MOL0     C96935   6.784   4.910   2.312  0.2430 -1.7264  0.5167
  719MOL0     C96936   6.789   5.050   2.320  0.1791  0.8007  0.4090
  719MOL0     C96937   6.848   5.116   2.211 -0.7888  0.8027 -0.3859
  719MOL0     O96938   6.858   5.249   2.241 -0.1217  0.5729  0.1273
  719MOL0     C96939   6.972   5.306   2.180 -0.0244 -0.4620  0.4750
  719MOL0     C96940   7.017   5.441   2.249  0.8867 -0.7965  0.5441
  719MOL0     C96941   7.146   5.507   2.186 -0.5476  0.4550 -0.0545
  719MOL0     C96942   7.181   5.634   2.273 -1.7535 -0.2250 -0.5107
  719MOL0     C96943   7.301   5.719   2.227  1.3846  0.4954  0.4502
  719MOL0     C96944   7.279   5.858   2.274  0.0016 -0.3768  0.3182
  719MOL0     C96945   7.374   5.968   2.224  0.2863  0.3315 -0.5587
  719MOL0     C96946   7.515   5.978   2.287  0.9127  0.2186  1.1247
  719MOL0     N96947   7.609   5.892   2.209 -0.8854  0.3243  1.2136
  719MOL0     C96948   7.634   5.904   2.072 -0.7079  0.0126 -0.4579
  719MOL0     C96949   7.712   5.800   2.043  0.3268  0.8152  0.6415
  719MOL0     C96950   7.745   5.737   1.912 -0.1315  0.6475  0.9268
  719MOL0     C96951   7.632   5.751   1.806 -0.8912  0.1081  0.1394
  719MOL0     C96952   7.637   5.612   1.717 -0.0005  1.1382 -0.0511
  719MOL0     C96953   7.759   5.599   1.626  0.4927 -0.0766  0.6532
  719MOL0     O96954   7.780   5.724   1.559  0.4144 -0.3277  0.0296
  719MOL0     C96955   7.826   5.711   1.427  0.6979  0.0728 -0.2578
  719MOL0     C96956   7.741   5.685   1.320 -0.8110  0.1362 -0.0258
  719MOL0     C96957   7.782   5.689   1.190  0.2320 -0.8357  0.0251
  719MOL0     C96958   7.685   5.662   1.072  0.0104  1.0149 -0.2687
  719MOL0     C96959   7.924   5.712   1.168  0.6242  0.6678  0.7233
  719MOL0     C96960   7.990   5.711   1.033 -0.1422  0.2401 -0.3292
  719MOL0     O96961   8.124   5.678   1.043 -0.8544  0.0987  0.4003
  719MOL0     C96962   8.206   5.724   0.936  0.0977 -0.8198  0.1157
  719MOL0     C96963   8.216   5.861   0.912  0.1169 -0.5095  1.1291
  719MOL0     C96964   8.301   5.914   0.819 -0.2163  0.0218 -0.3895
  719MOL0     C96965   8.373   5.835   0.737  0.2931  0.0344  0.3295
  719MOL0     O96966   8.446   5.904   0.644 -0.1036 -0.0671  0.6244
  719MOL0     C96967   8.464   5.837   0.522 -0.6060  0.5954  0.2649
  719MOL0     C96968   8.466   5.914   0.386 -0.1478  0.1308  0.3124
  719MOL0     C96969   8.450   5.834   0.258  0.5619  0.1253  0.2486
  719MOL0     C96970   8.569   5.734   0.249  0.4027 -0.9953  0.3486
  719MOL0     C96971   8.572   5.686   0.100  1.0347  0.4037 -0.0169
  719MOL0     C96972   8.603   5.790  -0.009  0.7202  0.2528 -0.2630
  719MOL0     C96973   8.738   5.857  -0.004  0.9482  0.3646  0.1439
  719MOL0     C96974   8.773   5.968  -0.110 -0.1645  0.5057  0.4818
  719MOL0    Cl96975   8.935   6.033  -0.082  0.4989 -0.3870  0.1287
  719MOL0     C96976   8.359   5.696   0.747  0.1750  0.2465 -0.4998
  719MOL0     C96977   8.280   5.641   0.851 -0.2345  0.4052  0.6896
  719MOL0     O96978   7.936   5.737   0.922  0.4503  0.5730  0.6482
  719MOL0     C96979   7.999   5.743   1.276 -1.7506 -0.5657  0.1648
  719MOL0     C96980   7.952   5.744   1.402  0.0869  0.2670  0.0609
  719MOL0     N96981   7.728   5.724   2.157  0.4648 -0.0876 -0.0761
  719MOL0     N96982   7.671   5.779   2.250  0.0088  0.3484  1.0288
  719MOL0     C96983   6.897   5.053   2.098 -0.0974 -0.2836  0.7319
  719MOL0     C96984   6.875   4.911   2.090  0.3520  0.5685  0.5754
  719MOL0     C96985   6.690   4.490   2.216 -0.1786  0.2021 -0.6749
  719MOL0     C96986   6.811   4.422   2.259  0.0011  0.5616 -0.2591
  719MOL0     C96987   6.809   4.279   2.279 -0.3801 -0.6937 -0.4778
  719MOL0     C96988   6.692   4.209   2.266  0.0336 -0.5933 -0.2848
  719MOL0     O96989   6.710   4.080   2.300 -0.2009  0.8228 -0.3790
  719MOL0     C96990   6.597   4.009   2.338  0.8595  0.0625  1.1715
  719MOL0     C96991   6.640   3.890   2.416 -0.1097  0.1842 -0.0004
  719MOL0     C96992   6.640   3.920   2.565  1.0571  1.1283 -1.2870
  719MOL0     C96993   6.759   3.865   2.644 -0.5312 -0.5026  0.2478
  719MOL0     C96994   6.722   3.812   2.777  1.0246  0.1115 -0.2889
  719MOL0     C96995   6.694   3.772   2.896 -0.1683 -0.0908 -0.0241
  719MOL0     C96996   6.573   4.274   2.228  0.4468  0.4598  0.1458
  719MOL0     C96997   6.575   4.410   2.197 -0.0140 -0.5359  0.7663
  719MOL0     H96998   6.745   4.852   2.395 -1.4728 -0.4331  0.6684
  719MOL0     H96999   6.763   5.099   2.413  0.9279 -2.1807  2.3135
  719MOL0     H97000   7.056   5.236   2.191 -1.6130 -3.3593 -3.4115
  719MOL0     H97001   6.941   5.326   2.077  0.0401 -0.7619  0.3974
  719MOL0     H97002   6.934   5.511   2.239  0.8507 -0.9149 -0.0196
  719MOL0     H97003   7.023   5.425   2.357 -1.4050 -0.2776  0.8165
  719MOL0     H97004   7.221   5.427   2.198  0.7605  1.9398  2.4716
  719MOL0     H97005   7.135   5.543   2.083  1.2852  2.5130  0.4026
  719MOL0     H97006   7.089   5.692   2.260 -0.1927  2.0560 -2.0533
  719MOL0     H97007   7.195   5.608   2.379 -1.3329  1.0511 -0.2347
  719MOL0     H97008   7.391   5.670   2.267  0.4800 -0.6429  1.1331
  719MOL0     H97009   7.300   5.716   2.118  1.0655 -1.0257  0.4794
  719MOL0     H97010   7.180   5.898   2.249 -0.3690 -1.0605  0.6959
  719MOL0     H97011   7.292   5.853   2.382  0.2812 -2.8595  0.2204
  719MOL0     H97012   7.391   5.957   2.116  2.6153  0.0897 -0.2268
  719MOL0     H97013   7.325   6.064   2.243 -0.2545 -0.4887  2.7987
  719MOL0     H97014   7.504   5.953   2.393  1.4193  0.7786  1.3064
  719MOL0     H97015   7.554   6.078   2.269  3.2795 -0.4387  2.2690
  719MOL0     H97016   7.599   5.987   2.012 -0.5492  1.4115  1.2867
  719MOL0     H97017   7.829   5.798   1.878  0.0404  0.2223  0.5856
  719MOL0     H97018   7.773   5.632   1.924  1.2443  0.3635 -3.0674
  719MOL0     H97019   7.641   5.833   1.735 -0.5749 -0.5094 -0.5519
  719MOL0     H97020   7.536   5.773   1.855 -0.1971  0.4916  1.3648
  719MOL0     H97021   7.548   5.602   1.655 -1.1895 -3.6320  1.9467
  719MOL0     H97022   7.645   5.522   1.779 -0.3509  1.5767  0.6410
  719MOL0     H97023   7.746   5.523   1.548  1.8001  1.3853 -1.1156
  719MOL0     H97024   7.854   5.563   1.666 -0.1813 -2.0194  0.5743
  719MOL0     H97025   7.635   5.665   1.332 -1.5545  3.6500  0.3948
  719MOL0     H97026   7.726   5.592   0.998  1.3308  1.8340 -0.3470
  719MOL0     H97027   7.597   5.615   1.117  2.1592 -2.2624  0.8837
  719MOL0     H97028   7.654   5.752   1.019  2.1133  1.1153 -1.4716
  719MOL0     H97029   8.152   5.933   0.962  0.2169 -0.5828  1.3659
  719MOL0     H97030   8.311   6.021   0.804  2.0577 -0.1687 -0.5266
  719MOL0     H97031   8.554   5.777   0.532 -0.5071  0.8311  0.8036
  719MOL0     H97032   8.383   5.767   0.501 -0.9317  0.3852  2.0705
  719MOL0     H97033   8.388   5.991   0.382  0.3483  0.6257 -0.0547
  719MOL0     H97034   8.558   5.973   0.379 -0.6898  0.8842 -0.6669
  719MOL0     H97035   8.445   5.911   0.180 -1.9188 -0.7480 -0.5238
  719MOL0     H97036   8.354   5.782   0.263  1.3394 -1.6798 -2.0383
  719MOL0     H97037   8.664   5.781   0.272  0.3944  0.0023 -1.4592
  719MOL0     H97038   8.567   5.646   0.315  2.1197 -0.0784  1.6936
  719MOL0     H97039   8.481   5.629   0.081 -0.0517  2.6299 -1.9752
  719MOL0     H97040   8.657   5.618   0.108  2.8211  2.6684  2.1993
  719MOL0     H97041   8.592   5.757  -0.112  0.7986 -0.2822 -0.1013
  719MOL0     H97042   8.526   5.866   0.008 -0.1167 -1.1635  3.2474
  719MOL0     H97043   8.815   5.781  -0.012 -1.4559 -2.0216 -2.3788
  719MOL0     H97044   8.770   5.912   0.086  2.3015  0.4542 -0.3861
  719MOL0     H97045   8.700   6.048  -0.097  0.7315  1.8975 -2.2162
  719MOL0     H97046   8.749   5.942  -0.214  2.7274  1.7870 -0.6266
  719MOL0     H97047   8.407   5.629   0.676 -3.2118 -1.1721 -1.6490
  719MOL0     H97048   8.277   5.533   0.849  0.7116  0.3792 -1.1691
  719MOL0     H97049   8.107   5.750   1.275 -1.6835 -1.1379  1.2447
  719MOL0     H97050   8.013   5.760   1.490  0.4438  1.2231 -0.3451
  719MOL0     H97051   6.948   5.105   2.018  2.4162 -1.4650  1.4718
  719MOL0     H97052   6.905   4.853   2.004  0.6549  2.7007 -0.8283
  719MOL0     H97053   6.904   4.476   2.270  1.1645 -1.3995  0.1584
  719MOL0     H97054   6.907   4.236   2.292 -0.6643 -0.4045  3.7052
  719MOL0     H97055   6.526   4.073   2.392 -4.3186 -1.3643 -3.1157
  719MOL0     H97056   6.544   3.983   2.247 -1.3381 -0.9704  2.6659
  719MOL0     H97057   6.743   3.859   2.393 -0.6135 -2.2508  0.6954
  719MOL0     H97058   6.570   3.809   2.394 -1.3670  0.5023  2.4961
  719MOL0     H97059   6.547   3.882   2.607  1.7606  0.4656 -0.3072
  719MOL0     H97060   6.636   4.027   2.587  0.0662  0.2557  4.0237
  719MOL0     H97061   6.843   3.933   2.663 -0.3428  0.7414 -3.9521
  719MOL0     H97062   6.801   3.788   2.579  3.7160  2.5176 -1.0425
  719MOL0     H97063   6.675   3.740   2.997  0.7742 -0.2129  0.1177
  719MOL0     H97064   6.473   4.232   2.222  1.1006 -1.3777  1.3681
  719MOL0     H97065   6.476   4.442   2.166  0.3852  1.9952  1.8889
  720MOL0     O97066   5.510   6.332  11.415 -0.0239 -0.8638 -0.5595
  720MOL0     C97067   5.417   6.301  11.496 -0.4001 -0.1230  0.2479
  720MOL0     O97068   5.418   6.187  11.575 -0.1055 -1.3265  0.3576
  720MOL0     C97069   5.543   6.137  11.599  0.7807  0.4227  0.0797
  720MOL0     C97070   5.612   6.063  11.504 -0.0631 -0.1128  0.1954
  720MOL0     C97071   5.740   6.013  11.516 -0.5553 -0.7649  0.8803
  720MOL0     C97072   5.805   6.026  11.641  0.1793  0.0105 -0.7597
  720MOL0     O97073   5.930   5.973  11.643 -0.6906 -0.0999 -1.1649
  720MOL0     C97074   5.998   5.964  11.777  0.7076 -0.0173  0.8321
  720MOL0     C97075   6.078   6.083  11.804 -1.1730  0.1210  0.5865
  720MOL0     C97076   6.157   6.064  11.935 -0.7772  0.3659  0.1440
  720MOL0     C97077   6.296   5.995  11.923  0.5391 -0.2902 -0.3356
  720MOL0     C97078   6.364   5.965  12.060 -0.3537  0.5214 -1.2256
  720MOL0     C97079   6.489   5.871  12.042 -0.8115  0.3636 -0.5531
  720MOL0     C97080   6.568   5.866  12.176  0.0602  0.1496 -0.0266
  720MOL0     C97081   6.507   5.743  12.256 -0.3856 -0.6412 -0.1693
  720MOL0     N97082   6.550   5.613  12.208 -0.2095  0.4779  0.8671
  720MOL0     C97083   6.676   5.560  12.224  0.7985 -0.3859 -0.1389
  720MOL0     C97084   6.687   5.468  12.128  1.0109  0.1376 -0.7367
  720MOL0     C97085   6.809   5.373  12.105  0.2909 -0.3812 -0.9191
  720MOL0     C97086   6.853   5.363  11.963 -0.4369 -0.7012  0.4676
  720MOL0     C97087   6.949   5.255  11.936  0.2090  1.6273 -0.3883
  720MOL0     C97088   6.879   5.116  11.927 -0.7633  0.6434 -0.9601
  720MOL0     O97089   6.776   5.119  11.832 -0.6524  0.4363  0.7487
  720MOL0     C97090   6.779   5.016  11.748  0.5677 -0.2864  1.1984
  720MOL0     C97091   6.798   5.025  11.608  0.0619  0.9882  0.5173
  720MOL0     C97092   6.787   4.911  11.520 -0.3588 -0.1662 -0.2668
  720MOL0     C97093   6.782   4.942  11.372  0.5625 -0.5747  0.9334
  720MOL0     C97094   6.772   4.786  11.582 -0.7145 -0.5380 -0.4738
  720MOL0     C97095   6.752   4.656  11.509 -0.9337  0.2606  0.5517
  720MOL0     O97096   6.770   4.541  11.582  0.2861 -0.1671 -0.6309
  720MOL0     C97097   6.749   4.419  11.523  0.1457 -0.7206  0.4632
  720MOL0     C97098   6.687   4.385  11.396 -0.4858 -1.4482 -0.0126
  720MOL0     C97099   6.681   4.253  11.351 -0.4092  0.2989 -0.2834
  720MOL0     C97100   6.725   4.155  11.434  0.3243 -0.6543  0.7723
  720MOL0     O97101   6.713   4.029  11.386  0.6366  1.4133 -0.4551
  720MOL0     C97102   6.808   3.927  11.428  0.4544  0.5906 -0.3427
  720MOL0     C97103   6.754   3.837  11.537  0.5130 -0.0531  0.1483
  720MOL0     C97104   6.643   3.755  11.482  0.4316  0.2139  0.5941
  720MOL0     C97105   6.588   3.658  11.588  0.0156  0.6131  0.3664
  720MOL0     C97106   6.685   3.547  11.626  0.4072 -0.0257  0.2474
  720MOL0     C97107   6.744   3.460  11.509  0.2445 -0.0442  0.3673
  720MOL0     C97108   6.843   3.361  11.565 -0.2175  0.1198 -0.7050
  720MOL0     C97109   6.884   3.249  11.469 -0.9203 -0.2088  0.1772
  720MOL0    Cl97110   6.753   3.124  11.457 -0.0990 -0.0069 -0.4991
  720MOL0     C97111   6.779   4.186  11.558 -0.6399 -0.6931 -0.8591
  720MOL0     C97112   6.796   4.315  11.603 -0.4945  0.0356 -0.0899
  720MOL0     O97113   6.701   4.676  11.405 -0.0891 -0.3285  1.0251
  720MOL0     C97114   6.765   4.784  11.719  0.8290  0.3550 -0.4696
  720MOL0     C97115   6.760   4.891  11.800 -0.7994 -1.0131 -0.2545
  720MOL0     N97116   6.567   5.465  12.061 -0.1079  0.3721  0.2927
  720MOL0     N97117   6.494   5.553  12.107  1.5742 -0.5065 -0.0077
  720MOL0     C97118   5.728   6.091  11.745  0.2121  1.3818  0.1048
  720MOL0     C97119   5.604   6.156  11.722  0.0461 -0.2244 -0.9050
  720MOL0     C97120   5.287   6.357  11.458  0.0887  0.7264  0.1511
  720MOL0     C97121   5.163   6.285  11.468  1.1833 -0.0247  0.5741
  720MOL0     C97122   5.037   6.350  11.451  0.2506  0.4077 -0.0831
  720MOL0     C97123   5.030   6.471  11.392  0.3629 -0.0383  0.3635
  720MOL0     O97124   4.911   6.517  11.352  0.4922 -0.3915  0.9748
  720MOL0     C97125   4.883   6.654  11.311  0.3806 -0.0932  0.5965
  720MOL0     C97126   4.905   6.691  11.166 -1.2407 -0.4804 -0.5846
  720MOL0     C97127   4.813   6.607  11.084 -0.6178  1.0211  1.1821
  720MOL0     C97128   4.866   6.469  11.072  0.0770  0.8073  0.4690
  720MOL0     C97129   4.827   6.419  10.938 -0.5221  0.5455 -0.6517
  720MOL0     C97130   4.804   6.348  10.837 -0.2482 -0.5736 -0.4022
  720MOL0     C97131   5.155   6.526  11.366 -0.1144 -0.2669  0.6849
  720MOL0     C97132   5.278   6.484  11.396  0.3550 -0.1379 -0.1974
  720MOL0     H97133   5.557   6.058  11.411 -2.2128  0.1198  1.4015
  720MOL0     H97134   5.789   5.959  11.435 -2.0637 -0.5595 -0.1998
  720MOL0     H97135   5.926   5.945  11.857  1.1788 -1.7071  0.9174
  720MOL0     H97136   6.061   5.874  11.777 -1.1502 -1.3899 -0.1431
  720MOL0     H97137   6.149   6.100  11.723  0.8599  0.0667  2.2928
  720MOL0     H97138   6.016   6.173  11.808 -0.9531  0.4224 -1.7808
  720MOL0     H97139   6.174   6.166  11.968  3.3341  0.2220 -0.9865
  720MOL0     H97140   6.104   6.009  12.013  1.0333  0.1141  1.2556
  720MOL0     H97141   6.272   5.914  11.853  0.4697 -1.0042  0.5082
  720MOL0     H97142   6.359   6.070  11.874 -1.1223  2.2823  1.2149
  720MOL0     H97143   6.396   6.064  12.093  0.3636  1.5607 -4.6116
  720MOL0     H97144   6.299   5.924  12.137  0.5658  1.6521  0.2075
  720MOL0     H97145   6.483   5.781  11.981 -1.4651 -1.4010  1.9415
  720MOL0     H97146   6.544   5.938  11.976  0.4019 -0.0075  0.0498
  720MOL0     H97147   6.675   5.843  12.174 -0.0314 -0.6424  2.2367
  720MOL0     H97148   6.548   5.955  12.237 -5.1772 -0.7384 -0.0459
  720MOL0     H97149   6.398   5.753  12.251 -0.2485  0.5766 -1.8246
  720MOL0     H97150   6.537   5.734  12.361  1.2506 -4.3156 -0.8289
  720MOL0     H97151   6.747   5.597  12.297  0.1016  0.7455 -0.0051
  720MOL0     H97152   6.902   5.403  12.154  1.1215  0.3960 -2.8664
  720MOL0     H97153   6.784   5.275  12.146  3.5336 -0.6195  0.7823
  720MOL0     H97154   6.903   5.457  11.938  2.1273 -2.0002  0.3994
  720MOL0     H97155   6.762   5.362  11.902 -1.9582  1.2156  2.5201
  720MOL0     H97156   7.023   5.252  12.016  2.2734  1.5050 -2.1970
  720MOL0     H97157   7.005   5.263  11.842  0.8028  0.8423 -0.1238
  720MOL0     H97158   6.816   5.106  12.016  0.3737  1.9690  0.0223
  720MOL0     H97159   6.943   5.028  11.921  1.2329  2.0507 -1.1911
  720MOL0     H97160   6.813   5.124  11.567  3.6842  0.6211  0.5744
  720MOL0     H97161   6.853   4.872  11.327  2.5731 -0.7145  4.0300
  720MOL0     H97162   6.686   4.917  11.327  0.1489  0.9305  0.9276
  720MOL0     H97163   6.801   5.047  11.346 -0.5475 -0.5362  0.2260
  720MOL0     H97164   6.653   4.464  11.331  3.9482 -2.1314 -3.6114
  720MOL0     H97165   6.635   4.232  11.255 -0.8459 -1.2621  0.2276
  720MOL0     H97166   6.833   3.863  11.343  1.1777 -0.8185  0.8900
  720MOL0     H97167   6.895   3.973  11.474  0.6328  0.6075 -0.6967
  720MOL0     H97168   6.821   3.752  11.557 -0.3457 -0.8802 -0.4003
  720MOL0     H97169   6.719   3.896  11.621 -1.9108 -0.7812 -0.2922
  720MOL0     H97170   6.669   3.711  11.386  0.9897  1.2297  0.2613
  720MOL0     H97171   6.567   3.827  11.449  0.9686  1.6528  2.2906
  720MOL0     H97172   6.563   3.707  11.683  1.4579  1.3867  0.3743
  720MOL0     H97173   6.494   3.619  11.548  0.2545 -0.0426  0.4434
  720MOL0     H97174   6.633   3.479  11.693 -0.6989  0.8771  0.3321
  720MOL0     H97175   6.767   3.594  11.680  0.5084  1.7670 -1.3470
  720MOL0     H97176   6.657   3.409  11.465  0.1519  1.9166 -1.9290
  720MOL0     H97177   6.808   3.517  11.442 -0.5615 -0.6626 -0.9698
  720MOL0     H97178   6.810   3.309  11.655  0.0046  1.8162  0.4071
  720MOL0     H97179   6.938   3.412  11.584 -0.9769  2.2207 -2.1742
  720MOL0     H97180   6.970   3.191  11.502  0.5268  1.7687  0.0065
  720MOL0     H97181   6.895   3.283  11.365  1.1516 -0.0381  0.4213
  720MOL0     H97182   6.816   4.119  11.635 -3.5843  0.3259  1.5931
  720MOL0     H97183   6.855   4.339  11.692 -0.9560  0.1772  0.1811
  720MOL0     H97184   6.746   4.692  11.774 -2.1850 -0.3085 -2.3473
  720MOL0     H97185   6.739   4.892  11.907  0.1398 -1.3748 -0.0610
  720MOL0     H97186   5.764   6.099  11.847 -0.0952  2.7162  0.1189
  720MOL0     H97187   5.562   6.215  11.803  1.3819 -0.1290 -0.2562
  720MOL0     H97188   5.164   6.181  11.496  2.6424 -0.5449 -1.1905
  720MOL0     H97189   4.944   6.300  11.475 -0.7466  3.1545  2.3984
  720MOL0     H97190   4.777   6.674  11.331  0.5290  1.8449 -0.3215
  720MOL0     H97191   4.933   6.727  11.375 -0.7526  0.8745  0.4255
  720MOL0     H97192   5.010   6.669  11.149 -0.4834  0.4125  2.3688
  720MOL0     H97193   4.885   6.798  11.152  0.3877  0.2233  1.9845
  720MOL0     H97194   4.826   6.650  10.984 -0.8575 -1.3681  0.0472
  720MOL0     H97195   4.713   6.607  11.129 -0.8740  0.1691  0.6347
  720MOL0     H97196   4.822   6.412  11.154 -0.1942  1.0110  0.4679
  720MOL0     H97197   4.975   6.463  11.081  0.0001 -1.4440  0.3972
  720MOL0     H97198   4.778   6.312  10.739 -1.8491  1.0556 -0.6215
  720MOL0     H97199   5.155   6.624  11.321 -0.3895  0.6083  2.4778
  720MOL0     H97200   5.370   6.539  11.381  0.4554  0.9807  3.5287
  721MOL0     O97201   5.538   1.320   7.933  0.5113  0.4298  0.5092
  721MOL0     C97202   5.644   1.382   7.930  0.5646 -0.0504 -0.6241
  721MOL0     O97203   5.652   1.514   7.905 -0.1891  0.5529  0.0850
  721MOL0     C97204   5.548   1.587   7.920 -0.8883  0.6910 -0.5748
  721MOL0     C97205   5.516   1.688   7.835 -0.0902  0.2925  0.5449
  721MOL0     C97206   5.400   1.767   7.860  0.1894  0.5272 -0.7404
  721MOL0     C97207   5.340   1.774   7.984  0.2453 -0.7852  0.4794
  721MOL0     O97208   5.242   1.874   8.005  0.4641  0.5284 -0.3675
  721MOL0     C97209   5.138   1.830   8.084  0.6493  0.2201  0.7860
  721MOL0     C97210   5.006   1.905   8.057  0.0727  0.6724  0.4887
  721MOL0     C97211   4.961   1.848   7.918  0.1298  0.5378  0.3128
  721MOL0     C97212   4.825   1.896   7.881 -0.3195 -0.2662  0.2751
  721MOL0     C97213   4.792   1.859   7.743 -0.2033  0.1792  0.3280
  721MOL0     C97214   4.657   1.781   7.716  0.0158  1.4911 -0.3207
  721MOL0     C97215   4.525   1.843   7.777  0.1070  0.4631  0.7849
  721MOL0     C97216   4.407   1.728   7.784  0.4758 -0.0521  0.7924
  721MOL0     N97217   4.359   1.687   7.649 -0.0968  0.6561  0.3106
  721MOL0     C97218   4.318   1.765   7.548  0.7383 -0.9250  0.2394
  721MOL0     C97219   4.263   1.681   7.460  1.3596 -0.1713  0.4966
  721MOL0     C97220   4.202   1.705   7.324  0.5485 -0.0246 -0.3201
  721MOL0     C97221   4.303   1.729   7.206  0.3207  0.6381  0.1004
  721MOL0     C97222   4.389   1.849   7.220  1.3385  0.1818  0.0952
  721MOL0     C97223   4.307   1.983   7.187 -1.2357 -0.2860  0.6736
  721MOL0     O97224   4.390   2.083   7.243 -0.5712 -0.6245  0.4456
  721MOL0     C97225   4.398   2.204   7.181  0.7248  0.9721 -0.6397
  721MOL0     C97226   4.485   2.301   7.219 -0.5532 -0.7886  0.1721
  721MOL0     C97227   4.514   2.422   7.150 -0.0497  0.4630 -0.1303
  721MOL0     C97228   4.619   2.506   7.214  0.1274  0.0847  0.0188
  721MOL0     C97229   4.421   2.473   7.058  0.5714 -0.5072 -0.1375
  721MOL0     C97230   4.407   2.611   7.010  0.0115  0.2558 -0.3002
  721MOL0     O97231   4.285   2.652   6.960  0.3838 -0.7228  1.9573
  721MOL0     C97232   4.273   2.779   6.898  0.3590 -1.1501 -0.2146
  721MOL0     C97233   4.347   2.809   6.779 -0.0110  0.1690  0.1769
  721MOL0     C97234   4.315   2.934   6.709 -0.1817 -0.1698  0.2411
  721MOL0     C97235   4.218   3.019   6.752 -0.2836 -0.3374 -0.0136
  721MOL0     O97236   4.188   3.139   6.694  0.2750 -0.0708 -0.2213
  721MOL0     C97237   4.140   3.123   6.556  0.1214  0.1694  0.2274
  721MOL0     C97238   4.140   3.256   6.475 -0.5353 -0.4355 -0.4990
  721MOL0     C97239   4.289   3.309   6.478  0.2453  0.3944 -0.7551
  721MOL0     C97240   4.289   3.452   6.432  0.2729  0.3876 -0.2871
  721MOL0     C97241   4.430   3.487   6.366  1.1767  0.0784  0.2463
  721MOL0     C97242   4.553   3.478   6.449 -0.3208  0.3290 -0.8928
  721MOL0     C97243   4.552   3.580   6.563 -1.0436  0.8107 -0.4112
  721MOL0     C97244   4.696   3.584   6.634 -0.5489 -1.4229 -0.3880
  721MOL0    Cl97245   4.702   3.438   6.729  0.1792  0.0848 -0.1749
  721MOL0     C97246   4.131   2.972   6.863 -0.7645 -0.0388  0.3635
  721MOL0     C97247   4.166   2.856   6.935 -0.0144  0.0855 -0.9344
  721MOL0     O97248   4.515   2.676   7.008  0.1487  0.4807 -0.0323
  721MOL0     C97249   4.307   2.387   7.033 -0.4773 -0.5415  0.2649
  721MOL0     C97250   4.307   2.253   7.081  0.9291 -0.7178  0.2233
  721MOL0     N97251   4.283   1.557   7.495 -0.5988  0.2938 -0.8468
  721MOL0     N97252   4.341   1.554   7.609 -0.4902  0.1819  0.2155
  721MOL0     C97253   5.374   1.665   8.072  0.5821 -0.2882 -0.8987
  721MOL0     C97254   5.478   1.576   8.045 -0.2829  0.6340  1.1662
  721MOL0     C97255   5.753   1.293   7.953 -0.0140 -0.7596  0.8903
  721MOL0     C97256   5.861   1.343   8.030  0.5406  0.2999 -0.2534
  721MOL0     C97257   5.975   1.260   8.062 -0.0251 -0.6444 -0.7783
  721MOL0     C97258   5.974   1.122   8.020  0.0082 -0.0104  0.1979
  721MOL0     O97259   6.063   1.021   8.056  0.1863 -0.2532 -0.0910
  721MOL0     C97260   6.189   1.061   8.100 -0.8007 -0.0755  0.1632
  721MOL0     C97261   6.276   1.111   7.988  1.1107  0.1406  0.3870
  721MOL0     C97262   6.418   1.120   8.029 -0.4451 -0.2890  0.8765
  721MOL0     C97263   6.510   1.175   7.920 -0.9385 -0.3457 -0.2711
  721MOL0     C97264   6.646   1.199   7.973 -0.0443  0.5051  0.1311
  721MOL0     C97265   6.767   1.199   7.996  0.4859  0.7218 -0.7837
  721MOL0     C97266   5.867   1.079   7.942 -0.0901 -0.1637 -0.3875
  721MOL0     C97267   5.768   1.163   7.901 -0.1614  0.0583 -0.1729
  721MOL0     H97268   5.564   1.689   7.737 -0.2592  2.4199  0.4269
  721MOL0     H97269   5.356   1.827   7.782 -1.1141 -2.1439 -2.1880
  721MOL0     H97270   5.115   1.724   8.068  0.0646  0.3134  0.9860
  721MOL0     H97271   5.158   1.849   8.190 -1.7782  0.1274  1.3146
  721MOL0     H97272   4.930   1.879   8.131  0.4217  1.1038  1.0048
  721MOL0     H97273   5.019   2.011   8.034  0.7852 -0.2653 -4.4885
  721MOL0     H97274   5.031   1.881   7.841 -0.6889  3.1716  0.6045
  721MOL0     H97275   4.962   1.739   7.915  1.8018  0.5483 -2.1974
  721MOL0     H97276   4.747   1.853   7.944 -1.1619  1.0485  0.1507
  721MOL0     H97277   4.821   2.003   7.903  4.0549 -0.4578  3.6053
  721MOL0     H97278   4.777   1.959   7.701 -2.4875 -0.9238 -1.7155
  721MOL0     H97279   4.877   1.816   7.690 -0.3165 -2.3202  2.0073
  721MOL0     H97280   4.635   1.775   7.609 -0.0835  1.4470 -0.2976
  721MOL0     H97281   4.666   1.681   7.760  1.5077 -1.0042 -5.5690
  721MOL0     H97282   4.542   1.880   7.879  2.1376 -2.6270  1.7281
  721MOL0     H97283   4.499   1.930   7.718  1.5109 -1.6087 -3.3161
  721MOL0     H97284   4.313   1.771   7.820  1.5638  1.4442  1.9981
  721MOL0     H97285   4.445   1.649   7.851 -1.2597  1.6179  3.9771
  721MOL0     H97286   4.334   1.872   7.537  0.4229 -0.8541  0.4769
  721MOL0     H97287   4.140   1.619   7.298  1.0371 -0.2731 -0.6912
  721MOL0     H97288   4.130   1.787   7.325  1.9249  1.4074 -3.6300
  721MOL0     H97289   4.243   1.734   7.115 -1.7972 -1.5208  1.2747
  721MOL0     H97290   4.375   1.647   7.210  1.2121  1.3721 -0.3028
  721MOL0     H97291   4.480   1.845   7.159  2.7802 -0.5343  2.1827
  721MOL0     H97292   4.439   1.837   7.316  2.9544 -1.3365 -0.8722
  721MOL0     H97293   4.220   1.979   7.253 -2.2407 -0.1187 -0.6076
  721MOL0     H97294   4.292   1.999   7.080  0.9091  0.7704  0.4693
  721MOL0     H97295   4.536   2.275   7.312 -0.5261  2.0524  1.0309
  721MOL0     H97296   4.704   2.520   7.147  1.7377 -1.4199  1.6558
  721MOL0     H97297   4.587   2.607   7.241  1.5303  0.5807 -0.1173
  721MOL0     H97298   4.662   2.460   7.303 -0.8948  0.9332  0.9724
  721MOL0     H97299   4.433   2.746   6.758 -1.7124 -1.8465 -1.1974
  721MOL0     H97300   4.393   2.959   6.638 -0.1115 -1.4760 -0.1628
  721MOL0     H97301   4.201   3.054   6.497 -0.3517 -0.5245  0.5300
  721MOL0     H97302   4.036   3.087   6.562 -0.4269  1.8286  5.3381
  721MOL0     H97303   4.114   3.243   6.369 -2.6855  0.1039 -0.0862
  721MOL0     H97304   4.068   3.327   6.516 -0.8827 -1.4353  0.6701
  721MOL0     H97305   4.353   3.244   6.417  1.0121 -0.8663  1.2739
  721MOL0     H97306   4.341   3.305   6.574  2.1311 -0.8118 -1.7553
  721MOL0     H97307   4.203   3.481   6.369  0.4030  2.7686  0.5495
  721MOL0     H97308   4.274   3.525   6.512 -3.2562  2.1530 -2.2712
  721MOL0     H97309   4.412   3.591   6.336  2.9269  1.1166  2.4812
  721MOL0     H97310   4.453   3.429   6.277 -2.5023 -0.5367 -0.4879
  721MOL0     H97311   4.561   3.380   6.498 -1.6973  1.0552  0.8925
  721MOL0     H97312   4.636   3.500   6.382  0.7605  0.2362  0.3763
  721MOL0     H97313   4.477   3.546   6.634  1.4297 -0.6471  1.7145
  721MOL0     H97314   4.532   3.675   6.514 -2.3514 -0.4504 -2.5047
  721MOL0     H97315   4.695   3.680   6.687 -1.2502 -1.0613 -1.0534
  721MOL0     H97316   4.775   3.584   6.558  2.7036 -0.6110  2.7170
  721MOL0     H97317   4.049   3.036   6.893 -1.7323 -1.0083 -0.1728
  721MOL0     H97318   4.140   2.827   7.037 -0.5448 -3.4278 -1.9530
  721MOL0     H97319   4.230   2.423   6.967 -1.3076 -0.5447  1.2086
  721MOL0     H97320   4.215   2.205   7.051 -0.0311  2.1150 -1.7769
  721MOL0     H97321   5.315   1.668   8.163 -0.5491  2.8978 -1.5874
  721MOL0     H97322   5.508   1.518   8.132 -0.2058  1.0673  1.4320
  721MOL0     H97323   5.868   1.435   8.088  2.0312  0.6064 -0.8798
  721MOL0     H97324   6.062   1.303   8.112  0.0720  1.6310 -2.7658
  721MOL0     H97325   6.185   1.115   8.196 -0.6118  0.1624  0.0421
  721MOL0     H97326   6.245   0.980   8.148  2.9210  0.2522 -3.1426
  721MOL0     H97327   6.242   1.215   7.975 -1.9510 -0.0169  4.8510
  721MOL0     H97328   6.262   1.045   7.902  3.4110 -0.2377  0.2433
  721MOL0     H97329   6.464   1.022   8.044  1.3387  0.4898  0.8457
  721MOL0     H97330   6.419   1.176   8.124  1.1771 -1.4348  1.5763
  721MOL0     H97331   6.474   1.277   7.903 -1.2746 -0.2134  1.1046
  721MOL0     H97332   6.505   1.108   7.834  2.0622 -0.2115 -0.6490
  721MOL0     H97333   6.868   1.179   8.026  0.3240 -1.7850 -1.7054
  721MOL0     H97334   5.860   0.974   7.916  1.7236  0.0849 -2.1152
  721MOL0     H97335   5.689   1.115   7.843  0.8908 -1.6742 -0.2290
  722MOL0     O97336   3.137   8.807   7.460  0.9193  0.5896 -0.2638
  722MOL0     C97337   3.047   8.806   7.546  0.5749 -0.5780 -0.2695
  722MOL0     O97338   2.989   8.685   7.597  0.2345 -1.0138 -0.2847
  722MOL0     C97339   3.034   8.571   7.540 -0.7130 -0.2987  0.2060
  722MOL0     C97340   3.146   8.507   7.593 -0.3384 -0.4765  1.3915
  722MOL0     C97341   3.179   8.386   7.545 -0.6518 -0.6012  1.7386
  722MOL0     C97342   3.109   8.324   7.427  0.3288 -0.4584 -1.0896
  722MOL0     O97343   3.172   8.215   7.378 -0.1600  0.7289 -0.1522
  722MOL0     C97344   3.133   8.159   7.254 -0.6514  0.0720  0.4420
  722MOL0     C97345   3.232   8.038   7.214  0.7307 -0.0590 -0.2748
  722MOL0     C97346   3.369   8.103   7.179  0.0207 -0.0451  0.0250
  722MOL0     C97347   3.452   7.993   7.124 -0.1514  0.8540 -1.5039
  722MOL0     C97348   3.602   8.044   7.117  0.1570  0.2909 -0.2654
  722MOL0     C97349   3.684   7.924   7.081  0.5779  1.1246  0.3456
  722MOL0     C97350   3.844   7.942   7.102 -0.0066 -0.7110 -0.2604
  722MOL0     C97351   3.921   7.808   7.055  0.5585 -0.4784  0.5594
  722MOL0     N97352   3.937   7.781   6.908  0.1104 -0.8357 -0.7167
  722MOL0     C97353   4.051   7.784   6.836  0.8473  0.5695  0.2930
  722MOL0     C97354   4.011   7.733   6.710 -0.1082 -0.8921 -0.2954
  722MOL0     C97355   4.115   7.720   6.597  0.2735 -0.8024 -0.5228
  722MOL0     C97356   4.094   7.599   6.509 -0.1135  0.0611 -0.1200
  722MOL0     C97357   4.081   7.466   6.593  0.6166 -0.1019 -0.1346
  722MOL0     C97358   4.062   7.349   6.494 -0.2082  0.1190 -0.4029
  722MOL0     O97359   3.941   7.370   6.418  0.1524 -0.9892 -0.6617
  722MOL0     C97360   3.922   7.300   6.308 -0.4037  0.4813  0.3007
  722MOL0     C97361   3.809   7.318   6.236 -0.0704  0.2192 -0.5242
  722MOL0     C97362   3.778   7.253   6.120  0.0283  0.1197  0.1849
  722MOL0     C97363   3.643   7.280   6.063 -0.7449 -0.0952 -0.2760
  722MOL0     C97364   3.873   7.152   6.067  0.0523 -1.0862 -0.0299
  722MOL0     C97365   3.848   7.059   5.955 -0.3154  0.1027  1.0390
  722MOL0     O97366   3.968   6.995   5.905  0.1318 -0.3722  0.1641
  722MOL0     C97367   3.945   6.922   5.801 -0.2767 -0.6358 -0.4393
  722MOL0     C97368   3.982   6.964   5.677 -0.5165  0.5598  0.0755
  722MOL0     C97369   3.947   6.892   5.563 -0.5317  0.1962 -0.5143
  722MOL0     C97370   3.914   6.750   5.583 -0.0793 -0.1537  0.6126
  722MOL0     O97371   3.876   6.682   5.470  0.5846 -0.3667 -0.3839
  722MOL0     C97372   3.885   6.534   5.467 -0.3480  0.1321 -0.6444
  722MOL0     C97373   3.849   6.493   5.324  0.1178  0.2719  0.6042
  722MOL0     C97374   3.715   6.423   5.315 -0.8215 -0.7874 -0.4240
  722MOL0     C97375   3.598   6.516   5.359  0.6107 -0.4489 -0.7874
  722MOL0     C97376   3.472   6.431   5.394 -0.6079 -0.1406 -0.6163
  722MOL0     C97377   3.483   6.343   5.514 -0.1683  0.1572 -0.6528
  722MOL0     C97378   3.356   6.250   5.529 -0.2633 -0.8529  0.9968
  722MOL0     C97379   3.327   6.208   5.672  0.3756  1.3238 -0.6437
  722MOL0    Cl97380   3.299   6.359   5.765  0.0731 -0.0935 -0.0156
  722MOL0     C97381   3.894   6.706   5.709  0.6788 -0.0710  0.1318
  722MOL0     C97382   3.905   6.791   5.824 -0.2388  0.7187 -0.2514
  722MOL0     O97383   3.748   7.067   5.884  0.2802  0.1848  0.1510
  722MOL0     C97384   3.984   7.131   6.146 -0.6535  0.0326  0.3817
  722MOL0     C97385   4.007   7.204   6.265  0.4105 -0.1310 -0.1123
  722MOL0     N97386   3.881   7.695   6.718 -0.3925 -0.0520  0.6173
  722MOL0     N97387   3.831   7.735   6.835  0.0614  0.8328  0.2264
  722MOL0     C97388   3.013   8.404   7.364 -0.3062 -0.1340 -0.7186
  722MOL0     C97389   2.978   8.533   7.417 -0.1140  0.7235 -0.4509
  722MOL0     C97390   2.988   8.941   7.595 -0.3149  0.1226 -0.4150
  722MOL0     C97391   2.894   8.937   7.699 -0.3639  0.8135  0.4905
  722MOL0     C97392   2.853   9.059   7.761  0.6335  1.3661 -0.0981
  722MOL0     C97393   2.891   9.181   7.710  0.9479  0.3415  0.7958
  722MOL0     O97394   2.859   9.312   7.764 -0.4495  0.2985  0.1733
  722MOL0     C97395   2.785   9.309   7.888 -0.7668 -0.7540  1.1260
  722MOL0     C97396   2.636   9.293   7.857 -0.0909 -0.2818  0.2163
  722MOL0     C97397   2.596   9.405   7.759  1.0441 -0.4420  0.1269
  722MOL0     C97398   2.444   9.425   7.757  0.3425 -0.6824 -0.0435
  722MOL0     C97399   2.397   9.504   7.877 -0.3740 -0.6022  0.4637
  722MOL0     C97400   2.322   9.553   7.953 -0.4588  0.2945 -1.2193
  722MOL0     C97401   2.982   9.177   7.597  0.1636 -0.0955  0.8791
  722MOL0     C97402   3.041   9.063   7.546  0.7746  0.2371  0.0376
  722MOL0     H97403   3.192   8.556   7.678  2.1683 -1.4650  0.6953
  722MOL0     H97404   3.263   8.341   7.597 -0.8568 -2.3003  0.6794
  722MOL0     H97405   3.032   8.117   7.265 -0.8014  0.5030  0.7094
  722MOL0     H97406   3.134   8.226   7.168  0.4351  1.1247  1.2397
  722MOL0     H97407   3.233   7.973   7.301  0.5381 -1.4298 -1.2693
  722MOL0     H97408   3.190   7.979   7.132 -0.1343 -2.7041  1.9407
  722MOL0     H97409   3.360   8.174   7.096 -0.7882 -1.2297 -0.9196
  722MOL0     H97410   3.414   8.155   7.264 -1.5071  1.8994 -0.2609
  722MOL0     H97411   3.452   7.916   7.202  0.4811  1.4517 -0.9026
  722MOL0     H97412   3.411   7.948   7.033 -2.9653 -1.8043  0.8390
  722MOL0     H97413   3.611   8.120   7.039  4.3799 -0.7167 -1.0230
  722MOL0     H97414   3.636   8.073   7.217  1.6079  2.7787 -1.3899
  722MOL0     H97415   3.644   7.836   7.132  2.2073  0.5415  0.6741
  722MOL0     H97416   3.667   7.904   6.975 -1.5751 -3.3392  1.3362
  722MOL0     H97417   3.880   8.025   7.041 -1.7569 -0.7299 -1.4186
  722MOL0     H97418   3.853   7.960   7.209  0.1884  0.0616 -0.4060
  722MOL0     H97419   3.867   7.720   7.092  0.8224  0.0350  2.2154
  722MOL0     H97420   4.010   7.792   7.117  0.9627  1.1103  0.4341
  722MOL0     H97421   4.146   7.820   6.874  2.1512 -3.5627  1.4124
  722MOL0     H97422   4.096   7.812   6.541  2.9975 -1.6556 -3.1234
  722MOL0     H97423   4.221   7.724   6.621  0.1190 -1.6960  0.3728
  722MOL0     H97424   4.180   7.593   6.442 -2.3554  2.5632 -3.4915
  722MOL0     H97425   4.004   7.624   6.453  0.0810 -0.1233 -0.5161
  722MOL0     H97426   3.995   7.462   6.661 -1.0316  1.1267 -2.0399
  722MOL0     H97427   4.164   7.452   6.663 -1.8758 -1.7575  2.7337
  722MOL0     H97428   4.043   7.257   6.549  0.6808 -0.0658 -0.3891
  722MOL0     H97429   4.149   7.337   6.428  0.4701  2.1373  0.0530
  722MOL0     H97430   3.735   7.387   6.274  0.9384  1.3413 -0.5451
  722MOL0     H97431   3.587   7.186   6.050 -0.7432 -0.1679  0.2408
  722MOL0     H97432   3.579   7.344   6.125 -1.1798  0.1928 -1.0042
  722MOL0     H97433   3.663   7.326   5.966 -1.4966 -1.5161 -1.1463
  722MOL0     H97434   3.998   7.071   5.671 -3.3381  1.1227  0.8866
  722MOL0     H97435   3.939   6.938   5.465  1.5817  1.1614 -0.2772
  722MOL0     H97436   3.991   6.512   5.480 -0.2717  0.0096 -1.4365
  722MOL0     H97437   3.829   6.499   5.554  2.0130 -2.2502  0.0217
  722MOL0     H97438   3.854   6.571   5.247  2.8160  0.9872  1.3916
  722MOL0     H97439   3.930   6.431   5.284 -0.7072  0.1056 -0.8783
  722MOL0     H97440   3.721   6.336   5.380 -0.4022  1.9147  3.4846
  722MOL0     H97441   3.696   6.395   5.211 -2.6342  0.9499 -0.6158
  722MOL0     H97442   3.623   6.567   5.452  3.5184 -0.0672 -1.6916
  722MOL0     H97443   3.577   6.582   5.274  4.5212 -0.9218 -2.3379
  722MOL0     H97444   3.436   6.377   5.306 -1.5665  0.6436 -0.7175
  722MOL0     H97445   3.398   6.509   5.412  1.0454  2.0810 -2.6892
  722MOL0     H97446   3.571   6.278   5.503  2.8886  3.8325  0.0119
  722MOL0     H97447   3.498   6.394   5.609  0.3180 -0.6163 -0.3005
  722MOL0     H97448   3.374   6.157   5.473 -1.8265 -1.7295  1.8736
  722MOL0     H97449   3.264   6.294   5.490 -1.5645 -2.7777  1.7258
  722MOL0     H97450   3.401   6.135   5.707 -1.3442 -0.4932 -0.5832
  722MOL0     H97451   3.234   6.149   5.671  2.7663 -2.9688  1.2435
  722MOL0     H97452   3.854   6.606   5.723 -0.5908  0.2312 -1.0849
  722MOL0     H97453   3.879   6.765   5.926  1.0850  0.3604  0.0187
  722MOL0     H97454   4.066   7.064   6.124 -0.2519  0.0486  1.7388
  722MOL0     H97455   4.097   7.172   6.317  0.0918 -2.4089 -0.8324
  722MOL0     H97456   2.971   8.370   7.270 -0.4087 -1.3912 -0.2323
  722MOL0     H97457   2.898   8.594   7.378 -0.7999 -0.9548 -1.8272
  722MOL0     H97458   2.874   8.842   7.748  0.4589  1.1095  1.4624
  722MOL0     H97459   2.799   9.060   7.855  0.5428 -2.6647  0.0627
  722MOL0     H97460   2.827   9.236   7.957 -0.9551 -1.5363  0.4363
  722MOL0     H97461   2.790   9.408   7.934 -3.6745  0.2925 -0.4989
  722MOL0     H97462   2.583   9.297   7.954  1.0294  0.4506  0.8186
  722MOL0     H97463   2.614   9.197   7.811 -2.0111  0.8895 -1.5016
  722MOL0     H97464   2.625   9.375   7.658 -0.0692 -1.9589  0.2363
  722MOL0     H97465   2.631   9.507   7.778  0.3657 -0.3961  1.2798
  722MOL0     H97466   2.404   9.323   7.750 -2.4852  0.1229  2.3405
  722MOL0     H97467   2.415   9.468   7.660  0.8802  2.8734  1.2296
  722MOL0     H97468   2.246   9.597   8.015  2.1946 -0.0662  2.6351
  722MOL0     H97469   3.019   9.274   7.565  1.1444 -0.9666 -0.7979
  722MOL0     H97470   3.103   9.069   7.457  0.6621 -2.7520 -0.3480
  723MOL0     O97471   4.256   4.697   7.506 -0.5603 -0.1259  0.4822
  723MOL0     C97472   4.186   4.796   7.541 -0.2542  1.2625 -0.2248
  723MOL0     O97473   4.209   4.924   7.524  0.0519 -0.1793 -0.5757
  723MOL0     C97474   4.325   4.961   7.465  0.1335  1.2282 -0.2100
  723MOL0     C97475   4.447   4.907   7.505  0.5075 -0.7004  0.6473
  723MOL0     C97476   4.566   4.928   7.436  0.8589 -0.3728  0.1333
  723MOL0     C97477   4.566   5.028   7.335  0.0351  0.1037 -0.1950
  723MOL0     O97478   4.676   5.079   7.281 -0.4755  0.2594 -0.2016
  723MOL0     C97479   4.758   4.976   7.220  0.6705  0.5734 -0.7346
  723MOL0     C97480   4.837   5.060   7.128  0.2367 -0.3389 -1.2658
  723MOL0     C97481   4.941   4.971   7.058  0.1194  0.0795  0.8829
  723MOL0     C97482   4.974   5.037   6.918  1.3281  0.5413 -0.9591
  723MOL0     C97483   5.059   4.935   6.853 -0.4725 -0.1888 -0.2080
  723MOL0     C97484   5.094   4.975   6.709  0.5223  0.1990  0.0356
  723MOL0     C97485   5.160   4.855   6.638 -0.5727 -0.4475 -0.9648
  723MOL0     C97486   5.305   4.817   6.676  0.0032  0.7020  0.0111
  723MOL0     N97487   5.402   4.924   6.681 -0.4054 -0.5203 -0.1751
  723MOL0     C97488   5.513   4.936   6.759 -0.5358  0.0943  0.2870
  723MOL0     C97489   5.567   5.052   6.724 -0.1737 -0.9909 -0.1645
  723MOL0     C97490   5.676   5.125   6.799 -1.1772 -0.0563 -0.1307
  723MOL0     C97491   5.700   5.279   6.783  0.1316  0.4041 -0.2736
  723MOL0     C97492   5.784   5.324   6.662  0.1078  0.3122  0.1113
  723MOL0     C97493   5.876   5.442   6.705  0.6340  0.4325 -0.3197
  723MOL0     O97494   5.983   5.463   6.615 -0.2018 -0.2399  0.5645
  723MOL0     C97495   6.039   5.584   6.612 -0.1567  0.2878 -0.0654
  723MOL0     C97496   6.147   5.604   6.700  0.4537 -0.0154  0.0392
  723MOL0     C97497   6.205   5.727   6.732 -0.1628 -0.8599  0.1312
  723MOL0     C97498   6.302   5.736   6.847 -0.2991  1.0423  0.2697
  723MOL0     C97499   6.150   5.844   6.668 -0.8064  0.4630 -0.2093
  723MOL0     C97500   6.196   5.985   6.685  0.0082 -0.2591 -0.7677
  723MOL0     O97501   6.176   6.078   6.593  0.3024  0.7494  0.5197
  723MOL0     C97502   6.252   6.186   6.592 -0.7787 -0.1430 -0.0010
  723MOL0     C97503   6.181   6.301   6.567  0.3413  0.0572 -0.3009
  723MOL0     C97504   6.236   6.425   6.567  0.4884  0.0546  0.4082
  723MOL0     C97505   6.375   6.438   6.612 -0.3093 -0.5179  0.3380
  723MOL0     O97506   6.452   6.551   6.610 -0.0596 -0.1069  0.2683
  723MOL0     C97507   6.385   6.672   6.580 -0.6256  0.2284  0.1007
  723MOL0     C97508   6.491   6.784   6.611 -0.0428 -0.4539  0.5987
  723MOL0     C97509   6.446   6.917   6.554 -0.7611  0.0409  0.3684
  723MOL0     C97510   6.543   7.035   6.584  0.6727  0.1196  1.2348
  723MOL0     C97511   6.479   7.163   6.533 -0.8206 -0.9143 -0.4029
  723MOL0     C97512   6.569   7.290   6.541  0.0894 -0.3331  0.2061
  723MOL0     C97513   6.489   7.416   6.522  0.3179  0.3636  0.6027
  723MOL0     C97514   6.581   7.545   6.494  0.2036  0.4220  0.8216
  723MOL0    Cl97515   6.679   7.591   6.628  0.0098  0.4333  0.3309
  723MOL0     C97516   6.455   6.324   6.634  0.1583  0.1914  0.3782
  723MOL0     C97517   6.387   6.207   6.631 -0.0342 -0.4901 -0.2560
  723MOL0     O97518   6.246   6.009   6.797 -0.1188 -0.1638  0.1615
  723MOL0     C97519   6.045   5.830   6.579  0.1546 -0.4346  0.5894
  723MOL0     C97520   5.982   5.706   6.562 -0.3938  0.3986  0.1038
  723MOL0     N97521   5.489   5.103   6.620 -0.8716 -0.3626 -0.2369
  723MOL0     N97522   5.403   5.014   6.591 -0.2772 -0.3136  0.6318
  723MOL0     C97523   4.442   5.088   7.296 -0.5219  0.4622  0.3501
  723MOL0     C97524   4.323   5.051   7.358 -0.2290 -0.3392  0.1423
  723MOL0     C97525   4.048   4.761   7.593 -0.0148 -0.3124 -0.6785
  723MOL0     C97526   4.006   4.631   7.629 -0.6124 -0.6078  0.8732
  723MOL0     C97527   3.881   4.594   7.667  0.2769 -0.3285 -0.8360
  723MOL0     C97528   3.784   4.697   7.674  0.3158 -0.0822 -0.3543
  723MOL0     O97529   3.652   4.668   7.695 -0.4704  0.9489 -0.0718
  723MOL0     C97530   3.581   4.644   7.576  0.8342 -0.2918 -0.7951
  723MOL0     C97531   3.468   4.539   7.611 -0.3492  0.8880 -0.1176
  723MOL0     C97532   3.525   4.391   7.616 -0.1408 -1.4867 -0.4557
  723MOL0     C97533   3.422   4.281   7.644 -0.3150  0.2896  1.1713
  723MOL0     C97534   3.379   4.282   7.789  0.0325  0.2255 -0.0288
  723MOL0     C97535   3.361   4.279   7.911 -0.8496 -1.1261  0.5845
  723MOL0     C97536   3.822   4.827   7.644  0.4205 -0.2659  0.0704
  723MOL0     C97537   3.955   4.865   7.605 -0.1679 -0.2031  0.3696
  723MOL0     H97538   4.452   4.827   7.579 -2.4509 -2.4541 -0.8788
  723MOL0     H97539   4.657   4.876   7.465  1.3005  1.5261  2.4764
  723MOL0     H97540   4.811   4.919   7.297 -1.6682 -0.3643  0.2682
  723MOL0     H97541   4.694   4.900   7.173  2.3254 -1.9950  0.9273
  723MOL0     H97542   4.781   5.106   7.046  0.4193  1.9735 -0.1771
  723MOL0     H97543   4.901   5.136   7.174 -0.7368  1.3140 -2.5179
  723MOL0     H97544   5.025   4.961   7.127  0.8599 -4.1148 -0.3189
  723MOL0     H97545   4.901   4.871   7.038  0.3585  0.1265  0.1395
  723MOL0     H97546   4.885   5.046   6.855  0.7246 -0.1695 -0.2249
  723MOL0     H97547   5.015   5.138   6.930  2.0663 -0.0577  2.9176
  723MOL0     H97548   5.144   4.918   6.919  1.0094  1.9066 -1.4492
  723MOL0     H97549   5.007   4.840   6.845  0.4746 -0.6527 -1.0850
  723MOL0     H97550   4.997   4.986   6.660 -0.1568  1.1306  1.4979
  723MOL0     H97551   5.147   5.070   6.698 -0.0734  0.4144 -1.0772
  723MOL0     H97552   5.092   4.770   6.649  1.4574 -1.8108  4.2941
  723MOL0     H97553   5.165   4.887   6.534 -1.4331  1.9611 -0.3364
  723MOL0     H97554   5.338   4.738   6.609  1.0472  2.1797 -1.2862
  723MOL0     H97555   5.302   4.789   6.782  4.2196 -0.9593 -0.1277
  723MOL0     H97556   5.536   4.870   6.842 -6.7707 -1.0795  1.5332
  723MOL0     H97557   5.650   5.104   6.904 -0.1395 -1.2445 -0.0925
  723MOL0     H97558   5.774   5.077   6.797 -1.2422 -0.1713 -0.5459
  723MOL0     H97559   5.758   5.307   6.871  2.0632 -4.6525  0.4247
  723MOL0     H97560   5.599   5.318   6.789 -1.1448 -2.0540 -3.0566
  723MOL0     H97561   5.718   5.349   6.578  1.4937 -0.5057 -1.2642
  723MOL0     H97562   5.839   5.235   6.632 -1.2886 -1.0085  1.2712
  723MOL0     H97563   5.910   5.432   6.808 -1.2435  0.3392  0.3189
  723MOL0     H97564   5.823   5.538   6.712 -0.7442 -0.4466  2.8666
  723MOL0     H97565   6.185   5.509   6.738 -2.6892 -1.5744 -0.4103
  723MOL0     H97566   6.379   5.812   6.831 -0.9428  1.2717 -2.1048
  723MOL0     H97567   6.239   5.764   6.933 -1.8778 -1.4439  0.0177
  723MOL0     H97568   6.358   5.644   6.866  1.7786  1.9582 -1.0433
  723MOL0     H97569   6.074   6.290   6.558  0.4558 -1.2848 -0.2671
  723MOL0     H97570   6.169   6.509   6.546 -0.4088 -0.8929 -0.6268
  723MOL0     H97571   6.353   6.686   6.477  0.2129 -3.0497 -0.7335
  723MOL0     H97572   6.300   6.685   6.648  0.1409  0.3733  1.0646
  723MOL0     H97573   6.508   6.781   6.719  0.6321 -1.5367  0.4846
  723MOL0     H97574   6.587   6.759   6.565  0.8017  3.5346 -0.2009
  723MOL0     H97575   6.345   6.938   6.590 -1.2424 -2.6355  0.7697
  723MOL0     H97576   6.443   6.904   6.446  1.1522 -1.1723  0.4080
  723MOL0     H97577   6.569   7.037   6.690  0.7592 -3.3932  1.4187
  723MOL0     H97578   6.634   7.028   6.524  0.0146  1.1513  0.0604
  723MOL0     H97579   6.385   7.163   6.589 -0.1904 -0.6229  0.6823
  723MOL0     H97580   6.446   7.160   6.429 -3.7877  4.8664 -0.0236
  723MOL0     H97581   6.634   7.301   6.629  1.7229  2.9537 -1.2052
  723MOL0     H97582   6.642   7.286   6.459  0.9282  0.7384  0.8704
  723MOL0     H97583   6.417   7.437   6.602 -2.0381  0.7361 -1.4634
  723MOL0     H97584   6.409   7.398   6.449  0.2000 -2.3533  1.2923
  723MOL0     H97585   6.516   7.631   6.478 -0.0551  0.2725  1.0665
  723MOL0     H97586   6.650   7.517   6.414 -0.4183 -1.4744  0.9011
  723MOL0     H97587   6.560   6.334   6.660  0.0159  1.9888  0.3684
  723MOL0     H97588   6.441   6.117   6.661 -0.9268 -0.5659  1.2176
  723MOL0     H97589   6.007   5.915   6.524  1.9323  0.4968  0.7311
  723MOL0     H97590   5.893   5.700   6.501  0.0738  0.2954 -0.5856
  723MOL0     H97591   4.421   5.166   7.224 -1.7267  1.7207  2.0058
  723MOL0     H97592   4.233   5.105   7.333  0.0464  0.5069  0.9267
  723MOL0     H97593   4.080   4.553   7.611  0.9714  1.0301 -0.0221
  723MOL0     H97594   3.862   4.489   7.683 -0.5007 -0.3637 -1.8979
  723MOL0     H97595   3.527   4.731   7.536 -2.2560 -2.9607 -2.9487
  723MOL0     H97596   3.654   4.598   7.509  2.5211  2.6335 -1.1564
  723MOL0     H97597   3.393   4.553   7.533 -0.7464 -0.2458  0.0442
  723MOL0     H97598   3.433   4.558   7.713 -3.9500 -3.6412 -0.1815
  723MOL0     H97599   3.604   4.393   7.692 -2.0316  2.5013  1.7443
  723MOL0     H97600   3.572   4.372   7.519  0.8398 -0.1261 -0.2826
  723MOL0     H97601   3.460   4.180   7.625 -1.5574 -0.2875  1.6332
  723MOL0     H97602   3.330   4.296   7.585 -0.2641  0.1289  1.0509
  723MOL0     H97603   3.325   4.295   8.011 -2.8417  0.5618 -0.3352
  723MOL0     H97604   3.734   4.890   7.636  0.2050 -0.8477 -4.2536
  723MOL0     H97605   3.981   4.970   7.590  1.4343 -0.3255  2.0064
  724MOL0     O97606  10.000   0.933   1.886 -0.3269  0.5230 -0.0831
  724MOL0     C97607  10.084   0.994   1.954 -0.1914 -1.2439  0.6524
  724MOL0     O97608  10.144   0.959   2.068 -0.0184  0.7906 -0.0195
  724MOL0     C97609  10.090   0.846   2.132 -1.0417 -0.2401  0.6665
  724MOL0     C97610   9.954   0.823   2.142  1.0636 -0.4169 -0.6094
  724MOL0     C97611   9.908   0.696   2.195  0.2593  0.2869  0.5321
  724MOL0     C97612   9.991   0.593   2.243 -0.6377  0.4072 -0.9942
  724MOL0     O97613   9.949   0.465   2.281  0.6023  0.4857 -0.1077
  724MOL0     C97614   9.862   0.399   2.189 -0.5297 -1.1608 -0.1328
  724MOL0     C97615   9.934   0.262   2.166 -0.2519 -0.6070 -0.0358
  724MOL0     C97616  10.042   0.274   2.054  0.9800 -0.7479  0.7698
  724MOL0     C97617  10.000   0.317   1.909 -0.7524  1.1423 -0.0548
  724MOL0     C97618  10.114   0.312   1.812 -0.5298  0.1353  0.3727
  724MOL0     C97619  10.253   0.377   1.856 -0.1937  0.4234 -0.2607
  724MOL0     C97620  10.235   0.528   1.894 -0.8020 -0.1044 -0.9765
  724MOL0     C97621  10.189   0.622   1.782  1.4648  0.1564  0.2682
  724MOL0     N97622  10.294   0.673   1.694 -1.1295 -0.2793 -0.0648
  724MOL0     C97623  10.334   0.608   1.580  0.0238  0.0700  0.0977
  724MOL0     C97624  10.394   0.694   1.509 -0.5836 -0.0020  0.3627
  724MOL0     C97625  10.445   0.673   1.365 -0.9787 -0.8968  0.2571
  724MOL0     C97626  10.593   0.696   1.369 -0.3991  0.1835  0.5659
  724MOL0     C97627  10.654   0.664   1.232 -0.7942 -0.8303 -0.1181
  724MOL0     C97628  10.805   0.632   1.251 -0.2754  0.0410  0.4967
  724MOL0     O97629  10.861   0.723   1.335 -0.2333 -0.0998 -0.8376
  724MOL0     C97630  10.960   0.678   1.412  0.0500 -0.1954 -0.0397
  724MOL0     C97631  11.093   0.708   1.374  0.8854 -0.2037  0.0121
  724MOL0     C97632  11.194   0.670   1.453  0.2181 -0.1044 -0.5620
  724MOL0     C97633  11.333   0.718   1.411  0.2090 -0.3232  0.7908
  724MOL0     C97634  11.175   0.586   1.567 -0.0318 -1.0134 -0.6794
  724MOL0     C97635  11.281   0.523   1.635 -0.8674  0.6312 -0.1662
  724MOL0     O97636  11.380   0.592   1.698  0.4171 -0.1461 -0.2618
  724MOL0     C97637  11.454   0.543   1.803  0.0916  0.5791  0.0750
  724MOL0     C97638  11.591   0.546   1.781  0.7289 -0.6432  0.3647
  724MOL0     C97639  11.668   0.485   1.872  0.3086 -0.2743 -0.1680
  724MOL0     C97640  11.614   0.430   1.987 -0.4429  0.1835  0.2987
  724MOL0     O97641  11.710   0.378   2.064  0.1977  0.3738 -0.5978
  724MOL0     C97642  11.682   0.327   2.195  1.0770 -0.8936 -0.6937
  724MOL0     C97643  11.669   0.443   2.300 -0.4547 -0.3817  0.1524
  724MOL0     C97644  11.670   0.370   2.438  0.2823 -0.4991  0.1972
  724MOL0     C97645  11.744   0.454   2.542 -0.0055 -0.6440 -0.3049
  724MOL0     C97646  11.766   0.388   2.674  0.6144  0.5784 -1.1354
  724MOL0     C97647  11.868   0.463   2.766  0.9319  0.4985  0.7206
  724MOL0     C97648  12.013   0.434   2.724  0.0925 -0.0245 -0.3699
  724MOL0     C97649  12.116   0.554   2.735  0.3714  1.2057  0.2943
  724MOL0    Cl97650  12.042   0.695   2.659  0.4216 -0.0596 -0.2767
  724MOL0     C97651  11.479   0.445   2.022  0.4789 -1.8185 -0.2783
  724MOL0     C97652  11.399   0.495   1.924 -0.2296 -0.6402  0.4132
  724MOL0     O97653  11.272   0.404   1.644 -0.2903 -0.4314  0.0762
  724MOL0     C97654  11.047   0.552   1.603  0.9586  0.3338  0.5148
  724MOL0     C97655  10.934   0.600   1.528 -0.4337  0.7699  0.8309
  724MOL0     N97656  10.399   0.813   1.569  0.0191 -0.9223  0.1219
  724MOL0     N97657  10.327   0.800   1.675  0.0759  0.0379 -0.1318
  724MOL0     C97658  10.126   0.629   2.233 -0.0029  0.7329 -0.2826
  724MOL0     C97659  10.180   0.750   2.190  0.2455  0.3758 -0.6705
  724MOL0     C97660  10.116   1.131   1.898  1.1530  0.8660 -0.0953
  724MOL0     C97661  10.139   1.241   1.979 -0.1999  0.0361  0.1024
  724MOL0     C97662  10.182   1.368   1.932  0.4162  0.1318 -0.0043
  724MOL0     C97663  10.162   1.384   1.797  0.1530 -0.5760 -0.3998
  724MOL0     O97664  10.196   1.511   1.751 -0.0917  0.3720 -0.2359
  724MOL0     C97665  10.164   1.555   1.616 -0.7643  0.1278  0.3065
  724MOL0     C97666  10.171   1.700   1.599 -0.2182  0.9183 -1.6255
  724MOL0     C97667  10.151   1.737   1.457  0.5369  0.5291  0.1700
  724MOL0     C97668  10.146   1.888   1.443 -0.6464  0.5630 -0.4407
  724MOL0     C97669  10.078   1.926   1.319  0.0812  0.8031  0.2165
  724MOL0     C97670   9.997   1.936   1.222  0.0353  0.5656  0.0517
  724MOL0     C97671  10.123   1.281   1.706  0.4858 -0.6307 -0.7468
  724MOL0     C97672  10.105   1.154   1.755  0.0135 -0.1293 -0.7695
  724MOL0     H97673   9.880   0.894   2.108  1.5267  0.5499  0.3396
  724MOL0     H97674   9.800   0.688   2.208  0.0537  1.1545 -0.4404
  724MOL0     H97675   9.761   0.383   2.229 -1.2103 -3.8018 -2.5334
  724MOL0     H97676   9.855   0.460   2.098 -1.0946 -0.2722  0.4904
  724MOL0     H97677   9.976   0.221   2.259  2.0282 -0.8607 -1.1150
  724MOL0     H97678   9.867   0.180   2.141 -0.1638 -0.4065 -0.9508
  724MOL0     H97679  10.118   0.348   2.079  1.1582 -0.4550 -0.5624
  724MOL0     H97680  10.095   0.179   2.047  2.1832 -0.0334 -0.0314
  724MOL0     H97681   9.920   0.253   1.870 -1.7275  2.2434  0.0496
  724MOL0     H97682   9.953   0.416   1.911  0.4566  1.7234  2.1813
  724MOL0     H97683  10.136   0.206   1.800  1.2086  0.4562  0.5274
  724MOL0     H97684  10.082   0.353   1.716 -3.2159 -0.9372  0.7065
  724MOL0     H97685  10.294   0.318   1.939 -1.6595 -0.1747  0.0563
  724MOL0     H97686  10.323   0.383   1.771 -1.0203  1.2002 -0.9104
  724MOL0     H97687  10.170   0.536   1.981  2.4719  3.4086  1.4705
  724MOL0     H97688  10.330   0.571   1.925  1.4432 -4.6593 -0.6179
  724MOL0     H97689  10.145   0.708   1.834 -0.1025 -0.5507  0.1834
  724MOL0     H97690  10.119   0.577   1.711  1.0613 -2.1026  1.9911
  724MOL0     H97691  10.308   0.508   1.549  0.1545  0.1499 -0.2737
  724MOL0     H97692  10.408   0.581   1.319 -6.0136  1.5359 -1.3017
  724MOL0     H97693  10.414   0.756   1.301 -1.9203 -0.5038  1.2042
  724MOL0     H97694  10.640   0.628   1.441  0.0119  1.9006  1.9968
  724MOL0     H97695  10.625   0.794   1.408 -1.2708 -1.2840  5.8111
  724MOL0     H97696  10.660   0.753   1.169  2.4592 -1.1161 -0.3836
  724MOL0     H97697  10.593   0.600   1.168  0.3727 -0.2354 -1.8872
  724MOL0     H97698  10.862   0.630   1.158  3.0442  4.1153  2.0766
  724MOL0     H97699  10.823   0.533   1.295  1.9282  0.0150 -0.3290
  724MOL0     H97700  11.106   0.778   1.292  0.5785 -0.7421 -0.5057
  724MOL0     H97701  11.330   0.777   1.319  1.4224  0.3113  1.1358
  724MOL0     H97702  11.401   0.761   1.485  0.2133 -1.2446  1.3278
  724MOL0     H97703  11.388   0.636   1.364  1.2163  2.0117 -2.5186
  724MOL0     H97704  11.636   0.602   1.700 -0.2783 -2.7546 -1.7470
  724MOL0     H97705  11.776   0.493   1.864  0.4159  0.8128  1.7561
  724MOL0     H97706  11.591   0.266   2.201 -0.9273  1.9851  0.3342
  724MOL0     H97707  11.760   0.254   2.218  2.9222  0.7199 -1.5088
  724MOL0     H97708  11.760   0.500   2.278  0.0035 -0.0321  2.6543
  724MOL0     H97709  11.589   0.514   2.278 -0.2085 -0.3021 -0.5339
  724MOL0     H97710  11.722   0.274   2.428 -0.7003 -0.9018 -1.3589
  724MOL0     H97711  11.570   0.335   2.467  0.4299 -0.1175  1.2429
  724MOL0     H97712  11.843   0.476   2.501 -1.2181  3.0685 -1.6674
  724MOL0     H97713  11.698   0.553   2.543 -0.9672 -1.0096 -2.6654
  724MOL0     H97714  11.794   0.282   2.670 -2.6853 -0.5061  0.8560
  724MOL0     H97715  11.674   0.386   2.733  0.7448 -0.3416 -0.9351
  724MOL0     H97716  11.843   0.569   2.767  1.5675  0.6458  0.8337
  724MOL0     H97717  11.843   0.429   2.867 -4.0850  3.7340  0.9477
  724MOL0     H97718  12.012   0.389   2.625 -3.8223  2.4248 -1.6639
  724MOL0     H97719  12.062   0.353   2.779  3.5287  2.0502 -0.1073
  724MOL0     H97720  12.207   0.526   2.682  1.1200  1.1864  1.5553
  724MOL0     H97721  12.144   0.564   2.841  0.0950 -3.1904  0.9737
  724MOL0     H97722  11.423   0.395   2.101 -1.9649 -0.4265 -1.0317
  724MOL0     H97723  11.292   0.513   1.934 -0.3004 -1.8122  2.3624
  724MOL0     H97724  11.041   0.492   1.693  0.8000 -1.4967 -0.6793
  724MOL0     H97725  10.834   0.566   1.552 -1.1838  1.1894 -1.4956
  724MOL0     H97726  10.199   0.557   2.266  0.4284  2.0407  1.7743
  724MOL0     H97727  10.285   0.777   2.184 -0.0660  2.2732  1.4076
  724MOL0     H97728  10.129   1.224   2.086  0.1927 -1.8478 -0.1273
  724MOL0     H97729  10.204   1.460   1.984  1.4110  1.4175 -2.5518
  724MOL0     H97730  10.229   1.501   1.548  0.4777 -1.0475  2.3164
  724MOL0     H97731  10.069   1.516   1.579 -0.5995 -0.4439  0.4774
  724MOL0     H97732  10.268   1.731   1.639 -0.5154  0.8700 -0.8578
  724MOL0     H97733  10.090   1.739   1.662 -1.0624 -1.6683 -0.9790
  724MOL0     H97734  10.061   1.692   1.415 -0.1228  3.6456 -2.0791
  724MOL0     H97735  10.232   1.699   1.395  1.2738  1.9358  0.2410
  724MOL0     H97736  10.253   1.911   1.450 -0.2377 -1.1999 -0.3156
  724MOL0     H97737  10.092   1.926   1.531  1.5229  0.0067  1.2249
  724MOL0     H97738   9.934   1.940   1.136  1.2528 -0.2809 -0.9142
  724MOL0     H97739  10.100   1.291   1.601 -2.3062  2.1124 -0.0148
  724MOL0     H97740  10.077   1.071   1.691  1.6275 -1.8856  0.6775
  725MOL0     O97741   6.549   9.780   5.949 -0.3220  0.1418  0.1326
  725MOL0     C97742   6.536   9.662   5.971 -1.0504  0.1419  0.0552
  725MOL0     O97743   6.527   9.561   5.875 -0.2118 -0.0488 -0.3327
  725MOL0     C97744   6.511   9.589   5.743 -0.8106 -0.7008  0.9075
  725MOL0     C97745   6.625   9.600   5.662  0.5006  0.3598 -0.4923
  725MOL0     C97746   6.619   9.656   5.533 -0.6103 -1.0745  0.6843
  725MOL0     C97747   6.492   9.705   5.487 -0.5094  0.5801 -1.1089
  725MOL0     O97748   6.496   9.761   5.357 -0.3041 -0.8157 -0.2176
  725MOL0     C97749   6.415   9.690   5.262  0.5264  0.8894 -0.3458
  725MOL0     C97750   6.443   9.733   5.121  0.2829  0.2767  0.5922
  725MOL0     C97751   6.427   9.619   5.025 -0.0494  0.6486 -0.2043
  725MOL0     C97752   6.553   9.551   4.994 -0.4285 -0.2931 -0.0853
  725MOL0     C97753   6.636   9.632   4.893  0.6114 -0.3890  1.3768
  725MOL0     C97754   6.751   9.551   4.841 -0.8598 -1.5579 -0.1726
  725MOL0     C97755   6.844   9.645   4.754 -1.3111 -0.4366  0.2032
  725MOL0     C97756   6.774   9.676   4.623 -1.0392 -0.1099 -0.1172
  725MOL0     N97757   6.872   9.730   4.526 -0.0718 -0.9537  0.4745
  725MOL0     C97758   6.973   9.823   4.552  0.7341 -0.3632 -0.3159
  725MOL0     C97759   7.027   9.846   4.432  0.4082 -0.0310  0.2056
  725MOL0     C97760   7.136   9.943   4.398 -0.4830 -0.1300 -0.2490
  725MOL0     C97761   7.287   9.887   4.389  0.1247 -0.1605 -0.0212
  725MOL0     C97762   7.309   9.789   4.279  0.6750  0.4767  0.2254
  725MOL0     C97763   7.454   9.769   4.251 -1.9897 -0.1382 -0.0201
  725MOL0     O97764   7.515   9.700   4.366 -0.2070 -0.0623  0.1764
  725MOL0     C97765   7.625   9.627   4.326  0.9175  1.1944  0.0313
  725MOL0     C97766   7.708   9.650   4.214  0.7889  0.5851  0.0442
  725MOL0     C97767   7.810   9.571   4.186 -0.8063  0.1239  0.5693
  725MOL0     C97768   7.901   9.610   4.073  0.1811  0.7274  0.8819
  725MOL0     C97769   7.843   9.459   4.279 -0.3480  0.2580  0.2554
  725MOL0     C97770   7.967   9.376   4.262 -0.4457 -0.7774  0.7157
  725MOL0     O97771   8.026   9.325   4.358 -0.7002  0.4867  0.1738
  725MOL0     C97772   8.142   9.253   4.335  0.4158  0.2332 -1.1274
  725MOL0     C97773   8.132   9.112   4.339  0.0371 -0.1345 -0.7017
  725MOL0     C97774   8.258   9.040   4.323 -0.2040  0.2534 -0.4651
  725MOL0     C97775   8.382   9.110   4.295  0.8257 -0.4253  0.6936
  725MOL0     O97776   8.503   9.056   4.275 -0.5703 -0.3007  0.7496
  725MOL0     C97777   8.536   8.951   4.366 -0.4915 -0.8161 -0.7432
  725MOL0     C97778   8.683   8.900   4.341 -0.2987  0.0510  0.4294
  725MOL0     C97779   8.786   9.003   4.389  0.4331  1.3053  0.4982
  725MOL0     C97780   8.922   8.969   4.336  0.7502  0.8657 -0.0507
  725MOL0     C97781   9.033   9.059   4.387 -0.0894  0.9391  0.2944
  725MOL0     C97782   9.022   9.105   4.537  0.0408 -0.4844  1.1292
  725MOL0     C97783   9.124   9.214   4.563 -0.6820  0.2619 -0.6830
  725MOL0     C97784   9.123   9.243   4.710 -1.2681  0.0341 -0.4818
  725MOL0    Cl97785   9.181   9.120   4.823  0.0773  0.2655 -0.0019
  725MOL0     C97786   8.381   9.252   4.283  0.2288 -0.0661 -0.7821
  725MOL0     C97787   8.259   9.324   4.298  0.2939 -0.1814  0.2095
  725MOL0     O97788   7.993   9.344   4.149 -0.3021  0.8655  0.0542
  725MOL0     C97789   7.771   9.447   4.397  0.0326  0.7486  0.4622
  725MOL0     C97790   7.661   9.528   4.412 -2.2579  0.5287 -0.6545
  725MOL0     N97791   6.963   9.793   4.338  0.3241  0.4985  0.6362
  725MOL0     N97792   6.875   9.716   4.387  0.2601  0.6378 -0.3007
  725MOL0     C97793   6.388   9.702   5.567  1.1499 -0.9750  0.4332
  725MOL0     C97794   6.391   9.636   5.692 -0.8995  0.1211  0.7589
  725MOL0     C97795   6.542   9.622   6.108 -0.6869  0.0394 -0.5285
  725MOL0     C97796   6.521   9.487   6.140  0.4855  0.1687  0.4830
  725MOL0     C97797   6.526   9.442   6.269  0.8202 -0.3260  0.1096
  725MOL0     C97798   6.562   9.518   6.376  0.0639  0.2419  1.2444
  725MOL0     O97799   6.568   9.473   6.500 -0.0772  0.6082  0.0604
  725MOL0     C97800   6.548   9.335   6.536 -0.8330  0.1382  0.5703
  725MOL0     C97801   6.407   9.281   6.524 -0.0198 -0.8776  0.0967
  725MOL0     C97802   6.345   9.365   6.641  0.2323 -0.1328  0.4632
  725MOL0     C97803   6.198   9.327   6.672  0.0931 -0.2555 -0.2937
  725MOL0     C97804   6.206   9.204   6.761  0.2037  0.4151  0.1120
  725MOL0     C97805   6.208   9.122   6.853 -0.2525  0.0638 -0.3732
  725MOL0     C97806   6.582   9.649   6.349 -0.3769 -0.0369 -0.5523
  725MOL0     C97807   6.581   9.702   6.213  0.5820 -1.0788  0.4219
  725MOL0     H97808   6.717   9.592   5.718 -0.4884 -3.0459  0.9470
  725MOL0     H97809   6.704   9.677   5.470 -0.2255 -4.0408  0.0518
  725MOL0     H97810   6.435   9.583   5.279  3.9186  1.6454  1.2549
  725MOL0     H97811   6.308   9.708   5.274 -0.0414  0.0089 -3.3654
  725MOL0     H97812   6.372   9.811   5.090 -2.1758 -0.4726  3.7844
  725MOL0     H97813   6.544   9.772   5.107 -0.9525  3.2588 -1.0666
  725MOL0     H97814   6.362   9.540   5.063  2.0498 -1.6974 -1.2327
  725MOL0     H97815   6.391   9.667   4.933  0.2396 -0.4636 -0.9129
  725MOL0     H97816   6.612   9.527   5.083  0.2039  2.5129  0.3319
  725MOL0     H97817   6.526   9.453   4.953  0.5689 -0.3030 -0.7635
  725MOL0     H97818   6.571   9.667   4.812  1.5166  0.2235  0.8966
  725MOL0     H97819   6.686   9.717   4.940  0.1883  2.4937 -2.8760
  725MOL0     H97820   6.808   9.515   4.927 -1.7785 -0.9064  0.7344
  725MOL0     H97821   6.719   9.461   4.787 -0.7565 -1.0580 -1.0913
  725MOL0     H97822   6.857   9.736   4.812 -1.1596  0.5774 -1.3636
  725MOL0     H97823   6.942   9.598   4.737 -1.7591 -0.8407 -1.4454
  725MOL0     H97824   6.686   9.735   4.650 -1.5613 -2.2429  3.5191
  725MOL0     H97825   6.732   9.584   4.581 -0.2384  0.6769 -2.8436
  725MOL0     H97826   6.999   9.872   4.645  1.3349  0.0918 -0.7246
  725MOL0     H97827   7.115  10.008   4.312  4.4238  0.7907 -1.0222
  725MOL0     H97828   7.138  10.015   4.480 -0.1574  1.8740 -1.9534
  725MOL0     H97829   7.326   9.845   4.482  1.8122  1.5200  0.1108
  725MOL0     H97830   7.344   9.977   4.364 -0.7973  0.4420 -0.0269
  725MOL0     H97831   7.262   9.831   4.189 -0.8892 -0.7721  0.4146
  725MOL0     H97832   7.268   9.696   4.318  0.3039  1.0054  1.1077
  725MOL0     H97833   7.498   9.867   4.234 -1.6539 -0.4787 -1.2022
  725MOL0     H97834   7.462   9.713   4.158 -3.9526  0.7576 -0.7814
  725MOL0     H97835   7.706   9.742   4.157  0.4825 -1.5837 -3.7823
  725MOL0     H97836   7.893   9.714   4.040 -0.6420  1.1254  2.2358
  725MOL0     H97837   8.007   9.606   4.098  0.3303 -1.3262  0.0893
  725MOL0     H97838   7.887   9.555   3.980 -0.9688  1.9520  0.3038
  725MOL0     H97839   8.049   9.046   4.362  0.6290 -0.3754  0.8711
  725MOL0     H97840   8.264   8.937   4.354  1.4902  0.7323  0.9103
  725MOL0     H97841   8.524   8.988   4.468  1.2090 -0.1005 -0.7618
  725MOL0     H97842   8.468   8.866   4.362 -1.8347  0.1706  0.2425
  725MOL0     H97843   8.696   8.805   4.394  0.1354 -1.0529 -1.5688
  725MOL0     H97844   8.687   8.875   4.235  1.8417 -0.4313  0.5787
  725MOL0     H97845   8.782   8.995   4.498  1.5363 -2.3148  0.3906
  725MOL0     H97846   8.762   9.103   4.354 -1.3004  0.5230 -0.6578
  725MOL0     H97847   8.942   8.870   4.380  0.8133  0.8942 -0.0166
  725MOL0     H97848   8.909   8.965   4.228 -0.3517 -0.9116  0.1049
  725MOL0     H97849   9.027   9.150   4.327  0.3635  0.5007 -0.4297
  725MOL0     H97850   9.125   9.009   4.356 -1.5493  1.3156 -5.8699
  725MOL0     H97851   8.919   9.144   4.542 -0.4423 -0.9253 -2.4696
  725MOL0     H97852   9.036   9.016   4.599 -1.1797 -0.3473  1.6345
  725MOL0     H97853   9.100   9.309   4.516  0.0372 -0.0859 -1.8044
  725MOL0     H97854   9.219   9.183   4.518  0.0280 -1.3488  1.7293
  725MOL0     H97855   9.021   9.275   4.735 -1.9770 -0.0134 -2.9643
  725MOL0     H97856   9.189   9.329   4.722 -0.1984 -0.5530 -1.8719
  725MOL0     H97857   8.471   9.310   4.264 -0.0399  2.1124  3.4789
  725MOL0     H97858   8.242   9.428   4.271 -0.0095 -0.1274  0.6067
  725MOL0     H97859   7.800   9.379   4.477 -1.0711 -0.3007 -0.0034
  725MOL0     H97860   7.605   9.517   4.504  0.1554 -4.0904  0.5582
  725MOL0     H97861   6.296   9.744   5.529  1.9835 -0.9007 -1.6854
  725MOL0     H97862   6.305   9.621   5.756 -0.0727  0.0079  1.8825
  725MOL0     H97863   6.478   9.422   6.063 -1.8716  0.7514  1.2211
  725MOL0     H97864   6.513   9.334   6.275 -1.9597 -0.0246  0.3758
  725MOL0     H97865   6.609   9.267   6.476 -0.9899 -0.2384  0.8352
  725MOL0     H97866   6.598   9.311   6.630  1.5686  0.6329 -0.4851
  725MOL0     H97867   6.411   9.173   6.539 -0.2817 -0.8336  0.4966
  725MOL0     H97868   6.351   9.310   6.435  2.8070  7.2741  0.1080
  725MOL0     H97869   6.333   9.470   6.613 -1.3347 -0.4543 -0.1854
  725MOL0     H97870   6.413   9.370   6.726 -0.6923 -0.0960  1.2150
  725MOL0     H97871   6.152   9.284   6.583 -2.3423 -0.5713  1.0271
  725MOL0     H97872   6.142   9.404   6.725  0.5023 -1.3242  1.8292
  725MOL0     H97873   6.221   9.057   6.938 -0.4104  1.8561  1.0787
  725MOL0     H97874   6.618   9.712   6.429 -1.3492 -1.9907  1.5409
  725MOL0     H97875   6.599   9.809   6.206  0.5416 -0.8425  3.0560
  726MOL0     O97876   5.358  10.897   5.537  1.0109  0.0081  0.4757
  726MOL0     C97877   5.304  10.856   5.434  0.6747  0.5690 -0.8212
  726MOL0     O97878   5.284  10.725   5.393  0.8169 -0.2253  0.3946
  726MOL0     C97879   5.307  10.616   5.482 -0.8195 -0.5272  0.6257
  726MOL0     C97880   5.334  10.502   5.411 -0.0784  0.2372 -0.1647
  726MOL0     C97881   5.365  10.387   5.479 -0.6487  0.7057  0.7918
  726MOL0     C97882   5.382  10.380   5.618 -0.0550  0.3464  0.2285
  726MOL0     O97883   5.403  10.260   5.682 -0.2112 -0.0715  0.3478
  726MOL0     C97884   5.406  10.244   5.823  0.9289 -0.2551  0.0715
  726MOL0     C97885   5.261  10.217   5.866  0.1360 -0.8219 -0.0424
  726MOL0     C97886   5.249  10.066   5.915 -0.6732 -0.2964  0.4420
  726MOL0     C97887   5.222   9.977   5.787  0.0566 -0.1152 -0.1433
  726MOL0     C97888   5.188   9.835   5.818  0.1577 -0.0540 -0.3645
  726MOL0     C97889   5.319   9.755   5.862 -0.5673  0.6321  0.1119
  726MOL0     C97890   5.310   9.599   5.850 -0.6501 -0.8289  0.2540
  726MOL0     C97891   5.320   9.515   5.981  0.3499 -0.3180 -0.4414
  726MOL0     N97892   5.233   9.558   6.091  0.2555  0.3003 -0.0323
  726MOL0     C97893   5.095   9.525   6.096 -0.9413  0.0305  0.1604
  726MOL0     C97894   5.053   9.596   6.199 -0.0592  0.7221 -0.0940
  726MOL0     C97895   4.912   9.572   6.260  0.0429  0.4314 -0.2253
  726MOL0     C97896   4.875   9.418   6.261  0.2333  0.3018 -0.3093
  726MOL0     C97897   4.975   9.341   6.352  1.0829  0.0166 -0.4310
  726MOL0     C97898   4.914   9.216   6.419  0.0151 -0.5067 -0.1297
  726MOL0     O97899   4.809   9.157   6.338  0.1405 -0.6713  0.1376
  726MOL0     C97900   4.836   9.068   6.245 -0.0918 -1.4145  0.8761
  726MOL0     C97901   4.957   9.001   6.216  0.2097  0.5352  0.3612
  726MOL0     C97902   4.972   8.901   6.122  0.9716 -0.1409 -0.4716
  726MOL0     C97903   5.104   8.846   6.086  0.3007 -0.1494  0.2140
  726MOL0     C97904   4.847   8.851   6.060  0.0525 -0.1952  0.6298
  726MOL0     C97905   4.832   8.744   5.957  0.0366 -0.1986  1.0006
  726MOL0     O97906   4.715   8.673   5.942 -0.1859 -1.0097 -0.3189
  726MOL0     C97907   4.702   8.575   5.846  0.7819 -0.1794  0.3945
  726MOL0     C97908   4.572   8.578   5.779 -0.0096  0.7341 -1.3174
  726MOL0     C97909   4.539   8.485   5.686 -0.0800  0.2220  0.1056
  726MOL0     C97910   4.627   8.388   5.648  0.1810 -0.1806  0.3062
  726MOL0     O97911   4.567   8.294   5.572 -0.0625  0.5966  0.0984
  726MOL0     C97912   4.652   8.219   5.484 -0.8707 -0.2991  0.6781
  726MOL0     C97913   4.577   8.136   5.376  0.8816 -0.0888 -0.1456
  726MOL0     C97914   4.497   8.014   5.438  0.1787  0.4985 -0.2131
  726MOL0     C97915   4.431   7.911   5.340  0.1487  0.9967 -0.2700
  726MOL0     C97916   4.298   7.973   5.291  0.7932 -0.2452 -0.5976
  726MOL0     C97917   4.281   7.947   5.144 -0.1337  0.3671 -0.1195
  726MOL0     C97918   4.159   8.020   5.089  0.1738  0.3444  0.1999
  726MOL0     C97919   4.117   7.967   4.945  0.9326  0.4870 -0.5361
  726MOL0    Cl97920   4.248   8.027   4.837  0.4672  0.5016 -0.3845
  726MOL0     C97921   4.761   8.397   5.704  0.3531 -1.0100  0.0357
  726MOL0     C97922   4.803   8.479   5.811  0.3844 -0.2927 -0.1884
  726MOL0     O97923   4.935   8.733   5.886 -0.2420  0.2719 -0.1133
  726MOL0     C97924   4.723   8.910   6.096 -0.3158  0.3357  0.5364
  726MOL0     C97925   4.721   9.024   6.178  0.1366 -0.1075  0.4689
  726MOL0     N97926   5.152   9.672   6.255  0.2243  0.7882 -0.7984
  726MOL0     N97927   5.259   9.660   6.176 -0.2812 -0.2110  0.9967
  726MOL0     C97928   5.359  10.500   5.689  0.3930  0.2985 -0.3441
  726MOL0     C97929   5.322  10.613   5.618  0.0764  0.4608  0.6505
  726MOL0     C97930   5.280  10.956   5.338 -0.5293 -0.5469  0.2864
  726MOL0     C97931   5.220  10.921   5.206 -0.9543 -0.1188 -0.1159
  726MOL0     C97932   5.190  11.024   5.117  0.1614  0.3561  0.2292
  726MOL0     C97933   5.228  11.156   5.138  0.0889  0.6248 -0.8666
  726MOL0     O97934   5.196  11.246   5.042 -0.7500  1.0892  0.2080
  726MOL0     C97935   5.208  11.391   5.069 -0.8738 -0.6526  0.7035
  726MOL0     C97936   5.346  11.434   5.055 -0.1219  0.0644  0.6789
  726MOL0     C97937   5.386  11.486   4.909 -0.5859  0.8602  0.1457
  726MOL0     C97938   5.323  11.618   4.867  0.0875  0.1917  0.0873
  726MOL0     C97939   5.409  11.725   4.928 -0.1769  0.2670 -0.7193
  726MOL0     C97940   5.469  11.816   4.987  0.3062 -0.1444  0.2661
  726MOL0     C97941   5.283  11.186   5.263 -0.4097  0.1735  0.1364
  726MOL0     C97942   5.318  11.093   5.354  0.9716 -0.3032  0.2658
  726MOL0     H97943   5.328  10.512   5.303 -1.9586  2.1946  0.0523
  726MOL0     H97944   5.366  10.297   5.418  0.0984  1.2389 -0.0107
  726MOL0     H97945   5.469  10.158   5.850  1.5880  0.3347  0.4340
  726MOL0     H97946   5.450  10.334   5.866  2.5601  0.6568 -3.2024
  726MOL0     H97947   5.230  10.274   5.954  0.2821 -0.1750 -0.3967
  726MOL0     H97948   5.189  10.236   5.786  1.2807 -1.9922 -1.4134
  726MOL0     H97949   5.347  10.041   5.956  1.1534  3.6082 -1.0128
  726MOL0     H97950   5.169  10.050   5.988 -2.3042  5.5625  0.4550
  726MOL0     H97951   5.136  10.012   5.730  0.6995  0.9082 -0.5187
  726MOL0     H97952   5.300   9.983   5.710 -0.7143 -0.3567 -0.9564
  726MOL0     H97953   5.128   9.835   5.909  1.4287  1.8578  0.5533
  726MOL0     H97954   5.134   9.793   5.733  1.1126 -1.0221 -0.5107
  726MOL0     H97955   5.413   9.780   5.811  0.3927  1.0031  1.9555
  726MOL0     H97956   5.336   9.794   5.963 -1.2610  2.0541 -0.3019
  726MOL0     H97957   5.224   9.570   5.790 -0.7327  2.8568 -1.6841
  726MOL0     H97958   5.395   9.559   5.793  1.0290  1.2220  1.1850
  726MOL0     H97959   5.420   9.514   6.026  1.5209 -1.3628 -2.8963
  726MOL0     H97960   5.287   9.412   5.963 -0.8566 -0.5065  2.3861
  726MOL0     H97961   5.043   9.456   6.030  1.1309 -0.9956 -0.4743
  726MOL0     H97962   4.921   9.606   6.364 -2.2979 -1.8803  0.8279
  726MOL0     H97963   4.840   9.635   6.206  1.8056  2.4512 -0.3860
  726MOL0     H97964   4.867   9.384   6.157 -2.4257 -1.9392  0.4929
  726MOL0     H97965   4.775   9.407   6.303  0.2813  2.8455  0.6342
  726MOL0     H97966   5.019   9.392   6.438  2.0866 -2.2364  0.4856
  726MOL0     H97967   5.053   9.322   6.278  2.1568  1.8713  0.1799
  726MOL0     H97968   4.874   9.250   6.515 -0.9049  0.2327 -0.7608
  726MOL0     H97969   4.996   9.147   6.441  0.0255  0.3299  2.8011
  726MOL0     H97970   5.048   9.045   6.257  1.0599 -0.3395 -0.5081
  726MOL0     H97971   5.192   8.880   6.141 -0.6740  0.7645  1.2561
  726MOL0     H97972   5.096   8.738   6.098  1.6300 -0.4355 -1.1871
  726MOL0     H97973   5.125   8.869   5.981 -1.4805 -1.6618 -0.5301
  726MOL0     H97974   4.498   8.649   5.813  1.1440  2.2791 -1.8799
  726MOL0     H97975   4.436   8.497   5.655 -0.1806  2.9009  1.1757
  726MOL0     H97976   4.685   8.301   5.420 -1.3442 -0.1211  0.6603
  726MOL0     H97977   4.740   8.168   5.523  0.6766 -0.7453 -2.9755
  726MOL0     H97978   4.513   8.201   5.316  0.9863 -0.4075 -0.6082
  726MOL0     H97979   4.651   8.099   5.304  2.4223 -1.4223  2.0083
  726MOL0     H97980   4.421   8.056   5.505  0.4591  0.6110  0.0401
  726MOL0     H97981   4.561   7.948   5.498  1.3559  2.2141  0.4900
  726MOL0     H97982   4.506   7.911   5.260  1.1058  0.9319  0.5956
  726MOL0     H97983   4.416   7.814   5.389 -4.5230  1.1547 -0.9384
  726MOL0     H97984   4.308   8.081   5.305  0.1875 -0.0924 -1.3117
  726MOL0     H97985   4.210   7.927   5.336  1.0100 -0.0495  0.0366
  726MOL0     H97986   4.371   7.973   5.087 -1.0554 -0.4779 -2.0745
  726MOL0     H97987   4.264   7.840   5.133  1.1508  0.0827  0.5021
  726MOL0     H97988   4.183   8.126   5.075  2.2120  0.2197  2.2713
  726MOL0     H97989   4.077   7.998   5.157  1.3171 -0.4972  1.3664
  726MOL0     H97990   4.024   8.007   4.902 -0.0240 -0.0792  0.9358
  726MOL0     H97991   4.108   7.858   4.945 -3.1038  0.6436  1.0334
  726MOL0     H97992   4.832   8.322   5.671 -0.5835 -1.8849 -0.0379
  726MOL0     H97993   4.899   8.477   5.862 -0.9264 -0.4259  2.4182
  726MOL0     H97994   4.625   8.891   6.055  0.2719  0.6165 -1.0439
  726MOL0     H97995   4.629   9.066   6.217  1.4726  0.8633  2.7760
  726MOL0     H97996   5.356  10.500   5.798 -0.9062 -1.0544 -0.3656
  726MOL0     H97997   5.297  10.710   5.660 -0.9468  0.7387 -0.5174
  726MOL0     H97998   5.197  10.817   5.191 -0.4104 -0.3631  0.6706
  726MOL0     H97999   5.147  10.993   5.022 -0.4928 -4.6915  1.8501
  726MOL0     H98000   5.137  11.443   5.004  1.2822  7.5470  3.6800
  726MOL0     H98001   5.173  11.417   5.169  0.9704 -1.8915  1.7334
  726MOL0     H98002   5.407  11.349   5.088 -1.2847 -0.3341  1.9031
  726MOL0     H98003   5.382  11.511   5.124  1.8922  0.3889 -0.6467
  726MOL0     H98004   5.339  11.419   4.837  0.8149 -0.8718  0.7878
  726MOL0     H98005   5.494  11.494   4.892 -0.4101  0.3232  0.9919
  726MOL0     H98006   5.221  11.622   4.906 -0.3344  0.3284 -0.9756
  726MOL0     H98007   5.322  11.624   4.757 -0.3577 -0.0000  0.0783
  726MOL0     H98008   5.512  11.896   5.043 -0.3488  0.4813 -0.1127
  726MOL0     H98009   5.305  11.288   5.296 -1.1798  0.8165 -1.2527
  726MOL0     H98010   5.358  11.129   5.448 -2.0543 -1.5884  2.1998
  727MOL0     O98011   8.037   3.037   9.598  0.5706 -0.2209 -0.1131
  727MOL0     C98012   8.081   2.988   9.704 -0.5142 -0.4808 -0.3963
  727MOL0     O98013   8.008   2.900   9.776 -0.1772  0.1023  0.3700
  727MOL0     C98014   7.910   2.820   9.733  0.1577 -0.9539  0.8339
  727MOL0     C98015   7.884   2.784   9.593 -0.0999 -0.0629 -0.0192
  727MOL0     C98016   7.774   2.698   9.576 -0.5751 -0.6271  0.6896
  727MOL0     C98017   7.696   2.653   9.681  0.4246  0.5369  0.5901
  727MOL0     O98018   7.590   2.570   9.668  0.0199  0.3195  0.6146
  727MOL0     C98019   7.617   2.444   9.730  0.4349  0.2173 -0.2921
  727MOL0     C98020   7.499   2.356   9.690 -0.8945 -0.3572 -0.0741
  727MOL0     C98021   7.432   2.287   9.804 -0.0429 -0.5871 -0.2828
  727MOL0     C98022   7.350   2.166   9.762  0.2312  0.4390 -0.0226
  727MOL0     C98023   7.304   2.091   9.888 -0.9568  0.2037 -0.2275
  727MOL0     C98024   7.217   1.971   9.850 -0.2163  0.2423  0.1007
  727MOL0     C98025   7.179   1.880   9.963  0.1894  0.1384  0.6002
  727MOL0     C98026   7.087   1.942  10.068  0.0871  0.0818 -0.5129
  727MOL0     N98027   6.956   1.987  10.013  0.4162  0.5465 -0.7709
  727MOL0     C98028   6.928   2.102   9.946  0.7452 -0.5759  0.2282
  727MOL0     C98029   6.799   2.102   9.917  0.4340 -1.0981 -0.5293
  727MOL0     C98030   6.722   2.217   9.866 -0.5098  0.1576 -0.4109
  727MOL0     C98031   6.652   2.179   9.734 -1.0398 -0.2966 -0.0395
  727MOL0     C98032   6.741   2.220   9.613  0.4030 -0.4088 -0.1352
  727MOL0     C98033   6.846   2.123   9.568 -0.6065 -1.0982  0.2912
  727MOL0     O98034   6.974   2.159   9.617 -0.8359  0.3356  0.2048
  727MOL0     C98035   7.020   2.278   9.605 -0.8497 -0.1837  1.6152
  727MOL0     C98036   7.062   2.327   9.476 -0.4587  0.3685 -1.2689
  727MOL0     C98037   7.111   2.458   9.469  0.6597  0.2389  0.9839
  727MOL0     C98038   7.131   2.497   9.314  0.2116 -0.3015  0.5528
  727MOL0     C98039   7.103   2.544   9.580  0.7561  1.0690  0.8567
  727MOL0     C98040   7.151   2.679   9.568  0.5271  0.0947 -0.1155
  727MOL0     O98041   7.266   2.691   9.509 -0.0869  0.1127  0.2363
  727MOL0     C98042   7.303   2.830   9.501  0.5041  0.4481  0.0684
  727MOL0     C98043   7.426   2.875   9.554 -0.4109 -0.7296 -0.4040
  727MOL0     C98044   7.470   3.010   9.546  0.1351 -0.1756  0.0792
  727MOL0     C98045   7.392   3.097   9.466 -0.8254 -0.2058 -0.1108
  727MOL0     O98046   7.436   3.231   9.454 -0.0552 -0.0943 -0.6188
  727MOL0     C98047   7.345   3.327   9.415 -0.3976  0.1683 -0.3076
  727MOL0     C98048   7.398   3.466   9.456  0.1738 -0.1836 -0.8875
  727MOL0     C98049   7.523   3.515   9.387  0.4481 -0.7308 -0.3521
  727MOL0     C98050   7.554   3.657   9.429  1.1635 -0.6731  0.1403
  727MOL0     C98051   7.681   3.709   9.365  0.3477  0.5196  0.0781
  727MOL0     C98052   7.712   3.856   9.404 -0.8480 -0.1149 -0.9566
  727MOL0     C98053   7.860   3.892   9.418 -0.5221 -0.2620  1.1520
  727MOL0     C98054   7.931   3.837   9.536  0.4290 -0.5182 -0.8312
  727MOL0    Cl98055   7.875   3.928   9.672 -0.0674 -0.1287 -0.2274
  727MOL0     C98056   7.282   3.045   9.398 -0.2964 -0.7836 -1.0404
  727MOL0     C98057   7.225   2.925   9.431 -0.0774  1.1245  0.5716
  727MOL0     O98058   7.090   2.760   9.633 -0.3537  0.6350  0.2340
  727MOL0     C98059   7.066   2.489   9.702  0.0535 -1.0906  0.5820
  727MOL0     C98060   7.022   2.357   9.717 -0.7195  0.1121  0.2452
  727MOL0     N98061   6.748   1.980   9.964 -0.1254 -0.3748  1.3170
  727MOL0     N98062   6.839   1.914  10.034  1.5060  0.5738  0.7611
  727MOL0     C98063   7.714   2.700   9.814 -0.4451 -0.6735 -0.6337
  727MOL0     C98064   7.824   2.779   9.843 -0.2290 -0.4607  0.3665
  727MOL0     C98065   8.210   3.036   9.751 -0.0668 -0.5229 -1.7833
  727MOL0     C98066   8.260   3.014   9.879 -0.1063  0.6500  0.1023
  727MOL0     C98067   8.381   3.069   9.932 -0.8185 -0.1754 -0.5391
  727MOL0     C98068   8.462   3.154   9.855 -0.4537  0.6957  0.7264
  727MOL0     O98069   8.579   3.204   9.914 -0.1324 -0.0278  0.2451
  727MOL0     C98070   8.682   3.256   9.824 -1.0833 -0.2165  0.9342
  727MOL0     C98071   8.818   3.208   9.875  0.5260  0.0723  0.5627
  727MOL0     C98072   8.938   3.278   9.798 -0.0649  0.6816 -0.9418
  727MOL0     C98073   8.949   3.233   9.648  0.1699 -0.7773  0.0028
  727MOL0     C98074   8.952   3.086   9.633  0.0436 -0.2588 -0.5526
  727MOL0     C98075   8.932   2.968   9.642  0.0324  0.2946  0.0941
  727MOL0     C98076   8.413   3.184   9.725 -0.2645  0.3390 -0.3763
  727MOL0     C98077   8.289   3.130   9.681  0.1176 -0.3782 -0.1133
  727MOL0     H98078   7.945   2.807   9.507  0.8222 -0.0294  0.6261
  727MOL0     H98079   7.758   2.654   9.479  0.4450 -2.3951  1.2846
  727MOL0     H98080   7.709   2.408   9.681 -1.6692 -1.4580 -3.4068
  727MOL0     H98081   7.637   2.448   9.837 -1.2028  0.0099  0.0431
  727MOL0     H98082   7.420   2.416   9.643  0.2646 -0.6991 -2.6715
  727MOL0     H98083   7.533   2.297   9.604 -0.5470  1.5868 -1.3267
  727MOL0     H98084   7.502   2.255   9.882 -0.1952  0.3234  0.2507
  727MOL0     H98085   7.376   2.359   9.864  1.2492 -0.6583  1.0969
  727MOL0     H98086   7.263   2.186   9.699 -0.5569 -0.1248  0.8540
  727MOL0     H98087   7.420   2.106   9.705 -0.0695  2.9527 -3.3493
  727MOL0     H98088   7.393   2.056   9.940 -1.1308  0.2919  0.1342
  727MOL0     H98089   7.262   2.160   9.963  0.6413  0.2548  0.6761
  727MOL0     H98090   7.123   1.990   9.798 -0.7107 -2.7630 -0.2737
  727MOL0     H98091   7.266   1.905   9.777  0.8594  0.0161  1.0009
  727MOL0     H98092   7.135   1.790   9.920 -0.8951  0.9084  0.0474
  727MOL0     H98093   7.277   1.858  10.007  1.4305  0.7621 -1.6411
  727MOL0     H98094   7.138   2.022  10.122 -1.0865 -1.9881  4.1453
  727MOL0     H98095   7.070   1.866  10.144 -0.8825  0.5011 -0.2922
  727MOL0     H98096   6.994   2.188   9.942  1.1892 -0.9418 -0.5082
  727MOL0     H98097   6.648   2.225   9.946  1.7851 -0.0344  1.8366
  727MOL0     H98098   6.781   2.309   9.861 -1.1680  0.5983 -0.1376
  727MOL0     H98099   6.558   2.235   9.728  0.2478  2.7033  3.7533
  727MOL0     H98100   6.627   2.072   9.732 -0.8720 -0.4106 -3.9076
  727MOL0     H98101   6.784   2.320   9.628 -0.9215  0.2806 -0.6976
  727MOL0     H98102   6.687   2.233   9.518 -0.8040 -1.2609  0.4067
  727MOL0     H98103   6.847   2.117   9.459  0.1144 -0.8031  0.2720
  727MOL0     H98104   6.820   2.023   9.604  0.5936 -1.1778  1.0084
  727MOL0     H98105   7.046   2.249   9.402 -0.2441 -2.8540  1.8007
  727MOL0     H98106   7.211   2.437   9.270 -3.7978 -3.2223 -3.6396
  727MOL0     H98107   7.047   2.468   9.251 -2.4300  1.5730  2.9948
  727MOL0     H98108   7.131   2.606   9.308  0.8154 -0.3877 -1.8199
  727MOL0     H98109   7.483   2.800   9.609 -1.3931 -1.5691 -0.4994
  727MOL0     H98110   7.564   3.043   9.590  2.1119 -0.9315 -3.1667
  727MOL0     H98111   7.308   3.317   9.312 -2.4262  0.9658  0.2885
  727MOL0     H98112   7.257   3.309   9.477  0.6923 -1.4481  0.8494
  727MOL0     H98113   7.325   3.546   9.441  0.8623  0.4590 -0.8767
  727MOL0     H98114   7.414   3.459   9.564 -0.0863  2.2878 -0.6226
  727MOL0     H98115   7.501   3.503   9.281 -0.0615 -3.5069  0.0124
  727MOL0     H98116   7.618   3.463   9.401  1.6231  1.6406  1.4985
  727MOL0     H98117   7.474   3.723   9.392  0.0779 -2.5782 -1.0816
  727MOL0     H98118   7.553   3.671   9.537 -0.6139 -1.7321  0.2979
  727MOL0     H98119   7.668   3.688   9.259 -0.1031 -0.4537  0.3209
  727MOL0     H98120   7.767   3.649   9.397 -0.3504 -1.7180 -1.9841
  727MOL0     H98121   7.682   3.939   9.339  0.5388  2.1975  1.1865
  727MOL0     H98122   7.656   3.879   9.494 -0.6086 -1.8351 -0.3236
  727MOL0     H98123   7.872   4.001   9.414  0.9206 -0.3902  1.3317
  727MOL0     H98124   7.905   3.841   9.332 -2.6093 -1.5553  0.7781
  727MOL0     H98125   8.040   3.832   9.529  0.4556  0.5793 -1.3928
  727MOL0     H98126   7.903   3.732   9.548  1.1243 -0.8978 -2.2482
  727MOL0     H98127   7.233   3.123   9.341  0.4678  2.6394  2.5633
  727MOL0     H98128   7.137   2.892   9.379 -2.2074 -1.7457  5.3026
  727MOL0     H98129   7.072   2.556   9.787 -3.3648  1.0115 -0.6647
  727MOL0     H98130   6.976   2.330   9.811  0.4991  0.8934  1.0822
  727MOL0     H98131   7.652   2.671   9.898  0.0957  1.4939  0.6043
  727MOL0     H98132   7.834   2.805   9.948  1.6838  1.2266 -0.1657
  727MOL0     H98133   8.200   2.952   9.944  0.9787  1.0015  1.4852
  727MOL0     H98134   8.416   3.052  10.034 -0.9901  1.7609 -0.1276
  727MOL0     H98135   8.671   3.218   9.722  0.5266  0.3405  0.5283
  727MOL0     H98136   8.683   3.365   9.816  1.5472 -0.1700  1.0014
  727MOL0     H98137   8.825   3.100   9.858  1.3782  0.1666  0.2713
  727MOL0     H98138   8.839   3.236   9.979  1.3138 -2.2687  1.1161
  727MOL0     H98139   9.029   3.236   9.842 -1.0835  0.4120  1.0384
  727MOL0     H98140   8.940   3.388   9.800  0.1439  0.6951  1.4603
  727MOL0     H98141   9.039   3.271   9.600 -0.5437 -0.1483 -0.8919
  727MOL0     H98142   8.869   3.276   9.586 -0.1254 -1.6111 -0.2243
  727MOL0     H98143   8.907   2.864   9.655  1.6314  0.2296  4.0770
  727MOL0     H98144   8.459   3.260   9.662 -1.2828  1.3491  0.0553
  727MOL0     H98145   8.260   3.153   9.578 -2.8745  1.8391  1.0665
  728MOL0     O98146   0.436   5.875   4.974  0.2165 -0.5058  0.5171
  728MOL0     C98147   0.450   5.758   5.004  0.2574  0.1692 -0.8030
  728MOL0     O98148   0.369   5.691   5.094 -0.1506  0.1464  0.0990
  728MOL0     C98149   0.262   5.757   5.149 -0.0468  1.1305 -0.7338
  728MOL0     C98150   0.133   5.720   5.106 -0.9358  0.2241 -0.5502
  728MOL0     C98151   0.025   5.795   5.146 -0.6953  0.0923 -0.1682
  728MOL0     C98152   0.040   5.902   5.246  0.0241 -0.8405  0.7419
  728MOL0     O98153  -0.069   5.974   5.299  0.1924 -0.2306 -0.2965
  728MOL0     C98154  -0.200   5.960   5.233 -0.3657  1.1366 -0.5162
  728MOL0     C98155  -0.301   6.065   5.260 -0.0234 -0.3990  0.3119
  728MOL0     C98156  -0.295   6.101   5.406  0.8573 -0.0809  1.1844
  728MOL0     C98157  -0.409   6.187   5.452 -0.2039 -0.1765 -0.3388
  728MOL0     C98158  -0.421   6.327   5.411 -0.5325 -0.6704  0.3983
  728MOL0     C98159  -0.310   6.417   5.468 -0.0366 -0.5298 -1.1593
  728MOL0     C98160  -0.304   6.434   5.621 -0.3240 -0.6988  0.3943
  728MOL0     C98161  -0.209   6.550   5.656 -0.3379  0.0675  1.1730
  728MOL0     N98162  -0.079   6.548   5.591 -0.5048 -0.7867  1.3902
  728MOL0     C98163   0.018   6.442   5.577  1.0477 -0.5955 -0.5366
  728MOL0     C98164   0.095   6.483   5.466  0.2378 -0.6389 -0.3504
  728MOL0     C98165   0.176   6.387   5.385  0.9042  0.1698 -0.6968
  728MOL0     C98166   0.079   6.285   5.318 -0.1375  1.1659 -0.3354
  728MOL0     C98167  -0.025   6.344   5.218 -0.2535  0.3949 -0.4964
  728MOL0     C98168   0.036   6.414   5.096 -0.2185  0.0075 -0.9467
  728MOL0     O98169  -0.065   6.479   5.007  0.7985 -0.1082 -0.8592
  728MOL0     C98170  -0.093   6.403   4.904 -0.4111  0.2411  1.3165
  728MOL0     C98171  -0.016   6.424   4.788  0.8181  0.6229 -0.9030
  728MOL0     C98172  -0.030   6.356   4.668 -0.0573  0.4901  0.2168
  728MOL0     C98173   0.051   6.401   4.553  1.1705 -0.7660  0.3066
  728MOL0     C98174  -0.134   6.256   4.660  0.2337 -0.0964 -0.0659
  728MOL0     C98175  -0.176   6.188   4.529 -0.7475 -0.1607 -0.2309
  728MOL0     O98176  -0.308   6.152   4.525  0.3766  0.7094 -0.2511
  728MOL0     C98177  -0.364   6.096   4.411  0.2106 -0.9445 -0.1865
  728MOL0     C98178  -0.348   6.163   4.289  1.3827 -1.0308 -0.3549
  728MOL0     C98179  -0.386   6.095   4.181 -0.2187 -0.1820 -0.8543
  728MOL0     C98180  -0.450   5.979   4.189  0.4258 -0.0709 -0.2445
  728MOL0     O98181  -0.466   5.917   4.067 -0.0140 -0.2147 -0.3108
  728MOL0     C98182  -0.592   5.847   4.056 -0.3992  0.2349 -1.1466
  728MOL0     C98183  -0.668   5.884   3.926  0.3277 -0.0566  0.4042
  728MOL0     C98184  -0.785   5.990   3.945 -0.4006 -0.6944 -1.2124
  728MOL0     C98185  -0.788   6.085   3.818 -0.1872 -0.6131 -0.7313
  728MOL0     C98186  -0.745   6.227   3.838 -0.8019 -0.4886 -0.1317
  728MOL0     C98187  -0.603   6.239   3.869 -0.0421  0.5242 -0.6292
  728MOL0     C98188  -0.557   6.379   3.871 -0.5493 -0.3791 -0.0227
  728MOL0     C98189  -0.403   6.394   3.865 -1.0445  0.0850 -0.7095
  728MOL0    Cl98190  -0.336   6.375   3.693 -0.0439  0.1145  0.0703
  728MOL0     C98191  -0.478   5.913   4.307 -0.4857  0.2497  0.2434
  728MOL0     C98192  -0.436   5.982   4.423  0.0185 -0.5424  0.1782
  728MOL0     O98193  -0.087   6.150   4.448  0.3528 -0.3654  0.2990
  728MOL0     C98194  -0.223   6.240   4.776  0.0060  0.4847  0.2343
  728MOL0     C98195  -0.205   6.313   4.898 -0.3008  0.0612  1.0284
  728MOL0     N98196   0.046   6.602   5.418  0.0431  0.0312  0.1768
  728MOL0     N98197  -0.059   6.639   5.488 -0.5194 -0.2325 -0.2157
  728MOL0     C98198   0.168   5.939   5.292 -0.0539  0.4833  0.1598
  728MOL0     C98199   0.270   5.860   5.240  0.2717 -1.3834  0.7915
  728MOL0     C98200   0.545   5.689   4.915 -0.4447  0.3380 -0.0348
  728MOL0     C98201   0.602   5.572   4.967 -0.0351 -0.0596  0.2690
  728MOL0     C98202   0.685   5.483   4.895 -0.8081 -0.9217  0.0181
  728MOL0     C98203   0.708   5.516   4.761 -0.1243  2.8264  0.6006
  728MOL0     O98204   0.793   5.437   4.675 -0.5981  0.2297  0.1919
  728MOL0     C98205   0.930   5.463   4.671 -0.2780 -0.8681  0.5397
  728MOL0     C98206   0.993   5.392   4.558 -0.3445 -0.4631  0.2750
  728MOL0     C98207   1.016   5.246   4.597  0.9808  0.5065 -0.1543
  728MOL0     C98208   1.067   5.160   4.475  0.1281  0.0776 -0.8769
  728MOL0     C98209   0.959   5.142   4.380  0.1413  0.3247 -0.9872
  728MOL0     C98210   0.861   5.127   4.305 -1.1676  0.1172  0.2221
  728MOL0     C98211   0.656   5.634   4.709  0.2543 -0.3222  0.2673
  728MOL0     C98212   0.588   5.733   4.787 -0.5780  0.7875  1.5152
  728MOL0     H98213   0.114   5.623   5.060 -0.6842 -0.1885  0.1933
  728MOL0     H98214  -0.079   5.771   5.126 -1.6973  3.1774  0.8561
  728MOL0     H98215  -0.190   5.960   5.124  0.0179  0.2243 -0.4884
  728MOL0     H98216  -0.244   5.866   5.266  3.7365 -0.2250  1.8148
  728MOL0     H98217  -0.287   6.152   5.195 -2.7680 -1.1501 -1.5103
  728MOL0     H98218  -0.404   6.032   5.243 -0.8571  1.2292  1.8882
  728MOL0     H98219  -0.294   6.006   5.460  0.5331 -1.4589 -1.0845
  728MOL0     H98220  -0.191   6.132   5.415  1.1836 -1.3091  1.7878
  728MOL0     H98221  -0.492   6.119   5.431  1.2573 -1.2018 -3.2740
  728MOL0     H98222  -0.406   6.196   5.561 -0.6268  1.6132 -0.4303
  728MOL0     H98223  -0.418   6.339   5.302 -0.5943 -2.5884  0.1506
  728MOL0     H98224  -0.506   6.393   5.431  1.0633  1.8918 -0.7151
  728MOL0     H98225  -0.212   6.380   5.440  0.1776  0.7698 -2.2335
  728MOL0     H98226  -0.334   6.514   5.422 -2.2459 -1.7659 -2.7813
  728MOL0     H98227  -0.404   6.474   5.640  0.6343  2.4987 -0.5794
  728MOL0     H98228  -0.272   6.342   5.670  0.0157 -0.7893  0.0001
  728MOL0     H98229  -0.184   6.551   5.762  0.7193 -5.1624  1.2132
  728MOL0     H98230  -0.259   6.645   5.633 -2.1112 -1.0031  0.3426
  728MOL0     H98231   0.023   6.355   5.641 -0.7313  0.3242  0.9528
  728MOL0     H98232   0.232   6.435   5.304  0.8679  0.5230 -0.5169
  728MOL0     H98233   0.236   6.336   5.460 -0.4390 -0.7555 -0.2103
  728MOL0     H98234   0.029   6.221   5.390  0.6046 -2.5561 -2.8605
  728MOL0     H98235   0.134   6.211   5.260 -0.0662  1.4850 -0.6848
  728MOL0     H98236  -0.092   6.415   5.267 -1.5140 -1.5694  0.7971
  728MOL0     H98237  -0.075   6.256   5.177 -0.5687 -0.2127  1.0905
  728MOL0     H98238   0.106   6.357   5.035  1.2093  3.0372 -2.3389
  728MOL0     H98239   0.104   6.485   5.144 -0.6496  0.9546 -1.7159
  728MOL0     H98240   0.045   6.514   4.790 -1.2937  2.1535  1.6670
  728MOL0     H98241   0.073   6.508   4.550 -3.6125  0.5019  1.9747
  728MOL0     H98242   0.146   6.346   4.547  0.7447 -1.4009 -0.7916
  728MOL0     H98243  -0.007   6.385   4.462 -0.6622  0.0125  1.2819
  728MOL0     H98244  -0.283   6.250   4.288  1.1293 -0.8368 -1.4023
  728MOL0     H98245  -0.341   6.130   4.089 -0.1088  2.4280  0.1098
  728MOL0     H98246  -0.560   5.742   4.048  1.2827  0.5097  1.0452
  728MOL0     H98247  -0.657   5.860   4.142 -0.6212  0.5604 -1.3610
  728MOL0     H98248  -0.594   5.936   3.865  0.1055  2.5424  2.1977
  728MOL0     H98249  -0.704   5.794   3.876  1.3816 -0.4587  0.3524
  728MOL0     H98250  -0.753   6.049   4.031  2.9845 -1.9261 -1.5006
  728MOL0     H98251  -0.881   5.947   3.975 -0.6804  1.6154  1.7221
  728MOL0     H98252  -0.725   6.048   3.736  0.2930  0.8779 -1.0806
  728MOL0     H98253  -0.889   6.088   3.775 -0.1272 -1.3118 -0.9320
  728MOL0     H98254  -0.795   6.274   3.923  0.3997 -0.8512  0.8082
  728MOL0     H98255  -0.770   6.288   3.750  0.6039  0.4184  0.0609
  728MOL0     H98256  -0.568   6.189   3.959 -0.9252 -1.4503 -1.3213
  728MOL0     H98257  -0.539   6.194   3.792  1.4782  1.1137  0.2632
  728MOL0     H98258  -0.596   6.422   3.963  0.1546 -0.6252  0.4007
  728MOL0     H98259  -0.607   6.432   3.790  1.6947  0.5979 -0.8618
  728MOL0     H98260  -0.356   6.320   3.931  0.1337  0.7879 -0.7275
  728MOL0     H98261  -0.369   6.491   3.901  1.6503 -1.5750  1.6188
  728MOL0     H98262  -0.534   5.821   4.315 -2.7805  1.4026 -1.1767
  728MOL0     H98263  -0.453   5.945   4.524  1.2323  2.2649  1.5226
  728MOL0     H98264  -0.316   6.187   4.760  0.9163 -0.3595 -3.1250
  728MOL0     H98265  -0.277   6.322   4.979 -1.3355  1.7014 -0.0214
  728MOL0     H98266   0.187   6.020   5.361  2.1754  1.3305 -1.3527
  728MOL0     H98267   0.367   5.883   5.283 -1.0741  2.0824  2.4208
  728MOL0     H98268   0.573   5.537   5.065 -4.2582 -1.0384 -1.0997
  728MOL0     H98269   0.739   5.396   4.930 -0.7107 -1.1248 -0.6310
  728MOL0     H98270   0.956   5.569   4.667  0.8823 -1.0821  1.7119
  728MOL0     H98271   0.979   5.431   4.764 -0.8911  1.2526  1.6486
  728MOL0     H98272   1.089   5.435   4.528  0.5845 -3.0162 -0.7375
  728MOL0     H98273   0.928   5.400   4.470  0.4156 -2.4546 -0.5307
  728MOL0     H98274   0.923   5.208   4.641  1.2943  0.0436  0.1191
  728MOL0     H98275   1.091   5.253   4.677  0.4475 -0.0243  0.4065
  728MOL0     H98276   1.121   5.072   4.512 -0.9966 -0.5657 -0.7515
  728MOL0     H98277   1.132   5.228   4.418 -0.2917  1.3797  0.1481
  728MOL0     H98278   0.780   5.094   4.243  1.2962 -4.5482 -0.9973
  728MOL0     H98279   0.686   5.653   4.606  2.1093 -4.5056 -0.1665
  728MOL0     H98280   0.570   5.832   4.745 -0.2265  0.6501  1.0298
  729MOL0     O98281   0.230   3.639   3.881  0.4728  0.2780 -0.0116
  729MOL0     C98282   0.148   3.627   3.789 -0.1039 -0.8502 -0.4162
  729MOL0     O98283   0.112   3.509   3.728 -0.8449  0.5740 -0.8056
  729MOL0     C98284   0.174   3.393   3.777 -0.1606  1.2578 -0.3832
  729MOL0     C98285   0.142   3.354   3.908  0.6667  0.9635 -0.0429
  729MOL0     C98286   0.203   3.244   3.971 -0.0846  0.3356 -0.2742
  729MOL0     C98287   0.301   3.165   3.910  0.1629 -0.2365 -0.3051
  729MOL0     O98288   0.363   3.060   3.970  0.0505 -0.0134 -0.4130
  729MOL0     C98289   0.337   3.026   4.104 -0.3220 -0.0962  0.3111
  729MOL0     C98290   0.448   2.939   4.173  0.6087 -0.2855  0.7213
  729MOL0     C98291   0.389   2.859   4.291  1.5347 -0.0752 -1.0120
  729MOL0     C98292   0.508   2.776   4.344  1.0687  0.2680  0.1434
  729MOL0     C98293   0.451   2.685   4.453  0.1278  0.9560  1.2700
  729MOL0     C98294   0.524   2.547   4.453  0.4436 -0.3879 -0.0566
  729MOL0     C98295   0.469   2.457   4.562  0.3361 -0.3446  0.1907
  729MOL0     C98296   0.543   2.473   4.704  1.3960  0.1594  0.3107
  729MOL0     N98297   0.522   2.348   4.782  0.3442 -0.2482 -0.0117
  729MOL0     C98298   0.619   2.263   4.827 -0.0805 -0.7428  0.4481
  729MOL0     C98299   0.552   2.169   4.897  0.3818  0.4724 -0.0588
  729MOL0     C98300   0.604   2.042   4.971 -0.4685 -0.8182  0.2985
  729MOL0     C98301   0.624   1.918   4.891 -0.1600 -0.0271  0.3244
  729MOL0     C98302   0.506   1.820   4.911  0.7171 -0.5115 -0.4422
  729MOL0     C98303   0.528   1.690   4.840 -0.6674  0.8220  0.0000
  729MOL0     O98304   0.544   1.728   4.698  0.3906  0.5449 -0.3424
  729MOL0     C98305   0.536   1.616   4.620 -0.6695  0.3820  0.2847
  729MOL0     C98306   0.554   1.639   4.479  0.1038  0.8566 -0.9519
  729MOL0     C98307   0.549   1.543   4.378 -0.2900  0.8648  0.1975
  729MOL0     C98308   0.568   1.596   4.240 -0.8742  0.5174 -0.5638
  729MOL0     C98309   0.538   1.407   4.408  0.1981  0.2844  0.6644
  729MOL0     C98310   0.559   1.287   4.321 -0.9389  0.3797  0.3501
  729MOL0     O98311   0.534   1.165   4.379  0.2155  1.3347 -0.4525
  729MOL0     C98312   0.583   1.054   4.319 -0.1354  0.1847  0.2233
  729MOL0     C98313   0.498   0.951   4.302 -0.1333  0.2170 -0.0595
  729MOL0     C98314   0.537   0.825   4.253  0.0881 -0.8248 -0.0203
  729MOL0     C98315   0.679   0.806   4.233  1.0444  1.0550  0.4489
  729MOL0     O98316   0.724   0.680   4.191  0.4700 -0.3599 -0.4057
  729MOL0     C98317   0.694   0.663   4.054 -0.4597  0.1314  0.1503
  729MOL0     C98318   0.717   0.523   3.993 -0.5364  0.4712  0.1391
  729MOL0     C98319   0.691   0.532   3.841 -0.1680 -0.0928 -0.0090
  729MOL0     C98320   0.663   0.397   3.788  0.3311  0.5022 -0.3626
  729MOL0     C98321   0.674   0.384   3.633 -0.5146  0.3735  0.6268
  729MOL0     C98322   0.621   0.249   3.570  0.4046  0.2162 -1.0268
  729MOL0     C98323   0.588   0.273   3.419 -0.0752  0.1265  0.0647
  729MOL0     C98324   0.547   0.134   3.366 -0.2026 -0.6585  0.3029
  729MOL0    Cl98325   0.490   0.131   3.200 -0.1270 -0.2208 -0.1811
  729MOL0     C98326   0.767   0.908   4.230  0.5422  0.3701 -0.3771
  729MOL0     C98327   0.721   1.037   4.281  0.0177 -0.3538 -1.2912
  729MOL0     O98328   0.573   1.309   4.193  0.0067 -0.2638 -0.7395
  729MOL0     C98329   0.534   1.377   4.550  0.3099 -1.1618  0.5168
  729MOL0     C98330   0.530   1.474   4.657  0.1408 -0.8697 -0.1347
  729MOL0     N98331   0.417   2.196   4.895 -0.1358  0.6467  0.3544
  729MOL0     N98332   0.403   2.301   4.827 -0.1505 -0.5108  0.1681
  729MOL0     C98333   0.340   3.210   3.779 -0.0034 -0.2429 -0.4684
  729MOL0     C98334   0.283   3.324   3.715  1.0743 -0.7440  0.0356
  729MOL0     C98335   0.074   3.748   3.758  1.2096 -0.6213  0.1641
  729MOL0     C98336  -0.071   3.744   3.742 -0.8885 -0.3998  0.7167
  729MOL0     C98337  -0.136   3.863   3.702 -0.1990  1.0209 -0.0467
  729MOL0     C98338  -0.069   3.979   3.680  0.4855 -0.0487 -0.8510
  729MOL0     O98339  -0.157   4.084   3.635 -0.3585 -0.2174 -1.0551
  729MOL0     C98340  -0.122   4.215   3.685  0.6739  0.7914 -0.1436
  729MOL0     C98341  -0.206   4.246   3.798  0.2582 -0.3208  0.0968
  729MOL0     C98342  -0.352   4.254   3.762 -0.1767  0.2206 -0.0098
  729MOL0     C98343  -0.425   4.282   3.884  1.3140  0.5484  0.5523
  729MOL0     C98344  -0.570   4.261   3.859  0.2427 -0.2073 -0.4868
  729MOL0     C98345  -0.685   4.235   3.834 -0.0534 -0.2340  0.5303
  729MOL0     C98346   0.068   3.977   3.698  0.0648  0.0496 -0.1570
  729MOL0     C98347   0.139   3.864   3.726 -1.0447  0.4056  0.0608
  729MOL0     H98348   0.068   3.411   3.963  1.3907  1.1997  0.7087
  729MOL0     H98349   0.171   3.220   4.072  1.4795 -2.8149 -0.4162
  729MOL0     H98350   0.341   3.121   4.159  1.8326  1.1060 -1.7416
  729MOL0     H98351   0.245   2.971   4.123 -0.1346 -0.7758 -0.6992
  729MOL0     H98352   0.489   2.866   4.103  0.3636 -0.7493  1.0524
  729MOL0     H98353   0.525   3.009   4.207  1.2539  0.6266 -2.3132
  729MOL0     H98354   0.347   2.919   4.372 -1.0749 -1.5127 -1.2080
  729MOL0     H98355   0.309   2.795   4.252 -1.1749 -0.1780  3.9505
  729MOL0     H98356   0.556   2.714   4.268 -2.8023 -3.8332  0.6048
  729MOL0     H98357   0.579   2.842   4.395  0.3047  0.0139  1.6120
  729MOL0     H98358   0.462   2.731   4.552 -0.8575  1.8266  0.9902
  729MOL0     H98359   0.343   2.672   4.442  0.2921 -2.2754  2.4451
  729MOL0     H98360   0.509   2.505   4.353 -1.1582  0.5409 -0.2565
  729MOL0     H98361   0.629   2.575   4.466  0.4781  0.5617 -2.0408
  729MOL0     H98362   0.361   2.466   4.565  0.3947  0.5711 -0.0964
  729MOL0     H98363   0.489   2.356   4.524  4.7297  0.5640 -0.4940
  729MOL0     H98364   0.504   2.563   4.753 -0.8376  1.1129 -2.9319
  729MOL0     H98365   0.651   2.486   4.694  1.7056 -1.7994  0.8462
  729MOL0     H98366   0.726   2.276   4.815 -0.2617  4.8313  2.0965
  729MOL0     H98367   0.702   2.056   5.018 -1.1305  0.0307  1.4922
  729MOL0     H98368   0.531   2.032   5.051 -0.2868  1.6142  0.8449
  729MOL0     H98369   0.722   1.874   4.911 -0.4170  0.4357  3.0954
  729MOL0     H98370   0.630   1.938   4.784 -1.1539 -1.2714  0.0150
  729MOL0     H98371   0.407   1.854   4.880 -0.5264 -2.0056  1.6553
  729MOL0     H98372   0.495   1.808   5.019 -1.8307  1.7763 -0.3328
  729MOL0     H98373   0.435   1.633   4.842 -0.6739  0.7918 -0.8323
  729MOL0     H98374   0.612   1.631   4.877 -0.1642  0.9974 -0.8375
  729MOL0     H98375   0.567   1.743   4.451 -2.7274  1.8781  1.0387
  729MOL0     H98376   0.655   1.555   4.188 -0.7605  0.7776 -0.5843
  729MOL0     H98377   0.486   1.570   4.173  0.1232  1.1317 -2.1063
  729MOL0     H98378   0.573   1.706   4.239  1.7859  0.4869 -1.5553
  729MOL0     H98379   0.392   0.965   4.322 -1.6548 -0.9840 -5.6021
  729MOL0     H98380   0.470   0.740   4.248 -0.8945 -0.1218  0.7252
  729MOL0     H98381   0.591   0.696   4.035 -0.5410  1.5029  2.5315
  729MOL0     H98382   0.750   0.743   4.005 -0.6485 -0.7122 -1.4904
  729MOL0     H98383   0.821   0.499   4.017  0.1106  1.3755 -1.5315
  729MOL0     H98384   0.647   0.454   4.040  1.4359 -2.0657 -0.4332
  729MOL0     H98385   0.781   0.569   3.791  0.2144  1.0895  1.4846
  729MOL0     H98386   0.611   0.601   3.814  0.2233  1.3936  2.3119
  729MOL0     H98387   0.747   0.340   3.830  2.6393  4.2391  0.5730
  729MOL0     H98388   0.565   0.366   3.826 -0.6248  0.4295 -2.7087
  729MOL0     H98389   0.777   0.387   3.596 -1.6199 -4.7713 -4.2863
  729MOL0     H98390   0.623   0.478   3.607  0.7310  1.8682  3.2808
  729MOL0     H98391   0.688   0.163   3.580  0.7364  0.4566 -1.1618
  729MOL0     H98392   0.525   0.225   3.616  0.9046 -0.3863 -0.2563
  729MOL0     H98393   0.678   0.296   3.362  0.0145 -3.3225 -1.4198
  729MOL0     H98394   0.504   0.341   3.402  0.6356  1.8366  2.7925
  729MOL0     H98395   0.466   0.090   3.425  0.9093 -2.2422  0.7420
  729MOL0     H98396   0.630   0.063   3.376  2.3570  1.9033 -1.2326
  729MOL0     H98397   0.867   0.902   4.187  0.3431 -2.8538 -0.6650
  729MOL0     H98398   0.796   1.115   4.289  0.1241 -0.4989 -0.8726
  729MOL0     H98399   0.525   1.275   4.588 -0.6205 -1.4699 -0.4618
  729MOL0     H98400   0.532   1.444   4.761  1.0239 -0.4440 -0.0150
  729MOL0     H98401   0.419   3.168   3.718  0.5737 -0.2051  0.2403
  729MOL0     H98402   0.340   3.350   3.626  5.7522 -1.6352  2.4471
  729MOL0     H98403  -0.116   3.647   3.760 -0.0918 -0.8470  0.3730
  729MOL0     H98404  -0.243   3.846   3.712  0.4116 -3.3915  1.1174
  729MOL0     H98405  -0.014   4.223   3.705  0.3272  3.3830  1.1680
  729MOL0     H98406  -0.143   4.289   3.607  1.2907  1.7489  0.5710
  729MOL0     H98407  -0.172   4.343   3.834 -0.4700  0.0696 -0.2382
  729MOL0     H98408  -0.184   4.181   3.882  3.3114  2.1238  1.3968
  729MOL0     H98409  -0.388   4.157   3.727 -3.3968  1.9317 -1.9136
  729MOL0     H98410  -0.373   4.314   3.673  0.2326 -0.0656 -0.3012
  729MOL0     H98411  -0.428   4.388   3.908 -3.0980  0.8138 -0.3421
  729MOL0     H98412  -0.391   4.220   3.968 -3.0016  0.0945  2.2299
  729MOL0     H98413  -0.785   4.205   3.811  0.2583 -2.0358  1.3871
  729MOL0     H98414   0.120   4.067   3.668  0.1767 -0.5584 -1.9293
  729MOL0     H98415   0.246   3.859   3.710 -1.3942 -1.3007 -2.2296
  730MOL0     O98416   4.395   6.968   0.287 -0.2123  0.6561 -0.0618
  730MOL0     C98417   4.275   6.969   0.324 -0.5298 -0.6034  0.2233
  730MOL0     O98418   4.209   6.880   0.411 -0.0668  0.4539 -0.8006
  730MOL0     C98419   4.268   6.765   0.450 -0.3090  0.2255  0.5065
  730MOL0     C98420   4.403   6.750   0.494  0.7691 -0.4878 -0.2873
  730MOL0     C98421   4.452   6.624   0.532 -0.4181 -0.4140  0.1763
  730MOL0     C98422   4.383   6.507   0.501  0.3131 -0.2682  0.5360
  730MOL0     O98423   4.432   6.375   0.516 -0.5413  0.0765  0.0570
  730MOL0     C98424   4.526   6.349   0.620 -0.3707  0.1302 -0.7039
  730MOL0     C98425   4.522   6.198   0.655 -1.1158 -0.3292  0.0854
  730MOL0     C98426   4.389   6.161   0.721 -0.5593  0.4464 -0.5875
  730MOL0     C98427   4.414   6.013   0.754  0.1193  0.7162 -0.2761
  730MOL0     C98428   4.286   5.967   0.832 -0.6042 -0.8564  0.2937
  730MOL0     C98429   4.256   6.043   0.954  0.5512 -0.4415 -0.6044
  730MOL0     C98430   4.141   5.980   1.025 -0.2703  0.5597  0.6292
  730MOL0     C98431   4.115   6.060   1.148  0.0496 -0.4094  0.3616
  730MOL0     N98432   4.065   6.197   1.121 -0.2184 -0.2046  0.6558
  730MOL0     C98433   3.940   6.234   1.077  1.0486  0.0004  0.0471
  730MOL0     C98434   3.922   6.373   1.086 -0.4672  0.1363  0.3021
  730MOL0     C98435   3.821   6.467   1.005  0.9772  0.2830 -0.0756
  730MOL0     C98436   3.777   6.583   1.104 -1.2967 -0.2381  0.9560
  730MOL0     C98437   3.689   6.529   1.214 -0.0125  1.4945  0.0338
  730MOL0     C98438   3.604   6.644   1.273  0.0484  0.1259  0.2944
  730MOL0     O98439   3.477   6.599   1.333 -0.1901  0.2903  0.1337
  730MOL0     C98440   3.488   6.566   1.462  0.5709 -0.1535  0.7858
  730MOL0     C98441   3.518   6.437   1.500 -0.0109  0.6346  0.6613
  730MOL0     C98442   3.525   6.393   1.641  0.6682  0.3762  0.0334
  730MOL0     C98443   3.550   6.251   1.671 -0.0148 -0.2934 -0.7730
  730MOL0     C98444   3.504   6.489   1.743 -0.5672  0.3371 -0.0285
  730MOL0     C98445   3.509   6.467   1.890  0.8160 -0.2361  0.9973
  730MOL0     O98446   3.440   6.551   1.973  0.7034 -0.1333 -0.5335
  730MOL0     C98447   3.451   6.521   2.108 -0.4444 -0.7084  0.6220
  730MOL0     C98448   3.526   6.616   2.175  0.0319 -0.2963  0.8082
  730MOL0     C98449   3.514   6.612   2.325 -1.2463  0.9519  0.1586
  730MOL0     C98450   3.457   6.503   2.398 -0.4338  0.5222  0.3832
  730MOL0     O98451   3.461   6.502   2.542  0.3430  1.1589  0.2651
  730MOL0     C98452   3.407   6.376   2.604 -0.0031  0.2143 -0.0288
  730MOL0     C98453   3.410   6.348   2.754  0.0008  1.4830 -0.2189
  730MOL0     C98454   3.332   6.456   2.829  0.8823  0.0611 -0.0545
  730MOL0     C98455   3.323   6.413   2.976 -0.5227  0.4806 -0.3850
  730MOL0     C98456   3.246   6.512   3.077  0.3205  0.1895  1.5550
  730MOL0     C98457   3.258   6.449   3.215 -0.0864 -0.5978 -0.0533
  730MOL0     C98458   3.194   6.530   3.327 -0.0292  0.6972 -0.4234
  730MOL0     C98459   3.285   6.643   3.394  0.6919 -0.2108  1.3766
  730MOL0    Cl98460   3.425   6.561   3.478  0.3036  0.4203 -0.1148
  730MOL0     C98461   3.395   6.407   2.315  1.0094  0.2592  0.2130
  730MOL0     C98462   3.385   6.424   2.175  0.3088  0.1230 -0.1146
  730MOL0     O98463   3.589   6.385   1.925  0.8059 -0.2988  0.1916
  730MOL0     C98464   3.470   6.616   1.701  0.0534 -0.3108 -0.2780
  730MOL0     C98465   3.471   6.654   1.566  1.5000  0.4965 -0.6426
  730MOL0     N98466   4.039   6.418   1.149 -0.2925 -0.2674 -0.4243
  730MOL0     N98467   4.110   6.309   1.177  0.0648 -0.5019  0.5616
  730MOL0     C98468   4.251   6.527   0.450  1.2117  0.7606  0.1975
  730MOL0     C98469   4.188   6.648   0.442 -0.4992  0.2919 -0.6867
  730MOL0     C98470   4.195   7.088   0.285 -0.6193 -0.0383  1.2008
  730MOL0     C98471   4.056   7.094   0.283 -0.2543  0.2171 -0.5896
  730MOL0     C98472   3.991   7.202   0.221 -0.5653  0.6895  0.3055
  730MOL0     C98473   4.057   7.320   0.179 -0.2180 -0.1586 -0.5519
  730MOL0     O98474   4.001   7.422   0.109 -0.0012  0.1214 -0.4481
  730MOL0     C98475   3.861   7.417   0.076 -1.0040 -0.3001 -0.0451
  730MOL0     C98476   3.789   7.453   0.201  0.4269 -0.4445 -0.7067
  730MOL0     C98477   3.730   7.598   0.203  0.1947 -0.8544 -0.4982
  730MOL0     C98478   3.669   7.635   0.340  1.3123 -0.6038 -0.6191
  730MOL0     C98479   3.568   7.736   0.330  0.3293 -0.1705  0.0135
  730MOL0     C98480   3.477   7.803   0.288  0.2759 -0.1827 -0.4743
  730MOL0     C98481   4.195   7.328   0.204  0.5778  0.0115 -0.1142
  730MOL0     C98482   4.260   7.214   0.250  0.1661 -0.0455  0.5538
  730MOL0     H98483   4.477   6.829   0.506 -0.0842  0.0732  1.6891
  730MOL0     H98484   4.555   6.610   0.561 -1.2097 -0.8566  3.0940
  730MOL0     H98485   4.631   6.371   0.597 -0.1314  2.5137  2.0388
  730MOL0     H98486   4.510   6.403   0.714  1.2490 -2.0354  0.9284
  730MOL0     H98487   4.524   6.140   0.563 -1.1522  1.6353 -1.2135
  730MOL0     H98488   4.611   6.178   0.715  0.2624 -1.2520 -2.1683
  730MOL0     H98489   4.381   6.230   0.805  2.3628  0.7842 -0.5000
  730MOL0     H98490   4.302   6.174   0.657 -0.7864 -0.6752 -0.5369
  730MOL0     H98491   4.426   5.953   0.663 -1.7722 -2.2044  1.2089
  730MOL0     H98492   4.507   6.001   0.809 -0.4465 -1.7683  0.2795
  730MOL0     H98493   4.208   5.983   0.757 -0.5364 -1.4546  0.0932
  730MOL0     H98494   4.296   5.864   0.866  2.6493 -0.3438  1.2971
  730MOL0     H98495   4.339   6.038   1.025  0.2302 -0.0127 -0.1957
  730MOL0     H98496   4.234   6.145   0.922  2.4376  0.6106  1.1759
  730MOL0     H98497   4.055   5.963   0.960  1.4445  1.1677 -1.9579
  730MOL0     H98498   4.178   5.887   1.069  1.2834  1.7639  1.9708
  730MOL0     H98499   4.213   6.062   1.197  0.0192  2.6449  0.4591
  730MOL0     H98500   4.059   6.015   1.230 -0.9959 -0.7720 -0.5198
  730MOL0     H98501   3.862   6.183   1.021 -0.9471  2.3983  0.4630
  730MOL0     H98502   3.875   6.519   0.925  0.9931  3.7665  1.9640
  730MOL0     H98503   3.736   6.404   0.979  0.3996  0.8781  0.3313
  730MOL0     H98504   3.743   6.668   1.044 -0.6202 -0.6397 -0.0377
  730MOL0     H98505   3.869   6.613   1.154 -0.1091 -0.7804 -0.7965
  730MOL0     H98506   3.750   6.471   1.284 -1.4668 -0.5897 -0.3285
  730MOL0     H98507   3.612   6.463   1.174 -0.7934  1.5213  1.4379
  730MOL0     H98508   3.591   6.715   1.192  1.7547  2.2162  1.7205
  730MOL0     H98509   3.662   6.701   1.347  0.7321 -0.1428 -0.0225
  730MOL0     H98510   3.509   6.356   1.428  0.1912 -0.6917  2.0632
  730MOL0     H98511   3.648   6.242   1.717 -0.5918 -3.1632  0.0931
  730MOL0     H98512   3.471   6.207   1.733 -0.8144  0.1126 -1.4753
  730MOL0     H98513   3.560   6.182   1.587 -2.3518 -1.1720 -0.4073
  730MOL0     H98514   3.570   6.691   2.111 -1.7896  0.8066  0.7646
  730MOL0     H98515   3.575   6.691   2.368  0.5274 -0.4615  0.3688
  730MOL0     H98516   3.307   6.364   2.562  1.3222  3.1183 -4.7969
  730MOL0     H98517   3.470   6.301   2.555  2.0580  3.0446 -2.0399
  730MOL0     H98518   3.371   6.248   2.773  1.4089  0.8601 -0.4804
  730MOL0     H98519   3.510   6.336   2.796  0.1082 -1.1133 -1.0626
  730MOL0     H98520   3.229   6.462   2.792  0.9156  0.5518 -0.0667
  730MOL0     H98521   3.392   6.546   2.819 -1.3172  1.4945 -1.3134
  730MOL0     H98522   3.283   6.311   2.975 -1.3058  0.7758 -1.7998
  730MOL0     H98523   3.427   6.418   3.009  0.2638 -1.4033 -2.3403
  730MOL0     H98524   3.141   6.521   3.045  0.1395 -3.9521  0.3742
  730MOL0     H98525   3.289   6.612   3.083 -1.8621  1.1155  3.0307
  730MOL0     H98526   3.202   6.355   3.207  1.3161 -1.4630 -0.2050
  730MOL0     H98527   3.361   6.420   3.240  0.2906  1.1126  0.4772
  730MOL0     H98528   3.177   6.457   3.407  0.9224  2.2723  1.2932
  730MOL0     H98529   3.097   6.568   3.293  1.3298  1.1214 -4.3247
  730MOL0     H98530   3.230   6.702   3.469  3.0073  1.1076  2.1650
  730MOL0     H98531   3.323   6.713   3.319 -0.6131 -0.4887  0.4298
  730MOL0     H98532   3.349   6.315   2.350 -1.4155  1.5588  0.6695
  730MOL0     H98533   3.318   6.358   2.121  0.3294  0.8443 -1.0246
  730MOL0     H98534   3.444   6.692   1.774 -1.6665  0.0679 -1.2245
  730MOL0     H98535   3.440   6.754   1.536  0.5877  0.1233 -0.9747
  730MOL0     H98536   4.194   6.444   0.412 -2.8584  3.9320 -1.3360
  730MOL0     H98537   4.084   6.667   0.418 -1.2671 -0.6386  1.6023
  730MOL0     H98538   4.004   7.013   0.333  1.1729  0.9135  2.2055
  730MOL0     H98539   3.883   7.210   0.223 -0.4920  2.7263 -1.0716
  730MOL0     H98540   3.850   7.498   0.003 -4.7442 -1.3069 -0.7845
  730MOL0     H98541   3.822   7.326   0.029  0.7325 -0.9592 -0.2956
  730MOL0     H98542   3.859   7.443   0.285 -0.5525  1.7907  0.4735
  730MOL0     H98543   3.710   7.379   0.209 -2.7896  2.6808 -1.0473
  730MOL0     H98544   3.645   7.608   0.135 -0.2243 -3.6046 -0.4692
  730MOL0     H98545   3.811   7.669   0.184 -0.8035  0.9143  1.4443
  730MOL0     H98546   3.745   7.679   0.406 -1.3925  2.1019  0.9967
  730MOL0     H98547   3.640   7.540   0.386 -0.3324 -0.5481 -1.4652
  730MOL0     H98548   3.401   7.875   0.265  2.0578  1.7998 -0.3872
  730MOL0     H98549   4.251   7.419   0.187  0.7134 -0.2537 -1.1489
  730MOL0     H98550   4.367   7.220   0.230 -0.1267  1.2737 -0.7647
  731MOL0     O98551   8.024   4.722   5.394 -0.5085  0.0394  0.3152
  731MOL0     C98552   7.927   4.678   5.451  0.3318  0.8849 -0.2405
  731MOL0     O98553   7.934   4.568   5.523  0.1188 -0.1601 -0.6376
  731MOL0     C98554   8.047   4.502   5.569 -1.0083 -0.2287 -0.9809
  731MOL0     C98555   8.033   4.372   5.603  0.3755  0.2841 -0.0904
  731MOL0     C98556   8.133   4.304   5.664  0.0855  0.4380  0.0575
  731MOL0     C98557   8.256   4.365   5.697 -0.0114 -0.2409 -0.1524
  731MOL0     O98558   8.365   4.302   5.755  1.1558 -0.2302 -0.1053
  731MOL0     C98559   8.335   4.200   5.856 -0.2297 -0.7179 -0.5774
  731MOL0     C98560   8.452   4.112   5.872  0.0140  0.0307 -0.1043
  731MOL0     C98561   8.423   3.992   5.971  0.7434  0.5500  0.4252
  731MOL0     C98562   8.449   4.035   6.116  0.0642  0.3891  0.0191
  731MOL0     C98563   8.397   3.935   6.223  0.3027 -0.6210 -0.3456
  731MOL0     C98564   8.509   3.878   6.311 -0.1251 -0.4099  0.2764
  731MOL0     C98565   8.457   3.834   6.454  0.7109  0.2237  0.2439
  731MOL0     C98566   8.385   3.694   6.456  0.1222  0.1051  0.8931
  731MOL0     N98567   8.376   3.625   6.580 -0.1764  0.6581 -0.3655
  731MOL0     C98568   8.452   3.527   6.640 -0.4742 -0.5064  0.7920
  731MOL0     C98569   8.386   3.493   6.754  1.2699 -1.0178 -0.6960
  731MOL0     C98570   8.418   3.390   6.856  0.1175 -0.8337 -0.6406
  731MOL0     C98571   8.553   3.405   6.920  0.2125  0.8972 -0.2739
  731MOL0     C98572   8.562   3.525   7.018  0.5082  0.3470  1.1548
  731MOL0     C98573   8.697   3.600   7.017 -0.8279 -0.1755 -1.1587
  731MOL0     O98574   8.739   3.627   7.153  0.2240  0.0138 -0.1556
  731MOL0     C98575   8.867   3.672   7.167 -0.8420 -0.1817  0.3757
  731MOL0     C98576   8.890   3.804   7.137  0.7244 -0.2859 -0.9307
  731MOL0     C98577   9.018   3.859   7.125 -0.7228  0.4150  1.6084
  731MOL0     C98578   9.034   3.998   7.075  0.6580  0.6389  0.5057
  731MOL0     C98579   9.135   3.774   7.154 -0.0810 -0.3158 -0.2834
  731MOL0     C98580   9.269   3.817   7.144 -0.3465 -0.3422  0.3262
  731MOL0     O98581   9.350   3.810   7.252  0.6558  0.6182  0.3481
  731MOL0     C98582   9.459   3.886   7.245  0.1677 -0.4444 -0.1923
  731MOL0     C98583   9.459   4.026   7.262 -0.3402 -0.4902 -0.0387
  731MOL0     C98584   9.585   4.091   7.285 -0.4219  1.1655  0.4482
  731MOL0     C98585   9.703   4.015   7.293 -0.3789 -0.3812 -0.2432
  731MOL0     O98586   9.816   4.088   7.315 -0.0107  0.0849  0.0510
  731MOL0     C98587   9.930   4.033   7.379 -0.2386 -0.1251 -0.5075
  731MOL0     C98588  10.000   4.158   7.444 -0.5788  0.1078 -0.7905
  731MOL0     C98589  10.132   4.126   7.523  0.3209  0.7876  0.1945
  731MOL0     C98590  10.213   4.246   7.572  0.4979  0.0189 -0.3495
  731MOL0     C98591  10.351   4.203   7.616  1.0685 -0.9401 -0.0949
  731MOL0     C98592  10.344   4.106   7.738 -0.3193 -0.1557  0.2316
  731MOL0     C98593  10.487   4.052   7.780 -0.1650 -0.3459  0.4478
  731MOL0     C98594  10.587   4.154   7.828 -1.0208  0.5438 -0.0622
  731MOL0    Cl98595  10.542   4.278   7.951  0.2093  0.0670  0.1486
  731MOL0     C98596   9.696   3.881   7.295 -1.2319 -0.1911  0.3534
  731MOL0     C98597   9.575   3.815   7.266 -1.4813  0.4968  0.3284
  731MOL0     O98598   9.298   3.870   7.032 -0.1166 -0.1388  0.1259
  731MOL0     C98599   9.108   3.639   7.194 -0.0386 -0.3533  0.2531
  731MOL0     C98600   8.980   3.583   7.179 -0.6849  0.4263 -0.4096
  731MOL0     N98601   8.273   3.560   6.753  0.5073 -0.4634  0.3475
  731MOL0     N98602   8.264   3.652   6.659  0.8432  0.3875 -0.1819
  731MOL0     C98603   8.275   4.495   5.653  0.2080 -0.6832 -0.0221
  731MOL0     C98604   8.168   4.567   5.595  0.0685 -0.8904 -0.4964
  731MOL0     C98605   7.790   4.744   5.439  0.6284  0.5742  0.4725
  731MOL0     C98606   7.785   4.876   5.417 -0.1323 -0.7861  0.4097
  731MOL0     C98607   7.660   4.940   5.413  0.0901 -0.1014  1.1440
  731MOL0     C98608   7.540   4.868   5.419  0.4003 -0.1942 -0.8711
  731MOL0     O98609   7.429   4.939   5.430 -0.3521  0.4849  0.0543
  731MOL0     C98610   7.319   4.890   5.352  0.2321 -0.0750 -0.5828
  731MOL0     C98611   7.223   5.008   5.339  0.6676  0.7082  0.0029
  731MOL0     C98612   7.269   5.106   5.235 -0.0405 -0.5802 -0.0702
  731MOL0     C98613   7.161   5.202   5.172 -0.4499  0.4212 -0.4881
  731MOL0     C98614   7.132   5.308   5.272 -0.3646 -0.1235  0.3048
  731MOL0     C98615   7.127   5.402   5.348  0.2564 -0.2183  0.2979
  731MOL0     C98616   7.543   4.727   5.441  0.0476 -0.2242  0.1320
  731MOL0     C98617   7.672   4.670   5.449 -0.4326 -0.2050 -0.0026
  731MOL0     H98618   7.945   4.312   5.581 -0.1694  1.0612 -0.0450
  731MOL0     H98619   8.130   4.196   5.671  0.8217  0.3519 -0.8050
  731MOL0     H98620   8.321   4.251   5.952  0.1782 -0.8556 -0.4450
  731MOL0     H98621   8.245   4.144   5.828  1.0625 -2.2167 -1.9450
  731MOL0     H98622   8.483   4.070   5.776 -1.8867 -2.2452  0.1737
  731MOL0     H98623   8.533   4.174   5.912  0.3095  0.8637 -1.9129
  731MOL0     H98624   8.317   3.966   5.966  1.1853 -1.3107 -0.3573
  731MOL0     H98625   8.489   3.907   5.947 -0.5057 -0.3092 -0.0384
  731MOL0     H98626   8.553   4.062   6.131  0.2320  2.4920 -3.7915
  731MOL0     H98627   8.398   4.129   6.141 -1.8632  0.1946 -2.7103
  731MOL0     H98628   8.326   3.999   6.277  0.2291 -2.1374  1.4560
  731MOL0     H98629   8.353   3.848   6.174 -2.4321  0.1912  0.4916
  731MOL0     H98630   8.569   3.797   6.270  2.9930  2.0604 -0.3991
  731MOL0     H98631   8.578   3.962   6.319 -0.3878  0.1735 -2.6856
  731MOL0     H98632   8.538   3.801   6.519 -1.7843 -2.0712  2.4280
  731MOL0     H98633   8.401   3.911   6.508 -1.0097 -1.0211  0.3423
  731MOL0     H98634   8.440   3.634   6.383  0.3744  0.1908  1.0115
  731MOL0     H98635   8.287   3.713   6.410  0.5534  0.6096  0.1687
  731MOL0     H98636   8.552   3.495   6.615 -1.5393 -4.7464  1.0904
  731MOL0     H98637   8.351   3.394   6.942 -2.7226 -0.6269 -2.6910
  731MOL0     H98638   8.400   3.290   6.815  1.9213 -1.3663 -0.2240
  731MOL0     H98639   8.620   3.411   6.834 -0.9857  0.2361 -1.2974
  731MOL0     H98640   8.559   3.312   6.978 -0.1140  2.5601  2.5694
  731MOL0     H98641   8.561   3.473   7.114 -3.2303  1.2649  1.7753
  731MOL0     H98642   8.479   3.595   7.006  1.0138  0.6875 -0.7809
  731MOL0     H98643   8.681   3.695   6.966  0.2732  1.2011  0.9073
  731MOL0     H98644   8.771   3.536   6.969 -0.3681  0.0796 -0.7946
  731MOL0     H98645   8.812   3.878   7.119 -0.3728 -0.8976  1.0566
  731MOL0     H98646   9.082   4.002   6.977 -0.6508  0.3228 -0.1621
  731MOL0     H98647   8.936   4.044   7.059  0.7328  0.3573 -0.9092
  731MOL0     H98648   9.073   4.065   7.153 -0.4399 -0.4590  2.0588
  731MOL0     H98649   9.376   4.097   7.257 -0.6767 -0.9480 -1.1582
  731MOL0     H98650   9.594   4.199   7.290  2.4234  1.0402 -0.4928
  731MOL0     H98651   9.912   3.960   7.458  3.0487 -0.7416 -0.1844
  731MOL0     H98652  10.001   3.988   7.309  0.7468  0.9403 -0.2289
  731MOL0     H98653  10.024   4.227   7.363 -1.9665  2.4381  0.6658
  731MOL0     H98654   9.940   4.221   7.511  2.9500  2.3414  0.5614
  731MOL0     H98655  10.190   4.060   7.457 -3.2975 -1.8467 -0.6286
  731MOL0     H98656  10.120   4.057   7.607  1.0406  0.4319  0.0131
  731MOL0     H98657  10.229   4.305   7.481  1.0813 -1.8081 -1.4877
  731MOL0     H98658  10.162   4.298   7.654  1.7017  0.1434  0.3462
  731MOL0     H98659  10.405   4.288   7.659 -1.3914  4.4428 -5.9672
  731MOL0     H98660  10.406   4.150   7.538 -1.5257 -4.2673  0.0725
  731MOL0     H98661  10.289   4.163   7.813  1.0374  2.1104 -0.4136
  731MOL0     H98662  10.278   4.020   7.724  0.3386 -0.9979  1.9624
  731MOL0     H98663  10.519   3.991   7.695 -2.5163  0.7916 -1.3619
  731MOL0     H98664  10.487   3.983   7.865 -0.1594 -0.0728  0.6720
  731MOL0     H98665  10.626   4.202   7.737 -2.1243 -0.2534 -0.9908
  731MOL0     H98666  10.670   4.093   7.864  1.0505  2.7103 -0.8673
  731MOL0     H98667   9.778   3.809   7.297 -0.5405  0.4911 -1.6546
  731MOL0     H98668   9.568   3.707   7.264 -1.3097  0.4107  2.5090
  731MOL0     H98669   9.197   3.577   7.200  0.9878  1.0088 -0.5050
  731MOL0     H98670   8.966   3.476   7.191  2.2785 -0.4556 -3.2830
  731MOL0     H98671   8.369   4.545   5.672  0.0963 -0.9473  1.2922
  731MOL0     H98672   8.175   4.673   5.570  2.1231 -0.0999  2.8052
  731MOL0     H98673   7.878   4.931   5.404 -1.4684  1.3863 -0.5111
  731MOL0     H98674   7.665   5.048   5.404 -2.6998 -0.0394 -0.6638
  731MOL0     H98675   7.365   4.858   5.258  2.4218  2.0718 -0.3433
  731MOL0     H98676   7.271   4.804   5.399  0.5540 -1.0137 -1.9049
  731MOL0     H98677   7.203   5.047   5.439  0.1594 -0.1131  0.2293
  731MOL0     H98678   7.128   4.971   5.297 -0.4368  1.6069  1.5972
  731MOL0     H98679   7.305   5.043   5.153 -0.3031 -2.3687  1.1386
  731MOL0     H98680   7.353   5.172   5.260  0.2781  0.8622 -4.1467
  731MOL0     H98681   7.076   5.142   5.139  0.4693 -2.3983  1.7636
  731MOL0     H98682   7.200   5.250   5.082  0.5424  3.7859  1.5747
  731MOL0     H98683   7.132   5.478   5.423 -2.6901  0.4651 -0.0941
  731MOL0     H98684   7.459   4.663   5.462  0.9822 -1.2691  0.7738
  731MOL0     H98685   7.689   4.565   5.472  2.1798 -0.1939 -1.4869
  732MOL0     O98686   4.179   2.091   3.798 -0.0209 -0.4234  0.0244
  732MOL0     C98687   4.127   2.114   3.691  0.0799  0.1133  0.6226
  732MOL0     O98688   4.131   2.231   3.624 -0.4179  0.0637 -0.2424
  732MOL0     C98689   4.130   2.359   3.679 -1.1448  1.2149  0.1970
  732MOL0     C98690   4.112   2.469   3.591  0.2735  0.0208 -0.6555
  732MOL0     C98691   4.102   2.603   3.634 -0.2444 -0.2655  0.8154
  732MOL0     C98692   4.096   2.628   3.770 -0.3268 -0.6755  0.4447
  732MOL0     O98693   4.115   2.756   3.818 -0.2289  0.7474 -0.4875
  732MOL0     C98694   4.080   2.881   3.756  1.2441  0.3219  0.2681
  732MOL0     C98695   4.201   2.930   3.675  0.0429 -1.5844 -0.6702
  732MOL0     C98696   4.182   3.075   3.626  0.3710  0.2248  0.1902
  732MOL0     C98697   4.313   3.103   3.556  0.6387  0.1220  0.3229
  732MOL0     C98698   4.313   3.242   3.496 -0.0686 -0.2893 -0.4725
  732MOL0     C98699   4.280   3.246   3.351  0.3685 -0.0294  0.7196
  732MOL0     C98700   4.357   3.159   3.255 -0.5044 -0.3608  0.9374
  732MOL0     C98701   4.357   3.224   3.115 -0.3179  0.0122  0.1139
  732MOL0     N98702   4.427   3.152   3.001 -0.3327 -1.0146 -0.2719
  732MOL0     C98703   4.566   3.159   2.970 -0.1689 -0.1835  0.9443
  732MOL0     C98704   4.586   3.100   2.854  0.9098 -0.5016  0.4392
  732MOL0     C98705   4.707   3.082   2.778 -1.1318 -0.3590  1.0649
  732MOL0     C98706   4.752   3.210   2.706 -0.6536  0.4034  1.2824
  732MOL0     C98707   4.789   3.331   2.789  0.6720 -0.0710 -0.3035
  732MOL0     C98708   4.818   3.457   2.711  0.0675  0.2028 -0.4584
  732MOL0     O98709   4.813   3.570   2.800  0.1442 -0.5389 -0.0722
  732MOL0     C98710   4.856   3.689   2.756  0.0699 -0.7263  0.2004
  732MOL0     C98711   4.819   3.793   2.834 -0.3294 -0.4059  0.3279
  732MOL0     C98712   4.854   3.925   2.807  0.1848 -0.5028  1.0722
  732MOL0     C98713   4.799   4.033   2.900 -0.0713 -0.6929 -0.8701
  732MOL0     C98714   4.916   3.953   2.678  0.4186  0.2384 -0.6380
  732MOL0     C98715   4.962   4.089   2.634  0.4284 -0.6933  0.1787
  732MOL0     O98716   5.006   4.103   2.499 -0.0726 -0.2559 -0.4096
  732MOL0     C98717   5.085   4.219   2.473  0.7154 -0.1872  0.0660
  732MOL0     C98718   5.025   4.343   2.462 -1.2260 -0.5950 -0.6988
  732MOL0     C98719   5.103   4.457   2.450  0.7671  0.2283  0.3396
  732MOL0     C98720   5.244   4.450   2.454 -0.4153 -0.0941  0.4635
  732MOL0     O98721   5.309   4.571   2.456 -0.0825  0.1267  0.4669
  732MOL0     C98722   5.433   4.575   2.527 -0.3507 -0.5170 -0.4391
  732MOL0     C98723   5.457   4.713   2.586  0.2247  0.0579 -0.1658
  732MOL0     C98724   5.453   4.823   2.484  0.0016 -0.3511  0.3724
  732MOL0     C98725   5.546   4.789   2.360  0.1183  0.7489 -0.2225
  732MOL0     C98726   5.546   4.922   2.279  0.0229 -0.2448  0.1545
  732MOL0     C98727   5.628   4.908   2.157 -0.4017  0.4125 -0.4095
  732MOL0     C98728   5.771   4.905   2.198 -1.0702 -0.4518 -0.6783
  732MOL0     C98729   5.851   4.828   2.098 -0.1330 -0.2611  0.1499
  732MOL0    Cl98730   5.782   4.662   2.075  0.8053 -0.1980 -0.1310
  732MOL0     C98731   5.307   4.325   2.453 -0.7552  0.1930 -0.0528
  732MOL0     C98732   5.225   4.208   2.463  0.7722 -0.1809  0.6654
  732MOL0     O98733   4.984   4.171   2.722 -0.6525  0.3730  0.0529
  732MOL0     C98734   4.937   3.840   2.592  0.9478 -0.4372  0.2695
  732MOL0     C98735   4.917   3.712   2.630 -0.3641  0.9458 -0.4039
  732MOL0     N98736   4.463   3.051   2.812  0.1870  0.6180  0.1431
  732MOL0     N98737   4.372   3.070   2.909 -0.7951  0.2720  0.1859
  732MOL0     C98738   4.112   2.524   3.858 -0.5710  0.0664  0.0095
  732MOL0     C98739   4.128   2.389   3.815 -0.0619  0.3236  1.0313
  732MOL0     C98740   4.055   2.000   3.633  0.4940 -0.7800 -0.0451
  732MOL0     C98741   4.022   1.992   3.498 -0.0822  0.5153 -0.8869
  732MOL0     C98742   3.933   1.888   3.457  0.3299  0.0090 -1.0250
  732MOL0     C98743   3.896   1.784   3.542 -0.3861  1.0148  0.1079
  732MOL0     O98744   3.822   1.678   3.505  0.6459  0.3342 -0.2949
  732MOL0     C98745   3.757   1.663   3.375  0.0916 -0.3850 -0.4123
  732MOL0     C98746   3.850   1.626   3.261 -0.0531  0.1655 -0.4141
  732MOL0     C98747   3.947   1.511   3.284 -0.5238  0.0794  0.2314
  732MOL0     C98748   4.029   1.465   3.158  0.6772  0.2716 -0.6744
  732MOL0     C98749   3.956   1.500   3.033  0.6662 -0.3563  0.6415
  732MOL0     C98750   3.895   1.526   2.937  0.8915 -0.2170 -0.1243
  732MOL0     C98751   3.935   1.792   3.675  0.3953  0.4126 -0.5555
  732MOL0     C98752   4.013   1.899   3.720  0.2672 -0.2294 -0.1674
  732MOL0     H98753   4.114   2.455   3.483  2.8246  2.8678 -1.1407
  732MOL0     H98754   4.101   2.677   3.555  1.3595 -1.2027 -0.1415
  732MOL0     H98755   3.993   2.874   3.689  2.8937  1.0498 -2.0742
  732MOL0     H98756   4.055   2.960   3.827 -0.6882  3.4525 -3.4939
  732MOL0     H98757   4.277   2.934   3.753 -1.2201 -0.1137  0.5341
  732MOL0     H98758   4.237   2.860   3.599  1.3203 -0.5078 -1.0940
  732MOL0     H98759   4.090   3.081   3.567 -0.1894 -0.9799  0.8968
  732MOL0     H98760   4.167   3.149   3.705  0.4143  1.0381 -0.5470
  732MOL0     H98761   4.391   3.087   3.631 -0.3476 -4.4414  0.6392
  732MOL0     H98762   4.326   3.023   3.483 -2.4332 -0.8089  0.6788
  732MOL0     H98763   4.250   3.297   3.567 -0.9181 -2.5028  0.6139
  732MOL0     H98764   4.408   3.291   3.521 -0.6895 -0.4160  2.5831
  732MOL0     H98765   4.172   3.231   3.345  0.0734  1.7609  0.9452
  732MOL0     H98766   4.298   3.352   3.330 -0.5294  0.3056  1.5374
  732MOL0     H98767   4.462   3.135   3.276 -0.7299 -2.1416  0.2556
  732MOL0     H98768   4.300   3.066   3.241  1.0976 -1.4067  1.0356
  732MOL0     H98769   4.410   3.316   3.141 -0.6946 -0.2008  1.7360
  732MOL0     H98770   4.253   3.249   3.091 -1.2676 -2.9868  0.6293
  732MOL0     H98771   4.643   3.214   3.022 -0.3992  2.3550 -1.1806
  732MOL0     H98772   4.791   3.053   2.841 -0.3290 -2.7336 -0.9506
  732MOL0     H98773   4.683   3.012   2.697 -0.7514  1.0509 -0.3168
  732MOL0     H98774   4.681   3.233   2.626  1.3521  3.0079  0.0812
  732MOL0     H98775   4.844   3.186   2.651 -0.2489  4.1452  0.0025
  732MOL0     H98776   4.881   3.298   2.837 -0.4115 -3.6513 -0.4391
  732MOL0     H98777   4.716   3.347   2.869  0.8176 -2.6914  0.4191
  732MOL0     H98778   4.739   3.471   2.638 -2.7538 -2.1857  1.8685
  732MOL0     H98779   4.914   3.450   2.659  0.1666  1.5053 -0.4851
  732MOL0     H98780   4.780   3.783   2.935  0.5416  2.4419  1.0435
  732MOL0     H98781   4.883   4.082   2.950  1.1553 -3.0680 -0.4571
  732MOL0     H98782   4.750   4.116   2.848  1.3465  1.9379  1.7074
  732MOL0     H98783   4.743   3.992   2.984 -0.0828  0.7770 -0.1137
  732MOL0     H98784   4.918   4.346   2.443 -1.0742 -1.9712 -1.9315
  732MOL0     H98785   5.058   4.554   2.432 -1.6519 -0.9889 -0.6239
  732MOL0     H98786   5.439   4.499   2.606  2.3435 -3.2956 -3.0118
  732MOL0     H98787   5.512   4.545   2.457 -0.7660 -1.2932 -0.5899
  732MOL0     H98788   5.385   4.736   2.665 -0.6215 -1.8467 -0.3064
  732MOL0     H98789   5.557   4.720   2.629 -0.9139  1.8724  2.4423
  732MOL0     H98790   5.487   4.913   2.536 -0.5828 -0.2415  0.5699
  732MOL0     H98791   5.357   4.842   2.435  1.9143  3.0690 -2.4899
  732MOL0     H98792   5.643   4.786   2.409  0.7752  1.9145 -1.3802
  732MOL0     H98793   5.516   4.698   2.308  1.5799  0.6582 -0.9295
  732MOL0     H98794   5.576   5.013   2.332  0.5509 -0.4142  0.1522
  732MOL0     H98795   5.440   4.935   2.252  0.1117 -1.2622 -0.7678
  732MOL0     H98796   5.594   4.821   2.100  0.6188  0.3465 -0.9528
  732MOL0     H98797   5.619   5.000   2.098  0.6161  1.0825  0.4496
  732MOL0     H98798   5.800   4.852   2.289 -1.8082 -0.7621 -0.6199
  732MOL0     H98799   5.812   5.006   2.200 -1.2024 -0.3962 -0.7944
  732MOL0     H98800   5.950   4.813   2.143 -0.4143 -2.4796  0.1529
  732MOL0     H98801   5.858   4.885   2.005 -0.2937 -1.7565 -0.8036
  732MOL0     H98802   5.408   4.300   2.422 -1.2952 -1.9939 -0.2455
  732MOL0     H98803   5.249   4.102   2.459 -0.0886 -0.3472 -1.8728
  732MOL0     H98804   5.000   3.850   2.504  0.6444 -1.5420 -0.0874
  732MOL0     H98805   4.950   3.634   2.562  3.6897  0.6288  1.6639
  732MOL0     H98806   4.115   2.556   3.962  2.6308  3.2791 -0.8668
  732MOL0     H98807   4.164   2.319   3.889  1.5303 -0.4225 -0.3773
  732MOL0     H98808   4.038   2.078   3.433 -2.4463  0.7848 -1.1901
  732MOL0     H98809   3.914   1.911   3.353 -3.2063  0.6985 -0.3384
  732MOL0     H98810   3.690   1.578   3.393  2.2055 -2.3383 -1.2352
  732MOL0     H98811   3.712   1.762   3.359  1.6804  0.8117  1.9529
  732MOL0     H98812   3.909   1.716   3.241  0.5666  0.0942  1.0002
  732MOL0     H98813   3.786   1.591   3.179 -3.5817  1.8650  1.4302
  732MOL0     H98814   3.895   1.418   3.309  1.2519 -0.8152  0.7386
  732MOL0     H98815   4.015   1.540   3.364 -0.3456 -3.1567  1.3779
  732MOL0     H98816   4.039   1.356   3.162 -0.4446  0.1639  3.2632
  732MOL0     H98817   4.126   1.513   3.149  0.6315  0.2082 -1.5713
  732MOL0     H98818   3.847   1.557   2.846  1.2075 -1.2531 -0.6545
  732MOL0     H98819   3.905   1.723   3.754 -1.3266 -0.8297 -2.1866
  732MOL0     H98820   4.042   1.907   3.825  1.9362  0.4149 -0.6397
  733MOL0     O98821   4.720   0.550   8.242 -0.0082  0.6060 -0.1160
  733MOL0     C98822   4.738   0.668   8.264  0.5089  0.2496  0.5337
  733MOL0     O98823   4.841   0.749   8.232  0.1002 -1.1564  0.6914
  733MOL0     C98824   4.967   0.696   8.239 -0.6747  0.2103  0.0514
  733MOL0     C98825   5.064   0.764   8.311 -0.2910  0.6309  0.0777
  733MOL0     C98826   5.190   0.710   8.326 -0.9363 -0.4187  0.3536
  733MOL0     C98827   5.227   0.584   8.268  1.0229 -1.0024  0.7979
  733MOL0     O98828   5.354   0.553   8.283  0.1445  0.3314  0.0563
  733MOL0     C98829   5.433   0.473   8.189 -0.0811  0.4702  0.6342
  733MOL0     C98830   5.579   0.478   8.227  0.0980 -0.3882  0.3503
  733MOL0     C98831   5.663   0.594   8.171 -0.7399  0.2057  0.0163
  733MOL0     C98832   5.807   0.605   8.227 -0.0902 -0.6351  0.8853
  733MOL0     C98833   5.908   0.697   8.150 -0.2838 -0.4307 -0.4781
  733MOL0     C98834   5.961   0.635   8.023  0.6304  0.6945 -0.5518
  733MOL0     C98835   6.051   0.511   8.046  0.4426 -0.4400 -0.0562
  733MOL0     C98836   6.120   0.475   7.913  0.4970 -0.3156  0.1024
  733MOL0     N98837   6.212   0.352   7.907  0.2790 -0.5889  0.0316
  733MOL0     C98838   6.348   0.360   7.912 -0.0643  0.0822 -0.7281
  733MOL0     C98839   6.393   0.230   7.901  0.4968  0.3658  0.5562
  733MOL0     C98840   6.536   0.196   7.924 -0.5334 -1.1010  0.1338
  733MOL0     C98841   6.590   0.255   8.053  0.4453  0.4442 -0.8866
  733MOL0     C98842   6.514   0.183   8.167  0.5191  0.1049  0.6243
  733MOL0     C98843   6.593   0.208   8.298 -0.5308 -0.2061  0.1726
  733MOL0     O98844   6.523   0.158   8.405  0.0198 -0.3592 -0.7402
  733MOL0     C98845   6.557   0.034   8.454 -0.2375  0.2704 -0.6188
  733MOL0     C98846   6.666   0.025   8.542 -0.7062  0.1061 -1.1047
  733MOL0     C98847   6.710  -0.096   8.592 -0.3036  0.1978  0.2087
  733MOL0     C98848   6.831  -0.104   8.680 -1.2852 -0.4714 -0.7695
  733MOL0     C98849   6.648  -0.218   8.552 -0.4903 -0.3121  0.4080
  733MOL0     C98850   6.697  -0.358   8.596  1.1338  0.3560  0.4841
  733MOL0     O98851   6.663  -0.468   8.512  0.2253 -0.2002 -0.1256
  733MOL0     C98852   6.703  -0.597   8.548 -0.2238 -0.2133  0.9696
  733MOL0     C98853   6.645  -0.676   8.646 -0.4148  0.1704 -0.1527
  733MOL0     C98854   6.694  -0.803   8.668 -0.6365  0.6156  0.0342
  733MOL0     C98855   6.805  -0.859   8.594  0.0316 -0.2868 -0.4725
  733MOL0     O98856   6.855  -0.988   8.609 -0.1859  0.5318 -0.1751
  733MOL0     C98857   6.771  -1.105   8.623  0.1251 -0.0257 -0.7576
  733MOL0     C98858   6.854  -1.238   8.627 -0.3952 -0.3078  0.4403
  733MOL0     C98859   6.769  -1.357   8.685 -0.0583  0.2432  1.4347
  733MOL0     C98860   6.865  -1.486   8.703 -0.4211 -0.2964 -0.4602
  733MOL0     C98861   6.794  -1.610   8.762 -0.4262  0.2161  0.4598
  733MOL0     C98862   6.763  -1.588   8.909 -0.4237  0.2158 -0.8456
  733MOL0     C98863   6.728  -1.716   8.978  0.4361 -0.1858 -0.9064
  733MOL0     C98864   6.733  -1.697   9.129  0.9467  0.5134 -0.5532
  733MOL0    Cl98865   6.687  -1.839   9.235  0.0895  0.0982 -0.0652
  733MOL0     C98866   6.861  -0.779   8.496 -0.4082 -0.3538  0.1314
  733MOL0     C98867   6.809  -0.650   8.477  0.1900 -0.1945  0.3356
  733MOL0     O98868   6.750  -0.379   8.708 -0.1383  0.0305 -0.2598
  733MOL0     C98869   6.543  -0.203   8.460 -0.0839 -0.0114  0.2691
  733MOL0     C98870   6.491  -0.077   8.410 -0.4777  0.2433  0.6320
  733MOL0     N98871   6.280   0.147   7.876 -0.5522 -0.8214  0.0393
  733MOL0     N98872   6.181   0.225   7.875 -0.2580  0.6017  0.2801
  733MOL0     C98873   5.139   0.527   8.180 -0.1263 -0.1922 -0.0331
  733MOL0     C98874   5.004   0.576   8.163  0.1521 -0.0378  0.2062
  733MOL0     C98875   4.620   0.741   8.306  0.0995 -0.2685  0.4560
  733MOL0     C98876   4.499   0.681   8.337  0.1331 -0.0055 -0.8191
  733MOL0     C98877   4.393   0.753   8.415 -0.5558 -0.4790 -0.5958
  733MOL0     C98878   4.401   0.891   8.436  0.6493 -0.1119 -0.4461
  733MOL0     O98879   4.294   0.964   8.490  0.3356  1.0905  0.9519
  733MOL0     C98880   4.220   0.928   8.605 -0.1038 -0.1269 -0.5556
  733MOL0     C98881   4.300   0.968   8.735 -1.1089 -0.2144  0.3549
  733MOL0     C98882   4.271   1.114   8.763  0.6520 -1.1457 -0.4076
  733MOL0     C98883   4.342   1.212   8.667  0.0549  0.0855 -0.3073
  733MOL0     C98884   4.313   1.349   8.699 -0.5378 -0.6105 -0.7883
  733MOL0     C98885   4.276   1.471   8.722  0.4954 -0.6522  0.1001
  733MOL0     C98886   4.514   0.955   8.400  0.4123  0.0340 -0.5674
  733MOL0     C98887   4.619   0.884   8.340 -0.2097 -0.1660 -0.4372
  733MOL0     H98888   5.045   0.865   8.345 -2.8973  0.6431 -1.1968
  733MOL0     H98889   5.264   0.756   8.390 -3.1779  0.0966  2.7564
  733MOL0     H98890   5.386   0.374   8.182 -1.0453  1.0305 -1.3896
  733MOL0     H98891   5.421   0.530   8.097  0.4118 -0.2614  0.1041
  733MOL0     H98892   5.602   0.467   8.334  3.5723  0.6876 -0.1623
  733MOL0     H98893   5.637   0.400   8.177  0.8834  0.6272 -0.3730
  733MOL0     H98894   5.664   0.572   8.064  0.2171  3.1321 -0.6755
  733MOL0     H98895   5.594   0.676   8.192 -1.8227 -0.4683 -0.8097
  733MOL0     H98896   5.795   0.637   8.331 -2.7369 -1.2742  0.8454
  733MOL0     H98897   5.850   0.504   8.222  0.1637 -0.5027  0.2783
  733MOL0     H98898   5.861   0.793   8.127  2.7103  1.2718  0.0654
  733MOL0     H98899   5.988   0.720   8.220 -1.1499  0.2064  0.3211
  733MOL0     H98900   5.879   0.613   7.954 -0.7308  1.0137  0.9093
  733MOL0     H98901   6.024   0.714   7.980 -0.6013  1.5005 -0.9266
  733MOL0     H98902   6.128   0.536   8.119  1.1699  0.7511 -1.1835
  733MOL0     H98903   5.980   0.436   8.082 -0.6006  0.6554  0.2329
  733MOL0     H98904   6.181   0.563   7.889 -0.1426  0.5975  1.6611
  733MOL0     H98905   6.046   0.447   7.839 -0.7108  1.9640  0.3664
  733MOL0     H98906   6.419   0.442   7.915 -1.0631  0.9445  0.5508
  733MOL0     H98907   6.551   0.088   7.911 -1.1659 -0.8874 -3.0677
  733MOL0     H98908   6.596   0.247   7.849  2.1149 -0.8657  2.2836
  733MOL0     H98909   6.584   0.364   8.064 -1.5119  0.1868  1.3408
  733MOL0     H98910   6.698   0.237   8.053  0.4916  0.7144 -0.8409
  733MOL0     H98911   6.505   0.075   8.148 -2.1489  0.4744 -0.6281
  733MOL0     H98912   6.410   0.215   8.169 -0.1786 -1.9693  0.4073
  733MOL0     H98913   6.598   0.315   8.317  2.6047 -0.4409  1.2791
  733MOL0     H98914   6.686   0.154   8.277  0.2951  1.7119 -1.3331
  733MOL0     H98915   6.720   0.117   8.561 -1.3722  0.5892 -1.5025
  733MOL0     H98916   6.888  -0.196   8.666  2.0115  0.7866  2.6950
  733MOL0     H98917   6.896  -0.016   8.676 -1.3037 -0.4253 -0.1772
  733MOL0     H98918   6.779  -0.104   8.776  1.2025  2.1846  0.7387
  733MOL0     H98919   6.563  -0.647   8.711 -0.3097 -1.7831  0.9518
  733MOL0     H98920   6.648  -0.868   8.742 -1.1614  1.8152  0.7989
  733MOL0     H98921   6.727  -1.098   8.723  2.3914  0.9853  0.2333
  733MOL0     H98922   6.701  -1.107   8.539 -1.6244 -0.3083  0.6383
  733MOL0     H98923   6.884  -1.240   8.522 -0.2905  1.9977  0.3610
  733MOL0     H98924   6.948  -1.214   8.679 -0.5973  1.3013  0.1370
  733MOL0     H98925   6.692  -1.385   8.613 -0.8388  0.9631  1.9743
  733MOL0     H98926   6.718  -1.341   8.781 -1.5355  3.7824  0.2003
  733MOL0     H98927   6.903  -1.519   8.606  0.7028  1.6060 -0.7208
  733MOL0     H98928   6.959  -1.458   8.752  0.5110 -2.9231 -0.5774
  733MOL0     H98929   6.854  -1.701   8.748  2.4242  2.0608 -0.0334
  733MOL0     H98930   6.698  -1.619   8.711 -0.9583 -1.7745  1.6833
  733MOL0     H98931   6.838  -1.534   8.968 -0.4151 -1.9624  1.2548
  733MOL0     H98932   6.680  -1.517   8.921 -0.4307 -0.2233  2.9259
  733MOL0     H98933   6.796  -1.799   8.955  1.8435  0.6487  0.0959
  733MOL0     H98934   6.623  -1.738   8.958 -0.2908  2.4499 -0.2802
  733MOL0     H98935   6.676  -1.607   9.154  2.0813  0.7295  1.4625
  733MOL0     H98936   6.836  -1.668   9.150  1.0498 -0.2399  0.0015
  733MOL0     H98937   6.944  -0.822   8.441  1.0179 -0.7154  2.4122
  733MOL0     H98938   6.865  -0.585   8.411  1.8027  1.8943  3.5288
  733MOL0     H98939   6.493  -0.297   8.439 -0.3389 -0.5072  2.8072
  733MOL0     H98940   6.407  -0.077   8.341 -1.5926  1.0357  1.9376
  733MOL0     H98941   5.176   0.438   8.129  0.5748  0.8110 -1.3026
  733MOL0     H98942   4.934   0.528   8.096 -0.0602  0.2571  0.2141
  733MOL0     H98943   4.482   0.577   8.310 -2.2354 -0.0747  0.6380
  733MOL0     H98944   4.295   0.707   8.431 -1.5968  1.0497 -2.2595
  733MOL0     H98945   4.124   0.977   8.620  0.1024  0.1809 -0.2310
  733MOL0     H98946   4.212   0.819   8.601 -0.0709 -0.0860 -2.2737
  733MOL0     H98947   4.408   0.954   8.729 -1.1961 -1.3301  1.0633
  733MOL0     H98948   4.250   0.913   8.815 -1.9761 -0.0210 -0.0326
  733MOL0     H98949   4.303   1.144   8.863 -0.9757  3.5631 -1.0322
  733MOL0     H98950   4.162   1.127   8.767  0.8407  0.5152  1.8409
  733MOL0     H98951   4.322   1.195   8.560 -0.3036  3.2207 -0.8130
  733MOL0     H98952   4.448   1.194   8.684 -0.5194 -1.2084  2.4161
  733MOL0     H98953   4.239   1.568   8.747 -1.1335 -0.9569 -0.9629
  733MOL0     H98954   4.498   1.062   8.400  0.0718  0.0385  1.9158
  733MOL0     H98955   4.705   0.945   8.314 -0.4719  0.5560  0.3364
  734MOL0     O98956   2.942   9.218   0.723  0.3376  0.4548 -0.1023
  734MOL0     C98957   2.847   9.207   0.645 -0.9482  0.7063  0.4431
  734MOL0     O98958   2.825   9.100   0.565 -0.1252 -0.0611  1.0209
  734MOL0     C98959   2.910   8.999   0.530  0.2084 -1.1515  0.2107
  734MOL0     C98960   2.877   8.936   0.408 -0.8154 -0.3083 -0.1903
  734MOL0     C98961   2.961   8.848   0.352  0.9109  0.7998  0.4385
  734MOL0     C98962   3.085   8.812   0.418  0.0995 -0.2730  0.7271
  734MOL0     O98963   3.184   8.727   0.371  0.4387  0.1637 -0.0791
  734MOL0     C98964   3.209   8.735   0.232  0.7228  0.0010 -0.0642
  734MOL0     C98965   3.317   8.617   0.199 -0.4939 -0.7004  0.0067
  734MOL0     C98966   3.366   8.629   0.058  0.1835 -0.1195  1.0752
  734MOL0     C98967   3.268   8.624  -0.057  0.6807  0.5481  0.4803
  734MOL0     C98968   3.198   8.484  -0.064 -0.2410 -0.5825 -0.1627
  734MOL0     C98969   3.112   8.493  -0.190  0.6849  0.1402 -0.0708
  734MOL0     C98970   3.033   8.364  -0.196  0.2305  0.4848  1.0685
  734MOL0     C98971   2.994   8.330  -0.339 -0.6633 -0.2306  0.5019
  734MOL0     N98972   2.908   8.429  -0.401 -0.1224 -0.2229 -0.3246
  734MOL0     C98973   2.957   8.539  -0.467  0.6904 -0.0283 -0.0540
  734MOL0     C98974   2.840   8.571  -0.539  0.1162  0.0688  0.2252
  734MOL0     C98975   2.828   8.676  -0.647  0.3185  0.0478  0.0593
  734MOL0     C98976   2.832   8.818  -0.580  0.3334 -0.8402 -0.1211
  734MOL0     C98977   2.813   8.934  -0.681 -0.0294 -0.5914 -1.3325
  734MOL0     C98978   2.846   9.082  -0.646  0.1348  0.3385 -0.4269
  734MOL0     O98979   2.785   9.177  -0.734  0.1169  0.0865 -0.5964
  734MOL0     C98980   2.658   9.228  -0.720  0.2503  1.0299 -0.1095
  734MOL0     C98981   2.610   9.309  -0.822 -0.2309  0.6138 -0.2987
  734MOL0     C98982   2.488   9.384  -0.804 -0.2974  0.4087  1.1239
  734MOL0     C98983   2.459   9.494  -0.916  0.0168  0.7996  0.5825
  734MOL0     C98984   2.401   9.363  -0.692  0.9242  1.8535 -0.6628
  734MOL0     C98985   2.268   9.431  -0.668 -0.4482  0.1960 -0.3347
  734MOL0     O98986   2.189   9.380  -0.574  0.4384 -0.1290 -0.1828
  734MOL0     C98987   2.058   9.426  -0.561  0.4289  0.1558 -0.1753
  734MOL0     C98988   2.017   9.556  -0.530 -0.8821  0.8033 -0.4263
  734MOL0     C98989   1.888   9.586  -0.509 -0.7182  0.7208 -0.3046
  734MOL0     C98990   1.791   9.482  -0.525  0.5280 -0.2573  0.1534
  734MOL0     O98991   1.660   9.522  -0.512 -0.4221 -0.1646  0.0594
  734MOL0     C98992   1.562   9.422  -0.471  0.2553  0.2287  0.3266
  734MOL0     C98993   1.433   9.483  -0.410  0.1047  0.1515 -0.1905
  734MOL0     C98994   1.326   9.381  -0.357  0.2645  0.5804  0.0139
  734MOL0     C98995   1.202   9.444  -0.301 -0.1160  0.5000  0.6821
  734MOL0     C98996   1.109   9.339  -0.240 -0.3598 -0.6157 -0.6608
  734MOL0     C98997   0.999   9.411  -0.151  0.3675  0.4062 -0.1023
  734MOL0     C98998   0.912   9.307  -0.080  0.2912  0.5179  0.6246
  734MOL0     C98999   0.779   9.378  -0.027 -0.2426 -0.4002 -0.0962
  734MOL0    Cl99000   0.802   9.511   0.083 -0.1780 -0.1740  0.2834
  734MOL0     C99001   1.827   9.355  -0.557  0.1739  1.2193  0.1466
  734MOL0     C99002   1.957   9.325  -0.554 -1.0225 -0.4914 -0.3230
  734MOL0     O99003   2.246   9.534  -0.735  0.5374  0.2398  0.7455
  734MOL0     C99004   2.451   9.271  -0.596 -1.1547 -0.0903 -0.0011
  734MOL0     C99005   2.582   9.211  -0.604  0.7232 -0.2136 -0.6051
  734MOL0     N99006   2.739   8.492  -0.508 -0.3040  0.4362 -0.2436
  734MOL0     N99007   2.775   8.409  -0.430  0.5511  0.3774 -0.5402
  734MOL0     C99008   3.120   8.890   0.535 -0.2031  0.0037  0.2107
  734MOL0     C99009   3.035   8.978   0.592 -1.3147 -0.3393 -0.9928
  734MOL0     C99010   2.731   9.297   0.648  0.4685  0.0071 -0.5149
  734MOL0     C99011   2.690   9.378   0.762 -1.0408  0.6031 -0.5777
  734MOL0     C99012   2.575   9.461   0.770 -0.5841  0.4339 -0.7441
  734MOL0     C99013   2.494   9.454   0.656  0.0688 -0.3531  1.8521
  734MOL0     O99014   2.384   9.526   0.651  0.9881 -0.1852  0.6489
  734MOL0     C99015   2.276   9.438   0.675  0.9193  0.3167  0.2122
  734MOL0     C99016   2.151   9.525   0.677 -0.4490  0.5720  0.2698
  734MOL0     C99017   2.143   9.630   0.785  0.0421  0.9099  1.0693
  734MOL0     C99018   2.000   9.674   0.823 -0.8662  0.3936  0.2393
  734MOL0     C99019   1.946   9.566   0.906 -0.8038  0.7673 -0.5578
  734MOL0     C99020   1.921   9.467   0.978  1.0513 -0.0318 -0.7845
  734MOL0     C99021   2.537   9.395   0.534  0.3233 -0.0826 -0.0595
  734MOL0     C99022   2.647   9.310   0.536 -1.0669 -0.0985 -0.1480
  734MOL0     H99023   2.790   8.954   0.346 -0.0869  1.1833 -0.8167
  734MOL0     H99024   2.936   8.808   0.255  1.3199  3.4036 -0.8182
  734MOL0     H99025   3.117   8.715   0.176  1.3881  3.5995 -2.7480
  734MOL0     H99026   3.227   8.841   0.213  1.7682  0.3710  2.5555
  734MOL0     H99027   3.392   8.648   0.272 -1.9991  1.0240  0.8970
  734MOL0     H99028   3.287   8.512   0.213  0.3260 -1.1061 -1.1325
  734MOL0     H99029   3.414   8.727   0.045  1.2233 -0.7291  0.1498
  734MOL0     H99030   3.446   8.559   0.033  0.9224  0.2282  2.3584
  734MOL0     H99031   3.196   8.706  -0.047  0.0434  0.1188 -0.5106
  734MOL0     H99032   3.327   8.640  -0.147  3.3775  0.3120  2.0967
  734MOL0     H99033   3.275   8.407  -0.064 -1.6968 -2.1071  0.3274
  734MOL0     H99034   3.136   8.469   0.026 -0.7119  0.9009 -0.2092
  734MOL0     H99035   3.042   8.576  -0.181 -0.4022 -0.7878  0.3349
  734MOL0     H99036   3.181   8.501  -0.274  3.9512  0.6582  2.4623
  734MOL0     H99037   3.099   8.282  -0.167 -0.5855 -0.0765  1.3736
  734MOL0     H99038   2.938   8.362  -0.141 -1.9122  0.3633 -2.3269
  734MOL0     H99039   2.954   8.228  -0.340  3.2088 -1.9407  1.4796
  734MOL0     H99040   3.085   8.339  -0.398 -0.8188  0.7652  0.3944
  734MOL0     H99041   3.056   8.584  -0.473  0.2422  1.1553  0.9637
  734MOL0     H99042   2.907   8.668  -0.722  0.6346  3.4645 -0.1610
  734MOL0     H99043   2.737   8.660  -0.706  1.2302  0.0377 -1.4114
  734MOL0     H99044   2.933   8.819  -0.538 -0.1437 -1.8102  1.1119
  734MOL0     H99045   2.762   8.827  -0.497 -1.3164 -1.7978 -1.3420
  734MOL0     H99046   2.705   8.933  -0.701 -0.1526 -0.9449 -0.6955
  734MOL0     H99047   2.885   8.909  -0.759  1.8140  2.4121 -0.7446
  734MOL0     H99048   2.954   9.102  -0.653 -0.0280  2.1947  1.4807
  734MOL0     H99049   2.814   9.107  -0.544 -1.3584 -1.4861 -0.3973
  734MOL0     H99050   2.661   9.326  -0.916  2.3611 -0.1395  0.8743
  734MOL0     H99051   2.481   9.589  -0.867 -1.0593  0.8530  0.9704
  734MOL0     H99052   2.515   9.477  -1.008  1.5622  0.6738  1.5029
  734MOL0     H99053   2.353   9.501  -0.942  0.7267  1.5411 -2.5395
  734MOL0     H99054   2.079   9.644  -0.512  1.2167 -0.8066  0.6103
  734MOL0     H99055   1.870   9.689  -0.480 -2.0306  0.8384 -1.4581
  734MOL0     H99056   1.532   9.364  -0.559  2.2507  2.4086 -1.9418
  734MOL0     H99057   1.605   9.361  -0.391 -1.1912  0.0514  1.0022
  734MOL0     H99058   1.468   9.541  -0.324  0.0725  1.0326 -0.7673
  734MOL0     H99059   1.381   9.534  -0.491  0.4418 -0.9576 -1.1232
  734MOL0     H99060   1.374   9.310  -0.289  0.4451  0.6614 -0.0275
  734MOL0     H99061   1.287   9.326  -0.443 -1.8530 -0.8128  1.7518
  734MOL0     H99062   1.232   9.523  -0.232  0.7733 -1.7030  2.9900
  734MOL0     H99063   1.151   9.495  -0.383  0.9419 -1.2541 -1.1790
  734MOL0     H99064   1.150   9.262  -0.174  0.4467  2.5334  2.8698
  734MOL0     H99065   1.058   9.294  -0.325 -0.4838  1.0432 -1.5127
  734MOL0     H99066   1.051   9.470  -0.075  1.0620  0.7044 -0.7978
  734MOL0     H99067   0.947   9.479  -0.219 -2.9212 -2.2996 -0.5678
  734MOL0     H99068   0.979   9.274   0.000  3.1616  0.7622 -1.5294
  734MOL0     H99069   0.879   9.230  -0.150  3.5132 -0.9192  0.5230
  734MOL0     H99070   0.723   9.304   0.032 -4.5741  0.5751 -2.5276
  734MOL0     H99071   0.711   9.409  -0.108  1.8899 -2.4211 -2.8491
  734MOL0     H99072   1.758   9.274  -0.576  2.6098 -0.7588 -0.7907
  734MOL0     H99073   1.995   9.224  -0.544 -1.8171 -0.5292  3.8370
  734MOL0     H99074   2.394   9.239  -0.509 -0.6585  2.2912  1.2886
  734MOL0     H99075   2.619   9.155  -0.519  0.0596  0.9379  0.4792
  734MOL0     H99076   3.217   8.858   0.572 -0.4929  1.5237  2.4647
  734MOL0     H99077   3.071   9.027   0.682 -0.3664  0.1615 -1.6295
  734MOL0     H99078   2.753   9.371   0.850  1.8025  1.0517 -2.4407
  734MOL0     H99079   2.540   9.508   0.861  0.7968 -0.8809  0.5184
  734MOL0     H99080   2.257   9.358   0.603 -1.2555 -0.3518  1.4635
  734MOL0     H99081   2.290   9.368   0.758 -1.3411 -2.1254 -1.3256
  734MOL0     H99082   2.064   9.459   0.679 -0.5438  0.6912  1.9955
  734MOL0     H99083   2.149   9.583   0.585 -0.0769 -1.8010 -1.3138
  734MOL0     H99084   2.200   9.717   0.750  2.8351 -0.7188  1.3393
  734MOL0     H99085   2.197   9.599   0.875  3.8186  0.4857 -1.1413
  734MOL0     H99086   1.944   9.682   0.729  0.5445  0.4845 -0.6184
  734MOL0     H99087   2.006   9.770   0.875 -1.1045  0.3591  0.3343
  734MOL0     H99088   1.898   9.374   1.026  1.2827  0.7021  0.8035
  734MOL0     H99089   2.483   9.404   0.440  1.8176  1.7142 -0.7960
  734MOL0     H99090   2.668   9.269   0.438 -1.7809  3.2104 -1.8517
  735MOL0     O99091   9.564   2.738   9.216  0.5070 -0.3072  0.2528
  735MOL0     C99092   9.529   2.762   9.104  0.0572  0.2673  0.0896
  735MOL0     O99093   9.600   2.832   9.014 -0.7581 -0.3515  0.3034
  735MOL0     C99094   9.715   2.903   9.029  1.1305  0.6092  0.6358
  735MOL0     C99095   9.756   2.955   9.153 -0.1674 -0.0673  0.7908
  735MOL0     C99096   9.877   3.016   9.158  0.5273  0.2663 -0.2338
  735MOL0     C99097   9.960   3.037   9.048 -0.1397 -0.2874 -0.0619
  735MOL0     O99098  10.085   3.089   9.085 -0.6903  0.2480  0.3983
  735MOL0     C99099  10.142   3.191   9.008  0.1219  0.8394 -0.3297
  735MOL0     C99100  10.232   3.138   8.899 -0.3732 -0.0841 -0.3582
  735MOL0     C99101  10.362   3.074   8.946  0.0028 -0.4272 -0.4608
  735MOL0     C99102  10.448   3.038   8.824 -0.1249  0.3162 -0.8700
  735MOL0     C99103  10.383   2.936   8.724 -0.0916 -0.0697 -1.1934
  735MOL0     C99104  10.476   2.903   8.609  0.4885  0.1046 -0.4958
  735MOL0     C99105  10.397   2.854   8.490  0.3666 -0.3458 -0.0147
  735MOL0     C99106  10.483   2.841   8.369  0.1723 -0.0314  0.4372
  735MOL0     N99107  10.602   2.758   8.371 -0.0126  1.1608 -0.6148
  735MOL0     C99108  10.597   2.622   8.340  0.7429  0.7075  0.7241
  735MOL0     C99109  10.725   2.583   8.345  1.0108  0.0795 -1.2669
  735MOL0     C99110  10.789   2.447   8.329  0.0474 -0.0998  0.4435
  735MOL0     C99111  10.775   2.391   8.184  0.8176  0.9065 -1.1885
  735MOL0     C99112  10.810   2.245   8.181  0.9923 -0.4742 -0.1666
  735MOL0     C99113  10.717   2.155   8.273 -0.6854  0.0105  1.2324
  735MOL0     O99114  10.706   2.028   8.199 -1.3995 -0.6587 -0.8240
  735MOL0     C99115  10.813   1.945   8.197 -0.2875  0.5513  0.1000
  735MOL0     C99116  10.784   1.822   8.132  0.0394 -0.0595  0.1483
  735MOL0     C99117  10.882   1.722   8.121  0.0042  1.3742  0.1549
  735MOL0     C99118  10.850   1.597   8.041 -0.1540 -0.2299 -0.6687
  735MOL0     C99119  11.015   1.735   8.177 -0.0535 -0.1540  0.2504
  735MOL0     C99120  11.130   1.637   8.175 -0.0882 -0.8798 -0.2543
  735MOL0     O99121  11.248   1.699   8.201 -0.4400 -0.6837  0.3178
  735MOL0     C99122  11.366   1.642   8.246 -0.2491 -0.0344 -0.2495
  735MOL0     C99123  11.471   1.736   8.254  0.3178  0.8897  1.4639
  735MOL0     C99124  11.594   1.676   8.290 -0.6595  1.2116  0.2534
  735MOL0     C99125  11.617   1.545   8.326  0.8072 -0.1250  0.1420
  735MOL0     O99126  11.742   1.510   8.357 -0.1584 -1.3340 -0.3428
  735MOL0     C99127  11.773   1.369   8.342 -0.0019 -0.9335  0.2628
  735MOL0     C99128  11.804   1.331   8.196 -0.2202  0.0491 -0.6115
  735MOL0     C99129  11.815   1.179   8.192 -0.5675 -0.1883 -0.4341
  735MOL0     C99130  11.891   1.140   8.066  0.1678 -0.1278  0.2808
  735MOL0     C99131  11.889   0.986   8.048  0.3489 -0.5300  0.3254
  735MOL0     C99132  11.969   0.907   8.154 -0.0812  0.7768  0.8282
  735MOL0     C99133  12.117   0.959   8.163  0.2653  0.0264 -0.6462
  735MOL0     C99134  12.216   0.870   8.247 -0.4349  1.0382 -0.2886
  735MOL0    Cl99135  12.158   0.807   8.417  0.1371 -0.0570  0.1361
  735MOL0     C99136  11.500   1.462   8.316  0.2008  0.0711 -0.1034
  735MOL0     C99137  11.375   1.507   8.288  0.0976  0.5840 -0.1511
  735MOL0     O99138  11.112   1.521   8.156 -0.6519  0.0655 -0.0611
  735MOL0     C99139  11.032   1.860   8.243 -0.5664 -0.1037  0.1975
  735MOL0     C99140  10.935   1.965   8.255 -0.6027 -0.9846  0.0740
  735MOL0     N99141  10.803   2.698   8.351 -0.3232  0.5189  0.5490
  735MOL0     N99142  10.730   2.803   8.368 -0.0427  0.2793  0.1843
  735MOL0     C99143   9.914   3.001   8.919 -0.3221  0.0050  0.1986
  735MOL0     C99144   9.791   2.923   8.907  0.1245  0.1268  0.2594
  735MOL0     C99145   9.388   2.731   9.078 -1.1157  1.7208 -0.0776
  735MOL0     C99146   9.310   2.652   9.166  0.3126  0.3361  0.6465
  735MOL0     C99147   9.170   2.633   9.143  0.1234  0.3327 -0.0893
  735MOL0     C99148   9.113   2.666   9.024 -0.3546  0.2127 -0.2396
  735MOL0     O99149   8.973   2.653   8.995 -0.2206 -0.1065  0.3857
  735MOL0     C99150   8.872   2.702   9.086 -0.7529 -0.7987  0.7984
  735MOL0     C99151   8.894   2.849   9.132  0.9423  0.0599  0.7497
  735MOL0     C99152   8.876   2.950   9.010  0.2605 -0.1719 -0.2028
  735MOL0     C99153   8.743   2.934   8.931  0.2804 -0.3234  0.4586
  735MOL0     C99154   8.738   3.030   8.815  0.6171 -0.2950 -0.3452
  735MOL0     C99155   8.743   3.099   8.712 -0.0078  0.2969 -1.2000
  735MOL0     C99156   9.192   2.734   8.928 -0.3366 -0.0691 -1.0161
  735MOL0     C99157   9.323   2.778   8.961  0.4447 -0.6326 -0.0829
  735MOL0     H99158   9.696   2.944   9.243  1.8376  1.0453  2.3744
  735MOL0     H99159   9.905   3.059   9.254 -1.6731  3.5294 -0.8921
  735MOL0     H99160  10.056   3.246   8.969  0.2058  2.1014  1.1497
  735MOL0     H99161  10.194   3.252   9.083  0.9137  0.8693 -0.8906
  735MOL0     H99162  10.184   3.055   8.846 -1.4021  0.5253 -0.4026
  735MOL0     H99163  10.258   3.216   8.828  1.9266  0.7909  1.3426
  735MOL0     H99164  10.414   3.130   9.024 -1.5060 -1.3560  1.3082
  735MOL0     H99165  10.323   2.982   8.991 -0.0844  0.8772  2.2828
  735MOL0     H99166  10.477   3.129   8.770  1.1875  0.4448  0.0003
  735MOL0     H99167  10.543   2.989   8.846 -0.5004  0.7321  2.1940
  735MOL0     H99168  10.358   2.842   8.775 -2.2891  2.0188  1.9309
  735MOL0     H99169  10.284   2.974   8.698 -1.1068  0.0909  2.4411
  735MOL0     H99170  10.526   2.991   8.569  3.5119 -0.8136  0.9765
  735MOL0     H99171  10.558   2.845   8.652  1.3135  3.0012  2.2386
  735MOL0     H99172  10.349   2.759   8.515  2.2371 -1.1221  0.7592
  735MOL0     H99173  10.309   2.915   8.465 -0.0443 -0.0945  1.8801
  735MOL0     H99174  10.518   2.944   8.354 -2.8767  1.2492  1.2960
  735MOL0     H99175  10.421   2.815   8.283 -1.1033 -2.1108  1.8959
  735MOL0     H99176  10.509   2.562   8.321 -0.0833  1.0046  3.1923
  735MOL0     H99177  10.897   2.460   8.346 -0.3172  0.6854  2.4601
  735MOL0     H99178  10.737   2.378   8.396  1.6199 -0.7532  1.0429
  735MOL0     H99179  10.841   2.443   8.115  1.7227 -1.7528 -2.4782
  735MOL0     H99180  10.671   2.400   8.151 -0.0780  0.4657  1.2979
  735MOL0     H99181  10.913   2.221   8.208  0.3069 -1.6402  1.6302
  735MOL0     H99182  10.787   2.211   8.079  1.0154 -3.4067  0.7238
  735MOL0     H99183  10.618   2.200   8.284 -0.6661  0.7763 -1.2874
  735MOL0     H99184  10.758   2.156   8.375  1.5514 -1.4783  0.4130
  735MOL0     H99185  10.679   1.799   8.113 -0.1970  1.6984 -0.9001
  735MOL0     H99186  10.887   1.509   8.095  2.5645  2.2755  2.0182
  735MOL0     H99187  10.743   1.583   8.027 -1.4028  2.8912  3.6106
  735MOL0     H99188  10.905   1.594   7.946  3.7737 -3.3527  1.3689
  735MOL0     H99189  11.447   1.837   8.223  1.3436  1.2736  1.8793
  735MOL0     H99190  11.683   1.738   8.300  2.1429 -2.3164 -0.8406
  735MOL0     H99191  11.864   1.363   8.404 -0.0364 -2.3951  0.2040
  735MOL0     H99192  11.699   1.303   8.389 -1.0972  1.2059  1.6969
  735MOL0     H99193  11.736   1.374   8.122  0.9836 -1.7024 -2.8743
  735MOL0     H99194  11.896   1.376   8.158 -0.1800  1.4607  1.0336
  735MOL0     H99195  11.711   1.144   8.198 -0.6659  0.1108 -0.3722
  735MOL0     H99196  11.881   1.140   8.270  1.6290 -1.8912 -2.9674
  735MOL0     H99197  11.842   1.178   7.975 -0.9494 -2.2107 -0.0393
  735MOL0     H99198  11.995   1.174   8.064  0.6407 -0.8580  4.3465
  735MOL0     H99199  11.934   0.968   7.950 -0.0089  1.7784 -0.3164
  735MOL0     H99200  11.785   0.954   8.049  0.3686 -1.0306 -2.8247
  735MOL0     H99201  11.927   0.904   8.255 -3.0782 -2.0735 -0.3507
  735MOL0     H99202  11.971   0.803   8.121 -1.9006  1.0144 -0.1405
  735MOL0     H99203  12.116   1.060   8.204 -1.6513  0.4516 -1.6505
  735MOL0     H99204  12.158   0.958   8.062 -2.7677  0.4141 -1.9908
  735MOL0     H99205  12.319   0.905   8.257  0.0700 -0.7489  1.4173
  735MOL0     H99206  12.234   0.778   8.191 -1.5319 -0.2107  1.3186
  735MOL0     H99207  11.517   1.356   8.332  1.7561  0.5755  1.9215
  735MOL0     H99208  11.292   1.437   8.290 -1.1878  2.0329  2.3186
  735MOL0     H99209  11.131   1.879   8.283 -1.4228 -1.1129  2.9967
  735MOL0     H99210  10.952   2.056   8.311  2.3313 -1.3908 -0.0155
  735MOL0     H99211   9.974   3.038   8.836 -0.4338  4.1543  1.7817
  735MOL0     H99212   9.763   2.881   8.811  1.0939  1.9077 -0.8563
  735MOL0     H99213   9.354   2.606   9.254  3.3435 -0.9761 -1.3721
  735MOL0     H99214   9.107   2.574   9.208 -0.0770 -2.6495 -2.7166
  735MOL0     H99215   8.773   2.710   9.040 -0.1419  3.8217 -0.2439
  735MOL0     H99216   8.881   2.630   9.168  0.8191 -1.1178  0.3720
  735MOL0     H99217   8.995   2.851   9.175  1.7205  2.1245 -1.0283
  735MOL0     H99218   8.815   2.877   9.202 -0.2569  0.8800 -0.8806
  735MOL0     H99219   8.958   2.939   8.938 -0.1788 -2.4758 -0.4501
  735MOL0     H99220   8.890   3.052   9.045 -2.7826  0.2424  0.1031
  735MOL0     H99221   8.653   2.961   8.989 -2.5042  1.0637 -3.9487
  735MOL0     H99222   8.725   2.837   8.884 -1.5255  0.9483 -1.7212
  735MOL0     H99223   8.730   3.173   8.636 -2.1052 -1.4476 -2.6621
  735MOL0     H99224   9.156   2.758   8.828  0.6188 -1.3073 -1.6786
  735MOL0     H99225   9.377   2.837   8.886 -1.5674 -0.8692 -1.8115
  736MOL0     O99226   4.051   4.993   5.595  0.0502  0.0517  0.2433
  736MOL0     C99227   4.001   4.884   5.565  0.2199  1.5312  0.1717
  736MOL0     O99228   3.978   4.840   5.433 -0.0058 -0.0749  0.4080
  736MOL0     C99229   4.003   4.908   5.318  0.3065 -0.4827 -0.3963
  736MOL0     C99230   3.935   5.034   5.294 -0.1014  0.2730 -0.2953
  736MOL0     C99231   3.945   5.101   5.168 -0.0492  0.2446  1.3444
  736MOL0     C99232   4.031   5.045   5.072  0.8352  0.3749 -0.7402
  736MOL0     O99233   4.043   5.089   4.943 -1.0096  0.6249 -1.5009
  736MOL0     C99234   3.914   5.085   4.883  0.4887 -0.5042  0.2145
  736MOL0     C99235   3.919   5.145   4.744  0.4369 -0.2974  0.0273
  736MOL0     C99236   4.005   5.071   4.650  0.3170 -1.0571 -0.2098
  736MOL0     C99237   4.144   5.128   4.649 -0.2715  1.4298  0.3815
  736MOL0     C99238   4.246   5.035   4.579  0.7027  0.5949 -0.3428
  736MOL0     C99239   4.385   5.100   4.583  0.0689 -0.2100 -0.0558
  736MOL0     C99240   4.507   5.014   4.549  0.1886  0.2015  0.8280
  736MOL0     C99241   4.500   4.961   4.398 -0.4890  0.2123  0.3745
  736MOL0     N99242   4.625   4.904   4.366  0.5276 -0.6085  0.0234
  736MOL0     C99243   4.706   4.939   4.263  0.2544 -0.0480 -0.3755
  736MOL0     C99244   4.811   4.846   4.284  0.1371  0.7316 -0.0287
  736MOL0     C99245   4.913   4.816   4.183 -0.2233  1.2084  0.0986
  736MOL0     C99246   4.948   4.924   4.082  0.0177  0.1716 -0.0387
  736MOL0     C99247   5.084   4.920   4.019  0.2689 -0.3856  0.9055
  736MOL0     C99248   5.102   5.044   3.924  1.3832 -0.1882  0.2411
  736MOL0     O99249   5.223   5.010   3.847 -0.6856  0.3927 -0.6795
  736MOL0     C99250   5.212   5.038   3.719 -0.3474  0.3566  0.9138
  736MOL0     C99251   5.150   4.947   3.635  0.5326  0.9806 -0.2346
  736MOL0     C99252   5.136   4.984   3.500  0.3969  0.6711  0.2993
  736MOL0     C99253   5.058   4.884   3.419 -0.3537 -0.6010  0.2909
  736MOL0     C99254   5.166   5.112   3.456 -1.0712  0.2365  0.4355
  736MOL0     C99255   5.167   5.160   3.322 -1.1628  1.0158 -0.1265
  736MOL0     O99256   5.283   5.207   3.272  0.1013 -0.0023 -0.4134
  736MOL0     C99257   5.311   5.189   3.141 -1.0534 -0.1657  0.0384
  736MOL0     C99258   5.304   5.300   3.053  0.7166 -0.1938  0.3844
  736MOL0     C99259   5.345   5.277   2.926  0.0721 -0.4662  0.3011
  736MOL0     C99260   5.385   5.152   2.873  0.1652  0.5864  0.6831
  736MOL0     O99261   5.420   5.133   2.742 -0.4897  0.1544 -0.1627
  736MOL0     C99262   5.382   5.232   2.642  0.6910  0.1291  0.0422
  736MOL0     C99263   5.420   5.187   2.495 -0.5658  0.4209 -0.5696
  736MOL0     C99264   5.429   5.300   2.401 -0.3892 -1.1271  0.4375
  736MOL0     C99265   5.462   5.266   2.255  0.5356 -0.4756 -0.3382
  736MOL0     C99266   5.446   5.394   2.172  0.2959  0.1780  1.2350
  736MOL0     C99267   5.424   5.368   2.015 -0.4030  0.7071 -0.1847
  736MOL0     C99268   5.331   5.250   1.977 -0.0596  0.9089 -0.2034
  736MOL0     C99269   5.181   5.274   2.040 -0.1665 -0.4180  0.2651
  736MOL0    Cl99270   5.075   5.184   1.927  0.5274 -0.0962  0.0644
  736MOL0     C99271   5.389   5.040   2.960  1.0043  0.1061 -0.6022
  736MOL0     C99272   5.359   5.060   3.100  1.4587  0.8112  0.5305
  736MOL0     O99273   5.070   5.146   3.258  0.4006 -0.4341 -0.7646
  736MOL0     C99274   5.237   5.199   3.545 -0.7067 -0.6930  0.0848
  736MOL0     C99275   5.244   5.164   3.680 -0.0869 -1.0893 -0.4468
  736MOL0     N99276   4.783   4.757   4.385  0.6152  0.2610 -0.1294
  736MOL0     N99277   4.675   4.799   4.440 -0.5037 -0.4429  0.5847
  736MOL0     C99278   4.090   4.915   5.094  0.7458  0.4695  0.3159
  736MOL0     C99279   4.094   4.854   5.220  0.5612 -0.0715 -0.5190
  736MOL0     C99280   3.975   4.792   5.678 -0.2722 -0.0917 -0.2436
  736MOL0     C99281   3.979   4.650   5.652 -0.1166  0.2226 -0.9823
  736MOL0     C99282   3.933   4.565   5.750 -0.7004  0.1846  0.1317
  736MOL0     C99283   3.881   4.610   5.878 -0.1236 -0.6592  0.2821
  736MOL0     O99284   3.822   4.523   5.968  0.3018  0.4949 -0.2703
  736MOL0     C99285   3.729   4.565   6.071 -0.0255 -0.1486 -0.0215
  736MOL0     C99286   3.624   4.464   6.103 -0.7019  0.2198 -0.0107
  736MOL0     C99287   3.593   4.460   6.249 -0.6596  0.0788  0.4373
  736MOL0     C99288   3.489   4.560   6.295  0.1725  0.9457  1.2071
  736MOL0     C99289   3.542   4.700   6.286  0.9599  0.4296  0.2922
  736MOL0     C99290   3.590   4.807   6.293  0.2837  0.2639  0.0374
  736MOL0     C99291   3.892   4.750   5.898 -0.9731 -1.1523  0.3877
  736MOL0     C99292   3.941   4.842   5.803  0.0262 -0.6091  0.6035
  736MOL0     H99293   3.880   5.091   5.369 -0.6454  2.0956 -1.9939
  736MOL0     H99294   3.905   5.201   5.156 -2.4400 -0.8793 -1.0075
  736MOL0     H99295   3.879   4.982   4.876 -0.7710 -0.0321 -0.6944
  736MOL0     H99296   3.841   5.144   4.938  3.0484 -0.7369  4.2580
  736MOL0     H99297   3.814   5.151   4.714 -0.4299 -0.5381  2.7488
  736MOL0     H99298   3.949   5.251   4.746  0.6948 -0.3832  0.6248
  736MOL0     H99299   4.002   4.965   4.678  0.0803 -1.7520 -2.6573
  736MOL0     H99300   3.965   5.078   4.549 -3.5842 -3.5790  0.9353
  736MOL0     H99301   4.142   5.227   4.604 -1.0007  0.5598 -1.6099
  736MOL0     H99302   4.176   5.148   4.752 -1.1851  1.3431  0.6887
  736MOL0     H99303   4.257   4.939   4.630  1.2675  1.0819  0.4700
  736MOL0     H99304   4.212   5.013   4.477 -2.1210  0.8030  0.4546
  736MOL0     H99305   4.370   5.180   4.510 -0.1002  0.4172  0.6650
  736MOL0     H99306   4.400   5.140   4.683  4.2424 -2.6274  0.5517
  736MOL0     H99307   4.597   5.073   4.565  1.4324 -1.4410  0.1109
  736MOL0     H99308   4.497   4.922   4.608 -1.4170  0.0614  0.4047
  736MOL0     H99309   4.478   5.049   4.337  0.8149  0.6571  0.5215
  736MOL0     H99310   4.417   4.890   4.390  0.4611 -0.7146 -3.1171
  736MOL0     H99311   4.696   5.006   4.178  3.7578 -1.2124 -1.8947
  736MOL0     H99312   5.007   4.779   4.225  1.5067 -0.1127 -4.3357
  736MOL0     H99313   4.887   4.726   4.127 -2.3701 -0.4353  3.3961
  736MOL0     H99314   4.934   5.020   4.131 -1.6369  0.8039 -1.6229
  736MOL0     H99315   4.878   4.906   4.000 -0.5718  0.5350  0.3768
  736MOL0     H99316   5.116   4.829   3.968  0.5857 -0.2761  0.9062
  736MOL0     H99317   5.163   4.945   4.091  1.5082  3.6289 -1.5363
  736MOL0     H99318   5.096   5.133   3.986 -1.5915  0.1150 -0.3551
  736MOL0     H99319   5.008   5.051   3.870 -0.1139 -4.0167  1.9683
  736MOL0     H99320   5.113   4.860   3.689  3.0743  0.8224  1.4335
  736MOL0     H99321   4.971   4.861   3.481 -0.5413  4.3769  2.3216
  736MOL0     H99322   5.021   4.934   3.329 -2.7022  3.6319  3.2510
  736MOL0     H99323   5.127   4.801   3.404  1.1458  1.0286 -3.0357
  736MOL0     H99324   5.289   5.403   3.084  2.2368  0.7511 -1.7679
  736MOL0     H99325   5.352   5.369   2.869 -0.0709  0.5957  1.9364
  736MOL0     H99326   5.273   5.234   2.637  0.6421  1.5508  1.0673
  736MOL0     H99327   5.431   5.329   2.658 -0.0997  0.2797  1.7678
  736MOL0     H99328   5.519   5.145   2.514 -0.4456  0.6331 -0.7225
  736MOL0     H99329   5.346   5.110   2.470 -0.3515 -0.0762  0.2747
  736MOL0     H99330   5.510   5.366   2.431  1.2033 -2.6648 -0.2530
  736MOL0     H99331   5.340   5.364   2.400  2.5230  3.3366 -0.6829
  736MOL0     H99332   5.566   5.233   2.247  1.7859  2.4425  1.7634
  736MOL0     H99333   5.392   5.190   2.221 -0.0020 -0.5044  0.8059
  736MOL0     H99334   5.534   5.458   2.183 -0.2550  1.1046  0.4631
  736MOL0     H99335   5.359   5.456   2.198  1.3133  1.8416  0.8685
  736MOL0     H99336   5.384   5.458   1.967  1.3714  0.5950 -1.9950
  736MOL0     H99337   5.522   5.340   1.976 -0.4938 -1.0725  0.7645
  736MOL0     H99338   5.366   5.150   2.006  0.2625  1.5124  1.5875
  736MOL0     H99339   5.325   5.239   1.868  1.8031 -0.3526 -0.2194
  736MOL0     H99340   5.161   5.381   2.026  3.4140  0.2201 -0.8496
  736MOL0     H99341   5.174   5.243   2.145  3.3103 -2.0496  0.1294
  736MOL0     H99342   5.418   4.944   2.920  2.5023  0.4615 -0.4292
  736MOL0     H99343   5.363   4.971   3.163 -0.6268 -0.7214 -1.3494
  736MOL0     H99344   5.262   5.301   3.518 -1.0495  0.2072  2.7823
  736MOL0     H99345   5.277   5.244   3.745 -0.1223 -1.6320  0.2411
  736MOL0     H99346   4.141   4.869   5.010 -0.9688 -1.8094  0.4371
  736MOL0     H99347   4.157   4.769   5.243  2.2173  0.0347 -4.0048
  736MOL0     H99348   4.021   4.623   5.556  2.4357  3.4726 -0.9661
  736MOL0     H99349   3.929   4.459   5.729  0.3759 -0.2214  1.7131
  736MOL0     H99350   3.776   4.589   6.167 -1.8057  0.9833  0.6242
  736MOL0     H99351   3.678   4.656   6.038 -0.8552  0.2239  2.1653
  736MOL0     H99352   3.650   4.368   6.058 -0.9552 -0.1799  0.6768
  736MOL0     H99353   3.527   4.495   6.063 -0.0582  3.2086  0.4507
  736MOL0     H99354   3.681   4.470   6.314  0.9070 -1.6523 -1.3202
  736MOL0     H99355   3.557   4.358   6.261 -2.5865  0.4922 -1.1838
  736MOL0     H99356   3.458   4.537   6.397  0.1982  0.4618  1.1066
  736MOL0     H99357   3.409   4.539   6.224 -0.4575 -1.1397  2.4611
  736MOL0     H99358   3.658   4.890   6.295 -0.4758  0.9341  3.0364
  736MOL0     H99359   3.857   4.795   5.990 -3.5993  1.6888 -1.7540
  736MOL0     H99360   3.935   4.947   5.830  3.5397  0.1158 -0.9864
  737MOL0     O99361   8.704   7.022   7.011  0.2604 -0.7227 -0.5443
  737MOL0     C99362   8.797   7.106   7.002  0.7328  1.1371  0.0103
  737MOL0     O99363   8.792   7.231   7.063  0.8610 -0.9299 -0.5304
  737MOL0     C99364   8.703   7.237   7.168 -0.2038  0.8560 -1.0347
  737MOL0     C99365   8.760   7.240   7.289 -0.3562 -0.7484 -0.4703
  737MOL0     C99366   8.695   7.244   7.408 -0.2866 -0.5369 -0.0852
  737MOL0     C99367   8.554   7.249   7.408  0.2820 -0.1150 -0.2913
  737MOL0     O99368   8.483   7.244   7.525 -0.0956 -0.1715  0.0695
  737MOL0     C99369   8.342   7.237   7.533  0.7976 -0.1459 -1.3025
  737MOL0     C99370   8.310   7.271   7.688  0.0992 -0.5292  0.1778
  737MOL0     C99371   8.194   7.194   7.755 -0.7692 -0.2258 -0.6873
  737MOL0     C99372   8.196   7.038   7.722  0.3548  0.2631 -0.3197
  737MOL0     C99373   8.134   6.962   7.836  0.5156  0.7635 -0.3938
  737MOL0     C99374   8.119   6.811   7.796  0.3284  0.2556  0.1828
  737MOL0     C99375   8.033   6.718   7.886 -0.5905 -0.0821  0.3322
  737MOL0     C99376   8.033   6.570   7.841  0.4072  0.5394  0.9658
  737MOL0     N99377   8.169   6.501   7.860  0.0944  0.5088 -0.3165
  737MOL0     C99378   8.279   6.500   7.764 -0.4666 -0.3554 -0.4701
  737MOL0     C99379   8.366   6.407   7.816 -0.1164  0.0639 -0.2209
  737MOL0     C99380   8.487   6.354   7.758 -0.4922  1.5200  0.0286
  737MOL0     C99381   8.610   6.417   7.832 -0.5331  0.7656 -0.1614
  737MOL0     C99382   8.670   6.539   7.764  0.5182  0.1028  0.3682
  737MOL0     C99383   8.797   6.573   7.833 -0.2309  0.0250 -1.9804
  737MOL0     O99384   8.852   6.687   7.759  0.7022 -0.3745  0.8040
  737MOL0     C99385   8.979   6.724   7.804 -0.8061 -0.4746  0.5925
  737MOL0     C99386   9.095   6.640   7.775  0.5938  0.2305 -0.1383
  737MOL0     C99387   9.224   6.660   7.835 -0.0204 -0.7427 -0.4457
  737MOL0     C99388   9.334   6.558   7.797 -0.0991 -0.2127  0.0608
  737MOL0     C99389   9.242   6.776   7.916  0.6113 -0.3013  0.3631
  737MOL0     C99390   9.369   6.817   7.981 -0.2448  0.0678  0.8044
  737MOL0     O99391   9.386   6.952   8.022 -0.1279  0.4337  0.4906
  737MOL0     C99392   9.509   6.992   8.059 -0.7624 -0.0749 -0.1414
  737MOL0     C99393   9.515   7.079   8.169  0.2901  0.0712  0.3956
  737MOL0     C99394   9.639   7.121   8.219  0.2826 -0.5546 -0.7892
  737MOL0     C99395   9.758   7.086   8.156  0.0094  0.8723  0.8875
  737MOL0     O99396   9.882   7.126   8.201  0.3214  0.7015 -0.2540
  737MOL0     C99397   9.901   7.258   8.258 -0.9715 -0.0059  0.3424
  737MOL0     C99398  10.049   7.286   8.274 -0.0768  0.4297  0.1876
  737MOL0     C99399  10.106   7.190   8.378  0.2458  0.5228  0.4051
  737MOL0     C99400  10.235   7.255   8.449  0.4358  0.0874 -0.3494
  737MOL0     C99401  10.308   7.160   8.546 -0.4771  0.9178  0.3367
  737MOL0     C99402  10.227   7.121   8.677 -1.0643 -0.0449 -0.3535
  737MOL0     C99403  10.211   7.238   8.777 -0.1766 -0.0832  0.0377
  737MOL0     C99404  10.105   7.219   8.893 -0.4474  0.2498 -0.4063
  737MOL0    Cl99405   9.949   7.271   8.832 -0.5525 -0.0101  0.0475
  737MOL0     C99406   9.747   6.999   8.040  0.9826  1.4315 -0.5343
  737MOL0     C99407   9.628   6.963   7.987  1.3186 -0.1407  0.2666
  737MOL0     O99408   9.461   6.732   8.003  0.9236 -0.4190  0.1806
  737MOL0     C99409   9.123   6.858   7.939  0.1946 -0.4110  0.9153
  737MOL0     C99410   8.998   6.838   7.880  0.7957 -0.1796  0.1135
  737MOL0     N99411   8.319   6.363   7.940  0.3548 -0.0826  0.1641
  737MOL0     N99412   8.199   6.425   7.966 -0.9021 -0.8724  0.4415
  737MOL0     C99413   8.486   7.247   7.288 -0.3123 -0.4151  0.9514
  737MOL0     C99414   8.563   7.248   7.168 -0.8240 -0.8942  0.2540
  737MOL0     C99415   8.909   7.079   6.903  0.0512 -0.0012  0.6255
  737MOL0     C99416   8.925   6.953   6.847  0.1103  1.2518 -0.7478
  737MOL0     C99417   9.031   6.923   6.760 -0.6816 -0.2073  0.2303
  737MOL0     C99418   9.116   7.029   6.719  0.6093  0.0683 -0.3322
  737MOL0     O99419   9.222   7.012   6.642  0.1199 -0.3494  0.2373
  737MOL0     C99420   9.341   7.025   6.702 -0.3417 -0.3782  0.0035
  737MOL0     C99421   9.443   6.977   6.600 -0.3555 -0.9664  1.1737
  737MOL0     C99422   9.479   6.825   6.607 -0.0980  0.3575  0.1038
  737MOL0     C99423   9.530   6.773   6.475 -0.2716 -0.7394 -1.1703
  737MOL0     C99424   9.430   6.798   6.375  0.8419  0.2805 -0.6977
  737MOL0     C99425   9.340   6.812   6.295  0.0417 -0.4552 -0.4671
  737MOL0     C99426   9.089   7.163   6.755 -0.6976 -0.8351  0.7112
  737MOL0     C99427   8.989   7.187   6.854  0.0686 -0.5468 -0.3232
  737MOL0     H99428   8.868   7.229   7.286 -0.3594 -2.0511  1.8176
  737MOL0     H99429   8.747   7.254   7.503  4.1385 -0.5386 -2.2609
  737MOL0     H99430   8.296   7.315   7.472  1.3624  2.9806  1.9172
  737MOL0     H99431   8.317   7.134   7.508 -0.8551  0.5616 -2.8044
  737MOL0     H99432   8.400   7.259   7.750  1.2228 -1.8616 -1.6100
  737MOL0     H99433   8.278   7.375   7.695  0.8640 -0.2293 -0.6178
  737MOL0     H99434   8.194   7.216   7.862 -0.2551  1.2218 -0.9655
  737MOL0     H99435   8.102   7.227   7.704 -1.4479  0.5532  0.9845
  737MOL0     H99436   8.133   7.008   7.637  0.4940 -0.6663 -0.1057
  737MOL0     H99437   8.300   7.009   7.701  1.9376  6.0791 -2.5462
  737MOL0     H99438   8.185   6.987   7.929  0.0359 -1.7138  0.6092
  737MOL0     H99439   8.034   7.004   7.840 -0.2013 -0.8719 -0.3204
  737MOL0     H99440   8.080   6.804   7.694 -0.3230  3.6277  0.0674
  737MOL0     H99441   8.222   6.773   7.800  0.1963  0.0323  2.8016
  737MOL0     H99442   8.077   6.723   7.986  3.2830 -0.0371 -1.2162
  737MOL0     H99443   7.929   6.752   7.893 -1.0268 -1.6697  2.6098
  737MOL0     H99444   8.019   6.559   7.733  1.7719  4.0885  0.2935
  737MOL0     H99445   7.949   6.531   7.900 -0.8762  3.8546  1.5729
  737MOL0     H99446   8.288   6.568   7.679 -0.4456  2.6115  1.7347
  737MOL0     H99447   8.478   6.245   7.764 -2.5375  1.6991  0.7770
  737MOL0     H99448   8.506   6.396   7.659  3.4959  0.8060  0.3264
  737MOL0     H99449   8.689   6.342   7.827 -0.2288  1.1516 -2.8672
  737MOL0     H99450   8.584   6.428   7.938 -0.8630  2.3070 -0.3688
  737MOL0     H99451   8.599   6.622   7.770 -0.4133 -0.6556  0.1287
  737MOL0     H99452   8.683   6.509   7.659  0.6129  1.4154 -0.0126
  737MOL0     H99453   8.859   6.483   7.835 -2.9842 -2.1113  2.3099
  737MOL0     H99454   8.775   6.611   7.933 -0.9249 -1.8886 -1.3690
  737MOL0     H99455   9.074   6.558   7.707  0.1580 -0.3281  0.6611
  737MOL0     H99456   9.339   6.481   7.875  1.5060  0.6541  0.8707
  737MOL0     H99457   9.302   6.514   7.702  2.4816 -0.1709 -0.9269
  737MOL0     H99458   9.434   6.600   7.783 -0.1201  0.0701  0.7276
  737MOL0     H99459   9.431   7.112   8.230  1.3815 -0.3841  2.2216
  737MOL0     H99460   9.634   7.186   8.305  3.5056 -3.8654  2.2470
  737MOL0     H99461   9.858   7.333   8.190 -1.4055 -2.7491 -2.6242
  737MOL0     H99462   9.848   7.280   8.352 -0.9209 -0.5240  0.4908
  737MOL0     H99463  10.091   7.296   8.174 -1.3422  0.1904 -0.3853
  737MOL0     H99464  10.066   7.386   8.316  1.2664  1.0250 -1.6575
  737MOL0     H99465  10.123   7.093   8.330  1.3906  0.2381  1.3359
  737MOL0     H99466  10.026   7.169   8.449 -0.8059 -1.3788 -1.2302
  737MOL0     H99467  10.301   7.271   8.364  1.4206 -2.7389 -0.2120
  737MOL0     H99468  10.203   7.347   8.497  0.9390 -0.5247  1.2083
  737MOL0     H99469  10.396   7.214   8.582  1.6052 -1.5872 -0.7128
  737MOL0     H99470  10.339   7.071   8.491 -0.5911  2.2168 -1.9625
  737MOL0     H99471  10.128   7.083   8.650 -1.1402 -0.8591  1.0022
  737MOL0     H99472  10.289   7.050   8.732 -0.2299  0.7930 -0.1840
  737MOL0     H99473  10.191   7.326   8.714  2.3339  0.6896  0.1965
  737MOL0     H99474  10.308   7.250   8.825 -1.4105  1.0705  2.4092
  737MOL0     H99475  10.142   7.269   8.984  1.2024 -0.4129 -0.6766
  737MOL0     H99476  10.103   7.114   8.922  1.5713  0.1424 -0.5215
  737MOL0     H99477   9.839   6.963   7.995  1.6571  4.4359 -1.8147
  737MOL0     H99478   9.635   6.892   7.905 -1.9714 -0.6757  0.3196
  737MOL0     H99479   9.131   6.936   8.014 -0.7154 -0.4341  1.0486
  737MOL0     H99480   8.910   6.901   7.887  1.8881  2.5084 -5.1423
  737MOL0     H99481   8.378   7.248   7.280 -0.2136 -0.4201 -0.8665
  737MOL0     H99482   8.513   7.248   7.072 -0.2822  1.1488 -0.0767
  737MOL0     H99483   8.853   6.875   6.870  1.9784 -0.9306 -1.9173
  737MOL0     H99484   9.055   6.826   6.717 -1.0516  0.0616 -0.6099
  737MOL0     H99485   9.353   7.127   6.738  1.6627 -1.3474  2.4448
  737MOL0     H99486   9.352   6.964   6.793  1.2578  0.9262  0.7299
  737MOL0     H99487   9.536   7.026   6.632 -0.4416  2.9047 -3.4591
  737MOL0     H99488   9.442   7.025   6.502  3.0479 -0.1883  1.3951
  737MOL0     H99489   9.384   6.770   6.615  1.0054 -2.0445 -2.0125
  737MOL0     H99490   9.545   6.801   6.691 -1.8866 -0.6143  1.3085
  737MOL0     H99491   9.540   6.664   6.481  0.1792 -0.7567 -2.1920
  737MOL0     H99492   9.630   6.804   6.444  0.6333 -0.9940  1.2249
  737MOL0     H99493   9.260   6.826   6.226 -0.7610 -2.1396  0.0504
  737MOL0     H99494   9.149   7.241   6.710 -0.8095 -0.6157  0.9417
  737MOL0     H99495   8.966   7.285   6.894  0.6207 -0.6204  0.1936
  738MOL0     O99496   7.242   9.743  10.918 -0.2117  0.4664 -0.3651
  738MOL0     C99497   7.335   9.778  10.842  0.2300 -0.9966 -0.0693
  738MOL0     O99498   7.466   9.751  10.849 -0.2198  0.6860  0.1415
  738MOL0     C99499   7.521   9.673  10.945  1.1460 -0.8562  0.2864
  738MOL0     C99500   7.462   9.556  10.993 -0.0092  0.4652  0.6258
  738MOL0     C99501   7.536   9.471  11.079 -0.2828 -0.2351 -0.3625
  738MOL0     C99502   7.664   9.512  11.124  0.6025 -0.2724 -0.2009
  738MOL0     O99503   7.731   9.434  11.219  0.5815 -0.0375 -0.3343
  738MOL0     C99504   7.819   9.479  11.316  0.0147 -0.9363  0.4553
  738MOL0     C99505   7.851   9.370  11.417  0.6867  0.7264  0.7137
  738MOL0     C99506   7.960   9.403  11.519  0.9427 -0.3475  0.4058
  738MOL0     C99507   7.969   9.311  11.641 -0.2771  0.1551 -0.1822
  738MOL0     C99508   8.068   9.372  11.743  0.5177 -0.1641  0.6085
  738MOL0     C99509   8.217   9.347  11.731  0.4015  0.3610  0.5131
  738MOL0     C99510   8.310   9.417  11.833  0.2688 -1.0511 -0.3486
  738MOL0     C99511   8.299   9.561  11.854  0.0065 -0.4045  0.3950
  738MOL0     N99512   8.349   9.628  11.732  0.4419  0.3813  0.0923
  738MOL0     C99513   8.282   9.722  11.646 -0.1497  0.1504  0.0235
  738MOL0     C99514   8.384   9.775  11.579 -0.2737 -0.5658  0.5423
  738MOL0     C99515   8.369   9.873  11.472  0.1246 -0.4467 -0.2319
  738MOL0     C99516   8.511   9.924  11.420 -0.1153 -0.6433  1.4779
  738MOL0     C99517   8.513  10.041  11.318  0.2324  0.2417  0.3107
  738MOL0     C99518   8.415  10.159  11.349 -0.1176  0.8032 -0.2929
  738MOL0     O99519   8.417  10.232  11.225  1.1042  0.0113  0.2960
  738MOL0     C99520   8.349  10.355  11.223 -0.5217 -0.8131  0.6834
  738MOL0     C99521   8.388  10.442  11.123  0.5368  0.3480  0.1508
  738MOL0     C99522   8.323  10.572  11.097 -0.3432 -1.0251  0.8373
  738MOL0     C99523   8.378  10.662  10.989  0.9233 -0.2585  0.3649
  738MOL0     C99524   8.204  10.597  11.177 -0.7931  0.4656 -0.1177
  738MOL0     C99525   8.116  10.714  11.150  0.2019  0.6014  1.4021
  738MOL0     O99526   8.130  10.776  11.028  0.0656  0.1654  1.3019
  738MOL0     C99527   8.039  10.874  10.992  0.3227  0.1502 -0.2200
  738MOL0     C99528   8.004  10.987  11.062 -0.1543  0.4001 -0.0615
  738MOL0     C99529   7.958  11.102  10.999 -0.1167  0.1609  0.5680
  738MOL0     C99530   7.935  11.108  10.861 -0.4701  0.2991 -0.2031
  738MOL0     O99531   7.882  11.227  10.825 -0.4758  0.6098  0.4343
  738MOL0     C99532   7.820  11.250  10.698  0.6778  1.0890  0.2122
  738MOL0     C99533   7.775  11.390  10.687  0.8437 -0.6626  0.8453
  738MOL0     C99534   7.654  11.414  10.594 -0.6176  0.1018 -0.0936
  738MOL0     C99535   7.529  11.471  10.664 -0.3132 -0.4724  0.5425
  738MOL0     C99536   7.419  11.506  10.573  0.3053 -0.9707  0.5366
  738MOL0     C99537   7.451  11.576  10.439  0.0898  0.2544  0.4992
  738MOL0     C99538   7.516  11.707  10.447  0.2847 -0.6353  0.3648
  738MOL0     C99539   7.625  11.730  10.348 -0.2932 -0.7459 -0.8572
  738MOL0    Cl99540   7.550  11.825  10.205  0.0854 -0.0425 -0.1393
  738MOL0     C99541   7.944  10.988  10.786  0.4703 -0.4963  0.2104
  738MOL0     C99542   8.005  10.872  10.853  0.1240  0.1627  0.1010
  738MOL0     O99543   8.023  10.730  11.234 -0.6458 -0.9220 -0.0852
  738MOL0     C99544   8.163  10.504  11.276 -0.2964  0.2816 -0.1103
  738MOL0     C99545   8.244  10.391  11.297 -0.0528  0.2211  0.4285
  738MOL0     N99546   8.506   9.733  11.637 -0.7133  0.9859  0.7419
  738MOL0     N99547   8.486   9.641  11.718  0.5252  0.4518 -0.3621
  738MOL0     C99548   7.727   9.618  11.059 -0.7321  0.3464 -0.3635
  738MOL0     C99549   7.652   9.704  10.979 -0.1265  0.0424  1.3034
  738MOL0     C99550   7.305   9.882  10.751  0.4833  0.8492  0.1349
  738MOL0     C99551   7.167   9.917  10.715 -0.2028  0.8014  0.4828
  738MOL0     C99552   7.135  10.022  10.629 -0.0573  0.3208  0.4766
  738MOL0     C99553   7.235  10.101  10.578 -0.4592  0.1481  0.1271
  738MOL0     O99554   7.196  10.203  10.487 -0.2185  0.2384  0.1253
  738MOL0     C99555   7.272  10.328  10.492 -0.3301 -0.5069 -0.1616
  738MOL0     C99556   7.300  10.384  10.348  0.5471  0.1016 -0.0615
  738MOL0     C99557   7.183  10.373  10.254  0.4735  0.1293  0.8145
  738MOL0     C99558   7.068  10.476  10.285  0.3832  0.2377  0.0492
  738MOL0     C99559   6.955  10.458  10.196  0.2202 -1.0809 -0.4455
  738MOL0     C99560   6.868  10.421  10.127  0.3381 -0.8642  0.2687
  738MOL0     C99561   7.368  10.068  10.611 -0.8187  0.5764 -0.0620
  738MOL0     C99562   7.402   9.958  10.692  0.1235  0.6647  0.1258
  738MOL0     H99563   7.357   9.532  10.980  0.5402 -3.5771  2.1711
  738MOL0     H99564   7.485   9.388  11.125 -1.1288  1.8851  2.8452
  738MOL0     H99565   7.917   9.512  11.279 -0.0224  1.3278  2.1939
  738MOL0     H99566   7.773   9.559  11.375  0.8092  0.3306 -0.5838
  738MOL0     H99567   7.767   9.332  11.475  0.8777  0.9976  1.1716
  738MOL0     H99568   7.871   9.284  11.352 -1.4633  0.6301  0.1097
  738MOL0     H99569   8.048   9.403  11.455 -0.6654 -0.4403 -1.9399
  738MOL0     H99570   7.948   9.506  11.555  0.6001 -1.8425  5.3023
  738MOL0     H99571   7.867   9.296  11.678 -0.1616  2.7102  1.4277
  738MOL0     H99572   8.001   9.211  11.613 -3.4529 -1.3001  0.8423
  738MOL0     H99573   8.056   9.481  11.744  2.0398  0.2003 -3.4766
  738MOL0     H99574   8.035   9.332  11.839 -1.1343 -2.3888 -0.7848
  738MOL0     H99575   8.242   9.240  11.735  0.3814  0.0275 -3.6255
  738MOL0     H99576   8.235   9.385  11.630 -2.8317 -3.7004 -1.9502
  738MOL0     H99577   8.287   9.382  11.935  1.0441  1.1013  0.6313
  738MOL0     H99578   8.415   9.388  11.831  0.9119  0.3791  3.5336
  738MOL0     H99579   8.361   9.597  11.936 -1.5604 -1.2083  1.9946
  738MOL0     H99580   8.200   9.601  11.881 -0.2361 -0.9816  0.3692
  738MOL0     H99581   8.178   9.736  11.619  0.6817  1.5404 -2.8042
  738MOL0     H99582   8.324   9.831  11.382  3.0408 -0.3242 -1.8718
  738MOL0     H99583   8.312   9.959  11.510  2.3385 -0.3907  3.4163
  738MOL0     H99584   8.561   9.843  11.366 -1.6002  0.7209 -2.2038
  738MOL0     H99585   8.579   9.949  11.503 -1.0124 -1.4976  2.4988
  738MOL0     H99586   8.496  10.011  11.214 -3.5810  2.7425 -0.0197
  738MOL0     H99587   8.612  10.085  11.335  1.3062 -0.6616 -2.9921
  738MOL0     H99588   8.440  10.212  11.442  1.0537 -1.1037  0.5297
  738MOL0     H99589   8.313  10.122  11.354  0.1288 -0.2629 -2.3153
  738MOL0     H99590   8.472  10.418  11.059  1.6539  2.1662  0.8458
  738MOL0     H99591   8.479  10.631  10.962  0.3586 -0.7499 -1.3559
  738MOL0     H99592   8.319  10.640  10.899 -0.2687 -1.6207  1.4158
  738MOL0     H99593   8.364  10.767  11.013 -1.0728 -0.6053  0.8985
  738MOL0     H99594   8.015  10.993  11.170 -0.6759 -0.2547  0.0304
  738MOL0     H99595   7.951  11.195  11.055  0.8846 -0.2215  1.3665
  738MOL0     H99596   7.883  11.232  10.610 -0.5243  2.6640 -1.0147
  738MOL0     H99597   7.735  11.184  10.681  0.2426  1.8292 -0.5265
  738MOL0     H99598   7.765  11.428  10.789  0.1692 -1.1935  0.9806
  738MOL0     H99599   7.861  11.451  10.656  2.3148 -2.3298  1.4373
  738MOL0     H99600   7.634  11.326  10.533  2.0058 -0.2400 -0.5981
  738MOL0     H99601   7.692  11.493  10.528 -0.8175  1.8163  1.7648
  738MOL0     H99602   7.477  11.399  10.728 -0.5676 -0.7892 -0.0105
  738MOL0     H99603   7.553  11.547  10.738 -1.3175  0.7838 -0.3745
  738MOL0     H99604   7.348  11.569  10.627  2.4419  0.9666  1.2737
  738MOL0     H99605   7.372  11.412  10.544  0.6269 -1.1383  0.5526
  738MOL0     H99606   7.508  11.499  10.386  1.0714  0.8612  0.6452
  738MOL0     H99607   7.368  11.575  10.367  1.5081 -0.8199 -1.2280
  738MOL0     H99608   7.551  11.730  10.548 -2.6372  3.3804  0.7306
  738MOL0     H99609   7.439  11.785  10.437  0.1982  0.0805  4.5744
  738MOL0     H99610   7.666  11.633  10.316  0.5903 -1.4277  2.0101
  738MOL0     H99611   7.709  11.784  10.393  0.3274 -2.2855 -0.0957
  738MOL0     H99612   7.928  10.984  10.679  2.2587 -1.7089 -0.0728
  738MOL0     H99613   8.028  10.788  10.790 -1.7180  1.7059 -2.8776
  738MOL0     H99614   8.085  10.522  11.348 -0.7694 -0.8977 -0.3046
  738MOL0     H99615   8.217  10.315  11.370 -0.4092  1.6776  1.8512
  738MOL0     H99616   7.827   9.651  11.088 -0.1175 -3.3498  2.5290
  738MOL0     H99617   7.705   9.787  10.934  0.8123 -0.4047  1.5580
  738MOL0     H99618   7.076   9.866  10.747 -0.3620 -1.9560 -3.5983
  738MOL0     H99619   7.030  10.050  10.628 -0.2956 -0.5395  0.0845
  738MOL0     H99620   7.212  10.402  10.547  1.0788 -0.0650  0.8477
  738MOL0     H99621   7.360  10.324  10.557 -0.7642 -1.9903  0.3684
  738MOL0     H99622   7.391  10.345  10.301  0.1867  1.0131 -1.5933
  738MOL0     H99623   7.331  10.488  10.364  0.9726  0.1060 -0.8179
  738MOL0     H99624   7.142  10.273  10.267  2.4209 -0.5102  2.8282
  738MOL0     H99625   7.226  10.373  10.153  2.6687 -1.1524  1.6787
  738MOL0     H99626   7.116  10.574  10.277 -1.8464  1.4182  0.4435
  738MOL0     H99627   7.035  10.445  10.384  3.2040 -0.7045  0.7904
  738MOL0     H99628   6.794  10.382  10.060 -1.9790 -0.6500  2.5477
  738MOL0     H99629   7.454  10.125  10.577 -0.6569 -0.1213 -0.8406
  738MOL0     H99630   7.508   9.944  10.714 -0.5469 -3.4008  1.5283
  739MOL0     O99631   2.961   5.856   6.462 -0.2199 -0.4601 -0.5626
  739MOL0     C99632   3.017   5.754   6.432 -0.3911 -0.2168 -0.6711
  739MOL0     O99633   2.950   5.637   6.424 -0.1716 -0.0892  0.1726
  739MOL0     C99634   2.816   5.640   6.456  0.1840  0.6653 -0.0678
  739MOL0     C99635   2.785   5.578   6.582 -0.6765  0.6764 -0.4538
  739MOL0     C99636   2.660   5.588   6.639 -0.6956  0.5669 -0.4732
  739MOL0     C99637   2.566   5.652   6.570 -0.0617  0.8231  0.8613
  739MOL0     O99638   2.440   5.658   6.632 -0.2404  0.1890 -0.0843
  739MOL0     C99639   2.416   5.794   6.688  0.1516 -0.4554  1.2772
  739MOL0     C99640   2.301   5.790   6.789  0.1747 -0.1939  0.4082
  739MOL0     C99641   2.309   5.663   6.890 -0.2656  0.6925  0.6928
  739MOL0     C99642   2.432   5.652   6.990  0.1879 -0.0300  0.4503
  739MOL0     C99643   2.471   5.789   7.048  0.5539  0.2399 -0.7307
  739MOL0     C99644   2.546   5.778   7.176  0.0000 -0.0178 -0.4907
  739MOL0     C99645   2.697   5.812   7.164 -0.4959 -0.5986 -0.4834
  739MOL0     C99646   2.773   5.792   7.296  0.1991 -0.1216 -1.0805
  739MOL0     N99647   2.905   5.856   7.293 -0.2373 -0.6949 -0.5532
  739MOL0     C99648   3.026   5.788   7.287 -0.5974 -0.8004 -0.5902
  739MOL0     C99649   3.120   5.894   7.300  0.4187 -0.0694  0.5530
  739MOL0     C99650   3.266   5.876   7.304  0.8210  0.3211  0.6720
  739MOL0     C99651   3.311   5.775   7.198  0.0740 -0.1842 -0.5395
  739MOL0     C99652   3.456   5.705   7.230 -0.2233 -0.1182 -0.0810
  739MOL0     C99653   3.580   5.797   7.237  0.9540  0.4502 -0.0916
  739MOL0     O99654   3.703   5.739   7.275  0.3889  0.5574  0.2424
  739MOL0     C99655   3.727   5.696   7.399 -0.1050  0.0422  0.2157
  739MOL0     C99656   3.833   5.597   7.417  0.6144  0.0190  0.2766
  739MOL0     C99657   3.889   5.564   7.544  1.1508 -0.0910 -0.2702
  739MOL0     C99658   3.992   5.459   7.546 -0.8694  0.7298 -0.3745
  739MOL0     C99659   3.839   5.634   7.654 -0.0827 -0.3056 -0.1988
  739MOL0     C99660   3.888   5.624   7.793 -0.6973 -0.1325  0.4681
  739MOL0     O99661   4.019   5.606   7.794  0.4983 -0.7220 -0.4483
  739MOL0     C99662   4.081   5.619   7.919 -0.8929 -0.3314 -0.1217
  739MOL0     C99663   4.106   5.515   8.016 -0.7321  0.6271  0.1629
  739MOL0     C99664   4.202   5.535   8.115  0.8572  0.4671  0.2513
  739MOL0     C99665   4.260   5.655   8.133  0.5636 -0.6866 -1.3516
  739MOL0     O99666   4.327   5.684   8.250 -0.5110 -0.4027  0.0214
  739MOL0     C99667   4.243   5.707   8.362 -0.1152  0.4927 -0.0355
  739MOL0     C99668   4.259   5.579   8.448 -0.1528  1.0704  0.2903
  739MOL0     C99669   4.401   5.522   8.464  0.1358  0.7851  0.3577
  739MOL0     C99670   4.487   5.602   8.558  0.3186 -0.9644 -0.4050
  739MOL0     C99671   4.634   5.553   8.594  0.2532  0.2667  0.6915
  739MOL0     C99672   4.652   5.492   8.732  0.2489  0.4973  0.2043
  739MOL0     C99673   4.786   5.417   8.734 -1.0759 -0.7512  0.1498
  739MOL0     C99674   4.799   5.327   8.859 -0.1275 -0.0255 -0.0915
  739MOL0    Cl99675   4.690   5.179   8.834  0.1263  0.2974 -0.0605
  739MOL0     C99676   4.236   5.759   8.047  0.1079  0.1341 -0.0301
  739MOL0     C99677   4.154   5.740   7.935 -0.0835 -0.6361 -0.0893
  739MOL0     O99678   3.825   5.635   7.897  0.8621 -0.3746 -0.0873
  739MOL0     C99679   3.741   5.732   7.642 -0.1891  0.5264  0.9027
  739MOL0     C99680   3.683   5.760   7.519  0.4006  0.0529  0.1936
  739MOL0     N99681   3.048   6.011   7.316  0.5727 -0.6377 -0.0419
  739MOL0     N99682   2.923   5.987   7.324 -0.0261  0.9606  0.6428
  739MOL0     C99683   2.585   5.708   6.442 -1.0649 -0.3410 -0.1194
  739MOL0     C99684   2.718   5.708   6.391 -0.9753 -0.3003 -0.5547
  739MOL0     C99685   3.161   5.752   6.418 -0.2821 -0.2084 -0.1717
  739MOL0     C99686   3.239   5.866   6.436  0.7025  0.2502 -0.2575
  739MOL0     C99687   3.382   5.857   6.437  0.1952 -0.9518  0.6243
  739MOL0     C99688   3.442   5.730   6.430  0.7961  0.6387  0.6238
  739MOL0     O99689   3.575   5.713   6.461  0.8163 -0.0248 -0.1998
  739MOL0     C99690   3.661   5.786   6.378 -0.5647 -0.4140 -0.0121
  739MOL0     C99691   3.717   5.712   6.262  0.3750  0.4686  0.4858
  739MOL0     C99692   3.835   5.608   6.297 -0.0127  0.6295 -0.3175
  739MOL0     C99693   3.869   5.517   6.174 -1.2667  0.3253 -0.3895
  739MOL0     C99694   3.994   5.447   6.185  0.0111 -0.5890  0.2734
  739MOL0     C99695   4.088   5.379   6.179  0.2279  0.2812 -1.2760
  739MOL0     C99696   3.364   5.615   6.400 -0.4123 -0.0577 -1.5007
  739MOL0     C99697   3.227   5.630   6.405  0.9213  0.4805 -0.0157
  739MOL0     H99698   2.870   5.535   6.634 -2.6193 -1.2822  1.2803
  739MOL0     H99699   2.643   5.546   6.737 -1.7203  3.6461  0.7916
  739MOL0     H99700   2.503   5.840   6.737  1.9037 -1.2101 -0.9265
  739MOL0     H99701   2.402   5.871   6.611 -0.2290 -1.9156 -0.1593
  739MOL0     H99702   2.301   5.892   6.828  0.7144  0.7494 -1.8866
  739MOL0     H99703   2.207   5.767   6.738 -0.8398 -2.8647  3.1704
  739MOL0     H99704   2.219   5.662   6.952  0.2789 -1.1013  1.5050
  739MOL0     H99705   2.298   5.574   6.828  2.4040  1.5297 -1.1472
  739MOL0     H99706   2.407   5.586   7.073 -0.7225  0.9043  0.9331
  739MOL0     H99707   2.516   5.612   6.932  1.3021  1.3751  1.0142
  739MOL0     H99708   2.524   5.843   6.969 -0.7889  0.1454 -1.7338
  739MOL0     H99709   2.384   5.853   7.065 -0.0919 -0.4529 -1.3248
  739MOL0     H99710   2.496   5.836   7.254 -0.5546 -2.4362  1.0379
  739MOL0     H99711   2.540   5.677   7.217  2.1156  0.5152  1.3416
  739MOL0     H99712   2.748   5.757   7.085  0.1146 -1.0848  0.2271
  739MOL0     H99713   2.706   5.920   7.147  1.4350 -0.0118  3.1723
  739MOL0     H99714   2.775   5.688   7.332  0.7210  0.2740  0.0701
  739MOL0     H99715   2.721   5.842   7.378  0.8993 -3.6618  1.8328
  739MOL0     H99716   3.042   5.685   7.258 -0.9014 -0.4283 -2.2437
  739MOL0     H99717   3.318   5.971   7.293  0.7793  0.2828  0.1442
  739MOL0     H99718   3.294   5.845   7.405 -1.7931  0.6353  1.5641
  739MOL0     H99719   3.304   5.819   7.098 -1.4267 -0.5045 -0.6064
  739MOL0     H99720   3.233   5.699   7.196 -4.4448  3.6789  3.2276
  739MOL0     H99721   3.464   5.625   7.157 -3.7425 -1.1972  0.4817
  739MOL0     H99722   3.445   5.655   7.327  0.3223  2.2861  1.3036
  739MOL0     H99723   3.561   5.886   7.298  0.4918  1.3139 -1.4441
  739MOL0     H99724   3.603   5.829   7.135  0.2273  0.2932 -0.3147
  739MOL0     H99725   3.871   5.561   7.322  0.1878  1.7561 -0.5989
  739MOL0     H99726   4.095   5.495   7.551 -0.5679 -0.1892  0.3233
  739MOL0     H99727   3.987   5.388   7.629 -1.7885 -0.5317 -1.4667
  739MOL0     H99728   3.994   5.393   7.459 -0.6183  0.1074  0.1017
  739MOL0     H99729   4.054   5.423   7.990 -0.2374  0.8515 -1.7500
  739MOL0     H99730   4.211   5.453   8.185 -0.4626  0.8500  0.9120
  739MOL0     H99731   4.287   5.788   8.422  1.7002 -1.1885  1.0214
  739MOL0     H99732   4.140   5.730   8.335  0.2506  1.2122 -0.8594
  739MOL0     H99733   4.213   5.594   8.546  0.8549 -1.1609  1.1619
  739MOL0     H99734   4.192   5.502   8.409 -1.0719 -0.5753  4.6297
  739MOL0     H99735   4.459   5.504   8.373  0.1790 -0.2776  0.5878
  739MOL0     H99736   4.383   5.425   8.509  1.0750  1.1212  1.5329
  739MOL0     H99737   4.514   5.698   8.513  4.1330 -1.5741  0.2383
  739MOL0     H99738   4.439   5.618   8.655  1.7100 -1.5817  0.4237
  739MOL0     H99739   4.716   5.624   8.582 -0.1178  0.6237  0.2047
  739MOL0     H99740   4.661   5.477   8.520  1.7468  0.7153  0.7530
  739MOL0     H99741   4.642   5.572   8.806 -3.6626  0.9189 -0.5974
  739MOL0     H99742   4.573   5.422   8.758  0.1845 -0.3213 -1.9742
  739MOL0     H99743   4.868   5.488   8.715 -3.3489  1.7897 -0.8941
  739MOL0     H99744   4.792   5.347   8.650 -1.8395  0.5137 -1.0020
  739MOL0     H99745   4.786   5.371   8.958  1.7475  1.1237 -0.3162
  739MOL0     H99746   4.899   5.286   8.873  0.3424  0.9802 -0.4948
  739MOL0     H99747   4.274   5.860   8.061  2.0640 -0.3576 -1.4114
  739MOL0     H99748   4.143   5.828   7.873  1.1408  1.2780  2.2287
  739MOL0     H99749   3.692   5.778   7.727 -2.4673 -1.5624  0.8318
  739MOL0     H99750   3.606   5.836   7.515  1.6827  1.4588  0.9738
  739MOL0     H99751   2.513   5.773   6.393 -1.1413  0.5730  1.1336
  739MOL0     H99752   2.745   5.749   6.294  2.9237 -1.5074 -0.1723
  739MOL0     H99753   3.197   5.963   6.461  2.6164  1.8162 -2.5934
  739MOL0     H99754   3.438   5.947   6.462  2.6774 -2.0974 -0.5218
  739MOL0     H99755   3.617   5.878   6.337  2.7576  1.3169 -0.0545
  739MOL0     H99756   3.751   5.821   6.429 -1.7201  1.1024  1.0923
  739MOL0     H99757   3.752   5.788   6.192  2.3100 -0.2231  0.6505
  739MOL0     H99758   3.633   5.653   6.224  2.7286 -1.2944 -2.4203
  739MOL0     H99759   3.801   5.551   6.384 -1.4987  0.2848 -1.1032
  739MOL0     H99760   3.920   5.664   6.339  0.2221  0.5679 -0.7065
  739MOL0     H99761   3.875   5.586   6.089  2.0631  3.2469  1.9638
  739MOL0     H99762   3.789   5.443   6.164 -0.8114 -0.1726 -0.3629
  739MOL0     H99763   4.168   5.308   6.167  1.6232  0.2579  4.8950
  739MOL0     H99764   3.396   5.512   6.412  0.0417  0.3223  1.6218
  739MOL0     H99765   3.181   5.534   6.387  2.2367 -0.6175  2.0551
  740MOL0     O99766   2.115  11.343   0.433 -0.4775 -0.2033 -0.1516
  740MOL0     C99767   2.092  11.462   0.410 -0.7675 -0.0254  0.6732
  740MOL0     O99768   2.157  11.569   0.463 -0.1449 -0.1612 -0.6315
  740MOL0     C99769   2.278  11.546   0.526  0.4435  0.2628  0.5461
  740MOL0     C99770   2.300  11.577   0.655 -0.9313 -0.4596 -0.6884
  740MOL0     C99771   2.428  11.533   0.714  1.6162 -0.0982  0.1637
  740MOL0     C99772   2.527  11.469   0.639  0.0620 -0.0083  0.3681
  740MOL0     O99773   2.653  11.415   0.681  0.9359 -0.6155 -0.2833
  740MOL0     C99774   2.710  11.472   0.798  0.3901  0.4142  0.5567
  740MOL0     C99775   2.854  11.420   0.812 -0.3519 -0.6050 -0.5827
  740MOL0     C99776   2.864  11.267   0.822 -0.2202 -0.6665  0.0435
  740MOL0     C99777   3.010  11.233   0.840 -0.0230  0.4755  0.6144
  740MOL0     C99778   3.040  11.084   0.890 -0.2451 -0.8280  0.3951
  740MOL0     C99779   2.981  10.977   0.796  0.0910 -0.4935  1.0161
  740MOL0     C99780   3.050  10.844   0.830  1.1919  0.4254  0.2609
  740MOL0     C99781   3.014  10.729   0.729 -0.5570 -0.3847 -0.7111
  740MOL0     N99782   3.075  10.760   0.594 -0.2716  0.3025 -1.0526
  740MOL0     C99783   3.020  10.751   0.461 -0.4161  1.0115 -0.4796
  740MOL0     C99784   3.139  10.739   0.386  0.3975  0.4018  0.2442
  740MOL0     C99785   3.131  10.739   0.235 -0.5841 -0.2953 -1.5266
  740MOL0     C99786   3.239  10.643   0.174  1.1737  0.0954 -0.5288
  740MOL0     C99787   3.245  10.670   0.032  0.2599  0.6507 -0.7181
  740MOL0     C99788   3.315  10.568  -0.054 -0.5404 -0.3735  0.8514
  740MOL0     O99789   3.216  10.473  -0.099 -0.8088 -0.4844  0.8522
  740MOL0     C99790   3.275  10.364  -0.158  0.1931  0.6895 -0.3687
  740MOL0     C99791   3.391  10.359  -0.229 -0.4158  0.6353  0.1846
  740MOL0     C99792   3.437  10.244  -0.300 -0.5079  0.6196 -0.0940
  740MOL0     C99793   3.567  10.248  -0.371  0.0464  0.2400 -0.4437
  740MOL0     C99794   3.363  10.125  -0.292  0.7062 -0.1061 -0.1886
  740MOL0     C99795   3.388  10.001  -0.364  0.6180  0.6533 -0.8954
  740MOL0     O99796   3.312   9.889  -0.332  0.0416  0.2003 -0.0248
  740MOL0     C99797   3.341   9.784  -0.413 -0.3122  0.3597  0.8367
  740MOL0     C99798   3.244   9.722  -0.498  0.6738  0.1466  0.2961
  740MOL0     C99799   3.259   9.605  -0.558  0.5927  0.5753 -0.4022
  740MOL0     C99800   3.383   9.539  -0.544 -0.7657 -0.6515  1.2965
  740MOL0     O99801   3.403   9.416  -0.598  0.2825 -0.0427 -0.3319
  740MOL0     C99802   3.530   9.378  -0.641  0.6693 -0.5567 -0.1365
  740MOL0     C99803   3.516   9.310  -0.772 -0.1740 -1.1295  0.1053
  740MOL0     C99804   3.468   9.165  -0.766  0.6708  0.1612 -1.1079
  740MOL0     C99805   3.486   9.080  -0.894  0.0890 -0.1613 -0.4601
  740MOL0     C99806   3.410   8.944  -0.862 -0.5051 -0.2381  1.1655
  740MOL0     C99807   3.402   8.859  -0.991  0.6286  0.2207 -0.1531
  740MOL0     C99808   3.392   8.934  -1.122  0.5341 -0.3791 -0.7901
  740MOL0     C99809   3.360   8.831  -1.223  0.4473 -0.6276 -0.2685
  740MOL0    Cl99810   3.309   8.894  -1.393  0.2167 -0.8409 -0.3205
  740MOL0     C99811   3.490   9.607  -0.476  0.1652  0.0037  0.4203
  740MOL0     C99812   3.468   9.727  -0.407 -0.2534  0.2237 -0.9259
  740MOL0     O99813   3.485  10.005  -0.439 -0.3601 -0.3882  0.3834
  740MOL0     C99814   3.253  10.124  -0.206  0.1573  0.2832  0.3840
  740MOL0     C99815   3.213  10.244  -0.151  0.7137 -0.0361  0.1676
  740MOL0     N99816   3.252  10.735   0.463  0.1789 -0.2100  0.1957
  740MOL0     N99817   3.208  10.731   0.581  0.2708  0.0360 -0.1366
  740MOL0     C99818   2.498  11.443   0.496  0.2079  0.7187 -0.2722
  740MOL0     C99819   2.372  11.486   0.453 -1.4640  0.6576  0.3094
  740MOL0     C99820   1.978  11.484   0.322  0.1679 -0.0938  0.3104
  740MOL0     C99821   1.947  11.609   0.279 -0.8742 -0.4170  0.0409
  740MOL0     C99822   1.836  11.637   0.193  0.0361  0.8352  0.3802
  740MOL0     C99823   1.735  11.541   0.174  0.6977  0.3608  1.0580
  740MOL0     O99824   1.613  11.552   0.104  0.6320  0.0986  0.8454
  740MOL0     C99825   1.597  11.676   0.029  0.8662 -0.0728 -0.7568
  740MOL0     C99826   1.534  11.772   0.137  0.4463  1.3040  0.5748
  740MOL0     C99827   1.524  11.919   0.086  0.0904  0.4182  0.1694
  740MOL0     C99828   1.415  11.932  -0.018 -0.6945  1.1478  0.2373
  740MOL0     C99829   1.288  11.959   0.050  0.4192 -0.7948 -0.1986
  740MOL0     C99830   1.177  11.974   0.104 -1.1275  0.5142 -0.1389
  740MOL0     C99831   1.773  11.415   0.217 -0.2955 -0.1423  0.5850
  740MOL0     C99832   1.890  11.376   0.282 -0.9266 -1.2513  0.3302
  740MOL0     H99833   2.228  11.609   0.730  0.6108 -0.8244  1.0116
  740MOL0     H99834   2.437  11.550   0.821 -0.7140  1.3561  0.1958
  740MOL0     H99835   2.708  11.580   0.779  1.4407 -0.0463 -2.6238
  740MOL0     H99836   2.657  11.445   0.890  1.3431 -1.3537  0.6352
  740MOL0     H99837   2.922  11.462   0.737  3.4757  0.6961  3.2162
  740MOL0     H99838   2.902  11.462   0.900 -1.1775 -0.8800  0.0082
  740MOL0     H99839   2.815  11.231   0.913 -0.1567  1.6211  1.0472
  740MOL0     H99840   2.818  11.219   0.735 -0.0470  2.2329 -1.7960
  740MOL0     H99841   3.065  11.257   0.749 -0.5598  2.2153  0.7100
  740MOL0     H99842   3.046  11.304   0.916 -1.8956  4.1020 -1.5992
  740MOL0     H99843   3.149  11.077   0.886 -0.0454  0.8245  1.8454
  740MOL0     H99844   3.007  11.058   0.991 -0.7585 -3.1329 -0.3068
  740MOL0     H99845   2.873  10.961   0.805  0.0571 -0.0595  1.4760
  740MOL0     H99846   3.000  11.014   0.695 -0.3013 -0.8876  0.8007
  740MOL0     H99847   3.157  10.858   0.845  0.6860  1.9883  3.2256
  740MOL0     H99848   3.018  10.816   0.931 -4.2038 -3.6626 -2.0604
  740MOL0     H99849   2.909  10.714   0.705 -0.9015  2.2511 -1.2190
  740MOL0     H99850   3.054  10.632   0.758 -0.1309  0.3957  1.5258
  740MOL0     H99851   2.915  10.752   0.433 -0.2689  1.7765 -1.0536
  740MOL0     H99852   3.028  10.703   0.221 -0.3768 -0.6659 -2.1488
  740MOL0     H99853   3.152  10.841   0.201  0.9936  0.7298  2.1191
  740MOL0     H99854   3.210  10.540   0.199 -0.2273  0.9456  1.6049
  740MOL0     H99855   3.330  10.666   0.231  1.6820  1.0958 -1.7050
  740MOL0     H99856   3.289  10.767   0.005  1.6670 -0.8637 -4.5707
  740MOL0     H99857   3.144  10.670  -0.009  0.5544 -1.3482 -1.5295
  740MOL0     H99858   3.393  10.529   0.013  0.7044  0.4614 -0.0682
  740MOL0     H99859   3.365  10.615  -0.139 -0.3371  0.4522  1.4075
  740MOL0     H99860   3.454  10.447  -0.244 -0.1941  0.3941 -0.3047
  740MOL0     H99861   3.546  10.239  -0.479 -0.1820 -1.1682 -0.3074
  740MOL0     H99862   3.610  10.348  -0.362  0.7646  0.0117 -1.2356
  740MOL0     H99863   3.637  10.175  -0.331 -0.5887 -1.3663 -2.1029
  740MOL0     H99864   3.146   9.768  -0.494 -1.0765 -3.3618  2.3175
  740MOL0     H99865   3.173   9.560  -0.605 -1.3054  1.9962  1.5097
  740MOL0     H99866   3.603   9.458  -0.658  1.9038 -1.8481 -1.1319
  740MOL0     H99867   3.577   9.318  -0.562  0.0343  0.4200  1.0290
  740MOL0     H99868   3.457   9.363  -0.847 -0.7632  1.5603  2.2899
  740MOL0     H99869   3.616   9.308  -0.815 -1.3365  1.9353 -3.2251
  740MOL0     H99870   3.363   9.173  -0.738  0.4440 -1.7797 -1.2099
  740MOL0     H99871   3.518   9.106  -0.688 -2.0010 -2.2348 -1.0557
  740MOL0     H99872   3.437   9.137  -0.973 -2.0235  1.2961  1.7349
  740MOL0     H99873   3.592   9.060  -0.910 -0.5002 -1.2761 -3.7815
  740MOL0     H99874   3.305   8.962  -0.837 -0.9347 -1.8187  0.6492
  740MOL0     H99875   3.468   8.893  -0.784 -0.6952 -1.7055  0.3980
  740MOL0     H99876   3.496   8.804  -1.004  1.5258  2.3286 -4.0766
  740MOL0     H99877   3.314   8.802  -0.962 -0.7653  3.4439  2.5858
  740MOL0     H99878   3.491   8.974  -1.145 -0.1278  0.9597 -1.4819
  740MOL0     H99879   3.318   9.015  -1.125  1.7335  0.7560 -1.0489
  740MOL0     H99880   3.278   8.768  -1.186  0.8136 -2.1556 -1.9191
  740MOL0     H99881   3.443   8.761  -1.236  1.1859  0.4769 -1.8044
  740MOL0     H99882   3.585   9.555  -0.485 -0.0286 -0.2350 -0.3328
  740MOL0     H99883   3.543   9.764  -0.339  0.0025  0.8763 -1.5556
  740MOL0     H99884   3.188  10.038  -0.207  1.8556 -1.0633  0.5855
  740MOL0     H99885   3.124  10.243  -0.089  0.2628  1.8400 -0.3781
  740MOL0     H99886   2.565  11.382   0.436 -0.8079 -0.6834 -0.0416
  740MOL0     H99887   2.354  11.447   0.353 -0.2476 -1.1359  0.7317
  740MOL0     H99888   2.017  11.685   0.313  1.9464 -2.3947 -0.9608
  740MOL0     H99889   1.842  11.736   0.149 -0.3099  1.8359  2.4378
  740MOL0     H99890   1.691  11.716  -0.010  1.1478 -0.2288 -0.2431
  740MOL0     H99891   1.535  11.654  -0.058  1.3321 -1.2263 -0.8168
  740MOL0     H99892   1.596  11.781   0.227 -0.4846  1.4932  1.2103
  740MOL0     H99893   1.432  11.744   0.165  1.1581  0.1092  2.1801
  740MOL0     H99894   1.617  11.948   0.037 -0.2978 -2.9132 -3.0115
  740MOL0     H99895   1.514  11.973   0.180  1.2552  0.3205  0.3641
  740MOL0     H99896   1.409  11.840  -0.076  0.8352  1.4999 -0.5201
  740MOL0     H99897   1.435  12.016  -0.085  2.5237  2.0072  2.0689
  740MOL0     H99898   1.093  11.980   0.171 -0.2096  3.0221  0.9323
  740MOL0     H99899   1.693  11.350   0.183  0.6786 -1.5856  0.9398
  740MOL0     H99900   1.917  11.275   0.311  0.8028 -0.8259  0.3529
  741MOL0     O99901   3.924   2.831   4.609 -0.5643  0.3482  0.1643
  741MOL0     C99902   4.015   2.889   4.541 -0.1548  0.2837 -0.6542
  741MOL0     O99903   4.036   3.026   4.540  0.1527  0.3678 -0.1726
  741MOL0     C99904   3.971   3.096   4.634 -1.2469 -0.7388  1.1998
  741MOL0     C99905   3.834   3.125   4.610  0.0630  0.3121 -0.1416
  741MOL0     C99906   3.755   3.200   4.696 -0.1460  0.4169 -0.2238
  741MOL0     C99907   3.808   3.236   4.820 -0.4956 -0.2411 -0.7011
  741MOL0     O99908   3.738   3.301   4.918 -0.7228 -0.5526 -0.1746
  741MOL0     C99909   3.617   3.373   4.886 -0.0091  0.1917  0.0760
  741MOL0     C99910   3.660   3.493   4.803 -0.4903  0.1181 -0.1033
  741MOL0     C99911   3.533   3.575   4.775  0.1378  0.5490  0.9038
  741MOL0     C99912   3.502   3.621   4.628 -0.2992 -0.3099 -0.3103
  741MOL0     C99913   3.371   3.699   4.622  0.6274  0.0391 -0.2953
  741MOL0     C99914   3.361   3.759   4.484  0.4585  0.1687 -0.2402
  741MOL0     C99915   3.225   3.835   4.480 -0.4112  0.7599  0.0291
  741MOL0     C99916   3.186   3.910   4.348 -0.1482  0.4556  1.4056
  741MOL0     N99917   3.181   3.821   4.225 -0.0551 -0.0484 -0.5010
  741MOL0     C99918   3.112   3.703   4.216  0.4821  0.4490  0.0617
  741MOL0     C99919   3.136   3.663   4.090 -0.1018  0.3471  0.3185
  741MOL0     C99920   3.091   3.536   4.025  0.4770  0.3579  0.0342
  741MOL0     C99921   3.196   3.419   4.052  0.7607  0.5051  0.1861
  741MOL0     C99922   3.139   3.271   4.038 -0.3156 -0.1539  0.0296
  741MOL0     C99923   3.252   3.156   4.037  0.5682 -0.4624 -0.2894
  741MOL0     O99924   3.194   3.021   4.054  0.1637  0.1187  0.3747
  741MOL0     C99925   3.115   2.966   3.955 -1.0805 -0.2009 -0.2116
  741MOL0     C99926   3.012   2.888   3.997  0.6277  0.7120 -0.6893
  741MOL0     C99927   2.934   2.813   3.905 -0.2462  0.6816 -0.2854
  741MOL0     C99928   2.820   2.732   3.961  0.5590 -0.0664 -0.2930
  741MOL0     C99929   2.977   2.808   3.769 -1.4099  0.7376  0.3774
  741MOL0     C99930   2.908   2.729   3.663 -0.8210 -0.5407  0.3207
  741MOL0     O99931   2.982   2.683   3.562  0.1397 -0.3403 -0.0303
  741MOL0     C99932   2.924   2.662   3.442 -0.5052  0.1776 -0.6529
  741MOL0     C99933   2.911   2.535   3.389  0.6608 -0.1980  0.0556
  741MOL0     C99934   2.882   2.516   3.249 -0.5114  0.7829  0.3428
  741MOL0     C99935   2.848   2.625   3.171  0.5859 -0.2521  0.9750
  741MOL0     O99936   2.803   2.623   3.038 -0.2528  1.1081  1.0381
  741MOL0     C99937   2.771   2.499   2.972 -0.0728  0.3166  0.2006
  741MOL0     C99938   2.739   2.516   2.826 -1.0304 -0.8185 -0.1358
  741MOL0     C99939   2.663   2.400   2.768 -0.5480  0.2012  0.3809
  741MOL0     C99940   2.665   2.408   2.611  0.6910 -0.2553 -0.5181
  741MOL0     C99941   2.556   2.333   2.540  0.1212 -0.5248 -0.6436
  741MOL0     C99942   2.541   2.382   2.395  0.0019  0.1337  0.3672
  741MOL0     C99943   2.463   2.286   2.300 -0.4707 -1.3424  0.7691
  741MOL0     C99944   2.408   2.365   2.174  0.0089  0.3509  0.2409
  741MOL0    Cl99945   2.338   2.265   2.061 -0.7427 -0.3152 -0.0436
  741MOL0     C99946   2.848   2.751   3.230 -0.3825  0.1305  0.0041
  741MOL0     C99947   2.890   2.770   3.360 -0.4814 -0.4901 -0.7244
  741MOL0     O99948   2.786   2.722   3.669 -0.7265 -0.7622  0.6571
  741MOL0     C99949   3.072   2.898   3.729  0.1112 -0.3437 -0.3053
  741MOL0     C99950   3.140   2.972   3.819  0.2789 -0.6879 -0.2006
  741MOL0     N99951   3.228   3.746   4.032 -0.4448 -0.2095 -0.2772
  741MOL0     N99952   3.255   3.841   4.113 -1.1728 -0.6662  0.1822
  741MOL0     C99953   3.944   3.220   4.848  0.0692  1.0996 -0.0440
  741MOL0     C99954   4.023   3.142   4.759 -0.9589 -0.1663  0.9437
  741MOL0     C99955   4.088   2.796   4.465 -0.3773  0.1973  0.1539
  741MOL0     C99956   4.198   2.837   4.384 -0.4399 -0.7204 -0.8258
  741MOL0     C99957   4.275   2.750   4.312  0.1421  1.0933  0.0090
  741MOL0     C99958   4.231   2.620   4.302 -0.6001 -0.1284 -0.6141
  741MOL0     O99959   4.306   2.535   4.234  0.5402 -0.2765  0.3713
  741MOL0     C99960   4.366   2.429   4.313  0.0722  0.3927 -0.0655
  741MOL0     C99961   4.465   2.356   4.233  0.6898 -0.3830 -0.6005
  741MOL0     C99962   4.392   2.256   4.147 -0.2248  0.4082 -0.5006
  741MOL0     C99963   4.329   2.144   4.237 -0.1371  1.0708 -0.1098
  741MOL0     C99964   4.192   2.114   4.204  0.6298  0.4517 -0.3179
  741MOL0     C99965   4.072   2.090   4.186  0.2023 -0.4526  0.6048
  741MOL0     C99966   4.119   2.574   4.370 -0.0843 -0.5574  0.3782
  741MOL0     C99967   4.043   2.664   4.451  0.1766 -0.4718  0.3888
  741MOL0     H99968   3.785   3.100   4.516  1.0079 -1.9582 -0.0998
  741MOL0     H99969   3.652   3.210   4.662 -0.0947  1.8239 -0.0019
  741MOL0     H99970   3.550   3.313   4.825  0.8056  0.2468 -0.8906
  741MOL0     H99971   3.568   3.392   4.982  0.1654 -3.0792  0.9454
  741MOL0     H99972   3.737   3.552   4.855 -0.1854 -0.2152 -0.1724
  741MOL0     H99973   3.704   3.452   4.712 -1.1822  2.3438 -1.5215
  741MOL0     H99974   3.443   3.521   4.807 -0.9112  0.4828 -1.8791
  741MOL0     H99975   3.544   3.670   4.828  1.1110  1.8052 -1.3972
  741MOL0     H99976   3.586   3.679   4.589  0.7541 -1.7812 -0.3210
  741MOL0     H99977   3.491   3.527   4.573 -1.2666 -1.4408  1.7133
  741MOL0     H99978   3.283   3.634   4.628 -1.3550  1.8740 -4.7593
  741MOL0     H99979   3.374   3.762   4.712  1.6525  0.9862 -0.9635
  741MOL0     H99980   3.447   3.826   4.471 -0.5777  1.6166  0.1806
  741MOL0     H99981   3.361   3.678   4.410  1.0833  1.0509 -1.2253
  741MOL0     H99982   3.148   3.763   4.508 -0.7536  0.9349 -0.4456
  741MOL0     H99983   3.216   3.903   4.565 -1.7523 -3.4532  3.6209
  741MOL0     H99984   3.255   3.994   4.329  0.2264 -0.6471 -2.9587
  741MOL0     H99985   3.087   3.955   4.349  0.7500  2.6571  0.1573
  741MOL0     H99986   3.059   3.651   4.295  3.3218 -0.1008  1.7517
  741MOL0     H99987   2.989   3.513   4.057  0.4153  0.3726 -0.1542
  741MOL0     H99988   3.073   3.566   3.922 -3.4588 -0.6032  0.2940
  741MOL0     H99989   3.241   3.442   4.150  0.4174 -1.3599  0.8255
  741MOL0     H99990   3.274   3.429   3.976  0.9311 -1.4627  0.0639
  741MOL0     H99991   3.069   3.262   3.954  1.0723  1.2075 -1.3542
  741MOL0     H99992   3.076   3.244   4.123 -3.1876 -0.4235 -2.0031
  741MOL0     H99993   3.322   3.172   4.120  0.2006  1.9057 -0.3487
  741MOL0     H99994   3.298   3.179   3.940 -3.4201  1.6189 -1.9074
  741MOL0     H99995   2.972   2.884   4.098 -3.1194  0.4853 -2.0322
  741MOL0     H99996   2.822   2.638   3.905  1.7709  0.0452 -0.4642
  741MOL0     H99997   2.834   2.722   4.068 -0.5277 -0.8220 -0.2025
  741MOL0     H99998   2.727   2.781   3.930 -0.0013 -1.3368 -0.7033
  741MOL0     H99999   2.917   2.448   3.455  0.0858 -1.2567 -1.2287
  741MOL0     H    0   2.882   2.420   3.200  1.8316  1.3106 -0.8022
  741MOL0     H    1   2.859   2.434   2.977 -0.2047 -0.2535 -2.9423
  741MOL0     H    2   2.703   2.427   3.020  0.3096 -0.1093  0.1135
  741MOL0     H    3   2.683   2.610   2.821  0.0574 -0.2026 -3.8397
  741MOL0     H    4   2.834   2.535   2.774  0.1731  0.5268  2.3349
  741MOL0     H    5   2.561   2.408   2.807 -0.9403 -2.4702  0.1126
  741MOL0     H    6   2.690   2.300   2.805 -1.8163  0.0919  1.0603
  741MOL0     H    7   2.668   2.513   2.582  2.2529 -0.9265 -3.0857
  741MOL0     H    8   2.766   2.378   2.582  0.5771 -1.3914  0.1550
  741MOL0     H    9   2.461   2.359   2.588  1.9572  2.8645  1.5921
  741MOL0     H   10   2.564   2.224   2.549  2.4681 -0.2305  2.4724
  741MOL0     H   11   2.499   2.482   2.405  1.6506  0.7764  1.4672
  741MOL0     H   12   2.641   2.396   2.353  0.5859 -0.3119  1.5435
  741MOL0     H   13   2.369   2.254   2.346 -1.8422  0.3604 -0.6817
  741MOL0     H   14   2.540   2.215   2.270  1.5244  0.9741  0.0253
  741MOL0     H   15   2.489   2.423   2.129 -0.0663 -0.2224 -0.6600
  741MOL0     H   16   2.326   2.435   2.192  2.8319  4.3890 -1.2184
  741MOL0     H   17   2.827   2.842   3.174 -4.6785  1.2648  2.9509
  741MOL0     H   18   2.891   2.870   3.401  1.8936 -1.5104  2.0504
  741MOL0     H   19   3.106   2.919   3.628  2.2304  2.0612  0.8129
  741MOL0     H   20   3.226   3.020   3.773 -0.5499 -0.1833 -1.2686
  741MOL0     H   21   3.989   3.257   4.940  0.0198 -2.5714  1.6360
  741MOL0     H   22   4.128   3.128   4.782  0.4700  2.7679 -2.7785
  741MOL0     H   23   4.226   2.941   4.390 -0.8859 -0.4878 -2.2976
  741MOL0     H   24   4.362   2.785   4.259 -0.9694  2.4597 -0.9917
  741MOL0     H   25   4.429   2.460   4.396  0.5517 -1.6088  0.3676
  741MOL0     H   26   4.281   2.370   4.348  1.3662 -2.3352 -1.2397
  741MOL0     H   27   4.542   2.307   4.293  0.5716 -0.0674 -0.1872
  741MOL0     H   28   4.521   2.433   4.178 -0.5078  2.6533  2.0792
  741MOL0     H   29   4.467   2.206   4.085 -1.5610 -1.9668 -0.3353
  741MOL0     H   30   4.311   2.306   4.093 -0.7733 -0.1618 -0.2283
  741MOL0     H   31   4.346   2.147   4.345  0.5374 -3.0168  0.0502
  741MOL0     H   32   4.358   2.042   4.211 -1.9484  1.2227 -3.2543
  741MOL0     H   33   3.969   2.081   4.157  0.0189  2.0027  0.2811
  741MOL0     H   34   4.088   2.470   4.372 -1.1751 -0.3542 -2.0921
  741MOL0     H   35   3.965   2.617   4.509 -0.5596 -2.1836 -1.8463
  742MOL0     O   36   7.862   8.712   6.781 -0.3014 -0.1949 -0.4254
  742MOL0     C   37   7.837   8.676   6.896 -0.2094 -0.8019  0.8168
  742MOL0     O   38   7.903   8.583   6.965 -0.7494  0.1098 -0.2045
  742MOL0     C   39   8.014   8.510   6.921 -0.4486  0.3097  0.7108
  742MOL0     C   40   8.081   8.513   6.798 -0.2520 -0.0037 -0.4714
  742MOL0     C   41   8.200   8.441   6.774  0.3090  0.0605  0.1719
  742MOL0     C   42   8.247   8.349   6.867 -0.4539  0.8903  0.4930
  742MOL0     O   43   8.347   8.257   6.844 -0.4303 -0.0631  0.0871
  742MOL0     C   44   8.306   8.118   6.820 -0.3788  0.1590 -1.1553
  742MOL0     C   45   8.385   8.000   6.902  0.0131 -1.1828  0.2239
  742MOL0     C   46   8.391   8.009   7.059 -0.8312  0.2893  0.2317
  742MOL0     C   47   8.324   7.893   7.127 -0.4541 -0.9144  0.1583
  742MOL0     C   48   8.321   7.896   7.289  0.6769  0.1009 -0.3066
  742MOL0     C   49   8.258   7.762   7.352  0.1009 -0.5303 -0.4068
  742MOL0     C   50   8.347   7.638   7.320 -0.7350 -0.7023 -0.7748
  742MOL0     C   51   8.469   7.629   7.409 -0.1086  0.5853  0.3839
  742MOL0     N   52   8.451   7.664   7.551  0.8704 -0.7907  0.0402
  742MOL0     C   53   8.443   7.799   7.589  0.3744  0.0526  0.5281
  742MOL0     C   54   8.441   7.783   7.724  0.2721 -0.6602 -0.5256
  742MOL0     C   55   8.443   7.889   7.841  0.5429 -0.4177  0.4780
  742MOL0     C   56   8.345   7.864   7.960  0.0413 -0.5899 -1.0953
  742MOL0     C   57   8.205   7.794   7.937 -0.5032  0.1776  0.3886
  742MOL0     C   58   8.150   7.750   8.064 -0.0514  0.1740  0.4624
  742MOL0     O   59   8.032   7.671   8.046 -1.4026  0.6657  0.0175
  742MOL0     C   60   7.959   7.629   8.150 -0.1679 -0.3668 -0.0310
  742MOL0     C   61   7.959   7.671   8.279  0.2372  0.0231 -0.5499
  742MOL0     C   62   7.880   7.599   8.367 -0.0215  0.4071  0.1198
  742MOL0     C   63   7.895   7.631   8.514 -0.2626 -1.0176  0.0876
  742MOL0     C   64   7.771   7.514   8.318  0.7250 -1.0267  0.4160
  742MOL0     C   65   7.657   7.454   8.397 -0.8239 -0.1832 -0.0968
  742MOL0     O   66   7.597   7.341   8.344 -0.4022 -0.2326  0.2342
  742MOL0     C   67   7.477   7.312   8.390  0.8435 -0.7779 -0.1347
  742MOL0     C   68   7.366   7.320   8.309 -1.1093  1.2985 -0.3660
  742MOL0     C   69   7.245   7.277   8.354  0.5435  0.5653  0.1502
  742MOL0     C   70   7.225   7.237   8.491 -0.8478 -0.2060  0.1428
  742MOL0     O   71   7.103   7.217   8.549 -0.2629  0.1586 -0.0990
  742MOL0     C   72   7.092   7.151   8.672 -0.5645  0.2757  0.3354
  742MOL0     C   73   6.949   7.115   8.707  0.1025 -0.0386  0.2055
  742MOL0     C   74   6.873   7.021   8.608  1.2866 -0.2117 -0.1767
  742MOL0     C   75   6.910   6.872   8.629  0.8980  0.0517 -1.5296
  742MOL0     C   76   6.821   6.780   8.535 -0.2872 -0.9240  0.9817
  742MOL0     C   77   6.843   6.630   8.522  0.5772  0.2767  0.2488
  742MOL0     C   78   6.811   6.552   8.652  0.4217 -0.7892  0.0981
  742MOL0     C   79   6.864   6.405   8.635 -0.0574  0.2877  0.4911
  742MOL0    Cl   80   6.900   6.340   8.796  0.4234 -0.1977  0.3325
  742MOL0     C   81   7.337   7.234   8.571  0.0268 -0.4751 -0.0153
  742MOL0     C   82   7.456   7.266   8.519 -0.1037  0.3383 -0.3120
  742MOL0     O   83   7.629   7.506   8.509  0.0595 -1.0146  1.0475
  742MOL0     C   84   7.768   7.495   8.178 -0.6261  1.0467 -0.5515
  742MOL0     C   85   7.871   7.539   8.092 -1.0691  0.1382 -0.8585
  742MOL0     N   86   8.454   7.655   7.757  0.7510 -0.1236 -0.3654
  742MOL0     N   87   8.470   7.580   7.655  0.9318 -0.3342 -0.1549
  742MOL0     C   88   8.185   8.335   6.986  0.0769  0.0902  0.0552
  742MOL0     C   89   8.080   8.421   7.010  0.3164 -0.4262  0.6863
  742MOL0     C   90   7.720   8.752   6.954  0.1388  0.2518  0.4301
  742MOL0     C   91   7.696   8.740   7.090 -0.8093 -0.5171  0.0836
  742MOL0     C   92   7.575   8.777   7.146  0.6234  0.2149  0.2114
  742MOL0     C   93   7.478   8.837   7.068 -0.2592 -0.1976 -0.8739
  742MOL0     O   94   7.355   8.886   7.106  0.2053  0.0088  0.9582
  742MOL0     C   95   7.342   8.939   7.233 -0.4195  0.1438 -0.6018
  742MOL0     C   96   7.223   9.018   7.225 -0.6322 -0.2467  0.5784
  742MOL0     C   97   7.195   9.109   7.345 -0.0991  0.7963 -0.2714
  742MOL0     C   98   7.292   9.221   7.387  0.2685 -0.4942  0.6665
  742MOL0     C   99   7.308   9.221   7.526 -0.5165  0.2864 -0.7863
  742MOL0     C  100   7.336   9.218   7.645 -0.1588 -0.1467  0.7308
  742MOL0     C  101   7.501   8.834   6.929  0.7754 -0.1773 -0.4968
  742MOL0     C  102   7.621   8.796   6.868 -0.2639  0.2239 -0.4657
  742MOL0     H  103   8.053   8.585   6.722 -0.4082 -0.4820 -0.8782
  742MOL0     H  104   8.268   8.466   6.693  2.6410  0.3334  2.1034
  742MOL0     H  105   8.207   8.111   6.867 -0.2468  0.1319 -0.8845
  742MOL0     H  106   8.323   8.093   6.714  2.1653  1.2528 -1.0696
  742MOL0     H  107   8.333   7.911   6.867  0.0502 -0.4368 -1.8832
  742MOL0     H  108   8.488   7.987   6.867 -0.5934 -3.1710 -0.9731
  742MOL0     H  109   8.492   8.009   7.099 -1.9509 -0.8797  3.3077
  742MOL0     H  110   8.348   8.100   7.102 -0.6423  0.1743  0.6699
  742MOL0     H  111   8.222   7.901   7.089 -0.6456 -2.4216  0.2952
  742MOL0     H  112   8.361   7.801   7.080  1.7262 -0.6982  1.2915
  742MOL0     H  113   8.425   7.909   7.321  1.0424 -2.0877 -0.4291
  742MOL0     H  114   8.274   7.990   7.319  1.5315  0.8749 -1.2961
  742MOL0     H  115   8.237   7.771   7.459 -2.3176  2.6384 -1.0144
  742MOL0     H  116   8.162   7.737   7.306  0.2804 -1.2380 -0.4233
  742MOL0     H  117   8.291   7.545   7.329 -2.7294  0.4523 -0.7633
  742MOL0     H  118   8.375   7.643   7.214  1.8960  3.0597 -0.1030
  742MOL0     H  119   8.538   7.703   7.366 -0.0592  0.8765  0.9650
  742MOL0     H  120   8.521   7.532   7.413 -0.6851  0.0694 -2.2294
  742MOL0     H  121   8.438   7.890   7.530  0.1401  1.1911  2.2129
  742MOL0     H  122   8.542   7.878   7.887  0.0421  1.2844  2.1321
  742MOL0     H  123   8.457   7.994   7.813  1.0085 -0.0557  1.9760
  742MOL0     H  124   8.332   7.965   8.000  2.1937 -0.5775 -0.3006
  742MOL0     H  125   8.393   7.805   8.039  1.3245  1.4159 -0.2953
  742MOL0     H  126   8.236   7.706   7.881  1.4759  2.3846 -2.3143
  742MOL0     H  127   8.152   7.867   7.874 -0.2805 -0.9745 -1.2196
  742MOL0     H  128   8.121   7.844   8.112  1.6201 -0.2624  2.4910
  742MOL0     H  129   8.240   7.698   8.098 -0.1546 -1.0482 -1.0307
  742MOL0     H  130   8.011   7.762   8.306 -0.1530  0.6396 -1.7834
  742MOL0     H  131   7.806   7.687   8.541 -1.3126 -1.4927 -2.1612
  742MOL0     H  132   7.893   7.536   8.568 -0.7269 -1.0377  0.0335
  742MOL0     H  133   7.994   7.678   8.525  0.0812 -2.0062  1.4481
  742MOL0     H  134   7.365   7.349   8.205 -2.0853  2.1048 -0.1438
  742MOL0     H  135   7.156   7.282   8.293  0.6057 -1.1395 -0.1216
  742MOL0     H  136   7.159   7.064   8.672 -0.3509  0.3923 -1.6839
  742MOL0     H  137   7.121   7.222   8.749 -0.3114  0.6514 -0.1036
  742MOL0     H  138   6.935   7.096   8.814  1.3572  1.7657  0.7282
  742MOL0     H  139   6.906   7.213   8.686  0.8773  0.4186  0.7177
  742MOL0     H  140   6.886   7.054   8.505 -1.1411  2.3844  0.2411
  742MOL0     H  141   6.765   7.019   8.624  0.8871  0.6004 -2.4047
  742MOL0     H  142   7.016   6.859   8.605  0.6363 -0.9337 -2.1900
  742MOL0     H  143   6.878   6.844   8.730 -1.3349 -0.5755 -2.3517
  742MOL0     H  144   6.830   6.825   8.436 -2.2349  0.2201  1.2750
  742MOL0     H  145   6.718   6.807   8.562 -0.4203  2.7312 -2.2459
  742MOL0     H  146   6.781   6.589   8.441  1.9484 -3.3475  0.8776
  742MOL0     H  147   6.939   6.624   8.471 -0.0617  2.9200 -1.5137
  742MOL0     H  148   6.704   6.564   8.672  0.0679 -0.1183 -1.9312
  742MOL0     H  149   6.866   6.597   8.735 -0.7508  0.7485  0.0884
  742MOL0     H  150   6.956   6.401   8.575  0.0242  1.4212  0.5014
  742MOL0     H  151   6.792   6.345   8.579  1.7875 -1.4318 -0.1490
  742MOL0     H  152   7.327   7.232   8.679 -0.3851 -1.1928 -0.0584
  742MOL0     H  153   7.541   7.252   8.584 -1.3418 -1.4420  1.0152
  742MOL0     H  154   7.685   7.438   8.138  0.6469 -3.4800  2.3691
  742MOL0     H  155   7.875   7.522   7.985  0.2607  1.6835 -1.0858
  742MOL0     H  156   8.210   8.268   7.068 -2.7284 -2.3666 -0.9315
  742MOL0     H  157   8.032   8.410   7.107  0.9241 -2.3204  0.8008
  742MOL0     H  158   7.768   8.709   7.166  0.1744 -0.0397 -0.6394
  742MOL0     H  159   7.564   8.767   7.253 -0.7995 -1.6684 -0.0655
  742MOL0     H  160   7.328   8.865   7.313  2.1390  2.7190  2.4864
  742MOL0     H  161   7.430   8.998   7.260 -1.8248  1.9323  0.2379
  742MOL0     H  162   7.129   8.964   7.211 -0.8831 -0.2215  1.9895
  742MOL0     H  163   7.228   9.074   7.131  1.3428 -1.6195 -0.1948
  742MOL0     H  164   7.181   9.041   7.430 -3.0566  0.3037 -1.0619
  742MOL0     H  165   7.092   9.143   7.336 -0.2174 -0.1948 -4.6129
  742MOL0     H  166   7.264   9.319   7.348  2.9491 -0.4361 -1.4621
  742MOL0     H  167   7.388   9.186   7.346 -0.6205 -2.4056  0.1037
  742MOL0     H  168   7.367   9.217   7.747  5.2529 -1.4066 -0.5854
  742MOL0     H  169   7.417   8.860   6.865 -0.0126 -5.9804 -2.3324
  742MOL0     H  170   7.626   8.805   6.760 -1.7903  0.7403 -0.5128
  743MOL0     O  171   0.167   6.855   0.895  0.0556  0.1563 -0.0888
  743MOL0     C  172   0.097   6.932   0.966  0.2879 -0.4386 -0.6892
  743MOL0     O  173   0.139   7.058   1.003  0.2332 -0.0662  0.1359
  743MOL0     C  174   0.259   7.103   0.954 -0.1989 -0.0180 -0.0388
  743MOL0     C  175   0.388   7.051   0.978 -0.7809  0.8710 -0.5540
  743MOL0     C  176   0.498   7.095   0.902  0.0805  0.2416 -0.0300
  743MOL0     C  177   0.475   7.181   0.792  0.7465  0.1477 -1.0310
  743MOL0     O  178   0.574   7.246   0.726 -0.1082 -0.0369 -0.0050
  743MOL0     C  179   0.587   7.208   0.584  0.1160  0.0580 -0.3714
  743MOL0     C  180   0.640   7.068   0.564  0.1114  0.0464  0.5483
  743MOL0     C  181   0.644   7.039   0.413  0.2625  0.4463  0.3033
  743MOL0     C  182   0.721   6.917   0.390  0.4645  0.7105  0.8236
  743MOL0     C  183   0.867   6.945   0.347  0.1578  0.1227  0.1492
  743MOL0     C  184   0.935   6.817   0.308 -0.4127 -0.3133 -0.2462
  743MOL0     C  185   1.065   6.851   0.220  0.3594  1.3038 -1.0733
  743MOL0     C  186   1.157   6.733   0.232 -0.1505  0.8853 -0.6075
  743MOL0     N  187   1.292   6.767   0.180  0.1200  0.1474 -0.0356
  743MOL0     C  188   1.376   6.700   0.091 -0.2730 -0.6867  0.2081
  743MOL0     C  189   1.475   6.789   0.065  0.9351  0.4135  0.1093
  743MOL0     C  190   1.579   6.768  -0.032 -0.7566  0.6360  0.7944
  743MOL0     C  191   1.718   6.763   0.038  0.6508 -0.3802  1.1126
  743MOL0     C  192   1.725   6.646   0.129 -0.0353 -0.2218 -0.1176
  743MOL0     C  193   1.769   6.512   0.061 -0.9514 -0.0433 -0.8412
  743MOL0     O  194   1.641   6.454   0.026  0.0431  0.3028 -0.2799
  743MOL0     C  195   1.642   6.331  -0.030  0.5998 -0.0732 -0.3929
  743MOL0     C  196   1.522   6.284  -0.060  1.0043 -0.0217  0.7715
  743MOL0     C  197   1.508   6.163  -0.131 -0.6629  0.5276 -0.9537
  743MOL0     C  198   1.373   6.135  -0.150  0.4996 -0.2205  0.3526
  743MOL0     C  199   1.626   6.084  -0.153  0.0757 -0.7535  0.6689
  743MOL0     C  200   1.621   5.957  -0.232  1.2596  0.5409  0.5078
  743MOL0     O  201   1.737   5.923  -0.290 -0.5924  0.1557  0.0240
  743MOL0     C  202   1.733   5.814  -0.379 -0.7146 -0.2298  0.3572
  743MOL0     C  203   1.859   5.745  -0.393  0.1292  0.1300 -0.1043
  743MOL0     C  204   1.875   5.647  -0.489 -0.0412  0.0486  0.7678
  743MOL0     C  205   1.773   5.619  -0.577  0.0184 -0.4318 -0.3722
  743MOL0     O  206   1.815   5.529  -0.671  0.2304  0.2652 -0.6080
  743MOL0     C  207   1.806   5.565  -0.808 -0.9489  0.1389  0.2949
  743MOL0     C  208   1.871   5.445  -0.895 -0.1830 -0.4286  0.5216
  743MOL0     C  209   1.930   5.497  -1.025  0.0095 -0.8574 -0.2613
  743MOL0     C  210   1.984   5.387  -1.116  0.0950  0.2450  0.3589
  743MOL0     C  211   2.071   5.445  -1.221  1.1743  0.3379 -0.0515
  743MOL0     C  212   2.123   5.341  -1.320 -0.4642 -0.4097 -0.6158
  743MOL0     C  213   2.197   5.410  -1.444  0.5130  0.1589  0.3803
  743MOL0     C  214   2.256   5.304  -1.533  0.9446  0.0457  0.0616
  743MOL0    Cl  215   2.412   5.263  -1.466 -0.0847 -0.1445 -0.2387
  743MOL0     C  216   1.648   5.694  -0.573 -0.9775  0.1798 -0.4381
  743MOL0     C  217   1.630   5.782  -0.468 -0.9515  0.4575  0.3440
  743MOL0     O  218   1.519   5.892  -0.230 -0.0617 -0.2172  0.4676
  743MOL0     C  219   1.747   6.125  -0.105  0.1294 -0.9782 -0.2422
  743MOL0     C  220   1.760   6.255  -0.048 -0.0822  0.7132 -0.0387
  743MOL0     N  221   1.465   6.892   0.150 -0.4603  0.3213 -1.4213
  743MOL0     N  222   1.364   6.879   0.223 -0.3640  0.2798 -0.0453
  743MOL0     C  223   0.342   7.230   0.767  0.5500  0.6559 -0.8556
  743MOL0     C  224   0.243   7.206   0.854 -0.5364  0.1269  0.6805
  743MOL0     C  225  -0.035   6.897   0.999 -0.4907 -0.5877  0.9674
  743MOL0     C  226  -0.093   6.775   0.954 -0.4185 -0.4713  0.2492
  743MOL0     C  227  -0.227   6.742   0.991  0.1307 -0.1000  0.6691
  743MOL0     C  228  -0.311   6.829   1.056  1.2261  0.3450  0.3698
  743MOL0     O  229  -0.441   6.805   1.099 -0.1935  0.5603 -0.4878
  743MOL0     C  230  -0.511   6.685   1.059  0.5341  0.9764  0.0541
  743MOL0     C  231  -0.560   6.677   0.915  0.6693 -0.5265 -0.1884
  743MOL0     C  232  -0.637   6.799   0.874  0.0906  0.7383 -0.3968
  743MOL0     C  233  -0.689   6.793   0.730 -0.2573 -0.1387 -0.0018
  743MOL0     C  234  -0.744   6.927   0.698  0.2495  0.4839 -0.1703
  743MOL0     C  235  -0.820   7.019   0.662 -0.1293 -0.0703  0.1355
  743MOL0     C  236  -0.253   6.948   1.096 -0.1002  0.0173  0.7367
  743MOL0     C  237  -0.120   6.982   1.069 -0.6175  0.4137  0.1940
  743MOL0     H  238   0.405   6.980   1.059 -2.5455 -1.7833 -2.3519
  743MOL0     H  239   0.597   7.062   0.930 -0.5055 -0.8892  0.7798
  743MOL0     H  240   0.493   7.233   0.535 -0.5418  2.0883  1.7364
  743MOL0     H  241   0.660   7.283   0.551  2.0065 -0.2005  2.7563
  743MOL0     H  242   0.736   7.084   0.614 -1.8594  1.1536  4.4211
  743MOL0     H  243   0.577   6.991   0.610 -2.3152  0.6485 -1.5619
  743MOL0     H  244   0.541   7.022   0.381  0.4530 -1.9550  0.7250
  743MOL0     H  245   0.678   7.127   0.358  1.4459 -0.8719 -1.1558
  743MOL0     H  246   0.724   6.848   0.474 -0.0725 -0.1013  0.1943
  743MOL0     H  247   0.679   6.866   0.303 -0.2602  2.4760  0.0792
  743MOL0     H  248   0.862   7.021   0.268 -1.2055 -0.4614 -0.3589
  743MOL0     H  249   0.913   6.995   0.432 -0.6455  0.8256  0.1783
  743MOL0     H  250   0.951   6.752   0.394  1.6431 -1.2888 -1.2780
  743MOL0     H  251   0.891   6.747   0.236  0.3093 -2.1564  1.0372
  743MOL0     H  252   1.042   6.880   0.117  0.1324 -1.2919 -1.8264
  743MOL0     H  253   1.120   6.932   0.269 -0.5325  0.3779  1.6667
  743MOL0     H  254   1.112   6.643   0.189 -3.5364  2.0672  0.0972
  743MOL0     H  255   1.172   6.720   0.340 -1.1048  1.0326 -0.4497
  743MOL0     H  256   1.346   6.608   0.043  0.2954 -1.3822  1.1402
  743MOL0     H  257   1.560   6.678  -0.092 -0.8478  1.4860 -0.4853
  743MOL0     H  258   1.573   6.842  -0.112 -2.3896 -0.5389 -0.2439
  743MOL0     H  259   1.748   6.857   0.086  3.9295 -1.2903  1.1440
  743MOL0     H  260   1.794   6.754  -0.041 -1.0093  3.2261 -1.1404
  743MOL0     H  261   1.644   6.639   0.203  1.9064 -0.3847  2.1234
  743MOL0     H  262   1.818   6.658   0.186  2.6472 -0.2816 -4.1091
  743MOL0     H  263   1.823   6.458   0.138  2.9163  2.8793 -1.1479
  743MOL0     H  264   1.839   6.526  -0.022 -0.0407 -1.5611 -0.3685
  743MOL0     H  265   1.443   6.354  -0.033  1.5251  1.4394 -1.2605
  743MOL0     H  266   1.313   6.202  -0.087  1.7830  0.5372  0.8061
  743MOL0     H  267   1.342   6.129  -0.254  2.3753 -0.8533 -0.2101
  743MOL0     H  268   1.358   6.032  -0.116 -2.7745 -0.5610 -1.7299
  743MOL0     H  269   1.933   5.770  -0.317 -2.3094  1.8750  1.8900
  743MOL0     H  270   1.968   5.591  -0.499 -0.2485  0.0115 -1.3246
  743MOL0     H  271   1.703   5.579  -0.844  0.3255  1.2784 -3.4172
  743MOL0     H  272   1.856   5.661  -0.824 -0.5808 -0.1036 -0.0196
  743MOL0     H  273   1.951   5.401  -0.834  2.8508  3.5226 -0.1463
  743MOL0     H  274   1.805   5.362  -0.922 -2.1563  1.0784  0.4849
  743MOL0     H  275   2.005   5.570  -0.995 -1.1941  0.3510 -0.1117
  743MOL0     H  276   1.862   5.553  -1.089  1.1537  0.5718 -0.2587
  743MOL0     H  277   2.041   5.317  -1.054 -0.7647  0.8149  1.8358
  743MOL0     H  278   1.899   5.338  -1.163  0.0334 -0.1478  0.8742
  743MOL0     H  279   2.151   5.507  -1.181 -1.1416  3.5764 -0.0109
  743MOL0     H  280   2.011   5.516  -1.279 -1.1818 -2.2555 -1.0550
  743MOL0     H  281   2.194   5.277  -1.267 -0.1542  1.8591  1.9250
  743MOL0     H  282   2.044   5.281  -1.366  2.3053 -0.6330 -5.7348
  743MOL0     H  283   2.273   5.482  -1.413 -1.7748  2.5023  0.9224
  743MOL0     H  284   2.127   5.482  -1.489  0.4727  0.8620  1.5243
  743MOL0     H  285   2.263   5.340  -1.636 -3.6608 -2.0650 -1.2723
  743MOL0     H  286   2.175   5.230  -1.544  0.9119 -0.0987  1.1795
  743MOL0     H  287   1.566   5.665  -0.638  0.6509 -1.4153 -1.8582
  743MOL0     H  288   1.537   5.836  -0.462 -1.1633 -0.0437  2.1589
  743MOL0     H  289   1.830   6.056  -0.114  0.2535 -0.7541 -0.9123
  743MOL0     H  290   1.854   6.292  -0.009  0.6165 -0.5965 -0.3905
  743MOL0     H  291   0.328   7.308   0.692 -1.3270 -0.5809 -1.8513
  743MOL0     H  292   0.156   7.270   0.863  0.6109  2.0356 -0.9241
  743MOL0     H  293  -0.045   6.704   0.888  1.4544  0.5518  0.4258
  743MOL0     H  294  -0.261   6.648   0.948 -0.0030  0.2160  0.0886
  743MOL0     H  295  -0.460   6.590   1.080 -1.0125 -0.0693 -0.7721
  743MOL0     H  296  -0.603   6.683   1.119  0.4251  0.7483 -0.1189
  743MOL0     H  297  -0.618   6.586   0.900  1.9930 -1.4938  0.3821
  743MOL0     H  298  -0.468   6.678   0.855 -0.4071  1.0988 -1.9365
  743MOL0     H  299  -0.574   6.887   0.887  2.2903 -0.4179 -2.4626
  743MOL0     H  300  -0.725   6.822   0.935 -1.7979 -0.0677 -2.6578
  743MOL0     H  301  -0.766   6.715   0.731  0.6907 -1.2417 -3.0739
  743MOL0     H  302  -0.612   6.772   0.655  1.1952  3.9369  0.0894
  743MOL0     H  303  -0.863   7.109   0.624  1.0288 -0.7235 -3.0183
  743MOL0     H  304  -0.315   7.018   1.152 -1.1834 -1.1150  0.9867
  743MOL0     H  305  -0.081   7.075   1.109  0.8208 -0.4669  0.9751
  744MOL0     O  306   4.290   9.818   9.045  0.6230  0.0312  0.2722
  744MOL0     C  307   4.211   9.731   9.075 -0.3737  0.3929 -0.1188
  744MOL0     O  308   4.212   9.595   9.028 -0.2023  0.1763  0.0020
  744MOL0     C  309   4.311   9.560   8.940 -0.5300 -0.1540 -0.0399
  744MOL0     C  310   4.442   9.556   8.991  0.3959 -0.3618  0.9204
  744MOL0     C  311   4.533   9.522   8.901 -0.1961  0.0387 -0.1080
  744MOL0     C  312   4.521   9.465   8.771  0.0727  0.1928 -0.7516
  744MOL0     O  313   4.625   9.440   8.689 -0.2928 -0.4708 -0.5522
  744MOL0     C  314   4.622   9.321   8.614 -0.1100 -0.0012 -0.2059
  744MOL0     C  315   4.740   9.325   8.518  0.2001 -0.5683  0.3821
  744MOL0     C  316   4.877   9.354   8.592 -0.1135 -0.2511  0.2746
  744MOL0     C  317   4.991   9.352   8.488 -0.7065 -0.5146 -0.5415
  744MOL0     C  318   5.129   9.364   8.554  0.5868 -0.3137 -0.5912
  744MOL0     C  319   5.229   9.399   8.441 -0.7136  0.3693 -0.5739
  744MOL0     C  320   5.371   9.357   8.465 -0.1330 -0.3675  0.1251
  744MOL0     C  321   5.438   9.336   8.328 -1.1304 -0.0570 -0.2691
  744MOL0     N  322   5.583   9.317   8.347  0.3179  0.1165  0.3204
  744MOL0     C  323   5.657   9.221   8.420 -0.0551 -0.8470 -0.2693
  744MOL0     C  324   5.790   9.266   8.407  0.5706 -0.1791  0.7473
  744MOL0     C  325   5.913   9.233   8.479  0.1702 -0.1682 -0.4903
  744MOL0     C  326   5.906   9.282   8.622  0.2229 -0.3429  0.1879
  744MOL0     C  327   5.924   9.434   8.639 -0.3534  0.1563 -0.5621
  744MOL0     C  328   5.906   9.457   8.783 -0.1923 -0.1993  0.5575
  744MOL0     O  329   5.919   9.593   8.826  0.0194 -0.5866  0.0248
  744MOL0     C  330   5.935   9.625   8.959 -0.1757  0.5748  0.7786
  744MOL0     C  331   5.887   9.550   9.067  0.0992  0.2483  0.8743
  744MOL0     C  332   5.899   9.592   9.199  0.1626 -0.6965  0.4074
  744MOL0     C  333   5.845   9.498   9.303  0.5675 -0.5583  0.0017
  744MOL0     C  334   5.943   9.733   9.231 -0.1183  1.4335  1.4551
  744MOL0     C  335   5.933   9.796   9.352  0.1338 -0.5717  0.1101
  744MOL0     O  336   5.977   9.921   9.357 -0.0429 -0.4056  0.1399
  744MOL0     C  337   5.988   9.972   9.486 -0.8525  0.0041  0.8781
  744MOL0     C  338   5.912  10.084   9.533 -0.2277  0.0176  0.0122
  744MOL0     C  339   5.930  10.137   9.662  0.2355 -0.3931 -1.3351
  744MOL0     C  340   6.030  10.084   9.744  0.7168 -0.0383 -0.1034
  744MOL0     O  341   6.053  10.143   9.868 -0.7310  0.2472  0.6056
  744MOL0     C  342   6.192  10.178   9.887 -1.0362 -0.8429  0.1906
  744MOL0     C  343   6.222  10.198  10.037  0.3914  0.1791  0.8684
  744MOL0     C  344   6.127  10.303  10.096  0.3718 -0.8674  0.4193
  744MOL0     C  345   6.165  10.315  10.244  0.8271  0.3374 -0.0226
  744MOL0     C  346   6.088  10.441  10.310  0.0038 -0.5685  0.1412
  744MOL0     C  347   6.162  10.498  10.429 -0.3330 -0.0087  0.3450
  744MOL0     C  348   6.105  10.620  10.486 -0.9863  0.0954  0.4495
  744MOL0     C  349   6.106  10.746  10.392 -0.0347  0.2844  0.1242
  744MOL0    Cl  350   6.116  10.900  10.483  0.0723  0.1556 -0.0764
  744MOL0     C  351   6.105   9.976   9.698 -0.2998  1.4560  0.0887
  744MOL0     C  352   6.085   9.915   9.573  1.3409 -0.9778  0.0298
  744MOL0     O  353   5.884   9.732   9.445  0.1798 -0.4036 -0.7328
  744MOL0     C  354   5.985   9.804   9.119  0.3982  0.4274  0.9062
  744MOL0     C  355   5.987   9.749   8.986  0.2200  0.7409  0.1163
  744MOL0     N  356   5.796   9.375   8.317  0.5562  0.0588  0.9008
  744MOL0     N  357   5.667   9.399   8.291 -0.8409 -0.2494  0.2556
  744MOL0     C  358   4.387   9.448   8.738 -0.6697 -0.6260  0.6638
  744MOL0     C  359   4.283   9.494   8.818  0.1787 -0.0212  0.3771
  744MOL0     C  360   4.127   9.759   9.191  1.2757 -1.3505 -0.0603
  744MOL0     C  361   4.150   9.854   9.291 -0.8687  0.1003 -0.0762
  744MOL0     C  362   4.063   9.882   9.396 -0.5209  0.2137 -0.0004
  744MOL0     C  363   3.948   9.809   9.425  0.2331 -0.3109 -0.4261
  744MOL0     O  364   3.870   9.843   9.537 -0.7227  0.0134  0.3526
  744MOL0     C  365   3.776   9.749   9.594 -0.3904  0.7440  0.8566
  744MOL0     C  366   3.728   9.818   9.728  0.5620  0.1582  0.7044
  744MOL0     C  367   3.627   9.928   9.705 -0.5172  0.2679  0.3603
  744MOL0     C  368   3.584   9.981   9.845  0.1719 -0.2444  0.2698
  744MOL0     C  369   3.690  10.064   9.894 -0.8134  0.4262  0.0898
  744MOL0     C  370   3.774  10.131   9.937  0.3007 -0.5005 -0.2630
  744MOL0     C  371   3.920   9.712   9.326  0.8099  0.6459  0.3461
  744MOL0     C  372   3.999   9.699   9.213  0.2772 -0.5623  0.5223
  744MOL0     H  373   4.463   9.584   9.094 -1.7896  2.7786  0.6756
  744MOL0     H  374   4.633   9.532   8.940  0.5750  0.7346 -2.1068
  744MOL0     H  375   4.618   9.239   8.687 -2.3211 -0.2102 -0.4677
  744MOL0     H  376   4.529   9.308   8.556 -1.7992  3.2645  1.4814
  744MOL0     H  377   4.744   9.227   8.469  1.4212 -0.3281 -0.0167
  744MOL0     H  378   4.731   9.400   8.439  0.1879 -3.0475 -2.1478
  744MOL0     H  379   4.869   9.446   8.652 -1.8952 -0.8911  1.0835
  744MOL0     H  380   4.891   9.276   8.667 -1.1093 -0.5182  0.1850
  744MOL0     H  381   4.982   9.265   8.423 -2.2262  1.2120 -2.7909
  744MOL0     H  382   4.982   9.440   8.424 -2.2876 -0.3781 -0.1659
  744MOL0     H  383   5.123   9.457   8.612  0.2525  1.5989 -3.4779
  744MOL0     H  384   5.154   9.276   8.613 -1.7040  2.1964  4.7903
  744MOL0     H  385   5.197   9.335   8.359  1.8721 -4.1895  1.5892
  744MOL0     H  386   5.228   9.502   8.403 -1.1396  0.0573 -1.4169
  744MOL0     H  387   5.436   9.423   8.524  0.3726 -0.6865 -0.0681
  744MOL0     H  388   5.357   9.261   8.515 -2.1565 -0.5178 -0.6405
  744MOL0     H  389   5.434   9.429   8.270  0.5816  0.0726 -0.2185
  744MOL0     H  390   5.398   9.251   8.273  1.9567 -0.3982 -2.2288
  744MOL0     H  391   5.614   9.146   8.485  0.3142  0.6322  1.7493
  744MOL0     H  392   5.918   9.124   8.480  3.1528 -0.1354  1.2369
  744MOL0     H  393   5.999   9.274   8.424  0.1680 -1.4145 -1.4522
  744MOL0     H  394   5.983   9.222   8.671  0.0663 -2.9035 -2.4385
  744MOL0     H  395   5.809   9.255   8.665  0.0839  0.3589  0.3321
  744MOL0     H  396   5.837   9.477   8.588 -0.0666  0.5239 -0.7422
  744MOL0     H  397   6.022   9.470   8.609 -0.0086 -0.2966  0.0033
  744MOL0     H  398   5.975   9.397   8.844  0.1664  0.8017  1.1529
  744MOL0     H  399   5.804   9.421   8.804 -1.5217  1.7474 -2.0230
  744MOL0     H  400   5.839   9.457   9.043 -0.1801  0.4041  0.8303
  744MOL0     H  401   5.930   9.488   9.371 -1.7926 -0.2260  3.2182
  744MOL0     H  402   5.768   9.539   9.368  2.6124  1.4747  1.3121
  744MOL0     H  403   5.799   9.411   9.256 -0.5244 -0.8123  1.4978
  744MOL0     H  404   5.846  10.128   9.459  0.4287 -0.7108 -1.0381
  744MOL0     H  405   5.866  10.213   9.706 -0.2517 -3.0596  3.2349
  744MOL0     H  406   6.262  10.115   9.831 -2.0603 -0.8764 -1.0750
  744MOL0     H  407   6.209  10.276   9.842  0.6254 -1.2701 -0.1814
  744MOL0     H  408   6.203  10.097  10.074  1.4701  0.2837  1.7603
  744MOL0     H  409   6.323  10.238  10.043 -0.1510  1.8826 -0.4749
  744MOL0     H  410   6.022  10.271  10.092 -0.4227  1.2750  2.0313
  744MOL0     H  411   6.134  10.397  10.040  1.0810 -2.8990 -3.1875
  744MOL0     H  412   6.144  10.221  10.294 -0.3433  1.2789  1.3236
  744MOL0     H  413   6.273  10.331  10.231  0.5188  2.4053 -0.3709
  744MOL0     H  414   5.990  10.399  10.336 -0.4299  0.0937 -0.4085
  744MOL0     H  415   6.063  10.517  10.237  1.0716  1.1146  1.4500
  744MOL0     H  416   6.179  10.413  10.497  2.7774  0.4301  0.2554
  744MOL0     H  417   6.254  10.525  10.376 -1.2059 -1.4846 -2.1039
  744MOL0     H  418   6.153  10.633  10.583  0.3533  0.6995 -0.2737
  744MOL0     H  419   5.999  10.596  10.503 -1.2376  1.4984  1.0945
  744MOL0     H  420   6.014  10.735  10.334 -1.0241 -3.5661  2.0608
  744MOL0     H  421   6.192  10.753  10.325  0.5091  2.7337  0.9843
  744MOL0     H  422   6.173   9.939   9.774  0.5511  1.3966 -0.6760
  744MOL0     H  423   6.140   9.825   9.552 -1.0005 -2.2031 -1.2868
  744MOL0     H  424   6.018   9.907   9.132 -2.9417  1.4518  2.4799
  744MOL0     H  425   6.022   9.820   8.912 -2.7426  3.0695  0.7988
  744MOL0     H  426   4.372   9.423   8.633  0.2901  3.9568 -0.7759
  744MOL0     H  427   4.182   9.462   8.795  0.9252 -2.4166  0.1830
  744MOL0     H  428   4.235   9.921   9.289 -1.5791  1.0063 -0.5946
  744MOL0     H  429   4.091   9.959   9.467  0.9945 -0.6598  0.3913
  744MOL0     H  430   3.690   9.735   9.528  0.2949  2.1448 -0.3958
  744MOL0     H  431   3.814   9.651   9.624 -2.4174  0.1488  1.6778
  744MOL0     H  432   3.810   9.856   9.791  2.0096 -0.2047 -0.8951
  744MOL0     H  433   3.680   9.735   9.780 -1.7811  1.3086  0.4684
  744MOL0     H  434   3.535   9.900   9.653  0.3353 -0.0728 -1.0159
  744MOL0     H  435   3.677  10.012   9.656 -0.4529 -0.4813 -0.8727
  744MOL0     H  436   3.567   9.886   9.895 -3.3173  0.0682 -0.0801
  744MOL0     H  437   3.492  10.040   9.843 -0.7722 -1.6646  0.2039
  744MOL0     H  438   3.855  10.173   9.994 -0.9564 -2.6927  3.4742
  744MOL0     H  439   3.829   9.653   9.325  2.8964 -2.9157  1.7398
  744MOL0     H  440   3.977   9.610   9.155  0.4517 -0.0317 -0.3672
  745MOL0     O  441   7.155   7.571   9.707  0.3791 -0.0961  0.1802
  745MOL0     C  442   7.071   7.503   9.647 -0.6842  0.0507 -1.3088
  745MOL0     O  443   7.000   7.526   9.532 -0.5060 -0.2338 -0.9679
  745MOL0     C  444   7.018   7.642   9.461  0.2246 -0.1985 -1.1254
  745MOL0     C  445   7.138   7.701   9.431  0.6749  0.9720 -0.1050
  745MOL0     C  446   7.138   7.815   9.355  0.2325  1.2283  0.5021
  745MOL0     C  447   7.019   7.873   9.314  1.4664  0.1148 -0.0548
  745MOL0     O  448   7.020   7.983   9.235 -0.4209 -0.1878 -0.0226
  745MOL0     C  449   7.018   7.955   9.092 -0.3433  0.0411 -0.3414
  745MOL0     C  450   7.047   8.082   9.008  0.7863  0.2469  0.1049
  745MOL0     C  451   7.195   8.105   8.993 -0.3839 -1.2525  0.5680
  745MOL0     C  452   7.263   7.986   8.909  0.0245  0.5276  0.1050
  745MOL0     C  453   7.407   8.026   8.876  0.6438  0.1813  0.1684
  745MOL0     C  454   7.411   8.112   8.748 -0.1362 -0.0431  0.0834
  745MOL0     C  455   7.544   8.182   8.722 -0.5739 -0.2181  0.5443
  745MOL0     C  456   7.556   8.323   8.781 -0.6776 -0.2529  0.5434
  745MOL0     N  457   7.577   8.329   8.927 -0.2169  0.4699  0.0695
  745MOL0     C  458   7.476   8.368   9.015 -0.9483  0.0347 -0.2579
  745MOL0     C  459   7.532   8.317   9.131  0.1206  0.7142  0.0223
  745MOL0     C  460   7.481   8.326   9.274 -0.3131 -0.7518  1.0147
  745MOL0     C  461   7.334   8.273   9.281 -0.8090 -0.6431  0.0626
  745MOL0     C  462   7.257   8.309   9.415 -0.4143 -0.4536 -0.1305
  745MOL0     C  463   7.339   8.265   9.540 -0.5076  0.3317  1.0131
  745MOL0     O  464   7.429   8.364   9.589 -0.0927 -0.3454  0.4494
  745MOL0     C  465   7.520   8.336   9.691  0.1724  0.8130  0.7448
  745MOL0     C  466   7.651   8.379   9.668 -0.4866  0.0268 -0.2095
  745MOL0     C  467   7.756   8.365   9.765  0.0210  0.0984 -0.0500
  745MOL0     C  468   7.901   8.412   9.728  0.3451 -0.4074 -0.8692
  745MOL0     C  469   7.720   8.296   9.886  0.7579  0.8123 -0.2165
  745MOL0     C  470   7.814   8.294   9.999  0.9176 -0.0409 -0.2365
  745MOL0     O  471   7.765   8.223  10.110 -0.0483 -0.0162  0.0829
  745MOL0     C  472   7.830   8.217  10.233 -0.0265 -0.0870 -0.8653
  745MOL0     C  473   7.846   8.091  10.292 -0.2421 -0.1983  0.4151
  745MOL0     C  474   7.906   8.075  10.411 -0.3822 -0.4889 -0.3731
  745MOL0     C  475   7.949   8.178  10.485  0.2758  0.0183  0.3089
  745MOL0     O  476   7.988   8.153  10.620 -0.0747 -0.4889  0.6564
  745MOL0     C  477   8.031   8.255  10.715  0.1028  0.4498 -0.0517
  745MOL0     C  478   8.027   8.192  10.857  0.2879  0.1337 -0.6892
  745MOL0     C  479   8.128   8.075  10.873 -0.5400 -0.3562  0.3349
  745MOL0     C  480   8.140   8.019  11.013 -0.5808 -0.5778 -0.0111
  745MOL0     C  481   8.175   8.114  11.126  0.1044 -0.8767 -0.7388
  745MOL0     C  482   8.049   8.172  11.187 -0.2468  0.1651  0.0473
  745MOL0     C  483   8.068   8.310  11.254 -0.0974 -1.0307  0.0896
  745MOL0     C  484   8.091   8.295  11.406  0.2421 -0.1491 -0.4931
  745MOL0    Cl  485   8.072   8.472  11.459  0.0200 -0.0637 -0.0451
  745MOL0     C  486   7.941   8.300  10.428 -0.0059 -0.4146  0.1740
  745MOL0     C  487   7.874   8.328  10.308 -0.1776 -0.1963  0.3873
  745MOL0     O  488   7.913   8.367  10.008  0.2257  0.7667 -0.4195
  745MOL0     C  489   7.598   8.226   9.894  1.3523  0.7982 -0.1028
  745MOL0     C  490   7.496   8.254   9.797 -0.0073 -0.4277  0.5240
  745MOL0     N  491   7.656   8.250   9.109 -0.4433  0.0831  0.2633
  745MOL0     N  492   7.680   8.260   8.978  0.1724 -0.8141 -0.3796
  745MOL0     C  493   6.892   7.816   9.347  0.5328  1.2309  1.7207
  745MOL0     C  494   6.895   7.697   9.421 -0.5622  0.5384 -0.2886
  745MOL0     C  495   7.039   7.378   9.718  0.9043  0.1394 -0.3290
  745MOL0     C  496   7.124   7.319   9.821  0.1632 -0.8116  0.7988
  745MOL0     C  497   7.093   7.200   9.883 -0.6290  0.5307  0.7170
  745MOL0     C  498   6.970   7.137   9.863  0.7200 -0.0812  0.5395
  745MOL0     O  499   6.932   7.023   9.930  0.0594 -0.2889 -0.6632
  745MOL0     C  500   7.023   6.967  10.022  0.7347  0.4742  0.0304
  745MOL0     C  501   6.947   6.845  10.087 -0.6526 -0.5665 -0.1114
  745MOL0     C  502   7.048   6.774  10.183 -0.5446  0.0145 -0.7300
  745MOL0     C  503   7.076   6.856  10.315 -0.2789 -0.0684 -1.4007
  745MOL0     C  504   7.213   6.816  10.358 -0.1178 -0.5109  0.8919
  745MOL0     C  505   7.328   6.795  10.382 -0.0412 -0.3177 -0.9527
  745MOL0     C  506   6.881   7.193   9.778  0.0818 -1.0357 -0.6212
  745MOL0     C  507   6.917   7.305   9.705 -0.1678  0.3815  0.9515
  745MOL0     H  508   7.233   7.655   9.455  0.0857  0.3952  1.1703
  745MOL0     H  509   7.234   7.853   9.322  1.3403 -0.9582  1.0052
  745MOL0     H  510   7.091   7.873   9.078  0.0481 -0.5542  3.9449
  745MOL0     H  511   6.920   7.914   9.067 -0.2468  0.1970 -1.0043
  745MOL0     H  512   7.003   8.056   8.911 -2.6510  3.2341  0.6619
  745MOL0     H  513   6.994   8.167   9.051  0.9331 -0.3456  1.4917
  745MOL0     H  514   7.207   8.198   8.937  0.3834 -3.2732 -2.9308
  745MOL0     H  515   7.243   8.124   9.089 -0.7981  0.2610  0.4958
  745MOL0     H  516   7.277   7.893   8.966 -2.1332  0.2055  0.2073
  745MOL0     H  517   7.201   7.951   8.826  0.8796 -2.4028  0.5739
  745MOL0     H  518   7.434   8.090   8.961  0.8747 -1.6047  1.4914
  745MOL0     H  519   7.467   7.935   8.878 -0.6734 -0.7254 -0.1356
  745MOL0     H  520   7.378   8.043   8.670  1.5020 -1.8001  0.8474
  745MOL0     H  521   7.335   8.190   8.752 -1.3199 -1.0244 -1.8486
  745MOL0     H  522   7.624   8.115   8.752 -0.5548  1.0182  3.6823
  745MOL0     H  523   7.557   8.205   8.616 -2.7869  1.2786  0.5160
  745MOL0     H  524   7.475   8.391   8.751 -0.3247  1.3643  2.9350
  745MOL0     H  525   7.648   8.372   8.746 -1.9723  1.0909 -1.1828
  745MOL0     H  526   7.386   8.429   9.013 -1.5088 -0.7674 -0.0530
  745MOL0     H  527   7.525   8.252   9.342  0.3897 -0.9732  0.3520
  745MOL0     H  528   7.492   8.426   9.316 -1.5744 -0.8612  1.6479
  745MOL0     H  529   7.322   8.166   9.260 -0.4096 -0.4793 -1.0652
  745MOL0     H  530   7.272   8.310   9.199 -1.1771  0.9509  1.0218
  745MOL0     H  531   7.157   8.265   9.418 -0.6229  0.0499  0.5726
  745MOL0     H  532   7.241   8.417   9.412 -2.8014 -0.7791 -2.3748
  745MOL0     H  533   7.404   8.179   9.522 -0.1991  0.3612  1.9534
  745MOL0     H  534   7.269   8.238   9.619 -1.5013 -0.5223 -0.1135
  745MOL0     H  535   7.686   8.430   9.578 -0.1756  3.1371  1.5414
  745MOL0     H  536   7.889   8.472   9.637 -3.6065 -0.6753 -0.7098
  745MOL0     H  537   7.963   8.470   9.797 -0.6157 -3.3763  2.8345
  745MOL0     H  538   7.963   8.327   9.696  2.7677  0.8440  0.2074
  745MOL0     H  539   7.811   8.003  10.238  1.9032 -0.0918 -1.2957
  745MOL0     H  540   7.907   7.970  10.441  1.8431  0.2933  2.7974
  745MOL0     H  541   8.131   8.291  10.691  0.3283  1.7549  2.5141
  745MOL0     H  542   7.962   8.341  10.717 -1.2928 -0.6310  0.0056
  745MOL0     H  543   8.047   8.277  10.923 -4.6920  1.1081 -0.0756
  745MOL0     H  544   7.927   8.158  10.883  1.6201 -2.6455  1.2314
  745MOL0     H  545   8.226   8.119  10.851  0.2804 -1.9849  0.6025
  745MOL0     H  546   8.108   7.993  10.803  1.0385 -0.3352 -0.1858
  745MOL0     H  547   8.047   7.969  11.039 -0.0368 -2.5612 -1.6536
  745MOL0     H  548   8.216   7.941  11.022 -1.8166 -1.6113  2.2198
  745MOL0     H  549   8.223   8.204  11.085 -1.9317 -0.0643 -1.4511
  745MOL0     H  550   8.224   8.075  11.215 -1.3823  4.0059  2.6234
  745MOL0     H  551   7.980   8.185  11.102  1.0742 -0.0220 -1.0871
  745MOL0     H  552   8.007   8.099  11.256  1.9054 -0.7873  0.4041
  745MOL0     H  553   7.983   8.374  11.229  1.4657  1.3543  0.5749
  745MOL0     H  554   8.156   8.356  11.208  0.0293 -0.5623  0.7957
  745MOL0     H  555   8.187   8.250  11.434  2.2742  1.8950 -3.5619
  745MOL0     H  556   8.018   8.232  11.459  1.1252  0.3004  1.3314
  745MOL0     H  557   7.970   8.382  10.493 -0.7043 -0.2613  0.2930
  745MOL0     H  558   7.870   8.433  10.280 -0.2582  0.1798  1.7558
  745MOL0     H  559   7.577   8.172   9.986 -2.2347 -2.6500 -2.5791
  745MOL0     H  560   7.397   8.212   9.812 -0.9764  1.3384 -0.7006
  745MOL0     H  561   6.799   7.865   9.320 -3.2195 -4.8106  1.8146
  745MOL0     H  562   6.799   7.650   9.442 -0.9009 -0.1600 -3.0765
  745MOL0     H  563   7.214   7.375   9.844 -1.7239  2.7788  0.2012
  745MOL0     H  564   7.161   7.156   9.954  0.5786 -0.2701 -0.8738
  745MOL0     H  565   7.110   6.938   9.963  3.3990 -1.1402  4.2433
  745MOL0     H  566   7.053   7.038  10.100 -2.5303  2.1813 -0.0832
  745MOL0     H  567   6.919   6.769  10.014  1.3342 -0.6609 -0.8449
  745MOL0     H  568   6.851   6.865  10.135 -2.4573 -4.1726 -1.8940
  745MOL0     H  569   7.140   6.755  10.126 -0.0511  2.2715 -0.7772
  745MOL0     H  570   7.004   6.679  10.213 -1.0145 -0.0901 -1.7258
  745MOL0     H  571   7.016   6.826  10.401  2.8947  0.1796  1.1036
  745MOL0     H  572   7.057   6.963  10.307 -0.0722  0.2597  1.5927
  745MOL0     H  573   7.432   6.767  10.385  0.9807  2.6572 -3.2176
  745MOL0     H  574   6.782   7.149   9.770 -0.8271  0.8932 -0.6612
  745MOL0     H  575   6.853   7.351   9.631  1.6786  3.1498  0.9101
  746MOL0     O  576   5.403   7.521   1.007  0.0975  0.8251 -0.4596
  746MOL0     C  577   5.345   7.584   0.920 -0.2727 -0.1779 -0.7176
  746MOL0     O  578   5.359   7.567   0.791 -0.3396 -0.1977 -0.3941
  746MOL0     C  579   5.433   7.460   0.745 -0.1403 -0.4570  0.5239
  746MOL0     C  580   5.573   7.451   0.759  0.3154  0.6205  0.3820
  746MOL0     C  581   5.636   7.341   0.695 -1.1634 -0.3656 -1.0184
  746MOL0     C  582   5.570   7.241   0.621  0.8326 -0.4276 -0.9905
  746MOL0     O  583   5.630   7.123   0.589 -0.3620  0.3730  0.0490
  746MOL0     C  584   5.769   7.131   0.540  0.8771 -0.6709 -0.6560
  746MOL0     C  585   5.813   6.995   0.496 -0.3971 -0.8190  0.4911
  746MOL0     C  586   5.948   6.999   0.424  0.5564  0.8619 -0.0042
  746MOL0     C  587   6.060   6.993   0.523 -1.1983  0.1487  0.5258
  746MOL0     C  588   6.200   7.010   0.453  0.0188  0.5648  0.7337
  746MOL0     C  589   6.316   7.020   0.558 -0.0500  0.2287  0.2531
  746MOL0     C  590   6.459   6.989   0.491 -0.9279 -0.4510 -0.0899
  746MOL0     C  591   6.523   7.091   0.398  0.4464  1.0647  0.0593
  746MOL0     N  592   6.510   7.224   0.456  0.4329 -0.5220 -0.7213
  746MOL0     C  593   6.585   7.278   0.560 -0.0207  0.2293 -0.1228
  746MOL0     C  594   6.552   7.407   0.575 -0.2912 -0.4337 -0.1286
  746MOL0     C  595   6.603   7.507   0.664  0.5990 -0.0547  0.3242
  746MOL0     C  596   6.753   7.491   0.707  0.2322 -0.5585 -0.1782
  746MOL0     C  597   6.785   7.620   0.783  0.2026 -0.3936  0.8799
  746MOL0     C  598   6.930   7.651   0.791  0.8167 -0.2532 -0.2101
  746MOL0     O  599   7.010   7.602   0.676  0.5576 -0.0875 -0.2439
  746MOL0     C  600   7.143   7.578   0.703 -0.0891 -0.4801  0.1067
  746MOL0     C  601   7.195   7.474   0.620  0.2614 -0.3695 -0.7043
  746MOL0     C  602   7.326   7.430   0.630 -0.5179  0.7778  0.1942
  746MOL0     C  603   7.369   7.302   0.563 -0.3427 -0.3901  0.5331
  746MOL0     C  604   7.415   7.502   0.718 -0.1287  0.9191 -0.2367
  746MOL0     C  605   7.557   7.471   0.740 -0.4345 -0.1919 -0.0013
  746MOL0     O  606   7.642   7.576   0.764  0.6386 -0.5723 -0.0654
  746MOL0     C  607   7.748   7.533   0.847  0.5784 -0.4792 -0.3373
  746MOL0     C  608   7.873   7.512   0.790  0.4224 -0.4459  0.8071
  746MOL0     C  609   7.986   7.480   0.867  0.9853 -0.7973  0.3736
  746MOL0     C  610   7.975   7.455   1.001  0.1722  0.5327 -0.1874
  746MOL0     O  611   8.078   7.407   1.079  0.4064  0.4450  0.1825
  746MOL0     C  612   8.211   7.396   1.028 -0.1557  0.7430  0.3354
  746MOL0     C  613   8.238   7.265   0.954 -1.2617  0.0171  0.8305
  746MOL0     C  614   8.357   7.280   0.860  0.6919  0.3321  0.2994
  746MOL0     C  615   8.486   7.287   0.946 -0.5811  0.8189  0.7411
  746MOL0     C  616   8.499   7.254   1.098 -0.5577 -0.1255 -0.1706
  746MOL0     C  617   8.646   7.247   1.135 -1.0211 -0.0770  0.6679
  746MOL0     C  618   8.728   7.128   1.091  0.3920 -0.2581  0.0651
  746MOL0     C  619   8.875   7.154   1.123  0.3405 -0.3521 -0.0330
  746MOL0    Cl  620   8.895   7.178   1.295 -0.0301 -0.4694 -0.2571
  746MOL0     C  621   7.849   7.466   1.061  0.6304  0.3592 -0.5114
  746MOL0     C  622   7.731   7.505   0.989 -0.8240  0.2748  0.9314
  746MOL0     O  623   7.587   7.350   0.760 -0.0636 -0.1006  0.1413
  746MOL0     C  624   7.362   7.621   0.786 -0.9385 -0.4006  0.1915
  746MOL0     C  625   7.231   7.660   0.785  1.3870 -0.4075 -0.3685
  746MOL0     N  626   6.475   7.437   0.466 -0.3799 -1.5273  0.2167
  746MOL0     N  627   6.452   7.334   0.395  0.5486  0.3226  0.1383
  746MOL0     C  628   5.435   7.260   0.619  0.6138  0.2425 -0.1685
  746MOL0     C  629   5.367   7.366   0.668  0.2362 -0.2955  0.2415
  746MOL0     C  630   5.261   7.698   0.968  1.0493  0.4122  0.1759
  746MOL0     C  631   5.233   7.734   1.100 -0.4166 -0.1641  0.1846
  746MOL0     C  632   5.142   7.839   1.136 -0.3083  0.1589  0.5449
  746MOL0     C  633   5.066   7.901   1.039 -0.4241  0.0836  0.2451
  746MOL0     O  634   4.975   7.987   1.091  0.5971 -0.3648 -0.3312
  746MOL0     C  635   4.897   8.070   1.013  1.1039  0.3251 -0.0580
  746MOL0     C  636   4.781   8.150   1.082 -0.0599 -0.4373  0.7006
  746MOL0     C  637   4.646   8.075   1.073  0.6765 -0.0747  0.0108
  746MOL0     C  638   4.571   8.097   0.935  0.1263 -0.1458 -0.5837
  746MOL0     C  639   4.537   8.235   0.895 -0.9378 -1.1005  0.8411
  746MOL0     C  640   4.528   8.350   0.853  0.0649  1.3434  0.2279
  746MOL0     C  641   5.102   7.874   0.909 -0.4778  0.5260 -0.6739
  746MOL0     C  642   5.190   7.770   0.872  1.4840 -0.4080 -0.3351
  746MOL0     H  643   5.617   7.512   0.837 -0.4993 -0.5691  1.8435
  746MOL0     H  644   5.742   7.331   0.715 -1.3233  0.3475  0.2808
  746MOL0     H  645   5.764   7.199   0.455 -1.4021 -0.5247 -0.4626
  746MOL0     H  646   5.843   7.172   0.608 -2.3098 -1.3394  3.6150
  746MOL0     H  647   5.816   6.923   0.578  3.9957 -0.7103  0.6342
  746MOL0     H  648   5.745   6.958   0.418  0.4045  0.7298 -1.0038
  746MOL0     H  649   5.946   6.903   0.371 -0.1704 -1.6584  4.1351
  746MOL0     H  650   5.953   7.078   0.348  1.7467 -2.1431 -3.3713
  746MOL0     H  651   6.044   7.085   0.580 -1.2655  1.8396 -2.0984
  746MOL0     H  652   6.061   6.901   0.582 -0.2194 -1.6274 -2.0754
  746MOL0     H  653   6.214   6.935   0.375  0.5213  0.6560  0.7340
  746MOL0     H  654   6.204   7.108   0.403  0.2836  0.3883  0.4061
  746MOL0     H  655   6.316   7.112   0.618 -2.4452 -0.2014  1.0113
  746MOL0     H  656   6.311   6.944   0.636 -0.1625 -0.8073 -0.7333
  746MOL0     H  657   6.530   6.976   0.573 -0.0944 -0.1601 -0.7512
  746MOL0     H  658   6.444   6.894   0.437 -0.5286 -0.5298 -0.0617
  746MOL0     H  659   6.469   7.087   0.302  1.5532 -2.4818 -0.5932
  746MOL0     H  660   6.624   7.058   0.374  0.1610  1.0690 -1.2330
  746MOL0     H  661   6.637   7.218   0.633 -0.0104  1.0014  0.5158
  746MOL0     H  662   6.588   7.605   0.618  0.2245 -1.2302 -2.2634
  746MOL0     H  663   6.549   7.507   0.759 -1.8318 -0.4091 -0.9746
  746MOL0     H  664   6.821   7.483   0.622 -0.2703 -0.8448 -0.5587
  746MOL0     H  665   6.761   7.395   0.759 -1.6252 -2.0905 -2.5066
  746MOL0     H  666   6.750   7.603   0.885 -0.8141  0.2386  0.6505
  746MOL0     H  667   6.724   7.700   0.740 -1.1778 -1.2401  1.1976
  746MOL0     H  668   6.955   7.616   0.892  0.1312  1.1657  0.4855
  746MOL0     H  669   6.937   7.760   0.796  1.6149 -0.2779 -0.6238
  746MOL0     H  670   7.124   7.437   0.546 -0.5587  1.5731 -0.9834
  746MOL0     H  671   7.285   7.245   0.523  1.6634 -1.8568 -1.9059
  746MOL0     H  672   7.447   7.321   0.489  0.1851  1.4362  1.4892
  746MOL0     H  673   7.415   7.230   0.631  1.2158 -2.9232 -2.9161
  746MOL0     H  674   7.866   7.531   0.683 -0.9436  2.7204  1.3411
  746MOL0     H  675   8.078   7.466   0.811  2.3957  0.5606  2.2187
  746MOL0     H  676   8.230   7.485   0.967 -3.7544  3.8494  3.2521
  746MOL0     H  677   8.284   7.402   1.109  0.1185 -1.9148  0.3705
  746MOL0     H  678   8.255   7.179   1.020 -3.1081  0.3494  1.7982
  746MOL0     H  679   8.151   7.248   0.890  0.8393 -3.1096 -1.5419
  746MOL0     H  680   8.343   7.378   0.812 -1.0156  1.4831  2.9349
  746MOL0     H  681   8.364   7.201   0.784  1.8841  0.5527  0.1604
  746MOL0     H  682   8.554   7.219   0.894 -0.7544  0.4528  0.9879
  746MOL0     H  683   8.513   7.392   0.930 -0.4045  0.5528 -0.8893
  746MOL0     H  684   8.457   7.158   1.131 -3.7137  0.9339 -0.7742
  746MOL0     H  685   8.448   7.327   1.162 -0.4780 -0.0698 -0.1692
  746MOL0     H  686   8.694   7.340   1.102  2.4992 -1.0437  2.6016
  746MOL0     H  687   8.642   7.251   1.244  0.5913  4.2948  0.7865
  746MOL0     H  688   8.713   7.104   0.985  2.4043 -1.9130  0.1000
  746MOL0     H  689   8.678   7.050   1.149  1.0721 -0.1467  0.8086
  746MOL0     H  690   8.915   7.244   1.076 -2.7213  1.9514  1.4575
  746MOL0     H  691   8.930   7.064   1.094  0.7622  0.6246 -2.5399
  746MOL0     H  692   7.841   7.428   1.162 -0.1422  0.7207 -0.4294
  746MOL0     H  693   7.634   7.509   1.038  0.1306 -0.0160  2.9178
  746MOL0     H  694   7.433   7.673   0.850 -2.8398  0.4769  1.7100
  746MOL0     H  695   7.199   7.739   0.853 -0.9066 -0.8825 -0.7866
  746MOL0     H  696   5.370   7.189   0.568  0.7759  1.0925 -1.6446
  746MOL0     H  697   5.260   7.381   0.662  0.1609 -0.5709  0.7933
  746MOL0     H  698   5.287   7.693   1.185  0.9323  1.8282  0.3474
  746MOL0     H  699   5.150   7.862   1.242  2.4405 -1.4559  0.7892
  746MOL0     H  700   4.958   8.144   0.960 -1.0901  1.9165 -0.4832
  746MOL0     H  701   4.854   8.012   0.931  2.5978 -1.3862  0.3037
  746MOL0     H  702   4.766   8.241   1.023  0.0460  0.4212  1.9495
  746MOL0     H  703   4.799   8.174   1.188 -1.7340  0.3910  0.8285
  746MOL0     H  704   4.586   8.114   1.156 -1.4657 -2.4767 -0.2693
  746MOL0     H  705   4.659   7.969   1.096  0.1293 -0.0883  0.2763
  746MOL0     H  706   4.482   8.034   0.945  0.3358 -0.4072 -0.3645
  746MOL0     H  707   4.628   8.051   0.853 -0.3798 -1.8518 -0.0153
  746MOL0     H  708   4.509   8.436   0.792  0.2151 -0.8214 -3.0858
  746MOL0     H  709   5.046   7.935   0.839 -1.1630  0.9812  0.2483
  746MOL0     H  710   5.197   7.758   0.765  1.4012  0.6051 -0.4614
  747MOL0     O  711   1.678   0.910   3.296  0.2344 -0.7662  0.0809
  747MOL0     C  712   1.745   0.948   3.394 -0.4264 -0.5070  0.0306
  747MOL0     O  713   1.778   1.082   3.430 -0.4866 -0.1256  0.3920
  747MOL0     C  714   1.737   1.182   3.342 -0.4380 -0.0779  0.2027
  747MOL0     C  715   1.666   1.289   3.392 -0.3180 -0.3350  0.6064
  747MOL0     C  716   1.619   1.396   3.308  0.0865  1.0487  0.0529
  747MOL0     C  717   1.641   1.389   3.168 -0.1311 -0.7192 -1.0311
  747MOL0     O  718   1.598   1.501   3.100  0.1783  0.5381 -0.0154
  747MOL0     C  719   1.660   1.521   2.965 -0.2381 -0.7331 -0.0899
  747MOL0     C  720   1.566   1.477   2.850  0.4809  0.3576 -0.8979
  747MOL0     C  721   1.437   1.558   2.871  1.2460 -0.9029  0.4017
  747MOL0     C  722   1.345   1.516   2.760 -0.8939 -0.2942  0.2057
  747MOL0     C  723   1.207   1.563   2.788  0.4495  0.0114 -0.1863
  747MOL0     C  724   1.121   1.471   2.879 -0.6416 -0.2005 -0.4330
  747MOL0     C  725   1.088   1.341   2.818  0.4316 -0.6568 -0.2777
  747MOL0     C  726   0.987   1.259   2.913 -0.5828  0.4401  0.1389
  747MOL0     N  727   0.887   1.344   2.984 -0.8206  0.1586 -0.2583
  747MOL0     C  728   0.773   1.388   2.937  0.0342 -0.9716 -0.0660
  747MOL0     C  729   0.717   1.459   3.039 -0.3073 -0.6949  0.3954
  747MOL0     C  730   0.581   1.525   3.033  0.1395 -0.0457  0.7939
  747MOL0     C  731   0.605   1.640   2.932  1.0624 -0.6029  0.2484
  747MOL0     C  732   0.543   1.769   2.979  0.0429 -0.0893  0.0455
  747MOL0     C  733   0.416   1.797   2.892 -1.1723 -0.2683 -1.0584
  747MOL0     O  734   0.323   1.688   2.878 -0.5158 -0.5087 -0.5798
  747MOL0     C  735   0.192   1.727   2.852  0.3523  0.0363 -0.3969
  747MOL0     C  736   0.163   1.797   2.735 -0.3836 -0.1143  1.4701
  747MOL0     C  737   0.035   1.864   2.708  0.4123  0.6580  0.0941
  747MOL0     C  738   0.019   1.966   2.596  0.1795 -0.5187  0.6970
  747MOL0     C  739  -0.074   1.831   2.796 -0.2433  0.8443  0.7262
  747MOL0     C  740  -0.219   1.874   2.776  0.0802  0.4137 -0.0661
  747MOL0     O  741  -0.264   1.908   2.653 -0.3862  0.4812 -0.1834
  747MOL0     C  742  -0.397   1.928   2.630  0.4158 -0.0979 -0.8032
  747MOL0     C  743  -0.511   1.869   2.692 -0.4602 -0.1312 -0.4334
  747MOL0     C  744  -0.644   1.902   2.655 -0.6225 -0.0507  0.8513
  747MOL0     C  745  -0.663   2.005   2.565 -0.5488 -0.0352 -0.0846
  747MOL0     O  746  -0.785   2.039   2.529 -0.7942  0.5537 -0.4625
  747MOL0     C  747  -0.904   2.022   2.602  0.1488  0.3446 -1.0682
  747MOL0     C  748  -1.036   2.085   2.545 -0.7203 -0.6941 -0.8190
  747MOL0     C  749  -1.163   2.007   2.603  0.3150  0.6682  0.2754
  747MOL0     C  750  -1.285   2.087   2.560  0.3298 -0.1657 -0.0942
  747MOL0     C  751  -1.422   2.017   2.583  0.0678 -0.2119  0.0948
  747MOL0     C  752  -1.443   1.952   2.719  0.1076  0.4551  0.4978
  747MOL0     C  753  -1.453   2.060   2.834 -0.5511 -0.1665  0.4317
  747MOL0     C  754  -1.499   2.001   2.969  1.3217  0.5430  0.0270
  747MOL0    Cl  755  -1.504   2.126   3.105 -0.2176  0.1732  0.0408
  747MOL0     C  756  -0.552   2.075   2.511  0.0970  0.2600  0.8711
  747MOL0     C  757  -0.420   2.034   2.544  0.6227  0.3584  0.1191
  747MOL0     O  758  -0.291   1.854   2.872 -0.6835 -0.8129  0.4497
  747MOL0     C  759  -0.042   1.749   2.904 -0.1035 -0.0862 -0.0710
  747MOL0     C  760   0.084   1.698   2.932  0.3316 -0.2065 -0.4609
  747MOL0     N  761   0.804   1.445   3.147 -0.1033 -0.3772  0.3421
  747MOL0     N  762   0.909   1.383   3.115 -0.1569 -0.4915 -0.2983
  747MOL0     C  763   1.704   1.277   3.120  1.4786  0.4098 -1.2907
  747MOL0     C  764   1.763   1.177   3.204  0.1818 -1.3726  0.5016
  747MOL0     C  765   1.825   0.847   3.476  1.2679  0.1106 -0.5159
  747MOL0     C  766   1.892   0.885   3.594 -1.4438 -0.0248 -0.2600
  747MOL0     C  767   1.970   0.796   3.657  0.0412  0.0160  0.1479
  747MOL0     C  768   1.984   0.658   3.612  0.0993  0.0536  1.7521
  747MOL0     O  769   2.054   0.565   3.694  0.4567 -0.3046 -0.1886
  747MOL0     C  770   2.055   0.421   3.678 -0.0601 -1.6822 -0.3209
  747MOL0     C  771   1.923   0.359   3.711 -0.7669  0.0566  0.8651
  747MOL0     C  772   1.879   0.395   3.854  0.8509  0.0040 -0.1609
  747MOL0     C  773   1.742   0.470   3.849  0.5778  0.0256 -0.1386
  747MOL0     C  774   1.710   0.543   3.975 -0.8861  0.1246  0.0019
  747MOL0     C  775   1.697   0.591   4.093  0.0588 -0.0674 -0.7954
  747MOL0     C  776   1.916   0.626   3.497 -0.0295 -0.1485  0.7430
  747MOL0     C  777   1.833   0.714   3.429  0.4710 -0.0095 -0.9835
  747MOL0     H  778   1.646   1.302   3.498 -0.7473 -1.4137  0.6647
  747MOL0     H  779   1.568   1.477   3.359 -1.3906 -1.0254  2.0795
  747MOL0     H  780   1.686   1.626   2.951 -1.2489 -0.0274  2.6290
  747MOL0     H  781   1.754   1.466   2.951 -0.8452 -1.1941 -2.9654
  747MOL0     H  782   1.618   1.497   2.756 -1.3791  0.9314 -1.8622
  747MOL0     H  783   1.543   1.371   2.866  0.8618  0.6010  1.8791
  747MOL0     H  784   1.390   1.521   2.962  3.4550  0.0174  2.0019
  747MOL0     H  785   1.448   1.666   2.883  0.9611 -0.6359 -1.4560
  747MOL0     H  786   1.386   1.576   2.679 -0.8175  0.6639  0.9405
  747MOL0     H  787   1.351   1.407   2.751  0.3325 -0.3947  1.8291
  747MOL0     H  788   1.209   1.660   2.838  1.8247 -1.0150  1.9031
  747MOL0     H  789   1.150   1.566   2.694  0.5584  2.3975 -0.2344
  747MOL0     H  790   1.166   1.445   2.976 -1.9680 -2.9685 -0.4631
  747MOL0     H  791   1.028   1.522   2.907  0.1933  1.4990 -0.6697
  747MOL0     H  792   1.032   1.350   2.725 -0.8599  2.2916  0.6658
  747MOL0     H  793   1.188   1.298   2.805 -0.2266 -2.1490 -0.5844
  747MOL0     H  794   1.063   1.219   2.981  2.5873  2.4004 -1.9881
  747MOL0     H  795   0.939   1.177   2.858 -0.1235  2.3349 -3.3619
  747MOL0     H  796   0.735   1.366   2.838 -2.1372 -0.0140  0.4757
  747MOL0     H  797   0.501   1.459   2.998  1.3687 -0.4888 -1.3974
  747MOL0     H  798   0.552   1.558   3.133 -0.6042  0.1418  0.5238
  747MOL0     H  799   0.567   1.612   2.833  2.2896 -0.8832 -0.1667
  747MOL0     H  800   0.711   1.661   2.913  0.3864  0.8031 -2.5064
  747MOL0     H  801   0.606   1.855   2.955 -1.9358  1.3734 -0.1825
  747MOL0     H  802   0.504   1.770   3.081 -3.7266 -2.2147 -1.1790
  747MOL0     H  803   0.447   1.821   2.791  0.2876  2.9093  0.0071
  747MOL0     H  804   0.363   1.886   2.927 -0.4086  0.2094 -1.0969
  747MOL0     H  805   0.252   1.819   2.676  2.2475 -0.7051  4.9225
  747MOL0     H  806  -0.002   2.064   2.640  2.9928 -0.3993  1.9871
  747MOL0     H  807   0.116   1.981   2.547  0.6520 -0.2577  1.6800
  747MOL0     H  808  -0.060   1.945   2.523 -2.0377 -0.5124  2.9608
  747MOL0     H  809  -0.497   1.782   2.755  0.1457 -0.4591 -1.0071
  747MOL0     H  810  -0.721   1.846   2.708  0.3673 -1.3631  0.9450
  747MOL0     H  811  -0.921   1.916   2.622  0.0571 -0.0767 -3.1870
  747MOL0     H  812  -0.888   2.063   2.703 -0.4997 -2.0950  0.1007
  747MOL0     H  813  -1.048   2.189   2.576 -2.9851 -0.9818 -0.5036
  747MOL0     H  814  -1.041   2.081   2.436  0.2886  0.9350 -0.9614
  747MOL0     H  815  -1.160   1.996   2.712  1.5580  4.3042  0.7683
  747MOL0     H  816  -1.177   1.913   2.549 -3.0871  1.6504 -0.8287
  747MOL0     H  817  -1.287   2.182   2.615 -1.0855 -0.1468 -0.1388
  747MOL0     H  818  -1.267   2.115   2.456  0.0649 -0.6215 -0.2661
  747MOL0     H  819  -1.428   1.945   2.501 -3.1333 -0.0308  0.0630
  747MOL0     H  820  -1.503   2.082   2.550 -1.4285 -2.2770 -0.5195
  747MOL0     H  821  -1.537   1.896   2.715 -0.7934  1.9483  0.0793
  747MOL0     H  822  -1.364   1.884   2.752 -0.8201 -0.4516  0.9358
  747MOL0     H  823  -1.529   2.133   2.804 -1.6541 -1.0528  0.9984
  747MOL0     H  824  -1.354   2.103   2.854  0.8642 -2.9396 -0.0767
  747MOL0     H  825  -1.434   1.917   2.997 -0.9037 -0.7127  1.7878
  747MOL0     H  826  -1.600   1.965   2.948  1.4965 -0.3074  0.5696
  747MOL0     H  827  -0.569   2.145   2.430 -1.1892  1.9083  2.4788
  747MOL0     H  828  -0.339   2.091   2.502  1.7162 -0.2479  1.3456
  747MOL0     H  829  -0.126   1.707   2.958  1.7780 -3.4905  0.5263
  747MOL0     H  830   0.106   1.632   3.016 -4.7232 -0.0122  1.3315
  747MOL0     H  831   1.702   1.259   3.013 -1.9590 -0.7084 -1.1323
  747MOL0     H  832   1.820   1.092   3.166  0.9215  0.0851 -1.8632
  747MOL0     H  833   1.897   0.983   3.640  1.6753  0.6852 -1.8188
  747MOL0     H  834   2.036   0.829   3.737 -0.1780 -0.6625  0.6171
  747MOL0     H  835   2.084   0.396   3.575  0.4174  2.1833 -1.3072
  747MOL0     H  836   2.132   0.379   3.744 -1.9225 -0.7680  2.6168
  747MOL0     H  837   1.927   0.249   3.710 -4.1894 -0.2436 -2.9530
  747MOL0     H  838   1.858   0.383   3.627  1.7783  0.3577 -1.1654
  747MOL0     H  839   1.960   0.450   3.901  2.9495 -2.2956 -0.8464
  747MOL0     H  840   1.870   0.306   3.918  3.6492 -0.1210  0.2101
  747MOL0     H  841   1.660   0.399   3.834  1.6547 -1.7003  1.6512
  747MOL0     H  842   1.748   0.538   3.763  1.9037 -1.3038 -1.1514
  747MOL0     H  843   1.692   0.636   4.190 -1.6351 -2.0874  0.1209
  747MOL0     H  844   1.929   0.519   3.486 -0.8482 -0.6497  3.7712
  747MOL0     H  845   1.782   0.690   3.336 -1.5100 -0.5235  0.1836
  748MOL0     O  846   3.721   9.492   7.276 -1.4432 -0.7081 -0.2527
  748MOL0     C  847   3.799   9.402   7.244 -0.7662  0.2695 -0.2560
  748MOL0     O  848   3.768   9.274   7.210  0.0757 -0.1794 -0.4509
  748MOL0     C  849   3.642   9.238   7.172  0.1769  0.7741 -0.2488
  748MOL0     C  850   3.553   9.308   7.083 -0.8749 -0.9786  0.0719
  748MOL0     C  851   3.425   9.257   7.060 -1.0359  0.6454 -0.2995
  748MOL0     C  852   3.382   9.131   7.096 -0.4536  0.0870 -0.4909
  748MOL0     O  853   3.263   9.097   7.055  0.4877  0.1866 -0.0267
  748MOL0     C  854   3.217   8.970   7.107 -0.2804  0.3907 -0.1132
  748MOL0     C  855   3.058   8.938   7.082  0.3009 -0.1703 -0.5488
  748MOL0     C  856   2.953   9.024   7.158 -0.4444 -1.0788  0.1750
  748MOL0     C  857   2.959   9.171   7.099  0.1095  0.1532 -0.3373
  748MOL0     C  858   2.841   9.239   7.181 -0.7609  0.1314 -0.3800
  748MOL0     C  859   2.694   9.209   7.138 -0.2773  0.0062 -0.1376
  748MOL0     C  860   2.600   9.319   7.181  1.0747 -1.0900  1.0767
  748MOL0     C  861   2.601   9.362   7.323 -0.3678 -0.2632  0.3753
  748MOL0     N  862   2.526   9.262   7.398 -0.5201 -0.6728  0.3970
  748MOL0     C  863   2.580   9.164   7.469 -0.5915 -0.3740  0.6114
  748MOL0     C  864   2.476   9.091   7.514  0.4331  0.7539  1.0077
  748MOL0     C  865   2.489   8.956   7.573 -0.4044  0.1307 -0.5492
  748MOL0     C  866   2.572   8.857   7.494  0.4777  0.5572 -0.0349
  748MOL0     C  867   2.528   8.720   7.531 -0.2995 -0.3232  0.1809
  748MOL0     C  868   2.623   8.606   7.470 -0.7545 -0.8113  0.1157
  748MOL0     O  869   2.557   8.477   7.453  0.3973 -0.5731  0.9272
  748MOL0     C  870   2.519   8.403   7.559 -0.8897 -0.0918 -0.3475
  748MOL0     C  871   2.456   8.285   7.534  0.7939  0.3827 -0.7505
  748MOL0     C  872   2.416   8.199   7.639  0.8481  0.7530  0.1922
  748MOL0     C  873   2.342   8.073   7.597 -0.6710 -0.4883 -0.5096
  748MOL0     C  874   2.420   8.236   7.774  0.2795  0.4573  0.4215
  748MOL0     C  875   2.375   8.155   7.886 -0.3466 -0.0760 -0.4642
  748MOL0     O  876   2.393   8.020   7.883 -0.3644  0.1441  0.6856
  748MOL0     C  877   2.354   7.935   7.981  0.6050  0.0971 -0.2848
  748MOL0     C  878   2.439   7.841   8.028 -0.1918  0.5781 -0.0395
  748MOL0     C  879   2.412   7.756   8.133  0.8763  0.3975 -0.6218
  748MOL0     C  880   2.283   7.760   8.187  0.2890  0.4227  0.2234
  748MOL0     O  881   2.238   7.663   8.273  0.3414  0.7065 -0.1246
  748MOL0     C  882   2.256   7.523   8.233 -0.8062  0.0798  0.6934
  748MOL0     C  883   2.129   7.469   8.297 -0.8913  0.8374  1.5056
  748MOL0     C  884   2.095   7.318   8.251  0.6262  0.3399  0.3420
  748MOL0     C  885   2.165   7.212   8.339  0.2118 -0.5250 -0.0735
  748MOL0     C  886   2.116   7.067   8.316  0.1967 -0.9251  0.6445
  748MOL0     C  887   2.182   6.995   8.190  0.0515 -0.6854 -0.7199
  748MOL0     C  888   2.328   6.942   8.219  0.3782  0.0030  0.2927
  748MOL0     C  889   2.343   6.859   8.340  0.1123  0.9123 -0.3748
  748MOL0    Cl  890   2.200   6.756   8.367 -0.4354  0.5348 -0.2786
  748MOL0     C  891   2.196   7.852   8.139  0.6498 -0.3194  0.0138
  748MOL0     C  892   2.227   7.938   8.033  0.3872 -0.1536  0.8304
  748MOL0     O  893   2.342   8.222   7.983  1.4292 -0.4177 -0.1086
  748MOL0     C  894   2.484   8.364   7.793  0.0034 -0.0185 -0.1971
  748MOL0     C  895   2.532   8.445   7.687  0.2440 -0.3766  0.6075
  748MOL0     N  896   2.355   9.148   7.468 -0.2137 -0.3867  0.3087
  748MOL0     N  897   2.387   9.259   7.405 -0.8773  0.3558  0.5137
  748MOL0     C  898   3.469   9.058   7.180 -0.0494  0.8661 -0.2225
  748MOL0     C  899   3.595   9.114   7.213  0.9147 -0.7052 -0.0915
  748MOL0     C  900   3.943   9.434   7.261 -1.0448 -0.5702  1.1349
  748MOL0     C  901   3.979   9.564   7.302 -0.1200 -0.7821  0.3621
  748MOL0     C  902   4.106   9.610   7.312 -0.3039 -0.1658 -0.7252
  748MOL0     C  903   4.213   9.519   7.290 -0.4935  1.0119 -0.5718
  748MOL0     O  904   4.337   9.573   7.328  0.0212 -0.4379 -0.4228
  748MOL0     C  905   4.453   9.493   7.327  0.2343  0.1390 -0.5981
  748MOL0     C  906   4.579   9.576   7.350 -0.4950  0.8076 -0.2551
  748MOL0     C  907   4.600   9.665   7.221  0.4005 -0.1912  0.0808
  748MOL0     C  908   4.740   9.733   7.209 -0.2159  0.3966 -0.9971
  748MOL0     C  909   4.770   9.813   7.328 -0.3269 -0.4104  0.0661
  748MOL0     C  910   4.775   9.877   7.427 -0.3761 -0.5462  0.1798
  748MOL0     C  911   4.182   9.385   7.260 -0.3017 -0.3019  0.3945
  748MOL0     C  912   4.043   9.349   7.231 -0.2413  0.1952 -0.0424
  748MOL0     H  913   3.576   9.406   7.044  1.6978 -0.9164  1.5321
  748MOL0     H  914   3.360   9.310   6.991 -1.8535  1.2780  0.9169
  748MOL0     H  915   3.280   8.898   7.055  1.6874 -0.2000  2.7997
  748MOL0     H  916   3.216   8.964   7.217  1.7731  1.7415  0.0271
  748MOL0     H  917   3.040   8.945   6.975 -1.1426 -0.7694 -0.3686
  748MOL0     H  918   3.036   8.834   7.108  0.1750  0.0498  0.2797
  748MOL0     H  919   2.857   8.976   7.137  0.0164 -1.5199 -0.9960
  748MOL0     H  920   2.972   9.032   7.266  3.8615 -2.9293 -0.2530
  748MOL0     H  921   3.050   9.227   7.121  2.0289 -0.1935 -5.8586
  748MOL0     H  922   2.936   9.162   6.992 -1.3695 -0.9024  0.0375
  748MOL0     H  923   2.863   9.232   7.288 -0.4130  2.4073 -0.2447
  748MOL0     H  924   2.845   9.347   7.163 -0.0798  0.0884 -0.5126
  748MOL0     H  925   2.700   9.201   7.029 -1.5807 -2.6052 -0.1055
  748MOL0     H  926   2.655   9.113   7.174 -1.9348 -0.4121 -2.7959
  748MOL0     H  927   2.640   9.405   7.127  1.3829 -1.0251  1.4070
  748MOL0     H  928   2.499   9.306   7.140  2.0871  0.7408 -2.4539
  748MOL0     H  929   2.552   9.459   7.330 -1.6624 -0.8863  0.2652
  748MOL0     H  930   2.703   9.379   7.357  1.4516 -2.1284 -3.5314
  748MOL0     H  931   2.679   9.136   7.504 -1.0602 -0.4057  1.9472
  748MOL0     H  932   2.527   8.948   7.676 -1.8932  3.7131  0.4417
  748MOL0     H  933   2.387   8.919   7.579 -0.3118  0.0387  0.7972
  748MOL0     H  934   2.680   8.871   7.505  0.3455  0.5383  1.3861
  748MOL0     H  935   2.555   8.871   7.387 -0.6512  3.5060  0.4390
  748MOL0     H  936   2.427   8.707   7.490  0.0316 -2.1547 -0.1494
  748MOL0     H  937   2.511   8.728   7.639 -2.9263  1.2280 -0.2513
  748MOL0     H  938   2.717   8.588   7.523 -2.2561  0.0969  3.3487
  748MOL0     H  939   2.651   8.639   7.369 -0.3089 -1.3455  0.0616
  748MOL0     H  940   2.435   8.259   7.431 -0.9895  0.7792 -0.5118
  748MOL0     H  941   2.249   8.067   7.655 -0.5513  1.6547 -0.0116
  748MOL0     H  942   2.317   8.070   7.490  4.5307  0.6080 -2.0341
  748MOL0     H  943   2.411   7.992   7.621  2.2957  1.5913 -1.3871
  748MOL0     H  944   2.540   7.840   7.987  0.5790  1.1977  1.7657
  748MOL0     H  945   2.483   7.680   8.164  3.2144  1.2202 -3.4596
  748MOL0     H  946   2.259   7.507   8.125  0.1014 -0.3697  0.7721
  748MOL0     H  947   2.350   7.478   8.265  1.7482  3.8069 -0.7952
  748MOL0     H  948   2.127   7.485   8.405 -0.9207  0.8123  1.5085
  748MOL0     H  949   2.047   7.528   8.254 -1.3396 -1.2306 -0.7185
  748MOL0     H  950   2.128   7.312   8.147  0.4666  2.0366  0.1714
  748MOL0     H  951   1.987   7.301   8.261  0.4893  0.3067 -1.0333
  748MOL0     H  952   2.269   7.221   8.309  0.2491  2.7683  0.7121
  748MOL0     H  953   2.155   7.233   8.446 -1.0197 -0.3699 -0.2060
  748MOL0     H  954   2.007   7.072   8.308 -0.0321  0.0524  3.2747
  748MOL0     H  955   2.129   7.026   8.416 -0.1547  4.0092  3.0324
  748MOL0     H  956   2.112   6.917   8.159 -1.8269  1.2624 -1.5527
  748MOL0     H  957   2.189   7.067   8.108  1.8380 -0.5466 -0.4885
  748MOL0     H  958   2.405   7.020   8.207  2.8864 -2.5590 -1.7544
  748MOL0     H  959   2.348   6.885   8.128  0.7793  2.2746 -1.1216
  748MOL0     H  960   2.363   6.917   8.431 -0.1620  0.4061  0.0148
  748MOL0     H  961   2.437   6.804   8.333 -0.3746  0.1142 -0.7694
  748MOL0     H  962   2.093   7.843   8.172 -0.6593  0.0489 -3.5556
  748MOL0     H  963   2.156   7.998   7.978  2.4594 -0.8695 -2.9912
  748MOL0     H  964   2.495   8.410   7.891 -0.0244 -1.3433  0.4476
  748MOL0     H  965   2.574   8.541   7.713  2.2465 -1.0662  0.0759
  748MOL0     H  966   3.437   8.968   7.231 -1.2323  0.6301 -1.3307
  748MOL0     H  967   3.657   9.068   7.290  1.5564 -1.1630 -0.8705
  748MOL0     H  968   3.895   9.629   7.324  0.9847 -0.3460  3.9745
  748MOL0     H  969   4.143   9.710   7.331  0.4884 -0.4748 -0.6379
  748MOL0     H  970   4.448   9.413   7.402 -0.9988 -1.0668 -1.8908
  748MOL0     H  971   4.456   9.437   7.232  3.0383 -2.3132  0.7848
  748MOL0     H  972   4.662   9.505   7.359 -0.8577  0.5046  0.7359
  748MOL0     H  973   4.577   9.624   7.448 -2.3254 -3.6542  2.1853
  748MOL0     H  974   4.528   9.742   7.250  0.9135 -0.8253  3.4542
  748MOL0     H  975   4.575   9.614   7.128  0.5273 -0.9332  0.4519
  748MOL0     H  976   4.747   9.790   7.116  0.2334 -1.4516 -2.1487
  748MOL0     H  977   4.814   9.653   7.203  0.5403  1.0700 -0.8301
  748MOL0     H  978   4.783   9.934   7.518  1.2578  0.4795 -0.5524
  748MOL0     H  979   4.258   9.309   7.247 -0.6136 -0.8187  1.5388
  748MOL0     H  980   4.023   9.250   7.191 -1.2898  1.8135 -3.9595
  749MOL0     O  981   3.487  10.854   2.559  0.0026  0.3086 -0.0322
  749MOL0     C  982   3.426  10.844   2.452 -0.2080  1.0442  0.2770
  749MOL0     O  983   3.414  10.735   2.376 -0.2681  0.3192  0.4976
  749MOL0     C  984   3.437  10.609   2.431 -0.0667 -0.0563  0.6713
  749MOL0     C  985   3.558  10.580   2.498  0.3798  0.4641  0.1871
  749MOL0     C  986   3.585  10.450   2.544  0.3278 -0.4313 -0.2359
  749MOL0     C  987   3.485  10.353   2.524  0.0171 -0.1972  0.3342
  749MOL0     O  988   3.474  10.232   2.594  0.2287 -0.1192  0.0802
  749MOL0     C  989   3.562  10.201   2.705  0.7272  1.0776 -0.2927
  749MOL0     C  990   3.590  10.050   2.701 -0.0332  1.5547 -0.3812
  749MOL0     C  991   3.638   9.986   2.571 -0.2247  0.0683  0.1374
  749MOL0     C  992   3.533   9.923   2.475  0.3389 -0.3691  0.7065
  749MOL0     C  993   3.605   9.857   2.357 -0.7311  0.6340 -0.0144
  749MOL0     C  994   3.639   9.965   2.251 -0.2944  0.0665  0.2742
  749MOL0     C  995   3.783   9.945   2.204 -0.9391 -1.0842  0.4367
  749MOL0     C  996   3.815  10.048   2.083  0.3771  0.3201  0.4769
  749MOL0     N  997   3.957  10.023   2.042 -0.0774  0.5696  0.8309
  749MOL0     C  998   4.063  10.108   2.048  1.2101  0.1713 -0.0316
  749MOL0     C  999   4.169  10.037   2.012 -0.2889 -0.5248  1.0821
  749MOL0     C 1000   4.297  10.105   1.975  0.8789  0.8118  0.0966
  749MOL0     C 1001   4.297  10.182   1.849  0.0995 -0.1533 -0.1689
  749MOL0     C 1002   4.417  10.276   1.828  0.6248 -0.1685  0.0911
  749MOL0     C 1003   4.454  10.370   1.940 -0.9441 -0.6054  0.1414
  749MOL0     O 1004   4.520  10.493   1.890  0.6169  0.5367  0.3533
  749MOL0     C 1005   4.549  10.581   1.994  0.3343 -0.2742 -0.3139
  749MOL0     C 1006   4.463  10.642   2.090  0.6678  0.0253  0.6474
  749MOL0     C 1007   4.497  10.750   2.174 -1.5321 -1.0428  0.3377
  749MOL0     C 1008   4.394  10.791   2.273 -0.2329  0.1505  0.6293
  749MOL0     C 1009   4.625  10.809   2.156 -0.3966 -0.5032 -0.0460
  749MOL0     C 1010   4.681  10.919   2.246  0.2471  0.4542  1.5210
  749MOL0     O 1011   4.815  10.928   2.246 -0.1130 -0.7118  0.0185
  749MOL0     C 1012   4.872  11.017   2.337 -0.1229  1.0109  0.3562
  749MOL0     C 1013   4.891  10.987   2.470 -0.8089 -0.2405 -1.5274
  749MOL0     C 1014   4.930  11.085   2.563 -0.3864 -0.2779  0.2817
  749MOL0     C 1015   4.961  11.212   2.513 -0.4353 -0.6429 -0.2666
  749MOL0     O 1016   5.011  11.304   2.600  0.8809  0.3458  0.1827
  749MOL0     C 1017   5.026  11.443   2.559 -0.8533  0.5285  0.7613
  749MOL0     C 1018   5.118  11.518   2.667  0.2475  0.2901  0.3289
  749MOL0     C 1019   5.052  11.530   2.816 -0.0080  0.3448  0.7679
  749MOL0     C 1020   5.148  11.591   2.914 -0.9538 -0.9040 -0.0185
  749MOL0     C 1021   5.137  11.567   3.062  0.6797  0.1525 -0.6419
  749MOL0     C 1022   5.099  11.698   3.132 -0.3832  1.1506 -0.2318
  749MOL0     C 1023   5.056  11.672   3.278  1.0383  0.3582 -1.0253
  749MOL0     C 1024   5.012  11.802   3.352  0.0746  0.7760 -0.3934
  749MOL0    Cl 1025   5.133  11.929   3.325  0.1529  0.0188  0.1436
  749MOL0     C 1026   4.936  11.250   2.381  0.9296  1.3177  0.3026
  749MOL0     C 1027   4.894  11.151   2.289 -1.1471 -0.4497 -0.0350
  749MOL0     O 1028   4.603  10.991   2.309 -0.3620  0.0452 -0.0984
  749MOL0     C 1029   4.707  10.756   2.058 -0.0069  0.9378  0.7434
  749MOL0     C 1030   4.671  10.655   1.979  0.1660  0.2999 -0.8470
  749MOL0     N 1031   4.138   9.905   1.986  0.3668  0.0346  0.2676
  749MOL0     N 1032   4.004   9.894   1.999  0.0235  0.1090 -0.8916
  749MOL0     C 1033   3.371  10.372   2.445 -0.3515  0.2022 -1.2025
  749MOL0     C 1034   3.350  10.496   2.400 -0.5237 -0.5239  0.3358
  749MOL0     C 1035   3.378  10.957   2.392 -0.0577 -1.7636 -0.4392
  749MOL0     C 1036   3.278  10.949   2.300 -0.3477  0.0027 -0.8988
  749MOL0     C 1037   3.230  11.056   2.238  0.0561 -0.4937 -0.9253
  749MOL0     C 1038   3.246  11.188   2.272  0.5451  0.5245 -0.5476
  749MOL0     O 1039   3.184  11.281   2.187 -0.3179  0.0727  0.6334
  749MOL0     C 1040   3.223  11.423   2.189 -0.6935  0.2820  0.4266
  749MOL0     C 1041   3.184  11.486   2.329  0.2102  0.4434 -0.0401
  749MOL0     C 1042   3.148  11.634   2.298 -0.9026 -0.0068 -0.3141
  749MOL0     C 1043   3.167  11.730   2.413  0.7918 -0.0289 -1.1658
  749MOL0     C 1044   3.310  11.756   2.433  0.5901  0.4911  0.9511
  749MOL0     C 1045   3.429  11.778   2.435  0.3529 -0.2746 -0.2261
  749MOL0     C 1046   3.338  11.211   2.383 -0.0811  0.3336  0.3832
  749MOL0     C 1047   3.403  11.096   2.438 -0.3408  0.9175 -0.5454
  749MOL0     H 1048   3.633  10.656   2.518  1.5597 -1.4138  3.6272
  749MOL0     H 1049   3.678  10.431   2.597 -1.1530 -2.7552  1.7985
  749MOL0     H 1050   3.659  10.246   2.686 -0.8480  4.4021 -1.1288
  749MOL0     H 1051   3.510  10.221   2.799 -0.1716 -5.5853  1.1817
  749MOL0     H 1052   3.667  10.045   2.778 -0.1737 -0.9480 -0.3435
  749MOL0     H 1053   3.506   9.992   2.738  0.5963 -1.3267 -3.0335
  749MOL0     H 1054   3.703  10.052   2.513  2.3857  0.0746  2.8496
  749MOL0     H 1055   3.701   9.899   2.592  0.1673  0.2917 -0.1001
  749MOL0     H 1056   3.479   9.845   2.530 -2.2122 -1.2266 -2.7093
  749MOL0     H 1057   3.457   9.992   2.436 -0.3367 -1.3530  0.2492
  749MOL0     H 1058   3.706   9.831   2.387  0.0455  3.4877  0.1465
  749MOL0     H 1059   3.542   9.774   2.326 -0.0518  0.2590 -0.4076
  749MOL0     H 1060   3.582   9.942   2.161  0.0222 -2.9114  0.7442
  749MOL0     H 1061   3.622  10.063   2.297 -0.6943  0.7810 -1.3145
  749MOL0     H 1062   3.849   9.978   2.284  0.8510  0.3508 -1.5162
  749MOL0     H 1063   3.811   9.846   2.166  0.1162 -0.9323  0.7676
  749MOL0     H 1064   3.807  10.152   2.115 -1.5251  0.2742  0.2357
  749MOL0     H 1065   3.743  10.036   2.002 -1.7433 -0.4733  2.3902
  749MOL0     H 1066   4.051  10.213   2.071 -1.0139 -0.1535  0.4566
  749MOL0     H 1067   4.334  10.165   2.058 -3.0621  0.6689  2.1776
  749MOL0     H 1068   4.364  10.020   1.963 -0.8998 -0.4864 -1.2313
  749MOL0     H 1069   4.201  10.234   1.839  0.9487  2.1210  2.2185
  749MOL0     H 1070   4.289  10.120   1.760 -1.0319  2.5877 -2.1205
  749MOL0     H 1071   4.396  10.338   1.740 -2.6722 -0.2675  0.6726
  749MOL0     H 1072   4.497  10.207   1.799  1.7518  1.0307  0.2388
  749MOL0     H 1073   4.531  10.321   2.000 -1.3427 -3.4112 -1.4865
  749MOL0     H 1074   4.362  10.397   1.992 -2.1664  2.1955 -3.0764
  749MOL0     H 1075   4.361  10.607   2.103 -1.0698  3.3393 -2.3834
  749MOL0     H 1076   4.335  10.879   2.242 -0.0018  2.2020  5.2160
  749MOL0     H 1077   4.325  10.707   2.285 -2.1115  1.6624  0.8992
  749MOL0     H 1078   4.435  10.817   2.371 -3.5162 -0.3252  2.2814
  749MOL0     H 1079   4.876  10.883   2.497  0.3359  0.6291  3.4331
  749MOL0     H 1080   4.958  11.062   2.666 -1.3049 -3.0147  0.0070
  749MOL0     H 1081   5.085  11.438   2.467 -1.0810  0.9673  0.5899
  749MOL0     H 1082   4.934  11.496   2.532 -0.1358  1.0384 -0.7952
  749MOL0     H 1083   5.210  11.460   2.670 -0.7640 -1.3481  2.2826
  749MOL0     H 1084   5.141  11.620   2.633  0.8259 -0.1143 -0.5208
  749MOL0     H 1085   5.028  11.429   2.852 -0.2392  0.2697  0.4115
  749MOL0     H 1086   4.967  11.597   2.809  1.2326  2.0682  1.4507
  749MOL0     H 1087   5.247  11.551   2.889  0.5101  2.1249  0.4073
  749MOL0     H 1088   5.154  11.698   2.892 -0.6641 -1.1274 -1.1159
  749MOL0     H 1089   5.227  11.522   3.105 -0.5219 -1.8866 -0.0912
  749MOL0     H 1090   5.059  11.490   3.068  1.4986 -0.6888 -0.4465
  749MOL0     H 1091   5.187  11.763   3.132  1.3014 -0.8803  2.7984
  749MOL0     H 1092   5.016  11.743   3.077  0.3255 -3.5663 -6.1776
  749MOL0     H 1093   5.137  11.620   3.328  0.1075 -2.2579 -2.0890
  749MOL0     H 1094   4.971  11.604   3.271  0.8836  0.7361 -3.7647
  749MOL0     H 1095   4.992  11.779   3.457  1.2212 -2.0473 -0.7087
  749MOL0     H 1096   4.915  11.830   3.309 -0.8283 -1.3146  0.1864
  749MOL0     H 1097   4.931  11.353   2.349  0.3663  1.1776 -0.0645
  749MOL0     H 1098   4.858  11.171   2.188 -3.4236  0.9449  0.9561
  749MOL0     H 1099   4.803  10.805   2.045  0.0948  0.4370 -0.4788
  749MOL0     H 1100   4.748  10.607   1.919 -0.6978 -1.3816 -0.6637
  749MOL0     H 1101   3.300  10.290   2.442 -0.3879  0.1279  0.5770
  749MOL0     H 1102   3.250  10.516   2.361 -1.7566 -2.3126  2.3778
  749MOL0     H 1103   3.240  10.852   2.269 -0.4357  0.0386 -0.9023
  749MOL0     H 1104   3.157  11.039   2.160 -2.7903 -0.1944  1.4768
  749MOL0     H 1105   3.328  11.434   2.160 -1.1097  3.6093 -0.1961
  749MOL0     H 1106   3.169  11.465   2.103 -1.0455  0.0105  0.5128
  749MOL0     H 1107   3.265  11.478   2.402 -0.2291 -1.0774  0.3061
  749MOL0     H 1108   3.091  11.437   2.356 -0.6649  2.0833  0.0608
  749MOL0     H 1109   3.046  11.631   2.260 -0.8514 -0.9419 -0.3963
  749MOL0     H 1110   3.206  11.667   2.211 -0.0395  1.1626  0.6675
  749MOL0     H 1111   3.121  11.675   2.496 -0.4317  1.5885 -0.7115
  749MOL0     H 1112   3.118  11.826   2.395 -1.5868 -0.6852  1.1639
  749MOL0     H 1113   3.530  11.811   2.447  0.7382 -2.0947  2.7115
  749MOL0     H 1114   3.375  11.308   2.414 -1.1449  0.7182  0.4723
  749MOL0     H 1115   3.488  11.100   2.506  2.4070  2.7608 -3.7984
  750MOL0     O 1116   4.040  10.129   8.229  0.1175 -0.6001  0.0216
  750MOL0     C 1117   4.078  10.023   8.180  0.6449 -0.0865  0.5431
  750MOL0     O 1118   4.197  10.005   8.100  0.5801 -0.2113 -0.8142
  750MOL0     C 1119   4.285  10.112   8.087  1.8811  0.2678 -0.1143
  750MOL0     C 1120   4.345  10.175   8.191  0.1629  0.5875  0.3664
  750MOL0     C 1121   4.431  10.287   8.165 -0.3194  0.5572  0.5374
  750MOL0     C 1122   4.437  10.331   8.039  0.3528 -0.9086  1.4107
  750MOL0     O 1123   4.512  10.440   8.005  0.4735  0.1783  0.0669
  750MOL0     C 1124   4.615  10.487   8.097  0.3805 -0.3545  0.0073
  750MOL0     C 1125   4.556  10.605   8.188 -0.4527  0.0797  0.6728
  750MOL0     C 1126   4.680  10.658   8.266  0.4949  0.0588  0.3961
  750MOL0     C 1127   4.778  10.737   8.183 -0.2902  0.3665  0.1682
  750MOL0     C 1128   4.866  10.832   8.261  0.5068  0.2910  0.3597
  750MOL0     C 1129   4.970  10.774   8.348  0.4561 -0.7252 -1.2720
  750MOL0     C 1130   5.061  10.885   8.398 -0.0110  0.3589  0.2212
  750MOL0     C 1131   5.004  10.981   8.510  0.6931  0.5407 -0.2042
  750MOL0     N 1132   5.121  11.048   8.579  0.3813  0.2251  0.7035
  750MOL0     C 1133   5.250  11.000   8.599  0.2420 -0.1705  0.4546
  750MOL0     C 1134   5.319  11.094   8.652 -0.8453 -1.1242 -0.5903
  750MOL0     C 1135   5.464  11.075   8.708  0.7179  0.2134  0.1764
  750MOL0     C 1136   5.580  11.148   8.638 -1.0412  0.4077 -0.8763
  750MOL0     C 1137   5.719  11.135   8.713  1.1843 -0.1410  0.0462
  750MOL0     C 1138   5.724  11.211   8.845  0.2850 -0.0491 -0.1779
  750MOL0     O 1139   5.863  11.211   8.892 -0.4752  0.0768 -1.0398
  750MOL0     C 1140   5.892  11.262   9.018 -0.3101 -0.1690  0.1433
  750MOL0     C 1141   5.801  11.298   9.117 -0.6840 -0.9134  0.4874
  750MOL0     C 1142   5.832  11.358   9.241  0.5090 -0.5047  0.0825
  750MOL0     C 1143   5.725  11.389   9.346  0.5930 -0.5443 -0.0484
  750MOL0     C 1144   5.965  11.364   9.280 -0.3208  0.9828  1.0602
  750MOL0     C 1145   6.025  11.419   9.411  0.8071  0.3184  0.4776
  750MOL0     O 1146   5.949  11.520   9.470 -0.5959  0.0517 -0.3362
  750MOL0     C 1147   5.988  11.567   9.595  1.5761 -0.4193 -0.5566
  750MOL0     C 1148   5.987  11.476   9.713  0.0077 -0.3626 -0.9416
  750MOL0     C 1149   6.009  11.526   9.845  0.9723  0.6132 -0.0274
  750MOL0     C 1150   6.012  11.670   9.863 -0.2983  0.4457 -0.3734
  750MOL0     O 1151   6.026  11.719   9.993  0.2288  0.2316 -0.3570
  750MOL0     C 1152   6.169  11.751  10.026 -0.7127 -0.3122 -0.6330
  750MOL0     C 1153   6.241  11.644  10.106 -0.0045 -0.4147  0.5147
  750MOL0     C 1154   6.390  11.673  10.091 -0.1439 -0.9121 -0.8468
  750MOL0     C 1155   6.442  11.809  10.143 -0.4992  0.2816  0.5914
  750MOL0     C 1156   6.423  11.846  10.290 -0.0418  0.9953  0.2462
  750MOL0     C 1157   6.511  11.961  10.331  0.4061 -0.3356  0.0377
  750MOL0     C 1158   6.490  11.992  10.482  0.0773 -0.0566 -0.6549
  750MOL0     C 1159   6.549  12.136  10.501  0.3871 -0.3167 -0.9624
  750MOL0    Cl 1160   6.478  12.211  10.645  0.3017 -0.2641 -0.3656
  750MOL0     C 1161   5.992  11.756   9.759  0.0002  0.5326  0.7457
  750MOL0     C 1162   5.994  11.704   9.622  0.1520 -0.3316 -0.9279
  750MOL0     O 1163   6.142  11.398   9.438 -0.0735  0.5461 -0.4669
  750MOL0     C 1164   6.054  11.313   9.187  1.0778 -0.1580 -0.3561
  750MOL0     C 1165   6.025  11.274   9.055 -0.2040  0.1303  0.1770
  750MOL0     N 1166   5.235  11.201   8.675  0.0810 -0.6354  0.6854
  750MOL0     N 1167   5.116  11.178   8.627  0.5378 -0.3343  0.1886
  750MOL0     C 1168   4.354  10.278   7.936  0.6929 -0.1122  0.0019
  750MOL0     C 1169   4.285  10.161   7.959  0.0273  0.5024  0.4074
  750MOL0     C 1170   3.990   9.905   8.202 -0.0874 -0.0955 -0.5573
  750MOL0     C 1171   4.022   9.777   8.150  0.7252 -0.2387  1.0950
  750MOL0     C 1172   3.930   9.670   8.156 -1.1779 -0.0457  0.5637
  750MOL0     C 1173   3.812   9.686   8.223  0.7311 -0.7404  0.1900
  750MOL0     O 1174   3.715   9.591   8.233  0.5054 -0.1976 -0.1419
  750MOL0     C 1175   3.720   9.470   8.153 -0.3025 -0.3983  0.6638
  750MOL0     C 1176   3.613   9.365   8.201 -0.0650  0.3068 -0.0695
  750MOL0     C 1177   3.629   9.234   8.131  0.6734  0.3552  0.6020
  750MOL0     C 1178   3.591   9.129   8.231  1.1251  0.6716 -0.3941
  750MOL0     C 1179   3.561   9.008   8.149  0.3826 -0.8370  0.1705
  750MOL0     C 1180   3.527   8.916   8.072  0.6743  0.7742 -0.2798
  750MOL0     C 1181   3.782   9.812   8.284  0.0472  0.6298  0.2380
  750MOL0     C 1182   3.868   9.917   8.275  0.9595  0.9323  1.3271
  750MOL0     H 1183   4.344  10.140   8.294  0.6775 -0.9384 -0.1198
  750MOL0     H 1184   4.488  10.341   8.240  1.6808  0.7102 -0.9901
  750MOL0     H 1185   4.660  10.412   8.164  4.1080  1.1388 -0.5871
  750MOL0     H 1186   4.701  10.519   8.038  1.0758 -0.8312  0.7413
  750MOL0     H 1187   4.509  10.686   8.131 -0.1722 -1.1072 -1.3444
  750MOL0     H 1188   4.480  10.568   8.257  1.0241 -0.9211  1.8449
  750MOL0     H 1189   4.657  10.720   8.354  3.0501  2.8312 -0.7035
  750MOL0     H 1190   4.724  10.573   8.318 -2.3928 -1.9292 -0.1790
  750MOL0     H 1191   4.852  10.674   8.133  1.1949  2.6540 -0.6282
  750MOL0     H 1192   4.727  10.796   8.107 -0.1003 -1.3606 -1.3672
  750MOL0     H 1193   4.911  10.884   8.175 -1.1181  1.6941  0.2895
  750MOL0     H 1194   4.816  10.914   8.313  1.0649  1.0126 -0.2066
  750MOL0     H 1195   4.926  10.723   8.434 -1.0715 -1.6145 -2.5182
  750MOL0     H 1196   5.022  10.695   8.293  1.7142 -1.1065  0.3830
  750MOL0     H 1197   5.147  10.830   8.437  0.3908 -0.3245 -1.5141
  750MOL0     H 1198   5.098  10.934   8.307  2.6777 -4.0629 -1.3900
  750MOL0     H 1199   4.950  10.933   8.592  0.0352  0.4242 -0.7000
  750MOL0     H 1200   4.939  11.054   8.460  1.6820  1.1303 -0.6602
  750MOL0     H 1201   5.278  10.898   8.577 -0.4530  0.2025 -2.6193
  750MOL0     H 1202   5.454  11.102   8.813 -2.9855  0.3321 -0.0476
  750MOL0     H 1203   5.479  10.967   8.705 -2.6028 -0.3995  0.9173
  750MOL0     H 1204   5.559  11.253   8.618  1.1307  0.8328 -1.1572
  750MOL0     H 1205   5.585  11.101   8.539 -1.8211  1.6913 -1.5491
  750MOL0     H 1206   5.799  11.159   8.643  0.9272 -0.5854 -0.4102
  750MOL0     H 1207   5.739  11.030   8.737 -2.6008 -0.6533  1.6295
  750MOL0     H 1208   5.669  11.160   8.925 -0.1735  2.2452  1.0613
  750MOL0     H 1209   5.680  11.311   8.844  0.1488 -0.1106 -0.6723
  750MOL0     H 1210   5.695  11.298   9.092 -0.8230  0.7058  0.9855
  750MOL0     H 1211   5.628  11.342   9.327 -0.4493  0.5832  2.1278
  750MOL0     H 1212   5.757  11.359   9.447 -3.8161 -2.5296  1.0233
  750MOL0     H 1213   5.718  11.498   9.340  1.1043 -0.4630  0.6765
  750MOL0     H 1214   5.983  11.368   9.697 -1.1435 -0.6962  1.2054
  750MOL0     H 1215   6.024  11.475   9.940  0.4384  3.9828  2.0496
  750MOL0     H 1216   6.229  11.755   9.934  2.2039 -1.3990  1.0947
  750MOL0     H 1217   6.165  11.847  10.078 -1.3424 -1.0875  0.8212
  750MOL0     H 1218   6.202  11.631  10.208 -1.7421 -2.9965 -0.3769
  750MOL0     H 1219   6.217  11.548  10.061  1.3348 -0.9726  0.9509
  750MOL0     H 1220   6.432  11.662   9.991  1.2262 -1.0748 -0.2933
  750MOL0     H 1221   6.438  11.594  10.151  0.7047 -1.1253 -1.7681
  750MOL0     H 1222   6.550  11.809  10.123 -0.8486  0.9229 -1.7003
  750MOL0     H 1223   6.399  11.895  10.091 -3.2902  1.5644  4.5504
  750MOL0     H 1224   6.449  11.759  10.352 -1.4990 -0.4568 -1.0799
  750MOL0     H 1225   6.317  11.863  10.310  0.3327  1.8255  1.7354
  750MOL0     H 1226   6.617  11.939  10.311  0.5393  1.3704 -1.3808
  750MOL0     H 1227   6.488  12.049  10.270  0.0569 -0.1987  0.3687
  750MOL0     H 1228   6.550  11.927  10.546  1.2666 -0.0554 -1.7353
  750MOL0     H 1229   6.383  12.010  10.498 -0.1389  3.1919 -4.1406
  750MOL0     H 1230   6.522  12.201  10.418 -0.6058 -0.2012 -0.5652
  750MOL0     H 1231   6.657  12.146  10.513  0.3414  0.1562 -0.9157
  750MOL0     H 1232   5.989  11.863   9.775 -1.4751  0.7196 -0.5301
  750MOL0     H 1233   5.984  11.778   9.543 -1.5383  1.2963  0.6846
  750MOL0     H 1234   6.157  11.323   9.221 -0.4857  1.9039  4.7318
  750MOL0     H 1235   6.103  11.242   8.986  0.5322  0.9394  0.6077
  750MOL0     H 1236   4.331  10.317   7.838 -5.4607  3.4410  2.2692
  750MOL0     H 1237   4.220  10.118   7.884  2.3312 -3.1739  0.3037
  750MOL0     H 1238   4.112   9.756   8.094  0.0203 -3.3569  0.9843
  750MOL0     H 1239   3.964   9.586   8.097 -2.2320  0.7988 -1.3251
  750MOL0     H 1240   3.713   9.490   8.046  0.8163 -1.6772  0.3175
  750MOL0     H 1241   3.812   9.417   8.181 -0.6337  0.0513  2.8421
  750MOL0     H 1242   3.513   9.404   8.179  1.6123  4.4602 -1.3698
  750MOL0     H 1243   3.611   9.354   8.310 -1.7011 -2.4955 -0.2927
  750MOL0     H 1244   3.732   9.210   8.105 -0.9643 -1.9157 -5.3347
  750MOL0     H 1245   3.561   9.231   8.045  1.0263  0.2072  0.3229
  750MOL0     H 1246   3.500   9.162   8.282  0.9838  0.2388 -0.3577
  750MOL0     H 1247   3.659   9.106   8.313 -0.9666 -2.7725  0.6083
  750MOL0     H 1248   3.491   8.830   8.018  0.7320 -1.2626  2.6887
  750MOL0     H 1249   3.682   9.828   8.323  0.0925  0.9722  0.2212
  750MOL0     H 1250   3.838  10.014   8.313  1.1020  2.1571 -1.4637
  751MOL0     O 1251   6.216   3.992   8.617 -0.8889  0.1338 -0.1856
  751MOL0     C 1252   6.155   4.074   8.552  0.1745 -0.6281 -0.5483
  751MOL0     O 1253   6.026   4.063   8.502  0.7923 -0.4446 -0.0058
  751MOL0     C 1254   5.962   3.944   8.526 -0.2920  1.1210 -0.7022
  751MOL0     C 1255   5.832   3.942   8.594 -1.0419  0.2224 -0.0359
  751MOL0     C 1256   5.781   3.810   8.604 -0.5370 -0.7210 -0.6110
  751MOL0     C 1257   5.842   3.689   8.568 -1.3090 -1.1860 -0.4894
  751MOL0     O 1258   5.769   3.582   8.597  0.2891  0.8696  0.3332
  751MOL0     C 1259   5.833   3.460   8.567 -0.5199  0.6385  0.4958
  751MOL0     C 1260   5.724   3.367   8.624  0.5207 -0.1999  0.0909
  751MOL0     C 1261   5.588   3.371   8.557 -1.2292 -0.5625 -0.4295
  751MOL0     C 1262   5.595   3.285   8.434 -0.8238 -0.2326  0.5208
  751MOL0     C 1263   5.519   3.151   8.450 -0.5276 -0.0427  0.1807
  751MOL0     C 1264   5.501   3.077   8.317  0.1252  0.9489  0.2154
  751MOL0     C 1265   5.433   2.941   8.348 -0.9562  0.8885  0.1671
  751MOL0     C 1266   5.362   2.877   8.224  0.7422 -0.2712  0.1646
  751MOL0     N 1267   5.279   2.766   8.255  0.5253 -0.3611  0.1479
  751MOL0     C 1268   5.160   2.733   8.191 -0.1979  0.4525  0.5744
  751MOL0     C 1269   5.150   2.593   8.222 -0.7826  0.3152 -0.7604
  751MOL0     C 1270   5.031   2.509   8.172 -0.0220  0.0542 -0.3444
  751MOL0     C 1271   4.963   2.467   8.302  0.3824 -0.2282  0.5669
  751MOL0     C 1272   4.813   2.411   8.292  0.0742  0.1003  0.0739
  751MOL0     C 1273   4.824   2.251   8.300 -0.2232 -0.4327 -0.5812
  751MOL0     O 1274   4.697   2.193   8.303 -0.8573 -0.2427  0.9482
  751MOL0     C 1275   4.626   2.207   8.184  0.2264 -0.0315  0.8987
  751MOL0     C 1276   4.664   2.243   8.054  0.2716 -1.1486  0.8315
  751MOL0     C 1277   4.577   2.245   7.945  0.0751  0.1514  0.7077
  751MOL0     C 1278   4.644   2.282   7.812  0.1082 -0.2085  0.5682
  751MOL0     C 1279   4.440   2.233   7.967 -0.5853 -0.0041 -0.5447
  751MOL0     C 1280   4.331   2.255   7.867  0.2324 -0.1779 -0.0246
  751MOL0     O 1281   4.342   2.212   7.729  0.2120  0.1965  0.0545
  751MOL0     C 1282   4.238   2.214   7.646  0.0308  0.4600 -0.0046
  751MOL0     C 1283   4.242   2.278   7.516  0.4688 -0.2096 -0.3995
  751MOL0     C 1284   4.123   2.284   7.447  0.0564  0.3487 -0.9417
  751MOL0     C 1285   4.004   2.241   7.489  0.3410 -0.1248 -0.1392
  751MOL0     O 1286   3.895   2.246   7.410  0.0657 -0.1012  0.1410
  751MOL0     C 1287   3.795   2.315   7.481  0.5025  0.0732  0.2062
  751MOL0     C 1288   3.804   2.462   7.455  0.2390  0.0830 -0.3914
  751MOL0     C 1289   3.668   2.524   7.427  0.6317 -1.4890  0.3680
  751MOL0     C 1290   3.669   2.668   7.370 -0.1058  0.1164 -0.8875
  751MOL0     C 1291   3.528   2.729   7.357  0.3317 -0.5064 -0.4543
  751MOL0     C 1292   3.539   2.873   7.312 -0.2959  0.0295  0.9975
  751MOL0     C 1293   3.404   2.939   7.306  0.5930  0.0521 -0.5643
  751MOL0     C 1294   3.423   3.094   7.280 -0.7933  0.9211  0.1300
  751MOL0    Cl 1295   3.266   3.160   7.258 -0.2914 -0.3997  0.2063
  751MOL0     C 1296   4.001   2.170   7.615 -0.0876 -0.2877  0.2418
  751MOL0     C 1297   4.117   2.159   7.696 -0.0861  0.4110  0.2653
  751MOL0     O 1298   4.237   2.321   7.915 -0.0953  0.0489  1.1024
  751MOL0     C 1299   4.397   2.210   8.101 -0.0829  0.0860 -0.2440
  751MOL0     C 1300   4.490   2.191   8.206 -0.0064  0.0492  0.5118
  751MOL0     N 1301   5.249   2.559   8.313 -0.2698  0.9205 -0.4954
  751MOL0     N 1302   5.321   2.666   8.330  0.3126 -0.4515 -0.4391
  751MOL0     C 1303   5.970   3.701   8.515  0.5187  0.1492  0.6577
  751MOL0     C 1304   6.020   3.813   8.480 -0.2810 -0.1825 -0.8517
  751MOL0     C 1305   6.229   4.202   8.525 -0.3697  0.5858  0.5819
  751MOL0     C 1306   6.352   4.220   8.588 -0.4650 -0.5905  0.1880
  751MOL0     C 1307   6.446   4.309   8.526 -0.3383  0.3269 -0.7547
  751MOL0     C 1308   6.398   4.406   8.435 -0.6218 -0.3726 -0.0112
  751MOL0     O 1309   6.480   4.502   8.398 -0.1843 -0.6742 -0.7503
  751MOL0     C 1310   6.463   4.565   8.273  0.8273 -1.4165  0.7290
  751MOL0     C 1311   6.463   4.485   8.147  0.2662  0.3392  0.2524
  751MOL0     C 1312   6.575   4.378   8.138  0.6405  0.3959 -0.1121
  751MOL0     C 1313   6.598   4.331   7.997  0.3287 -0.6758  0.6674
  751MOL0     C 1314   6.630   4.436   7.897 -0.5504 -0.0564 -0.0775
  751MOL0     C 1315   6.663   4.533   7.823  0.1330  0.0113 -0.1917
  751MOL0     C 1316   6.270   4.398   8.386  0.1401 -0.4556 -0.5736
  751MOL0     C 1317   6.187   4.292   8.425 -0.0104  0.3481 -0.3745
  751MOL0     H 1318   5.775   4.032   8.613  2.4843  2.4858  0.7985
  751MOL0     H 1319   5.683   3.794   8.648 -0.2104 -1.1757 -0.0387
  751MOL0     H 1320   5.854   3.453   8.460 -1.8806 -0.4016  0.2780
  751MOL0     H 1321   5.926   3.448   8.622 -0.2195 -2.5281 -0.5438
  751MOL0     H 1322   5.760   3.264   8.626 -0.3304 -0.5178 -0.3418
  751MOL0     H 1323   5.715   3.395   8.729  0.1461  1.7992 -0.4223
  751MOL0     H 1324   5.514   3.328   8.626  1.4775  1.4701  4.1798
  751MOL0     H 1325   5.553   3.473   8.539  1.2624 -0.0930 -3.3409
  751MOL0     H 1326   5.565   3.342   8.345  0.5829  0.2775  0.3349
  751MOL0     H 1327   5.696   3.252   8.407 -1.8596 -1.2747 -2.5710
  751MOL0     H 1328   5.572   3.095   8.528 -2.2771 -0.5296  1.0820
  751MOL0     H 1329   5.423   3.175   8.498  0.1232  1.4247  0.8246
  751MOL0     H 1330   5.441   3.140   8.251 -0.4417  2.0259  1.7101
  751MOL0     H 1331   5.597   3.058   8.268 -0.3186 -2.8698  0.5243
  751MOL0     H 1332   5.506   2.865   8.375 -1.7756  0.4539  1.2332
  751MOL0     H 1333   5.371   2.956   8.437 -0.4817 -1.5435  0.9784
  751MOL0     H 1334   5.443   2.840   8.160 -1.1782 -1.7622 -1.5017
  751MOL0     H 1335   5.303   2.951   8.172 -0.9728 -1.8746 -0.2663
  751MOL0     H 1336   5.098   2.801   8.133 -0.4071 -1.1833 -1.2281
  751MOL0     H 1337   4.959   2.572   8.119 -0.4073  0.8598  1.0631
  751MOL0     H 1338   5.058   2.430   8.101 -2.1957 -0.2968 -0.8661
  751MOL0     H 1339   4.954   2.551   8.372 -0.8164 -0.1118  0.3049
  751MOL0     H 1340   5.019   2.393   8.359 -1.3941 -1.2546  1.0721
  751MOL0     H 1341   4.770   2.444   8.197  0.5222  0.3641 -0.0365
  751MOL0     H 1342   4.748   2.445   8.373 -0.7488 -1.7437  0.2665
  751MOL0     H 1343   4.866   2.220   8.396 -4.3279 -5.8974 -0.0921
  751MOL0     H 1344   4.881   2.212   8.215  0.9595  1.8557 -0.9304
  751MOL0     H 1345   4.766   2.263   8.022 -0.2717  0.5690  0.0574
  751MOL0     H 1346   4.618   2.195   7.751 -3.3401  0.0240  1.5344
  751MOL0     H 1347   4.605   2.374   7.767  1.8953  0.7342  0.8207
  751MOL0     H 1348   4.754   2.283   7.812  0.1726  1.1113 -1.7166
  751MOL0     H 1349   4.330   2.324   7.473  0.1132  1.8790  0.9558
  751MOL0     H 1350   4.128   2.314   7.343  2.1747 -1.3790 -1.3966
  751MOL0     H 1351   3.701   2.265   7.457 -0.4268 -0.4730  4.2009
  751MOL0     H 1352   3.804   2.307   7.590  5.0038 -2.2608 -0.1087
  751MOL0     H 1353   3.852   2.504   7.543 -1.5235  1.8473 -0.1912
  751MOL0     H 1354   3.858   2.481   7.361 -0.0393  0.7810 -0.4175
  751MOL0     H 1355   3.611   2.514   7.519 -1.0725  1.1727 -0.2833
  751MOL0     H 1356   3.624   2.460   7.349 -0.3293 -0.7857  0.3259
  751MOL0     H 1357   3.734   2.741   7.420 -2.3756  1.0266  0.9279
  751MOL0     H 1358   3.714   2.682   7.271  0.1080  1.6785 -0.6086
  751MOL0     H 1359   3.467   2.701   7.443 -1.5863 -1.7130 -2.1226
  751MOL0     H 1360   3.481   2.667   7.280 -0.2926  1.6004 -1.8440
  751MOL0     H 1361   3.612   2.929   7.371 -0.0550 -0.5323  1.2361
  751MOL0     H 1362   3.565   2.882   7.206 -1.4879 -0.4654  0.6450
  751MOL0     H 1363   3.362   2.943   7.407 -1.8467 -0.5925 -1.4813
  751MOL0     H 1364   3.322   2.906   7.241 -1.3457  0.1236  1.6903
  751MOL0     H 1365   3.486   3.108   7.192  0.1362 -0.1754  0.5994
  751MOL0     H 1366   3.490   3.139   7.353  2.4960 -1.6729 -1.0568
  751MOL0     H 1367   3.905   2.129   7.645  1.2258 -2.1315  2.2428
  751MOL0     H 1368   4.114   2.118   7.796 -1.5074  0.1767  0.1466
  751MOL0     H 1369   4.294   2.178   8.115 -0.2000 -0.5223 -2.1266
  751MOL0     H 1370   4.449   2.164   8.303 -4.1068 -2.0143 -1.5031
  751MOL0     H 1371   6.020   3.612   8.476  2.2642  0.9954  0.8646
  751MOL0     H 1372   6.112   3.830   8.426  1.2611  1.2689  1.9690
  751MOL0     H 1373   6.394   4.151   8.660  2.7432  1.9177  0.9597
  751MOL0     H 1374   6.548   4.321   8.562 -0.5799  0.2646 -0.0178
  751MOL0     H 1375   6.374   4.629   8.275  2.4372  0.9584  3.5026
  751MOL0     H 1376   6.545   4.637   8.263  0.2734 -0.9887 -1.1353
  751MOL0     H 1377   6.479   4.560   8.069 -1.8883  0.5677 -0.0231
  751MOL0     H 1378   6.371   4.429   8.129  2.6952 -3.2463 -2.7592
  751MOL0     H 1379   6.565   4.291   8.203 -0.7937  0.3911 -0.3059
  751MOL0     H 1380   6.667   4.429   8.168 -1.9027  5.5500  0.1585
  751MOL0     H 1381   6.521   4.259   7.968 -1.3753 -1.1442  5.4443
  751MOL0     H 1382   6.696   4.281   7.991  1.8041  2.1232 -0.9395
  751MOL0     H 1383   6.694   4.608   7.753 -0.4404  1.3957  1.0029
  751MOL0     H 1384   6.220   4.461   8.313  0.5902 -1.0851 -1.4438
  751MOL0     H 1385   6.085   4.288   8.388  0.4089  0.2466 -1.5650
  752MOL0     O 1386   9.586   3.418   1.238  0.2612 -0.2116 -0.3151
  752MOL0     C 1387   9.593   3.540   1.220 -1.2659  0.7913 -0.2044
  752MOL0     O 1388   9.495   3.634   1.209 -0.1598  0.0421 -0.6842
  752MOL0     C 1389   9.361   3.608   1.209  0.2992 -0.3173 -0.3399
  752MOL0     C 1390   9.305   3.737   1.179  1.1078 -0.3885 -0.1255
  752MOL0     C 1391   9.166   3.740   1.174  0.1600 -0.6825 -0.7617
  752MOL0     C 1392   9.090   3.624   1.187 -0.3802 -0.6715 -1.6391
  752MOL0     O 1393   8.952   3.619   1.176 -1.0936  0.1391 -0.7798
  752MOL0     C 1394   8.877   3.702   1.087  0.7269  0.3987 -1.6394
  752MOL0     C 1395   8.919   3.677   0.945  0.3393 -0.1613 -0.2404
  752MOL0     C 1396   8.815   3.736   0.852 -0.3884  0.0200  1.1225
  752MOL0     C 1397   8.675   3.678   0.854  0.1041  0.3749 -0.0491
  752MOL0     C 1398   8.568   3.799   0.871 -0.1660  0.5766  1.0235
  752MOL0     C 1399   8.581   3.898   0.754  1.4208 -0.5310 -0.0717
  752MOL0     C 1400   8.500   4.033   0.783 -0.4338  1.2907  0.3640
  752MOL0     C 1401   8.356   4.018   0.792  0.0272  0.7962 -0.6814
  752MOL0     N 1402   8.291   4.152   0.814 -0.1958 -0.0922  0.1808
  752MOL0     C 1403   8.276   4.254   0.723 -0.3204  0.0395  0.5411
  752MOL0     C 1404   8.207   4.351   0.792 -0.0680  0.3745 -0.2149
  752MOL0     C 1405   8.158   4.479   0.743 -0.3197 -0.3521  0.5875
  752MOL0     C 1406   8.034   4.552   0.808 -0.6273 -0.3360 -0.1232
  752MOL0     C 1407   7.990   4.671   0.733 -0.3158  0.5179 -0.0959
  752MOL0     C 1408   7.882   4.762   0.803 -0.5212  0.4208 -0.3920
  752MOL0     O 1409   7.855   4.885   0.723  0.3022 -0.1088 -0.1565
  752MOL0     C 1410   7.836   4.874   0.588 -0.1072 -1.0812  1.0016
  752MOL0     C 1411   7.886   4.981   0.519  0.1135  0.1164  0.5266
  752MOL0     C 1412   7.885   4.990   0.379  0.1214 -0.6453  0.6384
  752MOL0     C 1413   7.971   5.089   0.303 -0.2509 -0.0987  0.8544
  752MOL0     C 1414   7.820   4.882   0.302  0.7558 -0.6249  0.0781
  752MOL0     C 1415   7.804   4.875   0.157 -0.3586 -0.6498  0.2018
  752MOL0     O 1416   7.703   4.800   0.111 -0.5684 -0.5539 -0.3892
  752MOL0     C 1417   7.694   4.778  -0.026 -1.0341 -1.2704 -0.1569
  752MOL0     C 1418   7.788   4.701  -0.098  0.1305 -0.0141 -0.1232
  752MOL0     C 1419   7.764   4.664  -0.228 -0.2536  0.1791  0.3616
  752MOL0     C 1420   7.653   4.709  -0.302  1.0050 -1.1177  1.1222
  752MOL0     O 1421   7.626   4.673  -0.425 -0.2304  0.0771  0.2424
  752MOL0     C 1422   7.514   4.597  -0.441  0.2413 -0.0893  0.3173
  752MOL0     C 1423   7.531   4.522  -0.584  0.2275  0.0351  0.5731
  752MOL0     C 1424   7.620   4.404  -0.573 -0.2177  0.1862 -0.3520
  752MOL0     C 1425   7.559   4.293  -0.482 -0.5924 -1.0182 -0.3745
  752MOL0     C 1426   7.640   4.156  -0.453 -0.0845 -0.6686 -0.1607
  752MOL0     C 1427   7.786   4.191  -0.402  0.7651 -0.1471  1.0931
  752MOL0     C 1428   7.852   4.062  -0.335 -0.6813 -0.0865 -0.6185
  752MOL0     C 1429   7.991   4.115  -0.288  0.0704  0.2016 -0.0546
  752MOL0    Cl 1430   7.989   4.249  -0.172  0.3283 -0.0094 -0.2345
  752MOL0     C 1431   7.567   4.798  -0.230 -0.2352  1.0050  0.1019
  752MOL0     C 1432   7.587   4.834  -0.093 -0.7132  0.6651  0.6442
  752MOL0     O 1433   7.890   4.927   0.086 -0.1149 -1.1395 -0.0713
  752MOL0     C 1434   7.757   4.784   0.375 -0.9078  0.0581 -0.3599
  752MOL0     C 1435   7.766   4.779   0.518 -0.4848 -1.3746  0.0568
  752MOL0     N 1436   8.187   4.310   0.922  1.0628  0.3380  0.5454
  752MOL0     N 1437   8.238   4.194   0.932 -0.0688  0.1240 -0.1544
  752MOL0     C 1438   9.148   3.502   1.220 -0.2648 -0.2206 -0.1811
  752MOL0     C 1439   9.284   3.494   1.238 -0.0361 -0.3794  0.4635
  752MOL0     C 1440   9.729   3.585   1.201 -0.4175 -0.2088  0.5143
  752MOL0     C 1441   9.760   3.717   1.218  0.1879 -0.3457  0.4255
  752MOL0     C 1442   9.875   3.777   1.179  0.0204 -0.0009 -0.4091
  752MOL0     C 1443   9.992   3.692   1.161 -0.0751 -0.7725  0.1065
  752MOL0     O 1444  10.113   3.767   1.144  0.0680 -0.1034 -0.8726
  752MOL0     C 1445  10.237   3.695   1.154  0.1769  0.0341  0.7147
  752MOL0     C 1446  10.343   3.798   1.124 -0.8382  0.7379 -1.7269
  752MOL0     C 1447  10.494   3.756   1.103 -0.4230 -0.5508  0.4446
  752MOL0     C 1448  10.590   3.863   1.151  1.0117  0.4738  0.0399
  752MOL0     C 1449  10.717   3.803   1.167  0.3166 -0.3559  0.2013
  752MOL0     C 1450  10.818   3.738   1.175  0.1438  0.0539  0.3233
  752MOL0     C 1451   9.980   3.552   1.158  0.8436  0.1145  1.0790
  752MOL0     C 1452   9.841   3.505   1.156 -0.2972 -0.3596  0.5044
  752MOL0     H 1453   9.373   3.821   1.179  0.7559  0.0301  2.8186
  752MOL0     H 1454   9.122   3.839   1.162  0.3682  0.1363  3.7340
  752MOL0     H 1455   8.775   3.665   1.103  0.2168  0.1463 -4.8745
  752MOL0     H 1456   8.889   3.808   1.111 -0.5399  0.1690  0.2704
  752MOL0     H 1457   9.005   3.733   0.908 -0.5498  2.2331  1.1172
  752MOL0     H 1458   8.933   3.570   0.926 -1.6956 -0.2936 -1.2232
  752MOL0     H 1459   8.815   3.841   0.880  1.2797 -0.4887  3.3652
  752MOL0     H 1460   8.864   3.726   0.754  0.7253 -1.5279  1.8014
  752MOL0     H 1461   8.649   3.637   0.756  0.3686  1.0802 -0.4217
  752MOL0     H 1462   8.665   3.606   0.936  3.7872 -0.3213 -0.0513
  752MOL0     H 1463   8.468   3.756   0.859 -0.4163  1.2620  0.6052
  752MOL0     H 1464   8.581   3.845   0.969  1.5616 -0.7511  1.4735
  752MOL0     H 1465   8.681   3.929   0.720  0.0849  1.9482 -2.1296
  752MOL0     H 1466   8.546   3.847   0.664  1.0925 -0.2686 -0.0943
  752MOL0     H 1467   8.527   4.081   0.878 -1.5133 -0.0739  1.4050
  752MOL0     H 1468   8.533   4.103   0.706 -1.3179  1.3107 -0.0108
  752MOL0     H 1469   8.343   3.942   0.870  2.7036 -1.2649 -2.0518
  752MOL0     H 1470   8.316   3.975   0.700  1.9490 -0.6950 -0.8911
  752MOL0     H 1471   8.316   4.249   0.622  3.8189 -2.5263  2.0378
  752MOL0     H 1472   8.241   4.551   0.744 -1.5375  1.1068  1.7078
  752MOL0     H 1473   8.125   4.458   0.641 -1.3580  2.9831  0.1077
  752MOL0     H 1474   8.064   4.580   0.909 -1.3096  2.6232 -0.6453
  752MOL0     H 1475   7.956   4.475   0.814  0.5009 -1.6396 -1.3751
  752MOL0     H 1476   7.957   4.637   0.634 -0.6632  2.7510 -0.8148
  752MOL0     H 1477   8.073   4.738   0.708 -0.8352  0.1123 -3.4629
  752MOL0     H 1478   7.926   4.801   0.896  2.5072  4.0267 -3.0460
  752MOL0     H 1479   7.790   4.708   0.828  1.4450 -2.0995  2.1056
  752MOL0     H 1480   7.918   5.061   0.584 -0.8322 -1.4369  3.0181
  752MOL0     H 1481   8.047   5.034   0.246 -0.6505  0.1606  0.0532
  752MOL0     H 1482   7.910   5.133   0.224  2.0013 -1.2161 -1.6810
  752MOL0     H 1483   8.008   5.175   0.358  0.4465  0.0767  0.1379
  752MOL0     H 1484   7.876   4.675  -0.040 -0.5489  0.1451  1.0148
  752MOL0     H 1485   7.829   4.607  -0.293  0.8617  2.0535 -0.2260
  752MOL0     H 1486   7.503   4.534  -0.353 -0.8649  0.6684  0.7424
  752MOL0     H 1487   7.432   4.666  -0.464  0.0414 -0.2001  0.7002
  752MOL0     H 1488   7.440   4.487  -0.633  2.0904  0.7050 -3.8079
  752MOL0     H 1489   7.592   4.583  -0.650 -0.8771 -1.4757 -1.9737
  752MOL0     H 1490   7.718   4.437  -0.537  0.5063  0.5230 -2.4968
  752MOL0     H 1491   7.645   4.366  -0.672 -0.3028  1.3751 -0.8421
  752MOL0     H 1492   7.534   4.329  -0.382 -2.0400 -1.1406 -0.6701
  752MOL0     H 1493   7.461   4.278  -0.528 -0.9238  1.3814 -0.5867
  752MOL0     H 1494   7.636   4.083  -0.535 -1.6585 -0.4262 -0.3348
  752MOL0     H 1495   7.592   4.106  -0.368 -2.4502  0.9761 -0.4351
  752MOL0     H 1496   7.851   4.210  -0.488  0.5442  1.2516  1.2196
  752MOL0     H 1497   7.777   4.279  -0.338  0.2329 -0.8981  2.0864
  752MOL0     H 1498   7.870   3.978  -0.402 -0.6614 -1.3566  0.9129
  752MOL0     H 1499   7.794   4.031  -0.247 -0.5844  1.2416 -0.0528
  752MOL0     H 1500   8.060   4.140  -0.369  2.0530 -1.8482  0.9029
  752MOL0     H 1501   8.042   4.032  -0.240 -0.6917 -0.8181 -0.9500
  752MOL0     H 1502   7.481   4.846  -0.276 -2.0945 -1.9218  0.2592
  752MOL0     H 1503   7.514   4.900  -0.047 -1.2301  1.9278 -1.8128
  752MOL0     H 1504   7.711   4.695   0.334 -1.4113 -0.1159  0.5572
  752MOL0     H 1505   7.727   4.701   0.582 -1.1390 -0.8200  0.3489
  752MOL0     H 1506   9.078   3.421   1.234 -0.4730 -0.0844 -0.4196
  752MOL0     H 1507   9.338   3.406   1.271 -0.2557 -0.9419 -0.6507
  752MOL0     H 1508   9.683   3.787   1.248  0.8539  1.0391 -0.9459
  752MOL0     H 1509   9.877   3.886   1.186 -0.6235 -0.0462  0.7632
  752MOL0     H 1510  10.241   3.654   1.255 -1.8258 -3.1804 -0.3450
  752MOL0     H 1511  10.246   3.606   1.091  2.3747 -0.5845  1.8003
  752MOL0     H 1512  10.339   3.871   1.205  0.0303 -2.1748  1.1564
  752MOL0     H 1513  10.313   3.858   1.038  0.2812  3.4835 -0.3169
  752MOL0     H 1514  10.523   3.730   1.001  0.7009  3.4529 -0.4025
  752MOL0     H 1515  10.504   3.667   1.165  1.1697 -1.9694 -1.6874
  752MOL0     H 1516  10.554   3.914   1.241 -0.8853 -0.4887 -0.1293
  752MOL0     H 1517  10.601   3.941   1.075  0.3073 -1.6710 -2.4285
  752MOL0     H 1518  10.908   3.680   1.167 -0.0634 -0.0694 -1.4865
  752MOL0     H 1519  10.044   3.476   1.115 -3.1661 -0.6069 -4.7525
  752MOL0     H 1520   9.826   3.401   1.132 -2.1959  0.4095 -2.0713
  753MOL0     O 1521   2.278   1.415  10.981  0.8813  0.0179 -0.0524
  753MOL0     C 1522   2.162   1.416  11.031 -0.2060  0.4341  0.1925
  753MOL0     O 1523   2.129   1.409  11.169 -0.0943  0.4250 -0.5280
  753MOL0     C 1524   2.226   1.415  11.268  0.3709  0.6647 -0.3796
  753MOL0     C 1525   2.341   1.490  11.279 -0.0830  0.1420  0.3341
  753MOL0     C 1526   2.433   1.479  11.382  0.5944 -0.0231 -0.0069
  753MOL0     C 1527   2.414   1.390  11.489  0.4672 -0.4831 -0.0363
  753MOL0     O 1528   2.498   1.380  11.594 -0.0877  0.4898  0.2445
  753MOL0     C 1529   2.632   1.423  11.566 -0.0902  0.7408 -0.8583
  753MOL0     C 1530   2.738   1.376  11.669  0.0736 -0.3433 -0.6801
  753MOL0     C 1531   2.789   1.242  11.616 -0.8267 -0.3098  0.6800
  753MOL0     C 1532   2.885   1.166  11.706 -0.1254  0.2524 -0.1027
  753MOL0     C 1533   2.802   1.104  11.825  0.1506 -0.5512 -0.1095
  753MOL0     C 1534   2.875   0.999  11.898 -0.0706 -0.5747 -0.4462
  753MOL0     C 1535   2.790   0.956  12.024  0.6546  0.1077 -0.0915
  753MOL0     C 1536   2.832   0.817  12.051  0.5007  0.2239  0.5876
  753MOL0     N 1537   2.746   0.772  12.167 -0.2239  0.5386  0.4561
  753MOL0     C 1538   2.767   0.813  12.293 -0.5375 -0.5862 -0.4534
  753MOL0     C 1539   2.667   0.764  12.358  0.3739 -0.2960 -0.0755
  753MOL0     C 1540   2.628   0.774  12.502  0.3652  0.5614 -0.5761
  753MOL0     C 1541   2.696   0.899  12.573 -0.0999  0.3385 -0.6380
  753MOL0     C 1542   2.638   0.904  12.717 -0.1170 -0.4463  0.6819
  753MOL0     C 1543   2.609   1.045  12.773 -0.6007 -0.2109 -0.1445
  753MOL0     O 1544   2.730   1.125  12.779 -0.5306 -0.3443  0.1731
  753MOL0     C 1545   2.709   1.258  12.785  1.4113  0.3877  1.2568
  753MOL0     C 1546   2.622   1.331  12.694 -0.1808  0.8980  0.3841
  753MOL0     C 1547   2.597   1.470  12.709  0.5763  0.2896  0.6503
  753MOL0     C 1548   2.489   1.546  12.634  0.0971  1.3385  0.2286
  753MOL0     C 1549   2.685   1.550  12.797 -0.4390  0.2215  0.3514
  753MOL0     C 1550   2.685   1.692  12.806 -1.0348  0.6914 -0.5452
  753MOL0     O 1551   2.806   1.749  12.851 -0.8960  0.1973 -0.0096
  753MOL0     C 1552   2.841   1.877  12.832 -0.7346  0.7633  0.4261
  753MOL0     C 1553   2.976   1.912  12.841 -0.0323  0.3750  0.2147
  753MOL0     C 1554   3.033   2.041  12.811 -0.0196 -0.0778 -0.0323
  753MOL0     C 1555   2.935   2.144  12.783  0.1247  0.9894 -0.4041
  753MOL0     O 1556   2.961   2.275  12.747 -0.6538 -0.1590 -1.0789
  753MOL0     C 1557   3.076   2.334  12.815  0.5671  0.0180  0.7837
  753MOL0     C 1558   3.095   2.481  12.780  0.0036 -1.1627 -0.5276
  753MOL0     C 1559   3.177   2.504  12.654  0.5977 -1.5401 -0.9068
  753MOL0     C 1560   3.205   2.649  12.628  0.5292 -0.3304 -0.5278
  753MOL0     C 1561   3.286   2.678  12.503 -1.3181 -0.3373 -0.6531
  753MOL0     C 1562   3.230   2.624  12.376 -0.0651  0.7068  0.2491
  753MOL0     C 1563   3.312   2.680  12.258  0.0551  0.6276  0.2032
  753MOL0     C 1564   3.464   2.648  12.260  0.4433  0.3145 -0.9391
  753MOL0    Cl 1565   3.547   2.647  12.097 -0.0047  0.0697  0.0906
  753MOL0     C 1566   2.800   2.108  12.774 -0.2006 -0.4030 -0.4425
  753MOL0     C 1567   2.752   1.978  12.796 -1.3134 -0.0413  0.0824
  753MOL0     O 1568   2.574   1.751  12.792 -0.9469  0.0663 -0.9071
  753MOL0     C 1569   2.779   1.467  12.871  0.1171 -0.5238  0.5959
  753MOL0     C 1570   2.771   1.330  12.879 -0.3169 -0.1057 -0.3931
  753MOL0     N 1571   2.581   0.700  12.270  0.1160 -0.5044  0.0226
  753MOL0     N 1572   2.638   0.695  12.153  0.6804  0.6731  0.4313
  753MOL0     C 1573   2.293   1.322  11.486  0.5579 -0.6069 -0.2121
  753MOL0     C 1574   2.198   1.333  11.382 -0.1303  0.1919 -1.0136
  753MOL0     C 1575   2.043   1.417  10.933  0.2749 -0.8789 -1.1670
  753MOL0     C 1576   2.052   1.474  10.807 -0.1345 -0.0316  0.0404
  753MOL0     C 1577   1.947   1.475  10.718 -0.3585 -1.2183  0.6207
  753MOL0     C 1578   1.826   1.431  10.752 -0.0133  0.5640  0.3714
  753MOL0     O 1579   1.728   1.437  10.654  0.6613  0.3236 -0.1962
  753MOL0     C 1580   1.589   1.444  10.695  1.4523 -0.3417  0.1814
  753MOL0     C 1581   1.546   1.583  10.755 -0.4054 -0.4892 -0.2977
  753MOL0     C 1582   1.572   1.698  10.657 -0.4855 -0.1739 -0.2223
  753MOL0     C 1583   1.562   1.831  10.717 -0.3969 -0.7474  0.3390
  753MOL0     C 1584   1.460   1.865  10.816 -0.8734  0.7829  0.3791
  753MOL0     C 1585   1.368   1.894  10.897  0.7151  1.6178 -0.6713
  753MOL0     C 1586   1.812   1.374  10.877  0.8849  0.1683  0.4858
  753MOL0     C 1587   1.918   1.359  10.969  0.5652 -1.3167  0.4523
  753MOL0     H 1588   2.361   1.564  11.202 -0.4991 -0.1206 -0.0361
  753MOL0     H 1589   2.516   1.549  11.388  2.6699 -2.4569  2.3114
  753MOL0     H 1590   2.652   1.388  11.465  3.6950 -2.5669  0.7748
  753MOL0     H 1591   2.635   1.533  11.561 -0.2468  0.7281 -1.2457
  753MOL0     H 1592   2.825   1.439  11.692  1.5777 -2.8727  1.1545
  753MOL0     H 1593   2.680   1.350  11.758  1.4266 -1.2999 -0.0395
  753MOL0     H 1594   2.700   1.180  11.599 -1.1813  0.2549  0.4742
  753MOL0     H 1595   2.841   1.263  11.522 -0.4754 -0.2894  0.8770
  753MOL0     H 1596   2.932   1.080  11.658  0.8250  0.2454  0.8192
  753MOL0     H 1597   2.965   1.234  11.734  3.2859 -3.5884  0.4057
  753MOL0     H 1598   2.771   1.197  11.872  0.2466  0.1697 -1.4344
  753MOL0     H 1599   2.714   1.056  11.780 -1.2334  1.2157  0.6015
  753MOL0     H 1600   2.893   0.913  11.833  0.4749 -0.8845  0.1083
  753MOL0     H 1601   2.975   1.042  11.909  0.7494 -1.1380 -4.2125
  753MOL0     H 1602   2.804   1.020  12.112 -1.4043  1.5747 -0.7622
  753MOL0     H 1603   2.682   0.949  12.009  0.3985  1.0192  1.1206
  753MOL0     H 1604   2.936   0.809  12.083  0.3212  0.3200  1.2163
  753MOL0     H 1605   2.800   0.751  11.970 -0.5441  2.1935 -0.6868
  753MOL0     H 1606   2.851   0.877  12.316  2.0143 -3.1862 -1.9344
  753MOL0     H 1607   2.520   0.768  12.515  0.2736 -0.9481 -1.8409
  753MOL0     H 1608   2.663   0.690  12.562 -0.0174 -0.6217 -1.9584
  753MOL0     H 1609   2.682   0.997  12.527 -0.0941  0.9369  0.6087
  753MOL0     H 1610   2.801   0.869  12.569  0.5770  2.5191 -0.5345
  753MOL0     H 1611   2.711   0.855  12.783  3.5566  0.3491 -2.4261
  753MOL0     H 1612   2.547   0.845  12.723 -1.8054  1.9666  0.3399
  753MOL0     H 1613   2.548   1.051  12.864 -0.9257 -0.4481 -0.3447
  753MOL0     H 1614   2.537   1.092  12.705 -3.2830 -3.2183  0.3902
  753MOL0     H 1615   2.573   1.266  12.622 -0.5947  2.1271 -0.4754
  753MOL0     H 1616   2.545   1.621  12.578  0.9659  0.1661 -0.5275
  753MOL0     H 1617   2.447   1.489  12.551  1.9125  1.7634 -1.0573
  753MOL0     H 1618   2.411   1.589  12.697  0.4139  0.3262  1.3608
  753MOL0     H 1619   3.044   1.837  12.880  0.6384  1.0629  0.3980
  753MOL0     H 1620   3.140   2.060  12.809  0.1632 -1.0295  0.3636
  753MOL0     H 1621   3.064   2.332  12.924 -2.4264  0.8170  0.5609
  753MOL0     H 1622   3.171   2.284  12.794  1.5987  1.4678  1.7929
  753MOL0     H 1623   2.996   2.528  12.781  0.3671 -0.2851  1.8706
  753MOL0     H 1624   3.149   2.534  12.859 -0.7136 -0.6938 -0.3432
  753MOL0     H 1625   3.122   2.459  12.571 -1.3850  1.3065 -1.2485
  753MOL0     H 1626   3.268   2.443  12.658 -0.7095 -3.5388  1.3364
  753MOL0     H 1627   3.103   2.690  12.634  0.1077 -1.3385 -0.7162
  753MOL0     H 1628   3.257   2.695  12.712 -1.8433 -2.0757  2.0671
  753MOL0     H 1629   3.386   2.646  12.536 -2.2289 -1.9030  0.7071
  753MOL0     H 1630   3.280   2.787  12.496  0.4635 -0.1587  0.0296
  753MOL0     H 1631   3.220   2.515  12.378  2.6236  0.3995  1.6229
  753MOL0     H 1632   3.129   2.658  12.351 -0.5180  0.1123  1.2023
  753MOL0     H 1633   3.296   2.788  12.256  0.4813  0.7151  1.0318
  753MOL0     H 1634   3.263   2.634  12.171 -2.8502 -1.2690  2.6013
  753MOL0     H 1635   3.462   2.549  12.306 -5.2020  0.8056  0.6660
  753MOL0     H 1636   3.506   2.726  12.325 -1.2892  4.2849 -4.1227
  753MOL0     H 1637   2.736   2.193  12.750 -0.8148  0.3227  3.1470
  753MOL0     H 1638   2.649   1.960  12.768 -1.7331  0.0251  1.5002
  753MOL0     H 1639   2.859   1.518  12.922 -0.8332  3.6979 -1.6621
  753MOL0     H 1640   2.855   1.290  12.936 -0.2722  2.5758  1.6431
  753MOL0     H 1641   2.266   1.253  11.565  1.7137 -1.1969 -0.3030
  753MOL0     H 1642   2.111   1.269  11.383  0.0585 -0.0789 -1.5755
  753MOL0     H 1643   2.150   1.496  10.765 -0.6827  0.0208 -1.2672
  753MOL0     H 1644   1.977   1.511  10.620  0.9156  1.4937  1.9042
  753MOL0     H 1645   1.530   1.423  10.606 -0.9974  1.3713  1.2697
  753MOL0     H 1646   1.561   1.359  10.758  2.5849 -2.6141 -2.2112
  753MOL0     H 1647   1.599   1.603  10.848 -1.3161  2.4862 -0.3144
  753MOL0     H 1648   1.439   1.590  10.778 -0.5242 -1.0245 -0.6509
  753MOL0     H 1649   1.503   1.685  10.572 -1.8870 -0.8802  0.9863
  753MOL0     H 1650   1.665   1.683  10.601 -0.3328  0.6732 -0.2143
  753MOL0     H 1651   1.554   1.896  10.630  0.7465 -2.0431 -0.7909
  753MOL0     H 1652   1.659   1.841  10.767 -0.7686  0.0394  0.9233
  753MOL0     H 1653   1.300   1.912  10.978  0.4308 -0.1949 -0.4685
  753MOL0     H 1654   1.721   1.323  10.906 -0.7091  1.9609 -1.0622
  753MOL0     H 1655   1.899   1.320  11.068  0.1995  2.1902  1.9145
  754MOL0     O 1656  10.735   7.366   3.265  0.7343 -0.6335  0.1418
  754MOL0     C 1657  10.764   7.249   3.259  0.5568 -0.0553 -0.4367
  754MOL0     O 1658  10.878   7.199   3.212 -0.2049  0.1582  0.1053
  754MOL0     C 1659  10.995   7.269   3.221 -0.2340 -0.2690  0.7483
  754MOL0     C 1660  11.094   7.233   3.130  0.6467 -0.4862 -0.0796
  754MOL0     C 1661  11.223   7.292   3.127  0.4159 -0.3334  0.3157
  754MOL0     C 1662  11.249   7.406   3.203 -0.1513  0.0882 -0.4168
  754MOL0     O 1663  11.375   7.467   3.170  0.5645 -0.0943 -0.2077
  754MOL0     C 1664  11.470   7.472   3.275  0.5011  0.1696  0.1747
  754MOL0     C 1665  11.578   7.360   3.266  0.9980 -0.8140 -0.0417
  754MOL0     C 1666  11.504   7.228   3.297 -0.1021 -0.4039 -0.3650
  754MOL0     C 1667  11.580   7.121   3.379 -1.2007  0.7353  1.1096
  754MOL0     C 1668  11.620   7.168   3.523  0.0998 -0.6541 -0.3649
  754MOL0     C 1669  11.635   7.053   3.618  0.2838  0.8063 -0.4221
  754MOL0     C 1670  11.669   7.107   3.762  0.2779 -0.1970  0.0321
  754MOL0     C 1671  11.657   7.001   3.866  0.5726  0.7516  0.0120
  754MOL0     N 1672  11.695   7.035   3.997 -0.4156 -0.1582 -0.4847
  754MOL0     C 1673  11.655   7.144   4.072  0.2341  0.0569  0.3189
  754MOL0     C 1674  11.737   7.144   4.185  0.4736 -0.1388  0.0469
  754MOL0     C 1675  11.733   7.247   4.296 -0.1071  0.5887  0.7966
  754MOL0     C 1676  11.817   7.365   4.256  0.8731 -0.4424  0.4679
  754MOL0     C 1677  11.824   7.474   4.355  0.2721 -0.5517 -0.6691
  754MOL0     C 1678  11.723   7.483   4.460  0.7556 -0.4351 -0.8329
  754MOL0     O 1679  11.723   7.378   4.562 -0.0258 -0.4454 -0.2675
  754MOL0     C 1680  11.622   7.387   4.662  0.0160 -0.4541 -0.0190
  754MOL0     C 1681  11.550   7.281   4.706  0.1144  0.1664  0.9151
  754MOL0     C 1682  11.460   7.283   4.814 -0.5606  0.2896  0.0421
  754MOL0     C 1683  11.387   7.155   4.837 -0.4661  0.9622  0.0861
  754MOL0     C 1684  11.463   7.397   4.895 -0.4639 -0.0435  0.5941
  754MOL0     C 1685  11.409   7.405   5.035 -0.7177  0.8252  0.7380
  754MOL0     O 1686  11.361   7.513   5.083  0.2130 -0.8505 -0.0831
  754MOL0     C 1687  11.294   7.505   5.202 -0.3853  1.1343 -0.4383
  754MOL0     C 1688  11.350   7.563   5.317  0.2228 -0.6833 -0.5411
  754MOL0     C 1689  11.271   7.562   5.441 -1.1471  0.1233  0.9364
  754MOL0     C 1690  11.146   7.504   5.438  0.5624 -0.2563  0.5582
  754MOL0     O 1691  11.066   7.514   5.544 -0.8504  0.5587  0.1375
  754MOL0     C 1692  11.048   7.396   5.625  0.5004  0.2699  0.4712
  754MOL0     C 1693  11.112   7.411   5.763 -0.1543  0.0833 -0.0866
  754MOL0     C 1694  11.260   7.390   5.766 -1.1435  1.0776  0.4271
  754MOL0     C 1695  11.294   7.243   5.783 -0.0668 -0.2626 -0.2762
  754MOL0     C 1696  11.442   7.206   5.758  0.3757  0.4217 -0.7143
  754MOL0     C 1697  11.456   7.057   5.779  0.6434  0.3779 -0.2501
  754MOL0     C 1698  11.602   7.013   5.759  0.1250  0.1110 -0.7138
  754MOL0     C 1699  11.620   6.863   5.752  0.2933  0.8811 -0.1314
  754MOL0    Cl 1700  11.531   6.787   5.886  0.0885  0.1805  0.0678
  754MOL0     C 1701  11.091   7.443   5.321 -0.4793 -1.0619 -0.2845
  754MOL0     C 1702  11.164   7.446   5.201 -0.7077 -0.3655  0.4677
  754MOL0     O 1703  11.416   7.301   5.096  0.7607 -0.2293  1.3143
  754MOL0     C 1704  11.518   7.518   4.840 -0.2657  0.9662  0.9187
  754MOL0     C 1705  11.598   7.513   4.726  0.4649  0.0545  0.5120
  754MOL0     N 1706  11.832   7.044   4.179  0.1700 -0.6632  0.4423
  754MOL0     N 1707  11.804   6.985   4.061 -0.1580  0.0654 -0.9625
  754MOL0     C 1708  11.158   7.438   3.307  0.8293 -0.8001  0.0426
  754MOL0     C 1709  11.032   7.376   3.310  0.9629  0.0124  0.5995
  754MOL0     C 1710  10.663   7.153   3.309 -0.0236  0.1974 -0.0756
  754MOL0     C 1711  10.714   7.023   3.342 -0.4848 -0.2171 -0.1873
  754MOL0     C 1712  10.625   6.927   3.386 -0.0665 -0.2559  0.3238
  754MOL0     C 1713  10.489   6.960   3.413  0.3387 -0.9751 -0.2183
  754MOL0     O 1714  10.406   6.875   3.481  0.2488  0.7707  0.0745
  754MOL0     C 1715  10.466   6.774   3.558  0.1630 -0.1403 -0.0935
  754MOL0     C 1716  10.385   6.725   3.674  0.1398 -1.3950 -0.1465
  754MOL0     C 1717  10.456   6.614   3.753  0.4559  0.7241  0.5056
  754MOL0     C 1718  10.381   6.606   3.888  0.0695  0.1223 -0.1928
  754MOL0     C 1719  10.401   6.474   3.932  0.0767  0.4163  1.2841
  754MOL0     C 1720  10.403   6.355   3.970 -0.5036 -0.4763  0.7088
  754MOL0     C 1721  10.443   7.093   3.393  0.5221 -0.4662 -0.0062
  754MOL0     C 1722  10.531   7.187   3.334  0.1077  0.6028  0.8540
  754MOL0     H 1723  11.065   7.166   3.050  0.3257 -0.1622 -0.2332
  754MOL0     H 1724  11.298   7.262   3.054  0.7776  1.2830 -0.0092
  754MOL0     H 1725  11.521   7.567   3.254  0.8646 -0.2066 -0.6873
  754MOL0     H 1726  11.416   7.489   3.368  0.6597  0.6731  0.1750
  754MOL0     H 1727  11.622   7.341   3.168 -1.4381 -0.5925 -1.2397
  754MOL0     H 1728  11.653   7.390   3.340 -0.5036 -0.9670  1.5917
  754MOL0     H 1729  11.416   7.249   3.357  0.6365 -1.6478  1.2223
  754MOL0     H 1730  11.475   7.187   3.200 -3.7643 -0.1778  0.5003
  754MOL0     H 1731  11.515   7.033   3.371  1.1146 -1.0651  0.9819
  754MOL0     H 1732  11.671   7.094   3.325 -0.5329  0.1077  2.4910
  754MOL0     H 1733  11.715   7.222   3.519 -0.5667  0.4788 -2.7559
  754MOL0     H 1734  11.548   7.241   3.559 -1.8425 -1.7171 -1.8818
  754MOL0     H 1735  11.542   6.996   3.621  0.6598  0.2158  0.6837
  754MOL0     H 1736  11.715   6.985   3.587  1.0565 -0.0513  3.0747
  754MOL0     H 1737  11.771   7.145   3.764  0.4070 -0.5502  0.4487
  754MOL0     H 1738  11.608   7.195   3.784  2.7679  1.1763  2.0098
  754MOL0     H 1739  11.701   6.904   3.840  1.4152  0.1201  3.3619
  754MOL0     H 1740  11.549   6.981   3.870  0.5827  0.9325  1.3214
  754MOL0     H 1741  11.568   7.203   4.044 -0.3194 -0.3966  1.0278
  754MOL0     H 1742  11.630   7.272   4.323 -0.3709  1.1615 -0.6606
  754MOL0     H 1743  11.783   7.209   4.386  2.7473  0.5965 -0.6541
  754MOL0     H 1744  11.775   7.398   4.160  1.0694 -1.4902  0.0048
  754MOL0     H 1745  11.924   7.347   4.238  0.6394 -0.6472 -0.8341
  754MOL0     H 1746  11.826   7.564   4.294  1.5143 -1.3517 -1.8810
  754MOL0     H 1747  11.922   7.475   4.404  0.0381  0.3837 -0.1883
  754MOL0     H 1748  11.626   7.486   4.409 -0.2681  0.5205  1.0763
  754MOL0     H 1749  11.750   7.581   4.502  1.4907  0.5739 -3.4197
  754MOL0     H 1750  11.569   7.194   4.644  2.9759 -0.2493  2.2040
  754MOL0     H 1751  11.282   7.180   4.854 -0.1420  3.8384 -1.4770
  754MOL0     H 1752  11.396   7.082   4.755  0.7500  0.4775  0.6261
  754MOL0     H 1753  11.421   7.106   4.929 -0.2101 -1.1765 -1.0733
  754MOL0     H 1754  11.443   7.619   5.313  0.8442 -1.5900  0.7197
  754MOL0     H 1755  11.303   7.620   5.526 -1.5409  4.5778 -1.6462
  754MOL0     H 1756  10.943   7.364   5.633  0.8601 -0.5282  2.6123
  754MOL0     H 1757  11.096   7.312   5.575 -1.3163 -2.0545  2.3968
  754MOL0     H 1758  11.099   7.514   5.798  2.4300  0.7460 -0.8900
  754MOL0     H 1759  11.069   7.342   5.836 -1.9507  1.1968 -0.0092
  754MOL0     H 1760  11.299   7.450   5.850 -1.8490  2.5947 -0.2958
  754MOL0     H 1761  11.301   7.424   5.670  0.3817 -1.3638  0.1371
  754MOL0     H 1762  11.274   7.207   5.885 -1.6808  0.2782 -0.3749
  754MOL0     H 1763  11.223   7.196   5.715 -0.0723  1.0639 -1.2234
  754MOL0     H 1764  11.494   7.268   5.832 -0.3138  0.4597 -0.2551
  754MOL0     H 1765  11.469   7.221   5.653  1.8931  2.1980 -0.1333
  754MOL0     H 1766  11.423   7.037   5.882 -0.4391  1.5441 -0.3447
  754MOL0     H 1767  11.400   6.992   5.713 -0.4691 -0.5401  1.5086
  754MOL0     H 1768  11.667   7.051   5.839  1.3487 -4.3196  0.7011
  754MOL0     H 1769  11.646   7.044   5.664  0.6133 -0.1684 -0.5843
  754MOL0     H 1770  11.726   6.836   5.757  0.8680  2.3378 -2.7963
  754MOL0     H 1771  11.587   6.831   5.653 -0.0569 -1.2965  0.6348
  754MOL0     H 1772  10.990   7.404   5.328 -0.5559 -1.0819 -1.2522
  754MOL0     H 1773  11.128   7.424   5.101  1.3787  2.6142 -1.0801
  754MOL0     H 1774  11.522   7.604   4.907  2.4483  1.6781 -0.0102
  754MOL0     H 1775  11.654   7.597   4.687  0.4125  0.2208  0.7889
  754MOL0     H 1776  11.172   7.514   3.383  1.4737 -0.0480 -0.8119
  754MOL0     H 1777  10.969   7.433   3.377  1.1125  0.3687  0.4345
  754MOL0     H 1778  10.819   7.000   3.328 -0.8370 -0.5279 -2.8814
  754MOL0     H 1779  10.666   6.826   3.389 -0.0002 -0.2201  0.5782
  754MOL0     H 1780  10.483   6.688   3.493  1.6907  1.2131 -1.5754
  754MOL0     H 1781  10.560   6.808   3.604  0.3390  2.3370 -2.0775
  754MOL0     H 1782  10.288   6.691   3.636 -0.4123 -0.7804  0.6599
  754MOL0     H 1783  10.385   6.817   3.733  2.7718 -0.7343 -1.0293
  754MOL0     H 1784  10.562   6.620   3.777  0.6076 -2.6030  1.1952
  754MOL0     H 1785  10.453   6.516   3.704  0.0651 -0.2967  2.4526
  754MOL0     H 1786  10.273   6.621   3.881 -0.1615 -1.3212 -0.0126
  754MOL0     H 1787  10.423   6.683   3.955  0.9265  1.0587 -1.7504
  754MOL0     H 1788  10.399   6.259   4.018 -1.2709 -0.6083  0.3913
  754MOL0     H 1789  10.337   7.108   3.411  0.9030  1.1076  1.0698
  754MOL0     H 1790  10.497   7.288   3.313  0.4799  0.6117  0.2704
  755MOL0     O 1791   1.068   8.313   2.405  0.3731  0.0035  0.4767
  755MOL0     C 1792   1.043   8.339   2.290  0.9020 -0.5652  0.1436
  755MOL0     O 1793   1.067   8.458   2.226 -0.4372  0.2292 -0.0972
  755MOL0     C 1794   1.144   8.555   2.287 -0.2783 -0.1868 -0.3013
  755MOL0     C 1795   1.222   8.625   2.188  0.3163  0.1624  0.1990
  755MOL0     C 1796   1.323   8.718   2.218  0.3388  0.7604  0.8237
  755MOL0     C 1797   1.341   8.762   2.352 -0.6651  0.2654 -0.4822
  755MOL0     O 1798   1.433   8.868   2.375  0.7261  0.4633  0.0254
  755MOL0     C 1799   1.472   8.926   2.497  0.6045  0.9897  0.5146
  755MOL0     C 1800   1.385   9.042   2.554 -0.4391 -0.0221  0.5015
  755MOL0     C 1801   1.235   9.024   2.529 -0.4856 -0.3895 -0.4831
  755MOL0     C 1802   1.152   9.079   2.646  0.1303  0.3336  0.1696
  755MOL0     C 1803   0.999   9.083   2.621  0.5703 -0.1420 -1.2011
  755MOL0     C 1804   0.931   9.167   2.733 -0.1621  0.2142 -0.1273
  755MOL0     C 1805   0.785   9.204   2.697  0.1825 -0.9526 -0.1402
  755MOL0     C 1806   0.763   9.298   2.573 -0.2724  0.1330  0.2199
  755MOL0     N 1807   0.624   9.326   2.541  0.3182  0.8223 -0.4494
  755MOL0     C 1808   0.568   9.328   2.410 -0.1848  0.0522 -0.2166
  755MOL0     C 1809   0.439   9.378   2.434 -0.2438 -0.2344 -0.2365
  755MOL0     C 1810   0.319   9.389   2.336 -0.8740  0.5516  0.0945
  755MOL0     C 1811   0.185   9.369   2.419  0.1901 -0.4876 -0.6646
  755MOL0     C 1812   0.051   9.393   2.336 -0.1760 -1.5845 -0.8679
  755MOL0     C 1813  -0.068   9.372   2.429  0.1357 -0.8803 -0.5748
  755MOL0     O 1814  -0.063   9.476   2.539 -1.1813 -0.2086  1.2202
  755MOL0     C 1815  -0.092   9.432   2.661  0.4859  0.4477  0.2722
  755MOL0     C 1816  -0.197   9.339   2.688  0.0277  0.2516 -0.8902
  755MOL0     C 1817  -0.234   9.315   2.819 -0.1761  0.0669 -0.2358
  755MOL0     C 1818  -0.367   9.249   2.841 -0.0719 -0.0134 -0.4962
  755MOL0     C 1819  -0.162   9.375   2.931 -0.5412 -0.1030 -0.4024
  755MOL0     C 1820  -0.202   9.359   3.069  0.0381 -0.0131 -0.3191
  755MOL0     O 1821  -0.246   9.239   3.116  0.1400  0.5182 -0.0551
  755MOL0     C 1822  -0.256   9.218   3.248 -0.1914  0.3444 -0.6729
  755MOL0     C 1823  -0.139   9.208   3.330  0.0171  0.9829  0.9204
  755MOL0     C 1824  -0.137   9.186   3.471 -0.0900  0.8326  0.5189
  755MOL0     C 1825  -0.254   9.174   3.529 -0.0050  0.2281  0.3529
  755MOL0     O 1826  -0.270   9.150   3.659  0.3640 -0.1942 -1.0424
  755MOL0     C 1827  -0.155   9.093   3.730 -0.1932 -0.3138 -0.6562
  755MOL0     C 1828  -0.149   8.945   3.693  0.1739  1.3353 -0.8310
  755MOL0     C 1829  -0.250   8.852   3.763 -0.7854 -0.0731 -0.1553
  755MOL0     C 1830  -0.394   8.892   3.759 -0.1671  0.0252 -0.1934
  755MOL0     C 1831  -0.486   8.778   3.796 -0.1371 -0.2038 -0.1556
  755MOL0     C 1832  -0.450   8.697   3.918  0.1814 -0.2765  0.5176
  755MOL0     C 1833  -0.526   8.571   3.898 -0.5436 -0.2547  0.3979
  755MOL0     C 1834  -0.534   8.487   4.019 -0.1250 -0.4998 -0.2728
  755MOL0    Cl 1835  -0.400   8.405   4.084  0.0009  0.0667  0.3229
  755MOL0     C 1836  -0.378   9.180   3.456 -0.3717 -0.5870 -0.0358
  755MOL0     C 1837  -0.375   9.204   3.312 -0.2149  0.7821  0.0259
  755MOL0     O 1838  -0.191   9.454   3.142 -0.8056  0.3609 -0.9129
  755MOL0     C 1839  -0.050   9.450   2.905  0.0689 -0.0167  0.0069
  755MOL0     C 1840  -0.016   9.481   2.770  0.3493 -0.5610  0.3451
  755MOL0     N 1841   0.437   9.414   2.574  1.8116  0.0307 -0.2787
  755MOL0     N 1842   0.535   9.381   2.632 -0.1754  1.3088 -1.2730
  755MOL0     C 1843   1.268   8.691   2.450  0.4695 -0.1066 -0.7387
  755MOL0     C 1844   1.169   8.587   2.419  0.3204 -1.3994 -0.5440
  755MOL0     C 1845   0.971   8.237   2.221 -0.1481  0.6494 -0.0546
  755MOL0     C 1846   0.960   8.105   2.258 -0.0861  0.4112 -0.8530
  755MOL0     C 1847   0.883   8.009   2.191  0.3918 -0.3360  0.1943
  755MOL0     C 1848   0.816   8.037   2.069 -1.4194 -0.6563  0.2526
  755MOL0     O 1849   0.755   7.951   1.984  0.0036  0.7719  0.2824
  755MOL0     C 1850   0.751   7.808   2.011 -0.7924  1.1904  0.1123
  755MOL0     C 1851   0.689   7.729   1.886 -0.4747  0.1151  0.1635
  755MOL0     C 1852   0.754   7.599   1.869  0.1806  0.1307 -0.1210
  755MOL0     C 1853   0.678   7.496   1.778 -1.1793  0.1454 -0.1942
  755MOL0     C 1854   0.718   7.526   1.642  1.3556 -0.1643  0.4189
  755MOL0     C 1855   0.736   7.560   1.522  0.1887  0.5186 -0.4327
  755MOL0     C 1856   0.825   8.168   2.028  0.1404  0.0063 -0.2801
  755MOL0     C 1857   0.900   8.265   2.096  0.3787  0.6255 -0.5714
  755MOL0     H 1858   1.217   8.619   2.080 -2.8826  1.6626  0.1470
  755MOL0     H 1859   1.379   8.766   2.139  0.4960 -1.1161 -0.2547
  755MOL0     H 1860   1.484   8.859   2.582 -0.1410  0.8320  0.5005
  755MOL0     H 1861   1.567   8.971   2.465  1.1061 -2.0112 -2.8816
  755MOL0     H 1862   1.409   9.049   2.661 -3.8983 -2.7351  1.6556
  755MOL0     H 1863   1.416   9.137   2.510 -0.8785 -0.4264 -0.7347
  755MOL0     H 1864   1.198   9.082   2.444 -1.1806  1.7383  1.1953
  755MOL0     H 1865   1.213   8.917   2.521 -0.5607 -0.2582 -2.8940
  755MOL0     H 1866   1.170   9.019   2.735  1.2776  1.1310  0.5021
  755MOL0     H 1867   1.199   9.177   2.659  0.1772  0.7746 -2.5639
  755MOL0     H 1868   0.986   9.135   2.526 -1.7467  2.5815  0.4232
  755MOL0     H 1869   0.967   8.980   2.606 -1.3681  0.2026  0.0833
  755MOL0     H 1870   0.932   9.106   2.824 -1.3406  3.3602  2.2005
  755MOL0     H 1871   0.990   9.260   2.743 -0.1976  0.0309  2.4822
  755MOL0     H 1872   0.732   9.110   2.678 -4.6910  1.2944  0.6345
  755MOL0     H 1873   0.738   9.250   2.785  0.1234 -1.7946  0.2679
  755MOL0     H 1874   0.808   9.268   2.479 -1.6473  1.3674 -0.8864
  755MOL0     H 1875   0.818   9.391   2.590  2.0675 -0.3138 -3.6320
  755MOL0     H 1876   0.608   9.297   2.314  2.4380  2.2006  0.0497
  755MOL0     H 1877   0.321   9.483   2.282 -5.2704 -0.3059 -2.0317
  755MOL0     H 1878   0.327   9.320   2.251  0.9774  1.5112 -0.5564
  755MOL0     H 1879   0.188   9.440   2.502  1.0902  2.8620 -3.3458
  755MOL0     H 1880   0.185   9.264   2.449  3.7674 -1.4140 -3.1918
  755MOL0     H 1881   0.038   9.328   2.249 -0.6974  0.0040 -2.0349
  755MOL0     H 1882   0.047   9.500   2.312 -0.0296 -1.6265 -1.0834
  755MOL0     H 1883  -0.059   9.276   2.481 -3.4737 -1.9198 -1.5702
  755MOL0     H 1884  -0.157   9.373   2.364  1.1579 -0.1237 -2.0320
  755MOL0     H 1885  -0.243   9.280   2.610 -1.0815 -1.8273  1.2064
  755MOL0     H 1886  -0.435   9.326   2.879 -0.2522 -0.3530 -0.1220
  755MOL0     H 1887  -0.412   9.217   2.747 -1.3589  2.4533 -0.8237
  755MOL0     H 1888  -0.366   9.166   2.911 -0.4630  0.2409 -0.1773
  755MOL0     H 1889  -0.052   9.246   3.278  0.1784 -0.2608  0.2445
  755MOL0     H 1890  -0.041   9.198   3.522  0.8437  2.6011 -1.4999
  755MOL0     H 1891  -0.057   9.138   3.714  0.2563  1.9174  5.4987
  755MOL0     H 1892  -0.183   9.097   3.836  0.1305 -0.6332 -0.5567
  755MOL0     H 1893  -0.160   8.931   3.586 -0.5811 -0.2487 -0.5726
  755MOL0     H 1894  -0.044   8.914   3.704  0.9073  3.2973 -1.8632
  755MOL0     H 1895  -0.217   8.853   3.867 -0.8299 -0.1374 -0.1407
  755MOL0     H 1896  -0.246   8.750   3.724  2.8867 -0.6655  1.4381
  755MOL0     H 1897  -0.411   8.980   3.821 -0.2924  0.3973 -0.7617
  755MOL0     H 1898  -0.420   8.936   3.663  1.0925  0.6256 -0.2781
  755MOL0     H 1899  -0.478   8.707   3.714  2.0664 -2.2872  1.7156
  755MOL0     H 1900  -0.587   8.820   3.798  0.5420  1.5176 -0.4682
  755MOL0     H 1901  -0.349   8.654   3.919  0.1575 -0.3354  1.2148
  755MOL0     H 1902  -0.462   8.756   4.010 -0.1810  0.8988 -0.2622
  755MOL0     H 1903  -0.498   8.511   3.811 -1.6571 -0.4008  0.1278
  755MOL0     H 1904  -0.630   8.600   3.879 -0.4145 -0.0951 -0.0649
  755MOL0     H 1905  -0.618   8.419   4.007 -0.6976  0.2520 -0.6281
  755MOL0     H 1906  -0.557   8.558   4.100  0.8159 -3.5797  2.9403
  755MOL0     H 1907  -0.475   9.174   3.505 -2.2197 -0.6240 -3.3903
  755MOL0     H 1908  -0.470   9.221   3.262 -1.4217  1.8114  2.4948
  755MOL0     H 1909   0.016   9.476   2.987 -1.5836 -1.1653  1.7801
  755MOL0     H 1910   0.075   9.534   2.741 -1.2636  1.5061 -1.2445
  755MOL0     H 1911   1.283   8.709   2.556 -0.9069  0.5782 -0.6314
  755MOL0     H 1912   1.124   8.520   2.492  2.9745  0.3347  3.0360
  755MOL0     H 1913   0.999   8.058   2.348 -1.9737 -0.6707 -0.5468
  755MOL0     H 1914   0.864   7.913   2.237  0.6849 -1.3114 -1.6413
  755MOL0     H 1915   0.848   7.770   2.044 -1.0553 -1.7444 -2.0731
  755MOL0     H 1916   0.687   7.794   2.099  0.7817  1.8310  1.4083
  755MOL0     H 1917   0.702   7.793   1.799 -2.9811  2.2799  1.2250
  755MOL0     H 1918   0.582   7.714   1.903 -0.8461  1.2538 -1.0194
  755MOL0     H 1919   0.765   7.545   1.963 -1.0885 -1.1259 -0.6567
  755MOL0     H 1920   0.855   7.615   1.829 -0.0181  3.1032  0.3164
  755MOL0     H 1921   0.572   7.513   1.794 -1.0099  1.6191 -0.4417
  755MOL0     H 1922   0.698   7.395   1.814 -1.2025 -0.5830 -2.0683
  755MOL0     H 1923   0.738   7.586   1.418 -2.5530  1.0889 -0.4172
  755MOL0     H 1924   0.775   8.198   1.937 -4.7149 -2.7372  1.1520
  755MOL0     H 1925   0.889   8.368   2.064 -0.4192  1.7804  2.8912
  756MOL0     O 1926  11.389   9.691   8.830  0.0425  0.7114  0.6396
  756MOL0     C 1927  11.449   9.680   8.938 -0.2347 -0.9386 -0.8775
  756MOL0     O 1928  11.462   9.778   9.043  0.7568 -0.3239 -0.3840
  756MOL0     C 1929  11.417   9.906   9.035 -0.1724  0.0205 -0.4832
  756MOL0     C 1930  11.289   9.916   8.985  0.1462 -0.7503 -0.2708
  756MOL0     C 1931  11.230  10.048   8.979 -0.2512  0.6011 -0.0548
  756MOL0     C 1932  11.309  10.161   9.018 -0.0719  0.3992 -0.0220
  756MOL0     O 1933  11.240  10.281   9.015  0.1065 -0.0901 -0.3185
  756MOL0     C 1934  11.301  10.397   9.065  0.2653 -1.3007 -0.9399
  756MOL0     C 1935  11.205  10.516   9.069 -0.5506  0.6740  0.8898
  756MOL0     C 1936  11.062  10.465   9.112 -0.1418 -1.0501 -0.4492
  756MOL0     C 1937  10.969  10.582   9.126 -0.2311 -0.0873 -0.2662
  756MOL0     C 1938  10.829  10.556   9.199  0.2331 -0.4983 -0.5797
  756MOL0     C 1939  10.744  10.454   9.129 -0.2045  0.9904 -0.1460
  756MOL0     C 1940  10.612  10.425   9.207 -0.5890  0.0820  0.2990
  756MOL0     C 1941  10.558  10.291   9.196 -0.4161  0.2028  0.0301
  756MOL0     N 1942  10.652  10.185   9.228  0.6535 -0.5114  0.7388
  756MOL0     C 1943  10.754  10.192   9.316 -0.3546  0.4367  0.2770
  756MOL0     C 1944  10.826  10.076   9.294 -0.0856 -1.2899 -0.2942
  756MOL0     C 1945  10.951  10.023   9.350 -0.3967  0.8434  0.6987
  756MOL0     C 1946  11.063  10.115   9.319  0.2255  0.3285 -0.1957
  756MOL0     C 1947  11.202  10.057   9.369  0.1258  0.4614 -0.1196
  756MOL0     C 1948  11.218  10.010   9.523  0.5666 -0.5273 -0.1151
  756MOL0     O 1949  11.350   9.953   9.530  0.2228 -0.4600  0.5302
  756MOL0     C 1950  11.452  10.048   9.559  1.1554  0.0446 -0.1110
  756MOL0     C 1951  11.539  10.082   9.453  0.3569 -0.3736  0.0367
  756MOL0     C 1952  11.660  10.159   9.469 -0.6918 -0.1136 -0.9635
  756MOL0     C 1953  11.763  10.164   9.355  0.0892 -0.8535 -0.9203
  756MOL0     C 1954  11.668  10.226   9.591  0.1867  0.7241 -0.8388
  756MOL0     C 1955  11.779  10.315   9.621 -0.5158 -0.5289 -0.7527
  756MOL0     O 1956  11.845  10.371   9.524  0.4897  0.0726  0.2313
  756MOL0     C 1957  11.969  10.409   9.561 -0.4014  0.2101 -0.1335
  756MOL0     C 1958  12.072  10.314   9.604  0.2041  0.0405 -0.5027
  756MOL0     C 1959  12.186  10.359   9.667  0.2006  0.5977  0.1470
  756MOL0     C 1960  12.213  10.492   9.677 -0.7373 -0.0735 -0.0411
  756MOL0     O 1961  12.328  10.523   9.745  0.1164  0.0105  0.6456
  756MOL0     C 1962  12.336  10.654   9.795  0.3607 -1.3563  0.3275
  756MOL0     C 1963  12.465  10.672   9.866 -0.5179 -0.7117 -0.2438
  756MOL0     C 1964  12.577  10.664   9.761 -0.6336  0.2702 -0.0996
  756MOL0     C 1965  12.709  10.687   9.819 -0.1347 -0.5574  0.7453
  756MOL0     C 1966  12.823  10.655   9.720  0.1598 -0.1801  0.2096
  756MOL0     C 1967  12.830  10.757   9.601 -0.0558  0.3812 -0.4252
  756MOL0     C 1968  12.957  10.741   9.521 -0.6898  0.0175  0.7220
  756MOL0     C 1969  12.940  10.819   9.385 -0.5370  0.1917  1.1863
  756MOL0    Cl 1970  13.088  10.838   9.283  0.2993 -0.2697 -0.3944
  756MOL0     C 1971  12.127  10.586   9.619  0.0663 -0.8040  0.0217
  756MOL0     C 1972  12.009  10.547   9.560  0.8554  0.4488  0.2929
  756MOL0     O 1973  11.811  10.307   9.739 -0.0382  0.1282  0.0248
  756MOL0     C 1974  11.570  10.191   9.704  0.0275  0.1159 -0.4567
  756MOL0     C 1975  11.465  10.106   9.681 -0.2422  0.6854  0.3330
  756MOL0     N 1976  10.759  10.001   9.200 -0.4456 -0.4906 -1.1202
  756MOL0     N 1977  10.662  10.067   9.161  0.5991 -0.4537  0.1796
  756MOL0     C 1978  11.439  10.140   9.076  0.2183  0.7390 -0.2494
  756MOL0     C 1979  11.493  10.013   9.085  1.4746 -0.3352  0.0491
  756MOL0     C 1980  11.512   9.556   8.957  0.9737 -1.4904  0.4733
  756MOL0     C 1981  11.542   9.479   8.844  0.0341 -0.1184  0.5803
  756MOL0     C 1982  11.604   9.358   8.861  0.5567  0.3951 -1.1119
  756MOL0     C 1983  11.646   9.320   8.987  0.1207 -0.0865  0.3451
  756MOL0     O 1984  11.692   9.192   9.023  0.0119 -0.5803  0.2872
  756MOL0     C 1985  11.777   9.117   8.930  0.6502 -0.3028  0.5017
  756MOL0     C 1986  11.758   8.966   8.963 -1.4602 -0.4579  0.6364
  756MOL0     C 1987  11.609   8.919   8.981 -0.3768 -0.5185  0.4164
  756MOL0     C 1988  11.590   8.785   9.024 -0.1759  0.0375  0.4699
  756MOL0     C 1989  11.651   8.681   8.940  0.2701 -0.0754 -0.4081
  756MOL0     C 1990  11.723   8.604   8.874  0.0305  1.1492  0.1694
  756MOL0     C 1991  11.598   9.390   9.100  0.9141  0.1635  0.1612
  756MOL0     C 1992  11.530   9.512   9.084 -0.0666  0.2410  0.5480
  756MOL0     H 1993  11.240   9.825   8.951  1.4619 -2.6903  2.5899
  756MOL0     H 1994  11.136  10.062   8.926  2.3752 -0.0008 -5.5564
  756MOL0     H 1995  11.338  10.367   9.164 -1.3965 -2.2268 -0.5613
  756MOL0     H 1996  11.393  10.422   9.011 -0.2594  0.5369 -1.0555
  756MOL0     H 1997  11.257  10.588   9.132 -0.2664  0.9722  0.3291
  756MOL0     H 1998  11.192  10.558   8.969 -1.5899 -1.5552  0.0099
  756MOL0     H 1999  11.016  10.389   9.048 -1.7146 -0.8250  0.3517
  756MOL0     H 2000  11.083  10.419   9.209  3.1306 -0.4291 -0.7602
  756MOL0     H 2001  11.023  10.649   9.193  0.2193  0.3825 -1.0878
  756MOL0     H 2002  10.935  10.636   9.037 -0.4815  0.5904  0.2340
  756MOL0     H 2003  10.852  10.525   9.302 -4.0000  1.2319  1.1180
  756MOL0     H 2004  10.774  10.649   9.213 -0.0672 -1.1347  3.9083
  756MOL0     H 2005  10.714  10.493   9.032 -2.0958  1.1364  0.4512
  756MOL0     H 2006  10.798  10.361   9.107  0.2768  1.5770 -1.5333
  756MOL0     H 2007  10.624  10.459   9.310 -0.6742 -1.0762  0.7089
  756MOL0     H 2008  10.542  10.495   9.160  1.4559  1.1936 -1.2613
  756MOL0     H 2009  10.507  10.268   9.102  0.3638 -1.9996  0.0855
  756MOL0     H 2010  10.484  10.285   9.276  1.7152 -0.2810  2.0627
  756MOL0     H 2011  10.780  10.279   9.376  0.1963 -1.2430  2.6437
  756MOL0     H 2012  10.932  10.035   9.457  0.7735 -0.7432  1.1123
  756MOL0     H 2013  10.975   9.921   9.319 -1.0265  1.2209 -1.1854
  756MOL0     H 2014  11.044  10.216   9.358  2.8753  2.0681 -2.9579
  756MOL0     H 2015  11.076  10.128   9.212 -0.5738 -2.9407 -0.7876
  756MOL0     H 2016  11.273  10.135   9.338  0.2897 -0.3744 -1.9563
  756MOL0     H 2017  11.221   9.969   9.308 -1.2330  0.0321  0.0559
  756MOL0     H 2018  11.130   9.957   9.558 -0.5173  2.0839  1.3746
  756MOL0     H 2019  11.218  10.094   9.593  0.8691 -0.0803 -0.6446
  756MOL0     H 2020  11.515  10.029   9.362  1.2804 -3.1268  1.2570
  756MOL0     H 2021  11.856  10.124   9.397  0.2474  1.4533  1.1266
  756MOL0     H 2022  11.723  10.110   9.268 -0.4255  1.5585 -2.2551
  756MOL0     H 2023  11.780  10.261   9.308 -1.2848  0.7857  1.7477
  756MOL0     H 2024  12.067  10.206   9.608  3.9589 -0.2879 -1.5051
  756MOL0     H 2025  12.250  10.278   9.703 -2.1944 -3.2062 -3.2704
  756MOL0     H 2026  12.315  10.737   9.726 -3.4766  1.6839  4.5577
  756MOL0     H 2027  12.252  10.662   9.864  0.3467 -1.8776  0.3684
  756MOL0     H 2028  12.474  10.771   9.912 -0.3362 -0.6217 -0.4680
  756MOL0     H 2029  12.492  10.604   9.947  0.8017 -1.1004 -0.9896
  756MOL0     H 2030  12.554  10.726   9.674  3.1392  1.1415 -0.6755
  756MOL0     H 2031  12.589  10.559   9.730  3.0672 -0.1241  2.1048
  756MOL0     H 2032  12.714  10.794   9.842 -1.6498  0.2812 -2.3301
  756MOL0     H 2033  12.734  10.639   9.914 -0.8351  2.4110  2.5895
  756MOL0     H 2034  12.817  10.552   9.684  1.2952 -0.1360 -0.1571
  756MOL0     H 2035  12.916  10.669   9.776 -0.0018 -0.6810  0.6057
  756MOL0     H 2036  12.731  10.742   9.556 -1.6350 -1.6177  3.2956
  756MOL0     H 2037  12.827  10.857   9.645 -0.1314 -0.5250  1.7711
  756MOL0     H 2038  12.973  10.633   9.509  0.1432  0.1312  0.7932
  756MOL0     H 2039  13.040  10.785   9.576 -1.5500  0.1056  2.0038
  756MOL0     H 2040  12.915  10.923   9.410  2.4847  0.9364  1.4981
  756MOL0     H 2041  12.851  10.788   9.330 -0.8447  3.3479 -0.3091
  756MOL0     H 2042  12.142  10.694   9.624 -0.5740 -0.4219 -3.7814
  756MOL0     H 2043  11.937  10.615   9.515  0.4291 -0.6919 -0.8126
  756MOL0     H 2044  11.584  10.255   9.790  4.2270 -2.8785  1.3705
  756MOL0     H 2045  11.404  10.063   9.760 -3.7653 -0.5988 -2.8040
  756MOL0     H 2046  11.500  10.222   9.114 -0.7956  1.4730 -0.1469
  756MOL0     H 2047  11.578   9.991   9.148  1.5921  0.4500  0.1752
  756MOL0     H 2048  11.533   9.532   8.750  1.1692  1.1994  1.1715
  756MOL0     H 2049  11.644   9.291   8.786  2.4117 -1.3819  1.2982
  756MOL0     H 2050  11.770   9.139   8.823  0.8464  1.7131  0.8683
  756MOL0     H 2051  11.880   9.146   8.948  0.0744  0.2825  3.3014
  756MOL0     H 2052  11.832   8.946   9.041  1.7226  0.3526 -1.9260
  756MOL0     H 2053  11.797   8.918   8.873 -0.9492  1.3143 -0.1281
  756MOL0     H 2054  11.567   8.929   8.880  3.4364  1.5034 -1.1855
  756MOL0     H 2055  11.554   8.977   9.056  2.6702 -0.0747  2.4811
  756MOL0     H 2056  11.481   8.772   9.030 -0.4881  1.4384 -1.3732
  756MOL0     H 2057  11.634   8.766   9.123  2.1238 -1.8670 -0.8129
  756MOL0     H 2058  11.778   8.534   8.814 -3.0630 -3.4907  2.1371
  756MOL0     H 2059  11.605   9.342   9.197  0.0239 -0.1763  0.0661
  756MOL0     H 2060  11.488   9.574   9.162 -2.0229  0.3248 -0.5272
  757MOL0     O 2061   3.287   4.739   4.393 -0.0148  0.5517 -0.3163
  757MOL0     C 2062   3.201   4.782   4.316  0.5331  0.1932  0.2917
  757MOL0     O 2063   3.111   4.882   4.330  0.4075 -0.6315 -0.6189
  757MOL0     C 2064   3.120   4.946   4.454  0.0618 -1.0648  0.6831
  757MOL0     C 2065   3.005   4.942   4.533 -0.0592 -0.3396  0.0208
  757MOL0     C 2066   2.995   5.001   4.662  0.2149 -0.1327  0.0642
  757MOL0     C 2067   3.107   5.082   4.704 -0.5128 -1.2160  0.4806
  757MOL0     O 2068   3.103   5.147   4.823  0.2936  0.5487  0.0391
  757MOL0     C 2069   3.224   5.125   4.914 -0.9916  1.7235  0.0050
  757MOL0     C 2070   3.193   5.189   5.045 -0.0770  0.2056 -0.5924
  757MOL0     C 2071   3.297   5.286   5.100 -0.0558  0.2133  0.7618
  757MOL0     C 2072   3.437   5.219   5.110 -0.7997  0.0260  0.4532
  757MOL0     C 2073   3.535   5.294   5.203 -0.4371  0.6547  0.6502
  757MOL0     C 2074   3.629   5.387   5.126 -0.1595 -0.4360 -0.1813
  757MOL0     C 2075   3.735   5.451   5.221  0.2742  0.7892  0.2745
  757MOL0     C 2076   3.702   5.585   5.286 -0.4307  0.4353 -0.3653
  757MOL0     N 2077   3.692   5.701   5.201 -0.2592 -0.2828  0.1227
  757MOL0     C 2078   3.795   5.758   5.149 -0.6135 -0.8788 -0.1752
  757MOL0     C 2079   3.758   5.856   5.063 -0.1364 -0.2408 -1.3101
  757MOL0     C 2080   3.849   5.959   4.996 -0.0474  0.1020  0.2527
  757MOL0     C 2081   3.937   6.047   5.092  0.7435  0.2735 -0.7463
  757MOL0     C 2082   4.061   6.102   5.039  0.3199 -0.2621 -0.9212
  757MOL0     C 2083   4.042   6.183   4.910 -0.7545 -0.3492 -0.2968
  757MOL0     O 2084   3.998   6.313   4.943 -0.4859 -0.4742 -0.2160
  757MOL0     C 2085   4.067   6.409   5.004  0.8331 -0.8834 -1.5192
  757MOL0     C 2086   4.003   6.530   5.038  0.3573 -0.2537  0.1251
  757MOL0     C 2087   4.073   6.638   5.088 -0.1932  0.1938  0.7556
  757MOL0     C 2088   3.998   6.771   5.116 -0.2100 -0.0864  0.5373
  757MOL0     C 2089   4.211   6.624   5.121 -0.0156 -0.4527 -0.2309
  757MOL0     C 2090   4.279   6.729   5.198  0.4564  0.3715  0.2206
  757MOL0     O 2091   4.297   6.700   5.329 -0.1241  0.4634 -0.7244
  757MOL0     C 2092   4.364   6.800   5.397  0.6568 -0.5668  0.0576
  757MOL0     C 2093   4.292   6.898   5.470 -0.4909  0.0647 -0.1321
  757MOL0     C 2094   4.358   6.992   5.541 -0.1344  0.4824 -0.1410
  757MOL0     C 2095   4.500   6.987   5.549 -0.3501  0.1774  0.3631
  757MOL0     O 2096   4.555   7.088   5.624  0.0428 -0.3114 -0.0685
  757MOL0     C 2097   4.678   7.149   5.570 -0.2417 -0.4431  0.3115
  757MOL0     C 2098   4.712   7.289   5.636  0.2360  1.1997  0.6999
  757MOL0     C 2099   4.601   7.394   5.613  1.2243 -0.4636  0.1053
  757MOL0     C 2100   4.666   7.539   5.626 -1.3591 -0.7634  0.0363
  757MOL0     C 2101   4.567   7.646   5.602 -0.7392  0.2069 -0.1330
  757MOL0     C 2102   4.463   7.658   5.710  0.5719  0.3929 -0.2553
  757MOL0     C 2103   4.369   7.784   5.691  0.6314  0.4559 -1.1382
  757MOL0     C 2104   4.268   7.793   5.798  0.2764 -0.1464 -0.0398
  757MOL0    Cl 2105   4.139   7.679   5.802 -0.2966  0.2356  0.4730
  757MOL0     C 2106   4.568   6.899   5.466  0.2661 -1.2657 -0.2620
  757MOL0     C 2107   4.494   6.802   5.398 -1.6744 -0.2523  0.8254
  757MOL0     O 2108   4.300   6.839   5.142  0.7202 -0.4059 -0.0790
  757MOL0     C 2109   4.280   6.501   5.093  0.0077 -0.2241 -0.2196
  757MOL0     C 2110   4.204   6.397   5.032  0.0047 -0.2745 -0.1122
  757MOL0     N 2111   3.621   5.852   5.080 -0.7780  0.9476  0.5915
  757MOL0     N 2112   3.583   5.761   5.154  0.5897  1.0591  0.6407
  757MOL0     C 2113   3.224   5.079   4.622  0.5909 -0.3035  0.4507
  757MOL0     C 2114   3.235   5.011   4.499  0.3475 -0.0897  0.1509
  757MOL0     C 2115   3.204   4.720   4.182  0.3468  0.6271 -0.2267
  757MOL0     C 2116   3.094   4.716   4.094  0.6347 -0.1935 -0.3939
  757MOL0     C 2117   3.089   4.647   3.977  0.7564  0.5582  0.6340
  757MOL0     C 2118   3.195   4.567   3.932 -0.0914 -0.3838 -0.1351
  757MOL0     O 2119   3.199   4.501   3.813  0.4871  0.3059 -1.1036
  757MOL0     C 2120   3.115   4.535   3.699 -0.2182 -0.1200  0.1951
  757MOL0     C 2121   2.989   4.445   3.710  0.1489 -0.6321 -0.2581
  757MOL0     C 2122   2.856   4.491   3.662 -0.4096 -0.4007 -0.2799
  757MOL0     C 2123   2.753   4.388   3.705  0.2099  0.0578 -1.2051
  757MOL0     C 2124   2.627   4.415   3.637 -0.6169 -0.0142  0.4244
  757MOL0     C 2125   2.519   4.441   3.581 -0.7861  1.2663 -0.5242
  757MOL0     C 2126   3.310   4.570   4.014  0.1332 -0.5571 -1.0830
  757MOL0     C 2127   3.315   4.643   4.139 -0.5743  0.5669 -1.1012
  757MOL0     H 2128   2.929   4.872   4.498 -0.1083 -0.3721  0.1933
  757MOL0     H 2129   2.914   4.970   4.728  0.3897  0.5983  0.6325
  757MOL0     H 2130   3.225   5.017   4.927  2.1675  1.4881 -1.3213
  757MOL0     H 2131   3.312   5.167   4.863  0.1988 -0.0186  0.5468
  757MOL0     H 2132   3.100   5.247   5.043  1.4582  2.9055  0.2221
  757MOL0     H 2133   3.180   5.107   5.116  0.3975  0.4789 -0.1800
  757MOL0     H 2134   3.299   5.376   5.038 -0.4928  0.6102  1.3102
  757MOL0     H 2135   3.271   5.323   5.200  1.5758  5.5952 -0.4571
  757MOL0     H 2136   3.433   5.115   5.144  4.5887  0.5833  4.1060
  757MOL0     H 2137   3.487   5.223   5.013  1.2478  1.4195  1.4845
  757MOL0     H 2138   3.482   5.346   5.283 -2.0424 -0.9454  0.7119
  757MOL0     H 2139   3.597   5.211   5.237 -2.4319 -1.3261 -0.2517
  757MOL0     H 2140   3.686   5.329   5.052  0.1152  0.6878 -0.8790
  757MOL0     H 2141   3.578   5.464   5.068  3.0555  1.1154 -1.1869
  757MOL0     H 2142   3.773   5.374   5.288  2.4585  1.7348  0.1927
  757MOL0     H 2143   3.823   5.471   5.160  0.5804  2.8585  1.2903
  757MOL0     H 2144   3.775   5.603   5.365 -1.7784  0.8301  0.8416
  757MOL0     H 2145   3.607   5.570   5.338 -1.2072  4.0797 -0.4569
  757MOL0     H 2146   3.898   5.734   5.176 -0.2726 -0.5534 -1.1260
  757MOL0     H 2147   3.905   5.904   4.920  0.4769 -2.1282  2.1446
  757MOL0     H 2148   3.791   6.034   4.942  0.2537  2.3053  2.7661
  757MOL0     H 2149   3.967   5.982   5.175  2.0242 -1.8878 -2.7594
  757MOL0     H 2150   3.863   6.120   5.125 -0.2414 -0.1762 -1.8616
  757MOL0     H 2151   4.125   6.017   5.014  2.4380  1.4388 -1.5474
  757MOL0     H 2152   4.113   6.160   5.116  2.1691 -0.3098 -2.0732
  757MOL0     H 2153   3.967   6.141   4.843 -2.6366 -0.6018  1.8646
  757MOL0     H 2154   4.140   6.178   4.862 -0.8591 -0.9016 -0.4497
  757MOL0     H 2155   3.897   6.535   5.016 -0.2639 -1.8058  2.4690
  757MOL0     H 2156   4.024   6.853   5.048 -1.7292 -0.9042 -1.1228
  757MOL0     H 2157   3.890   6.759   5.105 -0.0913 -0.1322 -0.7302
  757MOL0     H 2158   4.011   6.814   5.216  2.6464  1.3942 -0.3708
  757MOL0     H 2159   4.187   6.900   5.446 -1.1209  4.7406  2.0292
  757MOL0     H 2160   4.315   7.080   5.588 -2.5460 -0.9551  0.5403
  757MOL0     H 2161   4.768   7.088   5.580 -0.7366 -1.1817  0.3069
  757MOL0     H 2162   4.676   7.165   5.462 -1.5934  1.1981  0.5211
  757MOL0     H 2163   4.733   7.272   5.742  0.9003  4.4371  1.1822
  757MOL0     H 2164   4.802   7.325   5.585 -0.0555 -2.1453 -2.7270
  757MOL0     H 2165   4.519   7.378   5.683 -0.5606 -3.0651 -2.3723
  757MOL0     H 2166   4.564   7.384   5.510 -1.5704  2.2660  0.6991
  757MOL0     H 2167   4.714   7.541   5.724 -0.5207 -1.4587 -0.3451
  757MOL0     H 2168   4.736   7.556   5.543 -4.7041  1.7221 -2.5797
  757MOL0     H 2169   4.518   7.622   5.507  0.6499 -0.2694 -0.7542
  757MOL0     H 2170   4.617   7.742   5.588 -0.7844  0.0339 -1.6787
  757MOL0     H 2171   4.407   7.564   5.712  0.4300  0.3206 -3.3327
  757MOL0     H 2172   4.514   7.669   5.806  0.2284  0.5462 -0.0855
  757MOL0     H 2173   4.329   7.770   5.590  1.0753  0.3182 -1.2966
  757MOL0     H 2174   4.422   7.879   5.675  0.0594  0.9195 -0.3652
  757MOL0     H 2175   4.211   7.885   5.780  1.9813  0.8676 -0.5403
  757MOL0     H 2176   4.326   7.787   5.891  1.3954 -2.8093 -0.8079
  757MOL0     H 2177   4.677   6.904   5.465  0.3240  0.5879  2.7130
  757MOL0     H 2178   4.550   6.737   5.332 -0.8307  1.7673 -0.5441
  757MOL0     H 2179   4.384   6.490   5.123 -0.3634 -2.5317  0.4141
  757MOL0     H 2180   4.251   6.301   5.013  0.8068 -0.5530  2.8056
  757MOL0     H 2181   3.314   5.132   4.653 -0.8006  2.0313  0.6808
  757MOL0     H 2182   3.327   5.003   4.441 -0.4899  2.5956 -1.7409
  757MOL0     H 2183   3.009   4.778   4.121  1.1959  1.4462 -2.1927
  757MOL0     H 2184   2.993   4.642   3.927  1.0007 -0.8602  0.2807
  757MOL0     H 2185   3.087   4.641   3.708 -0.0789 -0.1494  1.0957
  757MOL0     H 2186   3.168   4.513   3.606 -0.5225 -0.6978  0.1572
  757MOL0     H 2187   2.987   4.424   3.817  4.9736  1.5474  0.5194
  757MOL0     H 2188   3.016   4.354   3.656 -0.8905 -0.5829 -0.8729
  757MOL0     H 2189   2.842   4.510   3.556  0.0386 -0.0201 -0.2748
  757MOL0     H 2190   2.846   4.588   3.713  1.6346  0.0358 -0.6004
  757MOL0     H 2191   2.738   4.394   3.813 -1.2889 -0.2273 -1.3702
  757MOL0     H 2192   2.778   4.286   3.674 -0.4644 -0.1760 -1.0154
  757MOL0     H 2193   2.419   4.469   3.553 -0.4687  3.0322  0.0001
  757MOL0     H 2194   3.390   4.504   3.982  0.1070 -0.7142 -0.8334
  757MOL0     H 2195   3.406   4.650   4.199 -2.6382  2.5059  2.1024
  758MOL0     O 2196  10.638   7.971   5.736 -0.1495 -0.2705  0.3251
  758MOL0     C 2197  10.727   7.890   5.764 -0.4872  0.3028  0.4299
  758MOL0     O 2198  10.731   7.791   5.860  0.0750  0.6573 -0.1960
  758MOL0     C 2199  10.629   7.769   5.952  0.6168 -0.1819  0.2446
  758MOL0     C 2200  10.660   7.695   6.065 -0.0645 -0.8349 -0.3407
  758MOL0     C 2201  10.563   7.675   6.166 -0.4569  0.1329 -0.3896
  758MOL0     C 2202  10.425   7.709   6.138 -0.4965 -1.2846 -0.3679
  758MOL0     O 2203  10.344   7.699   6.245 -0.5774  0.3409  0.0067
  758MOL0     C 2204  10.210   7.674   6.229 -0.6640 -0.2431 -0.3503
  758MOL0     C 2205  10.154   7.644   6.364  0.3246 -0.1883 -1.0848
  758MOL0     C 2206  10.006   7.644   6.356  0.7282 -0.0883  0.5195
  758MOL0     C 2207   9.942   7.587   6.491  0.4158  0.0648  0.1202
  758MOL0     C 2208   9.787   7.577   6.496  0.3362  0.1382  1.1400
  758MOL0     C 2209   9.729   7.507   6.625 -0.4866 -0.5053  0.3386
  758MOL0     C 2210   9.794   7.375   6.672  0.1222  0.7082  1.0790
  758MOL0     C 2211   9.789   7.275   6.557  1.2538  0.0733 -0.4431
  758MOL0     N 2212   9.847   7.152   6.602  0.5189  0.2538  0.9787
  758MOL0     C 2213   9.963   7.120   6.670 -0.3712  0.5922 -1.1637
  758MOL0     C 2214  10.006   6.997   6.631  0.3600 -0.2584  0.2750
  758MOL0     C 2215  10.143   6.936   6.654 -1.0443 -0.9045 -0.6352
  758MOL0     C 2216  10.238   7.022   6.560 -0.0107  0.1731  0.3234
  758MOL0     C 2217  10.270   6.921   6.436  0.2921  0.6255  0.8430
  758MOL0     C 2218  10.383   6.978   6.351  0.0886  0.2952 -0.2297
  758MOL0     O 2219  10.344   7.105   6.296 -0.0233 -0.2335 -0.5453
  758MOL0     C 2220  10.427   7.156   6.200 -1.2051  0.3892  0.3858
  758MOL0     C 2221  10.549   7.109   6.167 -0.4584  0.3763  0.4883
  758MOL0     C 2222  10.621   7.162   6.059  0.4489 -1.0065  0.2467
  758MOL0     C 2223  10.758   7.103   6.036  0.5615 -0.0132 -0.6510
  758MOL0     C 2224  10.564   7.259   5.975 -0.1794 -0.1073  0.7900
  758MOL0     C 2225  10.617   7.321   5.848 -0.1121  0.9825  0.5614
  758MOL0     O 2226  10.548   7.434   5.799 -0.0590 -0.6856 -0.9297
  758MOL0     C 2227  10.590   7.476   5.681  0.5623 -1.2190  0.3002
  758MOL0     C 2228  10.700   7.560   5.670  0.1654  0.0360  0.0688
  758MOL0     C 2229  10.732   7.629   5.556  0.5711  0.2728  0.4149
  758MOL0     C 2230  10.639   7.616   5.441  0.3406  0.9725 -0.8497
  758MOL0     O 2231  10.665   7.662   5.316  0.5861  0.3468  0.5028
  758MOL0     C 2232  10.728   7.565   5.229 -0.1573  0.5567 -0.9615
  758MOL0     C 2233  10.770   7.638   5.100  0.5888  0.5389  0.0129
  758MOL0     C 2234  10.794   7.538   4.980  0.2847  0.3933 -0.1317
  758MOL0     C 2235  10.797   7.601   4.844  0.2332 -0.0279 -0.0379
  758MOL0     C 2236  10.664   7.581   4.770 -0.1425 -0.1338  0.3694
  758MOL0     C 2237  10.684   7.608   4.619 -0.7885 -0.2095  0.8361
  758MOL0     C 2238  10.572   7.552   4.529 -1.2324  0.4301 -0.2344
  758MOL0     C 2239  10.435   7.616   4.551 -0.1983 -0.4426  0.0428
  758MOL0    Cl 2240  10.409   7.792   4.574 -0.2097 -0.0951 -0.1538
  758MOL0     C 2241  10.522   7.540   5.454  0.2768 -0.2173 -0.6388
  758MOL0     C 2242  10.502   7.465   5.569 -0.9849  0.4515 -0.2387
  758MOL0     O 2243  10.709   7.253   5.793 -0.4883 -0.7554 -0.0357
  758MOL0     C 2244  10.443   7.311   6.014  0.6922 -0.0956 -0.2108
  758MOL0     C 2245  10.369   7.267   6.128  0.0186  0.3406  0.4439
  758MOL0     N 2246   9.900   6.948   6.551 -1.0427  0.1564  0.1076
  758MOL0     N 2247   9.817   7.039   6.533 -1.0590  0.4091 -0.1307
  758MOL0     C 2248  10.387   7.764   6.015 -0.1903  0.5008  0.0601
  758MOL0     C 2249  10.491   7.801   5.927 -0.1566  0.1233 -0.8637
  758MOL0     C 2250  10.845   7.904   5.672 -0.5870  0.7666  0.6459
  758MOL0     C 2251  10.972   7.850   5.712  0.3358  0.4870  0.0493
  758MOL0     C 2252  11.080   7.860   5.616  0.3469  0.1366  0.2748
  758MOL0     C 2253  11.064   7.916   5.491  0.7382 -0.6357 -0.5226
  758MOL0     O 2254  11.173   7.926   5.404 -0.2946  0.0104 -0.3647
  758MOL0     C 2255  11.164   8.004   5.288 -0.1527 -0.0694 -0.7214
  758MOL0     C 2256  11.304   7.995   5.219  0.2329  0.0560 -0.7336
  758MOL0     C 2257  11.408   8.081   5.297  0.1769  0.5763  0.1743
  758MOL0     C 2258  11.398   8.227   5.247 -0.1865  0.6944 -0.7975
  758MOL0     C 2259  11.494   8.250   5.134  0.0251  0.2456  0.2184
  758MOL0     C 2260  11.568   8.269   5.035  0.5105  0.7121  1.1023
  758MOL0     C 2261  10.942   7.970   5.455 -0.5035  0.0581 -0.6343
  758MOL0     C 2262  10.830   7.959   5.540  0.7055  0.3926  0.2895
  758MOL0     H 2263  10.761   7.662   6.089 -0.7888 -3.3755 -0.5535
  758MOL0     H 2264  10.576   7.625   6.262 -0.4465  0.9091  0.0238
  758MOL0     H 2265  10.160   7.762   6.187 -0.2605 -0.1295 -0.6100
  758MOL0     H 2266  10.206   7.596   6.152 -0.2796 -0.2421 -0.3762
  758MOL0     H 2267  10.193   7.551   6.408  0.3429  0.6172  0.6782
  758MOL0     H 2268  10.184   7.734   6.420  1.3792  0.5449 -2.7632
  758MOL0     H 2269   9.974   7.745   6.329 -1.7383 -0.8706  0.2438
  758MOL0     H 2270   9.982   7.574   6.275 -2.5315  0.0556  1.2403
  758MOL0     H 2271   9.979   7.484   6.499 -2.6518 -0.9741  4.6643
  758MOL0     H 2272   9.981   7.639   6.579 -2.1318  0.1249  1.2765
  758MOL0     H 2273   9.744   7.677   6.489 -1.1705 -0.5376  0.3321
  758MOL0     H 2274   9.763   7.528   6.401  2.2439  2.0667 -0.4387
  758MOL0     H 2275   9.739   7.581   6.705  0.7352  0.9182 -1.0459
  758MOL0     H 2276   9.626   7.483   6.600  0.2111 -0.8677 -2.5761
  758MOL0     H 2277   9.897   7.397   6.698  0.9561 -1.2880 -0.2990
  758MOL0     H 2278   9.746   7.334   6.761 -1.9715 -1.2370 -0.8301
  758MOL0     H 2279   9.842   7.319   6.471  1.1671 -1.1338 -1.1283
  758MOL0     H 2280   9.687   7.262   6.520  1.7806  2.3107 -3.0494
  758MOL0     H 2281  10.030   7.173   6.736 -1.2534 -0.5256  0.7206
  758MOL0     H 2282  10.169   6.946   6.760  0.2229  2.4126 -1.1363
  758MOL0     H 2283  10.154   6.830   6.632  0.6055 -1.1881  1.1864
  758MOL0     H 2284  10.329   7.048   6.615  0.4884 -2.0360  0.6202
  758MOL0     H 2285  10.192   7.118   6.533 -2.7054 -1.3652 -0.9957
  758MOL0     H 2286  10.186   6.891   6.373  2.2732  0.8391 -2.1184
  758MOL0     H 2287  10.308   6.824   6.470 -1.3273 -0.7322 -0.9672
  758MOL0     H 2288  10.402   6.901   6.275 -1.1157 -2.5205  2.1013
  758MOL0     H 2289  10.468   6.982   6.420  2.8767  0.2214 -3.4168
  758MOL0     H 2290  10.592   7.027   6.223  0.7193 -0.4176 -1.4796
  758MOL0     H 2291  10.791   7.034   6.114 -2.8264 -1.4376 -0.3150
  758MOL0     H 2292  10.769   7.053   5.940 -1.0288 -0.2212 -0.7503
  758MOL0     H 2293  10.822   7.192   6.045 -0.9324  1.0796 -0.3297
  758MOL0     H 2294  10.762   7.554   5.759 -1.6231  2.7326  1.6292
  758MOL0     H 2295  10.824   7.686   5.549  0.0999  1.1199  0.9368
  758MOL0     H 2296  10.808   7.514   5.283 -3.1086 -4.0681 -0.3229
  758MOL0     H 2297  10.663   7.481   5.203  1.0702 -0.6493 -0.2644
  758MOL0     H 2298  10.707   7.725   5.077  0.4613  0.2196 -0.8823
  758MOL0     H 2299  10.869   7.678   5.122  0.4414  2.3682 -2.2485
  758MOL0     H 2300  10.713   7.466   4.988 -0.7366  1.4543 -0.6193
  758MOL0     H 2301  10.885   7.480   4.999  1.9417  1.7423 -3.0884
  758MOL0     H 2302  10.825   7.707   4.849 -0.2276  0.1177 -0.4271
  758MOL0     H 2303  10.869   7.540   4.788  0.8159 -2.9459  3.5514
  758MOL0     H 2304  10.582   7.644   4.806  0.8507  0.5036  1.6034
  758MOL0     H 2305  10.640   7.476   4.784  0.8069 -0.5539 -0.9375
  758MOL0     H 2306  10.692   7.715   4.601  1.9662 -0.6418 -1.1435
  758MOL0     H 2307  10.779   7.567   4.583  0.4255  3.0760 -0.0403
  758MOL0     H 2308  10.559   7.446   4.552  0.0406  0.0186 -1.3492
  758MOL0     H 2309  10.604   7.563   4.426  2.5980 -2.6105  0.4039
  758MOL0     H 2310  10.385   7.568   4.636  3.7494 -1.9679  1.7517
  758MOL0     H 2311  10.381   7.594   4.458 -0.9057 -0.4251  0.4417
  758MOL0     H 2312  10.453   7.545   5.371 -0.7405  1.1974  0.2409
  758MOL0     H 2313  10.402   7.423   5.574 -0.5145 -1.0172 -1.9637
  758MOL0     H 2314  10.380   7.380   5.958 -3.2005 -1.2042  2.4132
  758MOL0     H 2315  10.277   7.318   6.157 -1.0836  0.1552 -2.3565
  758MOL0     H 2316  10.286   7.788   5.983  1.0473  2.2390 -2.9816
  758MOL0     H 2317  10.474   7.858   5.837 -0.0622 -1.1515 -1.7141
  758MOL0     H 2318  10.990   7.802   5.808 -2.4497 -1.6492 -0.3496
  758MOL0     H 2319  11.179   7.818   5.629  0.6532 -0.8314 -3.7653
  758MOL0     H 2320  11.090   7.958   5.222 -2.1947 -1.1806  2.1502
  758MOL0     H 2321  11.140   8.106   5.318 -2.8141 -1.2828  1.8345
  758MOL0     H 2322  11.299   8.027   5.114  1.7418 -2.7305 -1.7388
  758MOL0     H 2323  11.335   7.891   5.212 -2.4737 -0.8822  0.1634
  758MOL0     H 2324  11.509   8.045   5.277 -0.8198 -0.9021 -2.8718
  758MOL0     H 2325  11.391   8.090   5.404 -1.0218  1.0977 -0.0392
  758MOL0     H 2326  11.427   8.294   5.328  0.0732 -1.8696  1.3739
  758MOL0     H 2327  11.296   8.259   5.227 -1.6466 -1.4606  2.3490
  758MOL0     H 2328  11.633   8.295   4.954 -1.1011 -5.3545 -2.7555
  758MOL0     H 2329  10.916   8.012   5.358  1.3761 -1.9174 -2.0824
  758MOL0     H 2330  10.734   7.984   5.496  1.3002 -1.8293 -2.5647
  759MOL0     O 2331   2.182   6.107   6.956 -0.4754 -0.3966  0.2614
  759MOL0     C 2332   2.224   6.146   7.064  1.0319  0.1038  0.1281
  759MOL0     O 2333   2.141   6.168   7.172 -0.0974  0.2116 -0.2806
  759MOL0     C 2334   2.005   6.167   7.135  0.4508  0.1587 -0.1119
  759MOL0     C 2335   1.947   6.278   7.074 -0.3232 -0.0773 -0.4808
  759MOL0     C 2336   1.809   6.283   7.049  0.6657 -0.5474  0.7590
  759MOL0     C 2337   1.719   6.184   7.087  0.1729  0.4141 -0.9707
  759MOL0     O 2338   1.579   6.192   7.080 -0.0363 -0.5670 -0.0820
  759MOL0     C 2339   1.510   6.114   6.976  0.3658 -0.9007  1.2247
  759MOL0     C 2340   1.602   6.057   6.858  0.1389 -0.5913  0.1272
  759MOL0     C 2341   1.503   6.005   6.743 -0.0165  0.7296  0.6882
  759MOL0     C 2342   1.504   6.081   6.611  0.0003  0.4165  0.1063
  759MOL0     C 2343   1.399   6.038   6.510  0.1827  0.6124 -0.1835
  759MOL0     C 2344   1.369   5.887   6.488 -0.3410  0.5179  0.5704
  759MOL0     C 2345   1.252   5.844   6.390  0.7248 -0.6807  0.0944
  759MOL0     C 2346   1.117   5.912   6.431 -0.2578 -0.2688 -1.0240
  759MOL0     N 2347   0.998   5.854   6.347 -1.3924 -0.0059 -1.0951
  759MOL0     C 2348   0.995   5.887   6.211  0.5780  0.2324 -0.5582
  759MOL0     C 2349   0.886   5.834   6.159  0.5485 -0.6143 -0.3434
  759MOL0     C 2350   0.851   5.834   6.018  0.1088  0.0170 -0.3441
  759MOL0     C 2351   0.741   5.739   5.990 -0.1926 -1.2418  0.2940
  759MOL0     C 2352   0.701   5.760   5.847 -0.4585 -0.6501  0.6214
  759MOL0     C 2353   0.576   5.677   5.809 -0.2952  0.1128 -0.5352
  759MOL0     O 2354   0.597   5.542   5.831  0.5953 -0.8121  0.0609
  759MOL0     C 2355   0.475   5.471   5.850 -0.7100 -0.0140  1.0161
  759MOL0     C 2356   0.490   5.329   5.837 -0.3264 -0.4705  1.0774
  759MOL0     C 2357   0.383   5.242   5.863 -0.3594  0.3820  0.2385
  759MOL0     C 2358   0.416   5.099   5.880 -0.7892  0.2102 -0.3798
  759MOL0     C 2359   0.256   5.293   5.886  0.1273 -0.3185 -0.7606
  759MOL0     C 2360   0.139   5.207   5.916  0.2890 -0.6503  0.5881
  759MOL0     O 2361   0.021   5.253   5.857 -0.4027 -0.4448 -0.0230
  759MOL0     C 2362  -0.094   5.209   5.913 -0.6090 -0.2961  0.5964
  759MOL0     C 2363  -0.175   5.302   5.974 -0.2980 -0.6006 -0.6772
  759MOL0     C 2364  -0.297   5.256   6.033 -0.0315  0.0874  0.1012
  759MOL0     C 2365  -0.327   5.123   6.030  0.2990 -0.2714  0.5178
  759MOL0     O 2366  -0.448   5.074   6.075  0.3957 -0.4263 -0.0720
  759MOL0     C 2367  -0.480   5.053   6.208 -0.8975  0.3330  0.3202
  759MOL0     C 2368  -0.531   5.180   6.280  0.1021 -1.1860  1.0082
  759MOL0     C 2369  -0.681   5.173   6.320 -0.6298  1.4336  0.4649
  759MOL0     C 2370  -0.729   5.312   6.366  0.7298 -0.6157 -0.2650
  759MOL0     C 2371  -0.875   5.315   6.400  0.5513 -0.0444 -0.2603
  759MOL0     C 2372  -0.951   5.442   6.431  0.3778  1.2571 -0.4498
  759MOL0     C 2373  -0.859   5.569   6.449  0.1418 -0.3518  0.9392
  759MOL0     C 2374  -0.939   5.704   6.464 -0.8600 -0.3361 -0.1868
  759MOL0    Cl 2375  -1.073   5.720   6.347 -0.1672 -0.6073  0.0920
  759MOL0     C 2376  -0.251   5.031   5.963 -0.6746 -0.6178 -0.6264
  759MOL0     C 2377  -0.131   5.072   5.893  0.2070 -0.1568 -0.6731
  759MOL0     O 2378   0.153   5.109   5.985  0.6941  0.2198  0.0342
  759MOL0     C 2379   0.243   5.432   5.901 -0.8157 -0.2169 -0.4635
  759MOL0     C 2380   0.349   5.518   5.882  0.1205 -0.7443 -0.2765
  759MOL0     N 2381   0.812   5.770   6.269 -0.0055  0.3004 -0.4319
  759MOL0     N 2382   0.890   5.774   6.375  0.2395 -0.7214 -0.4451
  759MOL0     C 2383   1.771   6.073   7.146  0.3514 -0.7292 -1.0089
  759MOL0     C 2384   1.911   6.059   7.169 -0.1715 -0.7707 -0.3116
  759MOL0     C 2385   2.372   6.172   7.093 -0.2639 -0.1174 -0.1161
  759MOL0     C 2386   2.471   6.124   7.002  0.2391  0.0165 -0.1410
  759MOL0     C 2387   2.605   6.136   7.030 -0.5139  0.1956 -0.3570
  759MOL0     C 2388   2.649   6.196   7.148  0.3492 -0.3187  0.0573
  759MOL0     O 2389   2.783   6.200   7.166 -0.5100  0.0173 -0.3883
  759MOL0     C 2390   2.840   6.313   7.240  0.0662  0.5343 -0.6637
  759MOL0     C 2391   2.984   6.335   7.185 -0.0717 -0.3893  0.2021
  759MOL0     C 2392   3.052   6.422   7.295  0.3170  0.7788 -0.4519
  759MOL0     C 2393   3.187   6.494   7.271  0.5970  1.0266 -0.1774
  759MOL0     C 2394   3.266   6.432   7.167 -0.1892 -0.1186  0.5693
  759MOL0     C 2395   3.347   6.396   7.075  0.3128  0.7365 -0.8193
  759MOL0     C 2396   2.551   6.243   7.229 -1.0783 -0.3012 -0.2825
  759MOL0     C 2397   2.420   6.229   7.213 -0.0821 -0.1260 -0.3025
  759MOL0     H 2398   2.006   6.368   7.061  0.0235  0.2905  2.7480
  759MOL0     H 2399   1.777   6.375   7.003 -0.2140 -0.2651  1.8908
  759MOL0     H 2400   1.450   6.031   7.016 -3.8500  1.4203  0.3202
  759MOL0     H 2401   1.438   6.183   6.931  3.0518  0.7818 -0.8065
  759MOL0     H 2402   1.664   6.131   6.806  0.1164 -0.0766  0.8199
  759MOL0     H 2403   1.674   5.982   6.889  1.5756  0.5365 -0.3842
  759MOL0     H 2404   1.549   5.908   6.726 -2.4314 -0.9756  2.9748
  759MOL0     H 2405   1.402   5.980   6.778 -0.9111  2.7206 -0.3076
  759MOL0     H 2406   1.486   6.186   6.635 -2.1408  0.1628 -0.1914
  759MOL0     H 2407   1.599   6.082   6.557  0.4211 -2.4000  0.6765
  759MOL0     H 2408   1.304   6.088   6.529 -0.2391 -0.5858  1.0498
  759MOL0     H 2409   1.429   6.083   6.415 -3.8749  0.9797 -1.4675
  759MOL0     H 2410   1.462   5.835   6.465 -0.4701 -0.6016  2.4075
  759MOL0     H 2411   1.345   5.846   6.587  3.0504 -1.4809  0.7321
  759MOL0     H 2412   1.266   5.864   6.284 -2.5950 -2.8538 -0.8692
  759MOL0     H 2413   1.255   5.735   6.398  3.1981 -0.6346  0.7590
  759MOL0     H 2414   1.113   6.020   6.443  0.2597 -0.2324 -1.1543
  759MOL0     H 2415   1.099   5.880   6.535 -0.8796 -3.2753 -1.9477
  759MOL0     H 2416   1.063   5.948   6.152  1.9049 -1.2509 -0.6532
  759MOL0     H 2417   0.829   5.933   5.976 -0.4350  3.0758  5.8848
  759MOL0     H 2418   0.941   5.797   5.969 -1.6993 -3.1254 -1.5396
  759MOL0     H 2419   0.648   5.761   6.043 -0.8739 -1.4655 -0.7730
  759MOL0     H 2420   0.779   5.639   6.013 -0.7965 -1.5735 -0.1132
  759MOL0     H 2421   0.781   5.730   5.778  0.2127 -1.9231  1.9037
  759MOL0     H 2422   0.687   5.867   5.831  2.4617 -0.3552 -0.6355
  759MOL0     H 2423   0.560   5.690   5.702 -0.2008  0.7049 -0.4808
  759MOL0     H 2424   0.498   5.722   5.871  3.5576  1.5416  3.9060
  759MOL0     H 2425   0.592   5.299   5.815  0.2258  4.0457 -5.2923
  759MOL0     H 2426   0.360   5.029   5.817  1.1860 -1.2494 -0.6123
  759MOL0     H 2427   0.524   5.091   5.864  0.6347  3.3135  5.0614
  759MOL0     H 2428   0.390   5.063   5.980 -2.3924  2.8622  0.2329
  759MOL0     H 2429  -0.140   5.398   6.009  1.6071 -1.5871  0.2412
  759MOL0     H 2430  -0.367   5.309   6.097 -0.1931 -0.0656  0.0532
  759MOL0     H 2431  -0.549   4.968   6.205  1.7361 -1.8958 -1.9828
  759MOL0     H 2432  -0.386   5.021   6.253 -1.0090 -2.7730 -1.3882
  759MOL0     H 2433  -0.476   5.202   6.372 -2.1931 -1.0158  2.4195
  759MOL0     H 2434  -0.511   5.271   6.224 -2.8360  0.9028  3.0519
  759MOL0     H 2435  -0.713   5.092   6.386 -1.7491  0.3851 -1.2633
  759MOL0     H 2436  -0.739   5.157   6.228  0.7255  1.5003 -0.4333
  759MOL0     H 2437  -0.673   5.348   6.453  2.8031 -2.9622 -0.5238
  759MOL0     H 2438  -0.703   5.383   6.286 -2.0269  1.4597  0.5280
  759MOL0     H 2439  -0.868   5.255   6.492  1.3830 -1.7200 -1.3679
  759MOL0     H 2440  -0.929   5.255   6.326  2.1997 -1.6390 -0.2520
  759MOL0     H 2441  -1.028   5.454   6.355 -1.9176 -2.8444  0.9289
  759MOL0     H 2442  -1.018   5.429   6.517 -2.2241 -0.6524 -2.5870
  759MOL0     H 2443  -0.790   5.581   6.364  1.5301  1.4266  2.2303
  759MOL0     H 2444  -0.793   5.558   6.536  2.1055 -0.6786 -0.5236
  759MOL0     H 2445  -0.874   5.791   6.450 -1.1934 -0.2356 -1.1691
  759MOL0     H 2446  -0.974   5.711   6.567  1.8161 -1.1129  0.8773
  759MOL0     H 2447  -0.276   4.926   5.976 -0.2154 -0.6962 -0.3511
  759MOL0     H 2448  -0.076   5.006   5.827 -2.4638 -2.1843 -0.9846
  759MOL0     H 2449   0.149   5.480   5.925  0.5156  1.8124  1.0691
  759MOL0     H 2450   0.327   5.622   5.906 -0.0219 -1.2168  1.8680
  759MOL0     H 2451   1.699   5.993   7.160 -0.3445  0.0885  0.3582
  759MOL0     H 2452   1.951   5.966   7.209  1.2128  1.1079  3.0977
  759MOL0     H 2453   2.436   6.084   6.907  1.2426  2.1025 -1.4638
  759MOL0     H 2454   2.682   6.099   6.964  0.3871 -0.6626  1.1342
  759MOL0     H 2455   2.775   6.400   7.228  1.0006  1.3786  0.2289
  759MOL0     H 2456   2.840   6.288   7.347 -1.0827  0.2968 -0.7054
  759MOL0     H 2457   2.978   6.380   7.085  3.5612  1.5436  0.6864
  759MOL0     H 2458   3.047   6.247   7.173  1.8324  0.8681  0.5576
  759MOL0     H 2459   3.070   6.366   7.388 -2.1761  1.1104  0.3133
  759MOL0     H 2460   2.982   6.504   7.312  1.2949  1.4710  0.3823
  759MOL0     H 2461   3.237   6.489   7.368  0.4303 -0.6116 -0.1459
  759MOL0     H 2462   3.173   6.595   7.233 -2.9597  0.1842 -1.4974
  759MOL0     H 2463   3.414   6.356   7.002  1.2630  2.5369 -1.0142
  759MOL0     H 2464   2.574   6.302   7.317  0.3628  1.5269 -1.8021
  759MOL0     H 2465   2.355   6.260   7.294  0.4383  0.1146  0.0274
  760MOL0     O 2466  11.422   3.584   5.544 -0.3243 -0.1727  0.6908
  760MOL0     C 2467  11.514   3.519   5.493 -0.6185  0.7502  0.4325
  760MOL0     O 2468  11.505   3.384   5.463 -0.1581  1.2934 -0.4033
  760MOL0     C 2469  11.394   3.328   5.526  0.0953  0.0626  0.6719
  760MOL0     C 2470  11.268   3.336   5.461 -0.2445 -0.0688  0.1942
  760MOL0     C 2471  11.161   3.266   5.509  0.3378 -0.7043  0.3653
  760MOL0     C 2472  11.168   3.196   5.629  1.1220 -0.2615 -0.5582
  760MOL0     O 2473  11.056   3.123   5.676  0.0299 -0.8830  0.3224
  760MOL0     C 2474  10.929   3.188   5.656 -0.4833 -0.1602  0.1305
  760MOL0     C 2475  10.842   3.123   5.764 -0.2160 -1.1013 -0.2060
  760MOL0     C 2476  10.883   3.168   5.911 -0.1874  0.2906  0.0853
  760MOL0     C 2477  10.767   3.127   6.000 -0.1852 -0.1903 -0.2476
  760MOL0     C 2478  10.722   2.979   6.005 -0.0379 -0.0707 -0.1942
  760MOL0     C 2479  10.636   2.933   6.133  0.1458 -0.0099 -0.6866
  760MOL0     C 2480  10.690   2.984   6.265 -0.3658  0.0035 -0.4213
  760MOL0     C 2481  10.663   2.891   6.377  0.7177  0.5396 -1.6028
  760MOL0     N 2482  10.526   2.846   6.385 -0.6311  0.0442 -0.4867
  760MOL0     C 2483  10.503   2.712   6.363 -0.6738 -0.2284  0.0805
  760MOL0     C 2484  10.403   2.670   6.444 -0.7501 -0.8443  0.6736
  760MOL0     C 2485  10.336   2.542   6.463 -0.1075  0.1646 -0.9074
  760MOL0     C 2486  10.230   2.518   6.362 -0.0937  0.0896  0.6829
  760MOL0     C 2487  10.306   2.454   6.239  0.2466  0.6833 -0.0759
  760MOL0     C 2488  10.192   2.418   6.136 -0.0251  0.0500 -0.6414
  760MOL0     O 2489  10.224   2.372   6.005 -0.6251 -0.9651 -0.3381
  760MOL0     C 2490  10.300   2.263   6.006 -0.1890 -0.0609 -0.5566
  760MOL0     C 2491  10.301   2.153   6.097  0.5513  0.3310  0.0545
  760MOL0     C 2492  10.406   2.052   6.082  0.0891  0.5444  0.1204
  760MOL0     C 2493  10.398   1.946   6.197 -0.5063 -0.5749  0.0069
  760MOL0     C 2494  10.496   2.045   5.970 -0.6948 -1.3249  0.2741
  760MOL0     C 2495  10.603   1.944   5.941 -0.1070 -0.3717 -0.2464
  760MOL0     O 2496  10.659   1.950   5.819 -0.5981 -0.0267  0.0540
  760MOL0     C 2497  10.759   1.860   5.791 -1.2325  0.4662 -0.1288
  760MOL0     C 2498  10.892   1.913   5.791  0.0208  0.0848 -0.9985
  760MOL0     C 2499  10.992   1.828   5.748  0.5451  0.2145  0.2721
  760MOL0     C 2500  10.979   1.689   5.735  0.2046  0.1969  0.6945
  760MOL0     O 2501  11.089   1.614   5.710  0.6193 -0.7232  1.2091
  760MOL0     C 2502  11.079   1.473   5.733  0.5333  0.6341  0.2113
  760MOL0     C 2503  11.220   1.406   5.733  0.5799 -0.7822 -0.1460
  760MOL0     C 2504  11.336   1.477   5.819  0.2711 -0.1895 -0.5703
  760MOL0     C 2505  11.311   1.453   5.965 -0.4621 -0.8971  0.5932
  760MOL0     C 2506  11.221   1.553   6.040  0.1848  0.8664  0.0212
  760MOL0     C 2507  11.227   1.513   6.189  0.4333  0.1982 -0.1279
  760MOL0     C 2508  11.116   1.583   6.275 -0.5953  0.3657 -0.0088
  760MOL0     C 2509  11.123   1.738   6.265  0.9628 -0.6373  0.7853
  760MOL0    Cl 2510  11.274   1.816   6.302 -0.2895 -0.2692  0.4144
  760MOL0     C 2511  10.847   1.641   5.738 -0.2514  0.3800 -0.1123
  760MOL0     C 2512  10.744   1.721   5.774  0.4914 -0.7979  0.0540
  760MOL0     O 2513  10.637   1.859   6.022 -0.5062 -0.4879  0.0841
  760MOL0     C 2514  10.475   2.145   5.870 -0.2776  0.1435  0.3057
  760MOL0     C 2515  10.385   2.250   5.890 -0.6450  0.7374  0.0035
  760MOL0     N 2516  10.370   2.781   6.522  0.0199  0.3088 -0.3439
  760MOL0     N 2517  10.438   2.887   6.481 -0.2726  0.9672  0.2246
  760MOL0     C 2518  11.299   3.175   5.680  0.6967  0.1935  0.2626
  760MOL0     C 2519  11.416   3.242   5.636 -0.0697  0.1939  0.2381
  760MOL0     C 2520  11.639   3.600   5.449  0.2657 -0.0993 -0.1210
  760MOL0     C 2521  11.669   3.712   5.529 -0.3298  0.7933 -0.1080
  760MOL0     C 2522  11.782   3.780   5.486  0.3053 -0.2612 -0.2104
  760MOL0     C 2523  11.851   3.761   5.366 -1.0963 -0.0496 -0.4849
  760MOL0     O 2524  11.945   3.860   5.332  0.3770  0.3431 -0.4635
  760MOL0     C 2525  12.029   3.841   5.219  0.7277  0.5748 -0.4554
  760MOL0     C 2526  12.112   3.963   5.171  0.0489  0.4548  0.1982
  760MOL0     C 2527  12.234   3.988   5.266 -1.1037 -0.8192  0.1296
  760MOL0     C 2528  12.334   4.085   5.196 -0.5540 -0.7972 -0.2955
  760MOL0     C 2529  12.272   4.214   5.152  0.7133  0.1442 -0.4073
  760MOL0     C 2530  12.219   4.319   5.133  0.7810  0.5270  0.4499
  760MOL0     C 2531  11.814   3.657   5.278 -0.7641 -0.6251 -0.1317
  760MOL0     C 2532  11.710   3.575   5.331 -0.0567  0.1009  0.0926
  760MOL0     H 2533  11.252   3.390   5.369  2.3833 -0.9098 -0.8360
  760MOL0     H 2534  11.068   3.291   5.459 -0.1849 -1.4633  0.9433
  760MOL0     H 2535  10.935   3.294   5.682  0.0911 -0.0876 -0.2814
  760MOL0     H 2536  10.883   3.177   5.557 -3.0219  0.5923  1.1434
  760MOL0     H 2537  10.746   3.166   5.736  0.5999 -0.4746 -2.2448
  760MOL0     H 2538  10.845   3.014   5.749  1.1241 -1.3652  1.6473
  760MOL0     H 2539  10.968   3.102   5.929 -1.0643 -0.4252  1.9218
  760MOL0     H 2540  10.912   3.273   5.920 -1.5183  0.8119 -1.4125
  760MOL0     H 2541  10.790   3.172   6.097 -0.9688  0.7602 -0.4816
  760MOL0     H 2542  10.684   3.194   5.976 -0.9546 -1.2084 -0.5233
  760MOL0     H 2543  10.656   2.946   5.924 -1.1063 -3.4797  1.8351
  760MOL0     H 2544  10.813   2.920   5.998 -0.5527 -0.7162 -2.1524
  760MOL0     H 2545  10.534   2.972   6.123 -0.9255 -2.7023 -1.2738
  760MOL0     H 2546  10.629   2.824   6.129  2.1887 -0.2524  0.6908
  760MOL0     H 2547  10.799   2.986   6.263 -0.3328  2.3188  0.8363
  760MOL0     H 2548  10.666   3.087   6.290  0.1064 -0.0616  0.3213
  760MOL0     H 2549  10.704   2.923   6.473  0.4848 -0.5157 -1.1395
  760MOL0     H 2550  10.722   2.801   6.358  0.3885  0.0794 -0.5170
  760MOL0     H 2551  10.549   2.658   6.281 -2.0465 -2.0855  0.4726
  760MOL0     H 2552  10.404   2.457   6.477  1.2963  1.4736  0.6999
  760MOL0     H 2553  10.283   2.551   6.558  1.8529 -4.6728  1.0026
  760MOL0     H 2554  10.176   2.612   6.346  0.5159  0.0090 -2.4218
  760MOL0     H 2555  10.156   2.445   6.396  0.3376  0.2876  2.0876
  760MOL0     H 2556  10.365   2.367   6.271 -0.0596  0.6662  0.4514
  760MOL0     H 2557  10.376   2.522   6.189  2.1675 -0.0618  1.4680
  760MOL0     H 2558  10.130   2.508   6.130  0.1407  0.5060  2.8120
  760MOL0     H 2559  10.141   2.336   6.186 -1.7087  1.5361  0.2004
  760MOL0     H 2560  10.237   2.156   6.184 -1.1338  0.3315 -1.1412
  760MOL0     H 2561  10.316   1.961   6.267 -0.0861 -1.7840  0.7871
  760MOL0     H 2562  10.372   1.852   6.147 -2.4705 -0.0737  0.0020
  760MOL0     H 2563  10.491   1.928   6.251  1.2092 -2.9877 -3.3659
  760MOL0     H 2564  10.911   2.018   5.811 -0.4234  0.4177 -2.2472
  760MOL0     H 2565  11.092   1.860   5.722  1.1144 -0.3362  1.6827
  760MOL0     H 2566  11.030   1.461   5.830  0.9594 -0.4395  0.3048
  760MOL0     H 2567  11.019   1.420   5.659  0.2124  0.3519  0.6666
  760MOL0     H 2568  11.211   1.301   5.765 -0.7461 -0.8312 -0.6228
  760MOL0     H 2569  11.249   1.399   5.628 -0.3992 -1.3743 -0.3909
  760MOL0     H 2570  11.355   1.582   5.795  1.8299 -0.4939 -0.8032
  760MOL0     H 2571  11.426   1.418   5.800 -0.1926 -0.7803 -1.0049
  760MOL0     H 2572  11.280   1.351   5.990 -1.5226 -1.0109 -1.0424
  760MOL0     H 2573  11.410   1.469   6.009  0.2951  0.5502 -1.4970
  760MOL0     H 2574  11.122   1.543   5.993 -0.6423  0.4887  1.7628
  760MOL0     H 2575  11.260   1.654   6.025 -1.7211  1.9434  1.8229
  760MOL0     H 2576  11.215   1.407   6.213  3.7599 -1.0134 -2.9660
  760MOL0     H 2577  11.325   1.525   6.235 -0.7599 -1.9112  3.2758
  760MOL0     H 2578  11.119   1.549   6.380 -2.1263  1.2727  0.3549
  760MOL0     H 2579  11.022   1.553   6.229 -1.8432  1.5121  1.6526
  760MOL0     H 2580  11.049   1.778   6.336 -0.5264  1.7561 -1.9009
  760MOL0     H 2581  11.090   1.766   6.165  2.0754  1.5374  0.9805
  760MOL0     H 2582  10.828   1.534   5.733 -0.0369  0.1555  2.5403
  760MOL0     H 2583  10.654   1.667   5.803  1.4420 -1.7959  1.2417
  760MOL0     H 2584  10.528   2.167   5.778  1.9932  0.6148  1.6453
  760MOL0     H 2585  10.367   2.330   5.819 -3.6333 -0.0932 -0.3158
  760MOL0     H 2586  11.313   3.102   5.759 -0.6916  0.9548  1.2425
  760MOL0     H 2587  11.516   3.237   5.676  0.7929 -0.3392 -1.8424
  760MOL0     H 2588  11.613   3.743   5.616  1.0253  0.6317  0.8482
  760MOL0     H 2589  11.810   3.866   5.546 -2.9306  1.3796 -0.8514
  760MOL0     H 2590  12.094   3.754   5.233 -1.1420 -0.4929  2.5575
  760MOL0     H 2591  11.979   3.816   5.124  0.9529 -0.1409 -0.3885
  760MOL0     H 2592  12.052   4.055   5.168  0.3177  0.7136  1.7890
  760MOL0     H 2593  12.145   3.956   5.067  3.7389 -1.2721  1.3428
  760MOL0     H 2594  12.294   3.897   5.273 -1.7704 -1.6141 -3.1350
  760MOL0     H 2595  12.203   4.027   5.363  1.2069  0.4927  0.4261
  760MOL0     H 2596  12.369   4.040   5.102  0.0847  0.6900 -0.7934
  760MOL0     H 2597  12.425   4.106   5.252 -0.9196  0.8834 -0.2993
  760MOL0     H 2598  12.166   4.411   5.126  0.6942  0.6474  2.2227
  760MOL0     H 2599  11.868   3.638   5.186 -0.0371  2.2534 -0.4060
  760MOL0     H 2600  11.673   3.500   5.262  2.2730  0.1763 -1.3410
  761MOL0     O 2601   0.728   4.544   6.434 -1.0247 -1.0028 -0.0841
  761MOL0     C 2602   0.848   4.544   6.410  1.4583 -0.1030  0.3485
  761MOL0     O 2603   0.917   4.648   6.356 -0.4353 -0.4047  0.9898
  761MOL0     C 2604   0.865   4.780   6.317  0.4078 -0.4387  1.2481
  761MOL0     C 2605   0.948   4.893   6.350  0.7051  0.4099 -0.2109
  761MOL0     C 2606   0.899   5.020   6.339  0.0382 -0.1832  0.5198
  761MOL0     C 2607   0.779   5.043   6.269 -0.0753 -0.3783  0.4725
  761MOL0     O 2608   0.757   5.170   6.223  0.2133 -0.5839  0.7633
  761MOL0     C 2609   0.730   5.179   6.088  0.4592 -0.6227  0.1659
  761MOL0     C 2610   0.850   5.160   5.997 -0.3567  0.6346 -0.0970
  761MOL0     C 2611   0.984   5.222   6.038 -0.9390 -0.3063  0.0094
  761MOL0     C 2612   1.079   5.266   5.922  0.7169 -1.1514  0.4296
  761MOL0     C 2613   1.028   5.392   5.856  0.2151  0.1423 -0.9505
  761MOL0     C 2614   1.123   5.443   5.746 -0.3137  0.1965  0.1954
  761MOL0     C 2615   1.064   5.562   5.666  0.3207  0.1047  0.4600
  761MOL0     C 2616   1.117   5.700   5.716 -0.6207 -0.4677  0.7711
  761MOL0     N 2617   1.027   5.811   5.674 -0.6437 -0.3852  0.6572
  761MOL0     C 2618   0.984   5.836   5.543 -0.8680 -0.9322  0.3485
  761MOL0     C 2619   0.939   5.969   5.547 -0.1145  0.2961  0.1154
  761MOL0     C 2620   0.888   6.048   5.427 -0.2595 -0.3099 -0.7923
  761MOL0     C 2621   0.785   6.160   5.468 -0.1463 -0.2873  0.3369
  761MOL0     C 2622   0.647   6.108   5.464  0.2061  0.2371  0.7121
  761MOL0     C 2623   0.616   6.006   5.565  0.3651 -0.5287  0.9078
  761MOL0     O 2624   0.481   5.982   5.556  0.6320  0.0081 -0.1309
  761MOL0     C 2625   0.406   5.939   5.667 -0.3900 -0.5821 -0.5887
  761MOL0     C 2626   0.457   5.960   5.797 -0.3792 -0.1519  0.1669
  761MOL0     C 2627   0.384   5.925   5.910  0.6099  0.8315 -0.4692
  761MOL0     C 2628   0.446   5.957   6.050 -0.1000  0.1469 -0.1329
  761MOL0     C 2629   0.252   5.877   5.901 -0.1337  0.0159 -0.0102
  761MOL0     C 2630   0.156   5.829   6.018 -0.3196 -0.8953  0.6049
  761MOL0     O 2631   0.035   5.785   5.988 -0.3405  0.5963  0.4961
  761MOL0     C 2632  -0.062   5.731   6.066  0.0223 -0.6991  0.6519
  761MOL0     C 2633  -0.056   5.700   6.205 -0.4664 -0.8069  0.1983
  761MOL0     C 2634  -0.152   5.624   6.273 -0.7917  0.2452  0.0701
  761MOL0     C 2635  -0.265   5.574   6.202 -0.7575 -0.8008  0.2022
  761MOL0     O 2636  -0.367   5.513   6.264 -0.1028 -0.3085  0.8051
  761MOL0     C 2637  -0.415   5.559   6.391 -0.1202 -0.3997 -1.2595
  761MOL0     C 2638  -0.448   5.715   6.403 -0.9741  0.2579  0.7555
  761MOL0     C 2639  -0.528   5.745   6.279 -0.3318 -0.6573  0.7432
  761MOL0     C 2640  -0.583   5.892   6.298 -0.1053 -0.4178 -0.9145
  761MOL0     C 2641  -0.648   5.958   6.172  0.6561  1.0198 -0.0735
  761MOL0     C 2642  -0.757   5.873   6.103  0.3585  0.2301  0.3654
  761MOL0     C 2643  -0.802   5.941   5.973 -0.8349 -0.5704  0.0671
  761MOL0     C 2644  -0.905   5.872   5.904 -0.5662 -0.2444  0.0878
  761MOL0    Cl 2645  -0.967   5.974   5.767  0.2674  0.3038  0.2609
  761MOL0     C 2646  -0.267   5.604   6.064  0.2753 -0.7317  0.5857
  761MOL0     C 2647  -0.164   5.667   6.000 -0.7586 -0.1389  0.5733
  761MOL0     O 2648   0.191   5.872   6.126 -0.1867 -0.2351 -0.1549
  761MOL0     C 2649   0.200   5.851   5.768  0.0298  0.7494 -0.6345
  761MOL0     C 2650   0.277   5.877   5.655  0.0454 -0.7448 -0.2382
  761MOL0     N 2651   0.974   6.018   5.667 -0.4215  0.1093  0.8091
  761MOL0     N 2652   1.013   5.923   5.745  0.7619  0.0386  0.9528
  761MOL0     C 2653   0.694   4.935   6.239  0.2263 -0.5468 -0.7017
  761MOL0     C 2654   0.735   4.804   6.273  0.2036  0.0431  0.6044
  761MOL0     C 2655   0.920   4.422   6.448  0.1929  0.5469  0.0899
  761MOL0     C 2656   1.039   4.392   6.391 -0.0518 -1.4959 -1.2788
  761MOL0     C 2657   1.104   4.269   6.413  0.1398  0.2965 -0.3987
  761MOL0     C 2658   1.057   4.170   6.487  0.6959 -0.4927 -0.0806
  761MOL0     O 2659   1.122   4.063   6.528  0.1067  0.2099  0.0229
  761MOL0     C 2660   1.253   4.042   6.466 -1.1810  0.1503 -0.3331
  761MOL0     C 2661   1.310   3.922   6.536 -0.4581  0.7392 -0.4678
  761MOL0     C 2662   1.420   3.842   6.458 -0.5972  0.5043  0.2625
  761MOL0     C 2663   1.484   3.722   6.528  0.3666 -0.9140 -0.3293
  761MOL0     C 2664   1.389   3.616   6.544 -0.0989  0.4824 -1.5706
  761MOL0     C 2665   1.305   3.530   6.556  0.0276 -0.1026 -0.1233
  761MOL0     C 2666   0.926   4.192   6.541 -0.5741  1.4090 -0.3005
  761MOL0     C 2667   0.860   4.323   6.532  0.1922  0.2235 -0.1220
  761MOL0     H 2668   1.039   4.868   6.403 -0.2517  1.0837  1.8645
  761MOL0     H 2669   0.956   5.105   6.375  2.3305 -1.3293 -0.2676
  761MOL0     H 2670   0.662   5.098   6.060 -0.0625 -0.6638  1.4873
  761MOL0     H 2671   0.666   5.267   6.086 -0.7625 -1.4502  1.2796
  761MOL0     H 2672   0.870   5.054   5.977  0.2422  0.8131 -0.4723
  761MOL0     H 2673   0.828   5.205   5.900 -0.5263 -1.7408 -1.2437
  761MOL0     H 2674   0.969   5.314   6.095  3.0049  0.2185  0.4583
  761MOL0     H 2675   1.032   5.172   6.122 -0.8388 -1.2419 -0.5988
  761MOL0     H 2676   1.185   5.255   5.948  0.9269  0.1702  0.2000
  761MOL0     H 2677   1.071   5.198   5.837 -0.1562 -1.0865  0.4505
  761MOL0     H 2678   0.926   5.373   5.820 -1.3279 -0.0795  3.0987
  761MOL0     H 2679   1.016   5.479   5.920  0.1086  1.3197 -2.4955
  761MOL0     H 2680   1.219   5.471   5.791 -1.3990  2.9239  1.0595
  761MOL0     H 2681   1.132   5.355   5.682  0.3905  1.7537 -1.9476
  761MOL0     H 2682   1.096   5.542   5.563  1.3246  0.1093  0.7574
  761MOL0     H 2683   0.955   5.560   5.669 -0.2655  2.8397 -5.2239
  761MOL0     H 2684   1.216   5.732   5.683 -0.9288 -0.9915 -0.7291
  761MOL0     H 2685   1.110   5.709   5.825  1.0620 -1.0275  0.9631
  761MOL0     H 2686   0.983   5.762   5.464 -0.7596 -4.2153  3.1549
  761MOL0     H 2687   0.979   6.075   5.374  1.1035 -1.6598  0.7472
  761MOL0     H 2688   0.837   5.979   5.359  2.2147 -0.5492 -2.5265
  761MOL0     H 2689   0.796   6.249   5.404  0.5186 -0.9358 -0.4665
  761MOL0     H 2690   0.802   6.192   5.571 -1.9353 -0.6074  0.7727
  761MOL0     H 2691   0.630   6.068   5.364  1.7986  1.2545 -0.0144
  761MOL0     H 2692   0.577   6.192   5.469 -2.7889 -1.5904 -3.7821
  761MOL0     H 2693   0.653   6.062   5.651  2.6911  0.5035 -0.6632
  761MOL0     H 2694   0.673   5.913   5.558 -1.5130 -1.6616 -0.2091
  761MOL0     H 2695   0.550   6.008   5.824 -1.8567  1.0321  3.7986
  761MOL0     H 2696   0.386   6.037   6.094  0.0569 -1.9590  4.3999
  761MOL0     H 2697   0.451   5.874   6.120 -2.4676  1.2124  1.4320
  761MOL0     H 2698   0.552   5.982   6.040  0.4544 -2.0190 -0.1178
  761MOL0     H 2699   0.032   5.737   6.257  0.0273 -1.1492 -0.3729
  761MOL0     H 2700  -0.139   5.619   6.381 -1.9817  1.5769  0.3086
  761MOL0     H 2701  -0.504   5.504   6.422  1.2593 -2.1210 -0.1317
  761MOL0     H 2702  -0.344   5.525   6.467  0.0723 -0.0892 -1.2964
  761MOL0     H 2703  -0.507   5.728   6.495 -1.1919 -1.8818  0.9550
  761MOL0     H 2704  -0.357   5.773   6.421 -1.6971  0.8918  2.7518
  761MOL0     H 2705  -0.606   5.671   6.258 -1.0287 -1.3547  4.9927
  761MOL0     H 2706  -0.455   5.748   6.198  1.0938 -0.1136  2.0155
  761MOL0     H 2707  -0.662   5.871   6.371  1.7298  0.8146  1.5879
  761MOL0     H 2708  -0.505   5.959   6.335 -0.4172 -1.6140  2.2193
  761MOL0     H 2709  -0.566   5.969   6.099  1.7611 -2.2308  0.5320
  761MOL0     H 2710  -0.700   6.052   6.194 -3.4628 -0.3648 -2.7821
  761MOL0     H 2711  -0.712   5.778   6.071  0.1631  0.1245  0.3995
  761MOL0     H 2712  -0.836   5.866   6.178  0.5062 -2.4764  0.3713
  761MOL0     H 2713  -0.715   5.941   5.906 -2.6453  0.0468 -2.4066
  761MOL0     H 2714  -0.841   6.043   5.977 -2.0854 -0.8158 -3.0274
  761MOL0     H 2715  -0.986   5.843   5.971  0.9183  0.8404  2.4778
  761MOL0     H 2716  -0.866   5.779   5.859  3.9461  0.9492  0.9936
  761MOL0     H 2717  -0.351   5.580   6.000  3.0350 -0.9128 -3.3315
  761MOL0     H 2718  -0.164   5.682   5.892  1.8964 -0.6598  0.4428
  761MOL0     H 2719   0.094   5.834   5.751 -0.2909  2.0466 -0.0258
  761MOL0     H 2720   0.228   5.869   5.558  2.6540 -0.7736 -1.6538
  761MOL0     H 2721   0.593   4.945   6.202  0.1953  2.0632 -0.1092
  761MOL0     H 2722   0.661   4.724   6.270 -0.4482  0.6655 -0.5732
  761MOL0     H 2723   1.096   4.473   6.347  2.7567 -1.6142  1.7545
  761MOL0     H 2724   1.203   4.278   6.368 -0.6762 -0.1013 -2.3621
  761MOL0     H 2725   1.244   4.021   6.359  2.9699 -0.7848 -0.6689
  761MOL0     H 2726   1.313   4.134   6.466 -1.5469  0.4111 -1.5905
  761MOL0     H 2727   1.230   3.853   6.563  1.4741 -1.5706 -0.3176
  761MOL0     H 2728   1.360   3.953   6.628  0.2123 -0.3857 -0.4468
  761MOL0     H 2729   1.497   3.918   6.440  2.7129 -2.2137  1.6785
  761MOL0     H 2730   1.389   3.811   6.359  0.8702  1.2644 -0.4728
  761MOL0     H 2731   1.523   3.750   6.626  0.8960 -4.3958  0.6001
  761MOL0     H 2732   1.564   3.688   6.463  1.1543  2.2717 -1.1926
  761MOL0     H 2733   1.218   3.469   6.571  0.2946 -0.3689  0.3645
  761MOL0     H 2734   0.879   4.108   6.592  0.1375  1.1360 -0.0713
  761MOL0     H 2735   0.761   4.347   6.569  0.6951  4.5026 -1.0909
  762MOL0     O 2736   9.910   1.759   0.640 -0.1876 -0.6869 -0.0506
  762MOL0     C 2737   9.988   1.675   0.700 -0.1049 -0.2362 -0.5637
  762MOL0     O 2738  10.122   1.695   0.735 -0.6445 -0.3811 -0.2205
  762MOL0     C 2739  10.162   1.823   0.723 -0.9143  0.0489 -0.7561
  762MOL0     C 2740  10.182   1.897   0.836  1.3099 -0.6604  0.3611
  762MOL0     C 2741  10.219   2.028   0.826 -1.1654 -0.3976  0.3955
  762MOL0     C 2742  10.252   2.082   0.696  1.2443 -0.0920  0.7642
  762MOL0     O 2743  10.273   2.218   0.690 -0.8233 -0.1959  0.2322
  762MOL0     C 2744  10.338   2.277   0.573 -0.1363  0.5529  0.6096
  762MOL0     C 2745  10.369   2.438   0.588 -0.2392  0.2043 -0.2225
  762MOL0     C 2746  10.474   2.445   0.700 -1.2757  0.7462 -0.0876
  762MOL0     C 2747  10.589   2.533   0.661 -0.6254 -0.5006  0.1444
  762MOL0     C 2748  10.709   2.559   0.754 -0.4788  0.2212  0.2221
  762MOL0     C 2749  10.825   2.656   0.694  0.6435  0.5445  0.1576
  762MOL0     C 2750  10.774   2.794   0.662  0.8538 -0.2638 -0.7126
  762MOL0     C 2751  10.877   2.901   0.670  0.0428  0.1648 -0.1196
  762MOL0     N 2752  10.833   3.034   0.617  0.1864 -0.0526 -0.2747
  762MOL0     C 2753  10.857   3.089   0.491  0.1953 -0.2539  0.0333
  762MOL0     C 2754  10.815   3.215   0.515  0.0158  0.6815  0.2248
  762MOL0     C 2755  10.822   3.325   0.409 -0.6493 -0.1089  0.3154
  762MOL0     C 2756  10.736   3.449   0.449 -0.2603  0.8572  0.9147
  762MOL0     C 2757  10.719   3.544   0.334  0.4265 -0.6882  0.4616
  762MOL0     C 2758  10.714   3.687   0.369 -0.0698 -1.3985  0.0121
  762MOL0     O 2759  10.588   3.710   0.442  0.1752 -0.3187  0.1120
  762MOL0     C 2760  10.586   3.831   0.506 -0.2596 -0.7969  0.6027
  762MOL0     C 2761  10.621   3.949   0.435 -0.6589  0.3208  0.5457
  762MOL0     C 2762  10.638   4.073   0.502  0.0136 -0.3110  0.3572
  762MOL0     C 2763  10.702   4.182   0.423 -1.2992 -0.3505  0.5437
  762MOL0     C 2764  10.606   4.088   0.640  1.2921  0.8117  0.1218
  762MOL0     C 2765  10.600   4.217   0.720 -0.6910  0.3094 -0.3148
  762MOL0     O 2766  10.614   4.338   0.653  0.5908 -0.0074 -0.7154
  762MOL0     C 2767  10.613   4.446   0.740  0.3281 -0.9006  1.0758
  762MOL0     C 2768  10.494   4.529   0.743 -0.2882  1.0992 -0.8766
  762MOL0     C 2769  10.481   4.631   0.843  0.3032 -0.6357  0.3684
  762MOL0     C 2770  10.594   4.656   0.928  0.9032  1.0327 -0.2927
  762MOL0     O 2771  10.567   4.747   1.033 -0.1427  0.4842 -0.1311
  762MOL0     C 2772  10.679   4.766   1.126 -0.4547  0.8498  0.5956
  762MOL0     C 2773  10.644   4.825   1.257  0.5304 -0.3272 -0.5436
  762MOL0     C 2774  10.751   4.863   1.368 -0.1986 -0.2751 -0.9346
  762MOL0     C 2775  10.762   4.720   1.452 -0.6968 -0.0449  0.1824
  762MOL0     C 2776  10.897   4.716   1.526 -0.5028 -0.1879 -0.5963
  762MOL0     C 2777  10.924   4.577   1.602 -0.4813  0.7930 -0.3603
  762MOL0     C 2778  11.043   4.563   1.702 -0.2926 -0.1408  0.1590
  762MOL0     C 2779  11.173   4.632   1.640  0.2883 -0.8071 -0.8535
  762MOL0    Cl 2780  11.200   4.602   1.470  0.0242  0.4367  0.3094
  762MOL0     C 2781  10.720   4.592   0.906  0.1643 -0.4280  0.2934
  762MOL0     C 2782  10.727   4.476   0.823 -0.3095  0.4239  0.2220
  762MOL0     O 2783  10.603   4.211   0.845 -0.0355 -0.2638  0.4289
  762MOL0     C 2784  10.564   3.970   0.704 -0.3750 -0.1110 -0.1924
  762MOL0     C 2785  10.542   3.850   0.630 -0.4170  0.9004  0.1217
  762MOL0     N 2786  10.760   3.230   0.645 -0.1680 -0.3897 -0.2232
  762MOL0     N 2787  10.768   3.117   0.702  0.5816  0.6486 -0.1590
  762MOL0     C 2788  10.252   2.001   0.580 -0.6551  0.9474 -1.0436
  762MOL0     C 2789  10.196   1.865   0.591 -0.0362  0.0623 -0.1257
  762MOL0     C 2790   9.933   1.541   0.734  1.2015 -0.4292  0.1450
  762MOL0     C 2791   9.794   1.516   0.759  0.1763 -0.5681 -0.7378
  762MOL0     C 2792   9.763   1.386   0.795 -0.0837  0.3255 -1.0969
  762MOL0     C 2793   9.858   1.288   0.823 -0.2966 -0.5626  0.5100
  762MOL0     O 2794   9.816   1.161   0.855  0.2444 -0.0449  0.4644
  762MOL0     C 2795   9.683   1.113   0.838  1.0627  0.8037 -0.4366
  762MOL0     C 2796   9.601   1.139   0.966 -0.3757 -0.8658  0.0677
  762MOL0     C 2797   9.618   1.055   1.088 -0.1321 -0.0936 -0.4355
  762MOL0     C 2798   9.600   0.904   1.075 -0.0153  0.2558  0.6799
  762MOL0     C 2799   9.597   0.841   1.206 -0.0071 -0.1058 -1.2354
  762MOL0     C 2800   9.629   0.806   1.324  0.6632 -0.2978  1.4782
  762MOL0     C 2801   9.991   1.312   0.802 -0.0732 -0.5932 -0.7218
  762MOL0     C 2802  10.029   1.438   0.762 -0.5074  0.6070 -0.5498
  762MOL0     H 2803  10.162   1.859   0.936  0.9878 -0.6346  0.3080
  762MOL0     H 2804  10.219   2.087   0.917  0.6329 -1.4204  1.1116
  762MOL0     H 2805  10.419   2.217   0.533  1.3122  0.2247  3.7317
  762MOL0     H 2806  10.256   2.270   0.501 -0.3700 -0.1986  0.9399
  762MOL0     H 2807  10.409   2.477   0.494 -2.6585 -3.0547 -2.8741
  762MOL0     H 2808  10.284   2.504   0.607  0.4887  1.0005  0.3560
  762MOL0     H 2809  10.416   2.490   0.781  1.0363 -1.8835  3.3570
  762MOL0     H 2810  10.501   2.346   0.740 -2.6850  1.5396  3.1817
  762MOL0     H 2811  10.628   2.494   0.566  0.7329 -0.9533  0.8670
  762MOL0     H 2812  10.561   2.633   0.625  3.5088  0.6043 -0.5151
  762MOL0     H 2813  10.681   2.594   0.854 -1.5457  0.6957 -0.2344
  762MOL0     H 2814  10.754   2.462   0.776  0.1280  0.1768 -1.1178
  762MOL0     H 2815  10.912   2.659   0.760 -0.0185 -1.7403  1.2322
  762MOL0     H 2816  10.866   2.609   0.604  0.7576 -0.4673  0.7227
  762MOL0     H 2817  10.723   2.791   0.565  3.3563 -1.7823 -2.1065
  762MOL0     H 2818  10.703   2.826   0.738  3.1269 -0.3048  1.5640
  762MOL0     H 2819  10.955   2.864   0.603 -0.6205 -0.5260 -0.5294
  762MOL0     H 2820  10.920   2.896   0.771 -1.9888 -1.3652  0.7492
  762MOL0     H 2821  10.907   3.049   0.403  0.3454 -0.8044  0.3670
  762MOL0     H 2822  10.926   3.353   0.391 -0.7761 -1.0141 -2.1188
  762MOL0     H 2823  10.804   3.281   0.311 -0.1566  2.7233 -1.1460
  762MOL0     H 2824  10.788   3.492   0.535  3.8076 -1.5430 -0.0436
  762MOL0     H 2825  10.639   3.412   0.482 -1.0204  2.0218  0.0769
  762MOL0     H 2826  10.630   3.511   0.280  1.9170 -1.5447 -1.5812
  762MOL0     H 2827  10.801   3.530   0.263  2.5264  1.3994  2.3007
  762MOL0     H 2828  10.720   3.753   0.282 -2.0515  1.0187  1.5780
  762MOL0     H 2829  10.807   3.711   0.422  0.8305  0.3061 -2.1939
  762MOL0     H 2830  10.639   3.949   0.328 -2.2870  1.7292  0.2242
  762MOL0     H 2831  10.624   4.248   0.383 -1.2838 -0.7352 -0.1370
  762MOL0     H 2832  10.752   4.241   0.501 -3.7022  0.3736  1.6397
  762MOL0     H 2833  10.774   4.160   0.343 -1.5704 -0.3596  0.3015
  762MOL0     H 2834  10.404   4.498   0.692 -1.0689 -2.4155  2.2015
  762MOL0     H 2835  10.398   4.696   0.867  2.2262  2.0048  0.3643
  762MOL0     H 2836  10.735   4.676   1.155  1.4461  0.7235 -2.9652
  762MOL0     H 2837  10.749   4.837   1.083  0.7694  0.5198  1.9386
  762MOL0     H 2838  10.602   4.921   1.223  0.0163 -0.4005 -0.1119
  762MOL0     H 2839  10.578   4.759   1.312  3.3777 -1.2311  2.1169
  762MOL0     H 2840  10.719   4.934   1.444  2.0029  0.6159 -0.7634
  762MOL0     H 2841  10.844   4.892   1.318 -0.7211  3.4099 -0.0246
  762MOL0     H 2842  10.677   4.719   1.520 -1.0882 -0.4929 -0.3033
  762MOL0     H 2843  10.747   4.643   1.376 -0.3261  0.4199 -0.3803
  762MOL0     H 2844  10.907   4.798   1.598  1.6761  0.1843 -1.2409
  762MOL0     H 2845  10.971   4.728   1.446 -0.3945 -0.1687 -0.4938
  762MOL0     H 2846  10.838   4.529   1.649  0.0499  1.7675  1.7147
  762MOL0     H 2847  10.961   4.509   1.524  0.3806  0.1093  0.6181
  762MOL0     H 2848  11.060   4.457   1.726  2.8443  0.1911 -0.1534
  762MOL0     H 2849  11.002   4.623   1.784  0.8296  2.2100 -0.9257
  762MOL0     H 2850  11.256   4.609   1.706 -0.8396 -1.1451  0.5010
  762MOL0     H 2851  11.154   4.739   1.646  1.3927 -0.6604  0.6560
  762MOL0     H 2852  10.818   4.595   0.951  1.4912 -1.3897 -2.3372
  762MOL0     H 2853  10.810   4.409   0.805 -1.1055 -0.2968 -0.9484
  762MOL0     H 2854  10.538   3.976   0.809  1.7654 -4.5546  0.8256
  762MOL0     H 2855  10.500   3.760   0.674  0.8650 -0.2890 -0.9672
  762MOL0     H 2856  10.288   2.034   0.484 -2.0875 -2.2297 -2.8299
  762MOL0     H 2857  10.189   1.793   0.510 -0.2713 -1.0802  0.8941
  762MOL0     H 2858   9.708   1.580   0.736  0.8679  0.7570  0.2130
  762MOL0     H 2859   9.655   1.375   0.807 -0.1630  1.7174 -0.2531
  762MOL0     H 2860   9.644   1.151   0.743 -0.6708 -2.8038 -1.3858
  762MOL0     H 2861   9.685   1.003   0.830  1.4219  0.8200 -0.5912
  762MOL0     H 2862   9.500   1.128   0.926  0.7680 -1.7723 -2.8062
  762MOL0     H 2863   9.618   1.241   1.003 -1.3493 -1.8292  3.5623
  762MOL0     H 2864   9.548   1.085   1.167  0.5579 -1.2522  0.6559
  762MOL0     H 2865   9.716   1.086   1.125 -0.2760  0.7012 -0.6930
  762MOL0     H 2866   9.675   0.864   1.006 -1.1025  0.6343 -0.7767
  762MOL0     H 2867   9.509   0.894   1.015  0.7102  2.4202 -0.9335
  762MOL0     H 2868   9.661   0.784   1.423  2.2150  0.9333  1.2854
  762MOL0     H 2869  10.059   1.232   0.829 -1.5438 -1.5350  0.3290
  762MOL0     H 2870  10.136   1.457   0.770  0.3265 -3.5058  0.5053
  763MOL0     O 2871   2.780   3.336  10.941  0.0333  0.7396 -0.0143
  763MOL0     C 2872   2.711   3.307  10.844 -0.7201  0.1853 -0.3105
  763MOL0     O 2873   2.724   3.200  10.761  0.6814  0.1573  0.1145
  763MOL0     C 2874   2.833   3.117  10.761 -0.0639 -0.7250 -0.8027
  763MOL0     C 2875   2.828   2.982  10.733 -0.7696  0.2032 -1.6302
  763MOL0     C 2876   2.944   2.912  10.707  0.4801  0.2854 -0.0571
  763MOL0     C 2877   3.072   2.968  10.700 -0.2577 -0.5756 -0.2442
  763MOL0     O 2878   3.173   2.882  10.677 -0.8528  0.9880  0.1679
  763MOL0     C 2879   3.299   2.918  10.605  0.3072 -0.2195  0.8284
  763MOL0     C 2880   3.280   2.939  10.447  0.1160 -0.0559  0.0055
  763MOL0     C 2881   3.403   2.952  10.370 -0.8933  0.7218  0.1538
  763MOL0     C 2882   3.475   3.077  10.384 -0.6059 -0.2192  0.0635
  763MOL0     C 2883   3.624   3.043  10.346  0.6771  0.1021  0.0961
  763MOL0     C 2884   3.689   3.174  10.304  0.6320 -0.5072 -0.5445
  763MOL0     C 2885   3.833   3.163  10.254 -0.4263 -0.1610  0.7610
  763MOL0     C 2886   3.941   3.117  10.352  0.7548  0.4665 -0.6229
  763MOL0     N 2887   3.991   3.232  10.427  0.6539 -0.8694 -1.0211
  763MOL0     C 2888   4.059   3.213  10.550  0.0054  0.6553  0.7437
  763MOL0     C 2889   4.115   3.334  10.584  0.1042  0.1863  0.6850
  763MOL0     C 2890   4.199   3.371  10.699 -1.1279  0.4127  0.0355
  763MOL0     C 2891   4.343   3.406  10.651  0.7631  0.5051 -0.4086
  763MOL0     C 2892   4.432   3.464  10.763  0.9634 -0.7917  1.7988
  763MOL0     C 2893   4.576   3.464  10.705  0.4070 -0.0273  0.5883
  763MOL0     O 2894   4.679   3.503  10.797  0.6156 -0.5857 -0.0373
  763MOL0     C 2895   4.811   3.479  10.764 -0.1242  0.1786  0.7413
  763MOL0     C 2896   4.905   3.532  10.855  0.8884 -0.3797 -0.5913
  763MOL0     C 2897   5.039   3.529  10.837  0.5272 -0.3203  0.2495
  763MOL0     C 2898   5.124   3.624  10.929 -0.3266  1.2321  0.0909
  763MOL0     C 2899   5.089   3.463  10.728  0.8258 -0.6892  0.1562
  763MOL0     C 2900   5.238   3.442  10.719 -0.1566  0.5934 -0.6003
  763MOL0     O 2901   5.275   3.407  10.602  0.3597 -0.3163  0.6892
  763MOL0     C 2902   5.399   3.444  10.553  0.1056  0.1299  0.5846
  763MOL0     C 2903   5.474   3.550  10.613 -0.2535  0.3957 -0.4980
  763MOL0     C 2904   5.594   3.583  10.568 -0.8911 -0.1250  0.1829
  763MOL0     C 2905   5.657   3.514  10.454 -0.0300  0.7365  0.5249
  763MOL0     O 2906   5.779   3.564  10.405 -0.2475 -0.3224 -0.4599
  763MOL0     C 2907   5.891   3.476  10.399 -0.0568  0.8131 -0.0538
  763MOL0     C 2908   5.991   3.553  10.320 -0.0524 -0.0560  0.5775
  763MOL0     C 2909   5.959   3.540  10.171  0.7615  1.3956  0.2965
  763MOL0     C 2910   6.077   3.589  10.082  1.6251 -0.5525  0.7019
  763MOL0     C 2911   6.207   3.501  10.074  0.0745  0.5901  0.0738
  763MOL0     C 2912   6.168   3.352  10.038  0.4061 -0.2270  0.4997
  763MOL0     C 2913   6.283   3.258   9.997  0.1265  0.1402 -0.2866
  763MOL0     C 2914   6.391   3.229  10.104  0.8622  0.1875  0.7476
  763MOL0    Cl 2915   6.329   3.143  10.242  0.1805  0.2395 -0.4114
  763MOL0     C 2916   5.584   3.415  10.387  0.4630 -0.6035  0.1286
  763MOL0     C 2917   5.460   3.382  10.442 -0.8209  0.2050 -0.4784
  763MOL0     O 2918   5.306   3.440  10.823 -0.0655  0.2592  0.1066
  763MOL0     C 2919   5.005   3.413  10.632 -0.5440 -1.0977 -0.5307
  763MOL0     C 2920   4.866   3.420  10.650 -0.0947  0.6553  0.0994
  763MOL0     N 2921   4.089   3.416  10.477  0.6566  0.5962 -1.2285
  763MOL0     N 2922   4.031   3.351  10.381 -0.2499 -0.7624 -0.2379
  763MOL0     C 2923   3.075   3.105  10.739  0.0440  0.0883  0.0923
  763MOL0     C 2924   2.957   3.179  10.763  0.0567 -0.0809  1.6713
  763MOL0     C 2925   2.592   3.388  10.819  0.0273 -0.0520  0.3885
  763MOL0     C 2926   2.589   3.516  10.869  0.7672  0.4391  0.1499
  763MOL0     C 2927   2.476   3.588  10.862  0.2987 -0.1364 -0.5512
  763MOL0     C 2928   2.354   3.545  10.809 -0.2622  0.9064 -0.1423
  763MOL0     O 2929   2.239   3.614  10.842  0.2021 -0.5897 -0.5741
  763MOL0     C 2930   2.128   3.601  10.751 -0.2008  0.2378  0.8035
  763MOL0     C 2931   2.038   3.721  10.773  0.1995  0.0205  0.1306
  763MOL0     C 2932   1.906   3.697  10.691 -0.9192 -0.2139 -0.7606
  763MOL0     C 2933   1.819   3.823  10.679 -0.5810 -0.4629 -0.2214
  763MOL0     C 2934   1.893   3.928  10.611  0.4936 -1.1051  0.3375
  763MOL0     C 2935   1.939   4.029  10.563  0.1029  0.1975  0.5733
  763MOL0     C 2936   2.355   3.422  10.749 -0.1647 -0.1549 -0.4221
  763MOL0     C 2937   2.476   3.343  10.751  0.2081  0.0241 -1.2489
  763MOL0     H 2938   2.730   2.936  10.727 -1.0475  0.3615  0.7943
  763MOL0     H 2939   2.951   2.804  10.697 -2.4668 -0.2982  2.7568
  763MOL0     H 2940   3.332   3.011  10.652  2.2239  0.7820 -2.1536
  763MOL0     H 2941   3.370   2.836  10.609  0.1454 -1.1393 -5.0948
  763MOL0     H 2942   3.211   2.860  10.414 -0.9471  0.3109  1.2641
  763MOL0     H 2943   3.227   3.035  10.446  0.8790  0.3705 -1.4661
  763MOL0     H 2944   3.459   2.862  10.397 -3.9781 -1.3946  0.0942
  763MOL0     H 2945   3.387   2.938  10.263  0.1137  2.9204 -0.3476
  763MOL0     H 2946   3.441   3.145  10.306 -1.0398 -1.1052 -0.5356
  763MOL0     H 2947   3.481   3.138  10.475 -0.1689  1.3997 -1.0056
  763MOL0     H 2948   3.670   2.988  10.429 -0.3203 -1.4206 -0.3283
  763MOL0     H 2949   3.622   2.975  10.261  2.8430 -3.5780  2.6693
  763MOL0     H 2950   3.631   3.233  10.232 -2.1701 -0.6311  1.4181
  763MOL0     H 2951   3.686   3.233  10.397  0.8826  0.7740 -1.3319
  763MOL0     H 2952   3.829   3.092  10.172 -1.3372  3.3474 -2.5493
  763MOL0     H 2953   3.852   3.266  10.221  0.1894  0.0210  1.6298
  763MOL0     H 2954   4.027   3.079  10.297 -0.2919 -1.6230 -0.8989
  763MOL0     H 2955   3.905   3.032  10.410 -0.8291  1.2427 -0.4177
  763MOL0     H 2956   4.066   3.122  10.609 -1.0092 -0.4795 -0.8291
  763MOL0     H 2957   4.152   3.446  10.763  3.2103  1.9622  1.8243
  763MOL0     H 2958   4.210   3.280  10.759  4.7940  0.3653 -0.4538
  763MOL0     H 2959   4.322   3.464  10.560 -1.7865 -0.5729 -0.6049
  763MOL0     H 2960   4.387   3.313  10.613 -1.9314 -0.8486 -0.4669
  763MOL0     H 2961   4.442   3.402  10.853  0.9101 -1.8112  1.1253
  763MOL0     H 2962   4.382   3.557  10.790 -0.8296 -1.5387  1.2187
  763MOL0     H 2963   4.580   3.527  10.615 -1.9975  0.6552  0.9018
  763MOL0     H 2964   4.589   3.366  10.660  0.4284  0.9935 -1.7817
  763MOL0     H 2965   4.880   3.591  10.943  0.9390 -2.7226  1.0875
  763MOL0     H 2966   5.188   3.559  10.990  1.0688 -0.0109 -2.5118
  763MOL0     H 2967   5.179   3.700  10.871 -0.5498 -0.4469 -2.5038
  763MOL0     H 2968   5.064   3.675  11.004  0.8015  2.2896  0.3014
  763MOL0     H 2969   5.441   3.604  10.702 -1.4865  0.8114 -1.1915
  763MOL0     H 2970   5.656   3.662  10.608 -1.8381  2.1685 -2.5289
  763MOL0     H 2971   5.933   3.482  10.500 -0.0959 -1.8129  0.1780
  763MOL0     H 2972   5.870   3.372  10.372  1.9153 -0.3684  2.5174
  763MOL0     H 2973   6.013   3.655  10.352  0.4266  0.1356 -0.3393
  763MOL0     H 2974   6.084   3.501  10.346  0.3388 -0.2009 -1.0161
  763MOL0     H 2975   5.875   3.599  10.132 -3.2220 -3.6627  0.1838
  763MOL0     H 2976   5.941   3.436  10.144  1.0075  0.7133  2.5237
  763MOL0     H 2977   6.046   3.597   9.977  1.4130 -1.7580  0.6598
  763MOL0     H 2978   6.102   3.693  10.105 -1.3377  0.3526  0.2973
  763MOL0     H 2979   6.248   3.499  10.176 -3.1020  1.4012  1.4957
  763MOL0     H 2980   6.286   3.537  10.008  1.1000  0.4934  1.2118
  763MOL0     H 2981   6.100   3.307  10.112 -0.5976  0.8649  0.2799
  763MOL0     H 2982   6.102   3.368   9.952 -1.6307 -3.8604  1.1796
  763MOL0     H 2983   6.337   3.295   9.909  0.1518  3.9902  1.1665
  763MOL0     H 2984   6.238   3.169   9.952 -0.6841  1.4768 -2.2722
  763MOL0     H 2985   6.447   3.317  10.137  3.8883 -2.4212  3.2876
  763MOL0     H 2986   6.467   3.167  10.054 -1.7877 -2.0149 -0.8342
  763MOL0     H 2987   5.614   3.362  10.297 -0.3494  1.3450 -1.3878
  763MOL0     H 2988   5.402   3.305  10.392  1.1419 -1.9233  0.3418
  763MOL0     H 2989   5.040   3.361  10.544 -1.2039 -1.7083 -0.4452
  763MOL0     H 2990   4.807   3.389  10.565  1.7174  0.1732 -1.0304
  763MOL0     H 2991   3.173   3.151  10.739 -1.1439  2.8154  0.3945
  763MOL0     H 2992   2.962   3.287  10.775  1.1393  0.1943 -0.8212
  763MOL0     H 2993   2.679   3.563  10.907 -0.1661  3.9464 -1.4963
  763MOL0     H 2994   2.477   3.689  10.901 -0.7516 -0.4965  0.4914
  763MOL0     H 2995   2.165   3.607  10.648  0.8683 -1.5434  1.0318
  763MOL0     H 2996   2.079   3.504  10.764 -1.7429  0.5576 -1.9017
  763MOL0     H 2997   2.080   3.816  10.739 -2.4485  1.1065 -0.3446
  763MOL0     H 2998   2.010   3.733  10.878  3.8872 -0.6063  1.3368
  763MOL0     H 2999   1.840   3.618  10.728 -2.4342  1.6733  0.8068
  763MOL0     H 3000   1.937   3.675  10.589 -3.7769 -1.3140 -1.4733
  763MOL0     H 3001   1.795   3.861  10.779 -1.4953  1.0789 -0.9886
  763MOL0     H 3002   1.728   3.817  10.618 -0.4046  0.6246 -0.6118
  763MOL0     H 3003   1.977   4.110  10.504  0.9917 -0.2240  0.5454
  763MOL0     H 3004   2.269   3.378  10.701 -1.4296 -0.3663  1.8827
  763MOL0     H 3005   2.485   3.255  10.688 -1.4493  0.4778 -2.1732
  764MOL0     O 3006   7.282   1.425   5.980  0.8570  0.3004  0.3003
  764MOL0     C 3007   7.381   1.398   5.913 -0.6132  0.1018 -0.0695
  764MOL0     O 3008   7.436   1.271   5.907 -0.7279 -0.3001 -1.0497
  764MOL0     C 3009   7.403   1.169   5.993 -0.0734 -0.0751  1.7420
  764MOL0     C 3010   7.418   1.177   6.125  0.9258  0.0465  0.9380
  764MOL0     C 3011   7.364   1.079   6.209 -0.5963  1.2474  0.1051
  764MOL0     C 3012   7.309   0.965   6.152 -0.9267 -0.1664  0.0899
  764MOL0     O 3013   7.265   0.864   6.219  0.4222 -0.4863 -1.0098
  764MOL0     C 3014   7.225   0.888   6.360  0.2420 -0.1867 -0.3601
  764MOL0     C 3015   7.210   0.751   6.426  0.7324  0.2351  0.2788
  764MOL0     C 3016   7.141   0.770   6.562  0.0903  0.2253  1.3446
  764MOL0     C 3017   7.135   0.634   6.631  0.2381 -0.1097 -0.5894
  764MOL0     C 3018   7.081   0.638   6.769 -0.3176  0.1368 -0.4386
  764MOL0     C 3019   6.956   0.724   6.796  0.2251 -0.5155 -0.7159
  764MOL0     C 3020   6.838   0.688   6.700 -0.5724  0.8115  0.2345
  764MOL0     C 3021   6.742   0.800   6.689 -0.0080  0.7312  0.5051
  764MOL0     N 3022   6.631   0.755   6.600 -0.0736  0.5729 -0.4514
  764MOL0     C 3023   6.613   0.757   6.461 -0.9467 -0.9632  0.3384
  764MOL0     C 3024   6.478   0.708   6.447 -0.1831  0.0723  0.1024
  764MOL0     C 3025   6.405   0.708   6.314  0.2442 -0.0242  0.8076
  764MOL0     C 3026   6.426   0.553   6.274  0.1126  0.3651 -0.3579
  764MOL0     C 3027   6.361   0.527   6.148  0.4541 -0.1883  0.1382
  764MOL0     C 3028   6.444   0.556   6.021  0.3585  0.5279 -0.3204
  764MOL0     O 3029   6.489   0.691   6.022  1.0714 -0.0015 -1.2527
  764MOL0     C 3030   6.592   0.732   5.941  1.1590  0.6839  0.9254
  764MOL0     C 3031   6.687   0.824   5.991 -0.4225  0.4379  0.0508
  764MOL0     C 3032   6.802   0.870   5.919  0.6905  0.4566 -0.0427
  764MOL0     C 3033   6.897   0.969   5.994 -0.0489  0.0729  0.7802
  764MOL0     C 3034   6.820   0.819   5.789  0.5557  0.1633  1.1520
  764MOL0     C 3035   6.924   0.882   5.698 -0.3774  0.1647  0.2635
  764MOL0     O 3036   6.970   1.004   5.727 -0.2120 -0.2705 -0.4152
  764MOL0     C 3037   7.062   1.072   5.649  0.2076  0.2254 -0.4814
  764MOL0     C 3038   7.168   1.019   5.566  0.1514 -1.1471  0.5394
  764MOL0     C 3039   7.259   1.094   5.499 -1.0645  0.4195 -0.6297
  764MOL0     C 3040   7.262   1.229   5.518  0.7354  0.8058 -0.0473
  764MOL0     O 3041   7.376   1.286   5.469 -0.6398  0.0705  0.6793
  764MOL0     C 3042   7.378   1.430   5.454  0.5550  0.2966  1.0317
  764MOL0     C 3043   7.513   1.472   5.380  1.1635 -0.6623 -0.3673
  764MOL0     C 3044   7.534   1.415   5.238  0.1747  0.5538  0.3996
  764MOL0     C 3045   7.621   1.293   5.238 -0.9943  0.7845 -0.2790
  764MOL0     C 3046   7.661   1.252   5.097  0.9944  0.4033 -0.0145
  764MOL0     C 3047   7.755   1.128   5.102  0.2794 -0.9612 -0.5326
  764MOL0     C 3048   7.769   1.050   4.971 -0.0436  0.5617  0.3553
  764MOL0     C 3049   7.887   0.952   4.976  0.3464  0.2467 -0.4485
  764MOL0    Cl 3050   7.936   0.913   4.809 -0.0184  0.5829  0.2289
  764MOL0     C 3051   7.158   1.293   5.591 -0.2357 -0.0158  1.1400
  764MOL0     C 3052   7.066   1.216   5.652 -0.0342 -0.2926  0.0072
  764MOL0     O 3053   6.965   0.817   5.600 -0.0891  0.5792  0.3626
  764MOL0     C 3054   6.733   0.721   5.742 -0.1167  0.5770  0.4093
  764MOL0     C 3055   6.626   0.675   5.819 -0.0568 -0.3054  0.2265
  764MOL0     N 3056   6.421   0.685   6.564  0.5275  0.0248  0.0162
  764MOL0     N 3057   6.515   0.703   6.649 -1.1119 -0.6413 -0.2910
  764MOL0     C 3058   7.317   0.951   6.015 -0.0989  1.5009  0.3739
  764MOL0     C 3059   7.356   1.055   5.937  0.0370 -1.1778  0.2290
  764MOL0     C 3060   7.457   1.500   5.834 -0.3038  1.7066  0.2617
  764MOL0     C 3061   7.406   1.627   5.819  0.4769 -0.8050 -0.5208
  764MOL0     C 3062   7.472   1.734   5.749 -0.6605  1.0024 -1.0276
  764MOL0     C 3063   7.607   1.715   5.718  0.4260  0.9812 -0.7708
  764MOL0     O 3064   7.677   1.810   5.654  0.0124 -0.1895 -0.0063
  764MOL0     C 3065   7.753   1.883   5.746 -0.5356  0.0820  0.1382
  764MOL0     C 3066   7.767   2.031   5.709  1.2162  1.1018  0.8421
  764MOL0     C 3067   7.836   2.106   5.804  0.0378  0.1335  0.2577
  764MOL0     C 3068   7.889   2.248   5.754  1.2801  0.5609 -0.6278
  764MOL0     C 3069   7.983   2.293   5.863 -1.5777 -0.3075 -0.1850
  764MOL0     C 3070   8.059   2.339   5.949  0.5989  1.4930 -0.9077
  764MOL0     C 3071   7.660   1.596   5.739  1.0680 -0.2716  0.2668
  764MOL0     C 3072   7.587   1.483   5.783  0.3430  0.3754  1.2637
  764MOL0     H 3073   7.467   1.259   6.176  1.4062 -0.2820  1.0172
  764MOL0     H 3074   7.368   1.107   6.314  1.9084  2.5966 -0.2742
  764MOL0     H 3075   7.279   0.956   6.425 -1.3060  1.1566 -0.4161
  764MOL0     H 3076   7.130   0.940   6.349  0.2799 -0.1809 -0.6746
  764MOL0     H 3077   7.167   0.673   6.361  1.1184 -2.4921  3.0661
  764MOL0     H 3078   7.312   0.720   6.450  1.5068  1.1153 -1.6453
  764MOL0     H 3079   7.193   0.841   6.627 -2.2472 -0.6398  4.3765
  764MOL0     H 3080   7.041   0.807   6.541 -0.3463 -1.8426 -0.4400
  764MOL0     H 3081   7.060   0.578   6.574 -3.1653  1.7427  1.7258
  764MOL0     H 3082   7.236   0.592   6.626  2.1411  4.0288 -0.8555
  764MOL0     H 3083   7.062   0.535   6.799  1.6876  0.5383  2.7894
  764MOL0     H 3084   7.150   0.668   6.848 -2.5332 -1.3378  2.2030
  764MOL0     H 3085   6.914   0.724   6.898 -0.7648  2.3295 -1.0294
  764MOL0     H 3086   6.981   0.830   6.790  2.3015 -0.6817  2.6351
  764MOL0     H 3087   6.876   0.666   6.600  0.3850 -0.8811  0.9261
  764MOL0     H 3088   6.787   0.595   6.728 -2.2069  1.5419 -0.2084
  764MOL0     H 3089   6.787   0.896   6.661  0.9849  0.6091  1.6264
  764MOL0     H 3090   6.699   0.824   6.787  0.2531  5.0032 -0.2002
  764MOL0     H 3091   6.676   0.806   6.386 -2.3779  0.8255  0.2331
  764MOL0     H 3092   6.298   0.727   6.330 -0.6639 -2.1391 -1.8718
  764MOL0     H 3093   6.445   0.784   6.247 -2.5009  0.9799  0.1468
  764MOL0     H 3094   6.383   0.496   6.357  0.7731 -1.3832 -1.1636
  764MOL0     H 3095   6.531   0.524   6.278 -0.1228 -0.4578  3.2456
  764MOL0     H 3096   6.266   0.581   6.138 -1.3149 -2.8325  1.5555
  764MOL0     H 3097   6.332   0.422   6.143  0.6948 -0.3002  1.0619
  764MOL0     H 3098   6.382   0.544   5.932 -0.1291 -4.2808  0.4077
  764MOL0     H 3099   6.526   0.483   6.024 -1.2537 -1.4153 -1.3080
  764MOL0     H 3100   6.660   0.863   6.089 -0.6268  2.0231 -0.5996
  764MOL0     H 3101   6.890   0.961   6.103  0.7112  2.2192  1.0326
  764MOL0     H 3102   6.999   0.938   5.972  0.6570  1.9469  1.2411
  764MOL0     H 3103   6.883   1.077   5.981 -4.0828 -0.2447  1.2676
  764MOL0     H 3104   7.191   0.914   5.554  1.1885 -0.8114 -0.5782
  764MOL0     H 3105   7.345   1.051   5.449 -1.3559  1.8768 -2.5201
  764MOL0     H 3106   7.284   1.473   5.421 -1.0699 -2.3570  1.8972
  764MOL0     H 3107   7.380   1.465   5.558  0.4291  2.3046  0.4064
  764MOL0     H 3108   7.502   1.580   5.383 -4.0378 -0.9383  1.5748
  764MOL0     H 3109   7.604   1.465   5.440  1.6634  1.8037 -0.7416
  764MOL0     H 3110   7.574   1.492   5.172  0.8582  1.4614  1.8324
  764MOL0     H 3111   7.435   1.382   5.204  0.4895 -2.1731  1.7844
  764MOL0     H 3112   7.712   1.320   5.293  0.6184  1.3985 -3.0883
  764MOL0     H 3113   7.561   1.220   5.293 -0.2325 -0.1051 -0.6048
  764MOL0     H 3114   7.719   1.334   5.051 -0.0369 -0.6074 -3.3705
  764MOL0     H 3115   7.572   1.251   5.033  2.4211  2.7872 -2.2665
  764MOL0     H 3116   7.851   1.153   5.148  0.2952  1.3395 -1.6696
  764MOL0     H 3117   7.698   1.066   5.171 -4.9097  2.8278 -0.7941
  764MOL0     H 3118   7.788   1.111   4.883  2.2553 -0.8317 -0.2082
  764MOL0     H 3119   7.679   1.000   4.936  1.4408 -1.8147 -0.3085
  764MOL0     H 3120   7.865   0.860   5.032  0.3078  0.0455 -0.7947
  764MOL0     H 3121   7.978   0.997   5.017  0.1414  0.2044  0.0604
  764MOL0     H 3122   7.131   1.393   5.623  1.2873  0.4407  1.0759
  764MOL0     H 3123   7.006   1.274   5.721  3.2211  1.0732  1.9361
  764MOL0     H 3124   6.736   0.693   5.637  2.4416 -4.0868  1.4276
  764MOL0     H 3125   6.557   0.594   5.799 -0.5972  0.0591  0.5773
  764MOL0     H 3126   7.276   0.862   5.969  1.3279  0.1100  1.6881
  764MOL0     H 3127   7.356   1.062   5.828  3.6904 -0.7288  0.1216
  764MOL0     H 3128   7.317   1.652   5.876  1.5239 -2.1415  1.8690
  764MOL0     H 3129   7.433   1.832   5.726  0.5817  2.2340  1.7423
  764MOL0     H 3130   7.701   1.882   5.842  0.5200  1.8503  0.7903
  764MOL0     H 3131   7.850   1.834   5.764  0.0866  1.3670  0.3962
  764MOL0     H 3132   7.666   2.069   5.692  0.8270  0.1996  1.0636
  764MOL0     H 3133   7.827   2.026   5.618 -1.1644  1.8464 -0.8586
  764MOL0     H 3134   7.926   2.060   5.844  0.5344  2.8735  2.6641
  764MOL0     H 3135   7.776   2.119   5.895  1.8696  1.9406  1.2955
  764MOL0     H 3136   7.810   2.324   5.750 -2.0720 -2.5804  0.7221
  764MOL0     H 3137   7.933   2.230   5.655  2.0955 -1.2005  0.0043
  764MOL0     H 3138   8.129   2.371   6.024 -0.4217 -4.0839  3.0621
  764MOL0     H 3139   7.763   1.580   5.707 -0.1004 -0.3086 -4.1774
  764MOL0     H 3140   7.635   1.385   5.785  2.1220  1.2229  2.0573
  765MOL0     O 3141   9.685   5.466   9.186  0.4923 -0.7425 -0.3907
  765MOL0     C 3142   9.693   5.594   9.196  1.5316  0.7866 -0.3931
  765MOL0     O 3143   9.796   5.663   9.255 -0.0689  0.4728 -0.1431
  765MOL0     C 3144   9.854   5.594   9.357 -0.8152 -0.6636 -0.2150
  765MOL0     C 3145   9.802   5.586   9.485  0.2324  0.3935 -0.3179
  765MOL0     C 3146   9.881   5.509   9.575  0.4599 -0.2125  0.0962
  765MOL0     C 3147  10.002   5.457   9.542 -0.0545  1.2426 -0.6843
  765MOL0     O 3148  10.073   5.398   9.642 -0.0088  0.2311 -0.4204
  765MOL0     C 3149  10.121   5.264   9.609 -0.1262  0.7529  0.6988
  765MOL0     C 3150  10.020   5.166   9.638  0.3819  0.2468 -0.4615
  765MOL0     C 3151  10.101   5.028   9.631  0.1632  0.7898 -0.3275
  765MOL0     C 3152  10.012   4.903   9.611 -1.3650 -1.1193  0.0224
  765MOL0     C 3153  10.085   4.768   9.629 -1.2600 -0.2140  0.0230
  765MOL0     C 3154   9.982   4.655   9.650 -0.1195  0.1206  0.1604
  765MOL0     C 3155  10.056   4.519   9.663  0.8220 -0.5221  0.6837
  765MOL0     C 3156  10.118   4.475   9.527 -1.1400 -0.6357  0.2760
  765MOL0     N 3157  10.163   4.334   9.528 -0.0657 -0.0328 -0.3065
  765MOL0     C 3158  10.232   4.266   9.621  0.5373  0.4795  0.8216
  765MOL0     C 3159  10.278   4.155   9.561 -0.4835 -0.1096 -0.4938
  765MOL0     C 3160  10.370   4.063   9.633  0.1348 -0.4088 -0.6668
  765MOL0     C 3161  10.305   3.926   9.647 -0.9790 -0.0281 -0.3109
  765MOL0     C 3162  10.392   3.824   9.724 -0.0057  1.4070 -0.2247
  765MOL0     C 3163  10.335   3.678   9.737  0.7729  1.2111 -0.0413
  765MOL0     O 3164  10.321   3.611   9.607  0.1314 -0.4903 -0.3179
  765MOL0     C 3165  10.320   3.475   9.621 -0.5338  0.0213 -0.0075
  765MOL0     C 3166  10.285   3.394   9.730  0.0924 -0.6266  0.6659
  765MOL0     C 3167  10.284   3.257   9.722 -1.1474 -0.4516 -0.3816
  765MOL0     C 3168  10.208   3.183   9.832  0.3110 -0.0132 -0.2150
  765MOL0     C 3169  10.335   3.188   9.606 -0.4483 -0.4775 -0.5886
  765MOL0     C 3170  10.337   3.044   9.606  0.3767  0.4721  0.8090
  765MOL0     O 3171  10.419   2.983   9.694 -0.0761  0.4176 -0.0076
  765MOL0     C 3172  10.434   2.848   9.695  0.4995 -0.0725  0.0931
  765MOL0     C 3173  10.542   2.783   9.648  0.1916  0.3434 -0.5058
  765MOL0     C 3174  10.564   2.648   9.667 -0.7146 -0.2572 -0.2962
  765MOL0     C 3175  10.465   2.567   9.719 -0.3238 -0.9106 -1.0388
  765MOL0     O 3176  10.480   2.434   9.741  0.0442 -0.9793 -0.0468
  765MOL0     C 3177  10.458   2.341   9.638 -0.0383  0.5460 -0.3370
  765MOL0     C 3178  10.583   2.250   9.637  0.6092 -1.3947  0.3714
  765MOL0     C 3179  10.580   2.160   9.508 -0.4584 -0.0857 -0.8309
  765MOL0     C 3180  10.697   2.063   9.516  0.0204 -0.5051  0.4611
  765MOL0     C 3181  10.824   2.127   9.478 -0.7072 -0.6335 -0.6318
  765MOL0     C 3182  10.932   2.016   9.494 -0.3869  0.4213  0.1976
  765MOL0     C 3183  10.974   1.990   9.627 -0.4925  0.7756  0.3041
  765MOL0     C 3184  11.111   1.911   9.627 -0.0042 -0.5140 -0.1135
  765MOL0    Cl 3185  11.116   1.768   9.511  0.4296  0.2146 -0.5630
  765MOL0     C 3186  10.344   2.629   9.760 -0.6583  0.6632  0.4710
  765MOL0     C 3187  10.337   2.766   9.752  0.1821 -0.3898  0.3422
  765MOL0     O 3188  10.274   2.996   9.516 -0.1003  0.0577  0.1488
  765MOL0     C 3189  10.382   3.264   9.492 -0.5595 -0.6917  0.1319
  765MOL0     C 3190  10.365   3.408   9.506 -0.6730  0.6615  0.2828
  765MOL0     N 3191  10.270   4.163   9.427 -0.6270 -0.1979  0.0486
  765MOL0     N 3192  10.187   4.267   9.412 -0.3399 -0.1783 -0.8628
  765MOL0     C 3193  10.060   5.489   9.415 -0.8697  0.2737  0.5652
  765MOL0     C 3194   9.981   5.554   9.318  1.1177 -0.5531  0.4607
  765MOL0     C 3195   9.600   5.671   9.112 -0.0020 -0.1649 -0.3487
  765MOL0     C 3196   9.466   5.619   9.091 -0.7160 -0.2644  0.5492
  765MOL0     C 3197   9.373   5.681   9.010 -0.0713  0.3600 -0.0653
  765MOL0     C 3198   9.397   5.806   8.953 -1.1638  0.2722 -0.7231
  765MOL0     O 3199   9.314   5.870   8.871  0.7973  0.3621  0.2309
  765MOL0     C 3200   9.346   6.011   8.840  0.7988  0.3498 -0.5298
  765MOL0     C 3201   9.217   6.079   8.775 -0.0116  0.2259 -0.8243
  765MOL0     C 3202   9.090   6.066   8.863 -0.0848 -0.3563  0.1673
  765MOL0     C 3203   8.960   6.108   8.799  0.1262 -0.4268  0.0820
  765MOL0     C 3204   8.965   6.242   8.735  0.1375  0.2495  0.0121
  765MOL0     C 3205   8.977   6.346   8.679  0.1328  0.0406  1.1909
  765MOL0     C 3206   9.533   5.857   8.973 -0.7526 -0.3429 -0.7924
  765MOL0     C 3207   9.626   5.788   9.051 -0.0783 -0.1324 -0.5966
  765MOL0     H 3208   9.703   5.629   9.497 -0.2731  0.0505 -2.6578
  765MOL0     H 3209   9.848   5.486   9.676 -0.6260 -0.3942 -0.2896
  765MOL0     H 3210  10.161   5.249   9.508 -2.3062 -0.9287  0.0055
  765MOL0     H 3211  10.206   5.252   9.677 -0.9141 -0.1807  1.5326
  765MOL0     H 3212   9.972   5.182   9.735  0.6654 -3.2219  0.3972
  765MOL0     H 3213   9.938   5.171   9.565 -2.6936 -1.1623  2.5932
  765MOL0     H 3214  10.170   5.034   9.547 -1.9168  0.2337 -2.1694
  765MOL0     H 3215  10.151   5.018   9.728  0.7150  0.4696 -0.6415
  765MOL0     H 3216   9.933   4.900   9.686 -1.3881 -3.4008 -0.0042
  765MOL0     H 3217   9.961   4.904   9.514 -0.7305  1.5115 -0.3516
  765MOL0     H 3218  10.145   4.762   9.538  1.4489  3.9106  1.2268
  765MOL0     H 3219  10.157   4.777   9.712  3.7240  0.7269 -3.8984
  765MOL0     H 3220   9.932   4.671   9.746 -0.9618  1.6239 -0.4891
  765MOL0     H 3221   9.916   4.654   9.563 -0.8539  3.1405  0.5732
  765MOL0     H 3222  10.135   4.521   9.739  1.3385 -2.8373  0.2975
  765MOL0     H 3223   9.978   4.448   9.692 -0.1027 -0.0227 -0.4883
  765MOL0     H 3224  10.195   4.548   9.500 -0.4068 -0.1762  3.2349
  765MOL0     H 3225  10.041   4.495   9.451  0.2912  2.1208 -0.5908
  765MOL0     H 3226  10.237   4.280   9.728  1.9848  1.3594  0.6662
  765MOL0     H 3227  10.458   4.050   9.569  1.6231  3.3121  0.3588
  765MOL0     H 3228  10.408   4.107   9.726  0.9587 -0.8174 -0.8017
  765MOL0     H 3229  10.281   3.884   9.549  1.4264  4.8240 -3.4048
  765MOL0     H 3230  10.216   3.937   9.710  1.1183 -1.3144  3.2021
  765MOL0     H 3231  10.395   3.853   9.830  0.4668 -0.7488  0.3904
  765MOL0     H 3232  10.498   3.838   9.701  0.0799 -1.2214 -1.8606
  765MOL0     H 3233  10.246   3.699   9.797 -1.8746  2.5664 -4.0611
  765MOL0     H 3234  10.401   3.614   9.797 -1.3618  0.3530  1.5238
  765MOL0     H 3235  10.240   3.442   9.816 -2.3709 -2.2613  0.3982
  765MOL0     H 3236  10.241   3.222   9.929  3.2365 -1.7561 -0.4085
  765MOL0     H 3237  10.101   3.205   9.831  0.5116  1.0114 -0.6978
  765MOL0     H 3238  10.230   3.078   9.850 -1.1843 -0.4345 -0.6902
  765MOL0     H 3239  10.614   2.844   9.594 -0.6548  0.5493 -1.4228
  765MOL0     H 3240  10.651   2.591   9.634  1.2451  1.8414  0.9241
  765MOL0     H 3241  10.372   2.283   9.675  0.6748  0.9130  2.0366
  765MOL0     H 3242  10.437   2.382   9.539  0.8583 -1.2123 -1.3131
  765MOL0     H 3243  10.666   2.320   9.634 -0.7449  0.2863  0.4147
  765MOL0     H 3244  10.587   2.187   9.727  0.8498 -1.0300  0.6167
  765MOL0     H 3245  10.571   2.231   9.426  0.1837  1.6742  0.5537
  765MOL0     H 3246  10.496   2.091   9.501 -1.3412  0.8387  0.1102
  765MOL0     H 3247  10.703   2.011   9.612  1.5732  0.5088  0.9491
  765MOL0     H 3248  10.676   1.987   9.441  1.3384  1.1450 -1.7016
  765MOL0     H 3249  10.841   2.208   9.549 -0.8215  0.4336 -1.7897
  765MOL0     H 3250  10.828   2.178   9.382  0.7164  0.8266  0.1503
  765MOL0     H 3251  10.899   1.921   9.452  0.5270  0.3219 -0.3144
  765MOL0     H 3252  11.014   2.062   9.438 -0.5724 -2.0450 -2.3112
  765MOL0     H 3253  10.902   1.927   9.679 -2.3203  1.5897 -1.1120
  765MOL0     H 3254  10.984   2.085   9.681  0.2103  1.4632 -0.9760
  765MOL0     H 3255  11.119   1.883   9.732 -2.5456  0.5677  0.4506
  765MOL0     H 3256  11.206   1.961   9.610  1.6007 -2.4082  2.5268
  765MOL0     H 3257  10.269   2.564   9.803  0.0392 -3.0783 -3.3513
  765MOL0     H 3258  10.247   2.804   9.799 -0.2984 -0.5726 -0.4059
  765MOL0     H 3259  10.422   3.215   9.403 -3.4235 -2.8382 -0.1228
  765MOL0     H 3260  10.404   3.461   9.420 -1.3729 -1.4125 -1.4004
  765MOL0     H 3261  10.163   5.460   9.398 -0.7590  0.0970  1.4991
  765MOL0     H 3262  10.025   5.597   9.228 -2.0764  2.6598  0.1849
  765MOL0     H 3263   9.437   5.524   9.134  1.3674 -2.1624 -1.9177
  765MOL0     H 3264   9.286   5.621   8.986  0.7533 -1.0960  0.4733
  765MOL0     H 3265   9.363   6.074   8.929  2.4818 -0.5766 -0.1560
  765MOL0     H 3266   9.422   6.026   8.763 -3.0434  2.5308 -4.3540
  765MOL0     H 3267   9.210   6.028   8.678  3.4848  0.7073 -1.4734
  765MOL0     H 3268   9.221   6.187   8.758 -0.6258  0.5175  0.7434
  765MOL0     H 3269   9.109   6.131   8.949 -2.2317  1.4630 -0.6035
  765MOL0     H 3270   9.077   5.964   8.901  1.1505 -0.5794  0.0091
  765MOL0     H 3271   8.885   6.101   8.878  3.5513 -1.7064  3.5009
  765MOL0     H 3272   8.931   6.035   8.721 -0.0907  0.0897 -0.3276
  765MOL0     H 3273   8.994   6.446   8.646 -0.2467 -0.2587  0.0346
  765MOL0     H 3274   9.565   5.948   8.921 -0.4875 -0.8948 -1.6150
  765MOL0     H 3275   9.716   5.848   9.062 -0.6792  0.9213 -1.2248
  766MOL0     O 3276   7.961   0.661   3.160 -0.8353  0.1714  0.5068
  766MOL0     C 3277   7.873   0.738   3.178  0.1083 -0.7385 -0.1898
  766MOL0     O 3278   7.870   0.870   3.132 -1.1998 -0.3961 -0.0132
  766MOL0     C 3279   7.971   0.907   3.046 -0.5642 -0.3768  1.0631
  766MOL0     C 3280   8.096   0.923   3.109 -0.0935  0.2167  0.2501
  766MOL0     C 3281   8.191   1.004   3.043 -0.6885  0.1020 -0.4542
  766MOL0     C 3282   8.170   1.052   2.920  0.9078 -1.0110 -0.0168
  766MOL0     O 3283   8.248   1.127   2.841 -0.1305 -0.5935  0.5856
  766MOL0     C 3284   8.345   1.215   2.893  0.8299 -0.0435  0.3298
  766MOL0     C 3285   8.369   1.335   2.805 -0.9243 -1.2031 -0.4345
  766MOL0     C 3286   8.523   1.359   2.791 -0.0838 -0.6339  0.2194
  766MOL0     C 3287   8.571   1.252   2.687 -0.4915 -0.5836 -0.4933
  766MOL0     C 3288   8.694   1.313   2.629  0.3618  0.2594  1.8110
  766MOL0     C 3289   8.754   1.218   2.526 -0.0860 -0.1309 -0.1632
  766MOL0     C 3290   8.891   1.272   2.489 -0.8621 -0.1498 -0.1480
  766MOL0     C 3291   8.962   1.171   2.399 -1.1649 -0.5126  0.2660
  766MOL0     N 3292   9.002   1.064   2.493 -1.1257 -0.6848  0.5237
  766MOL0     C 3293   8.963   0.935   2.495  0.5720 -0.4155 -0.1624
  766MOL0     C 3294   9.029   0.880   2.598  0.6982  0.5849  1.0822
  766MOL0     C 3295   9.027   0.742   2.651 -0.3221 -0.4994 -0.8504
  766MOL0     C 3296   9.127   0.639   2.578  0.1366  0.1546  0.5227
  766MOL0     C 3297   9.092   0.620   2.426  0.3393  0.1286  0.6192
  766MOL0     C 3298   9.131   0.476   2.378  0.4287  0.1485  0.5473
  766MOL0     O 3299   9.097   0.436   2.235 -0.0125  0.8672 -0.0554
  766MOL0     C 3300   9.195   0.452   2.141  1.1363 -0.3849  0.6320
  766MOL0     C 3301   9.167   0.529   2.022  0.0986 -0.4672 -0.3149
  766MOL0     C 3302   9.268   0.543   1.918  0.3327 -0.8609 -0.6791
  766MOL0     C 3303   9.227   0.625   1.802 -0.4649  0.6242  0.2335
  766MOL0     C 3304   9.394   0.473   1.943 -0.0644 -0.3058 -0.1128
  766MOL0     C 3305   9.504   0.461   1.846  0.4729  0.1532 -0.4739
  766MOL0     O 3306   9.640   0.434   1.887  0.5747 -0.7423 -0.5632
  766MOL0     C 3307   9.719   0.482   1.790  0.6581  0.1529  0.1602
  766MOL0     C 3308   9.763   0.400   1.684 -1.4796 -0.9082 -0.1667
  766MOL0     C 3309   9.838   0.442   1.576  0.1924 -0.2032  0.0136
  766MOL0     C 3310   9.879   0.569   1.573 -0.5390 -0.2867  0.2965
  766MOL0     O 3311   9.954   0.608   1.462 -0.7371  0.5893  0.2175
  766MOL0     C 3312  10.014   0.734   1.456 -0.1349 -0.1476 -0.6278
  766MOL0     C 3313  10.083   0.756   1.328  0.3789  0.4865 -0.8086
  766MOL0     C 3314  10.121   0.897   1.299  0.1642 -0.5124 -0.3229
  766MOL0     C 3315  10.132   0.921   1.144  0.1941  0.4714  0.4527
  766MOL0     C 3316  10.250   0.839   1.072 -0.0734  0.2278 -0.0149
  766MOL0     C 3317  10.237   0.847   0.912 -0.3809  0.2283  0.1413
  766MOL0     C 3318  10.245   0.988   0.862  0.2620  0.6480  0.4295
  766MOL0     C 3319  10.375   1.067   0.919  0.6507  1.0508 -0.5499
  766MOL0    Cl 3320  10.527   0.986   0.887  0.2677  0.4780 -0.9063
  766MOL0     C 3321   9.849   0.652   1.678 -0.4441  0.4263 -0.1756
  766MOL0     C 3322   9.773   0.610   1.788 -0.3890  0.6964 -1.2858
  766MOL0     O 3323   9.466   0.476   1.729  0.4369 -0.4757  0.4076
  766MOL0     C 3324   9.408   0.403   2.064  0.2683  0.9432 -0.2834
  766MOL0     C 3325   9.313   0.397   2.157  0.4061  0.8473  0.4773
  766MOL0     N 3326   9.113   0.975   2.644  0.0651 -0.5590 -1.1725
  766MOL0     N 3327   9.102   1.082   2.577 -0.6012 -0.1495 -0.4828
  766MOL0     C 3328   8.047   1.016   2.851 -0.2405  0.2248 -0.0616
  766MOL0     C 3329   7.943   0.942   2.915  1.3132  0.1894 -0.6213
  766MOL0     C 3330   7.750   0.688   3.246  0.3775 -0.1240 -0.2732
  766MOL0     C 3331   7.635   0.770   3.246 -0.0605  0.0254 -0.1592
  766MOL0     C 3332   7.527   0.738   3.323 -0.4077  1.0311  0.2363
  766MOL0     C 3333   7.524   0.619   3.395 -0.1061 -0.7593 -0.1565
  766MOL0     O 3334   7.404   0.599   3.456  0.0099  0.3647  0.0534
  766MOL0     C 3335   7.379   0.499   3.550  0.1005  0.5421 -0.0918
  766MOL0     C 3336   7.250   0.548   3.632 -0.9069 -0.2973  0.4318
  766MOL0     C 3337   7.220   0.450   3.750  0.3508 -0.1573  0.4475
  766MOL0     C 3338   7.162   0.320   3.710  0.0805 -0.0012 -0.4421
  766MOL0     C 3339   7.020   0.337   3.671  0.6693 -0.4070 -1.0270
  766MOL0     C 3340   6.905   0.362   3.650  0.0330  0.1922  0.3704
  766MOL0     C 3341   7.638   0.532   3.405 -0.2707 -0.7542 -0.3760
  766MOL0     C 3342   7.748   0.566   3.320 -0.2031 -0.3508  0.6004
  766MOL0     H 3343   8.114   0.884   3.209  0.0853 -0.7414 -0.1502
  766MOL0     H 3344   8.290   1.018   3.085 -1.1210 -0.1551  0.6850
  766MOL0     H 3345   8.321   1.247   2.995  0.6198  1.2032 -0.0962
  766MOL0     H 3346   8.440   1.160   2.890  0.9039  0.0767  0.4802
  766MOL0     H 3347   8.315   1.328   2.710 -0.7982 -1.2831 -0.4995
  766MOL0     H 3348   8.336   1.424   2.859 -1.7776 -0.5942 -1.8829
  766MOL0     H 3349   8.531   1.462   2.754  3.1699  0.6207  3.7834
  766MOL0     H 3350   8.578   1.365   2.885  1.0443  0.6401 -0.4821
  766MOL0     H 3351   8.588   1.152   2.730 -4.4243 -2.2870 -2.4460
  766MOL0     H 3352   8.499   1.234   2.607 -1.5452  0.3215  0.2204
  766MOL0     H 3353   8.675   1.412   2.589 -1.2268  0.3143  2.5895
  766MOL0     H 3354   8.759   1.324   2.716 -0.9841 -0.5177  2.9630
  766MOL0     H 3355   8.769   1.118   2.567 -1.3594  1.1003  3.8219
  766MOL0     H 3356   8.684   1.221   2.442 -0.0842 -0.3896 -0.1733
  766MOL0     H 3357   8.889   1.373   2.448  4.0055  0.5879  0.8224
  766MOL0     H 3358   8.950   1.302   2.576  2.8983  1.1373 -2.8846
  766MOL0     H 3359   9.051   1.217   2.354 -0.9107 -1.9744 -0.8148
  766MOL0     H 3360   8.895   1.140   2.318 -2.5371  0.7689  0.8656
  766MOL0     H 3361   8.890   0.883   2.435 -2.5750  0.6404  2.4620
  766MOL0     H 3362   9.061   0.747   2.755  0.4794 -2.6311 -0.9489
  766MOL0     H 3363   8.927   0.696   2.648  0.2651 -1.8018 -3.3374
  766MOL0     H 3364   9.109   0.547   2.633  2.3527  0.1222  1.2993
  766MOL0     H 3365   9.231   0.673   2.586 -0.6176  2.5602  1.0697
  766MOL0     H 3366   9.141   0.703   2.376 -1.5768  0.6462 -0.4969
  766MOL0     H 3367   8.985   0.631   2.406  0.1746  0.1297  1.4702
  766MOL0     H 3368   9.069   0.408   2.436 -3.3953  2.0114 -0.9944
  766MOL0     H 3369   9.238   0.468   2.399  0.5642  0.8448  0.1549
  766MOL0     H 3370   9.070   0.576   2.007 -1.7428 -3.3057  1.7482
  766MOL0     H 3371   9.126   0.661   1.819 -3.2318 -4.3688 -3.1734
  766MOL0     H 3372   9.303   0.704   1.792 -0.2892  0.6924  1.7811
  766MOL0     H 3373   9.232   0.567   1.709  2.7116  0.0341  0.6305
  766MOL0     H 3374   9.732   0.296   1.692  1.8485 -2.3508 -3.2541
  766MOL0     H 3375   9.873   0.374   1.499  0.8099  3.1311 -2.9091
  766MOL0     H 3376   9.929   0.802   1.466 -1.0621 -1.5472  2.4323
  766MOL0     H 3377  10.090   0.755   1.532  0.8423  1.3089 -1.9601
  766MOL0     H 3378  10.173   0.693   1.323 -2.0598 -3.4184 -0.0337
  766MOL0     H 3379  10.009   0.731   1.251 -1.4355 -0.9420  1.2718
  766MOL0     H 3380  10.218   0.923   1.341 -0.4623  2.3949 -0.4537
  766MOL0     H 3381  10.049   0.964   1.346  0.1606 -0.3205 -0.5958
  766MOL0     H 3382  10.037   0.895   1.095 -1.9614  2.5810  3.2125
  766MOL0     H 3383  10.136   1.027   1.118  0.5634  0.2559 -0.3913
  766MOL0     H 3384  10.246   0.731   1.087 -1.1220 -0.2221 -2.8267
  766MOL0     H 3385  10.346   0.878   1.105 -1.5725  4.1565  0.2445
  766MOL0     H 3386  10.310   0.778   0.867  0.2677 -0.0608  1.5858
  766MOL0     H 3387  10.145   0.805   0.871  0.1355 -2.1887  1.2604
  766MOL0     H 3388  10.160   1.053   0.888  2.4907  3.2574  1.7751
  766MOL0     H 3389  10.247   0.982   0.753 -0.6519 -0.6366  0.4594
  766MOL0     H 3390  10.357   1.074   1.026 -1.4407  3.1013 -0.9491
  766MOL0     H 3391  10.370   1.166   0.872 -1.0311  0.5203 -1.5490
  766MOL0     H 3392   9.897   0.749   1.686  2.0300 -0.7612  0.3554
  766MOL0     H 3393   9.748   0.684   1.863 -0.3338  1.4330 -1.9696
  766MOL0     H 3394   9.487   0.330   2.084 -0.5474  0.3554  0.9802
  766MOL0     H 3395   9.322   0.325   2.238 -5.3353  3.2785  3.8822
  766MOL0     H 3396   8.033   1.043   2.747 -0.9601 -0.1873 -0.0823
  766MOL0     H 3397   7.857   0.916   2.854  1.1316 -0.8556  0.0612
  766MOL0     H 3398   7.626   0.865   3.194  0.8118  1.5011  2.2097
  766MOL0     H 3399   7.446   0.809   3.314  0.3341  1.6364 -3.0691
  766MOL0     H 3400   7.348   0.415   3.488  0.8560  0.9684 -1.0974
  766MOL0     H 3401   7.462   0.475   3.618  0.8706 -4.4071 -2.3526
  766MOL0     H 3402   7.170   0.551   3.558 -0.7349  0.4230  0.2727
  766MOL0     H 3403   7.260   0.653   3.663  3.0079 -0.7200  1.0403
  766MOL0     H 3404   7.142   0.485   3.819 -0.1416 -2.8531  1.3691
  766MOL0     H 3405   7.307   0.443   3.815 -0.2333  2.2353  1.6007
  766MOL0     H 3406   7.164   0.269   3.807 -0.1104  1.6841  0.4901
  766MOL0     H 3407   7.226   0.266   3.639  0.0336 -1.0422  0.2727
  766MOL0     H 3408   6.799   0.368   3.634 -0.4920 -3.0037  1.8899
  766MOL0     H 3409   7.644   0.453   3.479  0.8377  0.2498  0.6561
  766MOL0     H 3410   7.827   0.492   3.320 -1.4385 -1.7225  1.1292
  767MOL0     O 3411   5.802   2.596   6.671 -0.0505 -0.6412 -1.5033
  767MOL0     C 3412   5.886   2.503   6.654 -1.0955  0.4797 -0.6610
  767MOL0     O 3413   5.983   2.498   6.558  0.2337 -0.3660 -0.1523
  767MOL0     C 3414   6.023   2.603   6.480 -0.0088 -0.1555  1.2765
  767MOL0     C 3415   6.006   2.743   6.503  0.9375  0.0600 -0.4575
  767MOL0     C 3416   6.059   2.839   6.406 -0.4398 -0.1305 -0.9093
  767MOL0     C 3417   6.113   2.799   6.288 -0.0198  0.1296  0.1314
  767MOL0     O 3418   6.151   2.892   6.200 -0.9143  0.3531 -0.5754
  767MOL0     C 3419   6.074   3.003   6.182  0.4941 -0.6765  0.3723
  767MOL0     C 3420   6.105   3.075   6.049 -0.6404  0.6870 -0.4878
  767MOL0     C 3421   6.251   3.134   6.051  0.3876  0.2881  0.1298
  767MOL0     C 3422   6.291   3.214   5.918  0.3633  0.3336  0.1763
  767MOL0     C 3423   6.199   3.328   5.903 -0.1864 -1.1193  0.0801
  767MOL0     C 3424   6.248   3.429   5.804  0.1550 -0.0781 -1.0707
  767MOL0     C 3425   6.135   3.520   5.751 -0.2837 -0.1207  0.0603
  767MOL0     C 3426   6.045   3.442   5.650 -0.8116  0.1177  0.1382
  767MOL0     N 3427   5.936   3.517   5.596  0.2123 -0.9113  0.0121
  767MOL0     C 3428   5.929   3.597   5.476 -0.5771 -0.5546 -0.1144
  767MOL0     C 3429   5.810   3.660   5.467  0.5693  0.2907  0.3480
  767MOL0     C 3430   5.761   3.756   5.361  0.0516 -0.5222  0.0377
  767MOL0     C 3431   5.862   3.842   5.286 -0.1192  0.7853 -0.2030
  767MOL0     C 3432   5.805   3.964   5.223  0.8196 -0.1622 -0.2571
  767MOL0     C 3433   5.894   4.045   5.119 -0.9957  0.1230 -0.0453
  767MOL0     O 3434   5.812   4.109   5.024  0.8864 -0.5581 -0.8996
  767MOL0     C 3435   5.755   4.046   4.920  0.9638  0.3040 -0.0582
  767MOL0     C 3436   5.645   4.110   4.866  0.0032  0.3307 -0.1378
  767MOL0     C 3437   5.573   4.056   4.760 -0.6156  0.0660  0.0187
  767MOL0     C 3438   5.453   4.140   4.716 -1.1358 -0.8077 -0.1767
  767MOL0     C 3439   5.617   3.933   4.697 -0.6459  1.6936  1.2214
  767MOL0     C 3440   5.552   3.864   4.584 -0.9136  0.4169 -0.5898
  767MOL0     O 3441   5.442   3.920   4.548  0.0796 -0.3952  1.2172
  767MOL0     C 3442   5.396   3.897   4.422  0.6030  1.1950 -0.1813
  767MOL0     C 3443   5.335   3.778   4.382  0.0496  0.4440 -0.2134
  767MOL0     C 3444   5.293   3.769   4.248 -0.3694 -0.5001  0.5601
  767MOL0     C 3445   5.287   3.877   4.159 -0.3522 -0.9295  0.4678
  767MOL0     O 3446   5.217   3.873   4.045  0.8852  0.3666  0.1834
  767MOL0     C 3447   5.088   3.939   4.059  0.2749  0.4758 -0.3663
  767MOL0     C 3448   5.006   3.939   3.933 -0.3513 -1.2763 -0.2331
  767MOL0     C 3449   4.984   3.800   3.876  0.5450  0.1812 -0.2028
  767MOL0     C 3450   4.867   3.798   3.775  0.4079  1.3047 -0.1254
  767MOL0     C 3451   4.844   3.646   3.743  0.3385  0.0626 -0.3694
  767MOL0     C 3452   4.748   3.591   3.858 -0.0897  0.0657 -0.6070
  767MOL0     C 3453   4.748   3.432   3.864  1.0630 -0.0447  0.4439
  767MOL0     C 3454   4.879   3.355   3.849 -0.4472 -0.3806  0.1842
  767MOL0    Cl 3455   4.857   3.189   3.894 -0.2942  0.5154  0.0837
  767MOL0     C 3456   5.353   3.993   4.200  0.4240  0.9453  1.3334
  767MOL0     C 3457   5.405   4.002   4.334  0.4894  0.7057 -0.3523
  767MOL0     O 3458   5.612   3.773   4.525 -1.0587  1.4224 -0.9310
  767MOL0     C 3459   5.738   3.881   4.745  0.3346 -0.3846 -0.4600
  767MOL0     C 3460   5.799   3.929   4.860 -0.0459 -0.5662 -0.1963
  767MOL0     N 3461   5.744   3.609   5.580  0.1775  0.3026 -0.5889
  767MOL0     N 3462   5.814   3.528   5.654  0.4940  0.3353 -0.7585
  767MOL0     C 3463   6.139   2.665   6.263 -0.4049  0.1456  0.0353
  767MOL0     C 3464   6.094   2.568   6.360  0.5972 -0.0950 -0.8398
  767MOL0     C 3465   5.865   2.389   6.752  0.1655 -0.3093 -0.4009
  767MOL0     C 3466   5.815   2.420   6.884  0.8815  0.4987  0.4486
  767MOL0     C 3467   5.825   2.318   6.984  0.4082 -0.0609  0.4384
  767MOL0     C 3468   5.886   2.190   6.957 -0.3226 -0.4028  0.2826
  767MOL0     O 3469   5.905   2.092   7.055  0.2957 -0.2211 -0.2106
  767MOL0     C 3470   5.823   2.107   7.176 -0.6855  0.8344 -0.1498
  767MOL0     C 3471   5.681   2.080   7.154  0.0647 -0.5937 -0.2411
  767MOL0     C 3472   5.657   1.933   7.141  0.8262  0.5966 -0.2598
  767MOL0     C 3473   5.641   1.866   7.271  0.1491 -0.0872 -0.3523
  767MOL0     C 3474   5.581   1.729   7.253 -0.6930 -0.8961 -0.7077
  767MOL0     C 3475   5.514   1.635   7.260 -0.2115  0.3046  1.5325
  767MOL0     C 3476   5.931   2.180   6.824 -0.2586  0.8521 -0.2717
  767MOL0     C 3477   5.922   2.271   6.717  0.4186 -0.8518  0.1589
  767MOL0     H 3478   5.953   2.776   6.592 -0.5339 -0.4995 -1.0993
  767MOL0     H 3479   6.054   2.946   6.425 -0.4982 -0.2047 -0.5084
  767MOL0     H 3480   5.967   2.988   6.194  0.7661 -2.8937  0.3922
  767MOL0     H 3481   6.094   3.077   6.260 -3.1464 -0.7238  1.5239
  767MOL0     H 3482   6.089   2.996   5.975  1.7931 -2.2141  1.8118
  767MOL0     H 3483   6.035   3.157   6.036  0.4755  1.5497 -1.2678
  767MOL0     H 3484   6.254   3.201   6.137  2.5768  0.0388  0.3069
  767MOL0     H 3485   6.330   3.059   6.054  1.9305  1.8792  2.3443
  767MOL0     H 3486   6.396   3.236   5.936  0.6654 -1.3224  0.6146
  767MOL0     H 3487   6.286   3.144   5.834  2.2363  2.6509 -2.0080
  767MOL0     H 3488   6.103   3.290   5.868  1.6250 -2.0194 -4.6699
  767MOL0     H 3489   6.176   3.377   5.998  0.7417  1.3409 -0.8862
  767MOL0     H 3490   6.321   3.484   5.864  0.0844 -0.4275 -0.6628
  767MOL0     H 3491   6.305   3.380   5.724 -0.5580 -0.2950 -1.4496
  767MOL0     H 3492   6.075   3.568   5.829 -1.6771 -0.1766 -0.9269
  767MOL0     H 3493   6.181   3.609   5.707 -1.2287  0.9339  1.1213
  767MOL0     H 3494   6.012   3.345   5.690  0.4052 -0.1205  0.6201
  767MOL0     H 3495   6.103   3.415   5.561 -3.0020  0.3926 -1.4725
  767MOL0     H 3496   6.017   3.619   5.415  1.1749 -2.2667  1.6277
  767MOL0     H 3497   5.698   3.706   5.287  1.6799  0.4371 -2.1221
  767MOL0     H 3498   5.686   3.826   5.399 -0.2125  0.4308 -2.0834
  767MOL0     H 3499   5.912   3.788   5.204 -1.2909 -0.0602 -0.3904
  767MOL0     H 3500   5.946   3.876   5.347 -0.5516  1.6369 -0.0632
  767MOL0     H 3501   5.777   4.032   5.305 -1.1663 -2.1520  0.8095
  767MOL0     H 3502   5.710   3.939   5.176 -0.5692  2.1888  1.0557
  767MOL0     H 3503   5.962   3.985   5.058 -0.5469  1.8501 -1.3021
  767MOL0     H 3504   5.949   4.127   5.167 -1.2229  0.4108 -0.2750
  767MOL0     H 3505   5.597   4.185   4.928  0.1790 -0.3602  0.8379
  767MOL0     H 3506   5.360   4.091   4.747  1.1209 -3.3337  3.4093
  767MOL0     H 3507   5.471   4.242   4.751 -0.0305 -1.0779  0.0854
  767MOL0     H 3508   5.460   4.147   4.607  1.8624  2.3987  0.0236
  767MOL0     H 3509   5.315   3.688   4.440  0.0692 -0.4387 -1.5202
  767MOL0     H 3510   5.260   3.672   4.211  2.0694 -0.3090 -2.5417
  767MOL0     H 3511   5.032   3.896   4.143  0.6370 -0.2284 -0.4749
  767MOL0     H 3512   5.095   4.043   4.090  0.4390  0.5167 -0.5440
  767MOL0     H 3513   4.910   3.984   3.962  1.0421  0.6991  1.6514
  767MOL0     H 3514   5.061   4.008   3.869 -2.1344 -1.2706 -1.8428
  767MOL0     H 3515   4.960   3.731   3.958 -1.0742 -0.2642 -1.0130
  767MOL0     H 3516   5.074   3.764   3.825 -0.7436 -2.7406 -0.6680
  767MOL0     H 3517   4.782   3.849   3.822 -1.0897 -2.2956  1.3642
  767MOL0     H 3518   4.898   3.848   3.683  0.5033  0.9092 -0.3082
  767MOL0     H 3519   4.943   3.599   3.739 -1.0992 -3.4133  1.2047
  767MOL0     H 3520   4.787   3.628   3.652 -0.1100  0.3063 -0.1400
  767MOL0     H 3521   4.780   3.630   3.954 -0.7229 -0.3109 -0.2360
  767MOL0     H 3522   4.647   3.632   3.844  0.3612  1.6835  0.6026
  767MOL0     H 3523   4.691   3.383   3.784  3.4776 -2.1110 -0.1668
  767MOL0     H 3524   4.688   3.400   3.950  1.1693 -0.2139  0.4572
  767MOL0     H 3525   4.951   3.410   3.911 -1.5145  0.6484  0.5353
  767MOL0     H 3526   4.914   3.361   3.745  0.8282 -3.0339  0.3691
  767MOL0     H 3527   5.357   4.070   4.124  1.4851 -1.1648 -0.9048
  767MOL0     H 3528   5.446   4.098   4.364 -2.4622  1.2738  2.4133
  767MOL0     H 3529   5.787   3.799   4.693  0.9530 -0.0613 -0.3950
  767MOL0     H 3530   5.888   3.879   4.898 -1.6143 -1.2148  3.0392
  767MOL0     H 3531   6.193   2.642   6.172  2.2365 -1.1448  1.8041
  767MOL0     H 3532   6.122   2.467   6.334 -1.8923 -1.8557  2.5340
  767MOL0     H 3533   5.780   2.517   6.919 -3.0875  1.0053 -3.9397
  767MOL0     H 3534   5.799   2.356   7.082  2.9737 -0.6105  1.4294
  767MOL0     H 3535   5.864   2.058   7.265 -0.9163  2.2768  0.7816
  767MOL0     H 3536   5.839   2.207   7.217  0.3417  0.3202  0.7428
  767MOL0     H 3537   5.644   2.129   7.063  0.1854 -1.1273 -0.5808
  767MOL0     H 3538   5.625   2.120   7.239  2.4094 -2.7602  2.5152
  767MOL0     H 3539   5.736   1.889   7.080 -0.8615  0.0380 -2.1601
  767MOL0     H 3540   5.563   1.919   7.086  1.1551 -0.1290 -0.6555
  767MOL0     H 3541   5.587   1.932   7.340  2.3310  2.1599 -0.6779
  767MOL0     H 3542   5.739   1.866   7.319 -0.3444  0.9980  0.7191
  767MOL0     H 3543   5.461   1.544   7.243  4.0621 -1.8434 -2.9340
  767MOL0     H 3544   5.970   2.086   6.785  0.7728  0.8642  0.7037
  767MOL0     H 3545   5.952   2.262   6.613  1.8856  3.1192  0.0819
  768MOL0     O 3546   9.606   4.190   6.092 -0.3850  0.2785  0.4129
  768MOL0     C 3547   9.725   4.224   6.104  0.1030  0.3554  0.3280
  768MOL0     O 3548   9.769   4.352   6.084  0.0691  0.6105 -0.8934
  768MOL0     C 3549   9.690   4.432   6.007 -0.5346  0.4192  0.0765
  768MOL0     C 3550   9.582   4.495   6.060 -0.5382  0.2926 -0.5359
  768MOL0     C 3551   9.509   4.587   5.985 -0.7487  0.0551 -0.2805
  768MOL0     C 3552   9.551   4.622   5.853  0.9166 -0.3050  0.0189
  768MOL0     O 3553   9.466   4.710   5.788 -0.7513 -0.1214  0.3665
  768MOL0     C 3554   9.505   4.764   5.658  0.1532 -0.8577  0.4673
  768MOL0     C 3555   9.463   4.669   5.541  0.2122 -0.0444  0.0805
  768MOL0     C 3556   9.531   4.701   5.406  0.1996 -0.4435 -0.4932
  768MOL0     C 3557   9.527   4.844   5.357 -0.3308 -0.1045 -0.2564
  768MOL0     C 3558   9.610   4.881   5.236  0.5696 -0.3287 -0.3587
  768MOL0     C 3559   9.643   5.028   5.225 -0.9577 -0.0916  0.2744
  768MOL0     C 3560   9.767   5.062   5.146 -0.2861 -0.2029  0.4352
  768MOL0     C 3561   9.779   4.979   5.011 -0.4416  0.9706 -0.1426
  768MOL0     N 3562   9.686   5.025   4.918 -0.1654 -0.4042 -0.2460
  768MOL0     C 3563   9.570   4.960   4.877 -0.6827  0.8885 -0.7062
  768MOL0     C 3564   9.515   5.036   4.773  0.5110  0.4601 -0.8993
  768MOL0     C 3565   9.394   5.014   4.675 -1.5957 -0.8314  0.2743
  768MOL0     C 3566   9.266   5.043   4.749  0.0803 -0.2393  0.4242
  768MOL0     C 3567   9.146   5.058   4.655 -0.0556  0.0512 -0.7034
  768MOL0     C 3568   9.161   4.954   4.542  0.3392  1.1603 -0.4886
  768MOL0     O 3569   9.045   4.973   4.449 -0.8453  0.3071 -0.7152
  768MOL0     C 3570   9.026   4.874   4.369 -0.5339 -0.4420  0.7961
  768MOL0     C 3571   8.900   4.829   4.349  0.1639  1.0310  0.4592
  768MOL0     C 3572   8.876   4.696   4.296 -0.5138 -1.1529 -0.1800
  768MOL0     C 3573   8.731   4.641   4.317  0.1911  0.0016  0.3001
  768MOL0     C 3574   8.984   4.622   4.237  0.1899 -0.6637  0.4259
  768MOL0     C 3575   8.974   4.484   4.184 -0.7988  0.6015 -0.3969
  768MOL0     O 3576   8.861   4.446   4.115 -0.5377  0.2157  0.3941
  768MOL0     C 3577   8.860   4.311   4.084 -0.0092  0.2891 -0.1385
  768MOL0     C 3578   8.919   4.253   3.965 -0.9238 -0.3666  0.4426
  768MOL0     C 3579   8.904   4.122   3.933  0.3773 -0.0054  0.0370
  768MOL0     C 3580   8.829   4.038   4.019  0.7903 -0.5472  0.2395
  768MOL0     O 3581   8.781   3.907   4.005  0.3859  0.7951 -0.2718
  768MOL0     C 3582   8.815   3.834   3.886 -0.8195 -0.0067 -0.9788
  768MOL0     C 3583   8.706   3.733   3.843 -0.4630 -0.1103  0.0916
  768MOL0     C 3584   8.728   3.656   3.709  1.4299  0.4439  0.2995
  768MOL0     C 3585   8.628   3.545   3.691 -0.9346  0.1172  0.4429
  768MOL0     C 3586   8.675   3.457   3.575 -0.0806 -0.6638 -0.3952
  768MOL0     C 3587   8.605   3.327   3.566 -0.3212 -0.4379  0.2482
  768MOL0     C 3588   8.687   3.227   3.659 -0.0723 -0.0542  0.3025
  768MOL0     C 3589   8.616   3.090   3.668  0.0213  0.0763  0.3057
  768MOL0    Cl 3590   8.580   3.013   3.519  0.3677  0.0084  0.2063
  768MOL0     C 3591   8.769   4.088   4.134 -1.0220 -0.0248  0.3634
  768MOL0     C 3592   8.791   4.221   4.168  1.1527  0.1234  0.5314
  768MOL0     O 3593   9.070   4.414   4.219 -0.1515 -0.2038  0.2414
  768MOL0     C 3594   9.109   4.681   4.230 -0.6357 -0.0627 -0.3591
  768MOL0     C 3595   9.135   4.806   4.310 -0.2463 -0.1265  0.2448
  768MOL0     N 3596   9.612   5.138   4.751  0.3012  0.4781 -0.1619
  768MOL0     N 3597   9.712   5.129   4.836  0.5297 -0.6634  0.7045
  768MOL0     C 3598   9.660   4.549   5.796  0.2531  0.1511  0.0587
  768MOL0     C 3599   9.733   4.461   5.877 -0.4874 -0.0566  0.5197
  768MOL0     C 3600   9.832   4.119   6.126 -0.5206 -0.8743 -0.3044
  768MOL0     C 3601   9.789   3.985   6.107 -0.5033 -0.2260  0.1548
  768MOL0     C 3602   9.875   3.875   6.123 -0.2085 -0.5413  0.4534
  768MOL0     C 3603  10.010   3.894   6.159  0.6661  0.6156  0.3891
  768MOL0     O 3604  10.098   3.795   6.178 -0.1633  0.9729 -0.8529
  768MOL0     C 3605  10.062   3.658   6.185 -0.6920 -0.0796 -0.3402
  768MOL0     C 3606  10.181   3.579   6.235  0.1847 -0.6527 -0.1419
  768MOL0     C 3607  10.165   3.426   6.227  0.3901  0.3310  0.1696
  768MOL0     C 3608  10.266   3.354   6.309  0.4161 -0.0783 -0.5851
  768MOL0     C 3609  10.250   3.210   6.284 -0.3182  0.2719  0.0302
  768MOL0     C 3610  10.212   3.099   6.254 -0.0256  0.8661  0.9562
  768MOL0     C 3611  10.040   4.025   6.205 -0.0242 -0.2953 -0.5228
  768MOL0     C 3612   9.959   4.137   6.178  0.0897  0.2517 -0.0844
  768MOL0     H 3613   9.548   4.458   6.156  4.2524  1.0619  1.7583
  768MOL0     H 3614   9.419   4.637   6.021 -1.3584 -0.6877 -0.7523
  768MOL0     H 3615   9.447   4.856   5.647  1.1781 -0.2394 -0.0010
  768MOL0     H 3616   9.612   4.789   5.665  0.0229  0.2880 -1.0308
  768MOL0     H 3617   9.501   4.573   5.576 -2.4647 -0.4127  2.3291
  768MOL0     H 3618   9.355   4.666   5.523  0.1962 -0.3892  0.2242
  768MOL0     H 3619   9.638   4.682   5.420  1.2468  3.7825 -1.1950
  768MOL0     H 3620   9.501   4.632   5.326  1.8668 -0.7321 -0.9059
  768MOL0     H 3621   9.423   4.879   5.353  0.5009  3.3821  2.9706
  768MOL0     H 3622   9.562   4.913   5.435 -0.7177  3.2570 -2.8150
  768MOL0     H 3623   9.703   4.826   5.254  2.5657  2.9814  0.1219
  768MOL0     H 3624   9.560   4.838   5.148 -4.5370  1.8416  1.0842
  768MOL0     H 3625   9.564   5.086   5.176  1.5858  0.6948 -3.3417
  768MOL0     H 3626   9.652   5.078   5.322 -0.3169 -2.1288  1.3179
  768MOL0     H 3627   9.783   5.168   5.127 -0.7508 -0.1603  0.2619
  768MOL0     H 3628   9.850   5.047   5.215  0.4356 -1.2585 -0.6176
  768MOL0     H 3629   9.768   4.872   5.028 -1.3629  0.9404 -0.9168
  768MOL0     H 3630   9.884   4.995   4.982  0.3196  1.3514  2.5085
  768MOL0     H 3631   9.531   4.869   4.920 -2.0289 -0.5669 -4.5878
  768MOL0     H 3632   9.411   5.073   4.584  1.9572 -2.5499 -0.3569
  768MOL0     H 3633   9.416   4.911   4.648  2.5374 -0.1582  0.3647
  768MOL0     H 3634   9.259   5.134   4.811 -0.9687 -1.0503  1.5393
  768MOL0     H 3635   9.247   4.955   4.812  0.1954 -2.2228 -2.1742
  768MOL0     H 3636   9.141   5.164   4.626  1.8968  0.7988  1.3644
  768MOL0     H 3637   9.057   5.044   4.716 -0.0553  1.6813 -0.2635
  768MOL0     H 3638   9.159   4.860   4.597  1.9799  0.6792 -1.1885
  768MOL0     H 3639   9.253   4.967   4.482  2.1224 -0.1358  1.8232
  768MOL0     H 3640   8.820   4.889   4.391  1.1789  2.0265  1.0277
  768MOL0     H 3641   8.730   4.550   4.377 -1.4581  0.1091  0.4978
  768MOL0     H 3642   8.674   4.716   4.373 -1.2849 -1.2610  0.5451
  768MOL0     H 3643   8.660   4.616   4.237 -0.7154 -0.6732  1.2938
  768MOL0     H 3644   8.978   4.317   3.900 -0.8981 -1.9568 -1.1957
  768MOL0     H 3645   8.953   4.095   3.839  2.1207  2.4291  0.1424
  768MOL0     H 3646   8.828   3.898   3.798 -4.2404  0.0577 -1.5769
  768MOL0     H 3647   8.908   3.784   3.913 -0.6556 -0.6263 -2.5479
  768MOL0     H 3648   8.695   3.650   3.913 -1.1445  0.9641  1.2927
  768MOL0     H 3649   8.609   3.783   3.844 -1.0395 -1.2047  1.0815
  768MOL0     H 3650   8.831   3.619   3.707  1.0472 -0.7173 -2.5333
  768MOL0     H 3651   8.712   3.725   3.626  3.1641  3.1115  2.0078
  768MOL0     H 3652   8.635   3.485   3.782 -0.5206 -0.0302  0.3161
  768MOL0     H 3653   8.530   3.590   3.671 -1.1197 -0.4746  0.0178
  768MOL0     H 3654   8.782   3.435   3.574 -0.1150 -1.5972  3.3010
  768MOL0     H 3655   8.659   3.515   3.483  3.1091 -0.1506 -0.7460
  768MOL0     H 3656   8.502   3.334   3.601  0.6464  2.6935  3.0177
  768MOL0     H 3657   8.601   3.281   3.467 -2.3569  1.2618 -0.5270
  768MOL0     H 3658   8.686   3.275   3.758 -2.4646 -1.7096  1.1605
  768MOL0     H 3659   8.787   3.194   3.630 -0.8465 -0.9040 -1.5683
  768MOL0     H 3660   8.517   3.113   3.710 -0.4307 -2.6872  0.9417
  768MOL0     H 3661   8.663   3.021   3.739  0.8912  1.9659  1.6708
  768MOL0     H 3662   8.717   4.015   4.195  2.7887 -3.1098  0.3184
  768MOL0     H 3663   8.749   4.275   4.252  0.5330  0.8544 -0.2230
  768MOL0     H 3664   9.201   4.629   4.207 -0.8204 -0.2957 -0.5712
  768MOL0     H 3665   9.236   4.845   4.314 -0.2767 -0.0176 -0.0306
  768MOL0     H 3666   9.696   4.571   5.696  0.8062  1.0886  0.4516
  768MOL0     H 3667   9.824   4.417   5.837  1.8674  3.4080  1.6006
  768MOL0     H 3668   9.684   3.964   6.093 -0.8107  0.1236  1.7359
  768MOL0     H 3669   9.833   3.781   6.088 -1.1920  0.1232 -0.1955
  768MOL0     H 3670   9.973   3.636   6.246  0.0052  2.8794  2.0029
  768MOL0     H 3671  10.037   3.631   6.082  0.1837  0.2640 -0.6490
  768MOL0     H 3672  10.206   3.622   6.333  1.3587  4.2140 -2.2642
  768MOL0     H 3673  10.270   3.614   6.181  0.5011 -1.2992 -0.0495
  768MOL0     H 3674  10.167   3.401   6.120 -1.3895  0.9994 -0.0613
  768MOL0     H 3675  10.060   3.407   6.252  0.6579  2.3419  3.4843
  768MOL0     H 3676  10.261   3.374   6.416 -0.7757 -2.9390  0.0071
  768MOL0     H 3677  10.365   3.383   6.273  0.4488  1.5982  0.7281
  768MOL0     H 3678  10.175   3.001   6.231  2.5654 -0.1599  0.8120
  768MOL0     H 3679  10.131   4.051   6.258 -1.2056  4.0634 -0.2175
  768MOL0     H 3680  10.018   4.228   6.188  0.6606 -0.2392  1.2589
  769MOL0     O 3681   1.346   0.058   9.650 -0.6257  0.4564  0.5281
  769MOL0     C 3682   1.416   0.011   9.567  0.3794 -0.0147 -0.0296
  769MOL0     O 3683   1.466  -0.122   9.562  0.3227  0.4202  1.0257
  769MOL0     C 3684   1.425  -0.214   9.654  0.4854 -0.0660  0.5241
  769MOL0     C 3685   1.505  -0.329   9.663  0.3945 -0.0904  0.0807
  769MOL0     C 3686   1.479  -0.432   9.752  0.2676 -0.3443 -0.6171
  769MOL0     C 3687   1.372  -0.429   9.842 -0.1140  0.1232 -0.4277
  769MOL0     O 3688   1.352  -0.526   9.938  0.8962  0.5998  0.4958
  769MOL0     C 3689   1.262  -0.507  10.045 -0.6307  0.4041 -1.3137
  769MOL0     C 3690   1.288  -0.592  10.174  0.4248  0.2700  0.0938
  769MOL0     C 3691   1.263  -0.740  10.159  0.2040  0.0796 -0.2908
  769MOL0     C 3692   1.241  -0.801  10.291  0.1334 -0.1097  0.0756
  769MOL0     C 3693   1.199  -0.949  10.278 -0.3088 -0.0741  0.6400
  769MOL0     C 3694   1.210  -1.019  10.412 -0.1185  0.0625  0.5304
  769MOL0     C 3695   1.153  -1.148  10.410 -0.8931  0.7136 -0.3189
  769MOL0     C 3696   1.220  -1.249  10.307 -0.2101 -0.0503  0.1853
  769MOL0     N 3697   1.173  -1.379  10.330  0.6571  0.5884  0.1444
  769MOL0     C 3698   1.037  -1.416  10.326 -0.6028  1.0475 -0.0349
  769MOL0     C 3699   1.054  -1.549  10.340  0.8025  1.0375  0.1147
  769MOL0     C 3700   0.928  -1.634  10.346 -0.3207 -0.1934  0.2583
  769MOL0     C 3701   0.844  -1.606  10.214  0.4786 -0.0688  0.3347
  769MOL0     C 3702   0.696  -1.647  10.227  0.4632  0.4629 -0.6769
  769MOL0     C 3703   0.597  -1.581  10.125 -0.2948 -0.4906 -0.1526
  769MOL0     O 3704   0.575  -1.444  10.168 -0.0809  0.0323 -0.2841
  769MOL0     C 3705   0.459  -1.378  10.142 -0.8067 -0.0325 -0.2599
  769MOL0     C 3706   0.445  -1.259  10.218 -0.6840  0.5751  0.1844
  769MOL0     C 3707   0.330  -1.183  10.206 -0.5079  0.2486 -0.3963
  769MOL0     C 3708   0.313  -1.068  10.304 -0.6427 -0.1285  0.7232
  769MOL0     C 3709   0.230  -1.216  10.119  0.3813 -0.8457 -0.2357
  769MOL0     C 3710   0.115  -1.127  10.109 -0.0987  0.0136 -0.3991
  769MOL0     O 3711   0.005  -1.177  10.161  0.2181  0.9236  0.3254
  769MOL0     C 3712  -0.113  -1.109  10.155 -1.1770 -1.0921  0.3114
  769MOL0     C 3713  -0.192  -1.074  10.272 -0.5033  0.5677  0.7073
  769MOL0     C 3714  -0.316  -1.033  10.267  0.2835 -0.0896 -0.4457
  769MOL0     C 3715  -0.370  -1.008  10.133  0.8632 -0.4184  0.3330
  769MOL0     O 3716  -0.495  -0.953  10.110 -0.6787  0.6867 -0.1085
  769MOL0     C 3717  -0.604  -1.016  10.176  0.1451 -0.6462 -1.1116
  769MOL0     C 3718  -0.739  -0.992  10.107 -0.2539  0.0783  0.8285
  769MOL0     C 3719  -0.750  -0.840  10.063 -0.1307 -0.3163  0.6085
  769MOL0     C 3720  -0.884  -0.807  10.022 -0.5003 -0.1758  0.8969
  769MOL0     C 3721  -0.896  -0.661   9.977 -0.3008 -0.8605 -1.0075
  769MOL0     C 3722  -1.007  -0.625   9.882 -0.2366  0.6875  0.1025
  769MOL0     C 3723  -1.091  -0.514   9.925 -0.4413 -1.1201  0.7577
  769MOL0     C 3724  -1.178  -0.517  10.055  0.1273  0.1625 -0.4117
  769MOL0    Cl 3725  -1.235  -0.362  10.117 -0.1546 -0.2093 -0.1316
  769MOL0     C 3726  -0.292  -1.031  10.018  0.0531  0.1211  0.0923
  769MOL0     C 3727  -0.164  -1.078  10.031  0.0062  0.6797  0.2690
  769MOL0     O 3728   0.126  -1.018  10.061 -0.5306 -0.0377  0.5391
  769MOL0     C 3729   0.249  -1.323  10.030  0.5212 -0.8773  0.3054
  769MOL0     C 3730   0.361  -1.412  10.048  1.2189 -0.3259  0.2797
  769MOL0     N 3731   1.187  -1.584  10.356 -0.2826  0.5306 -0.1555
  769MOL0     N 3732   1.256  -1.477  10.334 -0.0425  0.1143 -0.5837
  769MOL0     C 3733   1.293  -0.307   9.834 -0.4960  0.0812  0.7934
  769MOL0     C 3734   1.308  -0.208   9.738 -0.3949 -0.2870  0.0252
  769MOL0     C 3735   1.467   0.100   9.469 -0.4831  0.2735  0.2461
  769MOL0     C 3736   1.571   0.066   9.370 -0.9361  0.0993  0.1735
  769MOL0     C 3737   1.619   0.151   9.276  0.0297 -0.1081 -0.0396
  769MOL0     C 3738   1.560   0.278   9.262  0.1527 -1.0805 -0.5166
  769MOL0     O 3739   1.588   0.372   9.167  0.4162  0.3185 -0.3815
  769MOL0     C 3740   1.681   0.341   9.060 -0.0451 -0.0474 -0.0376
  769MOL0     C 3741   1.634   0.265   8.934  0.5403  0.2530  0.9106
  769MOL0     C 3742   1.709   0.287   8.801 -0.0796  0.7832 -0.2291
  769MOL0     C 3743   1.853   0.227   8.791 -0.6259  0.1298 -0.3390
  769MOL0     C 3744   1.940   0.280   8.891 -0.1078 -0.8346 -0.0101
  769MOL0     C 3745   2.034   0.314   8.950 -0.2540 -0.1322  0.2871
  769MOL0     C 3746   1.465   0.322   9.354 -0.3756  0.2288  0.5708
  769MOL0     C 3747   1.417   0.234   9.453  0.6555  0.0796 -0.0760
  769MOL0     H 3748   1.580  -0.350   9.587  0.7391 -0.9579  0.6478
  769MOL0     H 3749   1.539  -0.523   9.748 -2.0366 -1.9056 -2.8476
  769MOL0     H 3750   1.286  -0.405  10.076 -0.7067  0.0590 -0.0701
  769MOL0     H 3751   1.162  -0.528  10.007 -0.4481 -1.8425 -0.6675
  769MOL0     H 3752   1.394  -0.596  10.200  0.5236  0.8763 -0.1826
  769MOL0     H 3753   1.230  -0.549  10.256  1.4928  1.2723  0.3602
  769MOL0     H 3754   1.161  -0.751  10.121 -0.2035  0.2699  0.7312
  769MOL0     H 3755   1.343  -0.787  10.101  2.0612  2.4937  0.1683
  769MOL0     H 3756   1.338  -0.800  10.341  0.8901  1.2675 -1.3461
  769MOL0     H 3757   1.175  -0.742  10.355  1.0823 -0.3294  1.2875
  769MOL0     H 3758   1.102  -0.941  10.228  0.5480  2.3742 -0.8403
  769MOL0     H 3759   1.270  -0.993  10.208 -0.1303 -1.3245  1.5746
  769MOL0     H 3760   1.314  -1.026  10.444  0.5229  2.5949 -0.7796
  769MOL0     H 3761   1.152  -0.969  10.490 -1.6910  1.1119 -1.2019
  769MOL0     H 3762   1.171  -1.198  10.505 -1.0769  1.1083 -0.0703
  769MOL0     H 3763   1.045  -1.131  10.397 -0.6097  3.1012 -0.0052
  769MOL0     H 3764   1.328  -1.240  10.317 -0.2293  1.7743 -0.8688
  769MOL0     H 3765   1.198  -1.215  10.205  1.7782  3.0264  0.6590
  769MOL0     H 3766   0.953  -1.350  10.309 -3.0027 -2.5482 -4.3080
  769MOL0     H 3767   0.971  -1.733  10.333  2.3897  0.5805  2.4457
  769MOL0     H 3768   0.864  -1.608  10.431  0.2730  2.6468 -0.0699
  769MOL0     H 3769   0.899  -1.657  10.134  0.7978  0.9077 -0.0860
  769MOL0     H 3770   0.840  -1.502  10.179 -0.3685  0.4113  1.7544
  769MOL0     H 3771   0.656  -1.630  10.327  0.0110  4.1951 -1.3193
  769MOL0     H 3772   0.691  -1.754  10.205  3.3817 -0.5392  2.5508
  769MOL0     H 3773   0.502  -1.634  10.131 -1.3054  1.3841  2.2032
  769MOL0     H 3774   0.624  -1.587  10.019 -4.1355 -0.1510 -1.3272
  769MOL0     H 3775   0.529  -1.244  10.285  0.9830 -1.7236 -1.2284
  769MOL0     H 3776   0.324  -0.979  10.242  2.2946 -1.7490 -1.3116
  769MOL0     H 3777   0.209  -1.078  10.336 -0.9275 -1.5307 -0.5284
  769MOL0     H 3778   0.384  -1.081  10.386 -2.4088  2.3100  2.8002
  769MOL0     H 3779  -0.151  -1.072  10.372 -1.5643 -0.2503  1.1850
  769MOL0     H 3780  -0.363  -0.999  10.359  1.0410 -0.2738  0.0134
  769MOL0     H 3781  -0.580  -1.122  10.186 -0.3984 -0.6003  1.8296
  769MOL0     H 3782  -0.617  -0.971  10.275  0.0345  0.5970 -1.6735
  769MOL0     H 3783  -0.742  -1.051  10.015 -2.1282  0.0106  0.8916
  769MOL0     H 3784  -0.828  -1.013  10.166 -0.6064  2.7386  1.3683
  769MOL0     H 3785  -0.692  -0.822   9.972  0.6359 -2.1968  0.6718
  769MOL0     H 3786  -0.732  -0.780  10.152 -1.6743  0.0137  0.7298
  769MOL0     H 3787  -0.900  -0.866   9.930  0.7316  4.9407 -3.0461
  769MOL0     H 3788  -0.951  -0.843  10.100  1.6952 -3.6200  1.4203
  769MOL0     H 3789  -0.801  -0.630   9.934  1.8222 -1.8948  2.5384
  769MOL0     H 3790  -0.894  -0.597  10.065 -0.8690  1.0828 -2.3433
  769MOL0     H 3791  -0.963  -0.604   9.784 -1.1163 -0.9553 -0.6905
  769MOL0     H 3792  -1.071  -0.713   9.866 -0.5175  0.8159  0.5271
  769MOL0     H 3793  -1.152  -0.481   9.841  1.4306 -0.9657 -0.5928
  769MOL0     H 3794  -1.021  -0.431   9.942  0.4289 -1.1402 -2.1987
  769MOL0     H 3795  -1.108  -0.558  10.129  2.0444 -1.7770 -3.1009
  769MOL0     H 3796  -1.259  -0.590  10.048  0.0161  0.2877 -0.4355
  769MOL0     H 3797  -0.333  -1.012   9.919 -3.4343 -1.3393  1.0891
  769MOL0     H 3798  -0.100  -1.115   9.951 -0.8930  1.2933 -0.7599
  769MOL0     H 3799   0.171  -1.352   9.960  1.0995  0.3974 -0.9180
  769MOL0     H 3800   0.377  -1.505   9.995  2.2394  0.8855 -1.6241
  769MOL0     H 3801   1.199  -0.305   9.888 -0.7946 -0.8299  0.3324
  769MOL0     H 3802   1.229  -0.134   9.742 -0.4934 -0.3816 -0.1443
  769MOL0     H 3803   1.622  -0.029   9.377 -1.0879 -0.0889 -1.0166
  769MOL0     H 3804   1.708   0.134   9.215  0.6699  1.6125  0.3554
  769MOL0     H 3805   1.722   0.434   9.019 -1.1476  2.6547  4.3705
  769MOL0     H 3806   1.761   0.282   9.106  0.2175 -0.2075 -0.6795
  769MOL0     H 3807   1.537   0.301   8.898  0.3098 -2.7608 -1.9522
  769MOL0     H 3808   1.616   0.158   8.949  0.0807  0.3458  1.0521
  769MOL0     H 3809   1.711   0.394   8.782  0.8872  0.5509 -1.5660
  769MOL0     H 3810   1.658   0.232   8.722  0.9234  0.9364 -1.0014
  769MOL0     H 3811   1.884   0.223   8.687 -2.9016  0.9225 -1.1177
  769MOL0     H 3812   1.835   0.121   8.808 -4.6200  0.8026  0.8452
  769MOL0     H 3813   2.108   0.369   9.004 -2.7474  3.6394  0.2922
  769MOL0     H 3814   1.404   0.410   9.335 -2.0681 -1.3174 -1.6483
  769MOL0     H 3815   1.332   0.271   9.509  0.9019  0.6812 -0.0918
  770MOL0     O 3816   2.719   6.965   8.584 -0.4344 -0.4861 -0.8810
  770MOL0     C 3817   2.604   7.015   8.601 -0.3886  0.5920  0.0732
  770MOL0     O 3818   2.497   6.944   8.643  0.0462 -0.2634 -0.3581
  770MOL0     C 3819   2.523   6.858   8.741  0.0052  0.5363  0.2056
  770MOL0     C 3820   2.597   6.890   8.856  0.1658 -0.1041 -0.1359
  770MOL0     C 3821   2.622   6.799   8.956 -0.6465  0.2872 -0.2859
  770MOL0     C 3822   2.561   6.676   8.962  0.7176  0.8948  0.2284
  770MOL0     O 3823   2.563   6.602   9.074 -0.0189  0.0570  0.3991
  770MOL0     C 3824   2.695   6.574   9.106 -0.1855 -0.2096 -0.8871
  770MOL0     C 3825   2.705   6.437   9.181  0.6535 -0.2491 -0.1177
  770MOL0     C 3826   2.752   6.330   9.076  0.7012 -0.9241 -1.0652
  770MOL0     C 3827   2.644   6.311   8.967  0.6033 -0.4485  0.0317
  770MOL0     C 3828   2.656   6.180   8.905  0.4614 -0.5597 -0.1549
  770MOL0     C 3829   2.529   6.149   8.824 -0.2810  0.3692  0.1268
  770MOL0     C 3830   2.549   6.036   8.722 -0.0581 -0.5166  0.2186
  770MOL0     C 3831   2.552   6.085   8.579 -0.7859 -0.1158 -0.0853
  770MOL0     N 3832   2.678   6.151   8.543  0.2486 -0.8373 -0.0303
  770MOL0     C 3833   2.701   6.285   8.518  0.3278 -0.1630  0.6499
  770MOL0     C 3834   2.835   6.290   8.497 -0.0829  0.6561  1.0359
  770MOL0     C 3835   2.909   6.420   8.472 -0.0790  0.2549  0.5671
  770MOL0     C 3836   2.863   6.532   8.559 -0.2672  0.4235  0.0797
  770MOL0     C 3837   2.878   6.490   8.702 -0.3787  0.3415 -0.6426
  770MOL0     C 3838   3.020   6.442   8.738 -0.3620 -1.0975 -0.0084
  770MOL0     O 3839   3.043   6.490   8.868 -0.2501  0.5113  0.2844
  770MOL0     C 3840   3.142   6.421   8.944  0.0052 -0.4588  0.8083
  770MOL0     C 3841   3.241   6.337   8.895  0.6888  1.3829  0.0485
  770MOL0     C 3842   3.332   6.274   8.976 -0.0860 -0.0158 -0.2403
  770MOL0     C 3843   3.456   6.210   8.902 -0.7286 -0.0383  0.4032
  770MOL0     C 3844   3.327   6.283   9.118 -0.1513  0.9382  0.9836
  770MOL0     C 3845   3.404   6.208   9.217  0.4839  0.6095  0.4684
  770MOL0     O 3846   3.379   6.235   9.342 -0.2238  0.1881 -0.9928
  770MOL0     C 3847   3.446   6.176   9.447 -0.4756  0.1458  0.2116
  770MOL0     C 3848   3.586   6.163   9.452 -0.0502 -0.2288  0.2302
  770MOL0     C 3849   3.643   6.111   9.574  0.0819 -0.2778 -0.2716
  770MOL0     C 3850   3.566   6.091   9.690 -0.4085  0.2377 -0.7803
  770MOL0     O 3851   3.632   6.044   9.804 -0.5341  0.1649  0.6469
  770MOL0     C 3852   3.768   6.058   9.817 -0.5466 -0.7177  0.5993
  770MOL0     C 3853   3.808   6.042   9.958 -0.4393 -0.7583  0.8289
  770MOL0     C 3854   3.708   5.966  10.051 -0.8517 -0.3188  0.1841
  770MOL0     C 3855   3.766   5.950  10.190  0.0325  0.1073 -0.4946
  770MOL0     C 3856   3.657   5.878  10.275  0.0092  0.1730 -0.1901
  770MOL0     C 3857   3.724   5.845  10.403  0.1281  0.0300 -0.2391
  770MOL0     C 3858   3.630   5.790  10.507 -1.0931 -0.2816 -0.2583
  770MOL0     C 3859   3.699   5.747  10.634  0.2713 -0.7685  0.3583
  770MOL0    Cl 3860   3.583   5.682  10.751  0.3774  0.4323  0.4327
  770MOL0     C 3861   3.437   6.124   9.683 -0.5594  0.3503 -0.3748
  770MOL0     C 3862   3.378   6.158   9.567  0.3789  0.1621  0.0009
  770MOL0     O 3863   3.488   6.137   9.173  0.4104 -0.3953  0.9630
  770MOL0     C 3864   3.220   6.364   9.163  0.3576 -0.1650  0.4084
  770MOL0     C 3865   3.127   6.428   9.079  0.4218 -0.2831  0.4940
  770MOL0     N 3866   2.896   6.166   8.503 -0.0459  0.0233 -0.3298
  770MOL0     N 3867   2.798   6.086   8.529 -0.3293  0.2432  0.4668
  770MOL0     C 3868   2.471   6.642   8.853 -0.4601 -0.8473  0.0971
  770MOL0     C 3869   2.454   6.733   8.745  0.2548 -0.5322  0.1844
  770MOL0     C 3870   2.594   7.162   8.574  0.2874  0.6075  0.2407
  770MOL0     C 3871   2.468   7.232   8.574 -0.4338  0.5035 -0.0813
  770MOL0     C 3872   2.444   7.368   8.529 -0.5697  0.3249  0.5934
  770MOL0     C 3873   2.556   7.444   8.495  1.1006  0.9208 -0.6294
  770MOL0     O 3874   2.526   7.561   8.437  0.4452  0.4934  0.3660
  770MOL0     C 3875   2.636   7.647   8.395 -0.2592 -0.3265  0.1386
  770MOL0     C 3876   2.727   7.705   8.509 -1.3662  0.4065 -1.1072
  770MOL0     C 3877   2.834   7.789   8.446 -0.8490  1.0447 -1.8283
  770MOL0     C 3878   2.798   7.920   8.381 -0.6942 -0.2021 -0.2691
  770MOL0     C 3879   2.860   7.953   8.253  0.8291  0.9102 -0.6263
  770MOL0     C 3880   2.900   7.988   8.148  0.2876  0.7611  0.9584
  770MOL0     C 3881   2.680   7.378   8.492 -0.4490 -0.7340 -0.0081
  770MOL0     C 3882   2.703   7.241   8.515  0.3797 -0.0714 -0.6482
  770MOL0     H 3883   2.633   6.991   8.872 -0.2869 -0.1913  1.6931
  770MOL0     H 3884   2.693   6.838   9.028  1.3965 -2.7714 -0.4230
  770MOL0     H 3885   2.771   6.580   9.027 -0.7265  1.0875 -1.3453
  770MOL0     H 3886   2.726   6.650   9.179 -0.2775 -0.8156 -0.2051
  770MOL0     H 3887   2.752   6.426   9.280 -2.4212  2.4047  1.8631
  770MOL0     H 3888   2.606   6.417   9.224  0.0924  0.5035 -1.0242
  770MOL0     H 3889   2.851   6.350   9.036  0.7587 -2.4652 -1.7525
  770MOL0     H 3890   2.763   6.240   9.138 -0.0224 -0.8283 -0.7818
  770MOL0     H 3891   2.545   6.306   9.014 -0.2184  0.9972 -1.4605
  770MOL0     H 3892   2.641   6.397   8.900 -2.0131  1.9264  2.8760
  770MOL0     H 3893   2.739   6.168   8.835 -0.9319 -1.5397 -1.7259
  770MOL0     H 3894   2.659   6.110   8.990  5.1871  1.6100  1.8468
  770MOL0     H 3895   2.450   6.116   8.892 -1.1028  3.2514  0.7084
  770MOL0     H 3896   2.491   6.233   8.765 -1.6750 -0.6025 -0.4101
  770MOL0     H 3897   2.641   5.982   8.747 -0.1367  0.4730  2.9514
  770MOL0     H 3898   2.469   5.962   8.725  0.9688 -1.6588  0.4429
  770MOL0     H 3899   2.475   6.156   8.546  0.4043  0.8546 -0.8586
  770MOL0     H 3900   2.538   5.994   8.521 -2.2574  0.7049 -1.0930
  770MOL0     H 3901   2.634   6.368   8.500  1.4698  0.8331  0.8968
  770MOL0     H 3902   3.016   6.400   8.482 -0.4174 -2.8209 -0.8460
  770MOL0     H 3903   2.896   6.459   8.370 -0.4957  1.5840  1.1086
  770MOL0     H 3904   2.757   6.544   8.536 -0.5848 -0.9588  0.7179
  770MOL0     H 3905   2.901   6.632   8.535  0.5515 -0.0532 -0.6508
  770MOL0     H 3906   2.818   6.407   8.740  3.5236 -1.7508  1.5789
  770MOL0     H 3907   2.869   6.584   8.758 -0.4750  0.4255 -0.8030
  770MOL0     H 3908   3.081   6.513   8.680 -0.7302  1.8838  2.9329
  770MOL0     H 3909   3.024   6.334   8.727  0.4071 -0.9723 -1.1229
  770MOL0     H 3910   3.234   6.322   8.788 -2.5140  3.3412 -0.1454
  770MOL0     H 3911   3.554   6.215   8.951 -0.6221  1.9742  0.0838
  770MOL0     H 3912   3.447   6.102   8.886  1.0455 -0.3729  1.4009
  770MOL0     H 3913   3.459   6.254   8.802 -2.5977 -1.0395 -0.1359
  770MOL0     H 3914   3.647   6.198   9.369 -0.0872  1.5675  0.9083
  770MOL0     H 3915   3.749   6.092   9.563  0.5304 -2.0096  4.5967
  770MOL0     H 3916   3.820   5.989   9.750  2.5396  0.6359  1.3906
  770MOL0     H 3917   3.815   6.148   9.777 -0.8108 -1.3660 -1.2561
  770MOL0     H 3918   3.909   6.000   9.951  1.2962  3.1491 -1.0657
  770MOL0     H 3919   3.815   6.142  10.002 -1.3336 -0.5512  0.5252
  770MOL0     H 3920   3.687   5.867  10.008 -1.9747  0.5883 -1.5218
  770MOL0     H 3921   3.617   6.026  10.044 -0.7422  0.1111  2.0454
  770MOL0     H 3922   3.864   5.904  10.180  1.4514  2.4375  1.6388
  770MOL0     H 3923   3.786   6.045  10.240 -2.4607 -0.3522  1.5720
  770MOL0     H 3924   3.608   5.793  10.226  1.8037 -1.0308  0.0097
  770MOL0     H 3925   3.581   5.953  10.296  1.4809  1.0165  2.5208
  770MOL0     H 3926   3.798   5.767  10.384 -0.6213 -0.9700  0.8364
  770MOL0     H 3927   3.772   5.934  10.447  0.4512 -1.0981  1.8078
  770MOL0     H 3928   3.597   5.696  10.463  1.0054 -1.5811  0.7378
  770MOL0     H 3929   3.558   5.871  10.519  0.6498  1.0659  1.9984
  770MOL0     H 3930   3.749   5.832  10.680  1.6935 -0.6798 -1.2440
  770MOL0     H 3931   3.783   5.679  10.617  1.8940  0.7885  1.7597
  770MOL0     H 3932   3.382   6.126   9.777  1.1565  0.5113  0.6622
  770MOL0     H 3933   3.273   6.181   9.574 -0.0383 -0.7837 -2.2815
  770MOL0     H 3934   3.208   6.384   9.269  0.2410  0.5430  0.2713
  770MOL0     H 3935   3.059   6.499   9.126 -1.3490 -1.1233 -0.6968
  770MOL0     H 3936   2.428   6.543   8.845 -0.6834 -0.6231 -2.1479
  770MOL0     H 3937   2.380   6.713   8.668 -1.2749 -0.2177  1.5287
  770MOL0     H 3938   2.375   7.185   8.603  0.4225 -1.0358  0.2766
  770MOL0     H 3939   2.347   7.415   8.537  0.2154  2.0882  0.1336
  770MOL0     H 3940   2.696   7.603   8.315 -2.4534  0.8035 -2.2719
  770MOL0     H 3941   2.589   7.736   8.351 -0.5145  0.2438  1.5153
  770MOL0     H 3942   2.776   7.630   8.574 -2.5383  0.3667 -0.2433
  770MOL0     H 3943   2.665   7.763   8.578 -1.8121 -2.9821  1.6740
  770MOL0     H 3944   2.896   7.719   8.389 -0.4531 -1.2492  1.1643
  770MOL0     H 3945   2.914   7.812   8.518 -1.0003  0.9481 -1.6289
  770MOL0     H 3946   2.832   7.998   8.449 -3.3728  0.1674  0.7568
  770MOL0     H 3947   2.690   7.926   8.360 -0.6389  1.5044 -0.2045
  770MOL0     H 3948   2.921   8.034   8.054  0.3323  1.6811  1.4009
  770MOL0     H 3949   2.765   7.427   8.445 -0.1847 -1.3066 -0.1410
  770MOL0     H 3950   2.806   7.209   8.507  0.6742  0.8313 -0.5790
  771MOL0     O 3951   3.138   5.028  10.569  1.0895 -0.7843  0.2032
  771MOL0     C 3952   3.087   5.131  10.522  0.0509 -0.1662  0.1364
  771MOL0     O 3953   3.115   5.182  10.393  0.5710 -0.3010 -0.1793
  771MOL0     C 3954   3.228   5.142  10.331 -0.8565  0.3993 -0.2335
  771MOL0     C 3955   3.309   5.238  10.279 -0.9150  0.6269 -0.0360
  771MOL0     C 3956   3.417   5.196  10.194  0.6323 -0.5832 -0.3261
  771MOL0     C 3957   3.449   5.056  10.184 -0.3695  0.6077  0.1006
  771MOL0     O 3958   3.569   5.027  10.126  0.3240 -0.6005  0.0211
  771MOL0     C 3959   3.596   5.093  10.000 -0.5539 -0.3396  0.5480
  771MOL0     C 3960   3.709   5.006   9.932  0.3761  0.7793 -0.4962
  771MOL0     C 3961   3.766   5.073   9.810 -0.1648 -0.5865  0.7494
  771MOL0     C 3962   3.663   5.061   9.694  0.5302  0.0668 -0.6695
  771MOL0     C 3963   3.732   5.089   9.551 -0.3449  0.3373  0.4222
  771MOL0     C 3964   3.810   5.218   9.530  0.6128 -0.3889 -0.1545
  771MOL0     C 3965   3.707   5.318   9.469 -0.1171  0.5633 -0.1387
  771MOL0     C 3966   3.740   5.429   9.370 -0.3424 -0.2593 -1.2332
  771MOL0     N 3967   3.761   5.384   9.233 -0.2165 -0.0937 -0.0019
  771MOL0     C 3968   3.660   5.384   9.140  0.0790 -0.4083  0.1633
  771MOL0     C 3969   3.708   5.361   9.019 -0.9480  0.1780  0.6512
  771MOL0     C 3970   3.644   5.356   8.882  0.0750 -0.3991  0.2000
  771MOL0     C 3971   3.676   5.228   8.810 -0.2286  0.0201 -0.0008
  771MOL0     C 3972   3.616   5.213   8.674  1.4089  0.1093  0.8485
  771MOL0     C 3973   3.691   5.109   8.581 -0.9796  0.0359 -0.6044
  771MOL0     O 3974   3.679   4.973   8.624 -0.0597  0.5788 -0.0544
  771MOL0     C 3975   3.720   4.872   8.547  0.1456  1.3031 -0.3666
  771MOL0     C 3976   3.771   4.891   8.413 -0.1261 -0.2238  0.0143
  771MOL0     C 3977   3.802   4.778   8.335  0.0552  0.2244 -0.4386
  771MOL0     C 3978   3.869   4.804   8.199  0.2477 -0.1595 -1.0393
  771MOL0     C 3979   3.799   4.651   8.391  1.1756  1.1427 -0.7166
  771MOL0     C 3980   3.836   4.523   8.322 -0.0836  0.2329  0.0156
  771MOL0     O 3981   3.772   4.470   8.210 -0.3057  0.1126  0.0018
  771MOL0     C 3982   3.646   4.524   8.173  0.2341  0.5289 -0.6749
  771MOL0     C 3983   3.539   4.492   8.260  0.2304  0.4774  0.9631
  771MOL0     C 3984   3.411   4.531   8.225  0.2694  0.5029 -0.2668
  771MOL0     C 3985   3.385   4.612   8.111 -0.1256  0.1115  0.2060
  771MOL0     O 3986   3.252   4.635   8.073  0.0999 -0.2629  1.1703
  771MOL0     C 3987   3.133   4.612   8.151 -0.5152  0.0224 -1.0520
  771MOL0     C 3988   3.084   4.472   8.152 -0.2534  0.8917  0.2405
  771MOL0     C 3989   3.038   4.425   8.288  0.8095 -0.2975 -0.1210
  771MOL0     C 3990   2.964   4.290   8.292 -0.0674 -0.7335  0.7897
  771MOL0     C 3991   3.037   4.186   8.216 -0.6796 -1.1102 -0.3364
  771MOL0     C 3992   3.165   4.149   8.274  0.8938 -0.0092 -0.7754
  771MOL0     C 3993   3.255   4.050   8.199 -0.5629  0.3934 -0.1847
  771MOL0     C 3994   3.388   4.015   8.278  0.4856 -0.7155 -0.2174
  771MOL0    Cl 3995   3.488   4.163   8.301 -0.2458 -0.0995 -0.2545
  771MOL0     C 3996   3.494   4.637   8.022 -0.6955 -0.1081 -0.3629
  771MOL0     C 3997   3.619   4.586   8.047 -0.7297  0.3175 -0.0067
  771MOL0     O 3998   3.927   4.466   8.379 -0.2467  0.2061  0.6468
  771MOL0     C 3999   3.747   4.636   8.524  0.4253  0.1530 -0.1629
  771MOL0     C 4000   3.717   4.748   8.602 -1.3961  0.1621  0.2970
  771MOL0     N 4001   3.846   5.357   9.035  0.0204 -0.2595 -0.1628
  771MOL0     N 4002   3.877   5.371   9.162  0.1235  0.1219 -0.6174
  771MOL0     C 4003   3.371   4.960  10.250 -0.3067  0.0272 -0.7996
  771MOL0     C 4004   3.260   5.007  10.314 -0.8476 -0.0996  0.6057
  771MOL0     C 4005   2.968   5.198  10.574  0.5760 -0.2118  0.3340
  771MOL0     C 4006   2.894   5.302  10.517 -0.1900 -0.2471 -0.3393
  771MOL0     C 4007   2.778   5.357  10.567 -0.3511 -1.0343  0.1442
  771MOL0     C 4008   2.729   5.319  10.693 -0.1208 -0.3750 -0.0256
  771MOL0     O 4009   2.608   5.380  10.737 -0.1454  0.4230 -0.2115
  771MOL0     C 4010   2.540   5.297  10.832  0.0503  0.6275 -0.6424
  771MOL0     C 4011   2.397   5.323  10.832  0.9867  0.0406  0.2323
  771MOL0     C 4012   2.360   5.472  10.849 -0.0152  0.5661  0.0182
  771MOL0     C 4013   2.212   5.508  10.873 -1.1217 -0.2976 -0.2479
  771MOL0     C 4014   2.131   5.414  10.956  0.1728 -0.3790 -0.5748
  771MOL0     C 4015   2.045   5.342  11.007 -0.7214 -0.9539 -1.1583
  771MOL0     C 4016   2.805   5.222  10.761 -0.2724 -0.1908 -0.5469
  771MOL0     C 4017   2.915   5.160  10.698 -0.2476 -0.4976  0.5684
  771MOL0     H 4018   3.291   5.343  10.302  0.7637  0.3377  3.1344
  771MOL0     H 4019   3.470   5.277  10.143 -1.1715 -0.5392 -2.2608
  771MOL0     H 4020   3.502   5.106   9.945 -1.6816  0.1297  2.4861
  771MOL0     H 4021   3.636   5.194  10.012 -0.6601 -0.3133  0.6776
  771MOL0     H 4022   3.788   5.010  10.008 -0.4613 -0.8642  0.5221
  771MOL0     H 4023   3.672   4.904   9.927 -1.3882  1.0697  3.0600
  771MOL0     H 4024   3.803   5.174   9.831 -0.0866  0.4646 -3.3720
  771MOL0     H 4025   3.845   5.005   9.778 -0.9175 -1.2891  0.3334
  771MOL0     H 4026   3.627   4.958   9.691  1.4273 -0.3143  0.4782
  771MOL0     H 4027   3.579   5.129   9.711 -1.2333 -1.6889 -1.9072
  771MOL0     H 4028   3.799   5.006   9.528  0.2819  0.6635  1.0434
  771MOL0     H 4029   3.655   5.075   9.474  0.2651  0.6648 -0.2526
  771MOL0     H 4030   3.855   5.251   9.624  1.2852  0.0148 -0.6148
  771MOL0     H 4031   3.892   5.200   9.460  0.5813 -4.6135  0.6325
  771MOL0     H 4032   3.636   5.261   9.408 -1.9616 -1.7771  3.8229
  771MOL0     H 4033   3.651   5.361   9.552  1.9427  0.8082  1.1868
  771MOL0     H 4034   3.832   5.482   9.398 -2.4766  3.1839 -0.0456
  771MOL0     H 4035   3.662   5.506   9.376  0.6961  0.9153 -2.0863
  771MOL0     H 4036   3.559   5.413   9.169  0.6488 -1.9946  4.4296
  771MOL0     H 4037   3.536   5.369   8.888  0.1100  0.1633 -0.3524
  771MOL0     H 4038   3.685   5.441   8.826 -0.0811  0.5300  1.4602
  771MOL0     H 4039   3.641   5.148   8.876  0.6562  0.6635  1.2821
  771MOL0     H 4040   3.783   5.213   8.792 -0.8976 -2.9306 -2.5417
  771MOL0     H 4041   3.599   5.304   8.617 -1.0342  0.4730  2.0076
  771MOL0     H 4042   3.517   5.169   8.691 -1.2418  4.1841 -2.1536
  771MOL0     H 4043   3.796   5.135   8.573 -0.8224 -1.0530 -3.4133
  771MOL0     H 4044   3.647   5.118   8.481  2.2781 -0.5231 -2.2023
  771MOL0     H 4045   3.794   4.992   8.380  1.5730 -1.1657 -1.9748
  771MOL0     H 4046   3.808   4.814   8.108  2.2967  2.7282 -2.2467
  771MOL0     H 4047   3.912   4.903   8.215 -1.5801  0.2414  2.4769
  771MOL0     H 4048   3.936   4.719   8.185 -1.9653 -1.8031 -2.4464
  771MOL0     H 4049   3.558   4.449   8.358  3.0543  0.3014  0.4257
  771MOL0     H 4050   3.334   4.484   8.286 -1.5636  5.2301  1.5196
  771MOL0     H 4051   3.148   4.645   8.254  0.4967  3.5573 -2.1944
  771MOL0     H 4052   3.053   4.679   8.118  0.3885  0.8116 -1.7085
  771MOL0     H 4053   3.002   4.450   8.083 -1.1716  0.0234  1.5828
  771MOL0     H 4054   3.165   4.407   8.117 -2.1883 -0.1919 -2.6115
  771MOL0     H 4055   2.972   4.500   8.332  0.2805 -1.8148  1.8199
  771MOL0     H 4056   3.124   4.412   8.354  1.6926  4.2052 -0.0761
  771MOL0     H 4057   2.957   4.266   8.398 -0.1021 -1.3112  0.6605
  771MOL0     H 4058   2.864   4.303   8.251  0.2232 -0.1375  0.2424
  771MOL0     H 4059   3.051   4.216   8.111 -0.9589 -2.0791 -0.6633
  771MOL0     H 4060   2.975   4.096   8.216  0.5577 -1.9790 -0.0679
  771MOL0     H 4061   3.225   4.240   8.276  2.2678 -0.8576 -1.4787
  771MOL0     H 4062   3.153   4.133   8.381  2.2973 -0.9390 -0.7269
  771MOL0     H 4063   3.284   4.102   8.108  1.4513  0.6854  0.5824
  771MOL0     H 4064   3.193   3.963   8.173  0.2946 -0.9974  2.0373
  771MOL0     H 4065   3.447   3.941   8.222 -0.1953 -1.6625  0.2937
  771MOL0     H 4066   3.356   3.968   8.371  1.3644 -1.5586 -0.3242
  771MOL0     H 4067   3.472   4.693   7.932  1.9989 -0.6109 -1.4262
  771MOL0     H 4068   3.703   4.610   7.983  0.7067 -0.2275  1.5903
  771MOL0     H 4069   3.741   4.540   8.574  3.2058  1.2283  2.5859
  771MOL0     H 4070   3.688   4.727   8.704 -2.6920 -2.7758 -0.5539
  771MOL0     H 4071   3.400   4.856  10.247 -1.2800 -0.4824  2.7732
  771MOL0     H 4072   3.195   4.927  10.350 -0.4452  0.0797  1.7569
  771MOL0     H 4073   2.915   5.338  10.417 -3.1686 -0.6941 -1.2274
  771MOL0     H 4074   2.720   5.428  10.508  1.4979 -0.0751 -0.6195
  771MOL0     H 4075   2.540   5.190  10.811  0.1201  0.2510  1.1790
  771MOL0     H 4076   2.587   5.301  10.930  2.1861  2.4087 -1.6397
  771MOL0     H 4077   2.349   5.262  10.909 -1.6076 -0.3525 -1.5817
  771MOL0     H 4078   2.341   5.299  10.741 -2.7153  0.4676  2.2240
  771MOL0     H 4079   2.397   5.534  10.767  3.4316  1.4208  2.0273
  771MOL0     H 4080   2.405   5.492  10.946  0.6076 -1.4328  0.1895
  771MOL0     H 4081   2.157   5.523  10.780 -1.7297  2.0259  0.4137
  771MOL0     H 4082   2.214   5.608  10.918  1.4789  1.3171 -3.4782
  771MOL0     H 4083   1.974   5.268  11.039 -0.9961 -0.5442 -0.8136
  771MOL0     H 4084   2.776   5.185  10.859 -1.0629 -1.2990 -1.1780
  771MOL0     H 4085   2.969   5.090  10.761  0.0030  0.1646  1.0980
  772MOL0     O 4086   1.116   3.627   7.782  0.0979  0.2616  1.0515
  772MOL0     C 4087   1.229   3.585   7.818  0.6248 -0.1926  0.3058
  772MOL0     O 4088   1.348   3.587   7.750 -0.6210 -0.0225 -0.0395
  772MOL0     C 4089   1.373   3.669   7.644 -0.1342  0.7128  0.2344
  772MOL0     C 4090   1.461   3.779   7.653  0.9565 -0.7292 -0.3930
  772MOL0     C 4091   1.472   3.878   7.556  0.0044  0.1605 -0.8371
  772MOL0     C 4092   1.413   3.856   7.436 -0.5491 -0.5005 -0.1273
  772MOL0     O 4093   1.442   3.946   7.353 -0.3529 -0.3095 -0.0258
  772MOL0     C 4094   1.427   3.928   7.215  0.7743 -0.3625  1.0722
  772MOL0     C 4095   1.482   4.053   7.146  0.3604 -0.6702 -0.1024
  772MOL0     C 4096   1.436   4.061   6.995  0.3093  0.3766  0.4563
  772MOL0     C 4097   1.301   4.095   6.969  0.2086 -0.6417  0.2258
  772MOL0     C 4098   1.253   4.233   7.004  0.2565 -0.2723  0.1066
  772MOL0     C 4099   1.142   4.275   6.904 -0.1726  0.3062  0.0055
  772MOL0     C 4100   1.077   4.418   6.950 -0.3000  0.2283  0.5853
  772MOL0     C 4101   0.956   4.400   7.043  0.1119 -0.3055  0.4738
  772MOL0     N 4102   0.855   4.309   6.988  0.2901 -0.6433  0.3370
  772MOL0     C 4103   0.841   4.181   7.028 -0.5456  0.8237 -0.0706
  772MOL0     C 4104   0.740   4.128   6.952  0.5957  0.2066 -1.0537
  772MOL0     C 4105   0.683   3.998   6.982 -0.2425 -0.1061  0.2981
  772MOL0     C 4106   0.718   3.911   6.861 -0.0315 -0.4921 -0.0702
  772MOL0     C 4107   0.658   3.772   6.861  0.5488  0.2950  0.0030
  772MOL0     C 4108   0.687   3.706   6.737 -0.4381 -0.2666 -0.5790
  772MOL0     O 4109   0.594   3.756   6.640  0.0416  0.7760  1.0172
  772MOL0     C 4110   0.504   3.664   6.580 -0.0085  0.2361  0.1376
  772MOL0     C 4111   0.479   3.533   6.627 -0.1322  1.1317  0.0265
  772MOL0     C 4112   0.433   3.432   6.533  0.4524 -0.2129  0.4187
  772MOL0     C 4113   0.421   3.287   6.573 -0.2687  0.4063 -0.6781
  772MOL0     C 4114   0.391   3.474   6.405 -0.0962 -0.2355 -0.2593
  772MOL0     C 4115   0.341   3.391   6.285 -0.0074 -0.5300 -0.3410
  772MOL0     O 4116   0.355   3.458   6.174  0.2402  0.0564  0.3545
  772MOL0     C 4117   0.331   3.421   6.041  0.0592 -0.4323  0.7013
  772MOL0     C 4118   0.259   3.305   6.000 -0.2495  0.0416  0.7156
  772MOL0     C 4119   0.229   3.282   5.864 -0.2490 -0.0864  0.4191
  772MOL0     C 4120   0.274   3.368   5.762 -0.3460  0.3142 -0.6756
  772MOL0     O 4121   0.253   3.343   5.630  0.1977  0.1943 -0.3317
  772MOL0     C 4122   0.286   3.209   5.582  0.5712  0.0245  0.7803
  772MOL0     C 4123   0.350   3.218   5.441  0.6654  0.4631  0.0868
  772MOL0     C 4124   0.396   3.082   5.370  0.2982  0.0754  0.1665
  772MOL0     C 4125   0.508   3.006   5.447  0.6465  0.4668  0.4920
  772MOL0     C 4126   0.520   2.868   5.399 -0.4454  0.4879  0.4155
  772MOL0     C 4127   0.646   2.796   5.448 -0.7265  0.0109  0.0565
  772MOL0     C 4128   0.642   2.793   5.607  0.6097  0.2308  0.9160
  772MOL0     C 4129   0.763   2.722   5.663 -0.0061 -0.3008 -0.3698
  772MOL0    Cl 4130   0.918   2.768   5.573  0.2673 -0.0709  0.3239
  772MOL0     C 4131   0.345   3.481   5.799  0.0988  0.1439 -0.7088
  772MOL0     C 4132   0.367   3.512   5.939  0.9196  1.3627  0.4980
  772MOL0     O 4133   0.295   3.283   6.304  0.1375 -0.3472 -0.4680
  772MOL0     C 4134   0.384   3.615   6.382  0.1059  0.3695  0.1944
  772MOL0     C 4135   0.453   3.709   6.461 -0.0534  0.0064 -0.2539
  772MOL0     N 4136   0.704   4.229   6.859 -0.7067 -1.0739  0.8425
  772MOL0     N 4137   0.773   4.337   6.886 -0.9862 -0.3127  0.1529
  772MOL0     C 4138   1.326   3.744   7.419  0.1255  0.6367  0.2083
  772MOL0     C 4139   1.310   3.648   7.520  0.3014 -1.5650 -0.6326
  772MOL0     C 4140   1.223   3.496   7.929  1.2580  0.4612 -0.0036
  772MOL0     C 4141   1.090   3.456   7.980 -0.4161 -1.4485  0.6632
  772MOL0     C 4142   1.089   3.355   8.082  1.1414 -0.2827  0.1827
  772MOL0     C 4143   1.206   3.293   8.124  0.6879  0.0056  0.5423
  772MOL0     O 4144   1.217   3.213   8.225  0.9403  0.1690 -0.1376
  772MOL0     C 4145   1.208   3.278   8.349  0.0935 -1.6684  0.5737
  772MOL0     C 4146   1.301   3.233   8.457  0.2701  0.2871 -0.2835
  772MOL0     C 4147   1.318   3.340   8.576 -0.5666 -0.7415 -0.6722
  772MOL0     C 4148   1.250   3.296   8.708 -0.5455  0.4471 -0.8920
  772MOL0     C 4149   1.107   3.295   8.672 -0.1122 -0.7382  0.1579
  772MOL0     C 4150   0.989   3.271   8.649 -1.6242 -0.3712  1.3403
  772MOL0     C 4151   1.322   3.315   8.054 -0.3621  0.6487  0.0636
  772MOL0     C 4152   1.333   3.418   7.961 -0.3244  0.5977 -1.0009
  772MOL0     H 4153   1.502   3.782   7.753  0.7248 -1.6650 -0.2615
  772MOL0     H 4154   1.532   3.966   7.574  0.3911 -0.3002  0.1930
  772MOL0     H 4155   1.466   3.833   7.177 -1.6185 -1.3227  0.8072
  772MOL0     H 4156   1.318   3.928   7.203  0.5889  1.2191  2.3541
  772MOL0     H 4157   1.459   4.145   7.201  0.1879 -0.8252  0.0824
  772MOL0     H 4158   1.590   4.038   7.151  0.1362 -1.9718  1.7126
  772MOL0     H 4159   1.504   4.124   6.937  0.0544  0.7131  0.5138
  772MOL0     H 4160   1.437   3.965   6.944 -3.2298  0.9830 -1.0590
  772MOL0     H 4161   1.283   4.083   6.862  3.1790 -1.9551 -0.2219
  772MOL0     H 4162   1.241   4.030   7.033  1.8067 -2.6027 -0.1836
  772MOL0     H 4163   1.204   4.221   7.101 -1.8379 -0.9448 -0.9778
  772MOL0     H 4164   1.323   4.317   7.014 -2.0930  1.7619  0.3037
  772MOL0     H 4165   1.194   4.293   6.810  0.2481 -2.6019 -0.4043
  772MOL0     H 4166   1.062   4.201   6.895 -1.2083  0.9750  2.6578
  772MOL0     H 4167   1.150   4.485   6.995 -2.3979  1.3425  2.5822
  772MOL0     H 4168   1.038   4.474   6.865  1.4449  2.5523  1.2165
  772MOL0     H 4169   0.915   4.499   7.065 -1.3062 -1.3553  2.9478
  772MOL0     H 4170   0.985   4.368   7.143 -0.9479  1.3613  1.3632
  772MOL0     H 4171   0.898   4.129   7.103  1.1114 -1.9164 -2.9825
  772MOL0     H 4172   0.738   3.948   7.063  1.6817 -2.1971 -2.1215
  772MOL0     H 4173   0.575   3.998   7.001 -0.0336 -0.0126  1.5661
  772MOL0     H 4174   0.827   3.911   6.852  0.2015  2.2401  1.6150
  772MOL0     H 4175   0.681   3.950   6.766 -2.8273 -0.3505  0.9764
  772MOL0     H 4176   0.551   3.782   6.885  0.5113  2.1031 -0.8059
  772MOL0     H 4177   0.709   3.723   6.945 -0.1815  0.6281  0.6578
  772MOL0     H 4178   0.695   3.598   6.751  1.5720  0.2882  4.7328
  772MOL0     H 4179   0.786   3.731   6.698 -0.2028 -1.0929 -0.5406
  772MOL0     H 4180   0.490   3.508   6.732 -0.8991 -0.3063 -0.2057
  772MOL0     H 4181   0.317   3.259   6.597  0.5673 -2.4149  0.1118
  772MOL0     H 4182   0.449   3.229   6.485 -0.9824  1.4202 -1.6019
  772MOL0     H 4183   0.485   3.254   6.655  1.0331 -2.3806 -2.6201
  772MOL0     H 4184   0.207   3.244   6.073  0.8373  0.6615  2.0539
  772MOL0     H 4185   0.177   3.194   5.828  1.3294 -1.0572  0.4469
  772MOL0     H 4186   0.351   3.159   5.654 -0.0371 -1.2904  0.4495
  772MOL0     H 4187   0.194   3.151   5.573 -1.9747  3.6481  0.9580
  772MOL0     H 4188   0.280   3.263   5.370  2.6681 -0.3274 -2.5727
  772MOL0     H 4189   0.438   3.283   5.448  1.6183 -0.8683  0.8357
  772MOL0     H 4190   0.409   3.103   5.264  0.5344  0.2096  0.2211
  772MOL0     H 4191   0.315   3.008   5.363  0.0345  0.3482  0.2749
  772MOL0     H 4192   0.604   3.057   5.429  0.5313 -0.0990 -2.1041
  772MOL0     H 4193   0.490   3.013   5.555  3.2279  0.6216  0.9923
  772MOL0     H 4194   0.511   2.866   5.290  0.2151  2.3591  0.2841
  772MOL0     H 4195   0.432   2.815   5.436 -1.2611  0.0621 -1.9713
  772MOL0     H 4196   0.638   2.691   5.420 -3.8318 -0.1593  1.2125
  772MOL0     H 4197   0.727   2.853   5.402 -1.2978 -0.6085 -1.8584
  772MOL0     H 4198   0.554   2.746   5.651  1.0711 -3.2379 -1.5102
  772MOL0     H 4199   0.646   2.894   5.649 -1.3866 -0.0301  1.8230
  772MOL0     H 4200   0.738   2.616   5.652 -0.3530 -0.6799  3.2012
  772MOL0     H 4201   0.776   2.743   5.769  0.2957  1.5867 -0.7298
  772MOL0     H 4202   0.383   3.545   5.719 -2.6929  1.3688 -1.2163
  772MOL0     H 4203   0.413   3.606   5.970  2.5649  0.0780  2.1496
  772MOL0     H 4204   0.347   3.654   6.287 -1.9903 -1.4155  0.1824
  772MOL0     H 4205   0.460   3.817   6.453  0.3187  0.0950  1.0002
  772MOL0     H 4206   1.265   3.741   7.330  2.5884  0.2823 -1.5622
  772MOL0     H 4207   1.259   3.552   7.509 -0.0890 -1.3240 -0.9277
  772MOL0     H 4208   1.004   3.513   7.948  0.4855 -0.5206 -0.1662
  772MOL0     H 4209   0.987   3.326   8.103  1.4132 -2.5913 -1.3939
  772MOL0     H 4210   1.225   3.385   8.336 -0.8076 -1.6055 -0.2660
  772MOL0     H 4211   1.102   3.278   8.378  0.3944 -0.1682  1.7135
  772MOL0     H 4212   1.402   3.222   8.416 -0.2448 -1.3546 -1.1791
  772MOL0     H 4213   1.263   3.136   8.489  1.2553 -0.3570 -0.9950
  772MOL0     H 4214   1.278   3.436   8.543  0.0734 -0.6568 -1.2343
  772MOL0     H 4215   1.421   3.356   8.609 -1.5455 -1.6063  3.3536
  772MOL0     H 4216   1.281   3.356   8.794  1.5489 -2.0241  0.2521
  772MOL0     H 4217   1.284   3.195   8.733 -1.3298 -0.2157 -2.3810
  772MOL0     H 4218   0.889   3.258   8.615 -2.0073 -0.5657  2.5080
  772MOL0     H 4219   1.411   3.260   8.083 -2.3401 -1.4554  2.7121
  772MOL0     H 4220   1.432   3.430   7.917 -0.9395 -0.7329 -2.9161
  773MOL0     O 4221   8.959   9.300   5.160 -0.1989  0.3918 -0.5143
  773MOL0     C 4222   9.072   9.342   5.153  0.4505  0.4224 -0.4595
  773MOL0     O 4223   9.117   9.469   5.173 -0.3106 -0.1018 -0.2297
  773MOL0     C 4224   9.030   9.563   5.152 -0.3501 -0.4436 -0.1721
  773MOL0     C 4225   9.004   9.660   5.256 -0.1540  0.2969 -0.4159
  773MOL0     C 4226   8.909   9.754   5.235  0.5813 -0.4526  0.4429
  773MOL0     C 4227   8.849   9.763   5.106  0.6753 -0.5984  0.5789
  773MOL0     O 4228   8.762   9.859   5.078  0.0753  0.2778 -0.1090
  773MOL0     C 4229   8.768   9.993   5.145 -0.1031 -0.3882  0.3885
  773MOL0     C 4230   8.640  10.069   5.084  1.1536  1.1185  2.1994
  773MOL0     C 4231   8.689  10.142   4.968  0.3903 -0.0953 -0.1448
  773MOL0     C 4232   8.758  10.273   5.007 -0.1737  0.8392  0.5968
  773MOL0     C 4233   8.796  10.364   4.884  1.0815  0.0525 -0.3404
  773MOL0     C 4234   8.676  10.431   4.816 -1.0577 -0.6535  0.3618
  773MOL0     C 4235   8.716  10.551   4.732 -0.1699 -0.5697 -0.0854
  773MOL0     C 4236   8.601  10.605   4.640 -0.0548 -0.5655 -0.2801
  773MOL0     N 4237   8.500  10.663   4.731 -1.2076  0.4695  0.5882
  773MOL0     C 4238   8.373  10.611   4.762 -0.6144  0.0571  0.4530
  773MOL0     C 4239   8.310  10.717   4.826 -0.7722  0.1337 -0.2815
  773MOL0     C 4240   8.164  10.703   4.867 -0.0937 -0.0751  0.0467
  773MOL0     C 4241   8.160  10.604   4.989  0.6127  0.1514 -1.4717
  773MOL0     C 4242   8.020  10.563   5.035 -0.3243 -0.2249 -0.2248
  773MOL0     C 4243   7.952  10.681   5.102 -0.4741 -0.0737  0.7441
  773MOL0     O 4244   7.838  10.618   5.166  0.0951  0.0855 -0.1088
  773MOL0     C 4245   7.755  10.701   5.243 -0.8749 -0.1369 -0.1925
  773MOL0     C 4246   7.673  10.642   5.333  0.3306  0.4584 -0.6531
  773MOL0     C 4247   7.575  10.703   5.403  0.2484 -0.3714  0.0346
  773MOL0     C 4248   7.474  10.620   5.476 -0.5596 -0.0401  0.1135
  773MOL0     C 4249   7.558  10.844   5.394 -1.4162  0.3140  0.6722
  773MOL0     C 4250   7.456  10.926   5.462  0.5170 -0.2309  0.6867
  773MOL0     O 4251   7.374  10.876   5.556  0.4637  0.6529  0.1476
  773MOL0     C 4252   7.323  10.963   5.647  0.7357 -0.0522 -0.1451
  773MOL0     C 4253   7.213  11.050   5.607 -0.6426  0.0251  0.2591
  773MOL0     C 4254   7.160  11.133   5.709 -0.0895  1.0282 -0.3727
  773MOL0     C 4255   7.216  11.137   5.840  0.1197  0.1631  0.4419
  773MOL0     O 4256   7.152  11.225   5.919  0.1667 -1.1385 -0.0391
  773MOL0     C 4257   7.161  11.215   6.058 -0.0158 -0.0988 -1.4367
  773MOL0     C 4258   7.107  11.349   6.122 -0.4313  0.6607  0.0633
  773MOL0     C 4259   7.097  11.348   6.277  0.2157  0.9735 -1.1211
  773MOL0     C 4260   7.240  11.347   6.326 -0.3766 -0.0107  0.0836
  773MOL0     C 4261   7.257  11.402   6.474 -0.6396  0.2642  1.3789
  773MOL0     C 4262   7.183  11.324   6.584  0.2048 -1.2835 -0.2163
  773MOL0     C 4263   7.243  11.327   6.722  0.2163  0.0709  0.0152
  773MOL0     C 4264   7.218  11.462   6.797  0.3132  0.9464  0.4886
  773MOL0    Cl 4265   7.043  11.494   6.798 -0.0798 -0.0738  0.2067
  773MOL0     C 4266   7.337  11.063   5.876  0.4278  0.4786 -0.6749
  773MOL0     C 4267   7.378  10.973   5.779  0.8931  0.4242  0.3987
  773MOL0     O 4268   7.449  11.047   5.425 -0.3164  0.8208  0.6248
  773MOL0     C 4269   7.649  10.910   5.297 -0.2334  0.1801  0.1986
  773MOL0     C 4270   7.747  10.841   5.227 -0.1928 -0.0296 -0.2586
  773MOL0     N 4271   8.402  10.818   4.850  0.4285  0.6050 -0.9714
  773MOL0     N 4272   8.508  10.793   4.784  0.2373  0.5329 -0.0802
  773MOL0     C 4273   8.879   9.689   4.994 -0.7122 -0.6808 -0.0689
  773MOL0     C 4274   8.972   9.580   5.020  0.2672  1.3945 -0.1589
  773MOL0     C 4275   9.176   9.239   5.148  0.0943 -0.1603  0.1401
  773MOL0     C 4276   9.150   9.106   5.188  0.0762 -0.1901 -0.2683
  773MOL0     C 4277   9.245   9.012   5.174  0.7126 -0.2247 -0.9601
  773MOL0     C 4278   9.376   9.043   5.149  0.2480 -0.9694 -0.5669
  773MOL0     O 4279   9.479   8.945   5.145 -0.2874 -0.0394  0.3787
  773MOL0     C 4280   9.446   8.805   5.157  0.4327  0.3290 -0.1390
  773MOL0     C 4281   9.379   8.753   5.031  0.1094 -0.0049 -0.0878
  773MOL0     C 4282   9.333   8.602   5.047 -1.1588 -0.2785 -0.5209
  773MOL0     C 4283   9.263   8.565   4.916  0.0904  0.2003 -0.2784
  773MOL0     C 4284   9.174   8.449   4.936 -0.1539  0.7705  0.9574
  773MOL0     C 4285   9.097   8.355   4.954 -0.0910  0.1832 -0.1409
  773MOL0     C 4286   9.411   9.175   5.120 -0.8908 -0.2341 -0.8656
  773MOL0     C 4287   9.312   9.276   5.125 -0.5099 -0.6326 -0.2536
  773MOL0     H 4288   9.056   9.652   5.351 -2.1879 -0.7191  0.6801
  773MOL0     H 4289   8.880   9.820   5.317 -1.2075 -3.1819  2.1827
  773MOL0     H 4290   8.756   9.979   5.253  3.5328 -0.5613  0.8940
  773MOL0     H 4291   8.859  10.051   5.131  1.2104 -2.5228 -0.3144
  773MOL0     H 4292   8.562   9.998   5.055  2.1914  1.5384 -2.5060
  773MOL0     H 4293   8.595  10.136   5.157 -1.9884 -1.8386  3.2072
  773MOL0     H 4294   8.767  10.084   4.918  0.9098  1.6431 -1.4334
  773MOL0     H 4295   8.609  10.163   4.897  0.3118 -0.7472 -0.2570
  773MOL0     H 4296   8.689  10.330   5.070 -1.6196 -1.4035  1.1493
  773MOL0     H 4297   8.853  10.257   5.059 -0.2811  2.3991  1.3457
  773MOL0     H 4298   8.842  10.452   4.930 -1.2530  0.7501  0.8201
  773MOL0     H 4299   8.865  10.316   4.814  2.5279  1.2499  0.1954
  773MOL0     H 4300   8.639  10.350   4.752  1.3490 -1.1924 -0.4532
  773MOL0     H 4301   8.594  10.449   4.886 -1.2100  1.8483 -0.3879
  773MOL0     H 4302   8.751  10.640   4.785 -0.5483  0.9526 -2.2811
  773MOL0     H 4303   8.795  10.513   4.667  0.2499  0.4734 -0.1980
  773MOL0     H 4304   8.563  10.528   4.572 -2.3313  2.1301 -2.3259
  773MOL0     H 4305   8.654  10.684   4.586 -2.3755  2.5540  1.6624
  773MOL0     H 4306   8.331  10.517   4.730  4.5988 -2.0032 -1.3179
  773MOL0     H 4307   8.125  10.802   4.894 -1.2723 -0.4316 -0.2918
  773MOL0     H 4308   8.119  10.683   4.769  0.6279  5.1768 -1.6457
  773MOL0     H 4309   8.237  10.625   5.064 -0.7047 -2.6603  0.8441
  773MOL0     H 4310   8.196  10.507   4.952  3.0536 -1.2937  3.7598
  773MOL0     H 4311   8.029  10.477   5.102 -1.8033 -0.6937 -0.5955
  773MOL0     H 4312   7.967  10.528   4.946 -3.2129  3.1450 -0.0208
  773MOL0     H 4313   7.912  10.747   5.024  0.5448  0.1918  0.4337
  773MOL0     H 4314   8.018  10.742   5.164  2.5115 -0.0318 -2.1863
  773MOL0     H 4315   7.688  10.535   5.341  1.0056  0.6678  1.4067
  773MOL0     H 4316   7.478  10.651   5.581  3.1777  0.7720 -0.1267
  773MOL0     H 4317   7.372  10.615   5.437 -0.3626 -1.4616 -0.2844
  773MOL0     H 4318   7.493  10.512   5.483  0.4671 -0.1972 -3.1348
  773MOL0     H 4319   7.155  11.062   5.516  2.2245  0.7560 -1.6080
  773MOL0     H 4320   7.080  11.205   5.695  0.3414  1.8403  1.1522
  773MOL0     H 4321   7.108  11.125   6.091  0.3740 -0.0252 -0.5827
  773MOL0     H 4322   7.262  11.195   6.096 -2.1082 -1.2947  4.5322
  773MOL0     H 4323   7.185  11.419   6.092 -0.4207 -0.4065 -2.6789
  773MOL0     H 4324   7.011  11.379   6.079 -0.5705  2.1473  1.3135
  773MOL0     H 4325   7.033  11.271   6.320 -0.1229  1.6407 -0.3990
  773MOL0     H 4326   7.055  11.445   6.306 -3.6447 -0.4220 -1.4711
  773MOL0     H 4327   7.287  11.249   6.335  0.8563  0.5285 -0.2531
  773MOL0     H 4328   7.304  11.400   6.254  0.1118 -1.4078 -0.5562
  773MOL0     H 4329   7.222  11.505   6.471  0.5253  0.6500 -0.4692
  773MOL0     H 4330   7.364  11.401   6.497 -0.2209 -0.4250 -0.4137
  773MOL0     H 4331   7.075  11.341   6.576  0.7287  3.2719 -0.2633
  773MOL0     H 4332   7.203  11.222   6.550 -0.8453 -2.0163  1.2466
  773MOL0     H 4333   7.350  11.306   6.716  0.0965 -2.4525  3.5265
  773MOL0     H 4334   7.200  11.240   6.773 -0.2666  0.8028  0.8942
  773MOL0     H 4335   7.263  11.541   6.736  0.0354 -0.4485 -1.6421
  773MOL0     H 4336   7.263  11.466   6.897 -0.2321 -0.3127  0.8084
  773MOL0     H 4337   7.383  11.061   5.975  0.4367 -2.8614 -0.6190
  773MOL0     H 4338   7.455  10.900   5.803  2.0433  1.6043  0.4283
  773MOL0     H 4339   7.648  11.018   5.295 -1.8288  0.2210  1.3271
  773MOL0     H 4340   7.803  10.891   5.149 -1.8986 -0.0828 -1.5771
  773MOL0     H 4341   8.833   9.711   4.898  0.6156 -0.5347 -0.6910
  773MOL0     H 4342   8.997   9.520   4.933  0.5454  2.9908 -1.2284
  773MOL0     H 4343   9.056   9.071   5.229 -0.8801  1.4067 -0.9915
  773MOL0     H 4344   9.205   8.912   5.188 -0.1772  0.3606  1.0326
  773MOL0     H 4345   9.532   8.743   5.182 -0.4507  0.6490  4.5047
  773MOL0     H 4346   9.386   8.790   5.247  2.2775  1.5301  1.3621
  773MOL0     H 4347   9.441   8.781   4.945 -0.4854  0.5479 -0.3493
  773MOL0     H 4348   9.282   8.803   5.031  0.7508  2.0414  5.8501
  773MOL0     H 4349   9.260   8.601   5.129  0.3328  0.5597  0.8769
  773MOL0     H 4350   9.420   8.539   5.065  0.8103  2.5344  0.4708
  773MOL0     H 4351   9.325   8.557   4.826  0.1120 -1.6318 -0.1332
  773MOL0     H 4352   9.206   8.656   4.894  3.7768  2.5229 -1.1810
  773MOL0     H 4353   9.040   8.269   4.981  0.4507  0.1785  1.0686
  773MOL0     H 4354   9.510   9.216   5.101 -2.1547  4.6908  1.3183
  773MOL0     H 4355   9.348   9.376   5.102  1.3507 -1.2795 -0.3137
  774MOL0     O 4356   9.295   5.052   1.867  0.1359  0.3648 -0.8535
  774MOL0     C 4357   9.252   5.143   1.936 -0.3787 -0.5398  0.9352
  774MOL0     O 4358   9.125   5.154   1.981  0.0218  0.3365  0.3295
  774MOL0     C 4359   9.023   5.063   1.948 -0.0320  1.1409 -0.3290
  774MOL0     C 4360   8.895   5.111   1.975 -0.2144 -0.7185 -0.2748
  774MOL0     C 4361   8.776   5.043   1.932 -0.6616 -0.6553 -0.1773
  774MOL0     C 4362   8.791   4.918   1.869  0.8793 -0.2140  0.8676
  774MOL0     O 4363   8.675   4.840   1.854 -0.1224  0.4084 -0.5080
  774MOL0     C 4364   8.565   4.836   1.936 -0.5533 -0.1479 -0.4503
  774MOL0     C 4365   8.571   4.711   2.033 -0.7651  0.0097 -0.7318
  774MOL0     C 4366   8.697   4.684   2.111 -0.0290 -0.4256 -0.2705
  774MOL0     C 4367   8.720   4.799   2.212 -0.9406 -0.5120 -0.4640
  774MOL0     C 4368   8.858   4.773   2.291  0.5764  1.1740 -0.4841
  774MOL0     C 4369   8.880   4.898   2.364  0.0991  0.3717 -0.0679
  774MOL0     C 4370   8.999   4.903   2.459  0.3004  0.2765  0.6047
  774MOL0     C 4371   8.973   4.865   2.605 -0.3359 -0.6632  0.2703
  774MOL0     N 4372   8.860   4.943   2.661 -0.4289  0.0822 -0.9164
  774MOL0     C 4373   8.732   4.896   2.666  0.6178 -0.9273 -1.3049
  774MOL0     C 4374   8.654   4.987   2.728 -0.3524 -0.5698  0.0009
  774MOL0     C 4375   8.503   4.979   2.741 -1.5981  0.2321 -0.1499
  774MOL0     C 4376   8.459   4.932   2.889 -0.7326 -0.2430 -0.2075
  774MOL0     C 4377   8.307   4.904   2.881 -0.1495 -0.6410 -0.7533
  774MOL0     C 4378   8.263   4.822   3.000 -0.7094 -0.0755  0.7356
  774MOL0     O 4379   8.125   4.781   2.996 -0.3525 -0.9872  0.8491
  774MOL0     C 4380   8.083   4.660   3.032  0.5254 -0.3573 -0.4177
  774MOL0     C 4381   7.951   4.655   3.072  0.1854 -0.6316  1.3330
  774MOL0     C 4382   7.900   4.541   3.116  0.5554 -0.3547  1.2691
  774MOL0     C 4383   7.764   4.540   3.177  0.9148  0.6933  0.2564
  774MOL0     C 4384   7.965   4.411   3.109 -0.3403  0.4578  0.3099
  774MOL0     C 4385   7.915   4.271   3.128  0.9171  1.1239 -0.2150
  774MOL0     O 4386   7.786   4.250   3.148 -0.2536  0.2660  0.7799
  774MOL0     C 4387   7.739   4.132   3.198  0.7460  0.2794 -0.9975
  774MOL0     C 4388   7.799   4.040   3.271 -0.2429  0.3388  0.0955
  774MOL0     C 4389   7.730   3.926   3.314  0.5860  0.4054 -0.2758
  774MOL0     C 4390   7.594   3.908   3.302 -0.6048 -1.0023  0.2057
  774MOL0     O 4391   7.533   3.800   3.355 -0.6767  0.2347 -0.0802
  774MOL0     C 4392   7.396   3.804   3.379  0.1039 -0.2601  0.5741
  774MOL0     C 4393   7.370   3.895   3.500 -0.5410 -0.7318 -1.1775
  774MOL0     C 4394   7.222   3.934   3.512 -0.1370  0.1451  0.7301
  774MOL0     C 4395   7.193   4.031   3.635  0.1620  0.1156  1.2774
  774MOL0     C 4396   7.043   4.025   3.687 -0.5491 -1.2280  0.9081
  774MOL0     C 4397   7.013   3.911   3.768 -0.6445  0.2001  1.0280
  774MOL0     C 4398   6.880   3.932   3.847  0.3048 -0.1594 -0.5449
  774MOL0     C 4399   6.810   3.809   3.894 -1.1129 -0.2497  1.1680
  774MOL0    Cl 4400   6.701   3.742   3.775 -0.3062 -0.0253 -0.4262
  774MOL0     C 4401   7.529   4.006   3.223 -0.6279 -0.7044 -0.1896
  774MOL0     C 4402   7.609   4.110   3.167 -0.3224  0.5505 -0.5455
  774MOL0     O 4403   8.001   4.178   3.119 -0.2710 -0.2316  0.2273
  774MOL0     C 4404   8.107   4.425   3.083 -0.7085  0.1763 -0.1280
  774MOL0     C 4405   8.167   4.549   3.048  0.0595  1.1752 -0.8576
  774MOL0     N 4406   8.732   5.098   2.768  0.3368  0.8074 -0.5262
  774MOL0     N 4407   8.847   5.075   2.711 -0.0426  0.7969 -0.1289
  774MOL0     C 4408   8.921   4.873   1.830 -0.0368  0.1444 -1.0375
  774MOL0     C 4409   9.037   4.940   1.886  0.4141  0.3226  0.7269
  774MOL0     C 4410   9.345   5.253   1.958  0.1037 -0.4396 -0.5119
  774MOL0     C 4411   9.464   5.253   1.880  0.2136 -1.2150  0.4398
  774MOL0     C 4412   9.558   5.352   1.901 -0.4379 -0.6483  0.0084
  774MOL0     C 4413   9.559   5.442   2.002 -0.5328 -0.4808 -0.7008
  774MOL0     O 4414   9.662   5.536   2.015 -0.0323  0.2151  0.6721
  774MOL0     C 4415   9.693   5.616   2.128  0.1049 -1.2300 -0.7610
  774MOL0     C 4416   9.825   5.679   2.102  0.2766 -0.2431  0.5077
  774MOL0     C 4417   9.802   5.792   2.004  0.5201  0.5798  0.0542
  774MOL0     C 4418   9.930   5.853   1.944  0.0905  0.4771  0.5501
  774MOL0     C 4419   9.901   5.975   1.869 -0.7928  0.4658 -0.8040
  774MOL0     C 4420   9.882   6.074   1.807  0.1075 -1.3035  0.1777
  774MOL0     C 4421   9.453   5.437   2.088  0.0725  0.3950  0.4373
  774MOL0     C 4422   9.335   5.352   2.065 -0.0436 -0.3245  0.7083
  774MOL0     H 4423   8.889   5.213   2.012  0.0388 -0.9458  0.4001
  774MOL0     H 4424   8.675   5.084   1.932 -1.0792 -1.4227 -3.1691
  774MOL0     H 4425   8.565   4.927   1.996  0.6771 -0.5349  0.1807
  774MOL0     H 4426   8.473   4.821   1.879  1.1273  1.2846 -3.8370
  774MOL0     H 4427   8.489   4.728   2.104  1.3916 -0.0845  1.9774
  774MOL0     H 4428   8.549   4.622   1.975 -1.6966 -0.8767  0.9050
  774MOL0     H 4429   8.685   4.586   2.157 -2.0061 -0.1642 -0.1532
  774MOL0     H 4430   8.782   4.676   2.042  1.7021 -1.9152  1.9088
  774MOL0     H 4431   8.735   4.883   2.144  0.4595 -1.9399 -2.0399
  774MOL0     H 4432   8.645   4.820   2.288  2.2904 -2.2439  3.6130
  774MOL0     H 4433   8.855   4.682   2.351  0.6099 -0.5619 -2.9588
  774MOL0     H 4434   8.936   4.757   2.217  0.8797 -3.4141  0.5299
  774MOL0     H 4435   8.905   4.982   2.299  2.7232  0.4800  0.9381
  774MOL0     H 4436   8.793   4.926   2.424 -0.0005  0.9573 -0.4784
  774MOL0     H 4437   9.076   4.841   2.412 -0.0016 -1.1822  1.9438
  774MOL0     H 4438   9.033   5.006   2.465 -0.1661  0.4844 -0.1388
  774MOL0     H 4439   9.063   4.876   2.667  0.1701 -0.7216 -0.4370
  774MOL0     H 4440   8.946   4.759   2.614  4.0181 -1.9730  0.4779
  774MOL0     H 4441   8.694   4.800   2.632 -1.3298 -0.2343 -1.2293
  774MOL0     H 4442   8.469   5.081   2.720 -1.4903 -0.3774 -4.0337
  774MOL0     H 4443   8.452   4.915   2.668 -0.9392 -1.6906  1.0124
  774MOL0     H 4444   8.476   5.013   2.961 -0.4983  0.7354 -1.3366
  774MOL0     H 4445   8.513   4.844   2.926  0.3986  0.0545 -1.0885
  774MOL0     H 4446   8.277   4.854   2.788 -1.6999  0.3353 -0.8122
  774MOL0     H 4447   8.247   4.995   2.884 -2.2375 -1.9500  0.2667
  774MOL0     H 4448   8.273   4.888   3.087 -0.4469  0.2757  0.4421
  774MOL0     H 4449   8.330   4.737   3.019 -0.2702  0.0568 -0.1730
  774MOL0     H 4450   7.889   4.744   3.079  0.9775  0.1752 -0.8675
  774MOL0     H 4451   7.682   4.485   3.129  0.9955 -2.3493  3.2719
  774MOL0     H 4452   7.775   4.513   3.282  1.6991 -0.1776 -0.0380
  774MOL0     H 4453   7.732   4.645   3.174 -0.1668  0.3660 -0.7151
  774MOL0     H 4454   7.900   4.049   3.309  0.1826 -0.0862 -0.8918
  774MOL0     H 4455   7.768   3.852   3.384  1.0973  1.0278  0.1203
  774MOL0     H 4456   7.328   3.830   3.296  0.9657 -0.0351 -0.0777
  774MOL0     H 4457   7.366   3.703   3.407  0.9889 -1.0831 -1.2595
  774MOL0     H 4458   7.402   3.853   3.595  1.6741  0.3747 -1.3779
  774MOL0     H 4459   7.434   3.980   3.476  0.7938 -1.6941 -1.1253
  774MOL0     H 4460   7.172   3.842   3.544 -0.5040 -0.0681 -0.4192
  774MOL0     H 4461   7.177   3.982   3.425  1.1529 -1.2388 -0.7576
  774MOL0     H 4462   7.250   4.001   3.723  1.0253 -1.2782  0.3047
  774MOL0     H 4463   7.231   4.130   3.609  1.7796 -0.6517  0.5617
  774MOL0     H 4464   6.971   4.027   3.605  2.6217 -1.4274 -2.0998
  774MOL0     H 4465   7.033   4.116   3.747 -0.1355  1.8786 -3.2750
  774MOL0     H 4466   7.018   3.816   3.713 -4.4229  0.3572  0.1370
  774MOL0     H 4467   7.090   3.901   3.845 -0.2246 -1.1057  0.4629
  774MOL0     H 4468   6.801   3.985   3.795  0.7516 -0.7891 -1.9073
  774MOL0     H 4469   6.911   3.995   3.931 -2.4802  0.4249  0.1482
  774MOL0     H 4470   6.756   3.821   3.989  0.8776  3.2769  2.0133
  774MOL0     H 4471   6.885   3.733   3.918 -0.2819  0.0310 -0.4181
  774MOL0     H 4472   7.423   3.995   3.202 -0.2801 -1.1345 -1.8620
  774MOL0     H 4473   7.568   4.192   3.108 -0.3328 -0.6002 -2.1921
  774MOL0     H 4474   8.169   4.336   3.075 -2.6556 -1.2168 -0.3785
  774MOL0     H 4475   8.274   4.550   3.035  0.4818 -0.0543  1.8498
  774MOL0     H 4476   8.923   4.779   1.776 -1.8064  0.2396 -1.3363
  774MOL0     H 4477   9.132   4.894   1.861 -0.4029  0.4113 -3.2142
  774MOL0     H 4478   9.481   5.185   1.797  0.0589 -1.7224  0.8175
  774MOL0     H 4479   9.640   5.363   1.831  0.5006  0.9079  1.2592
  774MOL0     H 4480   9.611   5.684   2.154  0.0786 -1.1688 -1.0090
  774MOL0     H 4481   9.699   5.555   2.219 -1.5530 -1.0342 -0.4985
  774MOL0     H 4482   9.897   5.603   2.068  0.1872  0.2996 -0.9847
  774MOL0     H 4483   9.860   5.710   2.201 -0.5642 -2.2203  1.4604
  774MOL0     H 4484   9.761   5.868   2.071 -1.0146 -1.5086  1.6133
  774MOL0     H 4485   9.727   5.771   1.927  2.4643  0.0782 -1.8139
  774MOL0     H 4486   9.991   5.786   1.882 -0.6997 -0.4155  0.7130
  774MOL0     H 4487   9.989   5.899   2.023 -0.9027  1.2866  0.8441
  774MOL0     H 4488   9.866   6.171   1.763  1.2041 -1.0659  0.2822
  774MOL0     H 4489   9.434   5.523   2.152  2.1313  2.9100 -2.0525
  774MOL0     H 4490   9.261   5.350   2.144 -3.3048 -2.9428 -2.1156
  775MOL0     O 4491   6.137   2.930   2.226 -0.6019 -0.4498  0.3963
  775MOL0     C 4492   6.245   2.964   2.259 -0.0787 -0.9639 -0.5114
  775MOL0     O 4493   6.358   2.891   2.288 -0.2283 -0.4309 -0.3107
  775MOL0     C 4494   6.355   2.751   2.304  0.6341 -1.0709  1.0029
  775MOL0     C 4495   6.495   2.711   2.324 -0.8025 -0.4845  0.4081
  775MOL0     C 4496   6.523   2.576   2.326  0.4110 -0.0261 -0.5439
  775MOL0     C 4497   6.427   2.471   2.318 -0.1382  0.0828 -0.5710
  775MOL0     O 4498   6.448   2.331   2.308  0.0927 -0.2455  0.0062
  775MOL0     C 4499   6.585   2.284   2.304 -0.2587 -0.7076  0.8614
  775MOL0     C 4500   6.585   2.136   2.276 -0.3274 -0.4822 -0.4916
  775MOL0     C 4501   6.514   2.061   2.391  0.6000  0.1092 -0.1767
  775MOL0     C 4502   6.561   1.918   2.401 -0.0331 -0.8986  0.1261
  775MOL0     C 4503   6.492   1.847   2.517 -1.2942  1.0534  0.6433
  775MOL0     C 4504   6.573   1.721   2.552 -0.5754  0.6769 -0.2491
  775MOL0     C 4505   6.488   1.618   2.631  0.5887  0.4537  0.1276
  775MOL0     C 4506   6.453   1.667   2.765  0.5411  0.3339  0.2351
  775MOL0     N 4507   6.572   1.657   2.850  0.9218 -0.1392  0.1905
  775MOL0     C 4508   6.643   1.755   2.909 -0.5124  0.4812 -0.8913
  775MOL0     C 4509   6.732   1.696   2.985 -0.1781 -0.5315 -0.1645
  775MOL0     C 4510   6.806   1.778   3.086 -0.8669  0.2167 -0.7962
  775MOL0     C 4511   6.879   1.891   3.021  0.1625 -0.2242  0.1976
  775MOL0     C 4512   6.989   1.854   2.916  0.4925  0.1528 -0.1931
  775MOL0     C 4513   7.038   1.983   2.846  0.6586 -0.1230  0.4259
  775MOL0     O 4514   7.108   2.070   2.939  0.5868 -0.3670 -0.6343
  775MOL0     C 4515   7.158   2.177   2.873  1.4738 -0.4717 -0.2696
  775MOL0     C 4516   7.130   2.292   2.933  0.0498 -0.0080  1.0555
  775MOL0     C 4517   7.182   2.417   2.882  0.1206  0.3010  0.0820
  775MOL0     C 4518   7.155   2.540   2.961 -0.0573 -0.4963 -0.0905
  775MOL0     C 4519   7.267   2.422   2.773  0.2829  0.1576  0.5194
  775MOL0     C 4520   7.334   2.548   2.722  0.0487 -0.2718 -0.2042
  775MOL0     O 4521   7.257   2.632   2.647 -0.2501  0.0232  0.0606
  775MOL0     C 4522   7.281   2.755   2.597  0.0102  0.3708 -0.0699
  775MOL0     C 4523   7.172   2.829   2.566 -0.1510 -1.0766  0.1781
  775MOL0     C 4524   7.190   2.961   2.518 -0.0220  0.1571  0.5907
  775MOL0     C 4525   7.312   3.010   2.488  0.2256  0.7789  0.1547
  775MOL0     O 4526   7.339   3.136   2.445  1.2049 -0.5247 -0.3323
  775MOL0     C 4527   7.229   3.230   2.415  0.8189 -0.1852  0.2638
  775MOL0     C 4528   7.298   3.352   2.366  0.6466 -0.5129 -0.3927
  775MOL0     C 4529   7.203   3.474   2.363 -0.4029  0.6226 -0.5865
  775MOL0     C 4530   7.068   3.462   2.288  0.0583  0.1177  0.1200
  775MOL0     C 4531   7.016   3.605   2.272 -0.4008 -0.8658  0.1763
  775MOL0     C 4532   6.863   3.620   2.231  0.5202 -0.9997 -0.2631
  775MOL0     C 4533   6.830   3.557   2.096 -0.4843  0.4529  0.5123
  775MOL0     C 4534   6.689   3.586   2.058  0.0735 -0.4357 -0.2513
  775MOL0    Cl 4535   6.554   3.566   2.171 -0.1195 -0.5737  0.2473
  775MOL0     C 4536   7.417   2.927   2.510  0.2702 -0.5011 -0.3279
  775MOL0     C 4537   7.408   2.805   2.579  0.9058  0.0871  0.7493
  775MOL0     O 4538   7.451   2.567   2.742 -0.3823 -0.2730  0.4252
  775MOL0     C 4539   7.295   2.295   2.710  0.5992  0.4934  0.0335
  775MOL0     C 4540   7.235   2.172   2.753 -0.0346  0.6227 -0.2149
  775MOL0     N 4541   6.727   1.561   2.978 -0.4605  0.6642 -0.6027
  775MOL0     N 4542   6.632   1.539   2.890  0.2989  0.2496  0.4230
  775MOL0     C 4543   6.295   2.518   2.302  0.2467  0.6782 -0.4651
  775MOL0     C 4544   6.260   2.648   2.300  0.3571  0.3008  0.2717
  775MOL0     C 4545   6.261   3.108   2.270 -0.3757 -0.2868  0.1101
  775MOL0     C 4546   6.303   3.181   2.386 -0.2382 -0.2747  0.6497
  775MOL0     C 4547   6.289   3.321   2.405 -0.8058 -0.6757  0.6592
  775MOL0     C 4548   6.236   3.399   2.301  0.6259 -0.4748  1.0737
  775MOL0     O 4549   6.232   3.532   2.335 -0.2974  0.6484  0.1543
  775MOL0     C 4550   6.142   3.612   2.270 -0.4521 -0.7201  0.9591
  775MOL0     C 4551   6.102   3.753   2.322  0.6513  0.1850 -0.5970
  775MOL0     C 4552   6.021   3.738   2.450  0.1305 -0.8892 -0.7537
  775MOL0     C 4553   6.007   3.871   2.528 -0.2025  1.4551 -0.1685
  775MOL0     C 4554   5.899   3.943   2.464  0.1938  0.1365  0.0585
  775MOL0     C 4555   5.824   3.999   2.387 -0.6101  0.1532 -0.2836
  775MOL0     C 4556   6.194   3.336   2.183 -0.1046 -0.0875 -0.2115
  775MOL0     C 4557   6.212   3.200   2.168 -0.6453 -0.5070  0.6136
  775MOL0     H 4558   6.576   2.783   2.332  1.0111 -2.4140  0.5765
  775MOL0     H 4559   6.631   2.564   2.337  0.3094 -1.0225 -0.5286
  775MOL0     H 4560   6.636   2.333   2.221 -3.9487 -1.2738 -1.9916
  775MOL0     H 4561   6.628   2.315   2.400 -0.5759 -1.7617  1.3526
  775MOL0     H 4562   6.548   2.112   2.176  0.0139 -0.6161 -0.5871
  775MOL0     H 4563   6.688   2.099   2.271 -1.3102 -3.3369 -1.3241
  775MOL0     H 4564   6.532   2.114   2.485 -0.2510  0.1080 -0.0062
  775MOL0     H 4565   6.409   2.056   2.360  0.7392  0.7792 -0.7875
  775MOL0     H 4566   6.542   1.867   2.306 -0.0019 -1.3471  0.3562
  775MOL0     H 4567   6.670   1.919   2.413  0.0237 -0.8750 -0.3656
  775MOL0     H 4568   6.473   1.911   2.604 -3.9495 -2.8130  3.2470
  775MOL0     H 4569   6.391   1.817   2.488 -0.9512  0.2257  0.2808
  775MOL0     H 4570   6.618   1.686   2.459 -0.3171  1.6591 -0.5135
  775MOL0     H 4571   6.667   1.740   2.604  0.4078 -0.2361 -1.6185
  775MOL0     H 4572   6.390   1.606   2.585 -0.1750 -0.8638  1.9962
  775MOL0     H 4573   6.543   1.523   2.636  0.0853  0.2200  1.4870
  775MOL0     H 4574   6.382   1.591   2.801 -0.7421  1.4291  0.0848
  775MOL0     H 4575   6.401   1.763   2.759  1.0263  0.6001  0.2593
  775MOL0     H 4576   6.630   1.862   2.898 -0.5301  0.6943  0.8335
  775MOL0     H 4577   6.739   1.818   3.163 -0.4150 -0.4924 -0.0134
  775MOL0     H 4578   6.874   1.727   3.154  0.5649  4.4680  1.2635
  775MOL0     H 4579   6.931   1.953   3.094 -2.8535  2.9507 -0.0767
  775MOL0     H 4580   6.811   1.966   2.980 -0.4216 -0.7937  0.0961
  775MOL0     H 4581   6.946   1.787   2.842 -1.3925  0.7507  0.3219
  775MOL0     H 4582   7.074   1.805   2.966  0.0430  1.7647  2.3424
  775MOL0     H 4583   6.949   2.032   2.807  2.4959  0.0789 -4.0832
  775MOL0     H 4584   7.106   1.948   2.767  2.5145  0.2321  1.7871
  775MOL0     H 4585   7.064   2.290   3.019 -2.2250 -1.9804 -0.6286
  775MOL0     H 4586   7.233   2.550   3.036 -0.3482 -2.2736  0.4948
  775MOL0     H 4587   7.137   2.629   2.899  3.2711 -0.6755 -1.5218
  775MOL0     H 4588   7.068   2.522   3.025  0.6316 -0.4320  0.8796
  775MOL0     H 4589   7.076   2.787   2.594 -0.6802 -1.0064 -1.4103
  775MOL0     H 4590   7.100   3.018   2.496  0.6268  1.1575  0.5184
  775MOL0     H 4591   7.157   3.193   2.342  2.6844 -0.1883 -1.6855
  775MOL0     H 4592   7.171   3.258   2.503 -2.2616 -1.3869 -1.2158
  775MOL0     H 4593   7.383   3.363   2.434 -0.2883  0.0348  0.7462
  775MOL0     H 4594   7.336   3.347   2.264  2.6308 -1.1699  0.3288
  775MOL0     H 4595   7.268   3.550   2.319  1.9540  0.3513  2.1053
  775MOL0     H 4596   7.187   3.513   2.464  0.1338 -1.8831  0.5559
  775MOL0     H 4597   7.085   3.412   2.192  3.6694  2.8148 -0.8688
  775MOL0     H 4598   7.000   3.403   2.350  1.2447 -0.0986  1.2719
  775MOL0     H 4599   7.083   3.659   2.205 -0.0730 -1.3922  0.0809
  775MOL0     H 4600   7.028   3.651   2.371  2.3243 -0.9272 -0.0501
  775MOL0     H 4601   6.807   3.570   2.311  0.0564  1.7105  1.2083
  775MOL0     H 4602   6.828   3.722   2.220  1.0895 -0.9914 -2.4912
  775MOL0     H 4603   6.870   3.456   2.100  0.0723  0.6766  0.6798
  775MOL0     H 4604   6.891   3.613   2.025  2.5667 -2.4194  0.6642
  775MOL0     H 4605   6.666   3.512   1.980 -1.4366  0.9209 -1.1705
  775MOL0     H 4606   6.688   3.687   2.016 -0.3551 -0.5634 -0.5565
  775MOL0     H 4607   7.512   2.978   2.500  0.5242 -0.6889  0.8782
  775MOL0     H 4608   7.504   2.758   2.596  1.6048  1.5351  1.0075
  775MOL0     H 4609   7.355   2.286   2.620 -0.1074  0.9347 -0.4922
  775MOL0     H 4610   7.285   2.079   2.731 -0.2425 -0.1309  2.1538
  775MOL0     H 4611   6.216   2.452   2.267  0.4191  0.9866 -1.4787
  775MOL0     H 4612   6.158   2.664   2.265 -2.0295 -2.4993  4.9694
  775MOL0     H 4613   6.333   3.113   2.466 -3.2790 -1.5659  0.8288
  775MOL0     H 4614   6.330   3.358   2.498 -1.7972  1.2091  0.3789
  775MOL0     H 4615   6.188   3.638   2.175 -1.1538 -0.9742  0.5400
  775MOL0     H 4616   6.058   3.548   2.240  0.3901 -0.9685 -0.9892
  775MOL0     H 4617   6.057   3.816   2.245  0.5938  0.2697 -0.4951
  775MOL0     H 4618   6.193   3.806   2.351  0.6400 -0.1639  0.1092
  775MOL0     H 4619   6.076   3.670   2.516  2.4454  0.6056 -1.0434
  775MOL0     H 4620   5.917   3.705   2.440 -0.9425  1.8158  0.5495
  775MOL0     H 4621   6.101   3.927   2.517  1.1815 -0.8999 -1.3076
  775MOL0     H 4622   5.983   3.840   2.630 -4.0686  0.3223 -1.2601
  775MOL0     H 4623   5.771   4.054   2.313  0.4912  1.9694  0.2101
  775MOL0     H 4624   6.148   3.393   2.103 -1.1899 -0.3276  0.2169
  775MOL0     H 4625   6.163   3.146   2.087 -1.8840 -2.0948  2.3185
  776MOL0     O 4626   5.224   2.350   6.847 -0.0837  0.3905 -0.0965
  776MOL0     C 4627   5.288   2.438   6.898 -0.1489  0.0200  0.4101
  776MOL0     O 4628   5.309   2.445   7.028 -1.2341  0.2183  0.3409
  776MOL0     C 4629   5.301   2.328   7.105  0.8215  0.5602 -0.2125
  776MOL0     C 4630   5.326   2.192   7.062 -0.2345  0.2548  0.8810
  776MOL0     C 4631   5.320   2.078   7.147 -1.0480  0.1302 -0.6681
  776MOL0     C 4632   5.302   2.104   7.286  0.0515  0.1645 -0.6849
  776MOL0     O 4633   5.300   2.002   7.377  0.5763  0.2115  0.0658
  776MOL0     C 4634   5.267   1.866   7.336 -0.4330  0.5519  0.4952
  776MOL0     C 4635   5.215   1.791   7.460  0.5627  0.2306 -0.4781
  776MOL0     C 4636   5.217   1.641   7.444 -0.9427 -0.0700 -0.3727
  776MOL0     C 4637   5.138   1.590   7.571 -0.2071 -0.6786  0.6009
  776MOL0     C 4638   5.152   1.434   7.580 -0.1353  0.4917  0.9120
  776MOL0     C 4639   5.090   1.372   7.698  0.0643  0.3163 -0.2737
  776MOL0     C 4640   5.181   1.399   7.823  0.2096  0.4131  1.0127
  776MOL0     C 4641   5.101   1.336   7.940 -0.6316  0.8684  1.0944
  776MOL0     N 4642   5.000   1.413   8.003 -0.0889  0.3401 -0.0681
  776MOL0     C 4643   5.019   1.462   8.132 -1.3675 -0.5482  0.7294
  776MOL0     C 4644   4.904   1.524   8.159  0.3076  0.1213  0.1642
  776MOL0     C 4645   4.874   1.570   8.301  0.7168 -0.3719 -0.4948
  776MOL0     C 4646   4.982   1.644   8.375 -0.8305  1.5227  0.4234
  776MOL0     C 4647   4.938   1.716   8.504 -0.9307  0.1386  0.3069
  776MOL0     C 4648   4.853   1.842   8.483 -0.3755 -0.0701  0.2171
  776MOL0     O 4649   4.914   1.941   8.404 -0.7614  0.7854  0.7654
  776MOL0     C 4650   5.017   2.011   8.458  0.7362 -0.2619  0.4320
  776MOL0     C 4651   5.056   2.035   8.594  0.4096  0.4937 -0.6561
  776MOL0     C 4652   5.163   2.104   8.625 -0.2963  0.4211  0.2390
  776MOL0     C 4653   5.208   2.097   8.769  0.1102  1.2923 -0.0610
  776MOL0     C 4654   5.237   2.177   8.523  0.1643 -0.0783 -0.1293
  776MOL0     C 4655   5.346   2.271   8.549 -0.1496 -0.4691 -0.8597
  776MOL0     O 4656   5.423   2.293   8.439  0.7230  0.0760  0.3861
  776MOL0     C 4657   5.541   2.368   8.444  0.2674  0.3101  0.6274
  776MOL0     C 4658   5.554   2.469   8.347  0.1379  0.7403 -0.1539
  776MOL0     C 4659   5.671   2.536   8.346  0.4060  0.5378  0.5834
  776MOL0     C 4660   5.774   2.522   8.445  0.4363 -0.2701  0.6061
  776MOL0     O 4661   5.880   2.604   8.441  0.1000  0.0639 -0.1637
  776MOL0     C 4662   6.016   2.537   8.433  0.9370 -0.2437  0.9428
  776MOL0     C 4663   6.118   2.637   8.379  0.3913 -0.1611  0.3133
  776MOL0     C 4664   6.087   2.680   8.232 -0.0263 -0.1538  0.7166
  776MOL0     C 4665   6.152   2.817   8.217  0.1051 -0.2950  0.2135
  776MOL0     C 4666   6.171   2.856   8.061 -0.0412  0.4179 -0.6278
  776MOL0     C 4667   6.297   2.921   8.028 -0.2225 -1.0166 -0.6552
  776MOL0     C 4668   6.327   2.940   7.875  0.3538 -0.2514 -0.5900
  776MOL0     C 4669   6.454   3.023   7.876 -1.1877 -0.0696 -0.6468
  776MOL0    Cl 4670   6.468   3.114   7.721  0.3110 -0.6473  0.0116
  776MOL0     C 4671   5.767   2.408   8.531  0.0602 -0.2006 -0.2014
  776MOL0     C 4672   5.639   2.343   8.536 -0.2945  0.2657  0.5088
  776MOL0     O 4673   5.347   2.341   8.661  0.7226  0.2310  0.1672
  776MOL0     C 4674   5.200   2.154   8.387  0.1942 -0.3619 -0.0323
  776MOL0     C 4675   5.093   2.077   8.366 -0.0095  0.8273 -0.2264
  776MOL0     N 4676   4.821   1.536   8.043  0.0298 -0.7531 -0.8710
  776MOL0     N 4677   4.888   1.459   7.954  0.3430 -0.5077  0.1261
  776MOL0     C 4678   5.297   2.237   7.330  0.3765 -0.6645  0.6176
  776MOL0     C 4679   5.289   2.345   7.246 -0.9927  0.2697 -0.3253
  776MOL0     C 4680   5.338   2.541   6.806 -0.4477 -0.0568 -0.0946
  776MOL0     C 4681   5.249   2.572   6.699  0.3301  0.0920  0.5257
  776MOL0     C 4682   5.283   2.661   6.594 -0.5004  0.2102  0.0904
  776MOL0     C 4683   5.400   2.734   6.607  0.5321 -0.3706  0.5770
  776MOL0     O 4684   5.444   2.834   6.518  0.3498  0.2007 -0.7329
  776MOL0     C 4685   5.366   2.875   6.411  0.5402 -0.4836 -0.1117
  776MOL0     C 4686   5.243   2.965   6.441  0.2796 -0.4812 -0.4408
  776MOL0     C 4687   5.287   3.107   6.471  0.5464  0.0857  0.1315
  776MOL0     C 4688   5.202   3.210   6.408  0.6145  0.5667 -0.2206
  776MOL0     C 4689   5.064   3.204   6.463 -0.2927  0.0253 -0.3319
  776MOL0     C 4690   4.950   3.194   6.502 -0.3890  0.7276 -1.0714
  776MOL0     C 4691   5.480   2.719   6.720 -0.2020 -0.1638 -0.2704
  776MOL0     C 4692   5.446   2.620   6.815 -0.1130 -0.3726 -1.3713
  776MOL0     H 4693   5.345   2.174   6.956  0.4249 -4.3225  1.5618
  776MOL0     H 4694   5.345   1.980   7.107  2.8762  1.2602 -1.4483
  776MOL0     H 4695   5.206   1.867   7.245  0.3646  1.7912 -0.0527
  776MOL0     H 4696   5.363   1.824   7.306 -0.1686  0.9750  0.7325
  776MOL0     H 4697   5.260   1.823   7.555 -1.1517 -3.0084  1.5931
  776MOL0     H 4698   5.110   1.822   7.459 -0.8481 -3.8038 -3.6845
  776MOL0     H 4699   5.166   1.622   7.349 -2.4387  1.0920  0.1551
  776MOL0     H 4700   5.320   1.606   7.440  0.0694  2.3369  1.9722
  776MOL0     H 4701   5.187   1.633   7.659  1.6921  0.7615 -1.0806
  776MOL0     H 4702   5.037   1.629   7.556 -0.2852 -1.1453 -0.1363
  776MOL0     H 4703   5.099   1.389   7.496  2.9136 -2.1059  0.1786
  776MOL0     H 4704   5.257   1.404   7.574 -0.1132  0.7803 -1.3503
  776MOL0     H 4705   4.985   1.399   7.714 -0.2241 -0.8237 -0.1864
  776MOL0     H 4706   5.085   1.266   7.672 -1.6993  0.1583  0.4961
  776MOL0     H 4707   5.276   1.346   7.811 -0.4520 -0.7930  0.9319
  776MOL0     H 4708   5.200   1.505   7.842  2.8565  0.6088 -1.9228
  776MOL0     H 4709   5.174   1.309   8.017  1.8061  2.1492 -0.6298
  776MOL0     H 4710   5.039   1.252   7.909 -1.3037  1.6945  0.1158
  776MOL0     H 4711   5.101   1.437   8.199  2.0202  1.9159 -2.0668
  776MOL0     H 4712   4.778   1.622   8.292 -1.3667 -3.7516  0.3713
  776MOL0     H 4713   4.852   1.484   8.364 -0.5727  1.3564  1.5382
  776MOL0     H 4714   5.035   1.714   8.309 -0.3116  1.6170  0.9256
  776MOL0     H 4715   5.046   1.558   8.398 -1.1298  0.6187 -1.8372
  776MOL0     H 4716   5.016   1.744   8.575 -0.6475  2.6401 -0.8655
  776MOL0     H 4717   4.869   1.653   8.561 -1.0733 -0.3471 -0.3920
  776MOL0     H 4718   4.824   1.889   8.577 -0.8008  0.6079 -0.2482
  776MOL0     H 4719   4.760   1.822   8.430  0.2283  1.5364 -1.5838
  776MOL0     H 4720   5.000   1.993   8.677  1.3731  1.2847  0.4233
  776MOL0     H 4721   5.219   2.198   8.808  5.6460  1.7171 -1.8154
  776MOL0     H 4722   5.154   2.027   8.834  0.7984 -2.0971 -2.8080
  776MOL0     H 4723   5.309   2.054   8.775  0.9644  2.9229 -1.7780
  776MOL0     H 4724   5.487   2.488   8.263  0.3610 -1.4168 -0.8692
  776MOL0     H 4725   5.675   2.617   8.274  1.3261 -0.8250 -0.9676
  776MOL0     H 4726   6.041   2.508   8.536 -0.0800 -3.0447  0.5075
  776MOL0     H 4727   6.029   2.447   8.372  3.4689  0.3552  0.4663
  776MOL0     H 4728   6.131   2.718   8.452 -1.5163  0.8539 -0.4148
  776MOL0     H 4729   6.217   2.592   8.370  0.1288 -0.3655 -2.5737
  776MOL0     H 4730   5.978   2.687   8.223 -0.0514  1.1628  1.6348
  776MOL0     H 4731   6.140   2.610   8.167  0.7670 -0.1016  1.2948
  776MOL0     H 4732   6.093   2.899   8.260  0.5417  0.5845 -0.7963
  776MOL0     H 4733   6.249   2.817   8.268  0.7841 -1.9244 -1.0087
  776MOL0     H 4734   6.086   2.918   8.031  1.0538  1.3597 -1.9197
  776MOL0     H 4735   6.162   2.766   7.999  0.3358 -1.4389  1.8612
  776MOL0     H 4736   6.298   3.012   8.089 -1.1037 -0.9631 -0.7050
  776MOL0     H 4737   6.374   2.857   8.071 -0.4187  0.2071  1.6777
  776MOL0     H 4738   6.240   2.996   7.839  0.0095 -0.9107 -0.8044
  776MOL0     H 4739   6.345   2.854   7.810  1.4588 -0.1090 -0.4889
  776MOL0     H 4740   6.544   2.967   7.903  0.0020  2.0702  0.0267
  776MOL0     H 4741   6.446   3.093   7.959 -1.7103 -2.6556  1.6080
  776MOL0     H 4742   5.851   2.383   8.595 -1.1217  0.7501  1.8213
  776MOL0     H 4743   5.625   2.260   8.605  1.9412 -0.6821 -0.0719
  776MOL0     H 4744   5.261   2.207   8.314  1.2380 -1.8944 -0.3329
  776MOL0     H 4745   5.064   2.060   8.262 -3.4650  2.2800  0.3544
  776MOL0     H 4746   5.293   2.237   7.439  1.6957 -2.5328  0.7138
  776MOL0     H 4747   5.267   2.444   7.284 -2.1972 -0.6310  1.4638
  776MOL0     H 4748   5.163   2.506   6.692  1.7953 -1.8575  0.1656
  776MOL0     H 4749   5.212   2.696   6.520  0.3616 -1.4748 -1.5831
  776MOL0     H 4750   5.425   2.920   6.331  1.8016  0.5257  1.3318
  776MOL0     H 4751   5.325   2.783   6.370 -1.9825  0.6677 -0.3594
  776MOL0     H 4752   5.183   2.922   6.522  0.0960 -1.8959 -1.2963
  776MOL0     H 4753   5.179   2.967   6.352  1.1303  0.8112 -1.0677
  776MOL0     H 4754   5.388   3.128   6.435  1.9326 -4.0451  1.0183
  776MOL0     H 4755   5.283   3.132   6.578 -0.1150 -0.1827  0.1756
  776MOL0     H 4756   5.203   3.180   6.303 -1.4049  1.5005 -0.5454
  776MOL0     H 4757   5.257   3.304   6.419  1.1069  0.4702 -1.6569
  776MOL0     H 4758   4.866   3.180   6.566  0.1122  0.2838 -0.5074
  776MOL0     H 4759   5.555   2.795   6.743 -1.2995  0.1074  3.0592
  776MOL0     H 4760   5.510   2.612   6.902  0.9389  1.4665 -1.9191
  777MOL0     O 4761   7.829   8.151   0.867  0.4869 -0.3497  0.0550
  777MOL0     C 4762   7.908   8.142   0.775  0.6087  0.9363  0.4383
  777MOL0     O 4763   7.886   8.058   0.668  0.9625 -0.1187  0.3347
  777MOL0     C 4764   7.752   8.019   0.638 -0.2131  0.8509  1.2988
  777MOL0     C 4765   7.677   7.936   0.716  0.6145 -0.0224  0.3903
  777MOL0     C 4766   7.547   7.906   0.686  0.9641 -0.3481 -0.1736
  777MOL0     C 4767   7.483   7.974   0.579  0.5485  0.3835 -0.4167
  777MOL0     O 4768   7.341   7.951   0.576  0.0732 -0.0850 -0.0148
  777MOL0     C 4769   7.267   8.081   0.574 -0.7131 -0.2104  0.2233
  777MOL0     C 4770   7.123   8.044   0.563 -0.1101 -0.5267  0.2638
  777MOL0     C 4771   7.083   7.943   0.461 -0.3499 -0.1371  0.5557
  777MOL0     C 4772   6.936   7.951   0.426 -0.4978  0.3813  0.6158
  777MOL0     C 4773   6.887   7.823   0.367 -0.2265  0.1048  1.0434
  777MOL0     C 4774   6.748   7.825   0.306 -0.0001 -0.2061  0.7041
  777MOL0     C 4775   6.657   7.790   0.412  0.2957 -0.0289  0.1957
  777MOL0     C 4776   6.508   7.805   0.365 -0.3263  0.0876  0.2402
  777MOL0     N 4777   6.424   7.841   0.481  0.5157 -0.4558  0.0189
  777MOL0     C 4778   6.369   7.754   0.567 -1.3852 -0.4476 -0.2288
  777MOL0     C 4779   6.322   7.823   0.669  0.2943 -0.6673 -0.3639
  777MOL0     C 4780   6.264   7.773   0.793  0.7780 -0.2697 -0.3854
  777MOL0     C 4781   6.355   7.726   0.908  0.1232 -0.6362 -0.2210
  777MOL0     C 4782   6.464   7.824   0.933 -0.6106 -1.4289 -0.4240
  777MOL0     C 4783   6.528   7.804   1.068  0.2515  0.6121 -0.4391
  777MOL0     O 4784   6.605   7.920   1.089  0.1844  0.1530 -0.1695
  777MOL0     C 4785   6.739   7.917   1.106  0.3167 -0.5876 -0.7181
  777MOL0     C 4786   6.785   8.045   1.132  0.2468 -0.3779  0.0498
  777MOL0     C 4787   6.922   8.062   1.144 -0.4770 -0.1119  0.6734
  777MOL0     C 4788   6.959   8.202   1.181 -0.3191 -0.6372  0.0244
  777MOL0     C 4789   7.017   7.959   1.127 -0.0046  0.7634 -0.6324
  777MOL0     C 4790   7.165   7.971   1.133  0.1307 -0.4509  0.7165
  777MOL0     O 4791   7.235   7.859   1.080  0.4286 -0.5699 -0.2787
  777MOL0     C 4792   7.370   7.859   1.095  0.6571  0.5314  0.2198
  777MOL0     C 4793   7.454   7.960   1.024  0.6735  0.1112 -0.1106
  777MOL0     C 4794   7.596   7.955   1.034 -0.1554 -0.9062 -1.0476
  777MOL0     C 4795   7.655   7.855   1.118 -0.1653  0.8696 -0.0270
  777MOL0     O 4796   7.788   7.836   1.141 -0.3760  0.3425 -0.8738
  777MOL0     C 4797   7.897   7.844   1.047  0.1114 -0.6589  0.3677
  777MOL0     C 4798   8.033   7.889   1.105 -0.1914 -0.5909  0.7426
  777MOL0     C 4799   8.124   7.922   0.983 -0.8803  0.5446 -0.4520
  777MOL0     C 4800   8.263   7.977   1.020 -0.1344  0.1108 -0.1783
  777MOL0     C 4801   8.348   7.978   0.903 -0.3590  0.1134  0.2682
  777MOL0     C 4802   8.480   8.040   0.932 -0.2064 -0.3383 -1.1805
  777MOL0     C 4803   8.566   7.955   1.021 -0.5195 -0.3679 -0.1091
  777MOL0     C 4804   8.701   8.028   1.053 -0.1068  0.4938 -0.2901
  777MOL0    Cl 4805   8.813   7.910   1.131  0.1455 -0.3221  0.0847
  777MOL0     C 4806   7.573   7.769   1.190  0.5092 -0.0758  0.3963
  777MOL0     C 4807   7.435   7.764   1.179  0.0925  0.3417  0.0564
  777MOL0     O 4808   7.219   8.066   1.191  0.2968 -0.8439  0.2203
  777MOL0     C 4809   6.959   7.827   1.111 -0.3465 -0.5574  0.4788
  777MOL0     C 4810   6.822   7.801   1.108 -0.6294 -1.3806  0.1488
  777MOL0     N 4811   6.343   7.952   0.648 -0.1383  0.5453  0.7311
  777MOL0     N 4812   6.398   7.970   0.531 -0.9154 -0.1682  0.1481
  777MOL0     C 4813   7.562   8.056   0.502  0.5288 -0.6113 -0.5405
  777MOL0     C 4814   7.692   8.072   0.531  0.4135 -0.6451 -0.2996
  777MOL0     C 4815   8.033   8.228   0.792  0.4570 -0.4136 -0.5902
  777MOL0     C 4816   8.123   8.235   0.684  0.3901 -1.0982  0.5449
  777MOL0     C 4817   8.238   8.313   0.692  0.4626  0.4925  0.4501
  777MOL0     C 4818   8.267   8.388   0.806  0.0069  0.6772 -0.5203
  777MOL0     O 4819   8.373   8.471   0.809  0.3603  0.0469 -0.3980
  777MOL0     C 4820   8.484   8.456   0.717  0.7107 -0.0968 -0.0941
  777MOL0     C 4821   8.619   8.503   0.773  0.2441 -0.0940 -0.3026
  777MOL0     C 4822   8.639   8.446   0.914  0.3105 -1.0562  0.0912
  777MOL0     C 4823   8.780   8.458   0.966  0.1241  0.3342 -0.1093
  777MOL0     C 4824   8.833   8.593   0.977  0.0269  0.2369  0.4730
  777MOL0     C 4825   8.882   8.702   0.978 -0.7995 -0.3368  0.2336
  777MOL0     C 4826   8.176   8.384   0.914  0.1210  0.2825  0.4184
  777MOL0     C 4827   8.059   8.310   0.905 -0.2870  0.0271  0.1780
  777MOL0     H 4828   7.735   7.894   0.797  0.9680 -0.7453 -0.2298
  777MOL0     H 4829   7.485   7.853   0.757  0.2407 -0.9852 -1.2529
  777MOL0     H 4830   7.278   8.139   0.666  1.5435 -0.7970  0.3758
  777MOL0     H 4831   7.294   8.154   0.497  1.3271 -1.2782 -0.1394
  777MOL0     H 4832   7.097   8.004   0.662  0.1291  1.5598  1.2284
  777MOL0     H 4833   7.055   8.131   0.558  3.5267  2.5121 -0.8422
  777MOL0     H 4834   7.140   7.951   0.368 -1.6816 -1.0133 -0.3687
  777MOL0     H 4835   7.103   7.844   0.503 -0.4245 -0.8798 -1.1093
  777MOL0     H 4836   6.882   7.972   0.520  1.9426  1.0150  1.9705
  777MOL0     H 4837   6.916   8.038   0.363  0.4018  2.1051  2.5770
  777MOL0     H 4838   6.953   7.807   0.281 -2.3571 -1.7707 -0.3413
  777MOL0     H 4839   6.902   7.741   0.439 -2.3748 -2.0074 -0.7700
  777MOL0     H 4840   6.729   7.920   0.256  1.2100 -1.2976 -2.0076
  777MOL0     H 4841   6.742   7.757   0.221  1.2416 -2.2579  2.1654
  777MOL0     H 4842   6.681   7.689   0.447  0.2172  0.2129  0.9780
  777MOL0     H 4843   6.668   7.861   0.495 -1.6678  0.4004  0.1255
  777MOL0     H 4844   6.490   7.709   0.315 -1.5961  0.9834 -1.1130
  777MOL0     H 4845   6.499   7.875   0.281 -2.8422 -2.2489 -1.6252
  777MOL0     H 4846   6.358   7.646   0.559  1.5603 -0.8811  0.4303
  777MOL0     H 4847   6.201   7.848   0.843  1.9563  1.0796 -0.8708
  777MOL0     H 4848   6.190   7.697   0.766  0.6431 -0.6316  0.9156
  777MOL0     H 4849   6.389   7.623   0.903  2.8961  0.2029 -0.1836
  777MOL0     H 4850   6.293   7.734   0.998  1.1679  0.8843  0.4113
  777MOL0     H 4851   6.438   7.929   0.922  0.9555 -1.0941 -1.1833
  777MOL0     H 4852   6.545   7.807   0.862  1.9328 -0.2409  1.9939
  777MOL0     H 4853   6.578   7.709   1.088 -2.7738 -1.0751 -0.2816
  777MOL0     H 4854   6.439   7.811   1.131 -1.9124  0.5822 -3.3169
  777MOL0     H 4855   6.727   8.135   1.143  1.0842  0.2506 -0.5576
  777MOL0     H 4856   6.994   8.249   1.088 -1.4269 -1.8695 -1.0638
  777MOL0     H 4857   6.887   8.268   1.231  1.4255  1.4962 -0.1279
  777MOL0     H 4858   7.036   8.200   1.258  0.5776 -2.7419 -0.8671
  777MOL0     H 4859   7.414   8.037   0.959  1.3856  1.3370  0.8605
  777MOL0     H 4860   7.667   8.006   0.970  0.2921  0.1010  0.1928
  777MOL0     H 4861   7.907   7.746   1.001 -0.9639 -0.0133 -1.3337
  777MOL0     H 4862   7.882   7.919   0.968  1.1118 -1.8427 -0.9842
  777MOL0     H 4863   8.026   7.982   1.162 -0.7099 -1.4039  2.0694
  777MOL0     H 4864   8.071   7.810   1.171  0.9965  1.3511  2.5064
  777MOL0     H 4865   8.072   7.990   0.915 -1.3775  0.9696  0.3419
  777MOL0     H 4866   8.146   7.836   0.919  0.8731  1.8344 -1.6874
  777MOL0     H 4867   8.251   8.075   1.068 -0.0938 -0.9864  2.2276
  777MOL0     H 4868   8.319   7.914   1.089  1.6830  1.8689  0.0348
  777MOL0     H 4869   8.297   8.027   0.820  1.6368  1.0989 -0.4338
  777MOL0     H 4870   8.361   7.875   0.867  1.3850 -0.8034  3.1901
  777MOL0     H 4871   8.528   8.065   0.837 -0.2217  1.0582 -0.8369
  777MOL0     H 4872   8.470   8.138   0.979 -0.1801 -0.5204 -0.7929
  777MOL0     H 4873   8.603   7.869   0.964  4.7209  0.7041  1.1690
  777MOL0     H 4874   8.522   7.934   1.118  0.7726  2.4861  1.2155
  777MOL0     H 4875   8.676   8.093   1.137 -0.5502 -0.6505  0.4966
  777MOL0     H 4876   8.757   8.064   0.967 -1.0058 -0.1190 -1.1654
  777MOL0     H 4877   7.622   7.698   1.255  1.4767  0.1233 -0.0912
  777MOL0     H 4878   7.380   7.694   1.241  1.4203  1.3736  2.5234
  777MOL0     H 4879   7.026   7.749   1.076 -1.8411  0.0407 -4.4478
  777MOL0     H 4880   6.794   7.696   1.101  1.1031 -1.7964 -4.3965
  777MOL0     H 4881   7.531   8.104   0.410  0.1733  0.6933  0.2377
  777MOL0     H 4882   7.745   8.130   0.456  1.4394 -0.0686  0.8399
  777MOL0     H 4883   8.089   8.196   0.589  1.0161  1.8996 -1.0469
  777MOL0     H 4884   8.305   8.325   0.608  1.7647  0.1551  1.4149
  777MOL0     H 4885   8.493   8.348   0.698  0.7524 -0.2984  0.9932
  777MOL0     H 4886   8.469   8.517   0.627 -2.5558  3.2976  2.4450
  777MOL0     H 4887   8.628   8.612   0.777  1.3630 -0.0264 -2.7167
  777MOL0     H 4888   8.702   8.475   0.707 -0.2223  3.1881 -2.4912
  777MOL0     H 4889   8.617   8.339   0.915  4.6626 -2.1374  1.9553
  777MOL0     H 4890   8.566   8.490   0.983 -0.0031 -1.2536 -0.1126
  777MOL0     H 4891   8.848   8.413   0.894  1.8889  2.1234  0.3572
  777MOL0     H 4892   8.781   8.407   1.063  2.2843  0.8041  0.1636
  777MOL0     H 4893   8.918   8.803   0.986 -1.3233 -0.3077  3.1672
  777MOL0     H 4894   8.184   8.450   1.000 -4.9857  0.3663  1.1407
  777MOL0     H 4895   8.002   8.301   0.998 -1.0590  1.6799 -0.1036
  778MOL0     O 4896   1.970   4.442   7.652  0.8354  0.0079 -0.3397
  778MOL0     C 4897   1.897   4.390   7.726 -0.3499  0.1004  0.1036
  778MOL0     O 4898   1.926   4.371   7.853  0.3051 -0.3590  0.4071
  778MOL0     C 4899   2.056   4.333   7.891 -0.1155  0.1392 -0.5552
  778MOL0     C 4900   2.103   4.206   7.868  0.3542 -0.8872  0.2106
  778MOL0     C 4901   2.225   4.158   7.909  1.0955 -0.4764  0.9040
  778MOL0     C 4902   2.303   4.248   7.991  0.0062 -0.2432  0.4683
  778MOL0     O 4903   2.416   4.211   8.057 -0.0904 -0.3784 -0.0193
  778MOL0     C 4904   2.525   4.250   7.962  1.3704 -0.6631 -0.8721
  778MOL0     C 4905   2.656   4.182   8.013 -0.6048 -0.1781 -0.4106
  778MOL0     C 4906   2.774   4.184   7.917 -0.1665 -0.3210  0.2703
  778MOL0     C 4907   2.818   4.323   7.866  0.1978 -0.2021  0.1495
  778MOL0     C 4908   2.958   4.307   7.800 -0.0878  0.6235 -0.4201
  778MOL0     C 4909   3.012   4.442   7.762  1.1707 -0.1804 -0.4801
  778MOL0     C 4910   2.947   4.514   7.646 -0.7317 -0.1086 -0.0569
  778MOL0     C 4911   3.019   4.643   7.600 -0.1032  0.1917  0.2020
  778MOL0     N 4912   3.027   4.751   7.698  0.0876 -0.2534  0.3717
  778MOL0     C 4913   3.150   4.801   7.742  0.5023  0.3088  0.2333
  778MOL0     C 4914   3.113   4.864   7.864 -0.4964  0.2239  0.6259
  778MOL0     C 4915   3.206   4.928   7.955  0.2609  1.1491  0.2763
  778MOL0     C 4916   3.215   5.071   7.887 -0.7575 -0.8064  0.3191
  778MOL0     C 4917   3.301   5.169   7.967 -0.4034  0.1617 -0.2191
  778MOL0     C 4918   3.248   5.214   8.102 -1.5217 -0.2139 -0.2722
  778MOL0     O 4919   3.344   5.322   8.145  0.2207 -0.1079  0.2563
  778MOL0     C 4920   3.338   5.356   8.280 -0.0651  0.3926 -0.4702
  778MOL0     C 4921   3.253   5.286   8.368  1.3969 -0.6280 -0.6101
  778MOL0     C 4922   3.237   5.344   8.503 -0.6889  0.7151  0.1792
  778MOL0     C 4923   3.127   5.278   8.588 -0.1591 -0.0133  0.6464
  778MOL0     C 4924   3.329   5.441   8.544 -0.1974 -0.3344  0.0767
  778MOL0     C 4925   3.305   5.523   8.671  0.0910  1.1629 -0.4900
  778MOL0     O 4926   3.405   5.607   8.723  0.1874  0.2474  0.1747
  778MOL0     C 4927   3.385   5.655   8.848  0.1017 -0.8679 -1.1071
  778MOL0     C 4928   3.368   5.570   8.957  0.0041  0.5152 -0.3504
  778MOL0     C 4929   3.366   5.609   9.096  0.1894 -0.0204 -0.4976
  778MOL0     C 4930   3.364   5.746   9.130 -0.8263  0.2314  0.4007
  778MOL0     O 4931   3.358   5.790   9.260  0.3454 -0.0607  0.2944
  778MOL0     C 4932   3.363   5.695   9.368 -0.1995 -0.1865 -0.3045
  778MOL0     C 4933   3.359   5.768   9.498  0.0476  0.1258 -0.2544
  778MOL0     C 4934   3.337   5.673   9.620  0.7699 -0.5748  0.1242
  778MOL0     C 4935   3.462   5.634   9.693  1.2991  0.4382 -0.5114
  778MOL0     C 4936   3.449   5.522   9.802 -0.2307 -0.8502  0.1185
  778MOL0     C 4937   3.367   5.570   9.919 -0.1551 -0.6442 -0.4065
  778MOL0     C 4938   3.418   5.692   9.999 -0.4983 -1.2146  0.5501
  778MOL0     C 4939   3.334   5.717  10.120 -0.7864  0.5238  0.3443
  778MOL0    Cl 4940   3.351   5.573  10.233 -0.6042 -0.1311 -0.7165
  778MOL0     C 4941   3.379   5.833   9.024 -0.2455 -0.4412 -0.6982
  778MOL0     C 4942   3.393   5.792   8.887  0.7973  0.6174 -0.4680
  778MOL0     O 4943   3.189   5.501   8.722  0.0874 -1.1057 -0.0273
  778MOL0     C 4944   3.417   5.503   8.451 -0.1452  0.3781  0.0232
  778MOL0     C 4945   3.415   5.462   8.319 -0.2216 -0.6750 -0.4028
  778MOL0     N 4946   2.984   4.844   7.896  0.4534 -0.3645 -0.0357
  778MOL0     N 4947   2.940   4.778   7.796 -0.7353 -1.0612 -0.8468
  778MOL0     C 4948   2.247   4.377   8.008  0.5882 -0.1899 -0.4582
  778MOL0     C 4949   2.121   4.421   7.962 -0.5609 -0.1815 -0.6394
  778MOL0     C 4950   1.760   4.354   7.675  0.2804 -0.3212  0.1971
  778MOL0     C 4951   1.662   4.307   7.761 -0.5350  0.1512  0.0232
  778MOL0     C 4952   1.538   4.269   7.715  0.7961  0.2020  0.4845
  778MOL0     C 4953   1.493   4.283   7.574  0.2411  0.8419  0.1176
  778MOL0     O 4954   1.364   4.248   7.531  0.1760 -0.2937 -0.3377
  778MOL0     C 4955   1.271   4.177   7.613  0.3555  0.1292 -0.3659
  778MOL0     C 4956   1.173   4.281   7.682  0.1929 -0.5411  0.1395
  778MOL0     C 4957   1.108   4.390   7.605  0.8744 -0.3175  0.1253
  778MOL0     C 4958   0.990   4.466   7.683 -0.9477  0.8079 -0.1813
  778MOL0     C 4959   0.960   4.594   7.622  0.0118  0.3279 -0.2884
  778MOL0     C 4960   0.918   4.699   7.583 -0.0669 -0.7804  0.8151
  778MOL0     C 4961   1.588   4.337   7.488  0.4653 -0.7269 -0.2769
  778MOL0     C 4962   1.716   4.379   7.541  0.1314  0.3583 -0.7731
  778MOL0     H 4963   2.042   4.131   7.817 -0.7909  0.6498 -0.7451
  778MOL0     H 4964   2.248   4.052   7.908 -0.7863 -0.9328 -0.2178
  778MOL0     H 4965   2.512   4.215   7.859  1.0624 -0.9383 -0.7408
  778MOL0     H 4966   2.525   4.359   7.952  1.6083 -0.7779 -2.4261
  778MOL0     H 4967   2.671   4.247   8.100 -2.3195 -0.3893  0.0688
  778MOL0     H 4968   2.637   4.081   8.051 -1.9149  1.2860  3.2297
  778MOL0     H 4969   2.859   4.131   7.960  0.1768  0.9941  1.2681
  778MOL0     H 4970   2.747   4.123   7.830  0.2175 -1.8007  1.1547
  778MOL0     H 4971   2.743   4.345   7.790 -1.1734 -0.5127  1.3545
  778MOL0     H 4972   2.804   4.397   7.945 -3.1012 -3.2772  2.7962
  778MOL0     H 4973   3.022   4.253   7.870 -1.8410  2.1742  2.6308
  778MOL0     H 4974   2.947   4.257   7.704 -0.4990 -1.0365  0.4442
  778MOL0     H 4975   3.010   4.499   7.855  0.4833 -1.4192  0.2965
  778MOL0     H 4976   3.119   4.437   7.740  1.9680  1.7105  2.4978
  778MOL0     H 4977   2.953   4.445   7.561  2.7001  0.6126 -0.5262
  778MOL0     H 4978   2.843   4.541   7.669  0.0210  0.4687  3.2361
  778MOL0     H 4979   2.965   4.684   7.514 -2.0085  1.1914  1.8060
  778MOL0     H 4980   3.117   4.619   7.558 -0.2904  2.3391 -1.6913
  778MOL0     H 4981   3.254   4.788   7.714  1.2477  1.4505  2.3119
  778MOL0     H 4982   3.162   4.922   8.055 -0.7545  2.1390 -0.0940
  778MOL0     H 4983   3.303   4.876   7.951 -0.6644 -0.5811 -2.0335
  778MOL0     H 4984   3.115   5.115   7.886 -1.3092 -2.0002  0.9244
  778MOL0     H 4985   3.259   5.070   7.786 -0.7531 -0.9356  0.3222
  778MOL0     H 4986   3.325   5.257   7.906 -0.6226  0.1482 -0.3247
  778MOL0     H 4987   3.398   5.123   7.988 -0.6353 -2.5384 -4.0061
  778MOL0     H 4988   3.251   5.120   8.157 -0.0927 -1.5698 -2.5042
  778MOL0     H 4989   3.152   5.266   8.109  0.2453  3.2828  0.1775
  778MOL0     H 4990   3.184   5.207   8.340 -0.3836  0.9637 -0.9382
  778MOL0     H 4991   3.048   5.354   8.594  2.7905  3.4946 -0.6589
  778MOL0     H 4992   3.096   5.181   8.548 -1.3224  0.5221  0.2020
  778MOL0     H 4993   3.166   5.251   8.686  3.8074  0.2290 -0.6810
  778MOL0     H 4994   3.373   5.462   8.947  1.6464  0.3330  1.7927
  778MOL0     H 4995   3.367   5.541   9.181  0.8096 -0.5596 -0.9306
  778MOL0     H 4996   3.286   5.619   9.355  1.7700 -2.0592 -1.8413
  778MOL0     H 4997   3.461   5.645   9.363 -0.1716 -0.2040  0.3021
  778MOL0     H 4998   3.453   5.822   9.509  1.4306 -2.4592  1.9421
  778MOL0     H 4999   3.275   5.837   9.488 -0.0140 -0.2224 -3.1718
  778MOL0     H 5000   3.293   5.583   9.576 -0.4760 -0.0694  0.2861
  778MOL0     H 5001   3.270   5.722   9.691 -0.0313  0.1452 -1.0798
  778MOL0     H 5002   3.525   5.586   9.618  0.6572 -2.8561  0.8717
  778MOL0     H 5003   3.510   5.723   9.734 -2.0397  3.4067 -2.5106
  778MOL0     H 5004   3.550   5.507   9.840  0.2695 -3.9043 -2.0980
  778MOL0     H 5005   3.411   5.429   9.760 -1.4429  0.2348 -1.3098
  778MOL0     H 5006   3.271   5.598   9.875 -0.6022  2.0830  1.9905
  778MOL0     H 5007   3.339   5.486   9.984  2.0306 -0.0809  1.3856
  778MOL0     H 5008   3.416   5.775   9.929 -0.3957 -3.6410 -2.5400
  778MOL0     H 5009   3.514   5.668  10.046 -1.4963 -1.5350  2.5555
  778MOL0     H 5010   3.231   5.730  10.085 -0.6446  1.6388  0.3102
  778MOL0     H 5011   3.371   5.807  10.169 -2.2492  1.3182  0.0579
  778MOL0     H 5012   3.395   5.937   9.048 -1.6461  0.2762 -2.6536
  778MOL0     H 5013   3.417   5.868   8.813 -1.9135  1.7198 -0.3323
  778MOL0     H 5014   3.485   5.580   8.484  0.2679 -1.0327  2.7844
  778MOL0     H 5015   3.478   5.493   8.236 -1.4162 -0.7381 -1.3636
  778MOL0     H 5016   2.296   4.447   8.075  0.4957 -0.1164 -0.4670
  778MOL0     H 5017   2.089   4.524   7.977  2.2056  0.5517  1.0755
  778MOL0     H 5018   1.691   4.293   7.864 -1.5153  2.3109  0.6358
  778MOL0     H 5019   1.473   4.223   7.788 -2.1578  3.0495 -0.0960
  778MOL0     H 5020   1.216   4.102   7.556 -0.9815  1.4604 -0.8841
  778MOL0     H 5021   1.325   4.122   7.691 -2.0431 -0.8960  0.6793
  778MOL0     H 5022   1.224   4.332   7.764 -2.3247  1.5573  0.5400
  778MOL0     H 5023   1.091   4.239   7.743 -0.5773  3.3819  2.1620
  778MOL0     H 5024   1.063   4.358   7.511 -2.3399  3.4554  0.1010
  778MOL0     H 5025   1.187   4.455   7.567  2.5206 -0.5503  2.8477
  778MOL0     H 5026   1.021   4.480   7.787  2.3449 -1.1928 -0.7484
  778MOL0     H 5027   0.906   4.396   7.690 -0.9456  0.9641  4.1955
  778MOL0     H 5028   0.872   4.793   7.561 -0.7349 -0.8537  1.8421
  778MOL0     H 5029   1.567   4.336   7.381  1.2799  5.2851 -0.8304
  778MOL0     H 5030   1.790   4.426   7.477  0.7175  1.6832  0.8249
  779MOL0     O 5031  10.487   0.072   9.072  1.1572 -0.2947 -0.2585
  779MOL0     C 5032  10.437   0.011   9.172 -0.0103  0.6284 -0.1866
  779MOL0     O 5033  10.316  -0.052   9.169  0.4605 -0.7672 -0.0465
  779MOL0     C 5034  10.255  -0.079   9.054  0.4336  0.6542  0.5011
  779MOL0     C 5035  10.330  -0.141   8.948 -0.2143  0.6010 -0.0779
  779MOL0     C 5036  10.270  -0.191   8.834  0.5087 -0.5695  0.4289
  779MOL0     C 5037  10.129  -0.177   8.816 -0.5809 -0.1600 -0.1337
  779MOL0     O 5038  10.069  -0.215   8.696 -0.9259  0.3999  0.3508
  779MOL0     C 5039  10.068  -0.362   8.676  0.0930  0.1701  1.3499
  779MOL0     C 5040  10.012  -0.392   8.542 -0.8751  0.7141  0.1523
  779MOL0     C 5041  10.051  -0.536   8.508  0.0855 -1.1207 -0.3538
  779MOL0     C 5042  10.004  -0.662   8.602  0.8187 -0.9418 -0.0248
  779MOL0     C 5043  10.051  -0.783   8.523  0.2230  0.2738 -0.1259
  779MOL0     C 5044  10.003  -0.916   8.588 -0.8944 -0.2846  0.1466
  779MOL0     C 5045   9.858  -0.954   8.548  0.0979 -0.2967  0.6902
  779MOL0     C 5046   9.830  -1.095   8.595 -0.6436  0.3893 -0.2495
  779MOL0     N 5047   9.790  -1.133   8.733 -0.3546 -0.3406  1.5363
  779MOL0     C 5048   9.774  -1.255   8.786  1.1351  0.5050  0.0140
  779MOL0     C 5049   9.754  -1.234   8.918  0.9575  0.6323 -0.5613
  779MOL0     C 5050   9.733  -1.351   9.014 -0.5132 -0.1644 -0.4717
  779MOL0     C 5051   9.680  -1.302   9.158  0.0233 -0.5906  0.2445
  779MOL0     C 5052   9.632  -1.422   9.252 -0.5184 -0.1322 -0.1577
  779MOL0     C 5053   9.747  -1.524   9.280 -0.0115  0.0493 -0.3040
  779MOL0     O 5054   9.680  -1.620   9.351  0.1489  0.7733 -1.0329
  779MOL0     C 5055   9.773  -1.716   9.391  0.2824  0.6410 -0.3591
  779MOL0     C 5056   9.844  -1.694   9.514  0.2161  1.1634  0.5079
  779MOL0     C 5057   9.936  -1.793   9.557 -0.0595  0.9426  0.5841
  779MOL0     C 5058  10.012  -1.763   9.683  0.0783  0.2485 -0.0005
  779MOL0     C 5059   9.979  -1.902   9.468  0.6550  0.3699  0.1560
  779MOL0     C 5060  10.086  -1.998   9.485 -0.1442 -0.0461 -1.0440
  779MOL0     O 5061  10.085  -2.093   9.399 -0.1794  0.6948 -0.7702
  779MOL0     C 5062  10.171  -2.197   9.428 -0.4467 -0.7184 -0.4135
  779MOL0     C 5063  10.311  -2.193   9.450 -0.2368  0.4965  0.2706
  779MOL0     C 5064  10.388  -2.309   9.474 -0.0048  0.2550 -0.7317
  779MOL0     C 5065  10.329  -2.438   9.485 -0.9363  1.4517 -0.1508
  779MOL0     O 5066  10.384  -2.556   9.502 -0.8347  0.2377  0.3325
  779MOL0     C 5067  10.524  -2.574   9.465  0.6059  0.5422 -0.5248
  779MOL0     C 5068  10.539  -2.735   9.463  0.4875 -0.2768 -0.2577
  779MOL0     C 5069  10.681  -2.767   9.406  0.1663  0.5024 -0.4864
  779MOL0     C 5070  10.783  -2.769   9.519  0.6542  0.2273 -0.2762
  779MOL0     C 5071  10.927  -2.756   9.454 -0.7320  0.5953 -0.7177
  779MOL0     C 5072  10.980  -2.870   9.374  0.1530  0.5080  0.4771
  779MOL0     C 5073  11.015  -2.989   9.469 -0.1765  0.5397 -0.1396
  779MOL0     C 5074  10.926  -3.109   9.449  0.7992 -0.1077 -0.7417
  779MOL0    Cl 5075  10.989  -3.239   9.554  0.1666 -0.2908  0.0913
  779MOL0     C 5076  10.194  -2.443   9.478  1.1008 -0.4323  0.4016
  779MOL0     C 5077  10.117  -2.324   9.440 -0.6521  0.5740  0.5265
  779MOL0     O 5078  10.174  -1.972   9.571 -0.8182  0.7993  0.3014
  779MOL0     C 5079   9.901  -1.917   9.348  1.0146  0.8973  0.2103
  779MOL0     C 5080   9.803  -1.829   9.310  0.0810 -0.8213 -0.7968
  779MOL0     N 5081   9.771  -1.099   8.949 -1.0460 -0.7981  0.2871
  779MOL0     N 5082   9.783  -1.042   8.834  0.4567 -0.0177 -0.1785
  779MOL0     C 5083  10.063  -0.109   8.910 -1.2631  0.3455 -0.2956
  779MOL0     C 5084  10.118  -0.060   9.026 -0.5942 -0.4880 -0.4966
  779MOL0     C 5085  10.523  -0.000   9.290  1.2324  0.1187  0.5713
  779MOL0     C 5086  10.651   0.060   9.297  0.8208  0.2704 -0.7767
  779MOL0     C 5087  10.716   0.064   9.422  0.6173 -0.4828  0.3862
  779MOL0     C 5088  10.672  -0.003   9.537 -0.0430 -0.2013 -0.0764
  779MOL0     O 5089  10.732   0.032   9.659  0.2328 -0.0872 -0.1366
  779MOL0     C 5090  10.701  -0.056   9.766 -0.0571 -0.1750  0.3217
  779MOL0     C 5091  10.770  -0.197   9.767  0.0004 -0.5321 -0.5083
  779MOL0     C 5092  10.762  -0.248   9.904  0.8396 -0.0870 -0.1309
  779MOL0     C 5093  10.866  -0.357   9.930  1.2779 -0.0303  0.2786
  779MOL0     C 5094  10.835  -0.403  10.060 -0.2529  0.4920 -0.2651
  779MOL0     C 5095  10.804  -0.411  10.178 -0.6249 -0.4014  0.2320
  779MOL0     C 5096  10.554  -0.079   9.520  1.4178  0.6301  0.1888
  779MOL0     C 5097  10.484  -0.076   9.399  0.2443  0.0718 -0.8027
  779MOL0     H 5098  10.435  -0.167   8.957 -0.5631 -0.4826  1.1259
  779MOL0     H 5099  10.324  -0.243   8.755 -2.1020 -3.2555  0.2392
  779MOL0     H 5100  10.172  -0.396   8.672 -0.5568 -1.9893 -2.7409
  779MOL0     H 5101  10.022  -0.424   8.754  4.6132 -3.3787  1.5758
  779MOL0     H 5102   9.903  -0.378   8.538 -1.2256 -1.7589 -0.5632
  779MOL0     H 5103  10.050  -0.333   8.458  1.5929  0.1932  0.8387
  779MOL0     H 5104  10.030  -0.536   8.400  0.9970 -1.2987 -0.5358
  779MOL0     H 5105  10.160  -0.545   8.511  0.4080  2.0067  1.0940
  779MOL0     H 5106  10.053  -0.665   8.700  0.3925  0.5459  0.2578
  779MOL0     H 5107   9.895  -0.658   8.605  0.8434  1.1381 -0.5941
  779MOL0     H 5108  10.019  -0.768   8.419 -0.0168  0.2582 -0.0552
  779MOL0     H 5109  10.160  -0.772   8.526  0.2607 -0.2903  2.9777
  779MOL0     H 5110  10.063  -1.000   8.551 -0.9301 -0.5296  0.6279
  779MOL0     H 5111  10.025  -0.926   8.695  0.7657 -0.2259 -0.1552
  779MOL0     H 5112   9.785  -0.886   8.594 -0.0718 -0.3705  0.5295
  779MOL0     H 5113   9.851  -0.965   8.439 -1.8526  1.4638  0.5622
  779MOL0     H 5114   9.916  -1.160   8.575 -1.6319 -1.9645  2.4690
  779MOL0     H 5115   9.746  -1.124   8.532  0.4252  2.1627 -2.6361
  779MOL0     H 5116   9.772  -1.344   8.723  1.9484  1.3130 -1.2025
  779MOL0     H 5117   9.669  -1.422   8.962  0.2887  0.2226 -2.0762
  779MOL0     H 5118   9.833  -1.395   9.021  0.3895  0.6874 -4.8271
  779MOL0     H 5119   9.598  -1.230   9.146  2.4609  2.4037  0.3841
  779MOL0     H 5120   9.764  -1.249   9.204  0.2084 -0.4037 -0.3029
  779MOL0     H 5121   9.549  -1.467   9.196 -1.7361 -0.3963  1.7897
  779MOL0     H 5122   9.587  -1.378   9.341 -1.1053  1.6845 -1.2800
  779MOL0     H 5123   9.823  -1.476   9.343 -2.3958 -0.5680  3.3634
  779MOL0     H 5124   9.790  -1.567   9.189 -3.2136 -0.1023 -1.8906
  779MOL0     H 5125   9.814  -1.609   9.576 -2.5520 -0.4919  1.6317
  779MOL0     H 5126  10.008  -1.840   9.761  2.3781  1.5565  1.5364
  779MOL0     H 5127  10.118  -1.747   9.661  0.2722 -0.2219  0.5549
  779MOL0     H 5128   9.981  -1.676   9.742  1.5818  0.6754  0.2184
  779MOL0     H 5129  10.365  -2.099   9.454  1.6262 -0.5016 -0.2681
  779MOL0     H 5130  10.494  -2.288   9.484 -0.4024  1.8748  0.5139
  779MOL0     H 5131  10.537  -2.533   9.364  0.8532  1.1644 -0.2451
  779MOL0     H 5132  10.596  -2.531   9.535  1.0287  2.1254 -1.8807
  779MOL0     H 5133  10.521  -2.760   9.568  1.2650  1.9655  0.4629
  779MOL0     H 5134  10.460  -2.789   9.410  0.4252 -2.2431  1.6732
  779MOL0     H 5135  10.707  -2.680   9.344  1.1674 -0.3843 -1.3464
  779MOL0     H 5136  10.684  -2.861   9.350  0.7508  0.5022 -0.4620
  779MOL0     H 5137  10.761  -2.677   9.574  0.2608  2.0032 -3.1557
  779MOL0     H 5138  10.775  -2.850   9.592 -0.2769  2.8935  2.8208
  779MOL0     H 5139  11.001  -2.735   9.531 -0.3097 -0.6522 -0.7585
  779MOL0     H 5140  10.915  -2.664   9.396 -1.1486  1.9497  1.4238
  779MOL0     H 5141  10.909  -2.900   9.296  1.1014  2.7729 -1.3793
  779MOL0     H 5142  11.074  -2.846   9.324  1.0627 -1.8581  0.9500
  779MOL0     H 5143  10.995  -2.955   9.571  1.1104  1.4315 -0.1675
  779MOL0     H 5144  11.118  -3.022   9.451 -0.4925 -1.3856  1.2093
  779MOL0     H 5145  10.926  -3.133   9.342  0.1798  2.0014 -1.2641
  779MOL0     H 5146  10.821  -3.084   9.469  0.6928 -2.4170  2.2820
  779MOL0     H 5147  10.144  -2.536   9.503  0.6074 -0.0911  0.7072
  779MOL0     H 5148  10.009  -2.330   9.431 -0.7883  1.8930  1.1024
  779MOL0     H 5149   9.915  -2.000   9.279  1.2100  1.9301 -1.0182
  779MOL0     H 5150   9.754  -1.845   9.215  1.0567  0.8235 -1.6245
  779MOL0     H 5151   9.959  -0.091   8.884 -1.0438  1.4429 -0.4727
  779MOL0     H 5152  10.044  -0.004   9.081 -1.2871 -1.2087 -0.6798
  779MOL0     H 5153  10.694   0.126   9.222  1.1083  0.1189 -0.7486
  779MOL0     H 5154  10.809   0.119   9.432  0.0103  0.4676  0.9475
  779MOL0     H 5155  10.722   0.004   9.855 -0.3300  0.8635 -0.2928
  779MOL0     H 5156  10.592  -0.068   9.768 -0.1444  0.2024 -1.2591
  779MOL0     H 5157  10.875  -0.193   9.737 -0.5105 -2.4257 -2.8129
  779MOL0     H 5158  10.716  -0.272   9.708 -3.2381  0.4538  1.0103
  779MOL0     H 5159  10.665  -0.297   9.916 -0.3587  1.0534 -3.8055
  779MOL0     H 5160  10.775  -0.164   9.973 -1.0232  1.5216 -1.6001
  779MOL0     H 5161  10.968  -0.322   9.915  0.7021  1.7984  0.4279
  779MOL0     H 5162  10.859  -0.433   9.851  1.1654 -2.4634  2.5112
  779MOL0     H 5163  10.766  -0.394  10.277  0.2637 -1.2321  0.7312
  779MOL0     H 5164  10.508  -0.142   9.596 -0.4267  1.4193 -0.2174
  779MOL0     H 5165  10.389  -0.126   9.383  2.0038 -3.1478 -2.0940
  780MOL0     O 5166   9.305   6.030   4.417 -0.3688 -0.2188 -0.5965
  780MOL0     C 5167   9.338   5.983   4.306  0.3035  0.4430  0.9842
  780MOL0     O 5168   9.248   5.914   4.224  0.0676 -0.5047  0.4386
  780MOL0     C 5169   9.122   5.900   4.275  0.1315  0.0365  0.5356
  780MOL0     C 5170   9.045   6.009   4.254  0.8883 -0.5123  0.7153
  780MOL0     C 5171   8.901   5.999   4.267 -0.1522 -0.6021 -1.0524
  780MOL0     C 5172   8.848   5.876   4.315 -0.5788  1.2434 -0.3258
  780MOL0     O 5173   8.717   5.880   4.352 -0.7990 -0.1098 -0.2598
  780MOL0     C 5174   8.637   5.766   4.307  0.0911  0.2423 -0.5254
  780MOL0     C 5175   8.513   5.750   4.397 -0.1427 -0.4496  0.1154
  780MOL0     C 5176   8.413   5.663   4.327 -0.8137  0.3146 -0.0237
  780MOL0     C 5177   8.318   5.599   4.427  0.6960 -0.4476 -0.6179
  780MOL0     C 5178   8.253   5.469   4.370  0.1235 -0.4780  0.3250
  780MOL0     C 5179   8.135   5.522   4.283  0.6869  0.8064 -0.6859
  780MOL0     C 5180   8.037   5.409   4.237 -0.1144 -0.0774  0.2764
  780MOL0     C 5181   7.919   5.397   4.325  0.5238  0.6266  0.1111
  780MOL0     N 5182   7.949   5.330   4.454 -0.6940  0.2318 -0.1030
  780MOL0     C 5183   7.952   5.193   4.471  0.3143 -0.8227 -0.9604
  780MOL0     C 5184   8.009   5.163   4.586 -0.2571 -0.7060 -0.8902
  780MOL0     C 5185   8.059   5.040   4.648  0.8994 -0.1783  0.4079
  780MOL0     C 5186   8.204   5.053   4.693 -0.6845 -0.1049 -0.3292
  780MOL0     C 5187   8.248   4.922   4.768  0.4452 -0.7082 -0.5859
  780MOL0     C 5188   8.401   4.924   4.786  0.6920 -0.4619 -0.9182
  780MOL0     O 5189   8.451   4.799   4.835  0.1491  0.3729 -0.1847
  780MOL0     C 5190   8.453   4.692   4.758 -0.1625  0.1256 -0.2960
  780MOL0     C 5191   8.527   4.582   4.807 -0.6405 -0.2969  0.1356
  780MOL0     C 5192   8.542   4.458   4.737  0.2317 -0.0204 -0.6820
  780MOL0     C 5193   8.598   4.341   4.824 -0.1842  0.3725 -0.4265
  780MOL0     C 5194   8.500   4.458   4.602  0.8280 -0.6460 -0.0178
  780MOL0     C 5195   8.494   4.334   4.517 -0.3196 -0.6359  0.7189
  780MOL0     O 5196   8.480   4.207   4.579 -0.5056 -1.0411 -0.5925
  780MOL0     C 5197   8.501   4.090   4.506  0.0724 -0.1881 -0.7096
  780MOL0     C 5198   8.444   4.066   4.375  0.1051 -0.1301  0.1583
  780MOL0     C 5199   8.475   3.942   4.315 -0.4005  0.2819 -0.2933
  780MOL0     C 5200   8.569   3.852   4.373 -0.1413 -0.9569 -0.3368
  780MOL0     O 5201   8.604   3.732   4.333  0.2604 -0.2940  0.1089
  780MOL0     C 5202   8.535   3.672   4.228  1.0789 -0.5718 -0.5450
  780MOL0     C 5203   8.624   3.557   4.184 -0.3511 -0.3879  0.4773
  780MOL0     C 5204   8.657   3.458   4.304  0.7356 -0.1713  0.1309
  780MOL0     C 5205   8.726   3.331   4.267 -0.0743 -0.7814  0.4305
  780MOL0     C 5206   8.799   3.268   4.386  0.3988 -0.9299 -0.1875
  780MOL0     C 5207   8.697   3.234   4.505  0.7964 -0.3864  0.2227
  780MOL0     C 5208   8.578   3.146   4.481 -0.5907 -0.8008 -0.6696
  780MOL0     C 5209   8.627   3.011   4.429  0.4071 -0.3863 -1.0804
  780MOL0    Cl 5210   8.739   2.931   4.525 -0.3807 -0.0295 -0.1078
  780MOL0     C 5211   8.635   3.890   4.489  0.3449  0.9623  0.8240
  780MOL0     C 5212   8.595   3.996   4.558 -0.5739  0.2210 -0.1674
  780MOL0     O 5213   8.496   4.358   4.392  0.1763  0.5232  0.3515
  780MOL0     C 5214   8.427   4.567   4.554 -1.1196  0.2698 -0.0414
  780MOL0     C 5215   8.407   4.687   4.626  1.2544  0.4067  0.3111
  780MOL0     N 5216   8.012   5.286   4.656 -0.4729  0.1935  0.5416
  780MOL0     N 5217   7.984   5.389   4.572 -0.9266  0.7875 -0.4163
  780MOL0     C 5218   8.932   5.767   4.344 -0.5781 -0.2023  0.0788
  780MOL0     C 5219   9.071   5.782   4.324  0.4059  0.9002 -0.4074
  780MOL0     C 5220   9.476   6.006   4.248  0.3580  0.2382 -0.4884
  780MOL0     C 5221   9.572   6.049   4.340  0.9438 -0.2025 -0.7583
  780MOL0     C 5222   9.709   6.069   4.297 -0.1202  0.3104  0.3581
  780MOL0     C 5223   9.738   6.034   4.163 -0.3840  0.3508 -0.0604
  780MOL0     O 5224   9.860   6.039   4.110 -0.4850  0.3588 -0.1553
  780MOL0     C 5225   9.980   6.085   4.186 -0.1146 -0.2783  0.8770
  780MOL0     C 5226   9.991   6.241   4.192  1.3670  0.4754 -0.0880
  780MOL0     C 5227  10.120   6.277   4.252 -0.2554 -0.2405  0.3481
  780MOL0     C 5228  10.130   6.426   4.296 -0.4296  0.5553  0.5253
  780MOL0     C 5229  10.107   6.523   4.190  0.5861 -0.4837  0.3517
  780MOL0     C 5230  10.081   6.605   4.109 -0.0104  0.9036  0.2320
  780MOL0     C 5231   9.635   5.994   4.069  0.0712 -0.8565  0.5010
  780MOL0     C 5232   9.503   5.982   4.112 -0.3141 -0.5147 -0.1791
  780MOL0     H 5233   9.101   6.096   4.221 -0.6658 -1.2663 -5.2574
  780MOL0     H 5234   8.830   6.078   4.247  1.9963  1.2136 -1.9736
  780MOL0     H 5235   8.607   5.768   4.202  0.1775 -2.9663 -0.7009
  780MOL0     H 5236   8.690   5.671   4.312  0.7145  0.4795 -1.9525
  780MOL0     H 5237   8.550   5.709   4.492 -0.4752  0.5198  0.6804
  780MOL0     H 5238   8.473   5.850   4.413  4.3804  1.3385  1.8268
  780MOL0     H 5239   8.356   5.714   4.249 -2.9644  2.4123  2.7446
  780MOL0     H 5240   8.464   5.581   4.275 -2.1402  0.9126 -2.4578
  780MOL0     H 5241   8.370   5.572   4.519  1.6736  2.0622 -0.3586
  780MOL0     H 5242   8.244   5.678   4.438 -0.4262 -0.1549 -6.6707
  780MOL0     H 5243   8.331   5.411   4.319  1.0245  1.0467 -0.0664
  780MOL0     H 5244   8.209   5.410   4.451  0.9714  2.1312  2.8462
  780MOL0     H 5245   8.073   5.588   4.343  1.1273 -0.2367  0.9788
  780MOL0     H 5246   8.178   5.578   4.199 -1.7533  1.3526 -1.6557
  780MOL0     H 5247   7.994   5.440   4.141  0.7809  0.2806 -0.0213
  780MOL0     H 5248   8.079   5.308   4.226  1.8620  0.5885  1.2072
  780MOL0     H 5249   7.851   5.337   4.265 -0.2512  3.6523 -2.3532
  780MOL0     H 5250   7.876   5.497   4.339  0.0096  0.5409 -0.7754
  780MOL0     H 5251   7.930   5.131   4.386  1.7722  0.2758 -2.2005
  780MOL0     H 5252   7.988   5.003   4.722 -0.1203  0.4538 -0.2278
  780MOL0     H 5253   8.055   4.963   4.570 -1.5645 -0.2295  0.5144
  780MOL0     H 5254   8.207   5.124   4.776 -0.6902  2.1393 -2.1667
  780MOL0     H 5255   8.259   5.086   4.604 -2.1726  0.2638 -1.1564
  780MOL0     H 5256   8.212   4.833   4.715  4.5102 -2.0256 -1.4958
  780MOL0     H 5257   8.208   4.919   4.870  1.1045  1.7841 -0.2053
  780MOL0     H 5258   8.412   5.004   4.860 -1.5012 -0.9431 -0.0091
  780MOL0     H 5259   8.450   4.955   4.693 -1.5733 -0.1250 -2.0699
  780MOL0     H 5260   8.579   4.592   4.901  2.2525 -0.0226 -1.3700
  780MOL0     H 5261   8.706   4.338   4.808 -0.3796 -0.6172 -1.7726
  780MOL0     H 5262   8.584   4.363   4.930  0.7326  0.9588 -0.4162
  780MOL0     H 5263   8.554   4.241   4.812 -1.9659  0.8124  1.7713
  780MOL0     H 5264   8.372   4.123   4.317 -0.8373 -1.4533 -0.0242
  780MOL0     H 5265   8.421   3.913   4.226 -1.0098 -1.3990  0.5657
  780MOL0     H 5266   8.432   3.642   4.251  0.9296 -0.2004 -0.7184
  780MOL0     H 5267   8.524   3.742   4.145 -2.4476 -1.1781 -0.7492
  780MOL0     H 5268   8.576   3.503   4.102 -0.7378  0.7926 -0.0865
  780MOL0     H 5269   8.724   3.599   4.168 -0.7349  0.3975  0.1536
  780MOL0     H 5270   8.558   3.434   4.344 -0.3483  0.4351 -2.0216
  780MOL0     H 5271   8.715   3.504   4.385 -0.7635 -1.8279  2.2858
  780MOL0     H 5272   8.652   3.259   4.230 -0.7580  0.9464 -1.7454
  780MOL0     H 5273   8.799   3.347   4.188  0.7854 -0.3857  1.2830
  780MOL0     H 5274   8.882   3.330   4.422  3.0740 -3.3436 -1.8592
  780MOL0     H 5275   8.849   3.180   4.347  1.3899  0.6289 -2.6645
  780MOL0     H 5276   8.750   3.179   4.583  2.2834 -1.6883 -1.6200
  780MOL0     H 5277   8.660   3.322   4.559  0.4587 -2.1038  2.9944
  780MOL0     H 5278   8.505   3.195   4.415 -2.0141  0.0912  1.4383
  780MOL0     H 5279   8.516   3.140   4.570 -2.6364 -0.7013 -2.0188
  780MOL0     H 5280   8.669   3.019   4.329  1.6729  2.5784 -0.4321
  780MOL0     H 5281   8.537   2.949   4.437 -1.1290  1.7557  5.7167
  780MOL0     H 5282   8.714   3.826   4.527  0.8224 -0.0605 -1.7054
  780MOL0     H 5283   8.640   4.016   4.655 -0.7568 -5.7994  1.5650
  780MOL0     H 5284   8.389   4.565   4.452 -2.4627  1.0530  0.4141
  780MOL0     H 5285   8.355   4.773   4.584 -1.7587 -1.4301  0.0257
  780MOL0     H 5286   8.905   5.667   4.377  3.0049 -2.3902 -2.9146
  780MOL0     H 5287   9.133   5.704   4.367 -0.8110  0.9842  1.6141
  780MOL0     H 5288   9.554   6.068   4.445 -1.1627 -0.4765 -1.0381
  780MOL0     H 5289   9.775   6.091   4.380 -0.7390 -4.4018  2.4518
  780MOL0     H 5290   9.976   6.048   4.289 -2.1929 -0.0233  0.9237
  780MOL0     H 5291  10.063   6.036   4.134 -1.7925 -0.6131 -1.6632
  780MOL0     H 5292   9.923   6.284   4.266  2.2290  0.7998  0.5409
  780MOL0     H 5293   9.974   6.291   4.096  0.3946  0.9405  0.3175
  780MOL0     H 5294  10.202   6.249   4.185  0.1014 -0.8153  1.0127
  780MOL0     H 5295  10.141   6.213   4.338  1.3076 -1.5169 -0.9108
  780MOL0     H 5296  10.233   6.445   4.328  1.3025 -1.8783 -2.9510
  780MOL0     H 5297  10.049   6.433   4.369 -0.8241 -1.6631  0.3677
  780MOL0     H 5298  10.069   6.660   4.018 -1.9144 -1.3563 -1.0132
  780MOL0     H 5299   9.661   5.963   3.968  4.2596 -1.2760  1.5130
  780MOL0     H 5300   9.424   5.947   4.047 -0.2852 -0.9606  0.0258
  781MOL0     O 5301   8.928  10.388   7.814 -0.1695 -0.1661  0.6413
  781MOL0     C 5302   8.873  10.434   7.921 -0.2266 -0.1593  0.5096
  781MOL0     O 5303   8.845  10.566   7.944 -0.0189  0.1631 -0.3636
  781MOL0     C 5304   8.912  10.665   7.871  0.2292 -0.2342 -0.0997
  781MOL0     C 5305   8.861  10.790   7.896  0.5265 -1.8450  0.2521
  781MOL0     C 5306   8.895  10.907   7.828  0.9929  0.0665 -0.2912
  781MOL0     C 5307   8.993  10.900   7.732 -0.5106 -0.7756 -0.6553
  781MOL0     O 5308   9.043  11.006   7.663  0.6373 -0.0139 -0.2555
  781MOL0     C 5309   8.971  11.049   7.544  0.3284 -1.0934  0.0382
  781MOL0     C 5310   8.859  11.151   7.580  0.2603  0.1782 -1.0405
  781MOL0     C 5311   8.908  11.259   7.672 -0.4487 -0.7361  0.1053
  781MOL0     C 5312   8.814  11.386   7.685  1.2926 -0.3130 -0.3282
  781MOL0     C 5313   8.673  11.349   7.739 -0.5157  0.5966  0.3707
  781MOL0     C 5314   8.594  11.482   7.749  0.3732  0.6507 -0.6036
  781MOL0     C 5315   8.447  11.448   7.798  0.4480  0.6332  0.5902
  781MOL0     C 5316   8.376  11.581   7.820  0.7624 -0.3980  0.0323
  781MOL0     N 5317   8.352  11.661   7.694 -0.6424  1.2658 -0.0729
  781MOL0     C 5318   8.272  11.638   7.583  0.5134  0.5532 -0.7132
  781MOL0     C 5319   8.229  11.759   7.537 -0.1765 -0.1932 -0.2007
  781MOL0     C 5320   8.124  11.800   7.432 -0.3923  0.1365  0.0408
  781MOL0     C 5321   8.201  11.870   7.318 -0.3190 -0.1467 -0.6551
  781MOL0     C 5322   8.102  11.961   7.232  0.2326  0.1328 -0.1259
  781MOL0     C 5323   7.971  11.883   7.193 -0.2613  0.3348  0.6087
  781MOL0     O 5324   8.004  11.748   7.150 -0.0873  0.6229 -0.0038
  781MOL0     C 5325   7.910  11.667   7.107 -0.3392  0.7803 -0.1791
  781MOL0     C 5326   7.777  11.708   7.078 -0.6954  0.8848 -0.3248
  781MOL0     C 5327   7.689  11.635   7.011 -0.6958  0.0153  1.1614
  781MOL0     C 5328   7.548  11.693   6.998 -0.5263 -0.1898 -0.9752
  781MOL0     C 5329   7.737  11.505   6.964  0.6634  0.2247 -0.5890
  781MOL0     C 5330   7.645  11.418   6.893 -0.6685  0.5324 -0.3221
  781MOL0     O 5331   7.704  11.340   6.805  0.3086 -0.9354 -0.0194
  781MOL0     C 5332   7.630  11.251   6.739 -0.2865  0.3824 -0.1565
  781MOL0     C 5333   7.589  11.136   6.806 -0.0912 -0.7257  0.7757
  781MOL0     C 5334   7.541  11.030   6.740 -0.2367  0.5562 -0.4911
  781MOL0     C 5335   7.505  11.047   6.604  0.3062 -0.1119  0.7902
  781MOL0     O 5336   7.438  10.958   6.532  0.5158  0.0890  0.0076
  781MOL0     C 5337   7.519  10.841   6.504 -0.3106  0.3380 -0.1401
  781MOL0     C 5338   7.443  10.716   6.468  0.8356 -0.2622  1.2998
  781MOL0     C 5339   7.335  10.755   6.355 -0.7491  0.0056  0.4529
  781MOL0     C 5340   7.223  10.647   6.340 -1.1749 -1.3329 -0.9159
  781MOL0     C 5341   7.106  10.706   6.249  0.1094 -0.6796 -0.1355
  781MOL0     C 5342   7.027  10.584   6.222 -0.8687 -0.1284 -0.0046
  781MOL0     C 5343   6.921  10.613   6.122  0.5587  0.3807  1.2781
  781MOL0     C 5344   6.833  10.733   6.153  0.6571 -0.4676  0.5866
  781MOL0    Cl 5345   6.675  10.706   6.059 -0.1255  0.3423 -0.1515
  781MOL0     C 5346   7.552  11.161   6.530  0.0802  0.3885 -0.5233
  781MOL0     C 5347   7.612  11.262   6.602 -0.4569  0.1378 -0.8202
  781MOL0     O 5348   7.523  11.413   6.921  0.0082 -0.3076 -0.3160
  781MOL0     C 5349   7.871  11.461   6.987  0.2449 -0.2666 -0.1779
  781MOL0     C 5350   7.955  11.542   7.056  0.3160 -0.1072 -0.5603
  781MOL0     N 5351   8.304  11.856   7.603  1.4375 -0.5889  0.3234
  781MOL0     N 5352   8.372  11.791   7.696  0.0805 -0.2965  0.6081
  781MOL0     C 5353   9.052  10.775   7.708 -0.3222 -0.1641 -0.3467
  781MOL0     C 5354   9.009  10.652   7.773  0.5757  0.2819  0.3511
  781MOL0     C 5355   8.819  10.334   8.015 -0.6870 -1.1752  0.7486
  781MOL0     C 5356   8.752  10.383   8.131  0.0459 -0.1979  0.0814
  781MOL0     C 5357   8.707  10.291   8.221  0.2011 -0.5010 -0.2002
  781MOL0     C 5358   8.736  10.150   8.216  0.4453  0.2022  0.9268
  781MOL0     O 5359   8.693  10.055   8.312  0.1038 -0.5074  0.4690
  781MOL0     C 5360   8.663  10.109   8.432  0.1876 -0.8902 -0.2852
  781MOL0     C 5361   8.623   9.993   8.530 -0.3087  0.4651  0.7035
  781MOL0     C 5362   8.735   9.891   8.546  0.9671 -0.2330  0.2442
  781MOL0     C 5363   8.701   9.794   8.655 -0.3283  1.2894  0.5055
  781MOL0     C 5364   8.781   9.665   8.648 -0.1980 -0.3806 -0.3811
  781MOL0     C 5365   8.845   9.562   8.678  0.2820 -0.4662 -1.6579
  781MOL0     C 5366   8.788  10.101   8.094 -0.1274 -1.0073  0.2026
  781MOL0     C 5367   8.839  10.193   8.002 -0.9478 -0.3836 -0.1185
  781MOL0     H 5368   8.798  10.797   7.984 -0.1405 -2.0261 -0.1976
  781MOL0     H 5369   8.854  11.004   7.854  3.2598  1.0945 -0.3199
  781MOL0     H 5370   9.034  11.099   7.470 -0.0862 -1.3863 -0.5255
  781MOL0     H 5371   8.945  10.965   7.479  1.8016  1.0852 -3.6975
  781MOL0     H 5372   8.837  11.201   7.485 -0.1886 -1.5930 -1.9159
  781MOL0     H 5373   8.767  11.104   7.617 -0.6656  1.8961 -1.0436
  781MOL0     H 5374   8.946  11.227   7.770 -0.6823  0.6670  0.6901
  781MOL0     H 5375   8.996  11.297   7.619 -1.3278 -2.3609 -2.7248
  781MOL0     H 5376   8.867  11.471   7.730  1.4471 -0.6666  0.1643
  781MOL0     H 5377   8.815  11.409   7.578  0.4745 -0.1895 -0.3107
  781MOL0     H 5378   8.626  11.280   7.669  2.7770 -3.2633  1.6410
  781MOL0     H 5379   8.682  11.294   7.833  0.2320  2.3604  1.3820
  781MOL0     H 5380   8.636  11.537   7.833  0.0494  0.1426 -0.1001
  781MOL0     H 5381   8.601  11.529   7.651  1.5300 -2.9225 -2.4427
  781MOL0     H 5382   8.408  11.395   7.711  2.5691 -0.2861  0.1365
  781MOL0     H 5383   8.430  11.387   7.887  0.4877  0.9174  0.7938
  781MOL0     H 5384   8.431  11.641   7.893  1.6508 -1.5981  0.3863
  781MOL0     H 5385   8.278  11.566   7.867  0.2882  2.7111  0.2533
  781MOL0     H 5386   8.229  11.541   7.562 -1.6510  1.5730 -1.3168
  781MOL0     H 5387   8.069  11.709   7.406 -1.3061  0.9690 -1.0422
  781MOL0     H 5388   8.058  11.874   7.477  1.3116  4.1279 -3.2928
  781MOL0     H 5389   8.253  11.793   7.261  1.3465  0.1045  0.4446
  781MOL0     H 5390   8.283  11.932   7.356 -0.5908 -0.6297  0.7794
  781MOL0     H 5391   8.130  11.999   7.134  2.7509 -3.1256 -0.8303
  781MOL0     H 5392   8.076  12.046   7.295 -2.3510 -0.6632 -0.0239
  781MOL0     H 5393   7.920  11.942   7.117  1.4757 -3.1489 -3.6967
  781MOL0     H 5394   7.914  11.888   7.287  0.3401  0.8377  0.9601
  781MOL0     H 5395   7.731  11.800   7.116 -1.3125  2.5768 -4.6215
  781MOL0     H 5396   7.478  11.622   7.044  1.6545 -2.7141 -1.3250
  781MOL0     H 5397   7.541  11.789   7.050  3.0569 -1.3565  2.1691
  781MOL0     H 5398   7.521  11.721   6.896 -2.1234  1.4343 -0.1620
  781MOL0     H 5399   7.617  11.129   6.910  4.4087  1.1051 -0.0792
  781MOL0     H 5400   7.513  10.942   6.797  2.4576 -0.5411 -0.7402
  781MOL0     H 5401   7.600  10.869   6.436  0.3939  1.2651  1.0602
  781MOL0     H 5402   7.571  10.812   6.595 -0.3057 -2.8194 -1.0130
  781MOL0     H 5403   7.507  10.635   6.431  0.1325 -1.4400  2.5663
  781MOL0     H 5404   7.388  10.681   6.556  0.9379  0.6600  1.7356
  781MOL0     H 5405   7.378  10.765   6.255 -0.5914  2.6507  0.7139
  781MOL0     H 5406   7.274  10.843   6.372 -2.3000 -1.3492  2.3882
  781MOL0     H 5407   7.278  10.567   6.290 -0.4362 -1.4267  0.0208
  781MOL0     H 5408   7.188  10.629   6.442 -4.4003 -0.5510 -1.7860
  781MOL0     H 5409   7.136  10.758   6.158 -3.1216  2.3095  0.3295
  781MOL0     H 5410   7.049  10.778   6.307  0.6124  0.3414 -0.8843
  781MOL0     H 5411   7.089  10.505   6.179  0.6554  1.7343 -1.3798
  781MOL0     H 5412   6.981  10.535   6.309 -1.1126  2.2624  1.3055
  781MOL0     H 5413   6.865  10.520   6.117 -0.0206  0.7596  0.6125
  781MOL0     H 5414   6.958  10.630   6.020 -0.1347 -1.3628  0.6962
  781MOL0     H 5415   6.892  10.820   6.124  1.2873 -1.5008 -1.3928
  781MOL0     H 5416   6.808  10.750   6.259  0.3198 -1.1091  0.6178
  781MOL0     H 5417   7.515  11.165   6.429  3.6381 -1.6436 -2.0827
  781MOL0     H 5418   7.641  11.355   6.555  1.0017 -0.2775 -0.8186
  781MOL0     H 5419   7.894  11.357   6.967  1.7368  0.1594 -0.8553
  781MOL0     H 5420   8.057  11.507   7.065  1.0573  1.4860 -2.1134
  781MOL0     H 5421   9.123  10.768   7.627  0.8293 -2.8637  0.7887
  781MOL0     H 5422   9.052  10.558   7.739 -1.3787 -0.0641 -1.3573
  781MOL0     H 5423   8.734  10.487   8.155  2.6452 -0.1397  2.2224
  781MOL0     H 5424   8.653  10.335   8.304 -2.3300 -6.3028  1.7420
  781MOL0     H 5425   8.746  10.166   8.475 -0.0520 -0.6908 -0.0838
  781MOL0     H 5426   8.578  10.176   8.416  1.3123  0.5388 -0.4532
  781MOL0     H 5427   8.547   9.943   8.469  1.2530  0.4775 -1.3923
  781MOL0     H 5428   8.590  10.030   8.627  2.5568  2.5138  1.0290
  781MOL0     H 5429   8.826   9.948   8.566  2.0409 -1.8731  0.2266
  781MOL0     H 5430   8.749   9.844   8.448 -0.9374  2.0727 -1.2628
  781MOL0     H 5431   8.593   9.778   8.652 -0.2291  0.5447 -2.2413
  781MOL0     H 5432   8.720   9.829   8.757 -1.8503 -1.5635  1.8929
  781MOL0     H 5433   8.908   9.477   8.693 -0.8884 -1.1544 -0.4638
  781MOL0     H 5434   8.778   9.993   8.104  1.4755 -1.0241  2.1627
  781MOL0     H 5435   8.894  10.141   7.924 -1.0725  2.2099 -2.0867
  782MOL0     O 5436   9.746   9.719   2.555  0.6890  0.8993 -0.1094
  782MOL0     C 5437   9.718   9.618   2.625 -0.7306 -0.2373  0.5048
  782MOL0     O 5438   9.612   9.624   2.706  0.6567 -0.1607 -0.5081
  782MOL0     C 5439   9.517   9.725   2.712 -0.6283  0.2485 -0.0059
  782MOL0     C 5440   9.464   9.757   2.840 -0.3804 -0.1563 -0.0147
  782MOL0     C 5441   9.384   9.868   2.854  1.0299 -0.2985 -0.3436
  782MOL0     C 5442   9.356   9.962   2.753  0.3361  0.6725 -1.2556
  782MOL0     O 5443   9.293  10.080   2.764  0.2042 -0.7110 -0.0116
  782MOL0     C 5444   9.300  10.140   2.890 -0.8296 -0.0079  0.5465
  782MOL0     C 5445   9.162  10.127   2.954 -0.1553  1.1375 -0.2882
  782MOL0     C 5446   9.161  10.209   3.080  0.4183  0.2344 -0.5235
  782MOL0     C 5447   9.012  10.225   3.128 -0.3130  0.4727 -0.1890
  782MOL0     C 5448   8.989  10.251   3.282  0.5044 -0.2680 -0.4386
  782MOL0     C 5449   9.037  10.128   3.367 -0.3504 -0.2103 -0.4274
  782MOL0     C 5450   8.994  10.145   3.518  0.9339  1.0630 -0.0516
  782MOL0     C 5451   9.057  10.021   3.599  0.1171 -0.2856  0.2039
  782MOL0     N 5452   9.186  10.054   3.659  0.4153  0.0439  0.8178
  782MOL0     C 5453   9.317  10.005   3.628  0.7402  0.1605  0.6536
  782MOL0     C 5454   9.394  10.057   3.727 -0.5525  1.1569  0.2164
  782MOL0     C 5455   9.543  10.046   3.735  0.2203 -0.0801  0.5138
  782MOL0     C 5456   9.606  10.177   3.721 -0.4507 -0.8765  1.1438
  782MOL0     C 5457   9.761  10.176   3.704 -0.5574 -0.3988 -0.2470
  782MOL0     C 5458   9.806  10.268   3.585  0.4140  0.0280 -0.7764
  782MOL0     O 5459   9.952  10.286   3.577  0.2355 -0.0960  0.4189
  782MOL0     C 5460  10.009  10.378   3.493 -0.3223  0.2449  1.0638
  782MOL0     C 5461   9.943  10.463   3.399 -0.0680 -0.1411 -0.2901
  782MOL0     C 5462  10.013  10.559   3.320 -0.2824 -0.0536 -0.4099
  782MOL0     C 5463   9.932  10.641   3.223  0.3010 -0.6726  0.2441
  782MOL0     C 5464  10.153  10.562   3.331 -0.1334 -0.0034 -0.2936
  782MOL0     C 5465  10.241  10.668   3.274 -0.2953  0.5974 -0.1127
  782MOL0     O 5466  10.360  10.680   3.331 -0.5930 -0.4366 -0.2215
  782MOL0     C 5467  10.468  10.742   3.269  0.2802 -0.9099 -0.8671
  782MOL0     C 5468  10.457  10.876   3.245 -0.3584  0.6114  0.4069
  782MOL0     C 5469  10.557  10.957   3.208  0.0293  0.2500  0.6689
  782MOL0     C 5470  10.674  10.899   3.161  0.5751 -0.1787 -0.5142
  782MOL0     O 5471  10.769  10.979   3.095  0.0902 -0.8487 -0.0722
  782MOL0     C 5472  10.911  10.931   3.106 -0.1015 -0.9671 -0.1485
  782MOL0     C 5473  10.976  11.072   3.093  0.1788 -0.6223 -0.1048
  782MOL0     C 5474  11.105  11.066   3.166  0.8322 -0.1938  0.3778
  782MOL0     C 5475  11.092  11.112   3.311 -0.0855 -0.3371  0.7091
  782MOL0     C 5476  11.160  11.020   3.407 -0.1426  0.1585 -0.2804
  782MOL0     C 5477  11.159  11.076   3.556  0.0258 -0.5928  0.3350
  782MOL0     C 5478  11.239  11.009   3.674  0.4380 -0.2716  0.5689
  782MOL0     C 5479  11.384  11.003   3.648  0.3811 -0.5394 -0.0528
  782MOL0    Cl 5480  11.465  11.153   3.685 -0.1026 -0.6199 -0.0323
  782MOL0     C 5481  10.690  10.760   3.191 -0.2135 -0.5516 -0.1654
  782MOL0     C 5482  10.588  10.685   3.248 -0.4263  0.1229 -0.4399
  782MOL0     O 5483  10.205  10.735   3.178  0.0126  0.4492 -0.4081
  782MOL0     C 5484  10.220  10.475   3.417 -0.4266  0.5686  0.1250
  782MOL0     C 5485  10.149  10.390   3.497  0.2734 -0.0165 -0.2387
  782MOL0     N 5486   9.321  10.136   3.810 -0.4363  1.1131  1.0588
  782MOL0     N 5487   9.199  10.131   3.769  0.3060 -0.3363 -0.7436
  782MOL0     C 5488   9.404   9.918   2.632 -0.4188  0.1390 -0.8584
  782MOL0     C 5489   9.469   9.800   2.609 -0.1257  0.5276 -0.0928
  782MOL0     C 5490   9.816   9.510   2.644  0.4266  0.5570 -0.5023
  782MOL0     C 5491   9.825   9.437   2.763 -1.0495 -0.6826  0.6862
  782MOL0     C 5492   9.916   9.332   2.767  0.6561 -0.1395  0.9505
  782MOL0     C 5493  10.013   9.297   2.668 -0.7828 -0.2894 -0.4799
  782MOL0     O 5494  10.103   9.188   2.687 -0.0988  0.5494  0.2211
  782MOL0     C 5495  10.148   9.110   2.579 -0.3891  0.5838  0.6580
  782MOL0     C 5496  10.285   9.046   2.615 -0.8219 -0.7723  0.7600
  782MOL0     C 5497  10.384   9.159   2.644 -0.8099  0.6323 -0.7788
  782MOL0     C 5498  10.507   9.102   2.716  1.0072 -0.4218 -0.6839
  782MOL0     C 5499  10.556   8.993   2.637 -0.7707  0.2983 -0.0922
  782MOL0     C 5500  10.544   8.906   2.550  0.1500 -0.3477  1.0589
  782MOL0     C 5501   9.995   9.371   2.549 -0.2811 -1.2237 -0.5541
  782MOL0     C 5502   9.897   9.470   2.537  0.2047 -0.0003  0.5206
  782MOL0     H 5503   9.498   9.698   2.924 -0.7633  2.7867  2.3526
  782MOL0     H 5504   9.346   9.891   2.953 -1.6690 -1.4362 -1.0296
  782MOL0     H 5505   9.379  10.095   2.951 -2.1942 -2.5795  0.5797
  782MOL0     H 5506   9.331  10.244   2.884  2.6015 -0.9918 -2.2032
  782MOL0     H 5507   9.086  10.159   2.882 -1.7364  2.1053  1.7114
  782MOL0     H 5508   9.130  10.024   2.973 -0.0136  0.7352 -2.0145
  782MOL0     H 5509   9.222  10.159   3.156 -0.9951 -2.8087 -1.2182
  782MOL0     H 5510   9.192  10.313   3.064  1.1015  0.0473 -0.4266
  782MOL0     H 5511   8.962  10.309   3.079 -0.6727  0.6883  0.5339
  782MOL0     H 5512   8.961  10.131   3.107  3.2350 -1.4859 -0.7688
  782MOL0     H 5513   9.042  10.336   3.327 -1.5142  0.2105  1.1509
  782MOL0     H 5514   8.880  10.256   3.292  0.0664  1.6823 -4.2145
  782MOL0     H 5515   8.994  10.033   3.332 -2.6956 -0.0884  1.7996
  782MOL0     H 5516   9.144  10.118   3.350 -0.4215 -1.1727 -0.3636
  782MOL0     H 5517   9.030  10.243   3.551  0.2213  0.5647  2.3514
  782MOL0     H 5518   8.886  10.141   3.529  0.9292  1.9088  0.3054
  782MOL0     H 5519   9.074   9.933   3.536 -0.4784 -0.9903  1.0090
  782MOL0     H 5520   8.988   9.985   3.676 -1.0471  0.0824 -0.6343
  782MOL0     H 5521   9.355   9.951   3.542 -0.6108 -0.7871  0.6204
  782MOL0     H 5522   9.553   9.997   3.831  0.4280  3.4390  2.4652
  782MOL0     H 5523   9.579   9.985   3.651  3.2579  1.0853  0.8338
  782MOL0     H 5524   9.584  10.249   3.800 -2.5262  0.3787 -0.4961
  782MOL0     H 5525   9.562  10.220   3.631  2.4031 -1.9864 -0.9374
  782MOL0     H 5526   9.807  10.079   3.685  2.8780  1.1381 -0.6611
  782MOL0     H 5527   9.809  10.213   3.795  2.2187 -2.1775 -0.8631
  782MOL0     H 5528   9.774  10.369   3.611 -0.2324 -0.6088  1.0554
  782MOL0     H 5529   9.758  10.240   3.491  0.4353  0.5951 -0.9606
  782MOL0     H 5530   9.835  10.460   3.406  0.0016 -1.8673  0.9245
  782MOL0     H 5531   9.975  10.635   3.122  2.0300 -0.5594  0.9501
  782MOL0     H 5532   9.825  10.622   3.209 -0.1197  1.7658 -0.2822
  782MOL0     H 5533   9.935  10.746   3.253 -1.4852 -0.5069 -0.0410
  782MOL0     H 5534  10.365  10.928   3.269 -1.2961 -0.8205  0.0797
  782MOL0     H 5535  10.541  11.064   3.194  0.3237  0.0406 -1.8267
  782MOL0     H 5536  10.925  10.884   3.204 -0.4807 -2.7998 -0.9332
  782MOL0     H 5537  10.933  10.855   3.031 -1.3999 -2.1544  0.6205
  782MOL0     H 5538  10.974  11.102   2.988  2.3227 -1.6311 -0.5127
  782MOL0     H 5539  10.923  11.152   3.145  2.6512 -0.4119  2.3551
  782MOL0     H 5540  11.174  11.127   3.106  0.9967 -1.0456 -0.3113
  782MOL0     H 5541  11.135  10.961   3.163 -3.3792 -1.5738 -0.2569
  782MOL0     H 5542  11.130  11.213   3.327 -0.9749 -0.1481  1.7521
  782MOL0     H 5543  10.988  11.126   3.342 -0.0989  1.4081 -0.0228
  782MOL0     H 5544  11.267  11.011   3.389 -0.2190 -1.4143 -0.0824
  782MOL0     H 5545  11.116  10.920   3.399 -0.9769  0.6084 -1.7266
  782MOL0     H 5546  11.207  11.174   3.543 -1.6669  0.2674  0.3225
  782MOL0     H 5547  11.061  11.099   3.600  1.2165  1.0785  2.3128
  782MOL0     H 5548  11.199  10.911   3.702  0.3101  0.6721  4.1634
  782MOL0     H 5549  11.218  11.066   3.764  0.3653 -0.8566  0.9269
  782MOL0     H 5550  11.399  10.972   3.545 -2.5993  3.1261 -1.8427
  782MOL0     H 5551  11.428  10.921   3.706  0.9904 -1.0582 -1.2138
  782MOL0     H 5552  10.787  10.717   3.167 -0.1179 -0.0927 -0.6406
  782MOL0     H 5553  10.611  10.580   3.262 -1.9660 -0.3089 -0.9744
  782MOL0     H 5554  10.328  10.469   3.418 -0.3520 -0.0345 -2.8395
  782MOL0     H 5555  10.213  10.340   3.569  0.3343  0.1275 -0.1916
  782MOL0     H 5556   9.395   9.980   2.543 -0.7083  1.5298  0.1240
  782MOL0     H 5557   9.488   9.770   2.506 -1.3200  0.0142 -0.1813
  782MOL0     H 5558   9.754   9.444   2.845 -1.1574 -0.8016  0.6037
  782MOL0     H 5559   9.916   9.257   2.845  4.3056  1.0051  2.2508
  782MOL0     H 5560  10.073   9.037   2.547 -2.3329  1.9519  1.8715
  782MOL0     H 5561  10.157   9.158   2.481  3.9521 -1.7523 -0.3681
  782MOL0     H 5562  10.316   8.991   2.526  1.2581  2.8317 -0.9781
  782MOL0     H 5563  10.269   8.977   2.698  2.5788 -2.5849  0.1114
  782MOL0     H 5564  10.357   9.241   2.711  1.2971 -0.4518  1.5649
  782MOL0     H 5565  10.410   9.205   2.548  1.2092 -1.4011 -1.3077
  782MOL0     H 5566  10.483   9.073   2.818 -0.7230  0.0862 -0.9020
  782MOL0     H 5567  10.577   9.186   2.714 -0.1135  0.5444 -1.6032
  782MOL0     H 5568  10.545   8.829   2.476  0.9762 -0.2873  0.9983
  782MOL0     H 5569  10.045   9.363   2.453 -0.9433  3.0226 -1.4379
  782MOL0     H 5570   9.898   9.520   2.441  1.8457  4.8686  2.7337
  783MOL0     O 5571   0.847   2.222   3.049  1.1444  0.2200  0.5819
  783MOL0     C 5572   0.907   2.110   3.053 -0.1310  0.7954 -0.2201
  783MOL0     O 5573   1.017   2.076   2.988  0.1300 -0.8468  0.9475
  783MOL0     C 5574   1.079   2.188   2.943  0.2245 -0.6221  1.8849
  783MOL0     C 5575   1.197   2.227   2.988  0.9961 -0.1366 -0.1551
  783MOL0     C 5576   1.277   2.321   2.926 -0.2485  0.1273 -0.2321
  783MOL0     C 5577   1.226   2.393   2.824  0.4166 -0.6870 -0.3029
  783MOL0     O 5578   1.288   2.502   2.767 -0.2706  0.7709  0.0925
  783MOL0     C 5579   1.329   2.601   2.860 -0.8336 -0.1226  0.8081
  783MOL0     C 5580   1.368   2.716   2.774  0.0859  0.0463 -0.6636
  783MOL0     C 5581   1.383   2.843   2.854 -0.1324 -0.5816  0.0358
  783MOL0     C 5582   1.465   2.961   2.796 -0.6122  0.4126 -0.0547
  783MOL0     C 5583   1.433   3.092   2.875 -0.1762 -0.4872  0.0489
  783MOL0     C 5584   1.472   3.219   2.783  0.6013 -0.6766  0.5908
  783MOL0     C 5585   1.603   3.209   2.701 -0.0785 -0.9400  0.0700
  783MOL0     C 5586   1.656   3.349   2.670 -0.5902 -1.3694 -0.2123
  783MOL0     N 5587   1.786   3.337   2.589 -0.0802  0.3235  0.6619
  783MOL0     C 5588   1.784   3.383   2.460  0.1524  0.2381  0.2650
  783MOL0     C 5589   1.896   3.339   2.396  0.1454  0.2490  0.8011
  783MOL0     C 5590   1.933   3.372   2.254 -0.4045 -0.3227 -0.3672
  783MOL0     C 5591   2.009   3.498   2.245 -0.2027 -0.1578  0.3089
  783MOL0     C 5592   2.166   3.486   2.252 -0.3785  0.3091 -0.0635
  783MOL0     C 5593   2.234   3.616   2.254 -0.4004  0.2475  0.3624
  783MOL0     O 5594   2.293   3.634   2.124 -0.4212 -0.2046  0.3850
  783MOL0     C 5595   2.271   3.738   2.045  1.4704 -0.3528 -0.9428
  783MOL0     C 5596   2.371   3.829   2.021  0.6234 -0.2445 -0.0492
  783MOL0     C 5597   2.356   3.947   1.945  0.4748 -0.3474  0.7384
  783MOL0     C 5598   2.480   3.999   1.886 -0.8615 -0.0068 -0.2542
  783MOL0     C 5599   2.226   3.993   1.902 -0.2707  1.1323 -0.0009
  783MOL0     C 5600   2.210   4.128   1.829 -0.1303  0.9933 -0.5636
  783MOL0     O 5601   2.301   4.228   1.853  0.3259 -0.0075 -0.5251
  783MOL0     C 5602   2.277   4.344   1.792  0.6489  0.4469 -0.1393
  783MOL0     C 5603   2.352   4.392   1.684  0.2482 -0.3756  1.4044
  783MOL0     C 5604   2.318   4.524   1.632 -0.1215  0.2468 -0.3745
  783MOL0     C 5605   2.221   4.610   1.688 -0.4842  0.0861 -0.3352
  783MOL0     O 5606   2.213   4.732   1.633  0.6489 -0.2385  0.4560
  783MOL0     C 5607   2.139   4.840   1.685  1.4597  0.1993  0.6036
  783MOL0     C 5608   2.222   4.910   1.791 -0.6169  0.5005 -0.2033
  783MOL0     C 5609   2.150   5.020   1.870  0.0310  0.4258  0.5515
  783MOL0     C 5610   2.228   5.047   1.995  0.4087  0.2052  0.2563
  783MOL0     C 5611   2.158   5.141   2.096 -0.8447 -0.4360  0.4992
  783MOL0     C 5612   2.184   5.291   2.057 -0.4539 -0.1462 -0.2360
  783MOL0     C 5613   2.052   5.361   2.039  0.3230 -0.4172  0.4247
  783MOL0     C 5614   1.946   5.338   2.145  0.9658  0.5439 -0.4776
  783MOL0    Cl 5615   1.824   5.469   2.110 -0.0477 -0.3924 -0.4086
  783MOL0     C 5616   2.165   4.558   1.811 -0.2494  0.9369 -0.0589
  783MOL0     C 5617   2.181   4.425   1.856 -0.2514  0.5014  0.8617
  783MOL0     O 5618   2.118   4.126   1.749 -0.0072 -0.4888 -0.5376
  783MOL0     C 5619   2.124   3.895   1.922 -0.2055 -1.1013  0.1274
  783MOL0     C 5620   2.145   3.777   1.991  0.0462  1.1140 -0.2787
  783MOL0     N 5621   1.961   3.260   2.484 -1.1817 -0.4848  0.5607
  783MOL0     N 5622   1.896   3.255   2.598 -0.9222  0.4015  0.5827
  783MOL0     C 5623   1.090   2.373   2.788 -0.1667  0.3804  0.0156
  783MOL0     C 5624   1.020   2.265   2.832 -0.4071  0.2328 -0.5577
  783MOL0     C 5625   0.838   2.010   3.139 -0.5328  0.6940 -0.0956
  783MOL0     C 5626   0.881   1.877   3.125  0.8838  0.4643 -0.1511
  783MOL0     C 5627   0.838   1.780   3.217  0.1243  0.3398 -0.5637
  783MOL0     C 5628   0.732   1.800   3.299  0.1323 -0.5622  0.0473
  783MOL0     O 5629   0.683   1.685   3.357 -0.2594  0.1398  0.4590
  783MOL0     C 5630   0.679   1.682   3.496  0.4705 -0.9586 -0.2422
  783MOL0     C 5631   0.752   1.557   3.566 -0.7756 -0.2665 -0.6832
  783MOL0     C 5632   0.709   1.412   3.538 -0.2261 -0.3118  0.0992
  783MOL0     C 5633   0.563   1.378   3.579  0.3538 -0.9142 -0.3554
  783MOL0     C 5634   0.521   1.440   3.708  0.7070 -0.4988  0.0699
  783MOL0     C 5635   0.479   1.497   3.801  0.1456  0.4072  0.2632
  783MOL0     C 5636   0.675   1.927   3.297  0.0698 -0.6104  0.3928
  783MOL0     C 5637   0.726   2.027   3.214  0.1204  0.1660  0.7508
  783MOL0     H 5638   1.243   2.156   3.055  1.1767  0.5786  0.4853
  783MOL0     H 5639   1.376   2.340   2.966 -0.3714  0.8906 -0.2656
  783MOL0     H 5640   1.252   2.633   2.931  1.0382  0.9167  2.4457
  783MOL0     H 5641   1.409   2.555   2.918 -0.3683  2.2763  2.1992
  783MOL0     H 5642   1.460   2.687   2.722 -0.8367  2.3980 -3.9623
  783MOL0     H 5643   1.298   2.734   2.692  0.8745  0.7318 -1.2034
  783MOL0     H 5644   1.285   2.872   2.892 -0.3265  0.5609 -1.2857
  783MOL0     H 5645   1.445   2.821   2.942  0.0859 -1.9867 -0.4447
  783MOL0     H 5646   1.571   2.934   2.789 -0.1346  1.7126  1.5777
  783MOL0     H 5647   1.429   2.969   2.693  1.3964 -2.1114 -1.0729
  783MOL0     H 5648   1.325   3.083   2.894 -0.0485 -1.9584  0.2016
  783MOL0     H 5649   1.481   3.106   2.972 -2.5112  1.3343  1.0544
  783MOL0     H 5650   1.391   3.243   2.714  3.0851  3.9806 -1.1143
  783MOL0     H 5651   1.485   3.298   2.857  0.3004  0.2879 -0.3618
  783MOL0     H 5652   1.675   3.154   2.763 -0.2515 -0.6458  0.5448
  783MOL0     H 5653   1.579   3.152   2.611 -1.3466 -1.3364  0.6327
  783MOL0     H 5654   1.673   3.406   2.762  2.5148  0.7180 -1.9034
  783MOL0     H 5655   1.580   3.403   2.613 -0.8262 -0.3866  0.9868
  783MOL0     H 5656   1.701   3.440   2.421  1.7269  2.0723 -0.5145
  783MOL0     H 5657   1.982   3.295   2.193 -1.7153 -2.5279  1.2227
  783MOL0     H 5658   1.836   3.380   2.204 -0.9974  0.1810  0.8350
  783MOL0     H 5659   1.977   3.567   2.325  0.0153 -0.4358  0.6386
  783MOL0     H 5660   1.986   3.551   2.153  0.7717  1.0736  0.7335
  783MOL0     H 5661   2.212   3.422   2.176  1.7860  1.1403  0.4604
  783MOL0     H 5662   2.195   3.433   2.344  1.3336  0.3751 -0.5377
  783MOL0     H 5663   2.323   3.601   2.315 -0.0066  0.5478 -0.1241
  783MOL0     H 5664   2.175   3.700   2.292 -1.6535 -0.6335  0.4083
  783MOL0     H 5665   2.474   3.798   2.036  0.5738  0.0965  1.0655
  783MOL0     H 5666   2.474   4.025   1.780 -0.3632 -2.3037 -0.9174
  783MOL0     H 5667   2.501   4.095   1.934 -1.9885  0.7219 -1.1852
  783MOL0     H 5668   2.571   3.943   1.909  0.1480  2.1824  1.4568
  783MOL0     H 5669   2.426   4.326   1.639 -1.0635  0.2164 -1.9687
  783MOL0     H 5670   2.354   4.559   1.535  1.3678 -1.5000 -0.5125
  783MOL0     H 5671   2.120   4.907   1.601  1.8899 -0.5957 -0.1500
  783MOL0     H 5672   2.043   4.806   1.726  0.3595  1.4014 -0.8699
  783MOL0     H 5673   2.247   4.823   1.851 -0.7849  0.8100  0.3205
  783MOL0     H 5674   2.318   4.948   1.755  0.3594 -0.3275  1.4274
  783MOL0     H 5675   2.048   4.992   1.898  1.1179 -3.4949  1.1520
  783MOL0     H 5676   2.143   5.110   1.809 -1.5361 -1.3305 -2.0747
  783MOL0     H 5677   2.233   4.946   2.038  4.5458 -0.2970 -0.8903
  783MOL0     H 5678   2.330   5.073   1.965 -0.7888  2.6059 -2.1680
  783MOL0     H 5679   2.203   5.131   2.196 -3.1543 -0.3221  1.6279
  783MOL0     H 5680   2.055   5.116   2.125 -0.5688  1.2869  3.3180
  783MOL0     H 5681   2.228   5.337   2.146  1.6775  1.2867 -1.9538
  783MOL0     H 5682   2.254   5.313   1.977  1.1212 -1.4037  0.7362
  783MOL0     H 5683   2.008   5.345   1.940 -3.4565  1.7640  1.5373
  783MOL0     H 5684   2.074   5.468   2.038  0.5515 -0.4662 -0.5010
  783MOL0     H 5685   1.986   5.336   2.246  0.3314  4.2145 -0.0172
  783MOL0     H 5686   1.896   5.243   2.126  1.0876  0.3203  0.3007
  783MOL0     H 5687   2.096   4.622   1.865 -0.4495  1.2644 -0.6829
  783MOL0     H 5688   2.122   4.386   1.938 -2.1103  1.1377 -0.1166
  783MOL0     H 5689   2.026   3.919   1.880  0.3980  2.0169  0.2190
  783MOL0     H 5690   2.068   3.704   2.013  1.7082 -0.8160 -0.5245
  783MOL0     H 5691   1.037   2.445   2.727  1.5730  1.6449 -0.0485
  783MOL0     H 5692   0.920   2.242   2.798 -0.4614 -0.9583  0.3219
  783MOL0     H 5693   0.976   1.861   3.074  0.4209 -2.3644 -0.3148
  783MOL0     H 5694   0.872   1.680   3.196  3.2083  0.5116  2.6746
  783MOL0     H 5695   0.729   1.774   3.527 -2.8715  2.3787 -3.6058
  783MOL0     H 5696   0.574   1.688   3.526  0.9264  4.3568  1.3490
  783MOL0     H 5697   0.750   1.581   3.673 -1.2965  3.1522 -1.3419
  783MOL0     H 5698   0.858   1.567   3.541 -0.3762 -2.6830 -0.2448
  783MOL0     H 5699   0.768   1.342   3.597  0.6730 -0.4166 -0.8881
  783MOL0     H 5700   0.731   1.375   3.437 -2.1971 -0.0831 -0.4695
  783MOL0     H 5701   0.551   1.269   3.579 -1.0389 -0.8128  1.7713
  783MOL0     H 5702   0.491   1.411   3.504 -2.5160 -1.2040  2.0792
  783MOL0     H 5703   0.450   1.514   3.903  0.0903 -1.2112  0.5467
  783MOL0     H 5704   0.583   1.936   3.353 -0.6568 -1.0737 -0.6827
  783MOL0     H 5705   0.671   2.121   3.207  0.1993  0.2933  1.6646
  784MOL0     O 5706   3.465   8.923   9.605 -0.0775  1.0654 -0.0629
  784MOL0     C 5707   3.534   8.825   9.595 -0.5434  0.1682 -1.1064
  784MOL0     O 5708   3.510   8.702   9.651 -0.1433 -0.1504 -0.6994
  784MOL0     C 5709   3.388   8.674   9.702 -0.5252  0.3938  0.2745
  784MOL0     C 5710   3.350   8.534   9.690 -0.3319  0.3889 -0.0713
  784MOL0     C 5711   3.221   8.494   9.741 -0.7248 -0.3295  0.9245
  784MOL0     C 5712   3.140   8.586   9.804 -0.2706 -0.5496 -1.4741
  784MOL0     O 5713   3.020   8.538   9.857 -0.9107  0.3379 -0.1266
  784MOL0     C 5714   3.026   8.510   9.999  0.2701 -0.5602 -0.1729
  784MOL0     C 5715   2.892   8.560  10.064 -0.6210  0.7349  0.1031
  784MOL0     C 5716   2.781   8.469  10.016 -0.0744  0.6064 -0.7997
  784MOL0     C 5717   2.650   8.478  10.102  0.9172 -0.0851  0.9341
  784MOL0     C 5718   2.586   8.335  10.085  0.2582  0.5132  0.1133
  784MOL0     C 5719   2.646   8.222  10.169  0.6279  0.0157 -0.4514
  784MOL0     C 5720   2.578   8.088  10.150  0.1880 -0.8899 -0.0768
  784MOL0     C 5721   2.608   8.006  10.268 -0.1536  0.4941 -1.2267
  784MOL0     N 5722   2.577   7.865  10.258  0.1039  0.1923  0.4405
  784MOL0     C 5723   2.480   7.786  10.321 -0.1863 -0.4055  0.8203
  784MOL0     C 5724   2.508   7.659  10.289  0.0448 -0.4185  0.6030
  784MOL0     C 5725   2.430   7.547  10.341  0.4539 -0.0350 -0.9651
  784MOL0     C 5726   2.507   7.422  10.326 -0.5651  0.3268  0.0252
  784MOL0     C 5727   2.425   7.292  10.363  0.8797  0.6553 -0.4225
  784MOL0     C 5728   2.318   7.243  10.267 -0.5820 -0.9830 -0.1559
  784MOL0     O 5729   2.255   7.136  10.330  0.5650 -0.1086 -0.0222
  784MOL0     C 5730   2.315   7.016  10.324  1.7706  0.8030  0.7290
  784MOL0     C 5731   2.436   6.973  10.272 -0.2306 -0.2222  1.2932
  784MOL0     C 5732   2.479   6.841  10.267 -0.1718 -0.2642  0.6097
  784MOL0     C 5733   2.611   6.807  10.204 -0.2084  0.4878  0.0067
  784MOL0     C 5734   2.386   6.739  10.320 -0.4529 -0.0370  0.9608
  784MOL0     C 5735   2.402   6.600  10.304 -0.3849  0.2586 -0.1074
  784MOL0     O 5736   2.303   6.517  10.248  0.3652 -0.0559 -0.2217
  784MOL0     C 5737   2.313   6.385  10.265  0.8468 -0.0420  0.3726
  784MOL0     C 5738   2.256   6.332  10.385 -0.0476 -0.3722  0.7371
  784MOL0     C 5739   2.261   6.192  10.405 -0.5543  0.5883  0.4839
  784MOL0     C 5740   2.328   6.108  10.315  0.4605  0.5712  0.0374
  784MOL0     O 5741   2.349   5.978  10.347  0.1320 -0.5954 -0.4302
  784MOL0     C 5742   2.425   5.883  10.266 -0.1924  0.5066  0.0927
  784MOL0     C 5743   2.403   5.737  10.315 -0.7186 -0.1707 -0.6820
  784MOL0     C 5744   2.524   5.656  10.368 -0.4783  0.1497 -0.3411
  784MOL0     C 5745   2.603   5.741  10.466 -0.5091 -0.0300 -0.0869
  784MOL0     C 5746   2.519   5.759  10.596 -0.7304 -0.1514  0.4009
  784MOL0     C 5747   2.594   5.804  10.717 -0.2807 -0.2075 -0.8227
  784MOL0     C 5748   2.711   5.714  10.763 -1.5897 -0.4079 -0.1389
  784MOL0     C 5749   2.788   5.766  10.880  0.0792 -0.3353  0.5812
  784MOL0    Cl 5750   2.905   5.904  10.841 -0.6949  0.5824 -0.0379
  784MOL0     C 5751   2.378   6.166  10.199 -0.2211  0.5846 -0.6418
  784MOL0     C 5752   2.370   6.299  10.173  0.4094  0.0867  0.4266
  784MOL0     O 5753   2.498   6.555  10.359  0.6167  0.1443 -0.1262
  784MOL0     C 5754   2.271   6.786  10.376  0.4559 -0.3715 -0.5583
  784MOL0     C 5755   2.230   6.920  10.380  1.3997 -0.1026  0.8216
  784MOL0     N 5756   2.626   7.656  10.213 -0.4438 -0.2080 -0.0795
  784MOL0     N 5757   2.661   7.777  10.205 -0.7148 -0.5786  0.7207
  784MOL0     C 5758   3.179   8.714   9.814  0.2225 -0.1016 -0.3297
  784MOL0     C 5759   3.296   8.759   9.763 -0.6491 -0.1820  0.2462
  784MOL0     C 5760   3.668   8.835   9.533 -0.4979 -0.2069  0.2199
  784MOL0     C 5761   3.729   8.962   9.507  0.5859  0.2573  0.2539
  784MOL0     C 5762   3.845   8.963   9.439  0.8688  0.2008  0.3191
  784MOL0     C 5763   3.915   8.850   9.412  0.2689  0.1844 -0.4392
  784MOL0     O 5764   4.031   8.876   9.344 -1.2108 -0.2023 -0.4950
  784MOL0     C 5765   4.140   8.785   9.388 -0.1440 -0.6578  0.5909
  784MOL0     C 5766   4.278   8.837   9.324 -0.2952  0.4569  0.0686
  784MOL0     C 5767   4.273   8.832   9.172  0.1763 -0.2227  0.4649
  784MOL0     C 5768   4.395   8.906   9.109 -0.4768  0.1295  1.0268
  784MOL0     C 5769   4.386   9.047   9.098  0.8218 -0.0600 -0.0760
  784MOL0     C 5770   4.391   9.162   9.082 -0.1920 -0.4717  0.8188
  784MOL0     C 5771   3.858   8.724   9.441 -0.1207 -0.7913 -1.2366
  784MOL0     C 5772   3.736   8.716   9.501  0.1617 -0.7842 -0.6243
  784MOL0     H 5773   3.416   8.469   9.634 -0.9803  0.1893 -0.6103
  784MOL0     H 5774   3.184   8.396   9.714  0.4413 -0.9462  1.5033
  784MOL0     H 5775   3.044   8.404  10.020 -0.6765 -0.3085  2.2900
  784MOL0     H 5776   3.114   8.556  10.046 -1.1410  2.2626 -0.1430
  784MOL0     H 5777   2.886   8.552  10.173  0.9457 -0.3175  0.1488
  784MOL0     H 5778   2.862   8.656  10.021 -1.1130 -0.9172 -3.6185
  784MOL0     H 5779   2.747   8.490   9.915  1.5426 -2.8947 -2.2180
  784MOL0     H 5780   2.825   8.370  10.020  0.3647  0.8173 -0.2559
  784MOL0     H 5781   2.674   8.498  10.206 -0.7446  0.4737  1.2296
  784MOL0     H 5782   2.577   8.552  10.068  1.5464  0.0307 -0.2219
  784MOL0     H 5783   2.481   8.337  10.115  0.0184 -2.3444 -0.2420
  784MOL0     H 5784   2.585   8.299   9.981  3.1564 -0.4648  0.3369
  784MOL0     H 5785   2.752   8.204  10.153  0.6943 -0.1122  0.1070
  784MOL0     H 5786   2.624   8.262  10.268  1.2900 -0.0468 -0.2762
  784MOL0     H 5787   2.471   8.089  10.131  0.1100 -0.7166  0.3722
  784MOL0     H 5788   2.624   8.045  10.060 -0.8440  0.1757 -1.1423
  784MOL0     H 5789   2.547   8.051  10.347 -0.4572  3.0641 -2.7908
  784MOL0     H 5790   2.715   8.006  10.292 -0.8809  0.6229  2.7805
  784MOL0     H 5791   2.392   7.815  10.377  0.1465  1.0587  0.6314
  784MOL0     H 5792   2.414   7.564  10.448  0.5856  1.8390 -1.2186
  784MOL0     H 5793   2.333   7.535  10.292  0.7690 -0.0608 -1.5992
  784MOL0     H 5794   2.580   7.423  10.407 -2.4716 -1.0793  1.8955
  784MOL0     H 5795   2.550   7.409  10.227 -3.4792  2.7544 -1.7330
  784MOL0     H 5796   2.378   7.293  10.462 -0.6149 -0.9440 -1.0428
  784MOL0     H 5797   2.502   7.214  10.369  0.6115  0.0662 -3.1281
  784MOL0     H 5798   2.366   7.230  10.170  0.7639  0.9908  0.1681
  784MOL0     H 5799   2.249   7.325  10.246 -0.4526 -0.8617 -0.1153
  784MOL0     H 5800   2.505   7.052  10.245  2.2147 -1.1039  4.4176
  784MOL0     H 5801   2.638   6.874  10.122 -1.4982  0.1161 -0.7520
  784MOL0     H 5802   2.686   6.813  10.283  0.1811 -0.5894 -0.2554
  784MOL0     H 5803   2.603   6.707  10.159  1.2088  0.9335 -1.3283
  784MOL0     H 5804   2.209   6.399  10.458 -1.4777  0.2737 -0.7144
  784MOL0     H 5805   2.196   6.148  10.480 -1.2493 -3.3227 -2.0872
  784MOL0     H 5806   2.399   5.886  10.160 -1.3392 -1.9396  0.2171
  784MOL0     H 5807   2.530   5.912  10.274 -0.5878  2.7025 -1.7846
  784MOL0     H 5808   2.354   5.732  10.412 -3.3908  0.5624 -1.9188
  784MOL0     H 5809   2.351   5.681  10.238  2.2488 -1.5509 -1.8247
  784MOL0     H 5810   2.603   5.638  10.295 -0.3823  0.2956 -0.2740
  784MOL0     H 5811   2.498   5.562  10.418 -1.1129  1.4920  2.0100
  784MOL0     H 5812   2.690   5.682  10.497  0.2635  0.3332 -1.5014
  784MOL0     H 5813   2.631   5.838  10.423  1.0265 -0.5657 -0.3548
  784MOL0     H 5814   2.479   5.660  10.620  0.3986 -0.2358  2.1668
  784MOL0     H 5815   2.433   5.824  10.585 -0.6934  0.0461  1.2147
  784MOL0     H 5816   2.631   5.904  10.695 -1.6673  0.1370 -1.7987
  784MOL0     H 5817   2.531   5.808  10.806 -0.4618  1.0564 -0.9963
  784MOL0     H 5818   2.786   5.713  10.684 -0.4556  2.2586  0.7794
  784MOL0     H 5819   2.675   5.612  10.781  0.1789 -1.8764 -3.8941
  784MOL0     H 5820   2.848   5.687  10.926  0.0661 -0.2970  0.6650
  784MOL0     H 5821   2.717   5.804  10.955 -1.0502  0.2793 -0.7612
  784MOL0     H 5822   2.442   6.118  10.126 -2.1741 -1.0618 -1.3586
  784MOL0     H 5823   2.421   6.332  10.083  0.8544 -2.7195 -0.4205
  784MOL0     H 5824   2.213   6.718  10.438  1.9858  0.2907  1.7581
  784MOL0     H 5825   2.129   6.946  10.411  0.3061 -4.5787  1.6930
  784MOL0     H 5826   3.109   8.790   9.847  0.7184  0.5581 -0.7619
  784MOL0     H 5827   3.303   8.866   9.784 -1.8659 -0.4777  2.5051
  784MOL0     H 5828   3.674   9.054   9.524  1.3593  1.0640 -1.3366
  784MOL0     H 5829   3.897   9.056   9.421  0.2933  0.5299  0.3086
  784MOL0     H 5830   4.150   8.791   9.497  2.6272 -1.2309  0.4409
  784MOL0     H 5831   4.131   8.681   9.358  5.6543 -2.1414  2.7201
  784MOL0     H 5832   4.346   8.761   9.363 -1.0240 -0.4349 -0.3553
  784MOL0     H 5833   4.329   8.922   9.371  2.2097 -1.5909  1.3172
  784MOL0     H 5834   4.182   8.885   9.142 -1.2941 -2.3365  0.9796
  784MOL0     H 5835   4.267   8.731   9.131  3.6101 -1.0247  1.6532
  784MOL0     H 5836   4.405   8.856   9.012 -1.6533 -0.1241  1.0163
  784MOL0     H 5837   4.492   8.876   9.149 -0.1583 -1.3477 -0.7529
  784MOL0     H 5838   4.396   9.269   9.081  2.6558 -0.5260  0.5939
  784MOL0     H 5839   3.915   8.633   9.425  0.4855 -0.0795 -3.4908
  784MOL0     H 5840   3.703   8.619   9.535  0.3181 -0.6699 -0.1379
  785MOL0     O 5841   9.356  11.161   1.018 -0.2486  1.1044  0.0985
  785MOL0     C 5842   9.411  11.253   1.085  0.2361  0.1358  0.9289
  785MOL0     O 5843   9.370  11.302   1.200  0.1360  0.0616  0.7605
  785MOL0     C 5844   9.260  11.259   1.277 -0.4670 -0.5614 -0.6139
  785MOL0     C 5845   9.243  11.331   1.397  0.1315  0.7275  0.8081
  785MOL0     C 5846   9.143  11.302   1.483 -0.0988  0.9655 -0.0126
  785MOL0     C 5847   9.052  11.195   1.460 -0.1679  1.3905  0.0861
  785MOL0     O 5848   8.952  11.163   1.548  0.2519 -0.3358 -0.5879
  785MOL0     C 5849   8.999  11.171   1.683 -0.2582  0.2701 -0.9298
  785MOL0     C 5850   8.902  11.101   1.786  0.3018 -0.5583  0.7876
  785MOL0     C 5851   8.896  10.947   1.758 -0.3004  0.2792  0.2206
  785MOL0     C 5852   8.831  10.879   1.888  0.2577 -0.8818  0.9850
  785MOL0     C 5853   8.809  10.731   1.857 -0.4743  0.1218 -0.0833
  785MOL0     C 5854   8.796  10.634   1.972  0.0665 -0.4631 -0.2632
  785MOL0     C 5855   8.685  10.671   2.071  0.6510  0.8168  0.2129
  785MOL0     C 5856   8.676  10.572   2.197  0.4525  0.5586 -0.0261
  785MOL0     N 5857   8.560  10.603   2.288 -0.2993 -0.6063  0.9027
  785MOL0     C 5858   8.487  10.712   2.281 -0.7338 -0.2113  0.2403
  785MOL0     C 5859   8.381  10.689   2.362  0.0116  1.2083  0.2693
  785MOL0     C 5860   8.269  10.793   2.385 -0.5568  0.0659  0.2336
  785MOL0     C 5861   8.140  10.747   2.332  0.5622 -0.1300 -0.2113
  785MOL0     C 5862   8.151  10.781   2.189 -0.9226 -0.3948  0.4873
  785MOL0     C 5863   8.046  10.716   2.094  0.3222  0.5732  0.8718
  785MOL0     O 5864   8.109  10.636   1.990 -0.1290  0.4106  0.0640
  785MOL0     C 5865   8.188  10.531   2.034 -0.0922  1.5866  0.4344
  785MOL0     C 5866   8.299  10.503   1.956 -0.5407  0.1561 -0.2174
  785MOL0     C 5867   8.379  10.394   1.984 -0.3817  0.3928  0.3485
  785MOL0     C 5868   8.500  10.385   1.886  0.1533 -0.0801 -0.0284
  785MOL0     C 5869   8.364  10.300   2.090 -0.8522 -0.0079  0.5663
  785MOL0     C 5870   8.464  10.198   2.140 -0.3823  0.4331  0.2039
  785MOL0     O 5871   8.428  10.132   2.252  0.4211 -0.2602 -0.3100
  785MOL0     C 5872   8.466  10.004   2.274 -0.0938  0.3925  1.1672
  785MOL0     C 5873   8.459   9.957   2.405 -0.7843 -0.4527  0.0324
  785MOL0     C 5874   8.462   9.818   2.445  0.1722 -0.1693 -0.2741
  785MOL0     C 5875   8.453   9.731   2.339 -0.0449  0.4250  0.2860
  785MOL0     O 5876   8.465   9.599   2.369  0.5061  0.0326 -0.6030
  785MOL0     C 5877   8.361   9.535   2.442 -0.2888  0.1052 -0.5636
  785MOL0     C 5878   8.227   9.530   2.370  0.3362 -1.0689  0.3274
  785MOL0     C 5879   8.126   9.454   2.461 -1.8158  0.2249  0.0900
  785MOL0     C 5880   7.996   9.441   2.380 -0.3497  0.1832 -0.5986
  785MOL0     C 5881   7.883   9.383   2.473 -0.7344 -0.6234 -0.5021
  785MOL0     C 5882   7.811   9.497   2.541  0.1896 -0.1359 -0.4956
  785MOL0     C 5883   7.744   9.433   2.665 -0.8141  1.0316 -0.4824
  785MOL0     C 5884   7.682   9.530   2.764 -0.1111 -0.0325 -0.0716
  785MOL0    Cl 5885   7.536   9.595   2.679  0.1221  0.4354  0.1581
  785MOL0     C 5886   8.459   9.773   2.204 -1.1856  0.7741 -0.3608
  785MOL0     C 5887   8.470   9.909   2.171  0.6190 -0.5144 -0.0013
  785MOL0     O 5888   8.564  10.182   2.075  0.2534  0.6476 -0.3382
  785MOL0     C 5889   8.248  10.325   2.163 -0.3348  0.8504 -0.2798
  785MOL0     C 5890   8.167  10.435   2.132  1.1264 -0.3225 -0.1208
  785MOL0     N 5891   8.397  10.562   2.419  0.6340 -0.4746 -0.0194
  785MOL0     N 5892   8.501  10.515   2.369 -1.3416  0.3089  0.3206
  785MOL0     C 5893   9.078  11.108   1.343  0.2692 -1.1827  0.6508
  785MOL0     C 5894   9.168  11.149   1.253  0.6444  0.1987  0.3599
  785MOL0     C 5895   9.550  11.295   1.045 -0.1612  0.0963 -0.2420
  785MOL0     C 5896   9.591  11.428   1.059  0.0742  0.0498  0.1571
  785MOL0     C 5897   9.715  11.470   1.021 -0.1986  0.9992 -0.4537
  785MOL0     C 5898   9.806  11.382   0.973  0.7757  1.2333 -0.5692
  785MOL0     O 5899   9.932  11.424   0.957 -0.8366  0.8831  0.3964
  785MOL0     C 5900  10.041  11.364   1.027  0.1429 -0.2948  0.8521
  785MOL0     C 5901  10.158  11.311   0.936 -0.2926  1.5611  0.7056
  785MOL0     C 5902  10.264  11.411   0.883  0.2338  0.3393  0.2176
  785MOL0     C 5903  10.204  11.541   0.826 -0.6979 -0.1058  0.2927
  785MOL0     C 5904  10.135  11.499   0.696  1.0764  1.3463 -0.1562
  785MOL0     C 5905  10.081  11.469   0.595 -0.1462 -0.9265 -0.3461
  785MOL0     C 5906   9.775  11.244   0.969  0.1992 -0.5789 -0.0127
  785MOL0     C 5907   9.643  11.204   0.993 -0.5987  0.7017 -0.1953
  785MOL0     H 5908   9.312  11.414   1.409 -0.9834  1.3675  3.7898
  785MOL0     H 5909   9.137  11.376   1.562  1.1456 -0.8317  1.8744
  785MOL0     H 5910   9.104  11.140   1.693 -0.3086  0.2141 -0.5901
  785MOL0     H 5911   9.008  11.277   1.707  0.9779  0.2177 -1.0988
  785MOL0     H 5912   8.930  11.118   1.890 -1.4647 -0.1816  1.2331
  785MOL0     H 5913   8.797  11.129   1.771 -0.1280 -2.2107  0.5516
  785MOL0     H 5914   8.848  10.917   1.665  1.8782 -0.6746 -0.6844
  785MOL0     H 5915   8.997  10.907   1.740 -1.8104 -3.3694 -0.9135
  785MOL0     H 5916   8.884  10.897   1.982 -1.9706  0.0669  2.1267
  785MOL0     H 5917   8.737  10.935   1.893 -0.4969 -1.8516 -0.9376
  785MOL0     H 5918   8.718  10.738   1.796 -0.2151 -0.6527 -0.5808
  785MOL0     H 5919   8.886  10.686   1.794 -0.8740  0.0926 -0.5593
  785MOL0     H 5920   8.776  10.533   1.934 -0.2802 -0.9863  1.2375
  785MOL0     H 5921   8.895  10.619   2.016  1.1362 -0.0208 -2.3891
  785MOL0     H 5922   8.708  10.767   2.119  1.7749  0.4009  0.5500
  785MOL0     H 5923   8.588  10.670   2.020  1.2894  1.9572 -1.1113
  785MOL0     H 5924   8.765  10.555   2.258 -0.3190 -2.0982  0.5031
  785MOL0     H 5925   8.650  10.478   2.148  1.0018 -0.3335  1.3580
  785MOL0     H 5926   8.512  10.803   2.229  1.1552 -1.2541 -0.7615
  785MOL0     H 5927   8.269  10.809   2.493  0.7282  1.6574  0.0444
  785MOL0     H 5928   8.294  10.892   2.346  2.0586 -0.0316  1.4040
  785MOL0     H 5929   8.060  10.811   2.372  2.7595  2.8142 -0.1495
  785MOL0     H 5930   8.141  10.644   2.366  4.2071 -0.8106 -1.9213
  785MOL0     H 5931   8.255  10.766   2.160 -0.5085 -3.0208  2.9616
  785MOL0     H 5932   8.122  10.887   2.184  1.8881  0.4017 -1.4563
  785MOL0     H 5933   7.984  10.786   2.037  0.1789 -0.1181  0.1503
  785MOL0     H 5934   7.972  10.653   2.144  0.1307  0.6090  0.6399
  785MOL0     H 5935   8.324  10.568   1.874  1.9989 -0.1309  0.2393
  785MOL0     H 5936   8.503  10.472   1.820 -2.2023 -0.6395 -0.9806
  785MOL0     H 5937   8.601  10.376   1.925  0.9523 -1.6548 -2.2960
  785MOL0     H 5938   8.489  10.294   1.826 -1.9844  0.9501 -1.3353
  785MOL0     H 5939   8.451  10.038   2.476  2.2831  0.9762 -1.0986
  785MOL0     H 5940   8.464   9.803   2.552 -4.6135  0.5007  0.1336
  785MOL0     H 5941   8.390   9.431   2.463  1.1961  0.3753 -1.1054
  785MOL0     H 5942   8.343   9.589   2.535 -0.6234 -0.7435 -0.1265
  785MOL0     H 5943   8.182   9.628   2.354 -2.5653 -1.9007  2.6307
  785MOL0     H 5944   8.235   9.477   2.274  2.2528  1.9290 -1.3523
  785MOL0     H 5945   8.113   9.502   2.559  0.0020 -2.6072  1.8762
  785MOL0     H 5946   8.175   9.359   2.485 -0.8264  1.4351  3.4914
  785MOL0     H 5947   7.955   9.535   2.342 -1.3264  0.1248  0.2656
  785MOL0     H 5948   8.009   9.381   2.290  1.4917 -0.8964  0.3065
  785MOL0     H 5949   7.937   9.318   2.543  1.1700 -2.6260 -3.6207
  785MOL0     H 5950   7.809   9.325   2.417  0.6745 -1.8617 -1.1369
  785MOL0     H 5951   7.865   9.581   2.585  0.7020 -0.4702 -0.4737
  785MOL0     H 5952   7.736   9.537   2.473 -1.9916 -1.9329  0.6928
  785MOL0     H 5953   7.818   9.371   2.717 -1.3673 -0.6431 -1.6448
  785MOL0     H 5954   7.671   9.360   2.632 -0.5360  0.9819 -0.9948
  785MOL0     H 5955   7.748   9.616   2.778  0.7673 -0.5560 -0.9278
  785MOL0     H 5956   7.667   9.478   2.859 -0.2241  1.4669  0.7581
  785MOL0     H 5957   8.452   9.709   2.117  1.1470  2.3721 -1.8425
  785MOL0     H 5958   8.472   9.938   2.066  6.9260  0.4024 -0.0186
  785MOL0     H 5959   8.242  10.268   2.254  3.9240 -0.0088 -0.3088
  785MOL0     H 5960   8.082  10.446   2.199  2.0947 -1.7989  1.4022
  785MOL0     H 5961   8.996  11.038   1.329  0.5348 -1.9047  2.4549
  785MOL0     H 5962   9.189  11.086   1.167  2.0859  0.0286  0.8057
  785MOL0     H 5963   9.534  11.506   1.107  0.2758 -0.4872  1.2916
  785MOL0     H 5964   9.747  11.573   1.014  0.1848  1.1885  2.6585
  785MOL0     H 5965  10.074  11.439   1.100 -0.2634  0.5922  0.1415
  785MOL0     H 5966  10.014  11.273   1.081  3.4218 -1.0956  1.3723
  785MOL0     H 5967  10.119  11.250   0.853  1.1850 -1.5660  2.1132
  785MOL0     H 5968  10.209  11.235   0.997 -3.0420 -0.9186  0.1393
  785MOL0     H 5969  10.318  11.369   0.798  0.6937  0.0740  0.6383
  785MOL0     H 5970  10.328  11.434   0.969  1.4828 -0.0209 -0.6011
  785MOL0     H 5971  10.288  11.610   0.811 -0.7667 -0.2458 -0.8465
  785MOL0     H 5972  10.142  11.599   0.894 -1.0728  0.5590 -0.6101
  785MOL0     H 5973  10.023  11.459   0.506 -1.6582  2.0440  0.1791
  785MOL0     H 5974   9.853  11.170   0.954  1.8586  1.1786 -0.4634
  785MOL0     H 5975   9.607  11.102   0.999 -1.6869  0.9945 -1.4278
  786MOL0     O 5976  11.087   5.314   3.122  0.2147  0.4283  0.2199
  786MOL0     C 5977  11.025   5.265   3.219 -0.2514 -0.3140  0.0237
  786MOL0     O 5978  11.045   5.153   3.277  0.2701  0.1385  1.0768
  786MOL0     C 5979  11.169   5.089   3.249 -0.4180  0.2179  0.4660
  786MOL0     C 5980  11.164   4.953   3.229 -0.2624  0.1350  0.1235
  786MOL0     C 5981  11.279   4.883   3.206 -0.1772  0.4748  0.5894
  786MOL0     C 5982  11.411   4.938   3.211 -0.3260 -1.2952  0.0062
  786MOL0     O 5983  11.527   4.864   3.216 -0.3404  0.3531  0.4925
  786MOL0     C 5984  11.644   4.917   3.279 -0.2939 -0.3141 -0.7939
  786MOL0     C 5985  11.723   4.985   3.172  0.0484  0.6523  0.3618
  786MOL0     C 5986  11.856   5.058   3.215  0.4350 -0.4449 -0.3631
  786MOL0     C 5987  11.936   5.121   3.099  0.4146 -1.1478 -0.3011
  786MOL0     C 5988  12.085   5.133   3.133  0.2439 -0.6291 -0.0354
  786MOL0     C 5989  12.166   5.184   3.009  0.8496 -0.8228  0.2480
  786MOL0     C 5990  12.315   5.186   3.056 -0.3640 -0.4449  0.2178
  786MOL0     C 5991  12.400   5.255   2.940  0.3318  0.4133 -0.6904
  786MOL0     N 5992  12.358   5.391   2.918 -0.5480 -1.6266  1.2599
  786MOL0     C 5993  12.339   5.454   2.799  0.3756  0.6520  0.5626
  786MOL0     C 5994  12.311   5.580   2.825 -0.0986 -0.3065 -0.2530
  786MOL0     C 5995  12.272   5.684   2.723 -1.3174 -0.4199 -0.0279
  786MOL0     C 5996  12.151   5.641   2.646  0.4302  0.0875 -0.1840
  786MOL0     C 5997  12.029   5.643   2.734 -0.1010 -0.5195 -0.9212
  786MOL0     C 5998  11.916   5.545   2.681 -0.8400  0.3838 -0.6227
  786MOL0     O 5999  11.885   5.576   2.546 -0.0410  1.1174 -0.9677
  786MOL0     C 6000  11.775   5.515   2.495  0.0516 -0.0238 -0.9423
  786MOL0     C 6001  11.715   5.570   2.380  0.3580 -0.4635 -1.4518
  786MOL0     C 6002  11.624   5.493   2.308 -1.0522  0.5384  0.1518
  786MOL0     C 6003  11.594   5.566   2.182  0.0636 -0.5543 -0.5392
  786MOL0     C 6004  11.571   5.368   2.359 -0.0616  0.0982  0.3019
  786MOL0     C 6005  11.450   5.310   2.293  0.7911  0.7336 -0.2295
  786MOL0     O 6006  11.413   5.188   2.335 -0.0078  0.7477 -0.1964
  786MOL0     C 6007  11.301   5.130   2.285  0.5059  0.1457 -0.9465
  786MOL0     C 6008  11.317   5.005   2.233  0.0079  0.1617 -0.2909
  786MOL0     C 6009  11.205   4.939   2.179  0.4012  0.3145 -0.9958
  786MOL0     C 6010  11.072   4.983   2.201  0.0457  1.3069 -0.7641
  786MOL0     O 6011  10.973   4.897   2.160 -0.3674 -0.0311 -0.1507
  786MOL0     C 6012  10.943   4.895   2.025  0.5687  0.5914  0.2880
  786MOL0     C 6013  10.850   4.775   2.003  0.6328  0.7297  0.6276
  786MOL0     C 6014  10.712   4.801   1.930  0.0294  1.0374  0.8611
  786MOL0     C 6015  10.601   4.689   1.950 -0.7276  0.3431 -0.3988
  786MOL0     C 6016  10.459   4.732   1.905  0.4098  0.1907  0.8848
  786MOL0     C 6017  10.455   4.729   1.761 -0.0391  0.6959  0.3501
  786MOL0     C 6018  10.307   4.747   1.709  0.2806 -0.5142 -0.0461
  786MOL0     C 6019  10.304   4.775   1.561  0.0881  0.5164 -0.1100
  786MOL0    Cl 6020  10.141   4.759   1.488  0.5117  0.6731 -0.3724
  786MOL0     C 6021  11.056   5.109   2.256  0.7977  0.3816  0.2709
  786MOL0     C 6022  11.165   5.182   2.306 -0.6322  0.1692  0.1042
  786MOL0     O 6023  11.390   5.372   2.211 -0.4529 -0.4874  0.0725
  786MOL0     C 6024  11.630   5.315   2.482  0.3018 -0.5319  0.5165
  786MOL0     C 6025  11.720   5.390   2.552  0.0478 -0.4553  0.6425
  786MOL0     N 6026  12.317   5.597   2.963  0.9866 -0.9694 -0.5584
  786MOL0     N 6027  12.356   5.485   3.019 -0.0685  0.0794  0.4141
  786MOL0     C 6028  11.412   5.079   3.227 -0.1958  1.3881  0.3699
  786MOL0     C 6029  11.294   5.150   3.246  0.9435 -0.2728  0.7012
  786MOL0     C 6030  10.903   5.343   3.259  0.6228  1.1024 -0.6565
  786MOL0     C 6031  10.857   5.447   3.179 -0.1340 -0.7006  0.0357
  786MOL0     C 6032  10.747   5.524   3.216  0.6891 -1.1815 -0.7391
  786MOL0     C 6033  10.673   5.510   3.336 -0.1761  1.1989 -0.4964
  786MOL0     O 6034  10.563   5.589   3.356 -0.1936 -0.7026  0.6835
  786MOL0     C 6035  10.481   5.552   3.469  0.7984  0.4910 -0.0137
  786MOL0     C 6036  10.341   5.614   3.474  0.4833  0.4234  0.3960
  786MOL0     C 6037  10.334   5.758   3.535  0.4632  1.2412 -0.5520
  786MOL0     C 6038  10.370   5.752   3.682  0.4778  0.3881 -0.7753
  786MOL0     C 6039  10.350   5.879   3.746 -0.9546 -0.3530  1.0015
  786MOL0     C 6040  10.332   5.989   3.787  0.4664 -0.0124 -2.1032
  786MOL0     C 6041  10.722   5.401   3.414  0.5182  1.3815  0.9661
  786MOL0     C 6042  10.831   5.323   3.369 -0.3198  0.1388 -0.8187
  786MOL0     H 6043  11.071   4.899   3.248 -0.7132  1.7809  3.0567
  786MOL0     H 6044  11.271   4.775   3.198  1.4563  0.4415 -1.4715
  786MOL0     H 6045  11.616   4.991   3.354 -2.8003 -0.3824 -1.5776
  786MOL0     H 6046  11.690   4.833   3.332 -0.7361 -0.0849 -0.0433
  786MOL0     H 6047  11.749   4.908   3.099 -0.8291  0.8140 -0.1320
  786MOL0     H 6048  11.667   5.059   3.115  0.5680  0.7675 -0.0119
  786MOL0     H 6049  11.840   5.136   3.290 -1.4119 -0.8708 -0.2711
  786MOL0     H 6050  11.912   4.987   3.277 -1.0308 -0.8544  0.5391
  786MOL0     H 6051  11.902   5.092   2.999 -3.1978  0.7943  0.1932
  786MOL0     H 6052  11.917   5.228   3.100  1.5044 -0.9472  0.9864
  786MOL0     H 6053  12.092   5.214   3.205 -2.2837  0.5114 -0.9333
  786MOL0     H 6054  12.114   5.036   3.175 -3.7721 -1.7143  0.6919
  786MOL0     H 6055  12.146   5.117   2.926 -3.1448  3.2668 -2.5670
  786MOL0     H 6056  12.128   5.280   2.974  1.5973 -0.7052 -0.2821
  786MOL0     H 6057  12.331   5.246   3.146  1.8052  2.9917 -2.2047
  786MOL0     H 6058  12.354   5.084   3.069  2.5551  0.8027  2.5550
  786MOL0     H 6059  12.399   5.194   2.849 -1.0369 -1.2075  0.3599
  786MOL0     H 6060  12.500   5.275   2.980 -1.2226  2.6943  2.4632
  786MOL0     H 6061  12.348   5.414   2.698 -2.2120  0.3712  0.3851
  786MOL0     H 6062  12.262   5.783   2.769  2.5337 -0.3420  0.9109
  786MOL0     H 6063  12.358   5.703   2.658 -0.7557 -2.7684 -0.0373
  786MOL0     H 6064  12.169   5.535   2.623  1.0792  0.0454  0.4985
  786MOL0     H 6065  12.142   5.703   2.556  1.3554 -0.2772 -0.5412
  786MOL0     H 6066  11.989   5.745   2.742  0.6635  0.1026 -3.9098
  786MOL0     H 6067  12.048   5.616   2.838 -4.2753 -0.0939  0.1270
  786MOL0     H 6068  11.827   5.566   2.742 -1.9630 -0.0049 -2.0703
  786MOL0     H 6069  11.952   5.442   2.677  0.5920  0.8942 -1.2643
  786MOL0     H 6070  11.757   5.663   2.342  3.0985 -0.6227  0.8614
  786MOL0     H 6071  11.655   5.650   2.147 -0.4515 -1.2523 -3.3452
  786MOL0     H 6072  11.598   5.493   2.101 -2.9629 -0.9710 -0.4235
  786MOL0     H 6073  11.495   5.609   2.198  0.2224 -0.4825  0.3232
  786MOL0     H 6074  11.415   4.959   2.231 -0.4271 -0.8842  0.8082
  786MOL0     H 6075  11.227   4.851   2.121 -2.6074 -0.6380 -0.8505
  786MOL0     H 6076  10.888   4.981   1.986 -4.4784 -1.7313  1.4527
  786MOL0     H 6077  11.024   4.870   1.956 -2.2398 -1.2090 -2.6769
  786MOL0     H 6078  10.908   4.698   1.951  3.9639  3.4741 -0.1048
  786MOL0     H 6079  10.832   4.739   2.105 -3.0812  1.4819  0.4000
  786MOL0     H 6080  10.730   4.792   1.822  1.5839 -0.4458  1.2115
  786MOL0     H 6081  10.679   4.904   1.949  0.6807  2.1370 -3.0555
  786MOL0     H 6082  10.632   4.609   1.882  0.8559  0.0773  0.5761
  786MOL0     H 6083  10.609   4.655   2.053 -0.6683 -0.3936 -0.6369
  786MOL0     H 6084  10.450   4.835   1.940 -0.5885  0.8805 -1.2028
  786MOL0     H 6085  10.379   4.676   1.953  0.9977 -0.1492  1.4813
  786MOL0     H 6086  10.512   4.813   1.721 -1.7230  1.3054 -0.9166
  786MOL0     H 6087  10.490   4.630   1.733 -3.6660 -0.6027 -0.2030
  786MOL0     H 6088  10.254   4.832   1.751 -2.5101 -2.5271  0.8417
  786MOL0     H 6089  10.259   4.649   1.719 -0.2105 -0.1319  1.7784
  786MOL0     H 6090  10.387   4.721   1.514  2.5625  3.0737  1.0323
  786MOL0     H 6091  10.325   4.882   1.552  0.4235  0.7037  2.2530
  786MOL0     H 6092  10.954   5.142   2.272  0.1307 -1.5260  0.1123
  786MOL0     H 6093  11.143   5.271   2.364  0.1473  0.5821 -0.2179
  786MOL0     H 6094  11.594   5.222   2.523 -0.3759 -1.1409 -1.3531
  786MOL0     H 6095  11.746   5.347   2.648  1.2753  0.6800  0.8610
  786MOL0     H 6096  11.505   5.135   3.223  0.1634  0.8713  1.2927
  786MOL0     H 6097  11.285   5.257   3.263 -1.7319 -0.3070 -0.0889
  786MOL0     H 6098  10.910   5.495   3.097  0.0431  0.0572  0.5852
  786MOL0     H 6099  10.710   5.603   3.152 -0.0868  0.8186  2.0007
  786MOL0     H 6100  10.470   5.443   3.477 -0.4536  0.5712 -0.3291
  786MOL0     H 6101  10.529   5.570   3.565  0.6045 -1.0116  0.4044
  786MOL0     H 6102  10.279   5.551   3.539 -0.9104  1.0047 -0.3267
  786MOL0     H 6103  10.311   5.606   3.369  2.7157 -0.3631 -0.2426
  786MOL0     H 6104  10.234   5.802   3.525 -0.4089  0.0510  2.1874
  786MOL0     H 6105  10.404   5.823   3.481  2.2618 -0.8473 -0.8842
  786MOL0     H 6106  10.469   5.712   3.702  0.7470  2.7408  4.0018
  786MOL0     H 6107  10.303   5.690   3.742 -2.7227  1.7985 -2.6160
  786MOL0     H 6108  10.315   6.086   3.830 -1.3124 -0.7005 -1.1822
  786MOL0     H 6109  10.685   5.373   3.512  5.5731 -1.5895  2.4049
  786MOL0     H 6110  10.863   5.250   3.443  0.4883  0.2036 -1.0952
  787MOL0     O 6111   0.816   8.705   9.176 -0.0546 -0.2889 -0.0134
  787MOL0     C 6112   0.886   8.783   9.248  1.1951  0.8464  0.2557
  787MOL0     O 6113   0.902   8.766   9.373 -0.2703  0.4657 -0.4061
  787MOL0     C 6114   0.841   8.672   9.453  0.2887  0.2959  0.4191
  787MOL0     C 6115   0.714   8.614   9.421  0.9478  0.0027  0.6019
  787MOL0     C 6116   0.657   8.529   9.512  0.8476  0.1111  0.1580
  787MOL0     C 6117   0.711   8.500   9.632 -0.5615 -0.2785 -0.2573
  787MOL0     O 6118   0.673   8.399   9.724 -0.2787  0.0805 -0.1683
  787MOL0     C 6119   0.535   8.360   9.706  1.0253 -0.0775 -1.1521
  787MOL0     C 6120   0.478   8.325   9.849 -0.2759  0.5810  0.0269
  787MOL0     C 6121   0.334   8.277   9.836 -1.0103  0.5792 -0.2544
  787MOL0     C 6122   0.249   8.375   9.762  0.5362  0.6621 -0.5771
  787MOL0     C 6123   0.099   8.343   9.788 -0.3336  0.7853  0.5890
  787MOL0     C 6124   0.017   8.399   9.669 -0.1837 -0.1961 -0.1951
  787MOL0     C 6125  -0.116   8.441   9.720 -0.2364 -0.0163 -0.7305
  787MOL0     C 6126  -0.124   8.587   9.776  0.3119  0.3488 -0.7043
  787MOL0     N 6127  -0.266   8.635   9.781  0.0884 -0.4785 -0.1442
  787MOL0     C 6128  -0.369   8.565   9.840  0.1623  0.1078 -0.6997
  787MOL0     C 6129  -0.479   8.632   9.827  1.1545 -0.8150 -0.0103
  787MOL0     C 6130  -0.617   8.582   9.875  0.7683 -0.7360  0.5791
  787MOL0     C 6131  -0.636   8.598  10.028  0.3309  0.7432  0.0136
  787MOL0     C 6132  -0.545   8.509  10.116 -0.1895  0.4532 -0.0707
  787MOL0     C 6133  -0.461   8.586  10.231  0.1843  1.3677  0.8331
  787MOL0     O 6134  -0.369   8.698  10.200 -0.7421  0.3171  0.1699
  787MOL0     C 6135  -0.235   8.675  10.161  0.2207 -0.0489  0.5135
  787MOL0     C 6136  -0.142   8.772  10.168  0.2028 -0.0569  0.3228
  787MOL0     C 6137  -0.006   8.737  10.169 -0.3872  0.4691  0.2834
  787MOL0     C 6138   0.092   8.850  10.203  0.2136 -0.4105 -0.8045
  787MOL0     C 6139   0.040   8.597  10.159 -0.8294  0.5877  0.2036
  787MOL0     C 6140   0.187   8.556  10.176  0.5266  0.1479 -0.1911
  787MOL0     O 6141   0.205   8.426  10.214  0.5364  0.5082 -0.0442
  787MOL0     C 6142   0.321   8.367  10.245  0.7782  0.0004  1.0462
  787MOL0     C 6143   0.337   8.236  10.198 -0.0202  0.3769 -0.5900
  787MOL0     C 6144   0.453   8.167  10.235  0.4539 -0.6958 -0.2008
  787MOL0     C 6145   0.559   8.225  10.304  0.1509  0.6194  0.9257
  787MOL0     O 6146   0.665   8.143  10.324 -0.7461 -0.2895  0.6024
  787MOL0     C 6147   0.800   8.187  10.297 -1.1469  0.3704  0.6364
  787MOL0     C 6148   0.820   8.241  10.148  0.8178  0.1453 -0.2076
  787MOL0     C 6149   0.960   8.276  10.105  0.8707  0.7226 -0.1693
  787MOL0     C 6150   1.029   8.396  10.160 -0.4412 -0.6447 -0.5239
  787MOL0     C 6151   1.160   8.425  10.090 -0.0309 -0.2988 -0.4441
  787MOL0     C 6152   1.235   8.557  10.145  0.1992  0.9112 -0.1414
  787MOL0     C 6153   1.363   8.592  10.074  0.1015  0.1887 -0.1165
  787MOL0     C 6154   1.400   8.738  10.084  0.2086 -0.2492 -0.3594
  787MOL0    Cl 6155   1.545   8.775   9.989 -0.1993  0.6488 -0.3155
  787MOL0     C 6156   0.550   8.357  10.339 -0.6762 -0.3811  0.4758
  787MOL0     C 6157   0.432   8.433  10.311  0.6604  0.2894 -0.5906
  787MOL0     O 6158   0.276   8.629  10.143  0.6672 -0.2273 -0.5237
  787MOL0     C 6159  -0.062   8.497  10.146 -0.7336 -0.2895 -0.1173
  787MOL0     C 6160  -0.196   8.537  10.150 -1.0611 -0.7689  0.5103
  787MOL0     N 6161  -0.453   8.757   9.778 -0.0300  0.1568 -0.1922
  787MOL0     N 6162  -0.323   8.758   9.743  0.3999  0.4703  0.4781
  787MOL0     C 6163   0.837   8.552   9.661  0.0949 -0.5242 -0.4415
  787MOL0     C 6164   0.899   8.644   9.571 -0.2130 -0.0030  0.6001
  787MOL0     C 6165   0.961   8.882   9.168 -0.4094 -0.6065  0.1982
  787MOL0     C 6166   1.014   8.987   9.248 -0.3160 -0.4263 -0.4553
  787MOL0     C 6167   1.071   9.100   9.191 -0.3041 -0.4506 -0.4755
  787MOL0     C 6168   1.094   9.093   9.050  0.0747 -0.1562  0.9538
  787MOL0     O 6169   1.164   9.187   8.976  0.5451  0.4708  0.0394
  787MOL0     C 6170   1.256   9.273   9.039  0.5102 -0.2000  0.3028
  787MOL0     C 6171   1.209   9.424   9.004  0.1743  0.1946  0.0861
  787MOL0     C 6172   1.252   9.458   8.860  0.3265  0.1382 -0.2038
  787MOL0     C 6173   1.186   9.591   8.808  0.0555 -0.4499  0.4106
  787MOL0     C 6174   1.035   9.591   8.807 -0.8969  1.3462  0.4471
  787MOL0     C 6175   0.919   9.605   8.798 -0.1419 -0.7134 -0.3385
  787MOL0     C 6176   1.050   8.984   8.968  0.3446 -1.2962 -1.0435
  787MOL0     C 6177   0.985   8.882   9.033  0.1860 -1.1742  0.3717
  787MOL0     H 6178   0.648   8.634   9.338 -1.3931 -1.4535  1.9962
  787MOL0     H 6179   0.566   8.479   9.479  1.1447  0.8267 -1.8415
  787MOL0     H 6180   0.480   8.450   9.675 -1.4044 -1.5128 -1.2421
  787MOL0     H 6181   0.535   8.282   9.630  0.8725  0.0485 -1.2820
  787MOL0     H 6182   0.535   8.242   9.892 -0.7903  0.7637  1.0843
  787MOL0     H 6183   0.483   8.411   9.917 -0.1249 -0.3576  1.2234
  787MOL0     H 6184   0.340   8.179   9.787  3.9263  0.9916 -0.9728
  787MOL0     H 6185   0.309   8.263   9.942  3.3827  1.4748  1.0885
  787MOL0     H 6186   0.267   8.479   9.789  1.6334  0.1236  0.9086
  787MOL0     H 6187   0.265   8.358   9.655 -0.1061  1.4432 -0.8037
  787MOL0     H 6188   0.075   8.236   9.784 -2.3441  1.1683  1.2292
  787MOL0     H 6189   0.075   8.389   9.885  0.3292 -0.7358  1.5162
  787MOL0     H 6190   0.060   8.488   9.624  1.8961 -1.4386 -0.8095
  787MOL0     H 6191   0.004   8.326   9.589  2.7542  0.7763 -1.6841
  787MOL0     H 6192  -0.186   8.439   9.636 -0.2190 -1.6515 -0.7567
  787MOL0     H 6193  -0.149   8.374   9.800 -2.2587 -0.2193 -1.6784
  787MOL0     H 6194  -0.065   8.654   9.712  0.7570  4.9602  3.8780
  787MOL0     H 6195  -0.092   8.583   9.880 -1.0957  2.7345 -0.1044
  787MOL0     H 6196  -0.365   8.461   9.870 -1.5647  0.5085  1.1716
  787MOL0     H 6197  -0.688   8.648   9.823  4.0912  2.0131 -0.9121
  787MOL0     H 6198  -0.643   8.484   9.835  1.1701 -0.2526 -0.9330
  787MOL0     H 6199  -0.736   8.565  10.058  1.0752 -0.2787  1.4597
  787MOL0     H 6200  -0.616   8.703  10.054  4.0342 -0.1060  1.0654
  787MOL0     H 6201  -0.496   8.439  10.048  0.1873 -1.2596  1.8353
  787MOL0     H 6202  -0.615   8.441  10.167  3.3790 -2.3618  1.5133
  787MOL0     H 6203  -0.407   8.511  10.290 -0.2226  0.5992  0.2574
  787MOL0     H 6204  -0.530   8.627  10.306 -1.0463 -2.0641  1.7861
  787MOL0     H 6205  -0.163   8.877  10.185  0.8339  0.4356 -1.6511
  787MOL0     H 6206   0.153   8.823  10.289 -0.3178  0.4962 -0.1202
  787MOL0     H 6207   0.159   8.882  10.123 -0.2109 -0.2718 -1.1106
  787MOL0     H 6208   0.023   8.931  10.230  1.7970  0.2252  1.7176
  787MOL0     H 6209   0.253   8.179  10.159 -0.3662  1.0554 -0.8470
  787MOL0     H 6210   0.466   8.062  10.212 -2.0374 -0.5370 -2.8147
  787MOL0     H 6211   0.818   8.266  10.371  1.3845 -0.6987  1.2811
  787MOL0     H 6212   0.864   8.102  10.324  1.0129  2.0597  1.1322
  787MOL0     H 6213   0.766   8.174  10.081 -2.6365  4.2283 -1.9980
  787MOL0     H 6214   0.762   8.334  10.147  2.1930  1.0960  1.6663
  787MOL0     H 6215   0.946   8.293   9.998 -1.7714  2.1030  0.3172
  787MOL0     H 6216   1.024   8.188  10.119 -1.4363 -1.1536 -0.8155
  787MOL0     H 6217   0.972   8.489  10.148 -0.2040 -0.6257 -1.5491
  787MOL0     H 6218   1.050   8.369  10.264 -0.9444 -0.6157 -0.4121
  787MOL0     H 6219   1.137   8.450   9.986  2.9793 -1.8705 -1.5873
  787MOL0     H 6220   1.229   8.341  10.085 -1.3819 -1.3669 -4.0790
  787MOL0     H 6221   1.172   8.647  10.143  0.0440  0.8030 -0.1939
  787MOL0     H 6222   1.252   8.543  10.253 -3.2891  0.2429  0.4601
  787MOL0     H 6223   1.354   8.589   9.965  0.9955  1.4393 -0.2434
  787MOL0     H 6224   1.441   8.519  10.097 -2.0279 -2.3796 -0.5097
  787MOL0     H 6225   1.421   8.756  10.190 -0.6623 -3.2520  0.4182
  787MOL0     H 6226   1.312   8.794  10.050 -2.5048 -3.4485  0.8105
  787MOL0     H 6227   0.628   8.406  10.398  1.1387 -0.7169 -1.5278
  787MOL0     H 6228   0.418   8.535  10.347  0.3908  0.1285 -0.2383
  787MOL0     H 6229  -0.035   8.392  10.134  4.0403  0.7901 -1.2176
  787MOL0     H 6230  -0.267   8.457  10.131  0.3238 -1.0610 -5.9791
  787MOL0     H 6231   0.878   8.517   9.756  5.0550  0.9865 -1.7103
  787MOL0     H 6232   0.991   8.701   9.584  0.7660 -1.2895 -0.3964
  787MOL0     H 6233   1.006   8.990   9.356  2.6837 -2.5630 -0.0355
  787MOL0     H 6234   1.056   9.191   9.248  1.8821  0.7659 -1.7038
  787MOL0     H 6235   1.263   9.267   9.148 -2.1205  0.5010  0.5706
  787MOL0     H 6236   1.358   9.266   9.000 -0.5670 -0.1436 -2.7869
  787MOL0     H 6237   1.267   9.486   9.074  0.3382 -0.4049  0.4949
  787MOL0     H 6238   1.103   9.445   9.021  0.5309  1.9613  0.3933
  787MOL0     H 6239   1.229   9.375   8.793  0.3937 -0.0317 -0.0178
  787MOL0     H 6240   1.360   9.469   8.850  0.2407 -0.3556 -2.0578
  787MOL0     H 6241   1.218   9.615   8.707  0.4204  2.7338  1.1873
  787MOL0     H 6242   1.224   9.680   8.858 -0.0703  0.2821 -0.7574
  787MOL0     H 6243   0.817   9.620   8.770  0.4783  0.5416 -2.1359
  787MOL0     H 6244   1.078   8.991   8.863 -0.7853 -0.3380 -1.3028
  787MOL0     H 6245   0.951   8.800   8.971  1.0576 -1.0103 -0.3467
  788MOL0     O 6246   4.895   4.574   1.796  0.3506 -0.2620  1.1212
  788MOL0     C 6247   4.788   4.515   1.778 -0.3844  0.2989 -0.2200
  788MOL0     O 6248   4.713   4.512   1.662 -0.2374 -0.1149  0.2237
  788MOL0     C 6249   4.743   4.578   1.543 -0.6972 -0.4652  0.1964
  788MOL0     C 6250   4.835   4.678   1.525 -0.1846  0.0500  0.0391
  788MOL0     C 6251   4.852   4.747   1.402  0.7173 -0.4446 -0.0769
  788MOL0     C 6252   4.782   4.700   1.282 -0.0387  0.2927 -0.5312
  788MOL0     O 6253   4.816   4.760   1.164 -0.2134  0.6709  0.1483
  788MOL0     C 6254   4.736   4.728   1.051 -0.8392  0.3521  0.2730
  788MOL0     C 6255   4.806   4.798   0.938  0.2786  0.1030  1.2431
  788MOL0     C 6256   4.934   4.721   0.887  0.3243  0.5174 -0.4890
  788MOL0     C 6257   4.918   4.622   0.767  0.1002 -0.2341 -0.8469
  788MOL0     C 6258   5.061   4.586   0.714 -0.5034  0.1164 -0.1731
  788MOL0     C 6259   5.046   4.488   0.601 -0.6053 -0.4701 -0.1667
  788MOL0     C 6260   5.169   4.457   0.521  0.0338  0.5000 -0.1873
  788MOL0     C 6261   5.300   4.435   0.593  0.8273 -0.4480  0.0695
  788MOL0     N 6262   5.392   4.399   0.482  0.6902 -1.2350 -0.3937
  788MOL0     C 6263   5.401   4.284   0.413  0.2218 -0.0361 -0.1073
  788MOL0     C 6264   5.488   4.301   0.314 -0.9752 -0.0038  0.6062
  788MOL0     C 6265   5.522   4.209   0.195 -0.6365 -0.1472 -0.2389
  788MOL0     C 6266   5.499   4.059   0.224  0.2707 -0.1357 -0.0913
  788MOL0     C 6267   5.591   3.995   0.334 -0.3994 -0.1662  0.5800
  788MOL0     C 6268   5.569   3.847   0.360 -0.3958 -0.7962  0.3547
  788MOL0     O 6269   5.670   3.828   0.459 -0.5251 -1.1800  0.0502
  788MOL0     C 6270   5.726   3.708   0.442 -0.5302 -0.6455 -0.6287
  788MOL0     C 6271   5.676   3.585   0.458 -0.7147 -0.4400 -0.2605
  788MOL0     C 6272   5.745   3.472   0.416  0.1360  0.1451 -0.7193
  788MOL0     C 6273   5.666   3.343   0.418  0.7294 -0.7570 -0.0555
  788MOL0     C 6274   5.883   3.474   0.395 -0.5028  0.4707  0.4385
  788MOL0     C 6275   5.975   3.367   0.354  1.0263  0.6513 -0.0878
  788MOL0     O 6276   5.918   3.245   0.312  0.4983  0.9825  0.4224
  788MOL0     C 6277   5.980   3.125   0.281 -0.5643 -0.0651 -0.0749
  788MOL0     C 6278   5.903   3.021   0.236 -0.0345 -0.1896 -0.1615
  788MOL0     C 6279   5.950   2.894   0.198 -0.6259  0.9562 -0.8336
  788MOL0     C 6280   6.095   2.873   0.207  0.7021  0.3488  0.0641
  788MOL0     O 6281   6.137   2.751   0.169 -0.2540 -0.7210  0.1183
  788MOL0     C 6282   6.244   2.700   0.238 -0.5626 -0.5657  0.8666
  788MOL0     C 6283   6.381   2.720   0.165  0.2039 -0.6545 -0.4736
  788MOL0     C 6284   6.412   2.638   0.042 -0.5427 -0.0314 -0.0006
  788MOL0     C 6285   6.560   2.679   0.004  0.1864 -0.7477 -1.0445
  788MOL0     C 6286   6.595   2.634  -0.144  0.9102 -0.4424  0.3599
  788MOL0     C 6287   6.732   2.687  -0.179  0.1746 -0.1678 -0.3698
  788MOL0     C 6288   6.771   2.666  -0.326  0.5836 -0.6107 -0.7541
  788MOL0     C 6289   6.922   2.647  -0.354 -0.7266  0.1676 -0.7669
  788MOL0    Cl 6290   6.973   2.506  -0.280 -0.4774 -0.0390  0.1191
  788MOL0     C 6291   6.176   2.987   0.251 -0.1389  0.1946 -0.2641
  788MOL0     C 6292   6.120   3.106   0.298  0.2612  0.6523  0.1779
  788MOL0     O 6293   6.092   3.385   0.394  0.6527 -0.0445  0.2866
  788MOL0     C 6294   5.938   3.602   0.390 -0.4064  0.4119 -0.4237
  788MOL0     C 6295   5.861   3.717   0.410 -0.5168  0.0650 -0.7682
  788MOL0     N 6296   5.527   4.434   0.322 -0.1315 -1.3556  0.2395
  788MOL0     N 6297   5.469   4.489   0.422  0.5710  0.4473 -0.2356
  788MOL0     C 6298   4.686   4.597   1.300 -0.2454  0.5405  1.5586
  788MOL0     C 6299   4.676   4.536   1.426  0.0351  0.3727  0.2366
  788MOL0     C 6300   4.736   4.452   1.895  0.7888  1.0670  0.3453
  788MOL0     C 6301   4.821   4.414   2.006 -0.2518  0.1094  0.6366
  788MOL0     C 6302   4.772   4.351   2.130 -0.4686 -0.2000 -0.5131
  788MOL0     C 6303   4.635   4.340   2.142 -0.9584  0.2478 -0.5198
  788MOL0     O 6304   4.562   4.285   2.242 -0.3188 -0.6447 -0.5224
  788MOL0     C 6305   4.618   4.215   2.344  0.4241 -0.8184 -0.1810
  788MOL0     C 6306   4.604   4.068   2.312 -0.4346 -0.5060  0.0415
  788MOL0     C 6307   4.686   3.990   2.414  0.4843  1.2009  0.4849
  788MOL0     C 6308   4.662   3.842   2.385  0.8987  0.7888  0.0252
  788MOL0     C 6309   4.525   3.799   2.369 -0.7715  0.3960  1.0255
  788MOL0     C 6310   4.412   3.754   2.354 -0.1371  0.4576  0.2274
  788MOL0     C 6311   4.563   4.384   2.035  0.6829  1.4176  0.4307
  788MOL0     C 6312   4.605   4.416   1.910  0.5779 -0.3754 -0.1471
  788MOL0     H 6313   4.888   4.709   1.614 -3.1397 -3.2362  3.2625
  788MOL0     H 6314   4.914   4.832   1.378 -0.1378  0.3365  0.4146
  788MOL0     H 6315   4.737   4.619   1.045  0.5956  0.4170 -1.8905
  788MOL0     H 6316   4.630   4.755   1.064 -0.9956  0.7747 -1.5120
  788MOL0     H 6317   4.734   4.812   0.856  0.4729 -0.4717  0.9713
  788MOL0     H 6318   4.832   4.900   0.969  1.5653 -0.2217  1.2876
  788MOL0     H 6319   5.015   4.789   0.860  2.4543  0.1558  4.0796
  788MOL0     H 6320   4.988   4.670   0.967  1.1027  1.0403 -0.6705
  788MOL0     H 6321   4.858   4.542   0.810 -1.2686  1.3925  0.4320
  788MOL0     H 6322   4.863   4.685   0.697 -1.5508  1.7913  2.0305
  788MOL0     H 6323   5.122   4.675   0.697  1.5409 -1.1916  0.0229
  788MOL0     H 6324   5.115   4.547   0.801 -0.5936 -1.6440 -0.8572
  788MOL0     H 6325   4.995   4.403   0.649 -2.3153  1.6961  2.1433
  788MOL0     H 6326   4.974   4.531   0.531 -2.0171  0.4085  1.7240
  788MOL0     H 6327   5.152   4.359   0.475  0.7035  0.2222  0.1432
  788MOL0     H 6328   5.187   4.516   0.431  1.2411  0.6855  0.1663
  788MOL0     H 6329   5.295   4.343   0.651  5.2260 -0.6613  0.4155
  788MOL0     H 6330   5.327   4.516   0.661 -0.8533  0.0358  0.2257
  788MOL0     H 6331   5.351   4.189   0.426 -0.2390  0.5584  3.4992
  788MOL0     H 6332   5.475   4.252   0.107  0.5470  1.3449 -0.1777
  788MOL0     H 6333   5.630   4.221   0.180 -0.7768  0.0475 -1.1625
  788MOL0     H 6334   5.518   3.992   0.139  1.1369 -1.9060  1.4134
  788MOL0     H 6335   5.392   4.047   0.243  0.0909  0.5152 -0.6687
  788MOL0     H 6336   5.585   4.054   0.426 -0.6561  3.9960 -1.8603
  788MOL0     H 6337   5.690   4.009   0.290  0.8805 -0.7849  3.0719
  788MOL0     H 6338   5.582   3.781   0.273  1.3347  1.9679 -1.6604
  788MOL0     H 6339   5.468   3.827   0.397 -0.2531  0.6465  1.6106
  788MOL0     H 6340   5.570   3.591   0.481 -0.2257  0.1915  2.0738
  788MOL0     H 6341   5.697   3.266   0.489  0.5206  0.3628  1.2939
  788MOL0     H 6342   5.560   3.356   0.442  0.2223 -2.3065 -1.2689
  788MOL0     H 6343   5.662   3.293   0.320  1.1319 -1.8538  0.4751
  788MOL0     H 6344   5.797   3.045   0.244  0.8064  3.2469  3.9528
  788MOL0     H 6345   5.885   2.815   0.163 -1.2958  0.8978  0.4653
  788MOL0     H 6346   6.252   2.754   0.333  2.4048 -1.3165  1.1486
  788MOL0     H 6347   6.235   2.592   0.253  2.2145 -1.1054 -0.7095
  788MOL0     H 6348   6.393   2.826   0.140  2.6685 -0.9862 -1.0160
  788MOL0     H 6349   6.462   2.707   0.237  0.9482 -0.0834 -1.1936
  788MOL0     H 6350   6.348   2.671  -0.040 -0.5818 -0.4936 -0.1575
  788MOL0     H 6351   6.406   2.530   0.058  2.3326 -0.0565  1.5091
  788MOL0     H 6352   6.572   2.787   0.016 -1.8814 -0.2086 -3.0634
  788MOL0     H 6353   6.631   2.645   0.081 -1.0427  2.0425  1.5186
  788MOL0     H 6354   6.515   2.668  -0.210  0.4437 -0.2808  0.9889
  788MOL0     H 6355   6.589   2.525  -0.158  0.0428 -0.1958 -1.3823
  788MOL0     H 6356   6.730   2.794  -0.153 -1.2651  0.0142 -1.1337
  788MOL0     H 6357   6.799   2.640  -0.106 -2.5997  0.4456  2.8333
  788MOL0     H 6358   6.734   2.751  -0.384 -0.0949 -1.2515 -1.2878
  788MOL0     H 6359   6.712   2.578  -0.355 -0.3808 -0.3619  0.4010
  788MOL0     H 6360   6.986   2.723  -0.308 -0.8005  1.1398 -2.2183
  788MOL0     H 6361   6.946   2.632  -0.460  1.1244  0.2262 -0.3925
  788MOL0     H 6362   6.284   2.980   0.255 -0.0240  2.0564  1.7683
  788MOL0     H 6363   6.179   3.173   0.359  0.7592 -1.1206  1.7107
  788MOL0     H 6364   6.034   3.613   0.341 -0.5522  0.8743 -0.6099
  788MOL0     H 6365   5.907   3.814   0.392  0.2187 -0.6753 -3.3256
  788MOL0     H 6366   4.628   4.571   1.212  4.5955  0.4457 -1.9829
  788MOL0     H 6367   4.612   4.453   1.453 -1.3558  2.2543  3.2890
  788MOL0     H 6368   4.927   4.415   1.979 -0.8332 -1.1629 -2.0532
  788MOL0     H 6369   4.840   4.313   2.205 -0.4380  2.2277  0.8140
  788MOL0     H 6370   4.721   4.241   2.369  0.0354 -0.5794  1.2764
  788MOL0     H 6371   4.562   4.236   2.435 -3.7065  0.7864 -2.8104
  788MOL0     H 6372   4.629   4.038   2.209  1.0307 -0.0217  0.2421
  788MOL0     H 6373   4.496   4.050   2.322 -0.4114 -1.3110 -0.9466
  788MOL0     H 6374   4.673   4.017   2.520  0.9246  3.7417 -0.0433
  788MOL0     H 6375   4.792   4.005   2.392  0.7000 -1.2453 -0.4276
  788MOL0     H 6376   4.673   3.791   2.481 -0.6280 -0.3105 -0.3571
  788MOL0     H 6377   4.728   3.798   2.310 -1.3017 -0.1263 -1.4473
  788MOL0     H 6378   4.306   3.733   2.351 -0.5270  1.0204  4.4127
  788MOL0     H 6379   4.455   4.376   2.039  0.6010  2.4610  0.5404
  788MOL0     H 6380   4.539   4.440   1.828  1.2769  5.0928  0.5516
  789MOL0     O 6381  11.178   2.899   6.109 -0.2730 -0.3253  0.3452
  789MOL0     C 6382  11.265   2.816   6.104 -1.2479  1.1385  0.0056
  789MOL0     O 6383  11.393   2.821   6.153 -0.2660  0.8314 -0.2611
  789MOL0     C 6384  11.437   2.920   6.230  0.9370 -0.0726  0.2482
  789MOL0     C 6385  11.496   2.882   6.346  1.4913 -0.6839 -1.3603
  789MOL0     C 6386  11.527   2.969   6.449  0.6492  0.6471 -0.7942
  789MOL0     C 6387  11.511   3.104   6.433  0.1290  0.1902  0.7551
  789MOL0     O 6388  11.563   3.185   6.528  0.0283  0.5583  0.1466
  789MOL0     C 6389  11.522   3.314   6.547  1.2857  0.9814  0.3725
  789MOL0     C 6390  11.373   3.325   6.582  0.1112  0.5674  0.2761
  789MOL0     C 6391  11.344   3.262   6.716 -0.3604  0.5024  1.2266
  789MOL0     C 6392  11.190   3.280   6.737 -0.1203  0.1213  0.7431
  789MOL0     C 6393  11.150   3.229   6.878 -0.0285 -0.4107  0.7577
  789MOL0     C 6394  10.999   3.204   6.886 -0.3622 -0.9690  0.6007
  789MOL0     C 6395  10.939   3.157   7.018 -0.5981  0.5943 -0.9981
  789MOL0     C 6396  10.993   3.208   7.149 -0.3199  0.3376  0.5246
  789MOL0     N 6397  11.123   3.162   7.175 -0.9524  0.5569  0.5435
  789MOL0     C 6398  11.223   3.247   7.222 -0.5343  0.3460 -0.4342
  789MOL0     C 6399  11.330   3.179   7.263 -0.1387 -0.2843  0.4435
  789MOL0     C 6400  11.462   3.242   7.289  0.0580  0.3743  0.4576
  789MOL0     C 6401  11.493   3.261   7.441 -0.1390  0.0763 -0.0597
  789MOL0     C 6402  11.402   3.351   7.521  0.6318  1.1490 -0.2765
  789MOL0     C 6403  11.465   3.375   7.655  0.0119  0.5988  0.2080
  789MOL0     O 6404  11.460   3.257   7.741  0.6772 -0.4030 -0.2847
  789MOL0     C 6405  11.575   3.256   7.822  0.8191  1.1474 -0.1707
  789MOL0     C 6406  11.638   3.129   7.838  0.4588 -0.7864 -0.2238
  789MOL0     C 6407  11.747   3.108   7.920 -0.4305 -0.3660  0.3929
  789MOL0     C 6408  11.819   2.976   7.933  0.0616 -0.0817 -1.1872
  789MOL0     C 6409  11.793   3.216   7.992 -1.3709 -0.0318 -0.4832
  789MOL0     C 6410  11.913   3.213   8.088  0.1078  0.4873 -0.4215
  789MOL0     O 6411  11.973   3.091   8.119 -0.1446 -0.5152 -0.3489
  789MOL0     C 6412  12.087   3.079   8.189 -0.1743 -0.3554  1.1823
  789MOL0     C 6413  12.110   2.963   8.265  0.6666  0.0856 -0.1985
  789MOL0     C 6414  12.221   2.932   8.341  0.1795 -0.3317  0.4670
  789MOL0     C 6415  12.330   3.025   8.333  0.1163  0.2917  0.2283
  789MOL0     O 6416  12.449   3.016   8.402  0.4035 -0.5624  0.7950
  789MOL0     C 6417  12.463   2.890   8.473 -0.3414  0.5554  0.3129
  789MOL0     C 6418  12.592   2.899   8.537 -1.0565 -0.5995 -0.4524
  789MOL0     C 6419  12.635   2.770   8.606  0.3984 -0.3589 -0.7277
  789MOL0     C 6420  12.773   2.788   8.677  0.2912  0.6517  1.1413
  789MOL0     C 6421  12.819   2.662   8.742  0.2984 -0.0814  0.1271
  789MOL0     C 6422  12.847   2.544   8.644 -0.3093 -0.1220  0.2844
  789MOL0     C 6423  12.940   2.567   8.529 -0.8482  1.2269  0.3712
  789MOL0     C 6424  13.071   2.626   8.586  0.0892  0.1177 -0.0194
  789MOL0    Cl 6425  13.182   2.513   8.680  0.2088  0.0221  0.2580
  789MOL0     C 6426  12.306   3.142   8.265 -0.4724  0.2519  0.1706
  789MOL0     C 6427  12.188   3.175   8.198 -0.0474 -0.1256  0.3682
  789MOL0     O 6428  11.954   3.325   8.124 -0.1958  0.4443 -0.8565
  789MOL0     C 6429  11.720   3.336   8.000  1.6399  0.5931  0.0935
  789MOL0     C 6430  11.612   3.359   7.916  1.0594 -0.3285  0.3803
  789MOL0     N 6431  11.282   3.045   7.246 -0.5639  0.3879 -0.2649
  789MOL0     N 6432  11.152   3.039   7.208 -0.6410  0.7425 -0.3224
  789MOL0     C 6433  11.444   3.142   6.314 -0.4978 -1.1092  0.5159
  789MOL0     C 6434  11.413   3.056   6.210  0.0237  0.6167 -0.6031
  789MOL0     C 6435  11.239   2.707   6.008  0.1622  0.3463 -0.3536
  789MOL0     C 6436  11.147   2.723   5.907  0.3475  0.0390 -0.2228
  789MOL0     C 6437  11.137   2.635   5.801  0.2156  0.0968 -0.2648
  789MOL0     C 6438  11.213   2.516   5.806 -0.0720  0.4826 -0.4256
  789MOL0     O 6439  11.225   2.416   5.717  0.1813  0.8290 -0.6124
  789MOL0     C 6440  11.148   2.418   5.598  0.0569  0.3322  0.7392
  789MOL0     C 6441  11.006   2.364   5.628 -0.0437 -0.3403  1.6365
  789MOL0     C 6442  10.898   2.433   5.536 -0.4234 -0.5199 -0.2766
  789MOL0     C 6443  10.758   2.375   5.549 -0.0147 -0.5793 -0.6540
  789MOL0     C 6444  10.675   2.402   5.432  0.1032 -0.4365  0.4185
  789MOL0     C 6445  10.591   2.407   5.344 -0.0181 -0.0065  0.2447
  789MOL0     C 6446  11.299   2.486   5.916 -0.6295 -1.7974  0.5473
  789MOL0     C 6447  11.311   2.585   6.020 -0.3423 -0.4513  0.7264
  789MOL0     H 6448  11.518   2.778   6.370 -2.1458 -0.5371  4.4972
  789MOL0     H 6449  11.551   2.928   6.547 -3.4854  0.1172  0.1828
  789MOL0     H 6450  11.590   3.369   6.613 -0.6827  3.7769  0.2690
  789MOL0     H 6451  11.529   3.359   6.447  1.7293  0.2967  0.0947
  789MOL0     H 6452  11.351   3.432   6.589  1.8464  0.9997 -0.4110
  789MOL0     H 6453  11.310   3.280   6.505 -1.5211  1.3654  1.0855
  789MOL0     H 6454  11.367   3.155   6.725 -3.8308 -0.3113  1.8589
  789MOL0     H 6455  11.396   3.309   6.800  1.3312  2.6403 -0.9017
  789MOL0     H 6456  11.174   3.388   6.729  1.4897  0.2704 -1.1294
  789MOL0     H 6457  11.125   3.230   6.666 -1.0608 -0.6160  2.0846
  789MOL0     H 6458  11.208   3.137   6.890 -0.2427 -0.9253 -1.7046
  789MOL0     H 6459  11.181   3.309   6.945 -1.2682 -0.4842  1.4427
  789MOL0     H 6460  10.960   3.300   6.851  1.6213 -0.7646 -1.3151
  789MOL0     H 6461  10.972   3.124   6.816 -0.7931 -0.8708  0.6559
  789MOL0     H 6462  10.835   3.188   7.020 -0.9919 -0.6999 -0.3662
  789MOL0     H 6463  10.942   3.048   7.013 -0.9420  0.6312 -2.5971
  789MOL0     H 6464  10.916   3.176   7.220 -1.9345  3.4567  0.3608
  789MOL0     H 6465  10.991   3.317   7.145  4.7848  0.5988 -1.0478
  789MOL0     H 6466  11.224   3.351   7.191 -1.9541  0.1290 -1.2791
  789MOL0     H 6467  11.533   3.161   7.269  1.4382  1.1371  2.0728
  789MOL0     H 6468  11.484   3.332   7.231 -2.2305  1.1382  0.7029
  789MOL0     H 6469  11.599   3.284   7.450  0.4715 -2.7382  0.9849
  789MOL0     H 6470  11.490   3.159   7.481 -1.7091 -0.1498 -0.6479
  789MOL0     H 6471  11.297   3.325   7.534  1.1448 -1.8808 -1.4023
  789MOL0     H 6472  11.403   3.442   7.460  2.7288  0.4506 -1.3712
  789MOL0     H 6473  11.416   3.459   7.705 -1.2583 -0.7217  1.2628
  789MOL0     H 6474  11.571   3.396   7.637 -0.1217 -1.0096 -3.1328
  789MOL0     H 6475  11.608   3.054   7.766 -3.0629  1.9093 -1.9049
  789MOL0     H 6476  11.770   2.909   7.862  1.4327 -2.0218 -0.3888
  789MOL0     H 6477  11.927   2.971   7.914  0.5668 -2.4266  1.6284
  789MOL0     H 6478  11.812   2.932   8.033  5.2379 -0.0898 -0.5375
  789MOL0     H 6479  12.033   2.889   8.246 -1.2471  2.5063 -2.7358
  789MOL0     H 6480  12.230   2.832   8.381  1.8160 -0.6338 -0.5771
  789MOL0     H 6481  12.388   2.867   8.550 -0.0529  2.8543  1.3823
  789MOL0     H 6482  12.472   2.812   8.398 -0.9727  0.3589  0.4345
  789MOL0     H 6483  12.675   2.912   8.468  0.7135  2.1335  1.9835
  789MOL0     H 6484  12.592   2.987   8.601 -1.7977  0.4403 -1.8309
  789MOL0     H 6485  12.643   2.705   8.518  1.8077 -1.5946  0.2574
  789MOL0     H 6486  12.553   2.733   8.669  1.4165 -0.6665  0.4689
  789MOL0     H 6487  12.847   2.830   8.608 -1.0515  1.1782 -0.0510
  789MOL0     H 6488  12.775   2.869   8.750  4.6001  1.2431  0.6386
  789MOL0     H 6489  12.744   2.620   8.810  1.0722 -3.3581 -0.8750
  789MOL0     H 6490  12.909   2.681   8.800  0.2801  1.1204 -0.1974
  789MOL0     H 6491  12.871   2.454   8.701  0.0134  0.3406  0.8947
  789MOL0     H 6492  12.747   2.509   8.616 -0.9602  0.2203  2.0465
  789MOL0     H 6493  12.900   2.629   8.448 -0.8489 -0.4382 -0.9579
  789MOL0     H 6494  12.971   2.472   8.484  0.6808  1.4130  0.9581
  789MOL0     H 6495  13.062   2.723   8.635  4.0718 -0.8837  3.1814
  789MOL0     H 6496  13.135   2.652   8.501 -2.1165 -0.6225 -2.0327
  789MOL0     H 6497  12.375   3.226   8.264 -0.6895  0.4682  1.5485
  789MOL0     H 6498  12.190   3.265   8.137 -1.1695 -1.7100 -2.1980
  789MOL0     H 6499  11.739   3.401   8.085  3.5494 -2.9663  2.6241
  789MOL0     H 6500  11.532   3.431   7.928 -0.4662 -1.5162 -1.9737
  789MOL0     H 6501  11.428   3.248   6.303 -2.4938 -1.4118  0.2294
  789MOL0     H 6502  11.369   3.101   6.121 -1.6497 -0.9449 -0.6163
  789MOL0     H 6503  11.096   2.817   5.920  2.5162  1.5886 -2.0159
  789MOL0     H 6504  11.055   2.662   5.736 -0.6602  1.8871  1.4642
  789MOL0     H 6505  11.128   2.518   5.558 -3.7331 -0.8305 -0.6300
  789MOL0     H 6506  11.188   2.350   5.522 -4.6583  0.4236 -2.2204
  789MOL0     H 6507  10.979   2.365   5.734 -0.3573  0.0907  1.5566
  789MOL0     H 6508  11.000   2.255   5.623  2.4557 -0.4939 -2.7585
  789MOL0     H 6509  10.946   2.423   5.438  0.0286 -0.9966 -0.0132
  789MOL0     H 6510  10.901   2.542   5.550 -2.0650 -0.4401 -0.4183
  789MOL0     H 6511  10.704   2.411   5.637 -2.2588 -0.1455 -2.1149
  789MOL0     H 6512  10.758   2.265   5.550  0.3949 -0.6025  1.6555
  789MOL0     H 6513  10.510   2.417   5.275 -2.6254  0.0645  3.1427
  789MOL0     H 6514  11.372   2.406   5.912 -0.7493 -1.9920  1.8601
  789MOL0     H 6515  11.380   2.574   6.103 -0.5140 -2.6028  0.6250
  790MOL0     O 6516   9.682   1.963   9.079  0.4904 -0.2874 -0.7671
  790MOL0     C 6517   9.794   2.012   9.093 -0.1664  0.0916 -0.3157
  790MOL0     O 6518   9.860   2.029   9.208  0.8159  0.0893  0.8167
  790MOL0     C 6519   9.794   2.007   9.327 -0.3038 -0.2475 -0.5831
  790MOL0     C 6520   9.812   2.099   9.437  0.7923  0.9757 -0.7242
  790MOL0     C 6521   9.780   2.056   9.566  0.0782 -1.0364 -0.1906
  790MOL0     C 6522   9.728   1.937   9.605 -0.6415  0.5090  0.4045
  790MOL0     O 6523   9.696   1.914   9.739 -0.1476  0.1772  0.3566
  790MOL0     C 6524   9.665   1.783   9.779 -0.1503 -0.6706 -0.4807
  790MOL0     C 6525   9.685   1.776   9.936  0.2408 -0.6977  1.0841
  790MOL0     C 6526   9.667   1.626   9.984  0.6308  0.3630 -0.0168
  790MOL0     C 6527   9.757   1.522   9.917  0.6211 -0.7998 -0.4521
  790MOL0     C 6528   9.730   1.374   9.953  0.8352 -0.0386  1.2152
  790MOL0     C 6529   9.742   1.336  10.100 -0.1849 -0.5698  0.4249
  790MOL0     C 6530   9.602   1.324  10.167  0.2162 -0.4910 -0.1019
  790MOL0     C 6531   9.611   1.280  10.322 -0.2723  0.0735  0.4768
  790MOL0     N 6532   9.501   1.332  10.397 -0.2827 -0.1283 -0.0351
  790MOL0     C 6533   9.464   1.275  10.513  0.3681  0.1132 -0.1956
  790MOL0     C 6534   9.359   1.337  10.568 -0.4303 -0.3852 -0.9548
  790MOL0     C 6535   9.280   1.306  10.693  0.1011 -0.1517  0.1537
  790MOL0     C 6536   9.146   1.246  10.671  0.0692  0.0609  0.9594
  790MOL0     C 6537   9.086   1.220  10.806  0.2657  0.5515  0.3457
  790MOL0     C 6538   8.960   1.152  10.795 -0.2768 -0.2654 -0.1390
  790MOL0     O 6539   8.876   1.263  10.744 -0.0567  0.4939 -0.5365
  790MOL0     C 6540   8.739   1.251  10.755  1.0024  0.2369  0.7046
  790MOL0     C 6541   8.666   1.128  10.785 -0.5662 -1.3228  0.6216
  790MOL0     C 6542   8.531   1.117  10.785 -0.6961 -0.3185  0.3673
  790MOL0     C 6543   8.473   0.979  10.827  0.2071 -0.4766  0.1939
  790MOL0     C 6544   8.458   1.235  10.765  1.0914  0.1563 -0.5187
  790MOL0     C 6545   8.313   1.241  10.780  0.3100  0.0480 -0.3025
  790MOL0     O 6546   8.257   1.326  10.691 -0.1269 -0.0190  0.2058
  790MOL0     C 6547   8.118   1.345  10.689 -0.4532 -0.1699  0.1942
  790MOL0     C 6548   8.019   1.264  10.752  0.3940 -0.0287 -0.4392
  790MOL0     C 6549   7.887   1.298  10.741 -0.0790  0.1670  0.9152
  790MOL0     C 6550   7.843   1.415  10.675 -0.3889 -0.0138 -0.4057
  790MOL0     O 6551   7.711   1.439  10.679 -0.0353  0.3418 -0.3025
  790MOL0     C 6552   7.652   1.542  10.590 -0.4166 -0.1482  0.7522
  790MOL0     C 6553   7.622   1.504  10.447  0.3866  0.2607  0.0528
  790MOL0     C 6554   7.527   1.380  10.436 -0.1873  0.4707 -0.3644
  790MOL0     C 6555   7.380   1.420  10.465 -0.2682 -0.2756 -0.5830
  790MOL0     C 6556   7.286   1.318  10.398 -0.3507  0.1129 -0.1735
  790MOL0     C 6557   7.142   1.343  10.444 -0.0740  0.7309 -0.0926
  790MOL0     C 6558   7.047   1.217  10.439 -0.0107  0.4874  0.2427
  790MOL0     C 6559   6.928   1.241  10.528  0.4753 -0.7360  0.9558
  790MOL0    Cl 6560   6.988   1.236  10.697  0.0275  0.0403 -0.0341
  790MOL0     C 6561   7.947   1.496  10.620  1.8359  0.3073 -0.6465
  790MOL0     C 6562   8.078   1.457  10.627 -0.4344 -0.0550 -0.1655
  790MOL0     O 6563   8.266   1.170  10.872  0.8864 -0.9101 -0.8086
  790MOL0     C 6564   8.527   1.361  10.764  0.0167 -0.4363  0.2974
  790MOL0     C 6565   8.661   1.361  10.745 -1.2855 -0.1245 -1.7242
  790MOL0     N 6566   9.336   1.452  10.491 -0.1082 -0.4884  1.2660
  790MOL0     N 6567   9.420   1.441  10.383 -0.2253 -0.2240  0.4478
  790MOL0     C 6568   9.707   1.843   9.502 -0.0550 -0.8904  0.9906
  790MOL0     C 6569   9.745   1.874   9.362  0.6447 -0.1431 -0.0865
  790MOL0     C 6570   9.859   2.054   8.970 -0.4337  0.2743 -0.8406
  790MOL0     C 6571   9.793   2.116   8.863 -0.8361 -0.4374  1.1130
  790MOL0     C 6572   9.862   2.164   8.745 -0.0248 -0.4045 -0.5003
  790MOL0     C 6573   9.997   2.170   8.753 -0.5921 -0.1059  0.2856
  790MOL0     O 6574  10.068   2.224   8.645 -0.0993 -0.0136  0.3289
  790MOL0     C 6575  10.008   2.343   8.584  0.3318  0.0300  0.5560
  790MOL0     C 6576  10.018   2.469   8.673  0.5202  0.2154 -0.3987
  790MOL0     C 6577   9.988   2.596   8.596 -0.2551  2.1435  0.7661
  790MOL0     C 6578  10.017   2.722   8.679  0.5810  0.0892 -0.1018
  790MOL0     C 6579  10.042   2.836   8.589 -1.0454  0.0155  0.3528
  790MOL0     C 6580  10.038   2.927   8.506  0.0144  0.5934 -0.1336
  790MOL0     C 6581  10.068   2.102   8.851  0.4050 -0.2814  0.0681
  790MOL0     C 6582   9.994   2.051   8.960 -0.2282 -0.2480  0.3318
  790MOL0     H 6583   9.854   2.199   9.448  1.8682  0.3929  0.8606
  790MOL0     H 6584   9.787   2.126   9.650 -0.9716 -1.1175 -0.0224
  790MOL0     H 6585   9.560   1.760   9.755 -0.5366  0.8324 -0.3169
  790MOL0     H 6586   9.724   1.703   9.733  0.4887 -2.0724  2.5385
  790MOL0     H 6587   9.789   1.802   9.955 -0.0274  1.2458  0.1275
  790MOL0     H 6588   9.619   1.847   9.987 -0.0915  0.6423 -1.0620
  790MOL0     H 6589   9.685   1.609  10.091 -2.0296  1.7710  0.7390
  790MOL0     H 6590   9.560   1.608   9.972 -0.1184  3.8627  0.4197
  790MOL0     H 6591   9.746   1.519   9.808  1.5161 -3.8108 -0.5382
  790MOL0     H 6592   9.855   1.560   9.950 -0.0809 -1.0057  2.0250
  790MOL0     H 6593   9.627   1.352   9.927 -0.6686  2.4864  4.2760
  790MOL0     H 6594   9.806   1.319   9.897  0.0896 -0.8555  1.0002
  790MOL0     H 6595   9.773   1.231  10.106 -0.8744 -0.6974  2.2860
  790MOL0     H 6596   9.808   1.405  10.152 -0.0133 -0.0454 -0.4738
  790MOL0     H 6597   9.552   1.421  10.155 -1.0400 -1.2333 -1.1294
  790MOL0     H 6598   9.548   1.252  10.105 -1.0779 -0.1826  0.6376
  790MOL0     H 6599   9.703   1.314  10.371  0.0824  1.1811 -0.8804
  790MOL0     H 6600   9.602   1.172  10.339 -2.8023 -0.0218 -0.9859
  790MOL0     H 6601   9.508   1.183  10.551 -1.0507  0.3534  2.2375
  790MOL0     H 6602   9.347   1.243  10.752 -0.3620  0.1929  1.0674
  790MOL0     H 6603   9.271   1.385  10.768  0.4206 -0.1760  0.2170
  790MOL0     H 6604   9.157   1.147  10.625  1.2628  0.2982  0.6806
  790MOL0     H 6605   9.086   1.321  10.620  2.3092  2.3196  1.4501
  790MOL0     H 6606   9.068   1.312  10.863  0.8658 -0.2374  1.8478
  790MOL0     H 6607   9.160   1.166  10.865  0.0559  1.8168  1.8570
  790MOL0     H 6608   8.912   1.119  10.887 -2.1649 -0.4546 -1.1452
  790MOL0     H 6609   8.964   1.071  10.722 -1.3256  0.6319 -1.2386
  790MOL0     H 6610   8.735   1.050  10.817  0.9902 -0.0869  0.3947
  790MOL0     H 6611   8.534   0.893  10.797 -0.7348 -1.3286  0.6736
  790MOL0     H 6612   8.434   0.971  10.929 -0.6381  0.0880 -0.0803
  790MOL0     H 6613   8.380   0.980  10.770 -0.1620 -0.8860  0.7764
  790MOL0     H 6614   8.025   1.173  10.811 -3.7732 -0.8883 -0.9799
  790MOL0     H 6615   7.809   1.237  10.786 -1.6736  2.1838  1.0055
  790MOL0     H 6616   7.555   1.552  10.640 -0.0920  1.4962  1.1345
  790MOL0     H 6617   7.702   1.639  10.601  1.5648 -1.1874  1.3851
  790MOL0     H 6618   7.578   1.592  10.400  0.9193  0.3703 -0.2390
  790MOL0     H 6619   7.710   1.466  10.394  0.8523  1.2554  0.0981
  790MOL0     H 6620   7.561   1.297  10.499  1.3392 -0.3388 -2.1551
  790MOL0     H 6621   7.539   1.324  10.343  2.7304 -1.9703  1.3137
  790MOL0     H 6622   7.367   1.428  10.573  1.0490 -0.1584 -0.4241
  790MOL0     H 6623   7.351   1.517  10.424  0.9109  0.5241  0.4194
  790MOL0     H 6624   7.313   1.220  10.439 -2.0040  0.4453  1.8882
  790MOL0     H 6625   7.294   1.311  10.289  0.5533 -1.7312 -0.0354
  790MOL0     H 6626   7.142   1.380  10.547 -1.4605 -0.8968  0.5319
  790MOL0     H 6627   7.106   1.426  10.382  0.7305  2.7861  2.0421
  790MOL0     H 6628   7.099   1.133  10.487 -1.6356  0.9951  3.1245
  790MOL0     H 6629   7.000   1.189  10.345 -1.4579 -3.6237  1.9292
  790MOL0     H 6630   6.859   1.157  10.517  1.8654 -1.9861  1.3943
  790MOL0     H 6631   6.869   1.328  10.499  2.8524  0.1160 -1.7430
  790MOL0     H 6632   7.931   1.593  10.574 -1.1923 -0.7709 -2.1137
  790MOL0     H 6633   8.158   1.517  10.585 -1.3154  0.0940 -1.6977
  790MOL0     H 6634   8.465   1.450  10.752  0.8794  0.1867  0.4177
  790MOL0     H 6635   8.703   1.456  10.712 -1.2874 -0.1268 -1.7334
  790MOL0     H 6636   9.669   1.746   9.531 -2.4934  0.9370  4.6198
  790MOL0     H 6637   9.738   1.806   9.278 -1.8745 -0.7811  0.5672
  790MOL0     H 6638   9.686   2.112   8.877 -0.6450 -2.7488  2.4076
  790MOL0     H 6639   9.809   2.193   8.655 -1.4779  0.1982  0.5102
  790MOL0     H 6640  10.056   2.367   8.488 -0.7758 -0.6918 -0.2027
  790MOL0     H 6641   9.902   2.328   8.563  0.1956  0.4459  0.9305
  790MOL0     H 6642  10.123   2.473   8.700  2.2686 -0.9816 -5.7089
  790MOL0     H 6643   9.947   2.464   8.756  0.8215 -0.3115 -0.1747
  790MOL0     H 6644   9.884   2.587   8.561  0.3464  0.0244 -0.6670
  790MOL0     H 6645  10.049   2.602   8.506  0.7065  0.2822  1.2577
  790MOL0     H 6646  10.101   2.698   8.744  0.3412  0.9308  0.5267
  790MOL0     H 6647   9.930   2.741   8.743  0.0133 -1.3458 -0.4080
  790MOL0     H 6648  10.043   3.013   8.441 -0.6814  0.8571  0.1521
  790MOL0     H 6649  10.175   2.088   8.855  0.6558  1.6359  1.7118
  790MOL0     H 6650  10.046   1.997   9.039  1.8613  1.0301 -0.0821
  791MOL0     O 6651   1.676  10.286   9.468  0.0558  0.5427 -1.0057
  791MOL0     C 6652   1.693  10.383   9.394  0.0564 -0.1317 -0.7551
  791MOL0     O 6653   1.589  10.453   9.342  0.0018 -0.3956  0.0691
  791MOL0     C 6654   1.459  10.420   9.364  0.4167 -0.1721 -1.7796
  791MOL0     C 6655   1.379  10.431   9.253 -1.6360  0.5200 -0.0584
  791MOL0     C 6656   1.245  10.394   9.250 -0.9945 -0.2708 -0.5221
  791MOL0     C 6657   1.176  10.357   9.363  0.5346  0.9781  1.3177
  791MOL0     O 6658   1.041  10.316   9.341 -0.1031 -0.6353  0.2681
  791MOL0     C 6659   0.970  10.273   9.462  1.6020 -0.8837 -0.8050
  791MOL0     C 6660   0.841  10.232   9.423  0.8401  0.2809  0.0670
  791MOL0     C 6661   0.839  10.133   9.306 -0.8225  0.2834 -0.1195
  791MOL0     C 6662   0.693  10.075   9.304 -0.0972 -0.3554  0.2275
  791MOL0     C 6663   0.657  10.010   9.166  0.1114  0.6953  0.2511
  791MOL0     C 6664   0.753   9.898   9.127  0.9021  0.0565  0.0547
  791MOL0     C 6665   0.746   9.782   9.229 -0.2654 -0.0287 -0.0922
  791MOL0     C 6666   0.824   9.658   9.169  0.1671 -1.0634 -0.3387
  791MOL0     N 6667   0.968   9.681   9.182 -0.1786  0.7726 -0.4786
  791MOL0     C 6668   1.046   9.779   9.126  1.1698 -0.6587  0.4741
  791MOL0     C 6669   1.163   9.773   9.188  0.2676 -1.4411 -1.3212
  791MOL0     C 6670   1.280   9.875   9.164  0.4655 -0.1003 -0.4221
  791MOL0     C 6671   1.265   9.999   9.268 -0.5699  0.6726  0.5241
  791MOL0     C 6672   1.297   9.976   9.421  0.8639 -0.0041 -0.6646
  791MOL0     C 6673   1.447   9.980   9.453  1.4383 -0.6782  0.3287
  791MOL0     O 6674   1.519   9.869   9.388 -0.0342 -0.6490 -0.4939
  791MOL0     C 6675   1.656   9.855   9.390  0.1029 -0.3362  0.2036
  791MOL0     C 6676   1.706   9.769   9.296 -0.0657 -0.3968  0.0498
  791MOL0     C 6677   1.838   9.767   9.253 -0.2692 -0.3049 -0.1198
  791MOL0     C 6678   1.856   9.665   9.133  0.9342  0.2964  0.7683
  791MOL0     C 6679   1.931   9.844   9.317 -0.0910 -0.2728  1.2303
  791MOL0     C 6680   2.077   9.840   9.300 -0.0133  1.3312 -0.7449
  791MOL0     O 6681   2.147   9.945   9.364  0.0010 -0.2229  0.4782
  791MOL0     C 6682   2.284   9.952   9.343  0.6052 -0.5814 -0.9864
  791MOL0     C 6683   2.373   9.863   9.402  0.3202  0.5246 -0.1428
  791MOL0     C 6684   2.509   9.882   9.383  0.2013 -0.5144 -0.0568
  791MOL0     C 6685   2.567  10.005   9.322  0.2382  0.2567  0.0276
  791MOL0     O 6686   2.700  10.034   9.324  0.4155 -0.6609 -1.3470
  791MOL0     C 6687   2.772  10.086   9.213 -0.0052 -0.2746  0.0387
  791MOL0     C 6688   2.907  10.133   9.255 -0.1658  1.0988 -0.1031
  791MOL0     C 6689   2.897  10.226   9.380 -0.4466  0.5477 -0.4264
  791MOL0     C 6690   3.037  10.268   9.433  0.2459  0.9267  0.2018
  791MOL0     C 6691   3.007  10.378   9.528 -0.5034 -0.6727  0.3086
  791MOL0     C 6692   3.132  10.408   9.605 -0.2842 -0.0786 -0.7806
  791MOL0     C 6693   3.163  10.295   9.712 -0.1688 -0.0625 -0.9308
  791MOL0     C 6694   3.290  10.218   9.675  0.2446  0.2254 -0.0943
  791MOL0    Cl 6695   3.431  10.316   9.692 -0.1667 -0.3484  0.3956
  791MOL0     C 6696   2.473  10.084   9.254 -0.3391  0.1120 -0.6314
  791MOL0     C 6697   2.329  10.060   9.269  0.1951 -2.3373 -0.4548
  791MOL0     O 6698   2.129   9.755   9.228  0.5890 -0.3397  0.3806
  791MOL0     C 6699   1.883   9.931   9.418  0.0576  0.4070 -0.5964
  791MOL0     C 6700   1.749   9.936   9.462 -0.5180 -0.1380  0.4144
  791MOL0     N 6701   1.165   9.673   9.282 -0.2729  0.4304  0.1144
  791MOL0     N 6702   1.047   9.615   9.271  0.4427  0.1423  0.1455
  791MOL0     C 6703   1.246  10.357   9.485 -0.1669 -1.1719  0.0976
  791MOL0     C 6704   1.392  10.375   9.482  1.4389  0.6186  1.0377
  791MOL0     C 6705   1.832  10.426   9.377 -0.5571 -0.0782 -0.2757
  791MOL0     C 6706   1.854  10.535   9.289  0.7414  0.5007  0.1078
  791MOL0     C 6707   1.978  10.591   9.276  0.5461 -0.1553 -0.3138
  791MOL0     C 6708   2.092  10.526   9.316 -1.8992 -0.4687 -0.1704
  791MOL0     O 6709   2.215  10.589   9.293 -0.6274 -0.1581  0.4636
  791MOL0     C 6710   2.329  10.542   9.358  0.2137  0.1220 -0.0791
  791MOL0     C 6711   2.459  10.614   9.309 -0.4110 -0.1471  0.6639
  791MOL0     C 6712   2.562  10.618   9.423  0.5465 -0.4313  0.8734
  791MOL0     C 6713   2.636  10.481   9.437 -0.6817 -0.0682 -0.2016
  791MOL0     C 6714   2.559  10.385   9.508  0.5494 -0.5860 -0.8051
  791MOL0     C 6715   2.495  10.289   9.552 -0.4715 -0.9845 -0.5572
  791MOL0     C 6716   2.080  10.405   9.385 -0.9068  0.4933  0.7774
  791MOL0     C 6717   1.951  10.353   9.418  0.1343 -0.0083 -1.3414
  791MOL0     H 6718   1.424  10.448   9.156 -0.0052  0.7026  0.6810
  791MOL0     H 6719   1.197  10.374   9.155  0.9619 -3.8729 -0.9242
  791MOL0     H 6720   1.034  10.190   9.496  1.1932 -0.4410  1.1139
  791MOL0     H 6721   0.971  10.354   9.535  4.4672 -0.8155 -0.7998
  791MOL0     H 6722   0.813  10.180   9.515  4.5208  0.0730  1.2327
  791MOL0     H 6723   0.776  10.318   9.406  0.9137  0.7719  2.1135
  791MOL0     H 6724   0.876  10.170   9.210 -0.1891 -1.2958 -0.5266
  791MOL0     H 6725   0.913  10.058   9.336 -1.3827  0.0304  0.6801
  791MOL0     H 6726   0.686   9.998   9.381  2.7826  0.8884  1.8665
  791MOL0     H 6727   0.610  10.143   9.325  0.4534 -0.7856  4.6399
  791MOL0     H 6728   0.555   9.971   9.167  0.5934 -0.6203  0.7560
  791MOL0     H 6729   0.686  10.094   9.102  4.3106 -0.1864  0.6850
  791MOL0     H 6730   0.706   9.870   9.032 -4.1645 -0.1871  2.3234
  791MOL0     H 6731   0.852   9.943   9.121 -0.1008  2.8132  1.9404
  791MOL0     H 6732   0.790   9.821   9.321  2.9990  1.7881 -2.2310
  791MOL0     H 6733   0.644   9.745   9.242  1.0264 -3.8411  0.2909
  791MOL0     H 6734   0.807   9.643   9.062  2.3716  2.8277 -1.4479
  791MOL0     H 6735   0.793   9.570   9.225 -1.8631  0.3699  0.9270
  791MOL0     H 6736   1.032   9.845   9.041 -0.6920  0.2742  1.4381
  791MOL0     H 6737   1.382   9.836   9.163  1.1368  1.5497  0.2209
  791MOL0     H 6738   1.273   9.929   9.069  1.4800 -0.7657 -0.8954
  791MOL0     H 6739   1.163  10.039   9.270 -2.2847 -2.6861 -3.7582
  791MOL0     H 6740   1.332  10.081   9.240  1.0424  0.2900  2.9084
  791MOL0     H 6741   1.262   9.875   9.442  2.5616 -0.0840  2.3459
  791MOL0     H 6742   1.238  10.043   9.484  0.6789  2.7297 -3.5056
  791MOL0     H 6743   1.472   9.972   9.559 -0.4799  0.6786  0.9438
  791MOL0     H 6744   1.475  10.081   9.421 -1.3249  0.1802  0.3753
  791MOL0     H 6745   1.639   9.714   9.230 -0.2262  0.7979 -0.8140
  791MOL0     H 6746   1.765   9.639   9.078  2.4989 -1.5927 -1.1293
  791MOL0     H 6747   1.927   9.721   9.071  0.3376  3.6527  2.8736
  791MOL0     H 6748   1.907   9.574   9.167 -1.8978 -1.1515  1.3773
  791MOL0     H 6749   2.338   9.787   9.471  0.4929 -0.7533 -1.4088
  791MOL0     H 6750   2.588   9.822   9.427 -0.0458 -3.1008 -2.8321
  791MOL0     H 6751   2.782  10.020   9.127 -1.4474 -2.6999  1.6107
  791MOL0     H 6752   2.714  10.162   9.160  1.8281 -1.0165 -3.2890
  791MOL0     H 6753   2.956  10.035   9.263 -2.7081 -0.4425 -1.9171
  791MOL0     H 6754   2.950  10.182   9.167  0.5226 -2.4370 -1.9163
  791MOL0     H 6755   2.833  10.177   9.454  0.8337 -0.4479  0.0644
  791MOL0     H 6756   2.852  10.323   9.359 -0.4008  1.0339  1.5171
  791MOL0     H 6757   3.085  10.183   9.483 -0.0597 -2.4937 -4.5640
  791MOL0     H 6758   3.102  10.300   9.351  0.1685 -1.4248 -0.8760
  791MOL0     H 6759   2.934  10.348   9.603 -0.9905 -0.1419  0.0589
  791MOL0     H 6760   2.959  10.461   9.474 -0.1369  0.8887  2.2412
  791MOL0     H 6761   3.215  10.428   9.537  1.2091  1.7037  1.4329
  791MOL0     H 6762   3.119  10.506   9.653 -5.7632 -1.0059  0.2847
  791MOL0     H 6763   3.083  10.220   9.724  0.1034 -0.1566  0.5392
  791MOL0     H 6764   3.173  10.339   9.812 -2.8878  0.3060 -0.7360
  791MOL0     H 6765   3.276  10.162   9.582  1.7600 -2.0082  0.9337
  791MOL0     H 6766   3.288  10.144   9.755 -1.8208  2.5956  2.2376
  791MOL0     H 6767   2.503  10.169   9.194  0.2004 -0.4665 -1.1840
  791MOL0     H 6768   2.252  10.126   9.232 -0.6168 -1.9130  1.8232
  791MOL0     H 6769   1.951   9.990   9.478 -1.8777  0.1061  2.0446
  791MOL0     H 6770   1.725  10.006   9.542  0.1170 -0.3582  0.8003
  791MOL0     H 6771   1.188  10.328   9.572 -3.3347 -2.7064 -2.3259
  791MOL0     H 6772   1.465  10.365   9.561  1.5732 -4.4794  0.5974
  791MOL0     H 6773   1.776  10.595   9.243 -0.0364 -1.6277 -1.4920
  791MOL0     H 6774   1.995  10.683   9.221 -0.7655  1.1479  1.3493
  791MOL0     H 6775   2.326  10.559   9.466  2.6016  1.6188 -0.1574
  791MOL0     H 6776   2.350  10.436   9.348  1.3658  0.1240  1.9096
  791MOL0     H 6777   2.428  10.714   9.276 -1.5316 -0.3431  1.0649
  791MOL0     H 6778   2.501  10.554   9.228  0.5519  2.8013 -1.1925
  791MOL0     H 6779   2.513  10.656   9.514  0.7131 -1.6837  1.5081
  791MOL0     H 6780   2.637  10.692   9.393  1.3850 -1.2205  1.0066
  791MOL0     H 6781   2.723  10.494   9.502 -1.9012 -0.8841  1.7009
  791MOL0     H 6782   2.677  10.457   9.339  1.5420  1.1323  0.3727
  791MOL0     H 6783   2.424  10.221   9.596 -2.4247 -0.0469 -2.1202
  791MOL0     H 6784   2.173  10.357   9.413  0.5425  2.0711 -1.0730
  791MOL0     H 6785   1.932  10.267   9.481 -2.8343  1.1461 -0.4405
  792MOL0     O 6786   8.546  11.069   0.670 -0.0557  0.2804  0.4915
  792MOL0     C 6787   8.658  11.110   0.654  0.2850 -0.4778 -1.2555
  792MOL0     O 6788   8.758  11.109   0.750  1.3125  0.2500 -0.1818
  792MOL0     C 6789   8.734  11.047   0.875 -0.3459  0.6054 -0.6572
  792MOL0     C 6790   8.607  11.003   0.942 -1.1827 -0.6209 -0.7567
  792MOL0     C 6791   8.605  10.968   1.069 -0.1221  0.3251  0.2321
  792MOL0     C 6792   8.732  10.946   1.135 -0.1232  0.0648  0.8485
  792MOL0     O 6793   8.735  10.907   1.262 -0.3132 -0.5772 -0.5849
  792MOL0     C 6794   8.812  10.792   1.308 -1.0373 -0.4386  0.9006
  792MOL0     C 6795   8.745  10.663   1.263 -0.6707 -0.6144 -0.6703
  792MOL0     C 6796   8.839  10.544   1.261  0.0232  0.5837  0.2632
  792MOL0     C 6797   8.902  10.491   1.399  0.1199 -0.6397  0.8836
  792MOL0     C 6798   8.796  10.457   1.498  0.4257  0.3690 -0.4887
  792MOL0     C 6799   8.670  10.390   1.441 -0.7173  0.1765  0.3587
  792MOL0     C 6800   8.563  10.386   1.544  1.5208 -0.0027 -1.1401
  792MOL0     C 6801   8.423  10.361   1.493 -0.3940  0.1303  0.1134
  792MOL0     N 6802   8.401  10.211   1.493  0.0001 -0.1860 -0.1449
  792MOL0     C 6803   8.357  10.130   1.592 -0.0563  0.6818  0.3637
  792MOL0     C 6804   8.357  10.008   1.535  0.1669  0.1032 -0.3285
  792MOL0     C 6805   8.324   9.879   1.613 -0.3176  0.7281 -0.8729
  792MOL0     C 6806   8.440   9.847   1.713  0.6039  0.3200  0.3890
  792MOL0     C 6807   8.406   9.747   1.818 -0.0645  0.1791  0.1571
  792MOL0     C 6808   8.323   9.635   1.770  0.0453 -1.0878  0.3275
  792MOL0     O 6809   8.371   9.589   1.642  0.8381  0.6094 -0.3417
  792MOL0     C 6810   8.342   9.455   1.612  1.2191 -0.0445  0.0914
  792MOL0     C 6811   8.425   9.390   1.518  0.0899 -0.2351  0.0416
  792MOL0     C 6812   8.400   9.263   1.471 -0.7080 -0.4029 -0.3581
  792MOL0     C 6813   8.496   9.217   1.370  0.7456  0.0675  0.1480
  792MOL0     C 6814   8.292   9.183   1.516 -0.1131 -0.1789 -0.0917
  792MOL0     C 6815   8.250   9.054   1.453 -0.5828 -0.5709  0.1858
  792MOL0     O 6816   8.162   8.996   1.536 -0.3835  0.1255  0.2096
  792MOL0     C 6817   8.135   8.865   1.499 -0.0705  0.0367 -1.2267
  792MOL0     C 6818   8.128   8.767   1.593  0.0138  0.1627  0.8269
  792MOL0     C 6819   8.095   8.628   1.569 -0.0297 -0.5038 -0.3453
  792MOL0     C 6820   8.062   8.582   1.450 -0.1432  0.4875  0.8212
  792MOL0     O 6821   8.021   8.459   1.411  0.1560 -0.4406  0.0878
  792MOL0     C 6822   7.973   8.365   1.504  0.7566  0.4283 -0.3502
  792MOL0     C 6823   7.875   8.273   1.424 -0.6549  0.5257  0.2145
  792MOL0     C 6824   7.731   8.337   1.387  0.3400 -0.8367 -0.5530
  792MOL0     C 6825   7.640   8.356   1.509  0.0608 -0.5745  0.8272
  792MOL0     C 6826   7.507   8.434   1.464 -0.2685  0.6105 -0.2821
  792MOL0     C 6827   7.391   8.394   1.555  0.2454 -0.3184 -1.2646
  792MOL0     C 6828   7.270   8.478   1.511  0.0618  0.1448  0.2426
  792MOL0     C 6829   7.156   8.461   1.615 -0.1033  0.6671 -0.4183
  792MOL0    Cl 6830   7.133   8.282   1.673  0.0006 -0.3764 -0.0702
  792MOL0     C 6831   8.065   8.682   1.346 -0.0331  0.3224 -0.9656
  792MOL0     C 6832   8.088   8.824   1.370 -0.6769 -0.7391 -0.9506
  792MOL0     O 6833   8.304   9.004   1.360  0.4598 -0.0663 -0.5258
  792MOL0     C 6834   8.220   9.240   1.623  0.5733 -0.0749  0.1573
  792MOL0     C 6835   8.239   9.374   1.669 -0.3566 -0.2508 -0.4251
  792MOL0     N 6836   8.402  10.012   1.406  0.1004  0.5751  0.2538
  792MOL0     N 6837   8.420  10.136   1.385 -0.0752 -0.4845 -0.8310
  792MOL0     C 6838   8.855  10.975   1.072 -0.3004 -0.4977 -0.1458
  792MOL0     C 6839   8.853  11.035   0.944  0.0700 -0.1345  0.0011
  792MOL0     C 6840   8.694  11.161   0.526  0.2203 -0.2715 -0.4049
  792MOL0     C 6841   8.788  11.256   0.512 -0.6366  0.5538  0.3399
  792MOL0     C 6842   8.825  11.308   0.388  0.7378 -0.1323  0.2793
  792MOL0     C 6843   8.742  11.291   0.276 -0.1705 -0.0690  0.5534
  792MOL0     O 6844   8.781  11.345   0.155  0.2590  0.6666 -0.6990
  792MOL0     C 6845   8.806  11.250   0.043  0.3527  0.4636 -0.1838
  792MOL0     C 6846   8.956  11.219   0.049 -0.2084  0.4813 -0.2683
  792MOL0     C 6847   8.991  11.068   0.039 -0.3786  0.7151  0.0176
  792MOL0     C 6848   9.007  11.015  -0.100  0.4104 -0.6659 -0.0918
  792MOL0     C 6849   9.060  10.882  -0.103  0.3349 -0.1674  1.0049
  792MOL0     C 6850   9.087  10.773  -0.129  0.0172 -0.3480  0.1168
  792MOL0     C 6851   8.640  11.195   0.289  0.4932  0.0174  0.0552
  792MOL0     C 6852   8.617  11.125   0.412  0.1450  0.1062 -0.7774
  792MOL0     H 6853   8.511  11.000   0.892 -2.9446  0.8886  2.2382
  792MOL0     H 6854   8.516  10.937   1.123  1.4768  0.8861  3.4142
  792MOL0     H 6855   8.910  10.782   1.262  0.7273 -0.7204  4.3756
  792MOL0     H 6856   8.828  10.798   1.416 -0.8317 -1.2947  0.9258
  792MOL0     H 6857   8.666  10.643   1.336  0.5217 -0.0989  0.8221
  792MOL0     H 6858   8.706  10.678   1.162  0.2650 -1.5938 -1.1993
  792MOL0     H 6859   8.783  10.465   1.211 -0.6169  1.0485  0.2237
  792MOL0     H 6860   8.924  10.560   1.195  1.0483  1.0787  1.6432
  792MOL0     H 6861   8.968  10.407   1.375  2.7005  1.7492 -1.0150
  792MOL0     H 6862   8.960  10.578   1.433  0.7368 -0.4964 -0.4824
  792MOL0     H 6863   8.844  10.387   1.567 -1.4475 -2.3154 -1.7318
  792MOL0     H 6864   8.772  10.548   1.554 -0.3975  1.1695 -2.0751
  792MOL0     H 6865   8.642  10.445   1.351  5.0092  3.7468  0.2317
  792MOL0     H 6866   8.702  10.292   1.407  3.8002  0.4179  3.1011
  792MOL0     H 6867   8.592  10.322   1.627  1.3202  2.6379  1.1175
  792MOL0     H 6868   8.548  10.487   1.582 -0.2849  0.1731 -2.2083
  792MOL0     H 6869   8.401  10.395   1.391 -4.0223  0.0867  0.7705
  792MOL0     H 6870   8.358  10.417   1.560  0.0269 -0.6529  1.2057
  792MOL0     H 6871   8.354  10.158   1.697  1.8511  2.5270  0.0004
  792MOL0     H 6872   8.230   9.900   1.664 -1.5084 -1.0296 -2.1962
  792MOL0     H 6873   8.313   9.792   1.547  1.5400 -0.2311  0.0000
  792MOL0     H 6874   8.476   9.936   1.764 -1.6428  0.5051  1.7657
  792MOL0     H 6875   8.530   9.827   1.653 -0.3500 -0.7810 -0.7597
  792MOL0     H 6876   8.355   9.793   1.904  4.1272 -0.5675  3.4033
  792MOL0     H 6877   8.500   9.711   1.861 -1.2596 -0.8488  2.0517
  792MOL0     H 6878   8.217   9.657   1.751  1.0251  1.2357 -3.6748
  792MOL0     H 6879   8.313   9.554   1.843 -0.4704 -1.8298 -0.5321
  792MOL0     H 6880   8.499   9.456   1.474  1.6447 -0.7275  1.7810
  792MOL0     H 6881   8.533   9.115   1.385  0.2741 -0.3016 -1.0374
  792MOL0     H 6882   8.446   9.212   1.273  0.6356 -0.3280  0.2199
  792MOL0     H 6883   8.585   9.279   1.356  1.7660 -1.2936  0.4111
  792MOL0     H 6884   8.153   8.801   1.693 -1.3322  2.1247  0.5466
  792MOL0     H 6885   8.105   8.562   1.655 -1.6679  2.8544  2.6908
  792MOL0     H 6886   8.059   8.312   1.547  0.1805 -1.0873 -0.9850
  792MOL0     H 6887   7.929   8.404   1.597  0.2934 -0.3425 -0.2347
  792MOL0     H 6888   7.922   8.228   1.336  0.7761  0.4780  0.9710
  792MOL0     H 6889   7.856   8.187   1.488  0.4491  1.4469  1.8526
  792MOL0     H 6890   7.670   8.272   1.324 -0.9847 -0.3594  0.2197
  792MOL0     H 6891   7.741   8.431   1.333 -2.1839 -0.4930 -0.4954
  792MOL0     H 6892   7.638   8.264   1.569  0.6908 -0.2366  1.3785
  792MOL0     H 6893   7.688   8.422   1.581 -1.2499  1.3540  0.0304
  792MOL0     H 6894   7.477   8.394   1.366 -0.1339  1.0933 -0.5260
  792MOL0     H 6895   7.533   8.540   1.457  3.0252 -0.1721 -1.8846
  792MOL0     H 6896   7.373   8.286   1.543 -2.7285  0.1886 -2.2054
  792MOL0     H 6897   7.410   8.404   1.663 -1.8780  1.2302 -0.9619
  792MOL0     H 6898   7.236   8.453   1.410 -1.2706  0.9898  0.4558
  792MOL0     H 6899   7.308   8.580   1.509  0.0922  0.1357  0.3935
  792MOL0     H 6900   7.069   8.500   1.562 -1.0177 -2.4307 -1.4248
  792MOL0     H 6901   7.181   8.517   1.705 -4.4069  2.1431  0.0572
  792MOL0     H 6902   8.048   8.661   1.241  0.3814  0.3436 -1.0406
  792MOL0     H 6903   8.066   8.895   1.291 -0.0865  1.2252  0.5712
  792MOL0     H 6904   8.128   9.190   1.653 -0.6464  1.9276 -0.0479
  792MOL0     H 6905   8.172   9.422   1.740  1.0737 -0.6883  1.2616
  792MOL0     H 6906   8.945  10.957   1.130 -0.1162 -1.2926 -0.6638
  792MOL0     H 6907   8.944  11.071   0.896  0.6338 -1.5164 -0.0424
  792MOL0     H 6908   8.838  11.278   0.606 -2.3833  1.1493  1.1541
  792MOL0     H 6909   8.910  11.374   0.375  0.9124 -0.8916 -3.5552
  792MOL0     H 6910   8.747  11.158   0.051  1.6504 -0.7149 -2.9239
  792MOL0     H 6911   8.780  11.307  -0.046 -2.3017 -0.2995  0.0266
  792MOL0     H 6912   8.998  11.259   0.141 -0.8824  1.1056 -0.2265
  792MOL0     H 6913   9.009  11.270  -0.032  2.7905  1.1508  1.9478
  792MOL0     H 6914   8.920  11.003   0.091 -1.1744  0.5546 -1.2284
  792MOL0     H 6915   9.077  11.061   0.107  0.9809  0.8303 -1.6273
  792MOL0     H 6916   9.083  11.079  -0.147  0.9760 -0.6546  0.8193
  792MOL0     H 6917   8.911  11.015  -0.153 -0.9882 -4.1821  2.1153
  792MOL0     H 6918   9.129  10.676  -0.143 -0.7262 -0.4847 -1.4237
  792MOL0     H 6919   8.596  11.168   0.193  4.0620  1.2171 -2.1491
  792MOL0     H 6920   8.542  11.046   0.405  0.3643 -0.2542  0.5490
  793MOL0     O 6921   1.348   5.574   3.173 -0.3071 -0.4569 -0.3371
  793MOL0     C 6922   1.258   5.650   3.209  0.1744  0.2881  0.3375
  793MOL0     O 6923   1.258   5.784   3.194 -0.1394 -1.0100 -0.7445
  793MOL0     C 6924   1.363   5.856   3.147 -0.2107  0.8517  0.3897
  793MOL0     C 6925   1.339   5.967   3.064  0.7309 -0.3199 -0.2295
  793MOL0     C 6926   1.441   6.054   3.029 -0.9069 -0.1668 -0.3681
  793MOL0     C 6927   1.568   6.036   3.071 -0.6185 -0.9853 -1.2037
  793MOL0     O 6928   1.670   6.126   3.041  0.2278  0.3605 -0.6518
  793MOL0     C 6929   1.660   6.185   2.912  0.2753 -0.4121 -0.2869
  793MOL0     C 6930   1.796   6.254   2.894 -0.8123 -0.4379  0.0822
  793MOL0     C 6931   1.776   6.387   2.822  0.8220 -0.4507  1.0279
  793MOL0     C 6932   1.897   6.469   2.772 -0.3287  0.3727  0.6331
  793MOL0     C 6933   1.862   6.610   2.716 -0.0731 -1.0325 -0.9676
  793MOL0     C 6934   1.929   6.647   2.585  0.2650  0.5753  1.0017
  793MOL0     C 6935   1.880   6.793   2.547  0.4470  0.7223 -0.4359
  793MOL0     C 6936   1.910   6.851   2.409 -0.3825 -0.6302  0.0560
  793MOL0     N 6937   2.061   6.861   2.389  0.9666  0.5555 -0.3013
  793MOL0     C 6938   2.148   6.946   2.446  0.4985 -0.0105  0.2523
  793MOL0     C 6939   2.263   6.917   2.389 -0.5410  0.0680  0.4459
  793MOL0     C 6940   2.389   6.961   2.448  0.3147 -0.6105  0.4413
  793MOL0     C 6941   2.518   6.927   2.379  0.5839  0.2861 -0.1266
  793MOL0     C 6942   2.642   6.923   2.475  0.1073 -0.1667  0.7448
  793MOL0     C 6943   2.776   6.913   2.407  0.8614  0.7637  0.9354
  793MOL0     O 6944   2.770   7.002   2.295  0.6058 -0.4034 -0.2475
  793MOL0     C 6945   2.858   6.982   2.201 -0.1906 -0.3607  0.0591
  793MOL0     C 6946   2.980   6.910   2.213 -0.2910  0.4261 -0.1835
  793MOL0     C 6947   3.072   6.890   2.112 -0.3745 -0.2223 -0.4618
  793MOL0     C 6948   3.183   6.792   2.132  0.9607  1.0225 -0.6843
  793MOL0     C 6949   3.044   6.964   1.990  0.7942  0.1985  0.3940
  793MOL0     C 6950   3.133   6.962   1.875  0.0350 -0.4180  0.0003
  793MOL0     O 6951   3.102   7.034   1.761  0.1983 -0.2920 -0.2270
  793MOL0     C 6952   3.155   6.991   1.644  0.5429 -0.1830  0.5862
  793MOL0     C 6953   3.127   6.868   1.578  0.3850  0.0532 -0.2351
  793MOL0     C 6954   3.185   6.833   1.460  0.2193 -0.5298 -0.1789
  793MOL0     C 6955   3.261   6.925   1.389 -0.7594 -0.2272  0.5067
  793MOL0     O 6956   3.300   6.894   1.262  0.4948 -0.2787 -0.2308
  793MOL0     C 6957   3.384   6.982   1.187  0.7316  0.0144 -0.2463
  793MOL0     C 6958   3.424   6.922   1.055 -0.6266 -0.1421 -0.5883
  793MOL0     C 6959   3.303   6.906   0.966  0.7612  1.0218  0.3516
  793MOL0     C 6960   3.344   6.926   0.812 -0.4316  0.6693  0.0656
  793MOL0     C 6961   3.445   6.814   0.754 -0.9220 -0.2973  0.3355
  793MOL0     C 6962   3.496   6.856   0.615 -0.0744  0.3070  0.1127
  793MOL0     C 6963   3.390   6.863   0.496 -0.2925 -0.9114  0.6621
  793MOL0     C 6964   3.435   6.962   0.385  1.4897 -0.4397 -1.0150
  793MOL0    Cl 6965   3.416   7.124   0.471  0.0550  0.0764 -0.2979
  793MOL0     C 6966   3.287   7.045   1.451 -0.6100 -0.1063 -0.5106
  793MOL0     C 6967   3.228   7.078   1.570 -0.4375  0.6048  0.1850
  793MOL0     O 6968   3.246   6.909   1.885  0.1670  0.0963  0.5536
  793MOL0     C 6969   2.920   7.034   1.976 -0.7181 -0.1282 -0.1478
  793MOL0     C 6970   2.827   7.032   2.078 -0.4266  0.5728  0.5693
  793MOL0     N 6971   2.240   6.816   2.290 -0.4713  0.0102  0.0558
  793MOL0     N 6972   2.112   6.807   2.277 -0.6586  0.8244  0.1262
  793MOL0     C 6973   1.595   5.929   3.155  0.0196 -0.6008  0.2318
  793MOL0     C 6974   1.494   5.837   3.188 -0.9286 -0.7680  0.1065
  793MOL0     C 6975   1.127   5.595   3.262  0.3232  0.7064  0.8517
  793MOL0     C 6976   1.029   5.681   3.304  0.2846  0.4326  0.5548
  793MOL0     C 6977   0.902   5.638   3.369 -0.3301 -0.0049 -0.0041
  793MOL0     C 6978   0.898   5.499   3.402  0.4687 -0.1608  0.4163
  793MOL0     O 6979   0.796   5.450   3.475  0.0529  0.8978 -0.9453
  793MOL0     C 6980   0.701   5.396   3.382  0.1876 -0.6226 -0.2960
  793MOL0     C 6981   0.571   5.383   3.457  0.4248 -1.1098  0.1589
  793MOL0     C 6982   0.579   5.277   3.568  0.3243 -0.4049  0.4488
  793MOL0     C 6983   0.440   5.207   3.569 -0.0881 -1.0541  1.1520
  793MOL0     C 6984   0.421   5.151   3.703 -0.0222  0.6614  0.0806
  793MOL0     C 6985   0.389   5.119   3.817 -0.2704 -0.8961  0.2872
  793MOL0     C 6986   1.011   5.420   3.372  0.7206 -0.1558  0.4399
  793MOL0     C 6987   1.119   5.461   3.304 -0.2980 -0.8119  1.4552
  793MOL0     H 6988   1.237   5.996   3.039  0.2762 -0.7526  1.0281
  793MOL0     H 6989   1.414   6.130   2.956  0.7103  0.0539 -0.7666
  793MOL0     H 6990   1.635   6.118   2.829 -5.4531 -0.6934  1.2637
  793MOL0     H 6991   1.584   6.263   2.906  2.5071  1.8965 -0.3155
  793MOL0     H 6992   1.845   6.284   2.988 -1.1319 -0.9330  0.4104
  793MOL0     H 6993   1.857   6.179   2.843 -2.0373 -1.7002  0.4262
  793MOL0     H 6994   1.703   6.376   2.741  0.3631 -3.2646  1.7331
  793MOL0     H 6995   1.731   6.448   2.901  1.8541  1.8342 -0.0499
  793MOL0     H 6996   1.959   6.487   2.860 -0.2243  1.1397  0.4086
  793MOL0     H 6997   1.962   6.403   2.715  0.3823  3.0217 -1.8206
  793MOL0     H 6998   1.755   6.631   2.723  0.0269 -0.4306 -1.1683
  793MOL0     H 6999   1.895   6.681   2.793 -4.8529  0.1852  0.2817
  793MOL0     H 7000   2.037   6.644   2.599  0.6043 -2.2616 -1.3504
  793MOL0     H 7001   1.902   6.574   2.508 -1.3262  1.6069  0.5318
  793MOL0     H 7002   1.771   6.795   2.556  0.2320 -1.8285 -1.5914
  793MOL0     H 7003   1.923   6.853   2.628 -0.0815 -1.2625  1.3858
  793MOL0     H 7004   1.864   6.950   2.403 -3.4241 -1.6491  3.5206
  793MOL0     H 7005   1.873   6.791   2.325  0.1853  1.4437 -1.7981
  793MOL0     H 7006   2.122   7.019   2.522 -1.9957  0.0933 -0.6042
  793MOL0     H 7007   2.384   7.069   2.462 -3.3472 -0.6086 -0.1149
  793MOL0     H 7008   2.382   6.914   2.546 -0.3931 -4.6909 -1.3449
  793MOL0     H 7009   2.531   6.997   2.296  3.3115 -2.2524 -2.0632
  793MOL0     H 7010   2.510   6.824   2.341  2.0057  0.5136 -1.1190
  793MOL0     H 7011   2.636   6.831   2.534 -4.8358 -1.0327 -0.6348
  793MOL0     H 7012   2.647   7.015   2.534 -1.8685  0.5962 -0.1682
  793MOL0     H 7013   2.772   6.809   2.373 -2.7312  0.8185  0.7867
  793MOL0     H 7014   2.862   6.924   2.473  0.2583  1.3846  1.6466
  793MOL0     H 7015   2.993   6.855   2.306 -1.9804  2.0915  1.1229
  793MOL0     H 7016   3.177   6.716   2.054  0.9270  0.9359 -0.5977
  793MOL0     H 7017   3.284   6.833   2.141  2.0762 -1.7734  1.3320
  793MOL0     H 7018   3.173   6.731   2.222  0.9758  0.1234 -1.2773
  793MOL0     H 7019   3.073   6.798   1.641  1.0812  1.0394  1.5388
  793MOL0     H 7020   3.149   6.737   1.422 -1.9577  0.0981  0.1413
  793MOL0     H 7021   3.327   7.074   1.169 -1.4020 -1.4136 -1.1651
  793MOL0     H 7022   3.472   6.994   1.250  0.1060 -2.1316  1.1273
  793MOL0     H 7023   3.504   6.987   1.017  0.5830 -1.9334 -1.2718
  793MOL0     H 7024   3.474   6.825   1.069 -0.4600  0.0983  0.5808
  793MOL0     H 7025   3.218   6.971   0.989 -1.5168 -1.4725 -0.4600
  793MOL0     H 7026   3.266   6.804   0.981 -0.8331  1.3916 -0.8276
  793MOL0     H 7027   3.248   6.928   0.759 -0.9393 -0.1884  0.9109
  793MOL0     H 7028   3.391   7.023   0.797  1.5937 -0.3784 -0.6984
  793MOL0     H 7029   3.409   6.711   0.753  1.6366 -1.2805 -1.7150
  793MOL0     H 7030   3.538   6.806   0.810 -0.5976 -4.7696 -0.4897
  793MOL0     H 7031   3.545   6.953   0.616 -0.0750  0.3424 -1.3750
  793MOL0     H 7032   3.569   6.778   0.594 -0.2022 -0.3116  1.7655
  793MOL0     H 7033   3.289   6.890   0.526  1.1616  3.2259  2.5646
  793MOL0     H 7034   3.376   6.761   0.460 -3.3640 -0.6283  0.8325
  793MOL0     H 7035   3.367   6.939   0.303  0.7354 -1.5609 -0.1070
  793MOL0     H 7036   3.539   6.975   0.355  2.0987 -1.8518  0.3415
  793MOL0     H 7037   3.363   7.106   1.404 -1.4521  1.8243  0.5123
  793MOL0     H 7038   3.242   7.176   1.615 -2.1393  0.5905  0.8112
  793MOL0     H 7039   2.905   7.097   1.888  1.2455  4.5411  2.5179
  793MOL0     H 7040   2.732   7.084   2.072  0.1598  1.8406  1.8519
  793MOL0     H 7041   1.692   5.900   3.192 -0.8483 -1.7294  1.7665
  793MOL0     H 7042   1.508   5.754   3.257  3.2335 -0.9227 -0.6961
  793MOL0     H 7043   1.030   5.789   3.292 -3.0392  0.6847  1.3185
  793MOL0     H 7044   0.825   5.709   3.397 -1.1648 -0.1992 -1.6646
  793MOL0     H 7045   0.686   5.463   3.296 -0.0299 -0.0754  0.1659
  793MOL0     H 7046   0.739   5.296   3.357  0.2717 -0.4737 -0.7918
  793MOL0     H 7047   0.507   5.349   3.376 -0.1024 -1.5096  0.7353
  793MOL0     H 7048   0.538   5.476   3.504  2.0230 -1.8107  2.9181
  793MOL0     H 7049   0.603   5.333   3.659 -3.7816  0.9954  0.9015
  793MOL0     H 7050   0.655   5.202   3.546  1.3020 -0.9381  4.7359
  793MOL0     H 7051   0.441   5.140   3.483  1.9731  2.4182 -1.7973
  793MOL0     H 7052   0.358   5.276   3.545 -1.6012 -3.3788 -0.8546
  793MOL0     H 7053   0.375   5.091   3.920  0.1196 -1.6338  0.1470
  793MOL0     H 7054   1.008   5.318   3.408  0.7774 -0.8828 -1.4986
  793MOL0     H 7055   1.208   5.403   3.282 -0.0177  0.1517 -0.0701
  794MOL0     O 7056   1.173   8.119   3.189 -0.2109 -0.3199 -0.6000
  794MOL0     C 7057   1.058   8.163   3.187  0.0361  0.1925  0.0765
  794MOL0     O 7058   1.030   8.296   3.176 -0.0082 -0.0982  0.3731
  794MOL0     C 7059   1.083   8.402   3.247  0.4013  0.5910  0.6824
  794MOL0     C 7060   1.180   8.385   3.346  0.3759 -0.1942  0.8255
  794MOL0     C 7061   1.224   8.507   3.408 -0.8467 -0.1966 -0.2702
  794MOL0     C 7062   1.177   8.632   3.380 -0.3194 -0.5795 -0.7028
  794MOL0     O 7063   1.242   8.733   3.454  0.2651  0.5571 -0.3987
  794MOL0     C 7064   1.253   8.855   3.375 -0.1543 -1.0161  0.4469
  794MOL0     C 7065   1.125   8.943   3.387 -0.1843  0.1107  1.3425
  794MOL0     C 7066   1.089   8.959   3.538 -1.0073  0.3870  0.3335
  794MOL0     C 7067   1.191   8.984   3.649 -0.4059  0.2001 -0.4001
  794MOL0     C 7068   1.110   8.977   3.781  0.6432 -0.8281  0.8538
  794MOL0     C 7069   1.198   8.991   3.902 -0.5065  0.1548 -0.5021
  794MOL0     C 7070   1.120   9.052   4.021  0.5564 -0.0519 -0.7455
  794MOL0     C 7071   1.217   9.071   4.136  0.4254 -0.8712  0.7264
  794MOL0     N 7072   1.148   9.110   4.259 -0.1122  0.5160  1.0878
  794MOL0     C 7073   1.099   9.238   4.268  0.0296  0.0935  0.2193
  794MOL0     C 7074   1.018   9.241   4.379 -0.1902  0.7304 -0.2826
  794MOL0     C 7075   0.935   9.347   4.452  0.9460 -1.0270  0.9553
  794MOL0     C 7076   0.911   9.465   4.357  0.1478 -0.3520  0.2563
  794MOL0     C 7077   0.832   9.422   4.237  0.9369 -0.4570  0.2792
  794MOL0     C 7078   0.801   9.552   4.154  0.1765  0.7379  0.1562
  794MOL0     O 7079   0.749   9.511   4.021  0.5233 -0.1164 -0.2339
  794MOL0     C 7080   0.716   9.606   3.927  0.2446  0.4465 -0.3516
  794MOL0     C 7081   0.672   9.565   3.806 -0.3588 -0.0342 -0.4752
  794MOL0     C 7082   0.627   9.661   3.703  0.0521  0.0300 -0.2938
  794MOL0     C 7083   0.579   9.619   3.572  0.9570  0.8285 -0.1092
  794MOL0     C 7084   0.650   9.795   3.737  1.0469 -0.6509 -0.0643
  794MOL0     C 7085   0.621   9.902   3.636 -0.5701  0.6986 -0.2194
  794MOL0     O 7086   0.496   9.914   3.575  0.7402 -0.2784 -0.6628
  794MOL0     C 7087   0.488  10.020   3.485 -0.6218  1.0049 -0.0684
  794MOL0     C 7088   0.434   9.987   3.364 -0.4744  0.0687  0.8249
  794MOL0     C 7089   0.427  10.081   3.259  0.8512 -0.3545 -0.8193
  794MOL0     C 7090   0.458  10.217   3.286  0.6061  0.6199  0.6447
  794MOL0     O 7091   0.469  10.311   3.186  0.3305 -0.1807  0.3787
  794MOL0     C 7092   0.415  10.292   3.053  1.0914 -0.2169 -0.2449
  794MOL0     C 7093   0.264  10.321   3.066  0.7182  0.0339 -0.2857
  794MOL0     C 7094   0.191  10.315   2.943  0.4457 -0.1965  0.1245
  794MOL0     C 7095   0.256  10.395   2.824  0.0796 -0.3014  0.4836
  794MOL0     C 7096   0.156  10.419   2.706  0.1511  0.5581  0.2541
  794MOL0     C 7097   0.225  10.514   2.608 -0.3973 -0.5266  0.4069
  794MOL0     C 7098   0.158  10.538   2.469  0.1678 -0.0043  0.8199
  794MOL0     C 7099   0.189  10.430   2.371  0.1906 -0.0678  0.4611
  794MOL0    Cl 7100   0.360  10.428   2.309  0.4844  0.1802 -0.2243
  794MOL0     C 7101   0.490  10.251   3.420  0.9092  0.4331 -0.4192
  794MOL0     C 7102   0.516  10.154   3.515  0.7774 -0.5535 -0.8786
  794MOL0     O 7103   0.722   9.979   3.629 -0.0760 -0.3921 -0.5607
  794MOL0     C 7104   0.710   9.829   3.860 -0.4984 -0.6547  0.3355
  794MOL0     C 7105   0.729   9.734   3.962  0.4503 -0.6954 -0.2207
  794MOL0     N 7106   1.025   9.112   4.429  0.0294 -0.1403 -0.6919
  794MOL0     N 7107   1.100   9.030   4.365  0.5768  0.2661 -0.1955
  794MOL0     C 7108   1.089   8.648   3.275  0.8187 -0.5289 -0.0858
  794MOL0     C 7109   1.046   8.533   3.208  0.1473 -0.9132  0.4218
  794MOL0     C 7110   0.945   8.077   3.147  0.0671  0.5777 -0.7783
  794MOL0     C 7111   0.956   7.931   3.119 -0.2730 -0.4574  0.4977
  794MOL0     C 7112   0.841   7.848   3.071  0.8045 -0.1016 -0.0417
  794MOL0     C 7113   0.720   7.909   3.068 -0.5709 -0.3930 -0.2322
  794MOL0     O 7114   0.605   7.839   3.024  0.8610 -0.0045 -0.4336
  794MOL0     C 7115   0.614   7.700   3.002  0.2757  0.0640 -0.6276
  794MOL0     C 7116   0.478   7.650   2.985  0.1567  0.4778  0.3477
  794MOL0     C 7117   0.415   7.716   2.865 -0.4181  0.1310 -0.8835
  794MOL0     C 7118   0.295   7.644   2.794 -0.2574  0.3428  0.1048
  794MOL0     C 7119   0.288   7.676   2.653 -0.2238  0.0744 -0.6124
  794MOL0     C 7120   0.297   7.706   2.537  0.8846  0.5398  1.0100
  794MOL0     C 7121   0.708   8.046   3.093 -0.0254 -0.2691  0.0282
  794MOL0     C 7122   0.816   8.127   3.125 -0.2247  0.1698  0.5623
  794MOL0     H 7123   1.219   8.289   3.376  3.9181  1.5994  2.5832
  794MOL0     H 7124   1.285   8.489   3.497 -0.4065  0.8080 -0.3544
  794MOL0     H 7125   1.342   8.910   3.407 -1.8687  0.5193  2.9807
  794MOL0     H 7126   1.263   8.840   3.267  1.4578  3.5611 -0.2498
  794MOL0     H 7127   1.142   9.046   3.356 -0.7665 -0.3907 -0.7924
  794MOL0     H 7128   1.041   8.912   3.324  1.7655  3.2879 -3.3889
  794MOL0     H 7129   1.028   9.049   3.543 -0.2726  1.1099 -2.1098
  794MOL0     H 7130   1.036   8.866   3.559 -0.2968 -0.1675 -0.2732
  794MOL0     H 7131   1.270   8.908   3.650  1.4411  1.8843  3.1925
  794MOL0     H 7132   1.241   9.081   3.637 -3.5656  1.8483 -1.4989
  794MOL0     H 7133   1.033   9.054   3.784  3.7804  2.6762 -0.5830
  794MOL0     H 7134   1.060   8.880   3.780  0.6942 -0.8572 -0.2256
  794MOL0     H 7135   1.224   8.892   3.941  0.3984  0.7752  0.5215
  794MOL0     H 7136   1.289   9.045   3.874 -0.1090  0.1904  0.8287
  794MOL0     H 7137   1.088   9.153   3.995  1.1897  0.1588 -0.7172
  794MOL0     H 7138   1.040   8.979   4.036  0.2215  0.4287 -0.1581
  794MOL0     H 7139   1.291   9.145   4.104  0.7221  0.0318  3.2272
  794MOL0     H 7140   1.267   8.976   4.156 -0.0243 -0.6920  2.9953
  794MOL0     H 7141   1.121   9.314   4.193  1.3749 -0.0150  0.4831
  794MOL0     H 7142   0.834   9.307   4.468 -0.3174  0.8629 -1.5997
  794MOL0     H 7143   0.987   9.374   4.544  3.4328  0.3919 -0.7762
  794MOL0     H 7144   1.000   9.512   4.314 -0.9367  0.3887 -1.2434
  794MOL0     H 7145   0.866   9.539   4.424 -0.8416 -2.1964  1.7290
  794MOL0     H 7146   0.738   9.374   4.265  1.0047 -0.4914  0.4463
  794MOL0     H 7147   0.884   9.347   4.176 -1.1334 -3.4599  1.9601
  794MOL0     H 7148   0.885   9.621   4.144  2.1024 -1.4114  0.7722
  794MOL0     H 7149   0.727   9.608   4.213 -0.2060  0.4425 -0.0382
  794MOL0     H 7150   0.672   9.457   3.796  0.1126 -0.4485  2.7493
  794MOL0     H 7151   0.665   9.628   3.506  2.0428 -1.0466  0.9678
  794MOL0     H 7152   0.568   9.510   3.581 -1.3725  1.1186  1.4112
  794MOL0     H 7153   0.488   9.663   3.530  0.5099 -2.3961 -3.0449
  794MOL0     H 7154   0.407   9.886   3.336 -2.6982  0.3663  1.7147
  794MOL0     H 7155   0.393  10.052   3.160  2.3053 -2.3152 -0.8053
  794MOL0     H 7156   0.470  10.357   2.984 -0.3953  1.0653 -0.2820
  794MOL0     H 7157   0.428  10.193   3.008 -2.1128 -0.4281 -0.9269
  794MOL0     H 7158   0.216  10.250   3.135 -0.6644  1.5100  0.3344
  794MOL0     H 7159   0.255  10.421   3.108  0.2091  0.1640 -0.6909
  794MOL0     H 7160   0.089  10.352   2.961 -0.6544 -2.7460 -0.4252
  794MOL0     H 7161   0.175  10.212   2.909  0.0227  0.6954 -2.6161
  794MOL0     H 7162   0.307  10.485   2.863 -0.3248  0.2559 -0.2586
  794MOL0     H 7163   0.336  10.341   2.772 -0.7466 -0.3110 -0.8088
  794MOL0     H 7164   0.063  10.461   2.746  0.1662 -0.2390  1.1633
  794MOL0     H 7165   0.132  10.322   2.662  2.8650 -0.7753  1.4340
  794MOL0     H 7166   0.243  10.614   2.647  1.4846  0.3524 -2.3729
  794MOL0     H 7167   0.324  10.469   2.595  0.7229  1.0752  2.7495
  794MOL0     H 7168   0.182  10.638   2.432  1.0527  0.6342  2.9874
  794MOL0     H 7169   0.050  10.536   2.487  0.1193  4.0634  1.7561
  794MOL0     H 7170   0.117  10.431   2.288  1.2016 -0.2749 -0.4429
  794MOL0     H 7171   0.167  10.335   2.419 -1.8342 -0.0775 -0.3804
  794MOL0     H 7172   0.505  10.357   3.440  3.1350  0.2665 -0.9709
  794MOL0     H 7173   0.560  10.193   3.606 -0.3159 -1.9521  0.2937
  794MOL0     H 7174   0.723   9.936   3.871  1.9758 -1.0923  2.7834
  794MOL0     H 7175   0.752   9.775   4.060  2.7753  1.5754 -1.5827
  794MOL0     H 7176   1.060   8.742   3.230 -0.7934 -1.1457 -0.3921
  794MOL0     H 7177   0.992   8.551   3.115 -0.3466 -0.4923  0.7817
  794MOL0     H 7178   1.053   7.890   3.143  0.9337  1.0876 -1.4834
  794MOL0     H 7179   0.861   7.743   3.055  0.0795  0.0760 -2.7168
  794MOL0     H 7180   0.676   7.671   2.916  0.0213  0.7835 -1.0602
  794MOL0     H 7181   0.654   7.639   3.084 -3.0679  0.5371  1.5148
  794MOL0     H 7182   0.430   7.666   3.082  2.5352 -0.4662  1.7574
  794MOL0     H 7183   0.474   7.542   2.964 -1.2986  0.3027  1.3235
  794MOL0     H 7184   0.493   7.732   2.789  3.3509 -1.0701  2.3669
  794MOL0     H 7185   0.384   7.814   2.902  0.7709 -0.7057  2.7762
  794MOL0     H 7186   0.203   7.684   2.839 -1.8255 -4.1985  1.4741
  794MOL0     H 7187   0.297   7.536   2.810  1.7054  0.5433  1.6774
  794MOL0     H 7188   0.316   7.741   2.437  3.2071  2.4785  2.0010
  794MOL0     H 7189   0.607   8.087   3.091 -0.0060 -0.0439  1.8133
  794MOL0     H 7190   0.806   8.230   3.156  1.1591  0.9779 -1.5070
  795MOL0     O 7191   9.607   1.019  11.074 -0.3492 -0.7531  0.3983
  795MOL0     C 7192   9.574   1.133  11.034 -0.8089 -0.9669  0.0441
  795MOL0     O 7193   9.613   1.198  10.915 -0.1280  0.3838 -0.1532
  795MOL0     C 7194   9.678   1.122  10.819 -0.3664  0.0289  0.0101
  795MOL0     C 7195   9.592   1.049  10.744  0.4149  0.4175  0.0883
  795MOL0     C 7196   9.654   0.967  10.648 -0.6700 -0.3713  0.5113
  795MOL0     C 7197   9.797   0.962  10.640  0.5226 -0.2771  0.8996
  795MOL0     O 7198   9.843   0.886  10.539  0.5026  0.9278 -0.1944
  795MOL0     C 7199   9.819   0.743  10.560  0.0680  0.3619  0.3447
  795MOL0     C 7200   9.803   0.680  10.417  0.4487 -0.6277  0.2588
  795MOL0     C 7201   9.770   0.533  10.427 -0.8108  0.2610 -0.8866
  795MOL0     C 7202   9.714   0.457  10.313  0.5563  0.5484  0.3928
  795MOL0     C 7203   9.563   0.489  10.260  0.1365  0.0084 -0.2145
  795MOL0     C 7204   9.529   0.443  10.116  0.5499  0.1973  1.4630
  795MOL0     C 7205   9.544   0.288  10.098  0.3301  0.2543  0.9698
  795MOL0     C 7206   9.507   0.251   9.954  0.5031  0.4790  0.4859
  795MOL0     N 7207   9.366   0.248   9.928 -0.3501 -0.5834  0.3620
  795MOL0     C 7208   9.303   0.167   9.836  0.3633  0.7355  1.1288
  795MOL0     C 7209   9.174   0.196   9.857 -0.6023 -0.0623 -0.6939
  795MOL0     C 7210   9.060   0.166   9.767 -0.4034  0.4542  0.5498
  795MOL0     C 7211   9.006   0.027   9.791  0.2131 -0.4379 -0.0205
  795MOL0     C 7212   8.895  -0.022   9.694 -0.5722 -0.2151  0.3960
  795MOL0     C 7213   8.923  -0.012   9.536  0.1846  0.8527 -0.6769
  795MOL0     O 7214   8.879   0.109   9.477  0.7142 -0.6957 -0.5309
  795MOL0     C 7215   8.740   0.133   9.462 -0.9289 -0.4388 -0.2331
  795MOL0     C 7216   8.625   0.064   9.510  0.2773 -0.5781 -0.5637
  795MOL0     C 7217   8.495   0.111   9.510 -0.1567 -1.3481  1.1725
  795MOL0     C 7218   8.382   0.026   9.553  0.4380  0.0715 -0.6719
  795MOL0     C 7219   8.465   0.235   9.429 -0.5838  0.3961 -0.2558
  795MOL0     C 7220   8.342   0.312   9.442 -1.1111 -0.4695 -0.2848
  795MOL0     O 7221   8.300   0.316   9.568 -0.6638 -0.0505  0.2790
  795MOL0     C 7222   8.171   0.341   9.594 -0.6294  0.2237 -0.3381
  795MOL0     C 7223   8.079   0.233   9.605  0.8909 -0.1812  0.3574
  795MOL0     C 7224   7.944   0.260   9.618  0.0237  0.3835 -0.4765
  795MOL0     C 7225   7.904   0.394   9.650 -0.3438  0.4965  0.2251
  795MOL0     O 7226   7.780   0.421   9.699  0.4318  0.3062  0.1745
  795MOL0     C 7227   7.780   0.398   9.840 -0.9288  0.1084 -0.1780
  795MOL0     C 7228   7.739   0.515   9.927  0.2541 -0.3286  0.1012
  795MOL0     C 7229   7.602   0.574   9.886 -1.5650 -0.1973  0.7535
  795MOL0     C 7230   7.486   0.480   9.938 -1.2587 -0.1057  1.0585
  795MOL0     C 7231   7.344   0.518   9.893 -0.0998  0.6510  0.1591
  795MOL0     C 7232   7.309   0.492   9.748  0.0137  0.3677 -0.6512
  795MOL0     C 7233   7.270   0.346   9.702 -0.0739  0.0714  0.1380
  795MOL0     C 7234   7.207   0.354   9.570 -0.5929  0.3537 -0.7458
  795MOL0    Cl 7235   7.339   0.355   9.454 -0.1587  0.4999  0.1893
  795MOL0     C 7236   8.000   0.497   9.648 -0.7064 -0.0308 -0.0132
  795MOL0     C 7237   8.134   0.477   9.611  0.5890  0.0104  0.3909
  795MOL0     O 7238   8.299   0.374   9.347  0.3889  0.0254  0.1772
  795MOL0     C 7239   8.579   0.279   9.365 -0.3690 -0.1313  0.4281
  795MOL0     C 7240   8.709   0.231   9.376 -0.6586  0.1732 -0.2873
  795MOL0     N 7241   9.154   0.279   9.959 -0.3873 -0.3729  0.4182
  795MOL0     N 7242   9.267   0.317  10.003 -0.1068  0.2690  1.1259
  795MOL0     C 7243   9.882   1.049  10.711  1.0352 -0.0952 -0.4611
  795MOL0     C 7244   9.815   1.131  10.814 -0.0008  0.1686 -0.1176
  795MOL0     C 7245   9.498   1.224  11.131 -0.0446  0.3305  0.3912
  795MOL0     C 7246   9.427   1.332  11.085 -0.5390 -0.5549 -0.2937
  795MOL0     C 7247   9.351   1.417  11.171 -0.5268  0.8381  0.0729
  795MOL0     C 7248   9.356   1.386  11.306 -0.1453  0.6482  0.1003
  795MOL0     O 7249   9.271   1.462  11.386  1.3627 -0.2946  0.1677
  795MOL0     C 7250   9.271   1.449  11.529 -0.3119  1.2988  0.3277
  795MOL0     C 7251   9.205   1.570  11.607 -0.8642 -0.4399  0.3905
  795MOL0     C 7252   9.143   1.513  11.736 -1.0126  0.4186 -0.1968
  795MOL0     C 7253   9.089   1.625  11.820 -0.4735 -0.1974 -0.5218
  795MOL0     C 7254   9.040   1.587  11.948  0.3481  0.5407  0.6731
  795MOL0     C 7255   9.005   1.558  12.062 -0.0036  0.1773  0.5874
  795MOL0     C 7256   9.419   1.270  11.352 -0.5268 -0.7999 -0.4694
  795MOL0     C 7257   9.493   1.190  11.267  0.2877  0.2861  0.2884
  795MOL0     H 7258   9.486   1.064  10.758  0.3566  0.4652 -0.3887
  795MOL0     H 7259   9.586   0.909  10.587  0.1749  0.9730 -1.8616
  795MOL0     H 7260   9.908   0.712  10.617  1.2096  0.9944 -1.0312
  795MOL0     H 7261   9.733   0.716  10.622 -1.3988 -1.7255 -2.4066
  795MOL0     H 7262   9.716   0.730  10.372  1.9650  2.1139  0.1577
  795MOL0     H 7263   9.891   0.698  10.355  0.6287  0.8873  0.9095
  795MOL0     H 7264   9.863   0.491  10.467  0.1736  3.7198  0.8346
  795MOL0     H 7265   9.694   0.509  10.502  0.8534 -0.8135  0.5416
  795MOL0     H 7266   9.792   0.471  10.237  0.7412  3.9712  1.0370
  795MOL0     H 7267   9.710   0.351  10.338  1.1916  0.4573  0.1268
  795MOL0     H 7268   9.488   0.453  10.331 -0.5524 -0.6518 -1.2423
  795MOL0     H 7269   9.546   0.597  10.260 -0.0561  0.0758  2.9967
  795MOL0     H 7270   9.432   0.475  10.077 -0.1656 -1.9916  1.3021
  795MOL0     H 7271   9.611   0.493  10.063 -0.5450  4.3942  3.2718
  795MOL0     H 7272   9.647   0.255  10.116  0.4831 -0.2689 -0.7136
  795MOL0     H 7273   9.478   0.227  10.159  1.0483  1.9254  3.6102
  795MOL0     H 7274   9.544   0.152   9.929  1.6347  1.2423 -1.0199
  795MOL0     H 7275   9.559   0.322   9.889 -1.2896  2.8123  1.4254
  795MOL0     H 7276   9.345   0.093   9.769 -2.1237 -0.2629  0.5690
  795MOL0     H 7277   8.978   0.235   9.789 -1.3442 -0.8697  1.3933
  795MOL0     H 7278   9.088   0.176   9.662  1.3814  0.9165  1.0454
  795MOL0     H 7279   8.967   0.019   9.892  0.7278  2.2043  0.4621
  795MOL0     H 7280   9.091  -0.042   9.791  1.8616  1.4892 -0.0282
  795MOL0     H 7281   8.805   0.036   9.712  0.0948  1.1119 -0.3913
  795MOL0     H 7282   8.880  -0.126   9.725 -1.3915 -1.6175 -4.0848
  795MOL0     H 7283   8.866  -0.100   9.506  2.8131 -2.1941  2.2973
  795MOL0     H 7284   9.028  -0.032   9.511  0.6426 -0.0639  1.7240
  795MOL0     H 7285   8.638  -0.025   9.571 -3.0970 -0.5517  0.4012
  795MOL0     H 7286   8.287   0.039   9.501 -0.2883  0.4667  0.6953
  795MOL0     H 7287   8.411  -0.078   9.536 -1.3339 -0.8266  1.3703
  795MOL0     H 7288   8.362   0.042   9.659 -1.1198  0.9579 -1.0665
  795MOL0     H 7289   8.115   0.131   9.599 -0.4030 -0.5460 -2.8741
  795MOL0     H 7290   7.864   0.188   9.626 -0.5508  0.8167 -2.0339
  795MOL0     H 7291   7.703   0.322   9.858 -0.1029 -0.0653  3.2505
  795MOL0     H 7292   7.871   0.351   9.878  0.5632  1.3155 -2.0762
  795MOL0     H 7293   7.720   0.481  10.030  1.6393  0.9982  0.8355
  795MOL0     H 7294   7.809   0.598   9.940 -0.9757  0.5281  1.7268
  795MOL0     H 7295   7.585   0.566   9.779 -1.4784  1.9760  0.5197
  795MOL0     H 7296   7.601   0.679   9.918 -1.5437 -0.7609  2.7233
  795MOL0     H 7297   7.517   0.379   9.911 -0.1860  1.0355 -2.6054
  795MOL0     H 7298   7.474   0.486  10.047 -0.2491  1.0696  1.1367
  795MOL0     H 7299   7.333   0.626   9.912  1.4305  0.5170  2.0914
  795MOL0     H 7300   7.281   0.451   9.952 -0.2086 -1.0207 -1.7658
  795MOL0     H 7301   7.218   0.550   9.733 -0.9425 -1.6253 -3.4052
  795MOL0     H 7302   7.398   0.513   9.688  0.5031 -6.2582 -3.1641
  795MOL0     H 7303   7.191   0.305   9.766 -1.9263  0.5865 -1.6947
  795MOL0     H 7304   7.361   0.286   9.703  0.6863  1.1858  0.4994
  795MOL0     H 7305   7.143   0.442   9.577 -3.2251 -1.5346  1.4966
  795MOL0     H 7306   7.141   0.270   9.548 -0.3915  0.7083 -3.0016
  795MOL0     H 7307   7.980   0.598   9.682  1.2586  1.0935 -1.8976
  795MOL0     H 7308   8.219   0.545   9.609  0.0613  0.6480 -0.5165
  795MOL0     H 7309   8.579   0.368   9.303 -0.8869  0.2876  1.0187
  795MOL0     H 7310   8.795   0.276   9.327  0.1226  1.1480  1.8726
  795MOL0     H 7311   9.990   1.050  10.697  1.2524 -1.2878  0.9459
  795MOL0     H 7312   9.865   1.189  10.891 -2.7118 -0.7786  2.5529
  795MOL0     H 7313   9.425   1.344  10.977 -1.0122  2.0064 -0.0692
  795MOL0     H 7314   9.284   1.486  11.122 -0.5451 -0.4606 -1.8385
  795MOL0     H 7315   9.227   1.352  11.553 -0.8408  0.8818 -2.1330
  795MOL0     H 7316   9.375   1.451  11.563 -0.3768  0.5544  0.5822
  795MOL0     H 7317   9.125   1.621  11.552 -0.5165  0.7796  0.9841
  795MOL0     H 7318   9.284   1.642  11.630 -0.7672 -0.4585  0.1214
  795MOL0     H 7319   9.224   1.454  11.778  0.1229  1.4341 -0.9047
  795MOL0     H 7320   9.064   1.438  11.731 -0.9718  0.1021  2.4987
  795MOL0     H 7321   9.007   1.683  11.774 -1.4701  0.6239  2.0990
  795MOL0     H 7322   9.168   1.698  11.836 -0.1907 -0.7041  0.4487
  795MOL0     H 7323   8.952   1.536  12.152 -0.2260 -5.0593 -0.5507
  795MOL0     H 7324   9.419   1.249  11.458 -1.8431  0.9401 -0.0756
  795MOL0     H 7325   9.543   1.100  11.303  1.0926  1.6293  2.7687
  796MOL0     O 7326   9.160   7.472   6.610 -0.6178  0.8417  0.0460
  796MOL0     C 7327   9.155   7.593   6.635 -0.5864 -0.6894 -1.2614
  796MOL0     O 7328   9.161   7.649   6.768  0.0218  0.1855  0.6415
  796MOL0     C 7329   9.193   7.566   6.869 -0.2900  0.1891  0.3196
  796MOL0     C 7330   9.328   7.525   6.878  0.8307  0.0975 -0.8998
  796MOL0     C 7331   9.369   7.435   6.978  0.3208 -0.3668  0.5404
  796MOL0     C 7332   9.271   7.374   7.068 -0.4502 -1.0853  0.1646
  796MOL0     O 7333   9.305   7.284   7.154 -0.4190  0.1841 -0.4079
  796MOL0     C 7334   9.237   7.260   7.282  0.5615 -0.2550  0.0318
  796MOL0     C 7335   9.267   7.120   7.329 -1.1143 -0.6772 -0.1470
  796MOL0     C 7336   9.235   6.998   7.247 -0.1044 -0.2941  0.4025
  796MOL0     C 7337   9.100   6.984   7.176  0.0560  0.2250 -1.4121
  796MOL0     C 7338   8.973   6.972   7.269 -0.0392 -0.2401 -0.4009
  796MOL0     C 7339   8.978   6.842   7.350 -0.6294  0.0700  0.2968
  796MOL0     C 7340   8.842   6.803   7.397  0.2395 -1.1854 -0.6624
  796MOL0     C 7341   8.752   6.906   7.468  0.4467  0.6386  0.2034
  796MOL0     N 7342   8.607   6.860   7.445 -0.7099 -0.6311 -0.3035
  796MOL0     C 7343   8.528   6.888   7.331  0.3747  0.2578 -0.4200
  796MOL0     C 7344   8.419   6.810   7.350 -0.7087 -1.2138  0.7156
  796MOL0     C 7345   8.304   6.802   7.250 -0.9116  0.3442  0.0992
  796MOL0     C 7346   8.228   6.936   7.235 -0.3446  0.7968 -0.6511
  796MOL0     C 7347   8.149   6.955   7.364 -0.6989 -0.0919  1.5072
  796MOL0     C 7348   8.071   7.085   7.363  0.9854 -0.9268 -0.8728
  796MOL0     O 7349   7.970   7.098   7.259 -0.3962 -0.9433  0.3967
  796MOL0     C 7350   7.852   7.035   7.271  0.2553 -0.4759  0.5513
  796MOL0     C 7351   7.806   6.974   7.398 -0.8883  0.7540 -0.1504
  796MOL0     C 7352   7.678   6.915   7.407  0.5628 -0.1542 -0.2196
  796MOL0     C 7353   7.639   6.846   7.535  0.4077  0.1901 -0.5948
  796MOL0     C 7354   7.583   6.930   7.301 -0.9026 -0.0977 -0.1024
  796MOL0     C 7355   7.465   6.858   7.297 -0.8558  0.7545  0.5585
  796MOL0     O 7356   7.466   6.751   7.212  0.1282  0.6404 -0.3940
  796MOL0     C 7357   7.351   6.670   7.228 -0.2648  0.4876  0.4433
  796MOL0     C 7358   7.225   6.699   7.173 -0.0294 -0.0847  0.7694
  796MOL0     C 7359   7.109   6.624   7.201  0.0625 -0.3443  0.4704
  796MOL0     C 7360   7.126   6.509   7.275 -0.8815 -0.5350  0.0955
  796MOL0     O 7361   7.018   6.432   7.294  0.3001  0.1806  0.5031
  796MOL0     C 7362   7.045   6.295   7.237  0.7274 -0.4542 -0.2905
  796MOL0     C 7363   6.979   6.191   7.320  1.3136  0.5493  0.3289
  796MOL0     C 7364   6.979   6.059   7.234  0.1185 -0.4481 -0.6574
  796MOL0     C 7365   6.911   5.935   7.302 -0.1697  0.5399 -0.2014
  796MOL0     C 7366   7.003   5.860   7.402  0.0633 -0.5589  0.1387
  796MOL0     C 7367   6.951   5.743   7.476  0.4055 -0.6292 -0.0891
  796MOL0     C 7368   6.931   5.626   7.390  0.5639  0.7792  0.1847
  796MOL0     C 7369   6.793   5.624   7.314 -0.5114  0.1598 -0.1501
  796MOL0    Cl 7370   6.671   5.531   7.412  0.3136 -0.6717 -0.2432
  796MOL0     C 7371   7.248   6.481   7.331  0.7976  0.6974  0.1414
  796MOL0     C 7372   7.365   6.553   7.309  0.5587 -0.8393  1.2275
  796MOL0     O 7373   7.378   6.885   7.379 -0.7422 -0.2577  0.2483
  796MOL0     C 7374   7.624   6.990   7.180  0.3259  0.4498  0.2084
  796MOL0     C 7375   7.761   7.045   7.161 -0.0252  0.1116 -0.2001
  796MOL0     N 7376   8.429   6.732   7.467  0.6781 -0.5818  0.1247
  796MOL0     N 7377   8.537   6.782   7.533 -0.5737  1.3749  0.5387
  796MOL0     C 7378   9.147   7.433   7.064  1.0828  0.5239  0.7336
  796MOL0     C 7379   9.103   7.523   6.965 -0.1260 -0.3173  0.0044
  796MOL0     C 7380   9.157   7.679   6.516  0.5262  0.1163  0.4333
  796MOL0     C 7381   9.201   7.636   6.395  0.1797 -0.6235 -0.2440
  796MOL0     C 7382   9.205   7.730   6.287  0.1326  0.8262 -0.2408
  796MOL0     C 7383   9.183   7.865   6.306  0.0790 -0.1503  0.2766
  796MOL0     O 7384   9.206   7.937   6.191  0.4045  0.6238 -0.6150
  796MOL0     C 7385   9.173   8.073   6.181 -0.1528 -0.1213 -1.0853
  796MOL0     C 7386   9.284   8.169   6.157 -0.4416 -0.3684 -0.0956
  796MOL0     C 7387   9.360   8.162   6.024 -0.2200 -0.0028 -0.5506
  796MOL0     C 7388   9.503   8.210   6.034 -0.2756  0.1867  0.4808
  796MOL0     C 7389   9.567   8.235   5.903  0.7723 -0.8832 -0.3892
  796MOL0     C 7390   9.639   8.254   5.806 -0.0300  0.1756  0.2015
  796MOL0     C 7391   9.143   7.907   6.432 -0.5513  1.4319  1.0693
  796MOL0     C 7392   9.122   7.813   6.531  0.4250 -0.4104  0.2736
  796MOL0     H 7393   9.396   7.562   6.803 -0.4016  0.2844 -1.9665
  796MOL0     H 7394   9.473   7.406   6.988  0.1674 -1.2210 -0.2028
  796MOL0     H 7395   9.270   7.318   7.369 -0.7434 -1.3367  1.3015
  796MOL0     H 7396   9.128   7.269   7.275  0.6179 -0.8529 -2.2903
  796MOL0     H 7397   9.373   7.118   7.355 -0.3931  2.0100 -2.3560
  796MOL0     H 7398   9.212   7.100   7.421  0.9205 -1.0685  1.0318
  796MOL0     H 7399   9.305   6.986   7.164 -0.3819 -0.1384  0.1433
  796MOL0     H 7400   9.256   6.908   7.307  1.6986  1.4858  2.6494
  796MOL0     H 7401   9.095   7.076   7.117 -1.2800  0.0631 -1.5803
  796MOL0     H 7402   9.115   6.897   7.111  0.5615 -2.4905  2.0409
  796MOL0     H 7403   8.975   7.064   7.328 -1.4950 -0.1673 -0.4366
  796MOL0     H 7404   8.882   6.961   7.211 -0.2044 -0.9151 -0.0269
  796MOL0     H 7405   9.018   6.756   7.295  0.0941 -1.5402  3.1508
  796MOL0     H 7406   9.040   6.852   7.440 -1.4772 -1.2139  1.0525
  796MOL0     H 7407   8.788   6.768   7.309 -3.2693  0.9135  0.4461
  796MOL0     H 7408   8.854   6.723   7.470 -0.9728  1.0913  2.2395
  796MOL0     H 7409   8.766   7.009   7.434  4.2823  0.5431  1.0611
  796MOL0     H 7410   8.765   6.913   7.576 -1.0254 -1.6070  0.6097
  796MOL0     H 7411   8.556   6.939   7.239  2.0865 -1.3271 -0.8160
  796MOL0     H 7412   8.342   6.762   7.156 -0.6954 -3.7661  1.7392
  796MOL0     H 7413   8.243   6.715   7.276  1.5987 -0.6103  3.5124
  796MOL0     H 7414   8.162   6.921   7.149 -2.0934 -0.7976  0.8797
  796MOL0     H 7415   8.296   7.022   7.230  0.8066  0.2267  2.8073
  796MOL0     H 7416   8.224   6.953   7.444  2.1222 -2.5954 -0.9394
  796MOL0     H 7417   8.088   6.865   7.374 -0.0991 -0.9314 -1.4495
  796MOL0     H 7418   8.136   7.171   7.349  0.6839 -0.7525 -1.2305
  796MOL0     H 7419   8.031   7.111   7.461 -0.6775  0.9074 -1.9540
  796MOL0     H 7420   7.865   6.961   7.488  1.3335 -2.9664 -1.9273
  796MOL0     H 7421   7.602   6.743   7.543  0.7513  0.2005  1.7109
  796MOL0     H 7422   7.720   6.831   7.607  0.4629  0.0859 -0.6778
  796MOL0     H 7423   7.577   6.918   7.590  1.1362  1.0680 -0.9005
  796MOL0     H 7424   7.233   6.790   7.114  0.9070 -0.8965 -0.4031
  796MOL0     H 7425   7.017   6.660   7.156 -0.3699 -0.5746  1.1484
  796MOL0     H 7426   7.008   6.302   7.134  1.7265 -1.9624 -0.7827
  796MOL0     H 7427   7.153   6.277   7.240  0.8725  0.1749 -1.1983
  796MOL0     H 7428   7.021   6.176   7.420  2.0622  3.8508  0.6056
  796MOL0     H 7429   6.875   6.221   7.334  1.7138  1.2364  2.1215
  796MOL0     H 7430   7.084   6.028   7.230 -0.6318 -3.2718 -0.6208
  796MOL0     H 7431   6.935   6.074   7.136 -0.2100 -1.5153 -0.6934
  796MOL0     H 7432   6.822   5.968   7.356 -0.5475  2.3459 -1.8154
  796MOL0     H 7433   6.879   5.863   7.227  0.8473 -0.6714  0.4889
  796MOL0     H 7434   7.043   5.943   7.462 -0.8531  1.0737 -1.3908
  796MOL0     H 7435   7.098   5.842   7.351 -0.8797  0.9807 -2.3110
  796MOL0     H 7436   7.020   5.713   7.555 -1.6825 -1.1317  1.6178
  796MOL0     H 7437   6.860   5.772   7.528  2.2244 -1.2380  3.8053
  796MOL0     H 7438   6.929   5.537   7.454 -0.1371 -0.1856 -1.1411
  796MOL0     H 7439   7.015   5.630   7.320  0.4461  0.8644  0.0492
  796MOL0     H 7440   6.792   5.597   7.209  0.0286 -1.7247  0.2976
  796MOL0     H 7441   6.748   5.722   7.293  1.0975  0.6484 -1.5067
  796MOL0     H 7442   7.255   6.401   7.405 -2.0209  0.6531  0.4717
  796MOL0     H 7443   7.467   6.529   7.337  0.5782 -3.0748 -0.4986
  796MOL0     H 7444   7.565   6.973   7.091  2.3642 -0.1543 -1.0980
  796MOL0     H 7445   7.780   7.090   7.064  0.4558  2.7532  1.0400
  796MOL0     H 7446   9.061   7.396   7.120  0.4967  1.3562  0.3998
  796MOL0     H 7447   9.006   7.573   6.962  0.0228 -0.0697 -1.2612
  796MOL0     H 7448   9.219   7.534   6.361  0.2836 -0.6086 -0.2338
  796MOL0     H 7449   9.249   7.692   6.196  1.4500  1.5496  0.0575
  796MOL0     H 7450   9.102   8.092   6.100 -0.3446  2.3053 -0.4264
  796MOL0     H 7451   9.125   8.102   6.275 -1.2209 -2.5008 -0.8405
  796MOL0     H 7452   9.358   8.163   6.237  0.8356  2.4955 -0.9085
  796MOL0     H 7453   9.234   8.266   6.154 -3.3890 -1.5952  3.1081
  796MOL0     H 7454   9.307   8.215   5.945 -1.0942  1.6651  1.0675
  796MOL0     H 7455   9.360   8.054   6.004  1.0899 -0.5738  2.0433
  796MOL0     H 7456   9.562   8.144   6.099 -0.5949 -0.3049  0.2765
  796MOL0     H 7457   9.507   8.308   6.084  1.8680 -0.1383  1.0559
  796MOL0     H 7458   9.695   8.266   5.716 -0.2629 -0.1123  0.0129
  796MOL0     H 7459   9.106   8.006   6.455  1.5413  2.1287  1.6156
  796MOL0     H 7460   9.091   7.859   6.625  0.5963 -0.8990  0.5753
  797MOL0     O 7461   7.670   1.173   2.413 -1.5042  0.5165 -0.4821
  797MOL0     C 7462   7.641   1.189   2.294 -0.4093  0.3429 -0.2496
  797MOL0     O 7463   7.600   1.094   2.213 -0.6799  0.1602  0.6227
  797MOL0     C 7464   7.567   0.964   2.258 -0.9282 -0.0680 -0.1536
  797MOL0     C 7465   7.587   0.856   2.167 -0.0198  0.2873 -0.1294
  797MOL0     C 7466   7.534   0.733   2.200 -0.0396  0.8328 -0.3359
  797MOL0     C 7467   7.459   0.698   2.317  0.5292 -1.3454 -0.8586
  797MOL0     O 7468   7.432   0.568   2.348  0.4297 -0.0588 -0.4681
  797MOL0     C 7469   7.418   0.545   2.486 -0.7609  0.3267 -0.0507
  797MOL0     C 7470   7.408   0.400   2.505  0.0095  1.0031  0.7449
  797MOL0     C 7471   7.277   0.349   2.574  0.1845  0.1076 -0.3958
  797MOL0     C 7472   7.263   0.199   2.593 -0.2687 -0.7726 -0.6450
  797MOL0     C 7473   7.118   0.147   2.616 -0.2905 -0.1001 -0.2422
  797MOL0     C 7474   7.093  -0.002   2.576  0.1427 -0.0736  0.4010
  797MOL0     C 7475   7.201  -0.088   2.648 -0.2525 -0.7149 -0.3005
  797MOL0     C 7476   7.158  -0.239   2.621 -0.9679 -0.5655 -0.3839
  797MOL0     N 7477   7.247  -0.336   2.672  0.7440  1.1486  0.6237
  797MOL0     C 7478   7.384  -0.332   2.663  0.2595 -0.0797  0.2066
  797MOL0     C 7479   7.415  -0.451   2.725 -0.5225  0.1288  1.5338
  797MOL0     C 7480   7.553  -0.507   2.741  1.5716 -0.3203 -0.3311
  797MOL0     C 7481   7.607  -0.591   2.623  0.1264  0.1131 -0.3313
  797MOL0     C 7482   7.666  -0.490   2.518 -0.9695 -0.4848 -0.0832
  797MOL0     C 7483   7.685  -0.560   2.383  0.8988 -0.1783  1.5758
  797MOL0     O 7484   7.571  -0.550   2.302  0.9254  0.1800  0.8660
  797MOL0     C 7485   7.474  -0.637   2.311  0.4937 -0.3308  0.3337
  797MOL0     C 7486   7.356  -0.615   2.374 -0.1357 -0.6823  0.2293
  797MOL0     C 7487   7.254  -0.704   2.392 -0.8164  0.5442  0.0191
  797MOL0     C 7488   7.133  -0.647   2.465 -0.7182 -0.3845 -0.3365
  797MOL0     C 7489   7.278  -0.844   2.362 -0.4570  0.0345  0.6112
  797MOL0     C 7490   7.199  -0.961   2.389  0.2324  0.8626 -0.2067
  797MOL0     O 7491   7.265  -1.082   2.360 -0.2543 -0.0289  0.2881
  797MOL0     C 7492   7.195  -1.196   2.382  0.0427 -0.1671 -0.1782
  797MOL0     C 7493   7.076  -1.226   2.310 -0.2453 -0.2318 -0.3677
  797MOL0     C 7494   7.004  -1.338   2.333  0.0784 -0.2395  0.5617
  797MOL0     C 7495   7.049  -1.428   2.419  0.6031  0.0623 -0.7540
  797MOL0     O 7496   6.964  -1.527   2.446 -0.0021  0.0079 -0.7096
  797MOL0     C 7497   6.979  -1.599   2.568  0.3843 -0.2913  0.1799
  797MOL0     C 7498   6.872  -1.710   2.584 -0.3468 -0.3562  0.2250
  797MOL0     C 7499   6.729  -1.680   2.572 -0.0392  0.0153 -0.9934
  797MOL0     C 7500   6.689  -1.588   2.683 -0.3593 -0.4998 -1.2547
  797MOL0     C 7501   6.530  -1.571   2.689 -0.0917  0.4228 -0.8027
  797MOL0     C 7502   6.461  -1.490   2.569 -0.7661 -0.1708 -0.0053
  797MOL0     C 7503   6.305  -1.496   2.577 -0.3543 -0.2757 -0.6559
  797MOL0     C 7504   6.238  -1.581   2.470 -0.1211  0.1420  0.1256
  797MOL0    Cl 7505   6.210  -1.465   2.329 -0.4649  0.3873 -0.1373
  797MOL0     C 7506   7.165  -1.402   2.498  0.3263  0.2667 -0.4746
  797MOL0     C 7507   7.236  -1.283   2.482 -0.6546  0.2356 -0.1609
  797MOL0     O 7508   7.078  -0.950   2.411 -0.1879 -0.4604  0.1893
  797MOL0     C 7509   7.402  -0.865   2.293 -0.5075 -0.6696  1.2128
  797MOL0     C 7510   7.493  -0.769   2.270  0.1955 -0.5476 -0.2801
  797MOL0     N 7511   7.302  -0.519   2.760 -0.2735 -0.3186  0.3441
  797MOL0     N 7512   7.196  -0.448   2.745 -0.1255  0.1297 -0.3293
  797MOL0     C 7513   7.441   0.809   2.402 -0.7826  0.7263 -0.2058
  797MOL0     C 7514   7.493   0.939   2.370  0.6071 -0.1864 -0.9346
  797MOL0     C 7515   7.671   1.316   2.225  0.0283  0.0161 -0.2764
  797MOL0     C 7516   7.662   1.343   2.088 -1.0973 -0.4918  1.1319
  797MOL0     C 7517   7.709   1.471   2.030 -0.0159  0.5755 -0.3275
  797MOL0     C 7518   7.741   1.578   2.118 -0.3048  0.0775  1.1249
  797MOL0     O 7519   7.775   1.699   2.062 -0.4917  0.2810 -0.3460
  797MOL0     C 7520   7.729   1.821   2.132  0.4586  0.5316 -1.1902
  797MOL0     C 7521   7.725   1.942   2.049 -0.0907  0.8009  0.1700
  797MOL0     C 7522   7.855   1.997   1.992  0.8468  0.0098  0.1532
  797MOL0     C 7523   7.832   2.079   1.862 -0.1120 -0.1429  0.1529
  797MOL0     C 7524   7.772   2.204   1.904 -0.6128 -0.3725  0.4835
  797MOL0     C 7525   7.714   2.303   1.947 -0.2206  0.8536 -0.7411
  797MOL0     C 7526   7.739   1.550   2.255  0.2386  0.3277 -0.1489
  797MOL0     C 7527   7.712   1.421   2.302  0.2163  0.4154 -0.6308
  797MOL0     H 7528   7.627   0.870   2.068  0.4130 -0.5526 -0.0834
  797MOL0     H 7529   7.555   0.657   2.125 -1.7644  2.0415 -2.1503
  797MOL0     H 7530   7.513   0.576   2.530 -0.4214 -2.1300  1.1092
  797MOL0     H 7531   7.338   0.603   2.532  2.6275  1.9156  4.5520
  797MOL0     H 7532   7.422   0.352   2.408 -1.4934 -2.1040  1.8958
  797MOL0     H 7533   7.499   0.370   2.558  2.6006  3.6586 -1.8217
  797MOL0     H 7534   7.257   0.392   2.672 -3.4830 -2.2050  0.0223
  797MOL0     H 7535   7.196   0.392   2.515 -1.3364  2.0426  2.8692
  797MOL0     H 7536   7.313   0.150   2.510  0.0683 -5.2688  1.8978
  797MOL0     H 7537   7.323   0.184   2.684 -3.0396 -0.7561  1.3084
  797MOL0     H 7538   7.079   0.159   2.717  0.5205 -1.9264  0.3244
  797MOL0     H 7539   7.050   0.195   2.545  0.4467 -1.0206 -1.6072
  797MOL0     H 7540   6.987  -0.018   2.599 -0.4197  3.3385  0.6984
  797MOL0     H 7541   7.098  -0.026   2.469 -6.2948 -0.1423 -0.2492
  797MOL0     H 7542   7.304  -0.061   2.622 -0.6338 -1.0628 -2.3346
  797MOL0     H 7543   7.196  -0.059   2.753  3.1774 -0.5258 -0.0652
  797MOL0     H 7544   7.152  -0.257   2.513 -1.2874  2.9779 -1.0794
  797MOL0     H 7545   7.057  -0.237   2.665 -0.0483 -0.1897  1.8284
  797MOL0     H 7546   7.450  -0.260   2.617  0.9403 -0.9681 -0.2417
  797MOL0     H 7547   7.623  -0.426   2.761  0.8814  0.1117  0.3594
  797MOL0     H 7548   7.541  -0.566   2.832  0.7396  0.7818  0.2869
  797MOL0     H 7549   7.535  -0.662   2.582  2.8311 -4.0171  1.3381
  797MOL0     H 7550   7.685  -0.658   2.660  2.1265  0.0562 -4.1536
  797MOL0     H 7551   7.761  -0.447   2.549 -0.2791 -2.4879  0.7627
  797MOL0     H 7552   7.602  -0.402   2.508  1.8598  1.6755 -0.0868
  797MOL0     H 7553   7.719  -0.663   2.397  0.9433 -0.2963  0.6454
  797MOL0     H 7554   7.763  -0.505   2.330  0.2459 -1.8069 -1.2471
  797MOL0     H 7555   7.352  -0.511   2.404  0.1450 -0.3381 -0.8567
  797MOL0     H 7556   7.049  -0.676   2.401  1.2025  0.1424 -3.2937
  797MOL0     H 7557   7.122  -0.690   2.565  0.8038 -3.0989 -1.2391
  797MOL0     H 7558   7.129  -0.538   2.477  1.7837 -0.4260  1.7912
  797MOL0     H 7559   7.042  -1.148   2.242 -1.4712  0.8993  1.4515
  797MOL0     H 7560   6.913  -1.353   2.275 -1.7931  1.4413  2.8832
  797MOL0     H 7561   7.082  -1.634   2.585  0.0385 -0.3548  2.3483
  797MOL0     H 7562   6.957  -1.528   2.648  1.5168  1.7123 -1.1684
  797MOL0     H 7563   6.882  -1.789   2.508 -1.5296  0.9301 -1.3395
  797MOL0     H 7564   6.900  -1.762   2.676  2.1494 -1.6376 -1.1410
  797MOL0     H 7565   6.674  -1.772   2.593 -0.7401  0.9756  1.7426
  797MOL0     H 7566   6.698  -1.631   2.479 -1.2864  1.2921  0.0549
  797MOL0     H 7567   6.744  -1.619   2.772 -0.4271 -0.7180 -1.2873
  797MOL0     H 7568   6.716  -1.484   2.662 -2.0516  0.1854 -0.2732
  797MOL0     H 7569   6.499  -1.538   2.788  3.3329  1.6642 -0.0008
  797MOL0     H 7570   6.489  -1.671   2.673 -0.9728  0.7790 -0.8127
  797MOL0     H 7571   6.492  -1.386   2.581  2.4414 -0.9382 -0.7222
  797MOL0     H 7572   6.482  -1.515   2.464  1.2416  0.6747  0.1491
  797MOL0     H 7573   6.258  -1.397   2.577 -1.7437 -0.9196 -1.5017
  797MOL0     H 7574   6.283  -1.527   2.680  1.1988  2.0287  0.4795
  797MOL0     H 7575   6.141  -1.608   2.513 -0.0508  1.5254  1.2516
  797MOL0     H 7576   6.289  -1.673   2.441 -1.4515 -1.2915  2.0257
  797MOL0     H 7577   7.190  -1.461   2.585 -2.3309 -0.8285 -0.3932
  797MOL0     H 7578   7.315  -1.249   2.549 -1.1407 -1.3766  1.3117
  797MOL0     H 7579   7.432  -0.963   2.256  0.6315 -0.4812  1.5984
  797MOL0     H 7580   7.584  -0.795   2.216  1.0335  1.0196  0.3183
  797MOL0     H 7581   7.383   0.806   2.494 -0.3170  3.3556  0.2695
  797MOL0     H 7582   7.469   1.013   2.445  0.1404 -0.4495 -0.8270
  797MOL0     H 7583   7.625   1.265   2.021 -2.7310  2.0137 -1.0821
  797MOL0     H 7584   7.706   1.484   1.923 -0.0510 -0.4148 -0.4599
  797MOL0     H 7585   7.628   1.809   2.171  0.7195  4.7394  1.3439
  797MOL0     H 7586   7.798   1.847   2.214  0.2176  0.4008 -0.9447
  797MOL0     H 7587   7.694   2.024   2.114 -0.3918  1.2212 -0.4879
  797MOL0     H 7588   7.644   1.927   1.977 -2.1786 -0.0705  2.5392
  797MOL0     H 7589   7.909   1.907   1.962  2.5324  1.3054 -0.9154
  797MOL0     H 7590   7.923   2.050   2.060 -0.4772  0.8322  0.8752
  797MOL0     H 7591   7.762   2.035   1.790 -3.9217 -0.6773  3.7837
  797MOL0     H 7592   7.930   2.100   1.819  0.3771 -1.9377  0.3100
  797MOL0     H 7593   7.684   2.392   1.998 -4.0481 -1.5315  1.7536
  797MOL0     H 7594   7.770   1.631   2.321  2.4782  0.1775 -0.9492
  797MOL0     H 7595   7.718   1.409   2.409 -2.4406  0.1789 -0.4286
  798MOL0     O 7596   8.008   3.383   1.376 -0.3000  0.0516 -0.4615
  798MOL0     C 7597   8.103   3.307   1.343 -0.9690  0.3055 -0.1978
  798MOL0     O 7598   8.240   3.333   1.368 -0.0998 -0.3776  0.4193
  798MOL0     C 7599   8.296   3.435   1.452 -0.1911  0.2780 -0.4824
  798MOL0     C 7600   8.438   3.439   1.447 -0.2054 -0.2907 -0.0493
  798MOL0     C 7601   8.505   3.508   1.544 -0.4022 -0.3837  0.6971
  798MOL0     C 7602   8.437   3.584   1.641 -0.3000  0.5667 -0.1962
  798MOL0     O 7603   8.501   3.654   1.739  0.3949  0.6474 -0.4904
  798MOL0     C 7604   8.478   3.623   1.878 -0.7002  0.2348 -0.1359
  798MOL0     C 7605   8.574   3.701   1.967  0.1980  0.3433  0.6756
  798MOL0     C 7606   8.511   3.732   2.105 -0.3231  0.2140  0.8323
  798MOL0     C 7607   8.626   3.727   2.215 -0.4455  0.2672  1.1325
  798MOL0     C 7608   8.572   3.701   2.358 -0.0398 -0.3959 -0.3189
  798MOL0     C 7609   8.470   3.796   2.415 -0.2342 -0.6038  0.1346
  798MOL0     C 7610   8.415   3.744   2.544  0.5855  0.5268  0.4457
  798MOL0     C 7611   8.267   3.714   2.519  0.0651 -0.2002  0.1128
  798MOL0     N 7612   8.265   3.599   2.423  0.1803 -0.4438  0.3975
  798MOL0     C 7613   8.164   3.584   2.335 -0.5675  0.5395  0.3020
  798MOL0     C 7614   8.173   3.454   2.286 -1.0136 -0.1631 -0.6955
  798MOL0     C 7615   8.076   3.380   2.201 -0.0087  0.1138 -0.0097
  798MOL0     C 7616   8.054   3.455   2.069  0.7496 -0.6571 -1.1512
  798MOL0     C 7617   8.151   3.424   1.954 -0.3946  0.5527 -0.4761
  798MOL0     C 7618   8.148   3.280   1.914  0.0053  1.1172  0.1322
  798MOL0     O 7619   8.248   3.262   1.810 -0.3640 -0.1777 -0.5307
  798MOL0     C 7620   8.241   3.161   1.720  0.9143 -0.9458 -0.5928
  798MOL0     C 7621   8.348   3.131   1.639 -0.3269 -0.3396 -0.1979
  798MOL0     C 7622   8.358   3.021   1.561 -0.4085  0.1787 -0.0953
  798MOL0     C 7623   8.493   2.999   1.498 -0.0464 -0.1118  0.0496
  798MOL0     C 7624   8.249   2.925   1.549 -1.2398 -0.3089 -1.2282
  798MOL0     C 7625   8.256   2.798   1.483 -0.3084  0.6422 -0.0523
  798MOL0     O 7626   8.183   2.685   1.527  0.1625 -0.8395 -0.1523
  798MOL0     C 7627   8.219   2.562   1.474  0.7244 -0.1602  0.3764
  798MOL0     C 7628   8.239   2.542   1.337 -0.0829  0.5547 -0.3749
  798MOL0     C 7629   8.270   2.420   1.284 -0.7274  0.6766 -0.5569
  798MOL0     C 7630   8.297   2.307   1.360  0.6196 -0.3022  0.4740
  798MOL0     O 7631   8.321   2.203   1.284 -0.1343  0.2736  0.2497
  798MOL0     C 7632   8.304   2.082   1.355 -0.3032  0.4943  0.0350
  798MOL0     C 7633   8.285   1.970   1.251  0.3145 -0.6436  0.4314
  798MOL0     C 7634   8.140   1.975   1.196  0.9682 -0.7465 -0.0674
  798MOL0     C 7635   8.033   1.906   1.276 -0.8366  0.4551 -0.1982
  798MOL0     C 7636   8.062   1.762   1.300 -0.0893  1.1520 -0.5717
  798MOL0     C 7637   7.960   1.677   1.394 -0.0566 -0.3802  0.1432
  798MOL0     C 7638   8.016   1.547   1.451  0.7736  0.9138 -1.2057
  798MOL0     C 7639   7.906   1.478   1.537 -1.3455 -0.9960 -0.7899
  798MOL0    Cl 7640   7.845   1.579   1.670  0.3719  0.1755 -0.6476
  798MOL0     C 7641   8.293   2.321   1.501  0.5237 -0.5028 -1.4269
  798MOL0     C 7642   8.255   2.453   1.556  0.1943  0.3721  0.2468
  798MOL0     O 7643   8.349   2.792   1.399 -0.2721  0.0261 -0.3260
  798MOL0     C 7644   8.134   2.952   1.628 -0.6974 -0.8662  0.0848
  798MOL0     C 7645   8.126   3.072   1.713  0.7834  0.4688  0.2260
  798MOL0     N 7646   8.276   3.397   2.353 -1.0498 -0.7068  0.9666
  798MOL0     N 7647   8.327   3.482   2.439  0.5872  0.5068 -0.0431
  798MOL0     C 7648   8.297   3.588   1.645  0.3753  0.8391 -0.6977
  798MOL0     C 7649   8.222   3.515   1.549  0.7105  0.2806 -0.0313
  798MOL0     C 7650   8.054   3.178   1.279  0.0210 -0.1072  1.1556
  798MOL0     C 7651   8.158   3.099   1.217  0.2961 -1.2959  0.4146
  798MOL0     C 7652   8.132   2.963   1.190 -0.0626  0.1621 -0.2964
  798MOL0     C 7653   7.996   2.909   1.208 -0.0349 -0.6872  0.6264
  798MOL0     O 7654   7.988   2.778   1.203  0.1987 -1.3852 -0.7453
  798MOL0     C 7655   7.862   2.735   1.155 -0.2040  0.2538 -0.1079
  798MOL0     C 7656   7.875   2.590   1.086 -0.5357 -0.1786  0.0795
  798MOL0     C 7657   7.901   2.469   1.185 -0.5052 -0.8435 -0.0789
  798MOL0     C 7658   7.772   2.394   1.228  0.2064  0.2472 -0.0580
  798MOL0     C 7659   7.796   2.280   1.324 -0.0635 -1.2230  0.8700
  798MOL0     C 7660   7.827   2.200   1.401 -0.3291 -0.3502 -0.7863
  798MOL0     C 7661   7.890   2.998   1.256 -0.3199  0.3840  1.0195
  798MOL0     C 7662   7.921   3.127   1.292  0.5057 -1.4803 -0.1183
  798MOL0     H 7663   8.498   3.375   1.384 -0.5655 -0.6543 -0.0242
  798MOL0     H 7664   8.614   3.508   1.539 -0.4207  1.3036 -2.3398
  798MOL0     H 7665   8.372   3.641   1.899 -1.0685 -0.5773 -1.2023
  798MOL0     H 7666   8.502   3.516   1.886  0.3864  0.5580  1.1333
  798MOL0     H 7667   8.670   3.648   1.969  0.1861  0.2841  0.0461
  798MOL0     H 7668   8.598   3.797   1.922  0.1699 -0.2301 -0.6065
  798MOL0     H 7669   8.460   3.829   2.108 -1.1991 -0.2631  2.7668
  798MOL0     H 7670   8.434   3.656   2.120 -1.2495  0.8366 -0.5852
  798MOL0     H 7671   8.699   3.651   2.184 -2.9767 -1.7275 -0.3843
  798MOL0     H 7672   8.683   3.820   2.208  1.6641 -1.0627 -1.6702
  798MOL0     H 7673   8.530   3.600   2.356 -1.5076  0.1732  0.4842
  798MOL0     H 7674   8.655   3.714   2.429 -0.8554  0.7400  0.4411
  798MOL0     H 7675   8.513   3.894   2.439 -1.7773 -0.5519  3.1808
  798MOL0     H 7676   8.400   3.814   2.332 -1.1635  1.8936  1.3560
  798MOL0     H 7677   8.467   3.657   2.585  1.5111  1.3561  1.0643
  798MOL0     H 7678   8.424   3.819   2.623  4.3722  1.0286 -0.2689
  798MOL0     H 7679   8.208   3.798   2.481  0.2008 -0.2658 -0.2376
  798MOL0     H 7680   8.210   3.688   2.610 -0.6552 -1.1306 -0.5883
  798MOL0     H 7681   8.103   3.668   2.303  0.8935  1.8019  0.7137
  798MOL0     H 7682   8.104   3.277   2.176  0.8321  0.8167 -2.2035
  798MOL0     H 7683   7.990   3.360   2.267  1.6494 -0.6418  2.0460
  798MOL0     H 7684   8.077   3.558   2.097 -0.5465 -0.5444 -0.3797
  798MOL0     H 7685   7.951   3.448   2.033  0.8391 -0.6683 -1.4087
  798MOL0     H 7686   8.253   3.439   1.989 -0.2225  1.7054 -1.4430
  798MOL0     H 7687   8.133   3.503   1.881 -3.5525  4.8695  4.2602
  798MOL0     H 7688   8.049   3.259   1.872  1.4791  0.4316 -3.3136
  798MOL0     H 7689   8.158   3.214   2.000 -0.3374 -0.1495 -0.7766
  798MOL0     H 7690   8.433   3.199   1.638 -0.7115  0.2103  1.5610
  798MOL0     H 7691   8.565   3.070   1.540 -0.0689 -0.9129  1.5051
  798MOL0     H 7692   8.538   2.902   1.519  0.2559 -0.1092 -0.5528
  798MOL0     H 7693   8.483   3.018   1.391 -1.5723  0.7752  0.3205
  798MOL0     H 7694   8.228   2.624   1.267  2.0382  2.7333  1.6555
  798MOL0     H 7695   8.280   2.406   1.176 -2.6459  0.0674 -0.6950
  798MOL0     H 7696   8.398   2.069   1.408 -0.7596 -1.6998  0.3791
  798MOL0     H 7697   8.222   2.073   1.426 -2.2034 -1.3666 -2.2152
  798MOL0     H 7698   8.361   1.956   1.174 -0.0938 -0.9306  0.0743
  798MOL0     H 7699   8.297   1.882   1.316  1.7164 -1.3926 -0.7744
  798MOL0     H 7700   8.144   1.935   1.094 -0.5717 -0.2905 -0.3295
  798MOL0     H 7701   8.104   2.077   1.180 -1.4180 -2.0078 -4.4354
  798MOL0     H 7702   8.027   1.949   1.377 -2.5832 -0.1193 -0.0353
  798MOL0     H 7703   7.945   1.918   1.213  1.0347  2.4933 -2.6635
  798MOL0     H 7704   8.152   1.747   1.359 -1.3549 -0.3161  1.1229
  798MOL0     H 7705   8.083   1.701   1.212 -1.6722 -0.6630  0.2251
  798MOL0     H 7706   7.932   1.741   1.478  1.5555 -0.8645  1.0960
  798MOL0     H 7707   7.881   1.651   1.324  2.8651 -4.5788 -2.0267
  798MOL0     H 7708   8.099   1.579   1.516 -0.4454 -0.6181  1.2705
  798MOL0     H 7709   8.051   1.482   1.370  1.3959 -0.6042  0.2307
  798MOL0     H 7710   7.937   1.380   1.575 -1.5050 -1.9170 -2.8830
  798MOL0     H 7711   7.817   1.457   1.477  0.0854 -2.3525 -2.5669
  798MOL0     H 7712   8.309   2.231   1.560 -2.2002  0.3006  0.7720
  798MOL0     H 7713   8.235   2.471   1.661  4.1852 -1.7507  1.5827
  798MOL0     H 7714   8.049   2.884   1.628 -0.9344 -0.6202 -1.3473
  798MOL0     H 7715   8.026   3.086   1.753 -1.9580 -3.5607 -4.0620
  798MOL0     H 7716   8.246   3.647   1.720 -0.3131 -2.1799  1.4136
  798MOL0     H 7717   8.116   3.525   1.566  0.1813 -4.0540  0.3605
  798MOL0     H 7718   8.260   3.132   1.204 -0.3133  0.8637  0.7942
  798MOL0     H 7719   8.209   2.891   1.164 -0.8625 -0.6675 -0.4261
  798MOL0     H 7720   7.789   2.738   1.236 -1.4849  2.0941 -1.2535
  798MOL0     H 7721   7.827   2.806   1.079  0.1773  0.7666  0.1955
  798MOL0     H 7722   7.959   2.590   1.017 -1.3454 -4.4876 -1.2102
  798MOL0     H 7723   7.786   2.571   1.025 -0.5702 -1.3369  0.4605
  798MOL0     H 7724   7.945   2.506   1.278 -0.7028  2.4653 -1.1692
  798MOL0     H 7725   7.970   2.406   1.130  1.2873  4.2045 -4.4948
  798MOL0     H 7726   7.712   2.365   1.141 -0.9357 -4.8741  2.1028
  798MOL0     H 7727   7.708   2.460   1.287 -0.8167 -0.2675 -0.5651
  798MOL0     H 7728   7.835   2.129   1.481 -0.7239  0.3671 -0.0985
  798MOL0     H 7729   7.787   2.977   1.283 -0.7915  4.3180  2.9612
  798MOL0     H 7730   7.834   3.171   1.339 -0.1537 -0.2498 -2.3435
  799MOL0     O 7731   1.032   0.288   4.328  0.2589  0.9145  0.0507
  799MOL0     C 7732   0.982   0.208   4.242 -0.7836 -0.5505  0.0568
  799MOL0     O 7733   0.856   0.162   4.227  0.1037  0.4326  0.3081
  799MOL0     C 7734   0.772   0.202   4.333 -0.6808  0.1493 -1.0069
  799MOL0     C 7735   0.724   0.103   4.421  0.1458  1.1352 -0.0058
  799MOL0     C 7736   0.638   0.130   4.524  1.0417 -0.2409 -0.0488
  799MOL0     C 7737   0.594   0.262   4.545 -0.3178 -0.1211  0.4374
  799MOL0     O 7738   0.504   0.283   4.651  0.4001 -0.5170 -0.6623
  799MOL0     C 7739   0.521   0.393   4.735  0.6926 -0.9565 -0.6354
  799MOL0     C 7740   0.406   0.382   4.844 -0.5592 -0.1906 -0.1855
  799MOL0     C 7741   0.430   0.456   4.978  0.1851  0.5744 -0.3088
  799MOL0     C 7742   0.342   0.399   5.091  0.4371 -0.0314  0.1396
  799MOL0     C 7743   0.353   0.482   5.222  0.3335  0.6232  0.4687
  799MOL0     C 7744   0.238   0.452   5.315  0.1734 -0.1758 -0.2914
  799MOL0     C 7745   0.235   0.534   5.444  0.1208 -1.0167  0.7484
  799MOL0     C 7746   0.105   0.512   5.521  0.4718 -0.9097 -0.4760
  799MOL0     N 7747   0.088   0.637   5.605  0.1410  0.6473  0.2575
  799MOL0     C 7748   0.035   0.760   5.573 -0.0544 -0.1352 -0.7324
  799MOL0     C 7749   0.009   0.806   5.696  0.7401  0.5567  0.7059
  799MOL0     C 7750  -0.055   0.947   5.713 -0.2683  0.9050 -0.2506
  799MOL0     C 7751   0.037   1.054   5.656  0.5868 -0.7839  0.1794
  799MOL0     C 7752  -0.028   1.183   5.600 -0.1174  0.3097 -0.3660
  799MOL0     C 7753   0.074   1.286   5.544 -0.1895  0.7652 -0.4225
  799MOL0     O 7754   0.159   1.207   5.465 -0.4224 -0.2727  0.2283
  799MOL0     C 7755   0.120   1.145   5.347 -0.2771 -0.5589 -1.3404
  799MOL0     C 7756   0.031   1.201   5.251 -0.7097  0.3325 -0.5662
  799MOL0     C 7757   0.009   1.127   5.139 -0.2810  0.0089  1.0450
  799MOL0     C 7758  -0.090   1.197   5.040 -0.9678  0.4842 -0.8659
  799MOL0     C 7759   0.080   1.006   5.108 -1.3847  0.9309  0.4344
  799MOL0     C 7760   0.081   0.942   4.975 -0.3479  0.8406 -0.1847
  799MOL0     O 7761   0.081   0.803   4.963 -0.0448 -0.5977  0.3078
  799MOL0     C 7762  -0.038   0.748   4.988 -0.5658  1.3795 -0.1779
  799MOL0     C 7763  -0.142   0.753   4.896  0.3841  0.7839 -0.1562
  799MOL0     C 7764  -0.273   0.708   4.914  0.4929 -0.2786  0.5376
  799MOL0     C 7765  -0.301   0.649   5.042  0.4026  0.1978  0.5033
  799MOL0     O 7766  -0.427   0.607   5.048  0.4857  0.3860  0.1376
  799MOL0     C 7767  -0.462   0.520   5.161  0.0518  0.0570 -0.8392
  799MOL0     C 7768  -0.616   0.485   5.162  0.5742  0.9940  0.5278
  799MOL0     C 7769  -0.720   0.597   5.123  0.0707  0.7339  0.1258
  799MOL0     C 7770  -0.732   0.715   5.223  0.4134  0.1279 -0.2046
  799MOL0     C 7771  -0.853   0.812   5.213 -0.4462  0.5634  0.5218
  799MOL0     C 7772  -0.859   0.916   5.330 -0.3968 -0.1746  0.8046
  799MOL0     C 7773  -0.846   0.849   5.471  0.7234 -0.2898  0.1818
  799MOL0     C 7774  -0.889   0.942   5.590 -0.5413  0.1329  0.4734
  799MOL0    Cl 7775  -1.065   0.980   5.574  0.5759 -0.1670  0.2070
  799MOL0     C 7776  -0.208   0.642   5.141  0.0061 -1.1584  0.0502
  799MOL0     C 7777  -0.073   0.695   5.114  0.4715 -0.0690 -0.5492
  799MOL0     O 7778   0.072   1.014   4.875  0.2936  0.1697 -0.0358
  799MOL0     C 7779   0.170   0.964   5.205 -0.3113  0.1520 -0.2031
  799MOL0     C 7780   0.191   1.029   5.325 -0.0314  0.0608  0.0625
  799MOL0     N 7781   0.064   0.725   5.791  0.2019  1.1214 -0.2123
  799MOL0     N 7782   0.117   0.625   5.735 -0.0934 -0.4708 -0.0610
  799MOL0     C 7783   0.631   0.356   4.452  0.7296 -0.6520 -0.6993
  799MOL0     C 7784   0.725   0.334   4.354 -0.3187 -0.8386  0.3936
  799MOL0     C 7785   1.086   0.132   4.153  0.8408 -0.9164  0.3151
  799MOL0     C 7786   1.052   0.033   4.065  0.4198 -0.4360  0.2830
  799MOL0     C 7787   1.147  -0.034   3.987  1.1580  0.0273 -0.1284
  799MOL0     C 7788   1.274   0.012   3.981 -1.2516 -0.5610 -0.0410
  799MOL0     O 7789   1.370  -0.059   3.908 -0.2358 -0.3362 -0.0001
  799MOL0     C 7790   1.333  -0.101   3.774 -1.1481 -0.2224  1.6984
  799MOL0     C 7791   1.462  -0.096   3.688 -0.6858 -0.6429 -0.1051
  799MOL0     C 7792   1.573  -0.163   3.766  0.1116  0.5475 -0.2799
  799MOL0     C 7793   1.535  -0.306   3.815  0.7575 -0.4880 -0.4055
  799MOL0     C 7794   1.502  -0.390   3.700 -0.0041 -0.0318  0.4878
  799MOL0     C 7795   1.505  -0.473   3.612 -0.4911 -0.1729 -0.2337
  799MOL0     C 7796   1.323   0.108   4.077 -0.2174 -0.1593 -0.6261
  799MOL0     C 7797   1.230   0.170   4.160 -0.4361  0.0752  0.0410
  799MOL0     H 7798   0.754   0.001   4.400 -3.1973  0.0211  0.1038
  799MOL0     H 7799   0.610   0.046   4.587 -1.9455  0.2283 -0.6157
  799MOL0     H 7800   0.611   0.417   4.792 -2.0791  3.9672  2.5494
  799MOL0     H 7801   0.498   0.487   4.684  0.6441 -0.0704  0.9476
  799MOL0     H 7802   0.310   0.410   4.800 -1.9160 -2.6057  1.0908
  799MOL0     H 7803   0.394   0.278   4.873  0.0975  0.3281  2.1798
  799MOL0     H 7804   0.534   0.444   5.008 -0.0465 -1.2431 -0.1557
  799MOL0     H 7805   0.407   0.562   4.962 -0.2646  0.8607  1.9339
  799MOL0     H 7806   0.245   0.413   5.042 -0.2905 -0.7794  1.3166
  799MOL0     H 7807   0.344   0.292   5.110  1.0416  0.5702  4.3582
  799MOL0     H 7808   0.446   0.450   5.270  0.7842  1.1084 -0.0637
  799MOL0     H 7809   0.346   0.589   5.203 -2.1871  0.5131  0.4708
  799MOL0     H 7810   0.143   0.463   5.262  0.4225  1.7909 -0.4198
  799MOL0     H 7811   0.239   0.349   5.352  1.1348 -0.9503 -2.3456
  799MOL0     H 7812   0.320   0.509   5.508  0.9622 -1.1273 -0.3778
  799MOL0     H 7813   0.247   0.637   5.409  3.1369 -0.7325  2.3101
  799MOL0     H 7814   0.097   0.422   5.583 -0.6737  1.1399  2.5965
  799MOL0     H 7815   0.016   0.512   5.457  0.9360  2.8883 -1.3591
  799MOL0     H 7816   0.012   0.793   5.472  1.5908  0.3666 -0.9753
  799MOL0     H 7817  -0.150   0.958   5.661 -1.8546  1.4434  2.5342
  799MOL0     H 7818  -0.062   0.951   5.822  2.2059 -1.5160  0.1355
  799MOL0     H 7819   0.110   1.009   5.588  1.7905  0.9162  0.2799
  799MOL0     H 7820   0.096   1.098   5.736  2.1112  1.1725 -1.8893
  799MOL0     H 7821  -0.076   1.241   5.679  3.0576  4.1923 -0.9579
  799MOL0     H 7822  -0.098   1.161   5.518 -1.7693 -0.3340  1.1620
  799MOL0     H 7823   0.134   1.334   5.622  1.3602  1.8670 -2.1966
  799MOL0     H 7824   0.026   1.365   5.486 -0.7059  0.4183 -0.4758
  799MOL0     H 7825  -0.018   1.297   5.267 -0.3934  0.1966  1.4397
  799MOL0     H 7826  -0.138   1.134   4.964  0.3458 -1.8674  0.1681
  799MOL0     H 7827  -0.164   1.251   5.100 -1.8787 -0.3422 -1.2066
  799MOL0     H 7828  -0.035   1.275   4.988  0.2271 -0.2684 -0.7559
  799MOL0     H 7829  -0.125   0.814   4.809  1.0665  0.8075 -0.0079
  799MOL0     H 7830  -0.351   0.700   4.839  0.8341 -1.7682  0.3058
  799MOL0     H 7831  -0.385   0.441   5.166  0.8728  0.9105  2.3889
  799MOL0     H 7832  -0.453   0.579   5.253 -3.1288  0.6818 -0.8266
  799MOL0     H 7833  -0.634   0.391   5.109 -1.2441  0.9964  1.0699
  799MOL0     H 7834  -0.649   0.472   5.266 -0.2782  0.3065  0.1886
  799MOL0     H 7835  -0.820   0.555   5.108  0.3994 -0.6861  1.6761
  799MOL0     H 7836  -0.697   0.649   5.029 -0.6093  2.6052  0.9438
  799MOL0     H 7837  -0.731   0.676   5.324 -0.3929  0.5380 -0.0283
  799MOL0     H 7838  -0.639   0.772   5.211 -0.4413  0.9946 -5.3586
  799MOL0     H 7839  -0.941   0.747   5.215 -1.3016  1.6920  1.7927
  799MOL0     H 7840  -0.847   0.873   5.123  2.1086  2.3138  1.7403
  799MOL0     H 7841  -0.781   0.992   5.332 -2.9745  2.7613  5.0216
  799MOL0     H 7842  -0.944   0.985   5.322 -0.9862 -0.8939  0.6700
  799MOL0     H 7843  -0.743   0.813   5.486  0.6577 -1.0263 -1.0474
  799MOL0     H 7844  -0.888   0.748   5.464  1.1498 -0.3790 -1.7968
  799MOL0     H 7845  -0.825   1.029   5.608  1.6238 -1.3218  0.2144
  799MOL0     H 7846  -0.878   0.885   5.683 -0.6421 -1.5399 -0.4882
  799MOL0     H 7847  -0.219   0.590   5.236  1.8332  1.3691  1.7920
  799MOL0     H 7848  -0.003   0.711   5.195  0.8576  2.6174 -1.3011
  799MOL0     H 7849   0.230   0.875   5.188 -2.1259 -0.7715 -2.1437
  799MOL0     H 7850   0.265   0.991   5.395  0.8793  4.3555  1.7269
  799MOL0     H 7851   0.609   0.461   4.466  0.9688 -0.6266 -0.5193
  799MOL0     H 7852   0.766   0.413   4.292 -2.1703  1.2610  1.7029
  799MOL0     H 7853   0.949   0.006   4.044 -0.1667  0.3996  1.9584
  799MOL0     H 7854   1.111  -0.112   3.922  0.9864  0.2455 -0.2986
  799MOL0     H 7855   1.303  -0.206   3.785 -0.5879 -0.8882 -1.9088
  799MOL0     H 7856   1.251  -0.046   3.727 -1.1199 -0.2410  1.6279
  799MOL0     H 7857   1.503   0.004   3.673  0.7262 -1.1078  0.4495
  799MOL0     H 7858   1.448  -0.139   3.589  2.8026  3.3595 -2.6435
  799MOL0     H 7859   1.603  -0.100   3.850 -0.3805  2.0494 -1.1942
  799MOL0     H 7860   1.655  -0.173   3.695  0.8542  1.1130  0.4740
  799MOL0     H 7861   1.448  -0.308   3.881  1.6273 -2.7577  0.7748
  799MOL0     H 7862   1.623  -0.348   3.864  1.1815 -0.8978 -1.4957
  799MOL0     H 7863   1.508  -0.551   3.539  1.1546  0.9904 -1.5029
  799MOL0     H 7864   1.429   0.129   4.081 -0.0938 -0.3791 -2.2812
  799MOL0     H 7865   1.262   0.249   4.227 -2.0569  2.7478 -2.1519
  800MOL0     O 7866  11.391   6.703   4.011  0.7223  0.2211 -0.7278
  800MOL0     C 7867  11.452   6.742   4.114 -0.2128 -0.4967  0.2178
  800MOL0     O 7868  11.576   6.699   4.158  0.6070 -0.4628 -0.9231
  800MOL0     C 7869  11.629   6.587   4.090 -1.7176 -0.4613  1.2876
  800MOL0     C 7870  11.673   6.464   4.155  0.0937 -1.1727 -0.0469
  800MOL0     C 7871  11.709   6.353   4.081  0.6452 -0.1302 -0.1430
  800MOL0     C 7872  11.727   6.360   3.941  0.0204 -0.6143 -0.4025
  800MOL0     O 7873  11.760   6.237   3.880 -0.0070 -0.7850 -0.1546
  800MOL0     C 7874  11.691   6.201   3.759  0.1129  0.1201 -0.7148
  800MOL0     C 7875  11.774   6.087   3.712  0.9332 -0.2935 -0.3507
  800MOL0     C 7876  11.774   5.955   3.806 -0.6070  0.9100  0.6509
  800MOL0     C 7877  11.648   5.890   3.853 -0.4430  0.3176  0.2303
  800MOL0     C 7878  11.665   5.784   3.954  0.1022  0.0456 -0.1964
  800MOL0     C 7879  11.531   5.719   4.012  0.0474 -0.3302 -0.5780
  800MOL0     C 7880  11.424   5.812   4.077 -0.5802  0.7127  1.0937
  800MOL0     C 7881  11.490   5.901   4.191 -0.3544  1.0049 -0.2495
  800MOL0     N 7882  11.485   5.816   4.318  0.0580  0.5285 -0.6144
  800MOL0     C 7883  11.430   5.849   4.437  1.1024  1.7432 -0.0465
  800MOL0     C 7884  11.477   5.756   4.525 -0.0751  0.3712 -0.7691
  800MOL0     C 7885  11.453   5.757   4.687  0.3108 -0.3008  0.0838
  800MOL0     C 7886  11.571   5.805   4.782 -0.8377 -0.1750 -0.0636
  800MOL0     C 7887  11.589   5.962   4.771  0.2821  0.7236 -0.3289
  800MOL0     C 7888  11.697   6.024   4.868 -0.3903  0.3463  0.6198
  800MOL0     O 7889  11.708   6.161   4.849  0.4004 -1.1991 -0.7342
  800MOL0     C 7890  11.819   6.234   4.878 -0.6999  0.3400 -0.0347
  800MOL0     C 7891  11.899   6.196   4.992  0.0117  0.2598 -0.3053
  800MOL0     C 7892  11.996   6.283   5.039 -0.4432 -1.1468  0.6628
  800MOL0     C 7893  12.061   6.253   5.177 -0.1036 -0.2947 -0.2822
  800MOL0     C 7894  12.040   6.399   4.964  0.3476 -0.0361 -0.5608
  800MOL0     C 7895  12.162   6.479   4.991 -0.1907 -0.0672 -0.1789
  800MOL0     O 7896  12.153   6.609   4.951 -0.2532 -0.0765 -0.2059
  800MOL0     C 7897  12.269   6.687   4.940  0.5483  0.1003  0.4487
  800MOL0     C 7898  12.356   6.672   4.827  0.4348  0.2784  0.3847
  800MOL0     C 7899  12.472   6.752   4.828 -0.4099  1.0606 -0.2078
  800MOL0     C 7900  12.496   6.851   4.930 -0.0447  0.6144  0.0168
  800MOL0     O 7901  12.608   6.926   4.913  0.5126 -0.3853 -0.0736
  800MOL0     C 7902  12.599   7.063   4.964  0.3416 -0.1029  1.3009
  800MOL0     C 7903  12.568   7.160   4.850  0.0473  0.0333  0.1451
  800MOL0     C 7904  12.525   7.298   4.905  0.4195  0.0029 -0.1985
  800MOL0     C 7905  12.458   7.384   4.792  0.6909 -0.1458 -0.3886
  800MOL0     C 7906  12.403   7.525   4.842  0.2731  0.7857  0.4456
  800MOL0     C 7907  12.386   7.627   4.732  0.2680  0.1579 -0.6429
  800MOL0     C 7908  12.292   7.736   4.783  0.2048 -0.1256 -0.4442
  800MOL0     C 7909  12.141   7.708   4.777  0.0478  0.1736 -0.3834
  800MOL0    Cl 7910  12.072   7.693   4.609 -0.0660 -0.1216 -0.0948
  800MOL0     C 7911  12.404   6.858   5.041  0.6954 -0.2155 -0.0632
  800MOL0     C 7912  12.286   6.786   5.044 -0.1768  0.3810  0.9715
  800MOL0     O 7913  12.265   6.431   5.039  0.3662 -0.9967  0.3337
  800MOL0     C 7914  11.962   6.432   4.854  0.1482 -0.4866 -0.3109
  800MOL0     C 7915  11.849   6.359   4.818 -0.7611 -0.8743 -0.8339
  800MOL0     N 7916  11.564   5.668   4.466  0.3655  0.9363  0.5377
  800MOL0     N 7917  11.568   5.716   4.340 -0.3344  0.5557 -0.2780
  800MOL0     C 7918  11.710   6.487   3.882  0.0677  0.4707 -0.4521
  800MOL0     C 7919  11.655   6.591   3.950 -0.1261 -1.0347 -0.7694
  800MOL0     C 7920  11.391   6.857   4.178  0.0695 -1.1116 -1.0507
  800MOL0     C 7921  11.274   6.921   4.124 -0.4755 -0.7043  1.3521
  800MOL0     C 7922  11.221   7.033   4.183  0.1031  0.0903  0.6705
  800MOL0     C 7923  11.283   7.095   4.300 -0.2215  0.2273 -1.0526
  800MOL0     O 7924  11.218   7.205   4.351  0.2989  0.1455 -0.4674
  800MOL0     C 7925  11.281   7.265   4.468 -0.6177  0.1619  1.6133
  800MOL0     C 7926  11.179   7.365   4.522  0.6310  0.5211  1.0649
  800MOL0     C 7927  11.228   7.445   4.643 -0.0421  0.5588 -0.1484
  800MOL0     C 7928  11.156   7.578   4.668  0.4536  0.5825 -0.8388
  800MOL0     C 7929  11.177   7.633   4.799 -0.2047 -0.0105  0.2264
  800MOL0     C 7930  11.186   7.686   4.910 -1.0391 -0.6912  0.0004
  800MOL0     C 7931  11.401   7.032   4.347 -0.8754 -0.9303 -0.0651
  800MOL0     C 7932  11.458   6.921   4.282  0.1986 -0.1304  0.1438
  800MOL0     H 7933  11.662   6.458   4.263  0.2239  5.9467  0.8280
  800MOL0     H 7934  11.738   6.254   4.113 -0.9141 -0.0385  1.6889
  800MOL0     H 7935  11.589   6.171   3.788 -0.0903 -2.1323 -3.3343
  800MOL0     H 7936  11.687   6.267   3.672  0.4105 -0.2326 -0.9958
  800MOL0     H 7937  11.728   6.057   3.617 -0.8358 -0.1368  0.4163
  800MOL0     H 7938  11.874   6.132   3.711  1.5382 -1.5463 -2.2003
  800MOL0     H 7939  11.839   5.886   3.750  2.8801  2.6556  2.1821
  800MOL0     H 7940  11.827   5.987   3.896 -0.1476  2.8282 -0.2571
  800MOL0     H 7941  11.583   5.974   3.881 -0.2750  1.1164 -1.6395
  800MOL0     H 7942  11.601   5.838   3.769  2.7316  1.9717 -2.7999
  800MOL0     H 7943  11.716   5.699   3.909 -1.9693 -1.5983  0.4359
  800MOL0     H 7944  11.725   5.807   4.043  0.6587 -2.1994  0.0643
  800MOL0     H 7945  11.476   5.677   3.927 -1.0976 -3.6964  1.6212
  800MOL0     H 7946  11.551   5.634   4.078 -0.7459  0.7618  1.1279
  800MOL0     H 7947  11.385   5.880   4.001  0.1559  0.3429  0.3786
  800MOL0     H 7948  11.346   5.753   4.125  0.7415 -1.4858  0.6538
  800MOL0     H 7949  11.429   5.990   4.205 -1.9706 -0.4300  2.8458
  800MOL0     H 7950  11.593   5.925   4.162 -0.6496  0.4849 -1.8284
  800MOL0     H 7951  11.366   5.934   4.456 -3.0774 -0.8033 -1.2716
  800MOL0     H 7952  11.374   5.828   4.710  2.2972  2.0296  0.1087
  800MOL0     H 7953  11.421   5.658   4.720  2.0883 -1.2954 -1.0034
  800MOL0     H 7954  11.673   5.765   4.774  1.5069  4.9212 -0.2309
  800MOL0     H 7955  11.536   5.788   4.884  0.6018 -0.5397  0.3943
  800MOL0     H 7956  11.493   6.009   4.789 -1.7763 -3.2009  0.1690
  800MOL0     H 7957  11.612   5.985   4.667  0.0100 -1.4466 -0.9276
  800MOL0     H 7958  11.792   5.977   4.840 -0.9726 -0.0505 -0.8143
  800MOL0     H 7959  11.680   5.993   4.972 -0.9768 -2.3548 -0.1988
  800MOL0     H 7960  11.872   6.111   5.054  1.7002 -1.3265 -1.6367
  800MOL0     H 7961  12.000   6.178   5.228 -1.4972  0.4121 -0.8677
  800MOL0     H 7962  12.161   6.212   5.159 -0.4867 -0.2356 -3.0006
  800MOL0     H 7963  12.068   6.345   5.235  2.0394 -0.5913  0.0258
  800MOL0     H 7964  12.331   6.606   4.744  0.6774  2.5896 -1.6167
  800MOL0     H 7965  12.543   6.746   4.746 -1.0439  1.3641 -0.7964
  800MOL0     H 7966  12.522   7.066   5.043  0.5025  1.6287  1.4295
  800MOL0     H 7967  12.701   7.094   4.988  0.1751  0.4412  1.3119
  800MOL0     H 7968  12.660   7.177   4.794 -0.2787  1.0571 -0.1046
  800MOL0     H 7969  12.496   7.110   4.785  1.6643 -1.3089 -0.7058
  800MOL0     H 7970  12.612   7.352   4.943 -0.9315  4.0814 -2.2527
  800MOL0     H 7971  12.453   7.287   4.986 -0.0467 -1.4498 -0.7700
  800MOL0     H 7972  12.525   7.406   4.708 -0.4520  2.0449 -0.8084
  800MOL0     H 7973  12.369   7.333   4.754 -0.6550  1.8457 -0.0365
  800MOL0     H 7974  12.478   7.554   4.916  2.4349 -0.1678 -1.2400
  800MOL0     H 7975  12.303   7.517   4.885  0.9571  1.2922  2.2331
  800MOL0     H 7976  12.484   7.674   4.718  0.6609  0.4958  2.5815
  800MOL0     H 7977  12.335   7.592   4.642  0.8470 -0.2275 -0.8309
  800MOL0     H 7978  12.309   7.826   4.724  0.4550  0.7931  0.9964
  800MOL0     H 7979  12.326   7.779   4.877 -1.2941  2.4152 -0.9804
  800MOL0     H 7980  12.098   7.796   4.826  1.2272  0.0392  0.9777
  800MOL0     H 7981  12.113   7.620   4.837 -2.2892 -0.5474 -2.3697
  800MOL0     H 7982  12.418   6.935   5.116  0.1705 -1.1150  0.9717
  800MOL0     H 7983  12.226   6.804   5.133  1.9938  2.4673  2.1548
  800MOL0     H 7984  11.980   6.521   4.793 -0.7355  1.5834  2.2343
  800MOL0     H 7985  11.785   6.400   4.741  1.5537  3.2485 -0.8669
  800MOL0     H 7986  11.737   6.509   3.780 -1.0513 -0.0485 -0.8776
  800MOL0     H 7987  11.627   6.680   3.895  1.6687 -0.5902 -1.0485
  800MOL0     H 7988  11.238   6.867   4.036  2.7411 -1.2328  0.2213
  800MOL0     H 7989  11.141   7.090   4.138 -0.4933  1.9483  3.7607
  800MOL0     H 7990  11.310   7.196   4.548  0.6025 -1.6279 -0.2582
  800MOL0     H 7991  11.378   7.310   4.444 -0.7254  0.5714  1.9302
  800MOL0     H 7992  11.092   7.303   4.544 -0.3751  0.8696 -1.5569
  800MOL0     H 7993  11.167   7.429   4.434  2.4109 -1.3159 -0.6542
  800MOL0     H 7994  11.336   7.457   4.632  0.1620 -1.2885 -0.3896
  800MOL0     H 7995  11.200   7.384   4.730  3.3348 -1.8095 -0.5101
  800MOL0     H 7996  11.049   7.561   4.649  0.5498 -2.5215  0.7746
  800MOL0     H 7997  11.209   7.650   4.606 -0.7327 -0.2674 -2.9647
  800MOL0     H 7998  11.199   7.747   4.997 -0.6440  2.4643 -2.1091
  800MOL0     H 7999  11.448   7.089   4.426  1.9537 -2.6235 -0.4003
  800MOL0     H 8000  11.547   6.869   4.317 -0.0011 -1.2755 -0.9882
  801MOL0     O 8001   4.497   9.386   6.985  0.4359  0.2944  0.0266
  801MOL0     C 8002   4.431   9.283   6.990 -0.8300  0.2114  0.5081
  801MOL0     O 8003   4.466   9.169   7.063 -0.8315 -0.5996  0.1640
  801MOL0     C 8004   4.591   9.183   7.134  0.0765 -0.8627 -0.6619
  801MOL0     C 8005   4.706   9.226   7.073 -1.2161 -0.1578  0.6390
  801MOL0     C 8006   4.828   9.249   7.132  0.0965 -0.2299 -0.5891
  801MOL0     C 8007   4.840   9.238   7.269 -0.4306 -0.6585 -0.1524
  801MOL0     O 8008   4.958   9.289   7.325  0.7710 -0.2849 -0.2831
  801MOL0     C 8009   4.964   9.326   7.464 -0.3653  0.8233  0.2864
  801MOL0     C 8010   5.098   9.398   7.494  0.0423 -0.1593  0.3781
  801MOL0     C 8011   5.097   9.544   7.431 -0.1949  0.4696  0.7423
  801MOL0     C 8012   5.237   9.606   7.468  0.3985  0.3470  0.2580
  801MOL0     C 8013   5.259   9.743   7.392  0.2821 -0.4759 -0.4064
  801MOL0     C 8014   5.169   9.863   7.442  0.1830 -0.6884 -0.1407
  801MOL0     C 8015   5.214   9.992   7.362 -0.3883 -0.2977 -0.9022
  801MOL0     C 8016   5.125  10.118   7.349 -0.2068  0.0688  1.0437
  801MOL0     N 8017   5.125  10.207   7.461 -0.4557  0.7825 -0.2322
  801MOL0     C 8018   5.151  10.338   7.461 -0.1030 -0.4843 -0.1210
  801MOL0     C 8019   5.140  10.383   7.585  0.2078 -0.2655 -0.5980
  801MOL0     C 8020   5.183  10.525   7.625 -0.2194  0.0106  0.2489
  801MOL0     C 8021   5.313  10.575   7.561  0.3143 -0.4045 -0.4503
  801MOL0     C 8022   5.429  10.496   7.620 -0.0474 -0.2723  0.3561
  801MOL0     C 8023   5.559  10.555   7.562 -0.0930 -0.7670 -0.6493
  801MOL0     O 8024   5.568  10.525   7.420 -0.7187  0.2233 -0.1236
  801MOL0     C 8025   5.683  10.569   7.363 -0.0241 -0.0909 -0.2929
  801MOL0     C 8026   5.787  10.632   7.421  0.4135 -0.4665 -0.1303
  801MOL0     C 8027   5.905  10.663   7.346  0.1083  0.1867 -0.0348
  801MOL0     C 8028   6.017  10.735   7.430  0.1042  1.0235 -1.5552
  801MOL0     C 8029   5.917  10.623   7.214  0.3908  0.9627 -0.3371
  801MOL0     C 8030   6.033  10.649   7.129  0.1577 -1.1215  0.3249
  801MOL0     O 8031   6.153  10.663   7.191  0.6400 -0.5782  0.3484
  801MOL0     C 8032   6.263  10.706   7.110  0.3292 -0.0635  0.4687
  801MOL0     C 8033   6.328  10.625   7.011 -0.2458 -0.3264  0.6272
  801MOL0     C 8034   6.426  10.683   6.916 -0.4467  0.2479 -0.8112
  801MOL0     C 8035   6.456  10.825   6.921 -0.5689 -0.6271 -0.3817
  801MOL0     O 8036   6.536  10.860   6.813 -0.0768  0.0138 -0.0093
  801MOL0     C 8037   6.515  10.994   6.767  0.1434 -0.3520 -0.1468
  801MOL0     C 8038   6.650  11.063   6.786  1.2411  0.2983  0.6078
  801MOL0     C 8039   6.715  11.104   6.651  0.8566 -0.1398  0.3463
  801MOL0     C 8040   6.768  10.985   6.562  0.2699 -0.5733 -0.7030
  801MOL0     C 8041   6.874  10.904   6.642 -0.4700  0.2211  0.1902
  801MOL0     C 8042   7.001  10.976   6.691 -0.1461  0.3481  0.7394
  801MOL0     C 8043   7.115  10.888   6.744 -0.1963  0.3940  0.1838
  801MOL0     C 8044   7.082  10.788   6.857  1.0340 -0.3720  0.7503
  801MOL0    Cl 8045   7.243  10.717   6.878 -0.0521  0.1956 -0.1527
  801MOL0     C 8046   6.400  10.895   7.029  0.3408 -0.7552 -0.3911
  801MOL0     C 8047   6.315  10.832   7.121 -0.2377 -0.2346  0.3398
  801MOL0     O 8048   6.012  10.663   7.005 -0.0407 -0.0129  0.2644
  801MOL0     C 8049   5.816  10.542   7.157 -0.0864  0.1729 -0.0110
  801MOL0     C 8050   5.705  10.512   7.232  1.0433 -0.0929 -1.4376
  801MOL0     N 8051   5.086  10.279   7.662 -0.0879  0.5188 -0.6185
  801MOL0     N 8052   5.101  10.172   7.592  0.4984  0.1135  0.4069
  801MOL0     C 8053   4.731   9.190   7.340 -0.1804  0.2802 -0.6666
  801MOL0     C 8054   4.606   9.163   7.274  0.2454  0.4240  0.2226
  801MOL0     C 8055   4.296   9.300   6.949  0.3616  0.6741  0.5447
  801MOL0     C 8056   4.250   9.426   6.894  0.0198  0.2551 -1.2416
  801MOL0     C 8057   4.121   9.428   6.846  0.2231 -0.4313  0.4795
  801MOL0     C 8058   4.032   9.318   6.859  0.0929 -0.7178 -0.8631
  801MOL0     O 8059   3.904   9.338   6.828  0.0647  0.4236  1.3787
  801MOL0     C 8060   3.811   9.231   6.817 -0.2268  0.0627  0.3700
  801MOL0     C 8061   3.838   9.139   6.694  0.5097 -0.6612  0.4568
  801MOL0     C 8062   3.847   9.222   6.561 -0.2718 -0.3321  0.2373
  801MOL0     C 8063   3.723   9.310   6.536 -1.0897 -0.2710  0.9565
  801MOL0     C 8064   3.751   9.386   6.411 -0.2403  0.0201 -0.2203
  801MOL0     C 8065   3.789   9.448   6.315 -0.4377 -1.3984  0.3552
  801MOL0     C 8066   4.087   9.198   6.922 -0.9339 -0.4656  0.4642
  801MOL0     C 8067   4.218   9.183   6.956  0.9078 -0.4850  0.5108
  801MOL0     H 8068   4.704   9.244   6.966  0.5732  1.6073  0.8409
  801MOL0     H 8069   4.912   9.279   7.071  2.5327 -4.6128  0.1844
  801MOL0     H 8070   4.874   9.380   7.495  0.7850  4.9603 -2.7181
  801MOL0     H 8071   4.960   9.230   7.516  1.1619 -0.9558 -2.5855
  801MOL0     H 8072   5.112   9.406   7.603  0.8660 -5.5808  0.9738
  801MOL0     H 8073   5.179   9.333   7.457 -1.6179 -2.2930  0.2759
  801MOL0     H 8074   5.077   9.556   7.324 -1.2324  0.2693  0.8968
  801MOL0     H 8075   5.014   9.600   7.475 -1.3158 -0.8666  0.3929
  801MOL0     H 8076   5.241   9.608   7.577 -0.3122  1.5787  0.2732
  801MOL0     H 8077   5.304   9.534   7.419 -0.0372  0.3791 -0.3940
  801MOL0     H 8078   5.361   9.781   7.404 -1.5177  5.5331 -0.6744
  801MOL0     H 8079   5.251   9.727   7.285  0.4506  0.4374 -0.5630
  801MOL0     H 8080   5.061   9.851   7.426 -0.4940  2.7738  0.9221
  801MOL0     H 8081   5.202   9.891   7.542  0.9780  1.8211 -1.0222
  801MOL0     H 8082   5.312  10.027   7.395 -1.1517  0.9975  0.0807
  801MOL0     H 8083   5.227   9.962   7.257 -1.2695  0.3076 -1.2037
  801MOL0     H 8084   5.024  10.081   7.331  0.1133 -1.8240  2.6882
  801MOL0     H 8085   5.161  10.177   7.265  0.0477  0.2771  1.2948
  801MOL0     H 8086   5.183  10.395   7.374  1.7217  0.9037  1.3855
  801MOL0     H 8087   5.094  10.584   7.605  0.4230  0.8290 -0.2556
  801MOL0     H 8088   5.190  10.516   7.734 -0.6799  0.1800  0.2933
  801MOL0     H 8089   5.311  10.682   7.583  4.9550  0.3469 -2.4835
  801MOL0     H 8090   5.318  10.558   7.453 -1.1916 -2.6837 -0.2430
  801MOL0     H 8091   5.421  10.394   7.582 -1.8966 -0.0977  0.1956
  801MOL0     H 8092   5.430  10.496   7.729 -0.8693 -0.4115  0.3669
  801MOL0     H 8093   5.639  10.506   7.619  0.6919  1.4598  0.2616
  801MOL0     H 8094   5.570  10.659   7.593 -0.7084 -1.2090  1.1740
  801MOL0     H 8095   5.785  10.648   7.529 -2.1832 -0.7774 -0.0561
  801MOL0     H 8096   6.094  10.668   7.470  0.0308  2.9766  2.4166
  801MOL0     H 8097   6.055  10.816   7.367 -0.8064  0.7274 -2.4926
  801MOL0     H 8098   5.975  10.783   7.519  2.6823 -0.8674  0.8559
  801MOL0     H 8099   6.291  10.524   6.995 -1.8693  0.3963 -0.4617
  801MOL0     H 8100   6.455  10.609   6.842 -0.2011  0.5344 -1.0017
  801MOL0     H 8101   6.496  10.991   6.660  0.8483  0.0137 -0.2834
  801MOL0     H 8102   6.432  11.041   6.822 -0.2415  0.5601 -1.4559
  801MOL0     H 8103   6.640  11.152   6.849 -0.6860 -0.1510  0.9967
  801MOL0     H 8104   6.728  11.004   6.837 -1.5479 -2.3858  2.1516
  801MOL0     H 8105   6.805  11.153   6.691 -1.3787  1.1373  4.3462
  801MOL0     H 8106   6.651  11.174   6.596  2.9229  2.4769  0.9981
  801MOL0     H 8107   6.686  10.921   6.527 -0.3334 -1.1574  1.5922
  801MOL0     H 8108   6.816  11.016   6.469  0.8770 -0.9948 -0.5318
  801MOL0     H 8109   6.904  10.821   6.577 -2.5230  0.1355 -0.7225
  801MOL0     H 8110   6.833  10.860   6.734  1.1564 -0.1319  0.7721
  801MOL0     H 8111   7.026  11.038   6.604  0.1601  2.0557  2.0070
  801MOL0     H 8112   6.970  11.051   6.764  5.5529  1.1228  2.8711
  801MOL0     H 8113   7.199  10.950   6.773  1.5068 -2.1065  0.9247
  801MOL0     H 8114   7.158  10.827   6.664 -0.5274 -0.9589  1.0083
  801MOL0     H 8115   7.006  10.715   6.826  0.9807  0.8201 -2.2421
  801MOL0     H 8116   7.041  10.841   6.943  0.1615 -0.3513  0.3408
  801MOL0     H 8117   6.412  11.003   7.036 -3.3587 -0.1779 -0.7723
  801MOL0     H 8118   6.262  10.888   7.198  1.3914  1.6820  0.1409
  801MOL0     H 8119   5.816  10.515   7.052  1.3886 -2.2961  0.5393
  801MOL0     H 8120   5.618  10.454   7.203  1.5312 -2.1536  0.8880
  801MOL0     H 8121   4.717   9.178   7.447  0.1664  0.5040 -0.5928
  801MOL0     H 8122   4.529   9.124   7.340  1.3468 -2.9522 -0.2874
  801MOL0     H 8123   4.310   9.516   6.887 -1.2244  1.0500 -1.9268
  801MOL0     H 8124   4.072   9.519   6.814 -0.3648  0.3825  3.4474
  801MOL0     H 8125   3.836   9.169   6.904  1.1143 -0.8807 -0.6573
  801MOL0     H 8126   3.706   9.263   6.815 -0.6345 -1.0360 -3.2014
  801MOL0     H 8127   3.747   9.079   6.685  1.5812 -2.2721 -0.2955
  801MOL0     H 8128   3.917   9.064   6.688 -2.0171 -3.4028 -2.7112
  801MOL0     H 8129   3.841   9.148   6.480 -4.1232 -0.1735  0.2029
  801MOL0     H 8130   3.942   9.273   6.546 -0.5381  0.3455  0.8112
  801MOL0     H 8131   3.712   9.383   6.617  0.5223  0.0937  0.8782
  801MOL0     H 8132   3.628   9.259   6.520 -0.3930 -1.6339  1.0206
  801MOL0     H 8133   3.826   9.497   6.227 -2.4717 -0.6251 -0.1270
  801MOL0     H 8134   4.029   9.107   6.933  0.5532 -1.2089  3.3177
  801MOL0     H 8135   4.237   9.083   6.996  0.8546 -1.3611 -1.5457
  802MOL0     O 8136   0.792   8.589   3.569 -0.1493 -0.0339 -0.3030
  802MOL0     C 8137   0.790   8.487   3.634 -1.1489  0.3446  0.4832
  802MOL0     O 8138   0.753   8.367   3.581  0.4270 -0.2533 -0.7217
  802MOL0     C 8139   0.681   8.365   3.462  0.0379 -0.8877 -0.9678
  802MOL0     C 8140   0.720   8.418   3.338  0.0922 -0.1509  0.5866
  802MOL0     C 8141   0.625   8.405   3.226 -1.1147 -0.1135 -0.4304
  802MOL0     C 8142   0.496   8.344   3.244  1.0213 -0.4666 -0.7874
  802MOL0     O 8143   0.403   8.342   3.151 -0.4534 -0.1525  0.1454
  802MOL0     C 8144   0.448   8.366   3.017  0.5877 -0.1271  0.9171
  802MOL0     C 8145   0.356   8.314   2.916 -0.0401  0.4817  0.3697
  802MOL0     C 8146   0.376   8.164   2.900 -0.7965  0.3519  1.0400
  802MOL0     C 8147   0.278   8.094   2.806 -0.6555 -0.7438  1.6971
  802MOL0     C 8148   0.130   8.091   2.840 -0.2099  0.1795 -0.0906
  802MOL0     C 8149   0.054   7.996   2.748 -0.1338  0.4624 -1.1357
  802MOL0     C 8150   0.063   8.042   2.603  0.1421 -1.4110 -0.6642
  802MOL0     C 8151  -0.062   8.000   2.527 -1.3238 -0.1293 -0.3301
  802MOL0     N 8152  -0.055   8.050   2.385 -0.1078  0.2402  0.0578
  802MOL0     C 8153  -0.100   8.165   2.338  0.0485  0.5105 -0.6755
  802MOL0     C 8154  -0.073   8.173   2.207  0.0316 -0.2213 -0.1170
  802MOL0     C 8155  -0.135   8.277   2.120 -0.4535  0.1339  0.3686
  802MOL0     C 8156  -0.064   8.419   2.120  0.0326  0.2264  0.3129
  802MOL0     C 8157  -0.158   8.532   2.174 -0.6301  0.3499 -1.1009
  802MOL0     C 8158  -0.079   8.659   2.167  0.5571  0.4827 -1.4290
  802MOL0     O 8159   0.034   8.652   2.251  0.6037 -0.2034  0.4387
  802MOL0     C 8160   0.137   8.743   2.231  0.1563 -0.1043 -0.0700
  802MOL0     C 8161   0.254   8.704   2.279 -0.5846  2.0783 -0.0916
  802MOL0     C 8162   0.380   8.758   2.270  0.5724  0.1605  0.7857
  802MOL0     C 8163   0.501   8.676   2.311  0.2326  1.0198 -0.6705
  802MOL0     C 8164   0.381   8.884   2.193  0.3021 -0.4661  0.2312
  802MOL0     C 8165   0.506   8.967   2.178  0.0758  0.0739 -0.1189
  802MOL0     O 8166   0.632   8.911   2.186  0.2773  0.4360  0.3985
  802MOL0     C 8167   0.743   8.987   2.164  0.6847  0.3329  0.5806
  802MOL0     C 8168   0.760   9.076   2.057  0.7992  0.8872 -0.1402
  802MOL0     C 8169   0.880   9.135   2.034 -0.2404 -0.3571 -0.1173
  802MOL0     C 8170   0.996   9.111   2.114  1.0091 -0.0973  0.7768
  802MOL0     O 8171   1.110   9.174   2.085  0.3278 -1.7501  0.3219
  802MOL0     C 8172   1.232   9.116   2.106 -0.4041  0.6041 -0.3942
  802MOL0     C 8173   1.323   9.208   2.022 -0.7300 -0.6024 -0.3956
  802MOL0     C 8174   1.273   9.207   1.873 -0.0700 -0.5551 -0.2153
  802MOL0     C 8175   1.246   9.354   1.817 -0.6655 -1.4137  0.2327
  802MOL0     C 8176   1.227   9.356   1.666 -0.6983 -0.4334 -1.3579
  802MOL0     C 8177   1.266   9.492   1.614 -0.0977  1.3099  0.3690
  802MOL0     C 8178   1.193   9.508   1.477 -0.1622  0.3429  0.3882
  802MOL0     C 8179   1.215   9.647   1.412  0.1881  0.6636 -0.2015
  802MOL0    Cl 8180   1.150   9.635   1.245 -0.3678  0.1358  0.1256
  802MOL0     C 8181   0.980   9.013   2.204 -0.2256  0.2508  1.1130
  802MOL0     C 8182   0.860   8.946   2.224 -0.5455  0.1955  0.1567
  802MOL0     O 8183   0.494   9.087   2.157 -0.2955 -0.0603 -0.1508
  802MOL0     C 8184   0.254   8.933   2.141 -1.9862  0.7772  0.0287
  802MOL0     C 8185   0.133   8.866   2.162  0.5932  0.3346 -0.2080
  802MOL0     N 8186  -0.010   8.057   2.172  0.7758 -0.0902 -0.2076
  802MOL0     N 8187  -0.002   7.985   2.274 -0.3504 -0.1746  0.5539
  802MOL0     C 8188   0.472   8.284   3.365  0.2699 -0.5826  0.1030
  802MOL0     C 8189   0.558   8.285   3.475 -0.5768  0.3020 -0.6002
  802MOL0     C 8190   0.830   8.494   3.776 -0.3842 -0.7806 -0.3029
  802MOL0     C 8191   0.837   8.380   3.862  0.0791  0.6224  0.2119
  802MOL0     C 8192   0.872   8.396   3.992 -0.8807  0.1873  0.0342
  802MOL0     C 8193   0.914   8.519   4.050  1.4316 -0.1242 -0.3029
  802MOL0     O 8194   0.944   8.523   4.184  0.3850 -0.1197  0.3831
  802MOL0     C 8195   0.943   8.650   4.264 -0.2662 -0.4932  0.2311
  802MOL0     C 8196   0.927   8.623   4.419 -0.5225 -0.5972 -0.2735
  802MOL0     C 8197   1.035   8.526   4.484  1.0876 -0.5702  0.9148
  802MOL0     C 8198   1.058   8.592   4.623  0.8762 -0.1899  0.7544
  802MOL0     C 8199   0.946   8.542   4.708 -0.3216 -0.8055  0.6992
  802MOL0     C 8200   0.853   8.508   4.775  0.3021  0.4921 -0.0948
  802MOL0     C 8201   0.917   8.635   3.969 -0.1700 -0.2033  1.1141
  802MOL0     C 8202   0.877   8.617   3.836  0.1882 -0.4091  0.4087
  802MOL0     H 8203   0.816   8.464   3.317  0.0810 -0.2784  0.2461
  802MOL0     H 8204   0.665   8.454   3.138  1.2164 -3.3506 -1.3750
  802MOL0     H 8205   0.459   8.474   3.000  2.2932 -0.5942 -1.5114
  802MOL0     H 8206   0.547   8.326   2.995 -0.5743 -2.0600 -1.3902
  802MOL0     H 8207   0.254   8.346   2.943  0.7936  1.7821  2.2287
  802MOL0     H 8208   0.385   8.353   2.817 -1.1747 -0.1264 -0.2265
  802MOL0     H 8209   0.478   8.145   2.865 -0.2582  2.8556  1.1213
  802MOL0     H 8210   0.361   8.113   2.996 -2.1264 -2.7696 -0.6643
  802MOL0     H 8211   0.287   8.140   2.707  3.4002 -0.6016  1.9907
  802MOL0     H 8212   0.312   7.991   2.794 -0.4781 -0.7722  2.3939
  802MOL0     H 8213   0.117   8.073   2.947  1.4444  0.5075  0.2013
  802MOL0     H 8214   0.079   8.183   2.812  0.1367 -0.1091 -1.8128
  802MOL0     H 8215   0.091   7.893   2.747 -2.8657 -0.6091 -2.5077
  802MOL0     H 8216  -0.052   7.989   2.777 -0.0137  3.1084  0.1952
  802MOL0     H 8217   0.066   8.150   2.587  1.4591 -1.5938 -1.7988
  802MOL0     H 8218   0.148   7.989   2.560  1.3592  1.1497 -1.5663
  802MOL0     H 8219  -0.143   8.065   2.561  1.3928  2.4105  1.9497
  802MOL0     H 8220  -0.069   7.893   2.544  0.3128 -0.6663 -2.5153
  802MOL0     H 8221  -0.172   8.221   2.397 -2.6080 -1.9472 -1.3577
  802MOL0     H 8222  -0.104   8.245   2.020 -0.1282 -0.7611  0.7480
  802MOL0     H 8223  -0.243   8.284   2.133 -0.3558  2.8172  0.4496
  802MOL0     H 8224  -0.025   8.449   2.022  0.2506  2.5169  1.0387
  802MOL0     H 8225   0.024   8.406   2.184 -0.6541 -3.0155  0.7695
  802MOL0     H 8226  -0.180   8.503   2.277  1.8963  0.5509 -0.4363
  802MOL0     H 8227  -0.252   8.544   2.120 -1.0056 -1.4575 -0.9117
  802MOL0     H 8228  -0.145   8.742   2.197 -1.8902 -1.4535 -1.0752
  802MOL0     H 8229  -0.054   8.683   2.063 -3.2699  0.3143 -2.5426
  802MOL0     H 8230   0.255   8.612   2.336 -2.1185  2.4435  0.5826
  802MOL0     H 8231   0.543   8.645   2.215 -1.5003  0.7441 -1.3723
  802MOL0     H 8232   0.576   8.743   2.354  2.6702 -1.8463 -0.2007
  802MOL0     H 8233   0.480   8.600   2.386  3.8788 -0.1006 -0.6117
  802MOL0     H 8234   0.678   9.100   1.990 -0.1926 -1.7291 -0.0055
  802MOL0     H 8235   0.892   9.204   1.952  1.6914 -0.2128  0.2163
  802MOL0     H 8236   1.269   9.099   2.207  2.6648 -2.8976 -1.9034
  802MOL0     H 8237   1.226   9.016   2.062  2.3716 -1.0523  2.5520
  802MOL0     H 8238   1.320   9.307   2.067  0.8294 -1.4861  1.8479
  802MOL0     H 8239   1.430   9.188   2.034 -0.1448  2.2433 -0.1611
  802MOL0     H 8240   1.176   9.157   1.866 -0.6717  0.6036 -0.3586
  802MOL0     H 8241   1.339   9.147   1.810 -0.6102  0.2683 -1.6058
  802MOL0     H 8242   1.157   9.399   1.861 -2.0336  1.2982 -4.6095
  802MOL0     H 8243   1.322   9.428   1.845 -2.7597  1.0878 -0.2930
  802MOL0     H 8244   1.128   9.323   1.634 -0.4287  0.3548 -3.1382
  802MOL0     H 8245   1.296   9.279   1.629 -1.5086 -3.1798  2.2394
  802MOL0     H 8246   1.236   9.576   1.676 -0.2281  2.7914 -1.6020
  802MOL0     H 8247   1.371   9.493   1.584 -0.5119  1.0451 -1.2215
  802MOL0     H 8248   1.088   9.478   1.477  0.6280 -2.8206 -0.5353
  802MOL0     H 8249   1.233   9.429   1.413  1.0719  0.6172  0.8042
  802MOL0     H 8250   1.320   9.666   1.433 -0.2515 -0.9373  5.0367
  802MOL0     H 8251   1.148   9.713   1.468 -2.0669 -0.4210 -1.4874
  802MOL0     H 8252   1.063   8.972   2.261 -0.5186 -0.7116  0.8754
  802MOL0     H 8253   0.846   8.868   2.299 -0.5173 -1.8181 -1.8465
  802MOL0     H 8254   0.255   9.032   2.095 -0.0393  0.6533 -0.3047
  802MOL0     H 8255   0.042   8.907   2.117  0.0259  1.1695  1.6132
  802MOL0     H 8256   0.372   8.245   3.378 -0.2659  0.7203  0.0464
  802MOL0     H 8257   0.527   8.229   3.562  0.4483  1.1267  0.3324
  802MOL0     H 8258   0.802   8.288   3.816 -1.2050  2.1536 -2.0983
  802MOL0     H 8259   0.862   8.309   4.056 -1.4095 -1.1953 -1.8623
  802MOL0     H 8260   1.034   8.704   4.235  0.0620 -0.7892  0.7106
  802MOL0     H 8261   0.861   8.713   4.227  1.6663 -0.7938 -5.5680
  802MOL0     H 8262   0.828   8.583   4.442 -0.1109 -2.0202 -0.8871
  802MOL0     H 8263   0.950   8.723   4.457  2.8488 -1.3903  0.0842
  802MOL0     H 8264   1.129   8.541   4.431  0.2209  2.2252 -0.0161
  802MOL0     H 8265   1.012   8.420   4.490 -0.1323 -0.3464  0.5157
  802MOL0     H 8266   1.057   8.701   4.631 -4.1455 -0.0707  1.2002
  802MOL0     H 8267   1.158   8.558   4.652  3.9335  3.3591 -4.0620
  802MOL0     H 8268   0.767   8.459   4.815 -1.2922  0.3896 -3.3134
  802MOL0     H 8269   0.931   8.734   4.012 -2.5369 -0.0569  1.7117
  802MOL0     H 8270   0.887   8.700   3.766  4.2724  0.1762  1.4363
  803MOL0     O 8271   0.343   9.861   5.820 -0.7063 -0.6120 -0.3126
  803MOL0     C 8272   0.354   9.738   5.849  0.1584 -0.5106  0.4425
  803MOL0     O 8273   0.259   9.646   5.889 -0.8292  0.3517 -0.2911
  803MOL0     C 8274   0.129   9.669   5.904 -0.3928  0.2804 -0.5829
  803MOL0     C 8275   0.084   9.782   5.974  0.6790  0.3048  0.2380
  803MOL0     C 8276  -0.053   9.788   6.011  0.4235  0.3751  0.6326
  803MOL0     C 8277  -0.149   9.701   5.948 -0.3113 -0.6375  0.1123
  803MOL0     O 8278  -0.280   9.730   5.971 -0.1256  0.1212  0.6046
  803MOL0     C 8279  -0.377   9.670   5.875 -0.2086 -0.1326  1.0566
  803MOL0     C 8280  -0.511   9.735   5.892 -0.1355  0.1057 -0.3576
  803MOL0     C 8281  -0.618   9.648   5.953  0.1033 -0.6465  0.3799
  803MOL0     C 8282  -0.769   9.683   5.936 -1.2019 -0.7674  0.6954
  803MOL0     C 8283  -0.863   9.598   6.013  0.5145  0.5114  0.2512
  803MOL0     C 8284  -0.863   9.451   5.961  0.2568  0.5808  0.1764
  803MOL0     C 8285  -0.960   9.357   6.028  0.6653  0.0012  0.6363
  803MOL0     C 8286  -0.953   9.219   5.968  0.4808 -0.3715  0.1142
  803MOL0     N 8287  -1.037   9.117   6.037 -0.1055  0.2406  0.9076
  803MOL0     C 8288  -1.176   9.116   6.027  0.2940  0.0551  0.2872
  803MOL0     C 8289  -1.204   9.002   6.093  0.1988  0.6902 -0.6120
  803MOL0     C 8290  -1.333   8.938   6.122  0.5439 -0.4029 -0.2368
  803MOL0     C 8291  -1.439   9.036   6.182 -0.6630 -0.7077 -0.3503
  803MOL0     C 8292  -1.392   9.082   6.325 -0.0474 -0.5594  0.3047
  803MOL0     C 8293  -1.509   9.166   6.383  0.2578 -0.6302 -0.3314
  803MOL0     O 8294  -1.629   9.090   6.386  0.5287 -0.0605  0.0283
  803MOL0     C 8295  -1.752   9.143   6.408  0.5038 -0.2255 -0.3403
  803MOL0     C 8296  -1.808   9.225   6.319  1.4191  0.2207  0.7429
  803MOL0     C 8297  -1.933   9.294   6.338 -0.1220  0.2810  0.2661
  803MOL0     C 8298  -1.980   9.385   6.221 -1.0775  0.2208 -0.1675
  803MOL0     C 8299  -2.003   9.269   6.455  1.1360  0.9986 -0.9660
  803MOL0     C 8300  -2.131   9.340   6.489  0.8665 -0.2696  0.2634
  803MOL0     O 8301  -2.152   9.358   6.622 -0.0104 -0.2598 -0.4816
  803MOL0     C 8302  -2.250   9.445   6.660  0.4048  0.3457  0.2799
  803MOL0     C 8303  -2.378   9.405   6.696  0.0647  0.7260  0.1648
  803MOL0     C 8304  -2.456   9.494   6.773  0.3388  0.3048 -0.1856
  803MOL0     C 8305  -2.415   9.625   6.793  0.2374  0.3324 -0.2416
  803MOL0     O 8306  -2.481   9.707   6.877  0.3298  0.1297  0.9631
  803MOL0     C 8307  -2.571   9.664   6.971  0.0370 -0.8523 -0.0891
  803MOL0     C 8308  -2.650   9.788   7.038  0.3016  0.1394  0.2791
  803MOL0     C 8309  -2.560   9.870   7.126 -0.0653 -0.0995  0.0077
  803MOL0     C 8310  -2.468   9.953   7.031 -0.9540  1.0765 -0.0217
  803MOL0     C 8311  -2.426  10.087   7.084  0.1129  0.2820 -1.1205
  803MOL0     C 8312  -2.373  10.095   7.231  0.6392  0.1418  0.4044
  803MOL0     C 8313  -2.409  10.229   7.290  0.1949  0.2359 -0.4357
  803MOL0     C 8314  -2.366  10.240   7.430 -0.6148  1.1250 -0.3904
  803MOL0    Cl 8315  -2.389  10.396   7.509 -0.0038 -0.0256 -0.0784
  803MOL0     C 8316  -2.288   9.665   6.757  0.6243 -0.4529 -0.3894
  803MOL0     C 8317  -2.208   9.581   6.685 -0.2541 -0.6409  0.3880
  803MOL0     O 8318  -2.211   9.387   6.400 -0.0815  0.0059 -0.2336
  803MOL0     C 8319  -1.938   9.181   6.556  0.1429 -0.1780 -0.5285
  803MOL0     C 8320  -1.819   9.113   6.529  0.6027  0.1535  0.1548
  803MOL0     N 8321  -1.086   8.939   6.141  1.1350  0.2364  0.9405
  803MOL0     N 8322  -0.993   9.014   6.105 -0.4644  0.5172 -0.9928
  803MOL0     C 8323  -0.098   9.576   5.893 -0.5028  0.6609 -0.1276
  803MOL0     C 8324   0.041   9.562   5.888  0.6236 -0.5718 -0.1441
  803MOL0     C 8325   0.499   9.698   5.862  0.3627  0.3673 -0.8069
  803MOL0     C 8326   0.600   9.772   5.797 -0.3968  0.9018  0.5896
  803MOL0     C 8327   0.735   9.733   5.801  0.2113  0.3449  1.2066
  803MOL0     C 8328   0.765   9.610   5.866 -0.2183 -0.6067 -0.7885
  803MOL0     O 8329   0.899   9.570   5.863  1.0535 -0.0668 -0.3159
  803MOL0     C 8330   0.960   9.538   5.995 -0.2912 -0.2371  0.7659
  803MOL0     C 8331   0.951   9.658   6.092  0.1311  0.6497 -0.0775
  803MOL0     C 8332   1.050   9.634   6.206 -0.1346 -2.2805 -0.2959
  803MOL0     C 8333   1.048   9.763   6.303  0.6265 -0.1885  1.1705
  803MOL0     C 8334   1.069   9.732   6.442 -0.6863 -0.3891  0.0589
  803MOL0     C 8335   1.090   9.695   6.555 -0.2728  0.0447 -0.2131
  803MOL0     C 8336   0.669   9.548   5.946 -0.3986  0.2636 -0.3951
  803MOL0     C 8337   0.540   9.595   5.940  0.2104  0.0557  0.6492
  803MOL0     H 8338   0.158   9.850   6.015  0.9077  1.2885 -1.6478
  803MOL0     H 8339  -0.084   9.874   6.070  5.1423  1.2874  2.1868
  803MOL0     H 8340  -0.339   9.699   5.776  0.0401 -0.9765  0.9024
  803MOL0     H 8341  -0.387   9.561   5.881 -1.9153 -0.0802 -0.1107
  803MOL0     H 8342  -0.504   9.828   5.950 -0.9874  0.8415 -1.3894
  803MOL0     H 8343  -0.557   9.758   5.796 -0.5773 -0.7570 -0.3644
  803MOL0     H 8344  -0.599   9.547   5.915 -3.2250 -3.2975  4.8404
  803MOL0     H 8345  -0.598   9.637   6.060  3.5677 -4.4530 -0.4118
  803MOL0     H 8346  -0.781   9.791   5.950  1.8170 -0.1765 -0.4089
  803MOL0     H 8347  -0.779   9.658   5.830  4.2725 -3.3354  0.3920
  803MOL0     H 8348  -0.845   9.602   6.121 -2.3132 -2.1036  0.9651
  803MOL0     H 8349  -0.968   9.624   5.997  0.1106 -0.9046  0.4833
  803MOL0     H 8350  -0.874   9.447   5.852  3.2860  1.3000 -0.2464
  803MOL0     H 8351  -0.759   9.427   5.983  0.3147 -0.1952 -0.8972
  803MOL0     H 8352  -0.941   9.352   6.136  3.0743 -3.0353  0.2319
  803MOL0     H 8353  -1.065   9.385   6.018  0.2983 -0.3292  2.8914
  803MOL0     H 8354  -0.853   9.175   5.975  0.3128 -1.2454 -2.2436
  803MOL0     H 8355  -0.979   9.237   5.863 -0.1328 -1.6788  0.0207
  803MOL0     H 8356  -1.234   9.199   5.989  1.3434  0.0149 -1.4701
  803MOL0     H 8357  -1.375   8.892   6.032 -1.7797  1.1842 -0.0667
  803MOL0     H 8358  -1.306   8.859   6.192 -0.1142  1.1781  1.9067
  803MOL0     H 8359  -1.531   8.977   6.179  0.4466 -2.6577  1.2448
  803MOL0     H 8360  -1.447   9.124   6.116 -2.7714 -0.4484  0.1701
  803MOL0     H 8361  -1.294   9.132   6.323  3.0243 -5.7407 -1.3969
  803MOL0     H 8362  -1.375   8.993   6.386  1.5699  0.3935  1.3215
  803MOL0     H 8363  -1.528   9.247   6.313 -0.1775 -0.3256  0.1365
  803MOL0     H 8364  -1.477   9.211   6.477  2.6360  0.9581 -1.7998
  803MOL0     H 8365  -1.764   9.247   6.222  1.5324 -0.6231  0.5965
  803MOL0     H 8366  -1.981   9.490   6.253 -2.8198 -0.8766  4.1458
  803MOL0     H 8367  -1.917   9.375   6.132 -0.2991  2.1546  0.1075
  803MOL0     H 8368  -2.077   9.354   6.183 -1.3459 -1.0160  1.4186
  803MOL0     H 8369  -2.409   9.302   6.680  3.9801 -0.6067  0.1774
  803MOL0     H 8370  -2.546   9.450   6.815  2.0014 -4.0189 -0.7300
  803MOL0     H 8371  -2.643   9.595   6.927 -3.5308  1.7075  1.1821
  803MOL0     H 8372  -2.507   9.610   7.041 -0.6931  0.6660  1.8578
  803MOL0     H 8373  -2.697   9.844   6.957  0.7726 -2.2435 -1.7575
  803MOL0     H 8374  -2.727   9.747   7.104  1.4031 -1.0926  0.8442
  803MOL0     H 8375  -2.496   9.813   7.193  0.4927  0.3279 -0.1525
  803MOL0     H 8376  -2.623   9.944   7.177 -0.9586  0.1388 -1.3868
  803MOL0     H 8377  -2.376   9.894   7.020 -1.6482 -0.1735  0.6665
  803MOL0     H 8378  -2.491   9.956   6.924  1.4862 -0.2761 -0.6600
  803MOL0     H 8379  -2.506  10.162   7.086  2.2439  2.7008  0.2636
  803MOL0     H 8380  -2.350  10.125   7.015 -0.5412 -4.7764 -5.2108
  803MOL0     H 8381  -2.423  10.022   7.295 -2.5602  2.6275  0.9882
  803MOL0     H 8382  -2.266  10.073   7.241  1.2130  1.8652 -1.3774
  803MOL0     H 8383  -2.514  10.256   7.285 -0.5527 -2.3282 -0.2496
  803MOL0     H 8384  -2.347  10.305   7.242 -0.8504  2.9295  2.2270
  803MOL0     H 8385  -2.257  10.231   7.423 -0.5944  2.6245 -3.3690
  803MOL0     H 8386  -2.425  10.161   7.479  2.5711 -2.8994 -2.3611
  803MOL0     H 8387  -2.252   9.765   6.776  2.1696 -1.2542  1.1203
  803MOL0     H 8388  -2.105   9.600   6.657  0.7088 -1.2495  3.2192
  803MOL0     H 8389  -1.995   9.168   6.648  0.5678 -1.3510 -0.4215
  803MOL0     H 8390  -1.775   9.035   6.590  3.0259  1.5076  0.2536
  803MOL0     H 8391  -0.158   9.492   5.860  3.0531 -1.5767 -1.5270
  803MOL0     H 8392   0.081   9.464   5.864 -0.9669 -1.0186 -1.1416
  803MOL0     H 8393   0.568   9.860   5.742 -1.8331  0.1398  0.1336
  803MOL0     H 8394   0.803   9.803   5.754  1.5626 -0.8309  1.3355
  803MOL0     H 8395   0.922   9.452   6.050  0.9493  0.2302  2.4564
  803MOL0     H 8396   1.067   9.529   5.972 -0.7431  1.4935 -2.6016
  803MOL0     H 8397   0.852   9.672   6.135 -0.5712 -0.2303 -1.3376
  803MOL0     H 8398   0.984   9.742   6.030  0.1912 -1.0252 -2.4473
  803MOL0     H 8399   1.152   9.620   6.169  0.6938  1.7610 -0.0505
  803MOL0     H 8400   1.012   9.547   6.260  1.5523 -1.5203  2.2820
  803MOL0     H 8401   0.955   9.819   6.288  0.4238 -0.2671  2.0799
  803MOL0     H 8402   1.131   9.814   6.254 -0.8696  0.1682 -1.1363
  803MOL0     H 8403   1.108   9.676   6.659 -3.0308 -1.1287  0.1350
  803MOL0     H 8404   0.701   9.457   5.996 -0.5899 -0.7919 -2.0898
  803MOL0     H 8405   0.466   9.528   5.984  2.3918 -1.4136  2.3008
  804MOL0     O 8406   3.774   0.620   2.161  0.7110  0.0058  0.7436
  804MOL0     C 8407   3.825   0.722   2.126  0.6262 -0.3417  0.7130
  804MOL0     O 8408   3.859   0.757   1.998  0.3860  0.0251  0.0575
  804MOL0     C 8409   3.851   0.678   1.885 -1.1266 -0.5138 -1.2644
  804MOL0     C 8410   3.805   0.547   1.883  0.5445 -0.7088  0.1327
  804MOL0     C 8411   3.799   0.480   1.765  0.1739 -0.2491  0.6629
  804MOL0     C 8412   3.858   0.535   1.647  0.0756  0.8941 -0.4398
  804MOL0     O 8413   3.859   0.464   1.526  0.1405 -0.1386  0.2182
  804MOL0     C 8414   3.896   0.327   1.514  0.0115  0.3870 -0.7327
  804MOL0     C 8415   3.923   0.260   1.379  0.1524  0.8855 -0.1389
  804MOL0     C 8416   3.987   0.358   1.284  0.3433  0.7260  0.3076
  804MOL0     C 8417   4.114   0.427   1.323  0.2932  0.1887  0.0824
  804MOL0     C 8418   4.191   0.460   1.191  0.4325 -0.0213 -0.2950
  804MOL0     C 8419   4.115   0.574   1.104  0.0052  0.2463  1.2490
  804MOL0     C 8420   4.230   0.637   1.018 -0.4103  0.6479  0.9337
  804MOL0     C 8421   4.166   0.733   0.923  0.3859 -1.1084  0.4126
  804MOL0     N 8422   4.121   0.862   0.971 -0.0601 -0.6545  0.2011
  804MOL0     C 8423   4.157   0.934   1.088  1.3440 -0.2967  0.3597
  804MOL0     C 8424   4.113   1.059   1.061  0.4067 -0.7112 -0.6353
  804MOL0     C 8425   4.125   1.184   1.149 -1.3394  0.5334 -0.2730
  804MOL0     C 8426   3.982   1.229   1.197 -0.7151  0.6013  0.3951
  804MOL0     C 8427   3.987   1.349   1.299  0.2873 -0.5496  0.3722
  804MOL0     C 8428   4.002   1.477   1.219 -0.6685  0.1836  0.9893
  804MOL0     O 8429   3.935   1.587   1.281  0.6333 -0.0836  0.6086
  804MOL0     C 8430   3.818   1.649   1.248 -0.0617 -0.6512 -0.2319
  804MOL0     C 8431   3.794   1.771   1.319  0.5964 -0.3261  0.2465
  804MOL0     C 8432   3.676   1.846   1.293  0.1244 -0.3075 -0.3113
  804MOL0     C 8433   3.657   1.970   1.362  0.4684  0.1820 -0.3837
  804MOL0     C 8434   3.591   1.800   1.190  0.6570 -0.7001 -0.1092
  804MOL0     C 8435   3.455   1.853   1.168  0.4412  0.3434 -0.0601
  804MOL0     O 8436   3.350   1.812   1.246  0.3703 -0.4505 -0.5467
  804MOL0     C 8437   3.370   1.739   1.365  0.3894 -0.2188 -0.6546
  804MOL0     C 8438   3.360   1.799   1.491 -0.0807 -0.3546  0.5995
  804MOL0     C 8439   3.367   1.730   1.613  0.3458  0.2101  0.9310
  804MOL0     C 8440   3.410   1.593   1.611  0.3507 -0.3733 -0.1588
  804MOL0     O 8441   3.429   1.505   1.714 -0.2393  0.5895 -0.0445
  804MOL0     C 8442   3.466   1.564   1.839  0.8551  0.4253 -0.2020
  804MOL0     C 8443   3.575   1.662   1.860  0.4531 -0.5795  0.1048
  804MOL0     C 8444   3.711   1.599   1.827 -0.0746 -0.2856  0.3978
  804MOL0     C 8445   3.738   1.563   1.680 -0.8669 -0.5198  1.1920
  804MOL0     C 8446   3.893   1.532   1.638  0.2226  0.8827  0.8826
  804MOL0     C 8447   3.965   1.485   1.765  0.7697 -0.1005 -0.3802
  804MOL0     C 8448   4.109   1.458   1.729  0.2420 -0.3554  1.0749
  804MOL0     C 8449   4.205   1.426   1.847  0.0043 -0.7877  0.0611
  804MOL0    Cl 8450   4.278   1.565   1.933 -0.1869 -0.2130 -0.3819
  804MOL0     C 8451   3.440   1.537   1.489  0.0357  0.5057  0.3878
  804MOL0     C 8452   3.418   1.608   1.365  0.7812 -0.6122 -0.0803
  804MOL0     O 8453   3.458   1.952   1.097  0.6280 -0.3263  0.4119
  804MOL0     C 8454   3.624   1.691   1.114  0.7664  1.0866  1.1715
  804MOL0     C 8455   3.733   1.610   1.137  0.1083 -0.0903  0.3824
  804MOL0     N 8456   4.062   1.060   0.930 -0.3770 -0.2611 -0.0091
  804MOL0     N 8457   4.065   0.947   0.881 -0.2044  0.4560  0.0890
  804MOL0     C 8458   3.906   0.666   1.651  1.0587 -0.3026  0.5263
  804MOL0     C 8459   3.915   0.730   1.777  0.4197 -0.4486  0.1556
  804MOL0     C 8460   3.833   0.834   2.224 -1.1781  0.1906 -0.0936
  804MOL0     C 8461   3.738   0.839   2.324 -0.6743  1.3870  0.4122
  804MOL0     C 8462   3.743   0.949   2.413 -1.1576  0.1905 -0.0310
  804MOL0     C 8463   3.835   1.049   2.404 -0.4674  0.0744 -0.0838
  804MOL0     O 8464   3.846   1.149   2.505 -0.0574  0.0621  0.5503
  804MOL0     C 8465   3.967   1.232   2.506  0.2475  0.5635  0.3215
  804MOL0     C 8466   3.982   1.343   2.616 -0.8696 -0.7091  0.1885
  804MOL0     C 8467   4.110   1.432   2.587  0.0488  0.1884  0.6406
  804MOL0     C 8468   4.087   1.575   2.651 -1.5202  0.2821  0.3123
  804MOL0     C 8469   3.972   1.635   2.587 -0.5030 -0.1807  0.9558
  804MOL0     C 8470   3.881   1.690   2.527  0.1515  0.0176  0.0743
  804MOL0     C 8471   3.934   1.038   2.304 -0.4559 -0.3956 -0.1736
  804MOL0     C 8472   3.932   0.938   2.208 -0.7516 -0.2362 -0.4203
  804MOL0     H 8473   3.766   0.497   1.971 -0.8693  2.4251  1.4284
  804MOL0     H 8474   3.753   0.383   1.753 -3.7440  1.4947  0.0417
  804MOL0     H 8475   3.995   0.327   1.560 -0.4665 -0.2350  0.3328
  804MOL0     H 8476   3.838   0.265   1.582  2.2387 -0.0998  0.8233
  804MOL0     H 8477   3.981   0.170   1.400 -1.8740 -0.4956 -0.1960
  804MOL0     H 8478   3.834   0.220   1.330  1.8650 -2.3463 -0.8929
  804MOL0     H 8479   3.999   0.297   1.194 -2.0124 -0.7208  0.8790
  804MOL0     H 8480   3.916   0.440   1.268 -0.1950  0.3294  0.6313
  804MOL0     H 8481   4.081   0.517   1.375  1.4390 -1.1417  3.3382
  804MOL0     H 8482   4.170   0.369   1.397  0.9603  0.6562 -0.0494
  804MOL0     H 8483   4.292   0.494   1.217 -0.3379  1.3298  1.1575
  804MOL0     H 8484   4.219   0.370   1.135  0.8170 -0.3464  0.4099
  804MOL0     H 8485   4.052   0.535   1.023  0.5366 -0.2541  1.0698
  804MOL0     H 8486   4.059   0.639   1.171  2.1847  1.3176  2.1395
  804MOL0     H 8487   4.317   0.678   1.069  0.8895 -2.1259  1.1176
  804MOL0     H 8488   4.267   0.558   0.952  0.2402  0.9995  0.8728
  804MOL0     H 8489   4.088   0.671   0.879  2.0239 -2.2673 -0.9695
  804MOL0     H 8490   4.243   0.766   0.853  0.8956  0.2432  1.5373
  804MOL0     H 8491   4.197   0.896   1.182 -1.9921 -2.2190  1.1490
  804MOL0     H 8492   4.187   1.152   1.233 -0.1660  1.4999 -0.7342
  804MOL0     H 8493   4.189   1.248   1.087  0.0987 -0.8913 -0.3374
  804MOL0     H 8494   3.950   1.140   1.252 -0.0573  0.1197  0.0118
  804MOL0     H 8495   3.910   1.249   1.118  0.0544 -0.7296 -0.6817
  804MOL0     H 8496   4.059   1.335   1.380 -2.6291 -3.4290  2.7237
  804MOL0     H 8497   3.887   1.345   1.344  0.3598  0.7369  0.6768
  804MOL0     H 8498   3.966   1.467   1.116  2.2267  0.6627 -0.1599
  804MOL0     H 8499   4.109   1.500   1.212 -1.3250  3.0920 -3.9363
  804MOL0     H 8500   3.869   1.789   1.395  0.4043  1.3636  0.0661
  804MOL0     H 8501   3.707   1.956   1.458  0.9148 -0.1423 -0.6594
  804MOL0     H 8502   3.710   2.053   1.313 -1.6048  1.3081 -0.8249
  804MOL0     H 8503   3.553   2.003   1.361 -0.3414 -2.2489 -0.9310
  804MOL0     H 8504   3.336   1.905   1.496  3.5018  0.6746 -0.7319
  804MOL0     H 8505   3.327   1.774   1.704 -4.4552  2.0182 -1.6485
  804MOL0     H 8506   3.373   1.605   1.879  0.5922  0.3708 -0.7493
  804MOL0     H 8507   3.496   1.486   1.909  0.4576  0.9359  0.5543
  804MOL0     H 8508   3.558   1.754   1.803 -0.1292 -3.4165 -4.9322
  804MOL0     H 8509   3.572   1.692   1.965  5.5507 -1.2353  0.6810
  804MOL0     H 8510   3.734   1.507   1.882  1.5173  0.3323  0.8272
  804MOL0     H 8511   3.784   1.676   1.851 -0.7868 -0.2787  2.7169
  804MOL0     H 8512   3.670   1.478   1.667 -0.2526 -1.4026  3.3470
  804MOL0     H 8513   3.696   1.638   1.612 -2.0562  0.9046  3.3672
  804MOL0     H 8514   3.946   1.625   1.615  3.4185 -1.0229  0.0467
  804MOL0     H 8515   3.909   1.466   1.553 -2.0366 -1.2505  1.9867
  804MOL0     H 8516   3.964   1.544   1.856  0.7957 -1.0467  0.2448
  804MOL0     H 8517   3.909   1.393   1.787  0.5101 -0.1579 -1.2134
  804MOL0     H 8518   4.153   1.541   1.673 -0.5789 -0.4844  0.2062
  804MOL0     H 8519   4.104   1.372   1.662 -1.8224  2.3155 -2.5551
  804MOL0     H 8520   4.297   1.376   1.815  2.7214  4.4861 -1.4817
  804MOL0     H 8521   4.150   1.364   1.920  0.3308 -0.1569  0.8596
  804MOL0     H 8522   3.495   1.444   1.496  2.3106  1.8148  0.8709
  804MOL0     H 8523   3.452   1.563   1.272  2.7622 -0.5585  0.5707
  804MOL0     H 8524   3.557   1.667   1.031  3.4631 -2.6571 -0.1586
  804MOL0     H 8525   3.763   1.536   1.064  4.7053  1.0645  0.8161
  804MOL0     H 8526   3.957   0.712   1.567  0.3400 -1.4209 -0.5470
  804MOL0     H 8527   3.955   0.831   1.777 -2.4545  0.8756 -2.0859
  804MOL0     H 8528   3.657   0.767   2.330  0.6674 -0.2337  0.1700
  804MOL0     H 8529   3.671   0.962   2.493  0.7151  0.9655  1.6068
  804MOL0     H 8530   4.063   1.181   2.515  0.5872  1.5242  3.1413
  804MOL0     H 8531   3.963   1.289   2.412  2.5127  1.2005  0.5536
  804MOL0     H 8532   3.981   1.300   2.716  0.3129 -0.6636  0.2398
  804MOL0     H 8533   3.895   1.409   2.624 -0.8558 -0.8991  2.3258
  804MOL0     H 8534   4.128   1.438   2.480 -1.8217 -0.6358  0.2313
  804MOL0     H 8535   4.198   1.385   2.630 -1.1365  0.2896  3.3900
  804MOL0     H 8536   4.170   1.642   2.624 -0.6119 -0.0361  2.1905
  804MOL0     H 8537   4.089   1.575   2.760  0.4226 -0.4068  0.3162
  804MOL0     H 8538   3.808   1.743   2.468 -0.1014  0.7531  1.0254
  804MOL0     H 8539   4.010   1.113   2.290 -0.2176 -0.7374 -0.7711
  804MOL0     H 8540   4.010   0.943   2.133  1.9513  0.2093  2.2302
  805MOL0     O 8541   2.524   1.828   6.500 -0.6026 -0.3570  0.3117
  805MOL0     C 8542   2.620   1.752   6.492 -0.5679 -1.1735 -0.3498
  805MOL0     O 8543   2.612   1.619   6.524  0.3902 -0.4476  0.0683
  805MOL0     C 8544   2.492   1.572   6.566  0.2619 -0.3029  0.6152
  805MOL0     C 8545   2.490   1.529   6.695 -1.1365  0.3324  0.3671
  805MOL0     C 8546   2.369   1.477   6.740  0.7760 -0.4528  0.8162
  805MOL0     C 8547   2.247   1.485   6.665  0.1711 -0.5204  0.2088
  805MOL0     O 8548   2.125   1.444   6.715  0.1714  0.2208 -0.1830
  805MOL0     C 8549   2.074   1.322   6.681 -0.2492  0.0660 -1.4584
  805MOL0     C 8550   1.976   1.298   6.794 -0.2339 -0.0238  1.3273
  805MOL0     C 8551   2.052   1.246   6.917 -0.7257  0.2142  0.7572
  805MOL0     C 8552   1.949   1.185   7.017 -0.0401 -0.3050  0.8361
  805MOL0     C 8553   1.900   1.043   6.995  1.2841  0.0711  0.6317
  805MOL0     C 8554   2.012   0.938   7.026 -0.6775 -0.1681 -0.1846
  805MOL0     C 8555   1.958   0.789   7.035  0.6962 -0.0574 -0.2561
  805MOL0     C 8556   1.923   0.724   6.901 -0.1913 -0.4459  0.3788
  805MOL0     N 8557   1.836   0.604   6.915  1.0687  0.0760  0.0343
  805MOL0     C 8558   1.867   0.473   6.947 -1.0928  0.7354 -0.2819
  805MOL0     C 8559   1.751   0.407   6.977  0.3015 -0.4044  0.3785
  805MOL0     C 8560   1.730   0.267   7.031  0.0626  0.0653 -0.4453
  805MOL0     C 8561   1.820   0.267   7.154 -1.0103  0.0486 -0.2385
  805MOL0     C 8562   1.776   0.354   7.279  0.5218  0.7007  0.2378
  805MOL0     C 8563   1.883   0.372   7.384 -0.3614  0.5540  0.1722
  805MOL0     O 8564   1.991   0.449   7.331 -0.0908 -0.7938  0.3575
  805MOL0     C 8565   2.116   0.458   7.397  0.0893 -0.8424  0.1439
  805MOL0     C 8566   2.143   0.399   7.523  0.2793 -0.2783  0.3594
  805MOL0     C 8567   2.273   0.401   7.577  0.5635  0.4211  0.3689
  805MOL0     C 8568   2.297   0.306   7.691 -0.3307  0.0500 -0.2604
  805MOL0     C 8569   2.371   0.488   7.524  0.1701 -0.5608 -0.3587
  805MOL0     C 8570   2.507   0.506   7.561 -0.1539 -0.0704  0.1025
  805MOL0     O 8571   2.578   0.619   7.517 -0.3175 -0.2492 -0.1314
  805MOL0     C 8572   2.716   0.627   7.541  0.9292 -0.3513 -0.0279
  805MOL0     C 8573   2.818   0.575   7.452  0.3915  0.0320 -0.0277
  805MOL0     C 8574   2.956   0.578   7.480  0.9768 -0.2180 -0.0661
  805MOL0     C 8575   2.985   0.637   7.605 -0.8255 -0.2708 -0.5905
  805MOL0     O 8576   3.119   0.644   7.650  0.1728  0.4876  0.6089
  805MOL0     C 8577   3.188   0.517   7.657 -0.7177 -0.2466  0.7917
  805MOL0     C 8578   3.116   0.425   7.757  0.8128  0.4129  0.6438
  805MOL0     C 8579   3.005   0.323   7.710  0.0109  0.1115  0.4062
  805MOL0     C 8580   2.944   0.254   7.829  0.2631 -0.2522 -0.7227
  805MOL0     C 8581   2.838   0.152   7.800 -0.2265 -0.0082 -0.5556
  805MOL0     C 8582   2.759   0.111   7.922  0.6357 -0.1976  0.5575
  805MOL0     C 8583   2.828   0.056   8.049 -0.5305 -0.6307  0.5250
  805MOL0     C 8584   2.743  -0.018   8.142  1.2133 -0.1938  0.1024
  805MOL0    Cl 8585   2.633   0.095   8.229  0.5985 -0.1961  0.7058
  805MOL0     C 8586   2.887   0.692   7.697  0.2633 -0.0779 -0.6958
  805MOL0     C 8587   2.753   0.696   7.655  0.4259 -0.5863  0.2371
  805MOL0     O 8588   2.566   0.421   7.631 -0.1482 -0.2625  0.3624
  805MOL0     C 8589   2.329   0.561   7.404  0.9309 -0.7695 -0.1187
  805MOL0     C 8590   2.204   0.548   7.344 -0.1748 -0.3448 -0.6787
  805MOL0     N 8591   1.652   0.505   6.969 -0.6208 -0.1562 -0.4978
  805MOL0     N 8592   1.702   0.612   6.917  0.2908  0.1827  0.3198
  805MOL0     C 8593   2.258   1.511   6.521  0.0072 -0.9701 -0.5510
  805MOL0     C 8594   2.377   1.557   6.478 -0.5209 -0.0444 -0.5679
  805MOL0     C 8595   2.756   1.801   6.456  0.3352 -0.3046 -0.5997
  805MOL0     C 8596   2.864   1.722   6.479 -0.2832  0.4630 -0.0078
  805MOL0     C 8597   2.999   1.766   6.444 -0.0279 -0.6446  0.5662
  805MOL0     C 8598   3.008   1.889   6.370  0.0447 -0.0654 -0.2257
  805MOL0     O 8599   3.139   1.922   6.334  0.4921 -0.1269  0.0719
  805MOL0     C 8600   3.158   2.026   6.247 -1.3912 -0.0613  0.5949
  805MOL0     C 8601   3.297   1.989   6.181  0.8191  0.3557 -0.6097
  805MOL0     C 8602   3.401   2.002   6.297 -0.7772 -0.0618 -0.1092
  805MOL0     C 8603   3.551   2.016   6.254  0.8956  0.3447  0.6217
  805MOL0     C 8604   3.643   1.997   6.367 -0.8152 -0.2831  0.8197
  805MOL0     C 8605   3.729   1.985   6.451  0.2342 -0.4393 -0.3782
  805MOL0     C 8606   2.895   1.963   6.338  0.6332  0.2351  0.6042
  805MOL0     C 8607   2.771   1.927   6.399  0.3850 -0.1742  0.8903
  805MOL0     H 8608   2.578   1.516   6.757 -1.1305  0.9195  0.4818
  805MOL0     H 8609   2.357   1.425   6.835 -1.7432 -2.3939 -0.4365
  805MOL0     H 8610   2.026   1.335   6.583  0.8303 -1.7377 -2.2829
  805MOL0     H 8611   2.146   1.241   6.664  0.0822  0.8203 -4.1864
  805MOL0     H 8612   1.917   1.385   6.825  2.7536  1.8155  2.2536
  805MOL0     H 8613   1.904   1.227   6.751 -0.9126 -0.4560  3.0803
  805MOL0     H 8614   2.117   1.160   6.899 -1.9152 -1.2923  3.1603
  805MOL0     H 8615   2.122   1.319   6.960  1.6758 -2.4797  1.7862
  805MOL0     H 8616   1.995   1.171   7.115  2.2615 -0.6665 -0.2275
  805MOL0     H 8617   1.875   1.266   7.026  1.8640  1.6028  0.3266
  805MOL0     H 8618   1.816   1.018   7.060  1.7454 -0.0245  1.1998
  805MOL0     H 8619   1.873   1.026   6.890  0.2893 -0.2896  0.9333
  805MOL0     H 8620   2.087   0.942   6.947  0.3519  3.4444  0.8234
  805MOL0     H 8621   2.056   0.942   7.126  1.2695 -3.2148 -0.7779
  805MOL0     H 8622   2.033   0.719   7.074 -0.1462  0.0230  1.6254
  805MOL0     H 8623   1.867   0.788   7.095  0.8093 -0.1329 -0.0845
  805MOL0     H 8624   2.011   0.702   6.839  2.4609 -0.5825  3.8615
  805MOL0     H 8625   1.871   0.798   6.840  1.2406 -0.5778 -1.0738
  805MOL0     H 8626   1.960   0.425   6.974 -1.0926  2.3585  3.0191
  805MOL0     H 8627   1.624   0.245   7.049 -0.0699  0.1354 -1.1053
  805MOL0     H 8628   1.758   0.194   6.954 -2.3430 -3.6051  1.8655
  805MOL0     H 8629   1.925   0.280   7.128 -1.5300  0.2853 -2.4031
  805MOL0     H 8630   1.819   0.164   7.192  3.1158  0.1187  0.5254
  805MOL0     H 8631   1.680   0.316   7.316  0.1298  0.3625 -1.0797
  805MOL0     H 8632   1.749   0.457   7.254 -1.4979 -0.0885 -1.0872
  805MOL0     H 8633   1.909   0.271   7.416 -0.1705  1.2670  2.5011
  805MOL0     H 8634   1.855   0.425   7.476 -0.5906 -2.8633  2.2823
  805MOL0     H 8635   2.057   0.355   7.572 -0.3413 -0.0358 -0.4952
  805MOL0     H 8636   2.356   0.360   7.765  0.7376  0.5018 -1.4095
  805MOL0     H 8637   2.196   0.275   7.720 -2.1403  1.6567 -4.2027
  805MOL0     H 8638   2.358   0.219   7.662 -0.4081 -0.5490  1.2672
  805MOL0     H 8639   2.777   0.528   7.363 -0.5066  2.9541 -1.3160
  805MOL0     H 8640   3.027   0.539   7.408  3.2215  1.7036  0.9936
  805MOL0     H 8641   3.201   0.463   7.563  3.3963  1.1943  0.3503
  805MOL0     H 8642   3.287   0.544   7.696 -0.9707  2.3900 -0.1798
  805MOL0     H 8643   3.201   0.366   7.794  0.7000 -0.8398 -0.9732
  805MOL0     H 8644   3.072   0.475   7.843 -0.9945 -0.2841  0.1732
  805MOL0     H 8645   3.071   0.257   7.652  1.9225 -0.4307  3.0250
  805MOL0     H 8646   2.924   0.370   7.653 -1.8361 -1.8945  1.2950
  805MOL0     H 8647   3.030   0.207   7.878  2.0369  2.1734 -1.3079
  805MOL0     H 8648   2.903   0.327   7.899  0.4561 -1.3128  0.5355
  805MOL0     H 8649   2.888   0.067   7.754 -0.4727 -1.2286  1.3139
  805MOL0     H 8650   2.767   0.190   7.726 -1.5580  0.8633  1.0968
  805MOL0     H 8651   2.705   0.197   7.963  1.8152 -0.8260  3.6263
  805MOL0     H 8652   2.684   0.038   7.888 -0.7149  2.2163 -2.1204
  805MOL0     H 8653   2.873   0.146   8.091 -0.5025 -0.6959  0.6355
  805MOL0     H 8654   2.911  -0.010   8.021  0.7950  1.6330 -1.2792
  805MOL0     H 8655   2.810  -0.074   8.208  2.0979 -0.1253 -0.7121
  805MOL0     H 8656   2.680  -0.089   8.088 -1.2212  0.3025  2.1137
  805MOL0     H 8657   2.931   0.726   7.790  2.7035  0.5668 -1.9802
  805MOL0     H 8658   2.666   0.738   7.704 -0.4246 -2.2382  0.1942
  805MOL0     H 8659   2.405   0.614   7.347 -1.2830 -0.0827 -2.6061
  805MOL0     H 8660   2.165   0.613   7.267 -4.8849 -0.3539  1.2967
  805MOL0     H 8661   2.168   1.502   6.460  0.5772 -3.4538 -1.1274
  805MOL0     H 8662   2.393   1.584   6.374  4.1782 -0.1378 -0.0969
  805MOL0     H 8663   2.836   1.636   6.539 -1.7475  1.2500  0.4673
  805MOL0     H 8664   3.074   1.693   6.475 -0.9590 -0.9280  2.3022
  805MOL0     H 8665   3.082   2.023   6.169  1.0598 -0.0600 -1.9292
  805MOL0     H 8666   3.152   2.120   6.303 -1.8309 -1.5428  3.2052
  805MOL0     H 8667   3.310   2.071   6.109 -0.5855  0.5893 -0.6108
  805MOL0     H 8668   3.284   1.892   6.133 -4.1087  1.6457 -2.4190
  805MOL0     H 8669   3.394   1.920   6.369 -1.6010  1.6324  1.8474
  805MOL0     H 8670   3.377   2.081   6.369 -0.3041 -0.6615  0.7308
  805MOL0     H 8671   3.547   2.119   6.215  0.0479  0.1920  0.2627
  805MOL0     H 8672   3.574   1.951   6.169  0.1481  1.4265 -0.4535
  805MOL0     H 8673   3.798   1.968   6.530 -1.4983  1.5597  1.7000
  805MOL0     H 8674   2.902   2.056   6.283 -1.7095 -2.1137 -4.2284
  805MOL0     H 8675   2.679   1.982   6.383  0.6691  0.7291  2.2197
  806MOL0     O 8676   6.777   1.110   0.393  0.1985  0.0610 -0.4526
  806MOL0     C 8677   6.745   1.170   0.496 -0.6590 -0.3806  0.1845
  806MOL0     O 8678   6.815   1.272   0.556  0.4387 -0.1959 -0.4490
  806MOL0     C 8679   6.949   1.296   0.520  1.2456  0.6577 -0.1288
  806MOL0     C 8680   6.974   1.404   0.428 -0.5215 -0.0134  1.0207
  806MOL0     C 8681   7.113   1.428   0.407 -0.6052  0.2897 -0.1977
  806MOL0     C 8682   7.214   1.355   0.474  0.4042  0.5277 -0.2228
  806MOL0     O 8683   7.344   1.383   0.431 -0.3950 -0.4012  1.5329
  806MOL0     C 8684   7.453   1.366   0.535  0.7400 -0.5530 -0.9770
  806MOL0     C 8685   7.482   1.501   0.608 -0.4292  0.0326 -0.8967
  806MOL0     C 8686   7.483   1.625   0.514 -0.5945  0.1080  0.9714
  806MOL0     C 8687   7.552   1.758   0.570  0.7524  0.2291  0.5562
  806MOL0     C 8688   7.564   1.852   0.449  0.2149  1.1521 -0.5152
  806MOL0     C 8689   7.431   1.922   0.430 -0.3161 -0.0132  0.1894
  806MOL0     C 8690   7.419   2.023   0.318  0.6981 -0.3936  0.3878
  806MOL0     C 8691   7.304   2.116   0.339  0.3389  1.0436  0.0523
  806MOL0     N 8692   7.168   2.065   0.360 -0.2474  0.1194  0.0594
  806MOL0     C 8693   7.125   1.931   0.353  0.2956 -0.0561 -0.6804
  806MOL0     C 8694   6.992   1.953   0.360  0.9291 -0.2812  0.2721
  806MOL0     C 8695   6.894   1.850   0.339  0.2772 -0.5287 -0.4720
  806MOL0     C 8696   6.807   1.849   0.464  0.4634  0.2871  1.0764
  806MOL0     C 8697   6.674   1.783   0.445 -0.2501  0.1274  0.6813
  806MOL0     C 8698   6.632   1.739   0.584  0.1619  0.0010 -0.8813
  806MOL0     O 8699   6.500   1.688   0.587 -0.4898  0.1030 -0.0404
  806MOL0     C 8700   6.466   1.620   0.694 -0.6418  0.7940 -0.4757
  806MOL0     C 8701   6.539   1.593   0.816 -0.2155  0.3332  0.1449
  806MOL0     C 8702   6.495   1.515   0.925  0.0728  0.3042 -0.5404
  806MOL0     C 8703   6.591   1.464   1.023 -0.8187  0.1419 -0.1772
  806MOL0     C 8704   6.358   1.488   0.933  0.3588 -0.0393  0.8537
  806MOL0     C 8705   6.290   1.424   1.049 -0.5275  0.1488 -0.1086
  806MOL0     O 8706   6.155   1.457   1.059  0.2153  0.3705  0.2295
  806MOL0     C 8707   6.076   1.389   1.145  0.9112 -0.5674 -1.3151
  806MOL0     C 8708   6.082   1.420   1.281  0.6335  0.4857  0.1763
  806MOL0     C 8709   5.999   1.343   1.362  0.0307 -0.3831 -0.3932
  806MOL0     C 8710   5.922   1.234   1.321 -0.2736  0.0681  0.0756
  806MOL0     O 8711   5.865   1.138   1.399 -0.0595  0.3742 -0.0155
  806MOL0     C 8712   5.838   1.176   1.535 -0.2920 -0.1895 -0.0722
  806MOL0     C 8713   5.776   1.050   1.603  0.0747 -0.1575  0.0356
  806MOL0     C 8714   5.871   0.924   1.601 -0.5268  1.1226  0.1604
  806MOL0     C 8715   5.796   0.806   1.652  0.4437 -1.2180  0.1729
  806MOL0     C 8716   5.849   0.670   1.680  0.6398  0.4601 -0.2898
  806MOL0     C 8717   5.967   0.674   1.780  0.5242 -0.4914  0.4142
  806MOL0     C 8718   6.031   0.528   1.796  0.2771  0.7268 -0.8616
  806MOL0     C 8719   6.181   0.545   1.777  0.6071  0.8397 -0.8095
  806MOL0    Cl 8720   6.221   0.616   1.611 -0.1701 -0.5586 -0.0581
  806MOL0     C 8721   5.919   1.211   1.178  0.8011 -0.9770 -0.6019
  806MOL0     C 8722   5.992   1.289   1.097 -0.9754 -0.9332  0.0788
  806MOL0     O 8723   6.345   1.341   1.117 -0.0814  0.5584  0.2502
  806MOL0     C 8724   6.281   1.527   0.821 -0.4818  0.7383  0.2923
  806MOL0     C 8725   6.328   1.588   0.705 -0.4639 -0.0901  1.1580
  806MOL0     N 8726   6.959   2.086   0.365 -0.9421  0.1676  0.5465
  806MOL0     N 8727   7.063   2.147   0.349  0.3793 -0.0123 -0.3153
  806MOL0     C 8728   7.178   1.257   0.566 -1.2427 -0.3239  0.7883
  806MOL0     C 8729   7.045   1.223   0.582  0.6715 -0.0924  0.0416
  806MOL0     C 8730   6.616   1.141   0.551 -0.7977 -0.3254 -2.0430
  806MOL0     C 8731   6.543   1.025   0.522 -0.3182  0.2691 -0.1997
  806MOL0     C 8732   6.421   0.995   0.588 -0.3944  0.6974 -0.2921
  806MOL0     C 8733   6.378   1.078   0.696  0.4508  0.2309 -0.6244
  806MOL0     O 8734   6.260   1.042   0.767 -0.2858  0.3537 -0.2200
  806MOL0     C 8735   6.265   1.032   0.910 -0.0518  0.7783  0.3695
  806MOL0     C 8736   6.371   0.951   0.974 -1.1534  0.3759  0.1572
  806MOL0     C 8737   6.401   0.809   0.913 -0.6330 -0.5771 -0.1468
  806MOL0     C 8738   6.280   0.721   0.944  0.0407 -0.5513  0.3854
  806MOL0     C 8739   6.296   0.582   0.908  0.3866 -0.0560 -0.4496
  806MOL0     C 8740   6.270   0.479   0.855 -0.5285  0.1688  0.4715
  806MOL0     C 8741   6.445   1.199   0.731 -0.6492  0.4573 -0.7828
  806MOL0     C 8742   6.560   1.231   0.659  0.4672  0.2527 -0.3417
  806MOL0     H 8743   6.899   1.457   0.371  0.3156  1.2046  1.0204
  806MOL0     H 8744   7.154   1.500   0.337  4.0301  0.4303  2.2685
  806MOL0     H 8745   7.432   1.279   0.599  2.7285 -0.1119  0.3683
  806MOL0     H 8746   7.547   1.341   0.486  1.4389 -0.2275  0.1635
  806MOL0     H 8747   7.400   1.511   0.681  0.3871 -2.4795  0.4690
  806MOL0     H 8748   7.578   1.497   0.661  0.7937  0.6194 -2.9581
  806MOL0     H 8749   7.531   1.594   0.421  0.7003  1.0111  1.3051
  806MOL0     H 8750   7.377   1.633   0.489 -0.7748 -0.2906  1.5765
  806MOL0     H 8751   7.485   1.792   0.649 -1.8274  0.4296 -1.5524
  806MOL0     H 8752   7.654   1.737   0.603  0.7590  0.3619  0.6184
  806MOL0     H 8753   7.638   1.929   0.475 -1.8910  2.6589  1.5103
  806MOL0     H 8754   7.593   1.793   0.362 -3.2979 -0.8411 -0.5274
  806MOL0     H 8755   7.360   1.841   0.412  2.9453 -2.7563 -1.5190
  806MOL0     H 8756   7.399   1.971   0.523 -0.2703  0.0700  0.1616
  806MOL0     H 8757   7.517   2.069   0.302  0.2091  1.7674  2.9897
  806MOL0     H 8758   7.395   1.972   0.224 -0.0733  0.2453  0.2298
  806MOL0     H 8759   7.296   2.198   0.266 -1.1593  2.3292  1.5812
  806MOL0     H 8760   7.329   2.163   0.434  1.7074 -0.8477  0.6922
  806MOL0     H 8761   7.165   1.831   0.361  1.4835  0.5188  0.9667
  806MOL0     H 8762   6.840   1.852   0.243 -0.8698 -0.5830  0.1506
  806MOL0     H 8763   6.946   1.754   0.346  1.5099  0.2238  1.3316
  806MOL0     H 8764   6.791   1.945   0.514 -3.5966 -0.9658  2.5990
  806MOL0     H 8765   6.866   1.789   0.534 -0.2072 -1.4233  0.2161
  806MOL0     H 8766   6.685   1.700   0.375 -0.2783  1.9812 -1.6233
  806MOL0     H 8767   6.599   1.849   0.400  0.7795 -0.6742 -2.4002
  806MOL0     H 8768   6.627   1.829   0.646 -1.7568  1.1683 -2.5892
  806MOL0     H 8769   6.702   1.664   0.622  2.1400  0.7835 -2.7533
  806MOL0     H 8770   6.646   1.615   0.814  0.1113 -1.2059 -0.9407
  806MOL0     H 8771   6.557   1.482   1.125  0.4429 -0.4082  0.3577
  806MOL0     H 8772   6.610   1.358   1.007  0.6365  0.1297  1.3605
  806MOL0     H 8773   6.682   1.525   1.015 -0.2916 -0.0260  3.1110
  806MOL0     H 8774   6.148   1.497   1.320 -0.0807  1.2052 -0.0002
  806MOL0     H 8775   6.013   1.367   1.467  1.5843  0.7619 -0.8115
  806MOL0     H 8776   5.933   1.197   1.584  0.0792  0.8841 -1.1924
  806MOL0     H 8777   5.758   1.250   1.532 -0.8307 -0.7296  0.7093
  806MOL0     H 8778   5.732   1.068   1.701 -2.3730  0.4305 -1.0805
  806MOL0     H 8779   5.692   1.026   1.538  0.8124 -0.3289 -0.8817
  806MOL0     H 8780   5.957   0.958   1.661 -2.7290  2.2996  2.8811
  806MOL0     H 8781   5.890   0.895   1.498 -0.3635  0.7644  0.2902
  806MOL0     H 8782   5.762   0.849   1.746 -0.4455 -0.4406 -0.4919
  806MOL0     H 8783   5.717   0.782   1.580  0.6354 -1.7282  0.1284
  806MOL0     H 8784   5.892   0.618   1.594 -0.5225 -1.1305  0.0442
  806MOL0     H 8785   5.768   0.604   1.713  1.6041 -1.3470 -1.3903
  806MOL0     H 8786   6.042   0.745   1.744 -2.1637  0.9187 -2.9124
  806MOL0     H 8787   5.927   0.693   1.880  0.7048  1.5837  0.1470
  806MOL0     H 8788   5.987   0.450   1.734 -0.5658 -2.2379  3.1046
  806MOL0     H 8789   6.013   0.501   1.900 -0.1433  4.3175  0.1220
  806MOL0     H 8790   6.230   0.449   1.799 -2.3532 -0.3961  0.8915
  806MOL0     H 8791   6.222   0.603   1.860 -0.2578 -0.6630  0.7158
  806MOL0     H 8792   5.855   1.136   1.132 -0.8511 -1.2142  1.9113
  806MOL0     H 8793   5.979   1.288   0.989 -0.7686  0.7085  0.0123
  806MOL0     H 8794   6.173   1.519   0.819 -0.7143  3.2832 -1.1711
  806MOL0     H 8795   6.256   1.622   0.631  0.2108 -1.6301 -0.2912
  806MOL0     H 8796   7.257   1.207   0.621 -0.7793 -0.1221  0.3204
  806MOL0     H 8797   7.014   1.155   0.661 -1.0477 -0.4950 -0.9554
  806MOL0     H 8798   6.593   0.962   0.449  0.2960  0.5785 -0.0531
  806MOL0     H 8799   6.365   0.909   0.553 -1.0015  0.3969  1.3443
  806MOL0     H 8800   6.273   1.136   0.943 -0.5656  1.2819 -1.0221
  806MOL0     H 8801   6.171   0.987   0.941 -1.6439  2.6824 -1.4061
  806MOL0     H 8802   6.363   0.946   1.083  6.3219 -0.0231  1.2545
  806MOL0     H 8803   6.459   1.015   0.967 -1.0910  0.3006  0.2335
  806MOL0     H 8804   6.485   0.765   0.967  1.0399  1.4908 -0.9002
  806MOL0     H 8805   6.421   0.808   0.806 -1.2179  0.0132 -0.2667
  806MOL0     H 8806   6.193   0.752   0.885  0.0143 -1.8902 -0.3110
  806MOL0     H 8807   6.254   0.723   1.050 -2.0149 -0.9559 -0.0605
  806MOL0     H 8808   6.250   0.385   0.809 -0.3622 -0.6214  1.9695
  806MOL0     H 8809   6.411   1.272   0.804 -1.7294  0.0729 -0.8781
  806MOL0     H 8810   6.619   1.316   0.692  0.0654 -0.0214  1.1794
  807MOL0     O 8811   1.334   7.696   9.310 -0.8920  0.3511 -0.3041
  807MOL0     C 8812   1.305   7.781   9.394 -1.0536 -0.2983 -0.2299
  807MOL0     O 8813   1.198   7.783   9.470 -0.2749 -0.1716  0.2785
  807MOL0     C 8814   1.098   7.683   9.460 -0.1591 -0.6996  0.5349
  807MOL0     C 8815   1.132   7.549   9.480  0.1384  0.4904 -0.5782
  807MOL0     C 8816   1.033   7.450   9.459 -0.0811 -0.7693 -1.1233
  807MOL0     C 8817   0.900   7.483   9.445 -0.1231 -0.5364  0.0856
  807MOL0     O 8818   0.806   7.379   9.445 -0.7397  0.1817 -0.7346
  807MOL0     C 8819   0.732   7.374   9.325 -0.2568  0.5802  0.4623
  807MOL0     C 8820   0.640   7.260   9.343  0.5332  0.0796 -0.4019
  807MOL0     C 8821   0.526   7.300   9.433  0.5597 -0.7027 -0.9288
  807MOL0     C 8822   0.499   7.205   9.534  0.3554  0.2426  0.1121
  807MOL0     C 8823   0.363   7.240   9.598  0.1270  0.5899  0.6205
  807MOL0     C 8824   0.329   7.171   9.732 -0.3222 -0.1396 -0.8113
  807MOL0     C 8825   0.185   7.231   9.772  0.0456  0.5733 -0.8133
  807MOL0     C 8826   0.133   7.151   9.882 -0.0163 -1.0691  0.2022
  807MOL0     N 8827  -0.006   7.179   9.909  0.3483 -0.0653  0.0108
  807MOL0     C 8828  -0.071   7.103  10.009 -1.4342  0.3691  0.0020
  807MOL0     C 8829  -0.193   7.094   9.975 -0.1657  0.7108  0.0381
  807MOL0     C 8830  -0.307   7.024  10.052  0.0777  1.2084  0.7048
  807MOL0     C 8831  -0.314   7.036  10.203 -0.1612 -0.0017 -0.5386
  807MOL0     C 8832  -0.385   6.910  10.266  0.5560  0.3867 -0.0605
  807MOL0     C 8833  -0.520   6.888  10.207  1.5661 -0.2368  0.9687
  807MOL0     O 8834  -0.609   6.787  10.264 -0.2979  0.0294 -0.0073
  807MOL0     C 8835  -0.717   6.828  10.345  1.0075  0.1469 -0.2991
  807MOL0     C 8836  -0.827   6.744  10.353  0.1155  0.4092 -0.5253
  807MOL0     C 8837  -0.935   6.771  10.436  0.7509  0.3326 -0.0220
  807MOL0     C 8838  -1.049   6.667  10.444 -0.1775  0.2708  0.1380
  807MOL0     C 8839  -0.938   6.902  10.504 -0.1949  0.2715 -0.3558
  807MOL0     C 8840  -1.059   6.940  10.585  0.2346 -0.2055 -0.6042
  807MOL0     O 8841  -1.028   7.020  10.691 -0.3153 -0.9411 -0.7828
  807MOL0     C 8842  -1.141   7.076  10.753 -0.1340 -0.4373  0.0798
  807MOL0     C 8843  -1.207   7.027  10.868 -0.3103  0.4627 -1.1811
  807MOL0     C 8844  -1.292   7.107  10.939  0.5387 -0.4970 -1.2192
  807MOL0     C 8845  -1.318   7.239  10.901  0.1793 -0.2114  0.5648
  807MOL0     O 8846  -1.411   7.307  10.976  0.1085 -0.1780  0.3542
  807MOL0     C 8847  -1.444   7.445  10.930  0.1624 -0.0171  0.2511
  807MOL0     C 8848  -1.529   7.516  11.038  0.2679 -0.6290  0.0771
  807MOL0     C 8849  -1.454   7.537  11.167 -0.1447 -0.1529  0.1268
  807MOL0     C 8850  -1.363   7.665  11.170 -0.0852 -0.7394 -0.6907
  807MOL0     C 8851  -1.264   7.651  11.272 -0.9204  0.6540 -0.0441
  807MOL0     C 8852  -1.203   7.776  11.330 -0.3525 -0.4241  0.2629
  807MOL0     C 8853  -1.104   7.773  11.448 -0.7919  0.5793 -0.2405
  807MOL0     C 8854  -1.013   7.648  11.433 -1.0507 -0.0390  0.7665
  807MOL0    Cl 8855  -0.907   7.673  11.287 -0.3771  0.1606  0.2798
  807MOL0     C 8856  -1.252   7.293  10.779  1.0955 -0.2528 -0.6660
  807MOL0     C 8857  -1.165   7.207  10.710  0.2755 -0.3580  0.2638
  807MOL0     O 8858  -1.171   6.892  10.564 -0.2799  0.0791 -0.0520
  807MOL0     C 8859  -0.830   6.988  10.493 -0.0668 -0.4039 -0.9208
  807MOL0     C 8860  -0.717   6.944  10.418  0.8537  0.4032  1.0309
  807MOL0     N 8861  -0.211   7.166   9.860 -0.3170  0.0070 -0.3635
  807MOL0     N 8862  -0.094   7.200   9.808 -0.2491 -0.3785 -0.6494
  807MOL0     C 8863   0.868   7.619   9.445 -0.0174  0.0475 -0.0772
  807MOL0     C 8864   0.961   7.719   9.446  0.2860  0.9577  0.0393
  807MOL0     C 8865   1.394   7.901   9.398 -0.6335 -0.6468  0.0537
  807MOL0     C 8866   1.529   7.900   9.340  0.5232 -0.4175  0.0065
  807MOL0     C 8867   1.611   8.015   9.336 -0.1161 -0.0235  0.1478
  807MOL0     C 8868   1.564   8.132   9.389  0.4870  0.0769  0.7335
  807MOL0     O 8869   1.642   8.243   9.396  0.3239 -0.5399 -0.3191
  807MOL0     C 8870   1.747   8.265   9.298  1.4425 -0.5011 -1.8208
  807MOL0     C 8871   1.816   8.406   9.313  0.4849  0.5226 -0.4756
  807MOL0     C 8872   1.881   8.446   9.177 -0.2967  0.0396  0.2884
  807MOL0     C 8873   1.953   8.590   9.164  1.0457  0.5737 -0.8366
  807MOL0     C 8874   1.877   8.708   9.232 -0.2351  0.7513  0.8797
  807MOL0     C 8875   1.827   8.816   9.273 -0.7670  0.3024  0.1266
  807MOL0     C 8876   1.435   8.133   9.448 -1.0836  0.1683  0.1581
  807MOL0     C 8877   1.357   8.021   9.454  0.2081  0.2616  0.0406
  807MOL0     H 8878   1.232   7.512   9.502 -1.0184 -0.8513  3.3030
  807MOL0     H 8879   1.066   7.347   9.467  1.9982 -0.0353  1.0949
  807MOL0     H 8880   0.679   7.468   9.309  1.1274  1.4463  0.8241
  807MOL0     H 8881   0.787   7.361   9.231 -1.5274  1.0606 -0.3770
  807MOL0     H 8882   0.598   7.224   9.248 -1.1937  2.1511 -0.5057
  807MOL0     H 8883   0.691   7.175   9.389  0.3642  0.2113  0.0285
  807MOL0     H 8884   0.544   7.395   9.485 -1.4460 -1.5516  1.5346
  807MOL0     H 8885   0.434   7.295   9.374 -0.7579 -1.4192  1.0581
  807MOL0     H 8886   0.490   7.106   9.490  2.3536  0.1428 -0.1652
  807MOL0     H 8887   0.570   7.190   9.616 -2.0026  0.2565  2.2934
  807MOL0     H 8888   0.352   7.349   9.603 -1.9995  0.8143 -3.9559
  807MOL0     H 8889   0.291   7.209   9.521  1.1912  2.7372 -1.3721
  807MOL0     H 8890   0.328   7.062   9.717 -2.8668 -0.1065 -1.3074
  807MOL0     H 8891   0.409   7.199   9.802 -1.2722 -0.0221  0.2445
  807MOL0     H 8892   0.194   7.338   9.797 -1.8605  0.5716  0.0579
  807MOL0     H 8893   0.125   7.224   9.681  1.6547 -2.1802 -1.7894
  807MOL0     H 8894   0.196   7.176   9.967  0.4696  0.0675 -0.4728
  807MOL0     H 8895   0.144   7.043   9.869  0.0503 -0.9306 -1.0298
  807MOL0     H 8896  -0.020   7.059  10.095 -2.5208  2.6508  1.9551
  807MOL0     H 8897  -0.403   7.045  10.004  0.7880 -2.9936 -3.2209
  807MOL0     H 8898  -0.298   6.919  10.022 -1.7967  1.5701 -1.4449
  807MOL0     H 8899  -0.371   7.125  10.227 -0.1898 -0.1282 -0.1361
  807MOL0     H 8900  -0.209   7.039  10.234 -0.1270 -0.9030 -0.5373
  807MOL0     H 8901  -0.393   6.935  10.372  1.5993 -0.6560  0.2839
  807MOL0     H 8902  -0.326   6.819  10.256  3.2056  1.9573  0.3336
  807MOL0     H 8903  -0.506   6.869  10.100 -3.1088 -1.6861  0.4200
  807MOL0     H 8904  -0.572   6.984  10.206  0.5273 -0.7607 -1.1959
  807MOL0     H 8905  -0.830   6.646  10.307  3.8164  1.4005 -3.3762
  807MOL0     H 8906  -1.130   6.711  10.386  0.0558 -0.4305 -0.7418
  807MOL0     H 8907  -1.023   6.571  10.398 -0.4050  0.6178 -0.7244
  807MOL0     H 8908  -1.084   6.660  10.548  1.9534  2.0202  1.0389
  807MOL0     H 8909  -1.182   6.924  10.890 -0.1694  0.6036 -0.6700
  807MOL0     H 8910  -1.340   7.072  11.030 -0.1591  1.1724 -0.8955
  807MOL0     H 8911  -1.355   7.508  10.919  1.7428 -2.0689  0.5588
  807MOL0     H 8912  -1.492   7.442  10.833  1.7958 -1.4238 -0.5795
  807MOL0     H 8913  -1.563   7.609  10.991 -2.1404 -2.3118 -1.8278
  807MOL0     H 8914  -1.626   7.471  11.062 -1.6729  3.4681  0.8841
  807MOL0     H 8915  -1.400   7.448  11.202  0.1137  0.4104  1.2221
  807MOL0     H 8916  -1.519   7.558  11.253  1.8349  0.2241  1.6135
  807MOL0     H 8917  -1.321   7.693  11.074  0.5608 -1.8543 -0.7457
  807MOL0     H 8918  -1.432   7.743  11.206 -0.9693 -1.1999 -1.3344
  807MOL0     H 8919  -1.187   7.588  11.224  0.4356  2.8096 -0.8451
  807MOL0     H 8920  -1.306   7.597  11.357  1.9046 -2.4368 -0.3822
  807MOL0     H 8921  -1.149   7.808  11.241 -3.3459  0.9307 -1.2130
  807MOL0     H 8922  -1.274   7.857  11.350 -1.2040 -0.6036 -1.7848
  807MOL0     H 8923  -1.150   7.748  11.544 -0.7210 -1.2050 -0.6203
  807MOL0     H 8924  -1.054   7.867  11.470 -3.5617  1.6130  2.4168
  807MOL0     H 8925  -1.062   7.551  11.428 -3.1449  0.9483  0.7903
  807MOL0     H 8926  -0.947   7.640  11.519  2.0287 -0.7736 -1.4836
  807MOL0     H 8927  -1.282   7.394  10.754 -1.3461 -1.0401 -1.2528
  807MOL0     H 8928  -1.104   7.258  10.636  0.7405  2.3853  2.3845
  807MOL0     H 8929  -0.833   7.087  10.538 -0.6262 -1.0131  0.4314
  807MOL0     H 8930  -0.625   7.000  10.402  0.6113  1.1844  2.2683
  807MOL0     H 8931   0.761   7.637   9.443 -0.1082  0.2557 -4.6274
  807MOL0     H 8932   0.915   7.818   9.439  1.3821  1.8053  3.2054
  807MOL0     H 8933   1.570   7.806   9.303  0.1705 -0.1346 -1.1406
  807MOL0     H 8934   1.712   8.017   9.295 -0.6341  0.2840 -1.1613
  807MOL0     H 8935   1.819   8.185   9.316  2.7132  1.1048  0.6902
  807MOL0     H 8936   1.700   8.253   9.200 -0.7401 -0.6574 -0.7993
  807MOL0     H 8937   1.899   8.385   9.381  0.3540  1.4856  0.0005
  807MOL0     H 8938   1.750   8.482   9.356  0.9382  0.8324 -0.3225
  807MOL0     H 8939   1.794   8.440   9.111  0.3125 -0.7197 -0.4768
  807MOL0     H 8940   1.962   8.384   9.138  0.2955  0.5366  0.7025
  807MOL0     H 8941   1.987   8.617   9.064  1.1492  2.4180 -0.3480
  807MOL0     H 8942   2.049   8.573   9.214 -0.0073 -1.0945  0.7288
  807MOL0     H 8943   1.804   8.902   9.332 -2.6486 -1.6655  2.4931
  807MOL0     H 8944   1.411   8.229   9.493  2.5864  1.8962 -1.2035
  807MOL0     H 8945   1.255   8.033   9.491 -0.0287  0.7793 -0.7743
  808MOL0     O 8946   0.704   4.194   2.005 -0.2305  1.0750  0.1011
  808MOL0     C 8947   0.728   4.186   1.886 -0.9029  0.1860  0.2929
  808MOL0     O 8948   0.678   4.095   1.794 -1.1148  0.4220 -0.5622
  808MOL0     C 8949   0.610   3.974   1.811 -0.6144 -0.8901  0.1389
  808MOL0     C 8950   0.589   3.887   1.706 -0.9428  0.5053 -0.2548
  808MOL0     C 8951   0.527   3.759   1.730  0.4728  0.4306 -0.8888
  808MOL0     C 8952   0.493   3.717   1.861  0.3978 -0.8471  0.4204
  808MOL0     O 8953   0.452   3.592   1.890  0.1514 -0.0772  0.0987
  808MOL0     C 8954   0.407   3.513   1.779 -0.4982 -0.1225 -0.4576
  808MOL0     C 8955   0.369   3.378   1.836  0.7570  0.1573  0.7836
  808MOL0     C 8956   0.277   3.314   1.731 -0.6897 -0.7657 -0.0938
  808MOL0     C 8957   0.319   3.162   1.726 -0.1125  0.4689  0.8032
  808MOL0     C 8958   0.228   3.091   1.630 -0.4000  0.5189 -0.1402
  808MOL0     C 8959   0.088   3.058   1.693 -0.1243  0.7150  0.1103
  808MOL0     C 8960   0.005   2.961   1.606 -0.1006 -0.1593  0.4821
  808MOL0     C 8961  -0.129   2.934   1.680  0.2781  0.5784 -0.3183
  808MOL0     N 8962  -0.221   2.854   1.591  0.0236  0.3416  0.2852
  808MOL0     C 8963  -0.339   2.904   1.540 -0.0569  0.3045 -0.7304
  808MOL0     C 8964  -0.403   2.797   1.485 -0.2350 -0.4322 -0.5569
  808MOL0     C 8965  -0.540   2.813   1.418 -0.9162 -0.2173 -0.3762
  808MOL0     C 8966  -0.551   2.793   1.275  0.1087  0.0994  0.0305
  808MOL0     C 8967  -0.494   2.657   1.241  0.6848  0.3804 -0.0467
  808MOL0     C 8968  -0.512   2.598   1.106  0.5960 -0.8691 -0.2535
  808MOL0     O 8969  -0.435   2.674   1.007  0.6819  1.1283 -0.5019
  808MOL0     C 8970  -0.299   2.670   1.001 -0.6751 -0.1476 -0.2605
  808MOL0     C 8971  -0.219   2.558   1.035 -0.7311 -0.6935 -0.0305
  808MOL0     C 8972  -0.081   2.541   0.998  0.4818  0.3223 -0.2953
  808MOL0     C 8973  -0.027   2.408   1.036  0.4891 -0.4493 -0.1622
  808MOL0     C 8974  -0.029   2.643   0.912 -0.1318  1.0185 -0.2092
  808MOL0     C 8975   0.113   2.636   0.862 -0.8627  0.0889  0.3033
  808MOL0     O 8976   0.197   2.544   0.914 -0.9243 -1.1815  0.3121
  808MOL0     C 8977   0.332   2.540   0.900 -0.0576 -0.1726  0.3468
  808MOL0     C 8978   0.414   2.523   1.011  0.0092 -0.6050  0.9229
  808MOL0     C 8979   0.556   2.508   0.996  0.1268  0.1163  0.0677
  808MOL0     C 8980   0.621   2.501   0.864  0.5086 -0.2141 -0.4352
  808MOL0     O 8981   0.754   2.494   0.848 -1.1829  0.1221 -0.7389
  808MOL0     C 8982   0.813   2.354   0.858  0.4856  0.0852 -0.3475
  808MOL0     C 8983   0.965   2.358   0.832 -0.4144  0.7512  0.0886
  808MOL0     C 8984   1.031   2.402   0.959 -0.3804  0.3497 -0.5146
  808MOL0     C 8985   0.999   2.537   1.014  0.2007 -0.0176  0.9421
  808MOL0     C 8986   1.107   2.580   1.126  1.3929  0.1085  0.6453
  808MOL0     C 8987   1.075   2.729   1.138  0.2274 -0.9216 -0.8425
  808MOL0     C 8988   1.155   2.802   1.251 -0.2694  0.6773  0.1988
  808MOL0     C 8989   1.081   2.762   1.385 -0.1048 -0.3832 -0.1919
  808MOL0    Cl 8990   1.184   2.649   1.481  0.1431 -0.5573 -0.1580
  808MOL0     C 8991   0.537   2.525   0.753 -0.1590 -0.0427  0.5268
  808MOL0     C 8992   0.395   2.538   0.771 -0.1687  1.2373  0.4942
  808MOL0     O 8993   0.146   2.731   0.789 -0.5214  0.0182 -0.3560
  808MOL0     C 8994  -0.103   2.762   0.890 -0.2236  0.1017 -0.2685
  808MOL0     C 8995  -0.235   2.776   0.930 -0.1725  0.1225  0.6655
  808MOL0     N 8996  -0.321   2.689   1.506  0.1915  0.4310 -0.4651
  808MOL0     N 8997  -0.221   2.718   1.577 -0.6774  0.4926 -0.3546
  808MOL0     C 8998   0.505   3.819   1.963 -0.6053 -0.0276  0.7657
  808MOL0     C 8999   0.566   3.934   1.940 -1.1809 -0.1255  1.7131
  808MOL0     C 9000   0.816   4.278   1.824 -0.2619 -0.2200  0.8111
  808MOL0     C 9001   0.812   4.416   1.845  0.1853 -0.1281  0.5851
  808MOL0     C 9002   0.910   4.502   1.795 -0.4140  0.6027 -0.5307
  808MOL0     C 9003   1.004   4.442   1.720 -0.9438  0.2807  0.1058
  808MOL0     O 9004   1.103   4.532   1.680  0.4499  0.0480 -0.4719
  808MOL0     C 9005   1.222   4.481   1.630 -1.0225 -0.7369 -0.3376
  808MOL0     C 9006   1.328   4.590   1.613 -0.0279  0.6494  0.7509
  808MOL0     C 9007   1.305   4.685   1.502  0.4994  0.8301 -0.0388
  808MOL0     C 9008   1.409   4.784   1.482  0.0713  0.5187  0.2076
  808MOL0     C 9009   1.402   4.844   1.351  0.4616  0.1385  0.7780
  808MOL0     C 9010   1.351   4.899   1.259  0.6720  0.3346  0.8094
  808MOL0     C 9011   1.001   4.315   1.679 -0.3219  0.2177  0.1550
  808MOL0     C 9012   0.910   4.232   1.731  0.1442 -0.5026 -0.3427
  808MOL0     H 9013   0.625   3.926   1.611  1.9803  2.8545  1.6209
  808MOL0     H 9014   0.527   3.694   1.643 -1.1075 -0.5157 -0.2079
  808MOL0     H 9015   0.320   3.565   1.736 -0.8738  1.7577  2.3325
  808MOL0     H 9016   0.489   3.503   1.707  2.0167 -0.1970  2.2282
  808MOL0     H 9017   0.461   3.320   1.844  1.2772  0.9384  0.5398
  808MOL0     H 9018   0.322   3.384   1.935  0.7974 -0.0780  0.8179
  808MOL0     H 9019   0.175   3.319   1.768 -0.3242 -2.5202  1.2705
  808MOL0     H 9020   0.283   3.355   1.629  0.4093 -1.4279 -0.3172
  808MOL0     H 9021   0.423   3.158   1.693  0.6525 -1.0926  3.1804
  808MOL0     H 9022   0.311   3.116   1.825 -3.7387 -2.6048 -0.6295
  808MOL0     H 9023   0.214   3.143   1.534 -0.6685 -0.2809 -0.5463
  808MOL0     H 9024   0.269   2.991   1.609  0.7462  0.6185  1.4434
  808MOL0     H 9025   0.116   3.018   1.791  1.7852  0.8735 -0.3195
  808MOL0     H 9026   0.045   3.157   1.713  0.8206  0.8235  1.7425
  808MOL0     H 9027  -0.030   3.017   1.520  2.5638  1.4191  0.3267
  808MOL0     H 9028   0.066   2.874   1.577  1.1261  1.0287 -0.5984
  808MOL0     H 9029  -0.167   3.031   1.715  1.9894  0.3723  2.3781
  808MOL0     H 9030  -0.124   2.888   1.779  0.2180  3.3191  1.0731
  808MOL0     H 9031  -0.381   3.004   1.542 -0.3004  0.2798 -2.6879
  808MOL0     H 9032  -0.607   2.740   1.464  0.4380  0.8817  3.7782
  808MOL0     H 9033  -0.580   2.914   1.430 -0.4414  0.1206 -1.4328
  808MOL0     H 9034  -0.496   2.874   1.225  0.0792  0.9632  1.3331
  808MOL0     H 9035  -0.658   2.788   1.252  0.3860 -3.2045 -0.9958
  808MOL0     H 9036  -0.530   2.577   1.306  3.5187 -1.2726 -0.3450
  808MOL0     H 9037  -0.388   2.673   1.260 -0.0423  2.0322  3.7916
  808MOL0     H 9038  -0.615   2.606   1.071  0.9604 -0.5926 -1.3031
  808MOL0     H 9039  -0.492   2.491   1.113  1.5535 -0.6571  0.3554
  808MOL0     H 9040  -0.255   2.475   1.095 -1.0175  1.2649  2.6883
  808MOL0     H 9041  -0.110   2.338   1.047 -0.6434  0.6676 -1.2151
  808MOL0     H 9042   0.034   2.368   0.955  1.3504 -0.4030  0.4435
  808MOL0     H 9043   0.035   2.413   1.126  0.8830  0.1145 -0.4566
  808MOL0     H 9044   0.364   2.513   1.106 -1.9748 -4.4425 -0.3179
  808MOL0     H 9045   0.623   2.492   1.080 -1.0432 -1.4033  0.7652
  808MOL0     H 9046   0.789   2.315   0.958  0.3295  5.2631  1.9699
  808MOL0     H 9047   0.767   2.286   0.787 -0.6887  1.8815 -1.3826
  808MOL0     H 9048   0.998   2.255   0.817  1.3605  1.4467 -1.0955
  808MOL0     H 9049   0.996   2.417   0.745  0.4161 -1.2294 -1.0425
  808MOL0     H 9050   1.140   2.392   0.951 -0.2699  2.1272 -1.9115
  808MOL0     H 9051   1.000   2.333   1.038  1.2777  3.9915  3.7509
  808MOL0     H 9052   1.000   2.606   0.930  0.7490 -1.0641  0.0653
  808MOL0     H 9053   0.899   2.557   1.053  1.3805  0.1748  4.1557
  808MOL0     H 9054   1.214   2.561   1.115  1.2441 -0.6257  0.3908
  808MOL0     H 9055   1.084   2.525   1.219  1.1852  1.1932  1.2482
  808MOL0     H 9056   1.096   2.772   1.040 -1.4157 -0.1553 -0.9040
  808MOL0     H 9057   0.966   2.737   1.146  0.2761 -1.5236  0.7835
  808MOL0     H 9058   1.139   2.907   1.223  1.3353 -0.0807 -4.5059
  808MOL0     H 9059   1.263   2.782   1.254 -0.6456 -1.8773 -0.9498
  808MOL0     H 9060   0.982   2.723   1.361 -0.2383  0.6243 -1.3970
  808MOL0     H 9061   1.063   2.854   1.441  0.9353  0.9798 -1.9983
  808MOL0     H 9062   0.577   2.537   0.653 -0.0838 -0.1342  0.5451
  808MOL0     H 9063   0.328   2.552   0.686 -2.0092 -1.1962  1.4152
  808MOL0     H 9064  -0.059   2.844   0.835 -1.3345 -0.7770 -2.6522
  808MOL0     H 9065  -0.288   2.870   0.918 -0.8075 -0.5548 -2.7654
  808MOL0     H 9066   0.482   3.786   2.064 -0.7174 -2.1023  0.1197
  808MOL0     H 9067   0.580   4.000   2.025 -3.0284  1.0217  1.1864
  808MOL0     H 9068   0.742   4.458   1.916 -0.2993 -2.4640  1.5682
  808MOL0     H 9069   0.913   4.610   1.807  0.8674  0.5058  0.2545
  808MOL0     H 9070   1.257   4.420   1.714 -0.4645  1.4227  1.0686
  808MOL0     H 9071   1.219   4.412   1.545  1.9543  0.1658 -1.2914
  808MOL0     H 9072   1.423   4.541   1.588 -0.6786  0.2632 -1.1897
  808MOL0     H 9073   1.333   4.642   1.708 -2.6700  2.3114  0.0822
  808MOL0     H 9074   1.209   4.729   1.527 -0.3808 -2.7259  4.1970
  808MOL0     H 9075   1.300   4.633   1.406  0.8104 -0.1694  0.4689
  808MOL0     H 9076   1.506   4.735   1.494  0.0890 -0.3135 -2.4871
  808MOL0     H 9077   1.406   4.872   1.547 -2.4514  0.0038  0.8851
  808MOL0     H 9078   1.298   4.952   1.182  2.7304 -0.6646 -1.3919
  808MOL0     H 9079   1.064   4.268   1.604  2.2275 -0.1596  2.3542
  808MOL0     H 9080   0.904   4.131   1.693  1.2264 -0.6924 -0.0347
  809MOL0     O 9081   8.898   9.746   3.373  0.0729 -0.0885  1.1361
  809MOL0     C 9082   8.962   9.661   3.312  1.1517  1.0012  0.1733
  809MOL0     O 9083   9.045   9.565   3.368 -0.4613 -0.2529 -1.0757
  809MOL0     C 9084   9.080   9.591   3.497  0.1005 -0.2228 -0.3185
  809MOL0     C 9085   9.210   9.647   3.514  0.0003  1.3749 -0.2161
  809MOL0     C 9086   9.246   9.702   3.635 -0.3393  0.2901 -0.1561
  809MOL0     C 9087   9.155   9.695   3.743 -0.4385  0.2450  0.1385
  809MOL0     O 9088   9.205   9.734   3.864 -0.0177  0.4264 -0.2353
  809MOL0     C 9089   9.341   9.718   3.903  0.0044  0.2597  0.7445
  809MOL0     C 9090   9.358   9.708   4.058 -0.1792 -0.1979  0.2168
  809MOL0     C 9091   9.335   9.836   4.136 -0.3495  0.7466 -0.7900
  809MOL0     C 9092   9.448   9.939   4.129 -1.1471  0.1643  0.1335
  809MOL0     C 9093   9.394  10.076   4.167 -0.4958 -0.4705  0.0015
  809MOL0     C 9094   9.505  10.175   4.154 -0.9029  0.6382  0.9082
  809MOL0     C 9095   9.460  10.320   4.180 -0.5246  1.1279  1.2743
  809MOL0     C 9096   9.579  10.405   4.228  0.9585  0.6018 -0.0474
  809MOL0     N 9097   9.694  10.434   4.133  0.6535  0.5898  1.2890
  809MOL0     C 9098   9.677  10.520   4.025  0.9283  0.0570 -0.2232
  809MOL0     C 9099   9.794  10.514   3.961 -0.6830 -0.8363 -0.6086
  809MOL0     C 9100   9.826  10.592   3.840 -0.1587 -0.3465  0.6452
  809MOL0     C 9101   9.946  10.676   3.875 -0.1837  0.4064 -0.3021
  809MOL0     C 9102  10.015  10.716   3.743  0.2814 -0.7121  0.6878
  809MOL0     C 9103  10.142  10.816   3.763  0.0395 -0.0063  0.1486
  809MOL0     O 9104  10.095  10.950   3.790  0.8562 -0.2683 -0.1560
  809MOL0     C 9105  10.057  11.029   3.683  0.7647  0.3826  0.5948
  809MOL0     C 9106  10.063  10.995   3.542 -0.4597 -0.3314  0.0013
  809MOL0     C 9107  10.039  11.098   3.445 -0.2498 -0.0386  0.1074
  809MOL0     C 9108  10.025  11.048   3.304  0.1480  0.3266  0.5328
  809MOL0     C 9109  10.008  11.237   3.487  0.5213  0.0339 -0.8127
  809MOL0     C 9110   9.987  11.351   3.391 -1.0220  0.7223 -0.1444
  809MOL0     O 9111   9.864  11.382   3.353  0.2471 -0.2573 -0.0165
  809MOL0     C 9112   9.749  11.354   3.423 -0.1014 -0.0656 -0.0590
  809MOL0     C 9113   9.698  11.432   3.534  0.6925 -0.5303 -0.6017
  809MOL0     C 9114   9.571  11.400   3.591 -0.0344  1.4345 -0.5808
  809MOL0     C 9115   9.504  11.296   3.540  0.3960  0.7033  0.8016
  809MOL0     O 9116   9.369  11.279   3.586 -0.5615 -0.6200 -0.1565
  809MOL0     C 9117   9.273  11.206   3.504 -0.2894 -0.5584  0.6639
  809MOL0     C 9118   9.138  11.207   3.584 -0.0288 -0.8347  1.1773
  809MOL0     C 9119   9.041  11.116   3.489 -0.3971 -0.8664  0.1512
  809MOL0     C 9120   8.908  11.086   3.558 -1.0690 -0.1243 -0.0528
  809MOL0     C 9121   8.839  10.970   3.494  0.8256  0.8697  1.2369
  809MOL0     C 9122   8.922  10.841   3.492 -0.1281 -0.1381  0.3678
  809MOL0     C 9123   8.844  10.716   3.458 -0.7578  0.2261 -0.6709
  809MOL0     C 9124   8.828  10.615   3.572 -0.0536 -0.0218 -0.1906
  809MOL0    Cl 9125   8.753  10.461   3.528  0.3043  0.1205 -0.6967
  809MOL0     C 9126   9.555  11.219   3.436  0.6354 -0.0447  0.6170
  809MOL0     C 9127   9.674  11.252   3.376 -0.5454 -1.1746  0.3139
  809MOL0     O 9128  10.093  11.396   3.336  0.8463 -0.5026  0.1466
  809MOL0     C 9129  10.002  11.259   3.625  0.2177 -0.6451  0.4693
  809MOL0     C 9130  10.017  11.156   3.712 -0.0278  0.1993 -0.2877
  809MOL0     N 9131   9.869  10.425   4.035  0.6679  0.4578  0.4275
  809MOL0     N 9132   9.813  10.376   4.132 -1.0088  0.4343 -0.5148
  809MOL0     C 9133   9.033   9.632   3.729  0.6233 -0.5409  0.0278
  809MOL0     C 9134   8.994   9.578   3.604 -0.1657 -0.0987 -0.5809
  809MOL0     C 9135   8.956   9.673   3.159  0.1547  0.3418  0.4256
  809MOL0     C 9136   9.047   9.607   3.082 -0.6806  0.3160 -0.2601
  809MOL0     C 9137   9.057   9.638   2.946  0.4111 -0.7179 -0.1913
  809MOL0     C 9138   8.975   9.735   2.882  0.4741  0.2020 -0.1392
  809MOL0     O 9139   8.984   9.779   2.750  0.6927 -0.0623  0.1460
  809MOL0     C 9140   9.065   9.704   2.651  0.7656  0.8269  0.1957
  809MOL0     C 9141   8.993   9.576   2.594  0.6224 -0.3320  0.0189
  809MOL0     C 9142   8.868   9.623   2.521 -0.1558  0.2493  0.8861
  809MOL0     C 9143   8.770   9.506   2.499  1.0658  0.2258  0.1656
  809MOL0     C 9144   8.837   9.384   2.442  0.7528 -0.1957 -0.4108
  809MOL0     C 9145   8.895   9.280   2.418  0.2194  0.4396 -0.4096
  809MOL0     C 9146   8.867   9.782   2.960 -0.4073  0.3851  0.1179
  809MOL0     C 9147   8.866   9.760   3.101  0.5895  0.3480 -0.6087
  809MOL0     H 9148   9.280   9.635   3.432  0.4023  0.0860  0.2963
  809MOL0     H 9149   9.342   9.752   3.638 -0.4598  0.5144  0.0942
  809MOL0     H 9150   9.386   9.627   3.863 -0.8160  0.7062 -1.3255
  809MOL0     H 9151   9.403   9.795   3.857 -1.9051  1.7424  0.5418
  809MOL0     H 9152   9.288   9.643   4.110 -2.2382  2.7354  1.3654
  809MOL0     H 9153   9.462   9.679   4.078 -0.4214 -1.9456 -0.8643
  809MOL0     H 9154   9.240   9.880   4.106  0.3506  4.0194  1.2502
  809MOL0     H 9155   9.321   9.815   4.242  1.2494  1.9356 -0.3114
  809MOL0     H 9156   9.532   9.905   4.191  0.1809  1.5872 -0.8158
  809MOL0     H 9157   9.481   9.947   4.025 -1.6269  3.7991  0.1529
  809MOL0     H 9158   9.324  10.106   4.089 -0.8606  2.6528  1.3957
  809MOL0     H 9159   9.350  10.079   4.267  2.6027  0.8474  1.4602
  809MOL0     H 9160   9.593  10.137   4.205 -1.8175  1.9232  3.6017
  809MOL0     H 9161   9.539  10.187   4.050 -0.2866  2.5681  1.2999
  809MOL0     H 9162   9.430  10.356   4.081  2.6360  1.7763  0.4333
  809MOL0     H 9163   9.377  10.324   4.251 -0.7631  1.2885  0.9934
  809MOL0     H 9164   9.630  10.370   4.318  0.9878 -2.4161 -1.1345
  809MOL0     H 9165   9.527  10.500   4.246 -1.6456 -0.8807  0.8063
  809MOL0     H 9166   9.589  10.579   4.004  2.7011  2.0637 -2.5688
  809MOL0     H 9167   9.857  10.522   3.761 -4.5458 -0.1542 -1.5362
  809MOL0     H 9168   9.734  10.643   3.811 -1.5883 -1.9707  2.1104
  809MOL0     H 9169  10.028  10.611   3.909 -0.7031 -0.6720 -1.0353
  809MOL0     H 9170   9.916  10.756   3.943 -2.1683  1.1450 -1.9457
  809MOL0     H 9171   9.936  10.773   3.694  0.1018  1.1063  2.9203
  809MOL0     H 9172  10.042  10.627   3.684  0.5657 -1.8145  2.4054
  809MOL0     H 9173  10.210  10.812   3.678  3.4069  0.2153  2.6508
  809MOL0     H 9174  10.201  10.790   3.851 -1.5266 -2.0117  0.7061
  809MOL0     H 9175  10.086  10.894   3.510  2.2150 -0.3387  1.5819
  809MOL0     H 9176  10.038  11.128   3.230 -0.8038  2.5398  2.5956
  809MOL0     H 9177  10.089  10.966   3.271 -1.7939 -0.4167 -1.6568
  809MOL0     H 9178   9.925  11.010   3.280 -0.7237  0.4555  3.5918
  809MOL0     H 9179   9.735  11.526   3.573 -2.2147  0.5319 -0.1209
  809MOL0     H 9180   9.522  11.442   3.679 -3.0899 -2.4695 -0.1418
  809MOL0     H 9181   9.271  11.258   3.408 -0.0205  1.2665  1.6032
  809MOL0     H 9182   9.301  11.103   3.482 -6.0087 -2.6075  1.1708
  809MOL0     H 9183   9.152  11.160   3.682 -0.5766 -1.3351  1.0205
  809MOL0     H 9184   9.095  11.306   3.599  1.6091  0.3641 -1.3454
  809MOL0     H 9185   9.096  11.026   3.459  1.1443  0.1211 -0.1367
  809MOL0     H 9186   9.013  11.170   3.398 -1.0035 -1.2905  0.0863
  809MOL0     H 9187   8.940  11.074   3.662  1.8528  1.8648 -0.5842
  809MOL0     H 9188   8.845  11.174   3.545  0.2643  1.0307  0.9200
  809MOL0     H 9189   8.808  10.994   3.393 -1.2130 -1.1920  1.2908
  809MOL0     H 9190   8.749  10.955   3.555  0.7701  0.2640  1.0192
  809MOL0     H 9191   9.004  10.858   3.422 -1.3669 -0.4126 -1.2311
  809MOL0     H 9192   8.969  10.823   3.589  1.4098 -2.0278 -0.6532
  809MOL0     H 9193   8.920  10.666   3.396  0.2810 -1.5917  1.8859
  809MOL0     H 9194   8.749  10.737   3.409 -0.7904  0.3251 -0.5659
  809MOL0     H 9195   8.755  10.665   3.637 -3.1851 -2.9171 -1.2144
  809MOL0     H 9196   8.928  10.613   3.617  1.3259  3.6513 -2.5972
  809MOL0     H 9197   9.510  11.130   3.392 -0.3932  0.8064 -0.0949
  809MOL0     H 9198   9.713  11.196   3.291 -0.3394 -0.3373 -0.1557
  809MOL0     H 9199   9.977  11.354   3.673 -1.3077 -0.0674 -1.3682
  809MOL0     H 9200  10.006  11.180   3.817 -2.4875  2.7218 -0.9780
  809MOL0     H 9201   8.972   9.617   3.818 -1.4852  0.6014 -1.1645
  809MOL0     H 9202   8.889   9.555   3.592  0.2676 -1.2406 -2.7609
  809MOL0     H 9203   9.110   9.528   3.122 -1.4232  0.4938  1.3417
  809MOL0     H 9204   9.136   9.605   2.879  3.6957  2.7609  1.5324
  809MOL0     H 9205   9.095   9.767   2.567  1.5037  2.1055  1.3844
  809MOL0     H 9206   9.158   9.675   2.701 -0.1487 -0.1704  1.4052
  809MOL0     H 9207   8.966   9.511   2.677  1.5234 -1.0602 -0.2530
  809MOL0     H 9208   9.062   9.531   2.523  1.5381  1.2017 -0.1137
  809MOL0     H 9209   8.905   9.668   2.429  1.7937 -0.4022  1.3043
  809MOL0     H 9210   8.817   9.699   2.581 -0.8169 -1.0439  2.0354
  809MOL0     H 9211   8.691   9.537   2.430 -1.0895 -2.1038  1.4513
  809MOL0     H 9212   8.731   9.481   2.598 -0.9749 -1.3439 -0.9610
  809MOL0     H 9213   8.968   9.206   2.394 -0.9238  0.1309 -3.3557
  809MOL0     H 9214   8.798   9.849   2.909 -1.5066 -0.0612  0.9826
  809MOL0     H 9215   8.792   9.810   3.163  0.5706 -1.0006  0.4938
  810MOL0     O 9216   8.511   7.933   5.457  1.0386 -0.2165  0.1405
  810MOL0     C 9217   8.548   8.010   5.371 -0.0787  0.1625  1.0337
  810MOL0     O 9218   8.467   8.064   5.277  0.6785  0.3932 -0.1070
  810MOL0     C 9219   8.339   8.024   5.280 -0.8538 -0.0362  0.7888
  810MOL0     C 9220   8.295   7.972   5.162  0.7977  0.7018  0.6705
  810MOL0     C 9221   8.163   7.948   5.148 -0.5822  0.1296 -0.2044
  810MOL0     C 9222   8.071   7.966   5.258 -0.2586  0.5832 -0.2303
  810MOL0     O 9223   7.943   7.934   5.229 -0.6442 -0.1397  0.7038
  810MOL0     C 9224   7.873   7.914   5.352  0.5136  0.5391  0.1401
  810MOL0     C 9225   7.762   7.814   5.318  1.0123  0.3867 -0.2548
  810MOL0     C 9226   7.668   7.779   5.441  0.4335 -0.3037  0.6241
  810MOL0     C 9227   7.626   7.893   5.528 -0.2265 -0.0792  0.8114
  810MOL0     C 9228   7.553   7.849   5.658  0.6198  0.4195  0.0934
  810MOL0     C 9229   7.524   7.960   5.766  0.3876 -0.3532 -0.4049
  810MOL0     C 9230   7.502   7.899   5.902  0.2581  0.6020 -0.1374
  810MOL0     C 9231   7.395   7.977   5.986  0.4134  0.1630  1.0159
  810MOL0     N 9232   7.439   8.107   6.024  0.1202  0.1026  0.0075
  810MOL0     C 9233   7.542   8.138   6.107 -0.4629 -0.5123 -0.2548
  810MOL0     C 9234   7.527   8.275   6.134  0.1810  0.1266  0.8333
  810MOL0     C 9235   7.608   8.363   6.225  0.7285 -0.4107 -0.9111
  810MOL0     C 9236   7.556   8.331   6.364  0.0629  0.3574 -0.2357
  810MOL0     C 9237   7.633   8.409   6.479 -0.1557  0.6568 -0.1982
  810MOL0     C 9238   7.543   8.427   6.594 -0.0544  0.2298 -0.1815
  810MOL0     O 9239   7.526   8.293   6.654 -0.7726 -0.4651  0.6892
  810MOL0     C 9240   7.416   8.268   6.729  0.2950 -0.6670 -0.6747
  810MOL0     C 9241   7.356   8.378   6.800 -0.8832  0.8998 -0.2440
  810MOL0     C 9242   7.246   8.369   6.888 -0.4713  0.2470  1.0363
  810MOL0     C 9243   7.209   8.499   6.953  0.5498  0.2565 -0.4294
  810MOL0     C 9244   7.179   8.244   6.903 -0.3740 -0.9035 -0.2636
  810MOL0     C 9245   7.072   8.215   6.994 -1.5091  0.3228 -0.5113
  810MOL0     O 9246   7.078   8.089   7.057  0.1970  0.6818 -0.1532
  810MOL0     C 9247   6.981   8.056   7.151  0.6856 -0.2396 -0.0259
  810MOL0     C 9248   6.920   8.140   7.243 -0.0786 -0.1904 -0.7880
  810MOL0     C 9249   6.795   8.103   7.295  0.3711 -1.0726  0.5094
  810MOL0     C 9250   6.723   7.989   7.251 -0.4572  0.5258  0.2175
  810MOL0     O 9251   6.601   7.972   7.288 -0.3840 -0.0949 -0.3458
  810MOL0     C 9252   6.536   7.843   7.304 -0.4028 -0.6478  0.4405
  810MOL0     C 9253   6.426   7.873   7.400 -0.6043  0.1756 -0.6574
  810MOL0     C 9254   6.351   7.748   7.430  0.4411  0.2376 -0.4005
  810MOL0     C 9255   6.292   7.756   7.573 -0.1631  0.6221  0.3159
  810MOL0     C 9256   6.162   7.829   7.600 -0.3149 -0.6632  0.0870
  810MOL0     C 9257   6.128   7.859   7.744 -0.1950 -0.8346  0.5632
  810MOL0     C 9258   6.027   7.968   7.760  0.0800 -0.8580 -0.4568
  810MOL0     C 9259   5.982   7.969   7.908 -0.7875 -1.1233  0.3461
  810MOL0    Cl 9260   6.130   7.999   8.005  0.4474  0.1173 -0.2458
  810MOL0     C 9261   6.790   7.892   7.173  0.7180 -0.9021  0.1426
  810MOL0     C 9262   6.925   7.924   7.128  0.4660 -0.7021  0.8655
  810MOL0     O 9263   6.973   8.284   6.986 -0.5476  0.7518  0.3957
  810MOL0     C 9264   7.232   8.130   6.834  0.5305  0.1729  0.2469
  810MOL0     C 9265   7.350   8.135   6.751 -0.1902  0.6446  0.5729
  810MOL0     N 9266   7.417   8.317   6.052 -0.1762  0.2417 -0.1166
  810MOL0     N 9267   7.358   8.214   5.997  0.3274  0.1375 -0.6405
  810MOL0     C 9268   8.113   8.024   5.372 -0.2184  0.1519  0.1526
  810MOL0     C 9269   8.253   8.054   5.380  0.3678  0.3355 -1.1883
  810MOL0     C 9270   8.682   8.070   5.381 -0.4767 -0.8291 -0.4952
  810MOL0     C 9271   8.743   8.127   5.262 -0.0868  0.5618  0.2303
  810MOL0     C 9272   8.871   8.182   5.273  0.2368  0.1897  0.4609
  810MOL0     C 9273   8.951   8.172   5.382 -0.2387 -0.1473  0.1635
  810MOL0     O 9274   9.065   8.247   5.390  0.3073 -0.2294 -0.6186
  810MOL0     C 9275   9.168   8.174   5.459 -0.9581 -1.3024 -0.1781
  810MOL0     C 9276   9.308   8.223   5.431 -0.0026  0.1850 -0.6303
  810MOL0     C 9277   9.329   8.360   5.497 -0.2807  0.3817  0.5034
  810MOL0     C 9278   9.401   8.461   5.411  0.4796  0.0533  0.2710
  810MOL0     C 9279   9.529   8.430   5.352  0.0835 -0.4043 -0.1021
  810MOL0     C 9280   9.636   8.403   5.296  0.9774  0.0977  0.8852
  810MOL0     C 9281   8.889   8.113   5.497 -0.3161 -0.1997  0.4815
  810MOL0     C 9282   8.761   8.063   5.494 -0.3377 -1.1870  0.3538
  810MOL0     H 9283   8.365   7.964   5.080 -1.6093  2.5552 -1.7715
  810MOL0     H 9284   8.123   7.905   5.057  1.2413 -0.1494 -0.9195
  810MOL0     H 9285   7.937   7.863   5.424  1.6731  0.1019 -1.1649
  810MOL0     H 9286   7.831   8.008   5.390 -1.4532 -0.3540  0.2929
  810MOL0     H 9287   7.707   7.856   5.234  2.5712  1.3374 -0.8366
  810MOL0     H 9288   7.801   7.715   5.291 -1.3951 -0.7796  0.2614
  810MOL0     H 9289   7.573   7.736   5.408 -0.2204  1.7031 -0.2561
  810MOL0     H 9290   7.712   7.705   5.508  0.8778 -0.7042 -0.1088
  810MOL0     H 9291   7.714   7.952   5.555 -1.0215  2.8680 -2.3361
  810MOL0     H 9292   7.556   7.945   5.461  0.3119  0.7969  0.9183
  810MOL0     H 9293   7.458   7.801   5.634  0.7715 -0.5258  1.3294
  810MOL0     H 9294   7.612   7.770   5.705  0.4311  0.7464  0.8942
  810MOL0     H 9295   7.598   8.040   5.770  2.0304 -1.8811  2.2743
  810MOL0     H 9296   7.436   8.013   5.728  2.6727  3.7896 -0.5157
  810MOL0     H 9297   7.470   7.795   5.888  1.9958  0.4277 -4.1717
  810MOL0     H 9298   7.595   7.900   5.960 -0.3236  3.0450  0.8552
  810MOL0     H 9299   7.363   7.915   6.070  0.4161 -0.6645  0.4210
  810MOL0     H 9300   7.302   7.996   5.931  1.1789 -0.2433 -0.4727
  810MOL0     H 9301   7.607   8.058   6.141 -0.4662 -0.6606 -0.5922
  810MOL0     H 9302   7.712   8.341   6.201  1.1247  2.8532 -2.7542
  810MOL0     H 9303   7.584   8.466   6.198  0.7151 -0.2102 -0.1559
  810MOL0     H 9304   7.582   8.226   6.380 -1.2653 -0.2595 -1.8979
  810MOL0     H 9305   7.450   8.360   6.361  0.6685  3.0115  0.8347
  810MOL0     H 9306   7.687   8.502   6.461 -1.3296  2.3411  3.8480
  810MOL0     H 9307   7.709   8.342   6.520 -2.0816 -1.3489  0.3132
  810MOL0     H 9308   7.444   8.458   6.559 -0.9925 -1.5542  0.7349
  810MOL0     H 9309   7.579   8.501   6.666 -2.9006  1.5281  0.0204
  810MOL0     H 9310   7.407   8.474   6.793 -2.3304  1.6690 -0.6856
  810MOL0     H 9311   7.207   8.586   6.887  1.0548 -0.1215 -0.9553
  810MOL0     H 9312   7.117   8.499   7.012  2.8416  1.1656  3.4821
  810MOL0     H 9313   7.278   8.520   7.034 -2.2523  3.4712  1.3904
  810MOL0     H 9314   6.961   8.237   7.271  0.6780 -0.5989 -0.4491
  810MOL0     H 9315   6.751   8.172   7.366  0.4882  1.1785 -1.4662
  810MOL0     H 9316   6.503   7.804   7.207  0.1652  1.3389 -0.6112
  810MOL0     H 9317   6.610   7.778   7.350 -0.1152 -1.5857 -1.2768
  810MOL0     H 9318   6.475   7.918   7.487  0.9202 -3.9349  0.8469
  810MOL0     H 9319   6.349   7.937   7.357 -0.4490  0.3765 -0.6370
  810MOL0     H 9320   6.415   7.661   7.413  2.6734  1.9360 -1.1904
  810MOL0     H 9321   6.266   7.744   7.362  0.6923 -4.8171 -0.7863
  810MOL0     H 9322   6.278   7.658   7.619  1.4605  1.5891  3.0828
  810MOL0     H 9323   6.367   7.809   7.632 -0.1097 -0.2696  1.0757
  810MOL0     H 9324   6.084   7.761   7.561 -2.3747  2.4893 -1.7276
  810MOL0     H 9325   6.156   7.922   7.543 -3.0129 -1.5324 -1.2391
  810MOL0     H 9326   6.089   7.767   7.788  0.2525 -1.1550  0.2927
  810MOL0     H 9327   6.221   7.885   7.796  1.4140  0.4810 -2.6768
  810MOL0     H 9328   5.938   7.933   7.708 -0.9979  0.4588  0.4315
  810MOL0     H 9329   6.057   8.065   7.720 -2.2404 -0.3542 -1.1021
  810MOL0     H 9330   5.937   7.873   7.932  2.9370 -2.7260  1.5644
  810MOL0     H 9331   5.915   8.054   7.926 -2.5538 -2.0067 -1.6366
  810MOL0     H 9332   6.740   7.802   7.138 -0.7838  0.2477 -0.7734
  810MOL0     H 9333   6.971   7.844   7.071  0.1723 -0.8205  0.7938
  810MOL0     H 9334   7.192   8.031   6.854  0.0793  0.0585 -1.1043
  810MOL0     H 9335   7.400   8.050   6.705  0.7139  1.9788 -1.0208
  810MOL0     H 9336   8.055   8.056   5.458  0.6868 -0.3201  0.9534
  810MOL0     H 9337   8.293   8.091   5.474  0.2177 -0.6654 -0.7099
  810MOL0     H 9338   8.685   8.141   5.172  0.9666  0.1836 -0.5262
  810MOL0     H 9339   8.901   8.233   5.182 -0.2735 -2.0500 -1.0357
  810MOL0     H 9340   9.143   8.188   5.565 -0.6715 -1.6396 -0.0603
  810MOL0     H 9341   9.171   8.069   5.426  0.0384 -1.1132 -0.7446
  810MOL0     H 9342   9.325   8.213   5.323  1.7032 -0.0550 -0.3696
  810MOL0     H 9343   9.384   8.157   5.474 -1.4040 -1.9845 -1.3219
  810MOL0     H 9344   9.390   8.340   5.586 -0.0237  1.3643  0.5512
  810MOL0     H 9345   9.231   8.399   5.525 -0.2313 -0.5400  2.1307
  810MOL0     H 9346   9.410   8.553   5.468  0.3238 -2.3461  4.5967
  810MOL0     H 9347   9.341   8.467   5.319  1.5514  0.5891 -0.4090
  810MOL0     H 9348   9.733   8.379   5.257  0.9211 -1.6260  1.6978
  810MOL0     H 9349   8.948   8.109   5.588  0.6830  0.7385 -0.0890
  810MOL0     H 9350   8.730   8.018   5.587  0.1741 -3.5268 -0.5522
  811MOL0     O 9351   9.778   4.331  10.983 -0.3807  0.3800 -0.3498
  811MOL0     C 9352   9.683   4.403  10.942  0.2996 -0.2383  0.4578
  811MOL0     O 9353   9.585   4.374  10.861  0.0932 -0.3997 -0.2222
  811MOL0     C 9354   9.561   4.251  10.817 -0.9965  0.0574 -0.4524
  811MOL0     C 9355   9.664   4.168  10.767  0.9167  0.0336 -0.9037
  811MOL0     C 9356   9.628   4.043  10.715 -1.5746 -0.1039  0.2040
  811MOL0     C 9357   9.500   3.993  10.696  0.5448  0.4599  1.4407
  811MOL0     O 9358   9.494   3.873  10.627 -0.3168  0.5567 -0.0878
  811MOL0     C 9359   9.422   3.773  10.705  0.0910  0.2448 -0.0412
  811MOL0     C 9360   9.407   3.644  10.623 -0.0173  0.8039 -0.1376
  811MOL0     C 9361   9.365   3.525  10.711  0.7920 -0.3209 -0.2350
  811MOL0     C 9362   9.369   3.546  10.860 -0.2098 -0.1098  0.2277
  811MOL0     C 9363   9.336   3.405  10.933  0.9083 -0.1970 -0.4937
  811MOL0     C 9364   9.349   3.407  11.090  0.7211  0.3849  0.7100
  811MOL0     C 9365   9.500   3.416  11.127  0.8089  0.3824  0.0980
  811MOL0     C 9366   9.533   3.368  11.267 -0.0496 -0.0086  0.6952
  811MOL0     N 9367   9.670   3.338  11.297 -0.5285 -0.4501 -0.1070
  811MOL0     C 9368   9.781   3.419  11.276 -0.4493 -0.3711  0.1451
  811MOL0     C 9369   9.887   3.365  11.350 -0.1172  0.7103 -0.1010
  811MOL0     C 9370  10.036   3.400  11.378 -1.1231  0.6685  0.2338
  811MOL0     C 9371  10.048   3.557  11.400  0.2337  0.2131 -0.7351
  811MOL0     C 9372  10.142   3.621  11.304 -0.1591  0.2757 -0.8373
  811MOL0     C 9373  10.156   3.771  11.336 -0.1656 -0.7879 -0.0884
  811MOL0     O 9374  10.246   3.841  11.249  0.0644 -0.3020 -0.1049
  811MOL0     C 9375  10.365   3.874  11.309 -0.1813 -1.0371 -0.5604
  811MOL0     C 9376  10.381   4.001  11.369  0.4389  0.5038  0.3645
  811MOL0     C 9377  10.492   4.034  11.440 -0.3183  0.0952 -0.1276
  811MOL0     C 9378  10.499   4.174  11.504  0.3017  0.2918 -0.6152
  811MOL0     C 9379  10.596   3.931  11.448 -0.9122 -0.6230  0.3887
  811MOL0     C 9380  10.736   3.957  11.512 -0.0709 -0.0390  2.0038
  811MOL0     O 9381  10.814   3.852  11.542  0.1273  0.3951  0.0250
  811MOL0     C 9382  10.917   3.853  11.630  0.0971  0.2719  0.4696
  811MOL0     C 9383  10.994   3.743  11.624 -0.9634 -0.4418 -0.0454
  811MOL0     C 9384  11.102   3.717  11.706 -0.0724  0.1777  0.2515
  811MOL0     C 9385  11.115   3.808  11.815  0.4460 -0.0165 -0.8908
  811MOL0     O 9386  11.181   3.767  11.928  0.2114  0.4951 -0.4350
  811MOL0     C 9387  11.151   3.636  11.972 -0.5692 -0.5900 -0.9229
  811MOL0     C 9388  11.245   3.602  12.080  0.0814  0.2445  0.4219
  811MOL0     C 9389  11.215   3.484  12.159 -0.3041 -1.1628 -0.9156
  811MOL0     C 9390  11.243   3.365  12.074 -0.2639  0.2502  0.0642
  811MOL0     C 9391  11.190   3.235  12.147 -0.0551  0.0107 -0.2178
  811MOL0     C 9392  11.240   3.105  12.069  0.1777 -0.0997  0.0112
  811MOL0     C 9393  11.240   2.976  12.165  0.1412 -0.2904 -0.0187
  811MOL0     C 9394  11.294   2.850  12.086 -1.4125 -0.5417  0.5229
  811MOL0    Cl 9395  11.461   2.806  12.115 -0.5112 -0.4007 -0.4494
  811MOL0     C 9396  11.046   3.935  11.820  0.8092 -0.4958 -0.1651
  811MOL0     C 9397  10.944   3.957  11.730  0.4808  0.4134  0.8766
  811MOL0     O 9398  10.774   4.066  11.511 -0.3491 -0.2522 -0.0829
  811MOL0     C 9399  10.585   3.813  11.369  0.0459  0.4848  0.3719
  811MOL0     C 9400  10.473   3.781  11.297  0.7655 -0.6251  0.4129
  811MOL0     N 9401   9.838   3.249  11.402 -0.3770  0.5732  0.6268
  811MOL0     N 9402   9.708   3.228  11.371 -0.4179  0.2314 -0.0408
  811MOL0     C 9403   9.393   4.075  10.752 -0.6471  0.6414 -0.0616
  811MOL0     C 9404   9.425   4.203  10.807 -0.1992 -0.2102  0.3032
  811MOL0     C 9405   9.675   4.539  11.005  0.4978  0.2137  0.3613
  811MOL0     C 9406   9.773   4.587  11.096  0.5362  0.1572 -1.0439
  811MOL0     C 9407   9.753   4.707  11.160  1.0400  0.8095  1.2259
  811MOL0     C 9408   9.639   4.789  11.133 -0.2630  0.4504 -0.3573
  811MOL0     O 9409   9.646   4.904  11.207 -0.7922 -0.5679  0.6783
  811MOL0     C 9410   9.553   5.011  11.174  0.2206 -0.6637 -0.0610
  811MOL0     C 9411   9.595   5.140  11.256  0.2677  1.0985  0.0002
  811MOL0     C 9412   9.515   5.264  11.217  0.3313 -0.0857 -0.1383
  811MOL0     C 9413   9.371   5.247  11.273 -0.1799 -0.7701 -0.1897
  811MOL0     C 9414   9.295   5.371  11.258 -0.6722  0.9523  0.2622
  811MOL0     C 9415   9.229   5.477  11.260  0.2663  0.2903 -0.3690
  811MOL0     C 9416   9.544   4.751  11.036  0.9111 -0.4225  0.8882
  811MOL0     C 9417   9.558   4.620  10.973  0.2165  0.4940  0.2220
  811MOL0     H 9418   9.770   4.188  10.769  1.2970 -1.8031  0.8381
  811MOL0     H 9419   9.712   3.981  10.684  0.0101  2.6055 -1.3351
  811MOL0     H 9420   9.475   3.770  10.801  2.6969  3.7110 -1.1475
  811MOL0     H 9421   9.318   3.803  10.718  0.6508  1.8949  1.0973
  811MOL0     H 9422   9.330   3.656  10.547  0.6903 -1.6138 -1.3530
  811MOL0     H 9423   9.505   3.614  10.584 -0.0122  0.8507 -0.1598
  811MOL0     H 9424   9.262   3.499  10.687  0.8549 -1.4539  0.6214
  811MOL0     H 9425   9.427   3.437  10.692 -0.7994 -1.7955  1.1210
  811MOL0     H 9426   9.465   3.578  10.901  0.4111 -2.1893  0.4981
  811MOL0     H 9427   9.299   3.626  10.886 -1.4880 -0.4144 -1.9830
  811MOL0     H 9428   9.228   3.387  10.931  0.4589  0.9903  3.7220
  811MOL0     H 9429   9.382   3.318  10.886 -1.7368 -3.3791  2.2502
  811MOL0     H 9430   9.281   3.481  11.132  1.5032  0.8092  1.2566
  811MOL0     H 9431   9.309   3.315  11.134  0.7228  0.6504  1.2820
  811MOL0     H 9432   9.557   3.351  11.060 -0.6303  1.7456 -2.6255
  811MOL0     H 9433   9.540   3.517  11.116  1.0123  0.1465 -1.5567
  811MOL0     H 9434   9.470   3.280  11.287 -0.8660 -0.1438 -2.0431
  811MOL0     H 9435   9.511   3.451  11.334  2.3611  0.8478  0.5191
  811MOL0     H 9436   9.778   3.516  11.226  0.7513 -0.9267 -1.0945
  811MOL0     H 9437  10.073   3.350  11.468 -0.7964  3.0404  1.5088
  811MOL0     H 9438  10.107   3.373  11.300  1.5424 -1.6458  3.2186
  811MOL0     H 9439  10.085   3.580  11.500  0.9018  0.2562 -0.9888
  811MOL0     H 9440   9.948   3.602  11.401  0.6460  1.2196  1.8024
  811MOL0     H 9441  10.101   3.626  11.203  0.1719  1.2828 -0.9322
  811MOL0     H 9442  10.239   3.569  11.295 -2.0452 -3.4365 -1.7696
  811MOL0     H 9443  10.161   3.794  11.443 -0.9146 -0.5443 -0.1051
  811MOL0     H 9444  10.063   3.823  11.313 -0.3863 -0.4184  1.4956
  811MOL0     H 9445  10.301   4.068  11.341  2.0097  1.5529 -1.8466
  811MOL0     H 9446  10.552   4.164  11.600  1.9577  0.0807 -1.5200
  811MOL0     H 9447  10.551   4.243  11.437  1.2589  3.0203  2.6459
  811MOL0     H 9448  10.397   4.212  11.515  1.9020  4.7839  0.8751
  811MOL0     H 9449  10.961   3.685  11.538  0.3831 -1.2905 -0.0039
  811MOL0     H 9450  11.162   3.627  11.702 -2.9226 -2.0244  2.9114
  811MOL0     H 9451  11.045   3.628  12.000 -0.6013 -0.6958 -1.0735
  811MOL0     H 9452  11.163   3.556  11.899 -0.4933  0.3499 -1.9672
  811MOL0     H 9453  11.343   3.597  12.031  0.0068  1.4355  0.1119
  811MOL0     H 9454  11.246   3.690  12.145  2.2584  0.7437 -0.1970
  811MOL0     H 9455  11.107   3.489  12.176 -0.1740  1.7642 -0.5693
  811MOL0     H 9456  11.279   3.500  12.246 -0.2712 -1.4213 -0.8907
  811MOL0     H 9457  11.198   3.363  11.975  4.1666 -2.0507 -2.2085
  811MOL0     H 9458  11.351   3.371  12.059 -0.5945  2.0746 -2.0600
  811MOL0     H 9459  11.081   3.230  12.155  0.0626  0.2210  3.2444
  811MOL0     H 9460  11.219   3.228  12.253  1.4182  2.0060 -0.4424
  811MOL0     H 9461  11.173   3.091  11.983  3.6042 -2.5233 -2.5827
  811MOL0     H 9462  11.339   3.108  12.023 -0.3606  0.4697 -1.1514
  811MOL0     H 9463  11.133   2.970  12.187 -0.0672  3.0284  0.2589
  811MOL0     H 9464  11.273   2.986  12.269  1.8527 -1.1866 -0.4292
  811MOL0     H 9465  11.290   2.857  11.977  1.0227  0.7795  0.4559
  811MOL0     H 9466  11.248   2.759  12.127  2.4775 -2.3918  1.2444
  811MOL0     H 9467  11.059   3.998  11.908 -0.5781 -1.4686  0.7873
  811MOL0     H 9468  10.887   4.048  11.742  3.3051  2.8095 -2.0434
  811MOL0     H 9469  10.672   3.748  11.373 -0.9636 -1.1478 -2.0051
  811MOL0     H 9470  10.454   3.693  11.238  2.7480 -1.6066  1.1700
  811MOL0     H 9471   9.289   4.047  10.738 -2.0750  4.8379  0.4584
  811MOL0     H 9472   9.343   4.267  10.837  0.3119 -0.6820  2.9560
  811MOL0     H 9473   9.861   4.530  11.124  1.1380  1.7638  0.4887
  811MOL0     H 9474   9.831   4.748  11.222  2.8353  1.9352 -1.5747
  811MOL0     H 9475   9.553   5.035  11.068 -2.6750 -1.8264 -0.4009
  811MOL0     H 9476   9.447   4.992  11.194  0.0859  2.7150  3.8579
  811MOL0     H 9477   9.700   5.159  11.234  0.5143 -0.2298 -0.0619
  811MOL0     H 9478   9.591   5.116  11.363 -0.4275  1.3124  0.0281
  811MOL0     H 9479   9.506   5.262  11.108  0.6713  0.1209 -0.1718
  811MOL0     H 9480   9.555   5.358  11.255 -1.4011  0.3958  0.6098
  811MOL0     H 9481   9.364   5.215  11.377  2.2326 -2.8008 -0.5865
  811MOL0     H 9482   9.331   5.172  11.204 -1.3166  0.5283 -1.0201
  811MOL0     H 9483   9.172   5.565  11.239  0.1403  0.7303  1.6328
  811MOL0     H 9484   9.467   4.815  10.993  3.4982  0.7997 -2.4686
  811MOL0     H 9485   9.496   4.611  10.884 -0.8215  1.1526  0.8578
  812MOL0     O 9486   0.177  10.612  11.455 -0.9902  0.1196  0.2799
  812MOL0     C 9487   0.286  10.660  11.419  0.1568 -0.7903 -0.4363
  812MOL0     O 9488   0.302  10.720  11.299  0.9811 -0.3951  0.2526
  812MOL0     C 9489   0.209  10.714  11.206  0.6072  0.7011  1.0915
  812MOL0     C 9490   0.226  10.628  11.091  0.9358  0.3902 -0.8533
  812MOL0     C 9491   0.115  10.585  11.015 -0.4849  0.1330  0.1699
  812MOL0     C 9492  -0.011  10.646  11.023  0.1330  0.0958  0.4065
  812MOL0     O 9493  -0.125  10.621  10.938  0.7451  0.0179  0.8177
  812MOL0     C 9494  -0.112  10.539  10.816 -0.5193 -0.4284  0.4083
  812MOL0     C 9495  -0.031  10.597  10.699  0.6730 -0.0099 -0.5527
  812MOL0     C 9496  -0.123  10.678  10.606  0.7484  0.8451 -0.1546
  812MOL0     C 9497  -0.184  10.810  10.664  0.1283  0.3061  0.3334
  812MOL0     C 9498  -0.291  10.859  10.561 -0.1625 -0.5861  1.0470
  812MOL0     C 9499  -0.225  10.945  10.445  0.1852 -0.1974  0.2917
  812MOL0     C 9500  -0.339  11.018  10.365 -0.6043  0.4330  0.2479
  812MOL0     C 9501  -0.414  10.914  10.267 -0.2543 -0.0677  0.3087
  812MOL0     N 9502  -0.348  10.914  10.133  0.3581 -0.2234 -0.6810
  812MOL0     C 9503  -0.237  10.838  10.087 -0.4239  0.2695  0.1944
  812MOL0     C 9504  -0.214  10.887   9.965 -0.6492 -0.9495 -0.1712
  812MOL0     C 9505  -0.120  10.828   9.866  0.1482 -0.5699 -0.7342
  812MOL0     C 9506   0.038  10.846   9.893 -0.3605 -0.2198  0.5728
  812MOL0     C 9507   0.124  10.750   9.807  0.5488 -1.2791 -1.8757
  812MOL0     C 9508   0.127  10.808   9.661 -0.0680  0.4807  0.1985
  812MOL0     O 9509   0.158  10.951   9.654 -0.1568 -0.3853  0.5714
  812MOL0     C 9510   0.283  10.986   9.611 -0.1367  0.8381 -0.4822
  812MOL0     C 9511   0.282  11.082   9.514  0.2200  0.7960  0.0792
  812MOL0     C 9512   0.401  11.117   9.456 -0.8531  0.1603 -0.1207
  812MOL0     C 9513   0.409  11.216   9.344  0.8026 -0.2740  0.4189
  812MOL0     C 9514   0.525  11.062   9.504  0.2333  0.2975  1.0452
  812MOL0     C 9515   0.657  11.095   9.449 -0.0616 -0.5179  0.9117
  812MOL0     O 9516   0.762  11.110   9.534  0.7986  0.2329  1.3123
  812MOL0     C 9517   0.885  11.147   9.491 -0.5524 -0.1978 -0.2085
  812MOL0     C 9518   0.917  11.235   9.385 -0.2670  0.8075 -0.1474
  812MOL0     C 9519   1.049  11.242   9.348  0.5336  0.5085  1.5070
  812MOL0     C 9520   1.153  11.182   9.421 -0.5503  0.4296 -0.3029
  812MOL0     O 9521   1.293  11.181   9.397 -0.5138 -0.2322  0.3346
  812MOL0     C 9522   1.341  11.252   9.281 -0.3093 -0.5001 -1.0072
  812MOL0     C 9523   1.486  11.206   9.271 -0.1411 -0.3347  0.2124
  812MOL0     C 9524   1.551  11.291   9.162 -0.1287  0.1054 -0.7431
  812MOL0     C 9525   1.696  11.248   9.118 -1.3864  0.4189 -0.1664
  812MOL0     C 9526   1.771  11.350   9.030  0.4737 -0.9268  0.0814
  812MOL0     C 9527   1.902  11.315   8.974  0.0257 -0.8594 -0.3050
  812MOL0     C 9528   1.966  11.411   8.875 -0.4751 -0.5974 -1.1375
  812MOL0     C 9529   2.114  11.373   8.839 -1.0594 -0.0550  0.1619
  812MOL0    Cl 9530   2.118  11.200   8.768 -0.3036  0.3228 -0.2237
  812MOL0     C 9531   1.114  11.109   9.530 -0.3991 -0.5582 -0.8295
  812MOL0     C 9532   0.985  11.084   9.560  0.4611 -1.7436 -0.4703
  812MOL0     O 9533   0.671  11.104   9.325 -0.6297  0.2892 -0.3858
  812MOL0     C 9534   0.522  10.974   9.610 -0.3646 -0.0073 -0.0054
  812MOL0     C 9535   0.400  10.929   9.662  0.3779  1.3313 -0.5316
  812MOL0     N 9536  -0.288  11.001   9.943 -0.2272  0.4649 -0.3175
  812MOL0     N 9537  -0.368  11.015  10.044  0.6577  0.0184  0.0248
  812MOL0     C 9538  -0.029  10.742  11.125  0.1465  0.0502  0.0574
  812MOL0     C 9539   0.073  10.770  11.215  0.2818 -0.1046 -0.7043
  812MOL0     C 9540   0.395  10.674  11.511  0.5083  0.4403  0.2456
  812MOL0     C 9541   0.377  10.710  11.645  0.1661  0.0303 -0.8618
  812MOL0     C 9542   0.487  10.727  11.727 -0.5512  0.0073 -0.7892
  812MOL0     C 9543   0.619  10.704  11.678  1.6730 -0.4327  0.1293
  812MOL0     O 9544   0.727  10.714  11.758 -0.4593  0.1062 -0.7919
  812MOL0     C 9545   0.698  10.712  11.899 -1.1464 -0.4886  0.0054
  812MOL0     C 9546   0.821  10.686  11.982  0.1043  0.0826  0.3953
  812MOL0     C 9547   0.861  10.536  11.977  0.0219 -0.4798 -0.3344
  812MOL0     C 9548   0.814  10.455  12.098  0.2776  0.2707 -1.1922
  812MOL0     C 9549   0.883  10.325  12.099  0.1038 -0.9203 -0.1508
  812MOL0     C 9550   0.942  10.218  12.101  0.6401 -0.2797  0.7527
  812MOL0     C 9551   0.637  10.660  11.553  0.9697  0.4701 -0.1411
  812MOL0     C 9552   0.524  10.641  11.469  0.2599  0.3312 -0.2682
  812MOL0     H 9553   0.330  10.599  11.078  1.6232  2.4491 -0.3454
  812MOL0     H 9554   0.149  10.501  10.955 -1.3131 -1.3547  1.6909
  812MOL0     H 9555  -0.063  10.443  10.837 -0.6600 -0.4407  0.6948
  812MOL0     H 9556  -0.214  10.506  10.791 -0.2979 -0.4830 -0.4484
  812MOL0     H 9557   0.053  10.654  10.740  3.3875 -2.6436 -1.9918
  812MOL0     H 9558   0.008  10.510  10.644 -1.2368 -1.1491 -0.1792
  812MOL0     H 9559  -0.072  10.706  10.513 -0.5285 -0.4218 -1.2813
  812MOL0     H 9560  -0.202  10.612  10.568  1.7232 -1.2456  1.2224
  812MOL0     H 9561  -0.225  10.795  10.764 -2.4449  2.1598 -0.3666
  812MOL0     H 9562  -0.111  10.891  10.665  0.3286  0.1317  0.1510
  812MOL0     H 9563  -0.360  10.779  10.532 -0.9363  0.6883 -0.8993
  812MOL0     H 9564  -0.349  10.929  10.623  0.2567 -1.9873  3.1095
  812MOL0     H 9565  -0.159  11.026  10.475 -2.6558  3.3419 -2.1715
  812MOL0     H 9566  -0.172  10.880  10.375 -2.8389 -0.1247 -2.3146
  812MOL0     H 9567  -0.405  11.068  10.435 -0.2846 -0.0721  0.9229
  812MOL0     H 9568  -0.303  11.098  10.299 -0.7635 -0.0980 -0.5084
  812MOL0     H 9569  -0.513  10.959  10.249  0.4219  0.1519 -3.8917
  812MOL0     H 9570  -0.421  10.814  10.310 -4.8910  0.7108  1.9962
  812MOL0     H 9571  -0.194  10.749  10.132 -0.5585  2.0101  4.2611
  812MOL0     H 9572  -0.139  10.721   9.850 -2.2978 -0.2161 -0.5145
  812MOL0     H 9573  -0.148  10.878   9.773 -1.3190 -0.5150 -0.2803
  812MOL0     H 9574   0.048  10.818   9.999  1.9165 -0.3281  0.3727
  812MOL0     H 9575   0.063  10.950   9.872  1.1527 -0.5845  0.4929
  812MOL0     H 9576   0.088  10.647   9.816 -2.8373 -0.0715  3.4546
  812MOL0     H 9577   0.222  10.740   9.856  0.6914 -0.7043 -2.0269
  812MOL0     H 9578   0.029  10.791   9.615 -1.1980  0.0901  2.5936
  812MOL0     H 9579   0.196  10.747   9.601 -1.1737 -1.4110  0.7729
  812MOL0     H 9580   0.185  11.127   9.498 -0.1981  0.1649  0.7846
  812MOL0     H 9581   0.308  11.252   9.322  0.2099 -1.2970  1.4211
  812MOL0     H 9582   0.467  11.302   9.380 -1.1135  1.1283  0.3044
  812MOL0     H 9583   0.441  11.167   9.252  0.2877  0.9435 -0.4415
  812MOL0     H 9584   0.845  11.274   9.314  2.4075  0.5311 -3.2913
  812MOL0     H 9585   1.089  11.300   9.265  1.6603 -2.8836 -0.5164
  812MOL0     H 9586   1.288  11.226   9.189  1.1158 -0.8969 -1.7500
  812MOL0     H 9587   1.330  11.357   9.312  0.7513 -0.9638  1.1131
  812MOL0     H 9588   1.550  11.216   9.360  1.2249  0.8602 -0.8502
  812MOL0     H 9589   1.495  11.100   9.245  2.3178 -0.2818  0.5855
  812MOL0     H 9590   1.560  11.396   9.190  0.1405  0.7340 -3.0027
  812MOL0     H 9591   1.487  11.289   9.073 -3.8490 -1.6578  1.7229
  812MOL0     H 9592   1.765  11.239   9.202 -1.1800  1.0495 -0.2595
  812MOL0     H 9593   1.698  11.162   9.051  0.8598 -0.2006  0.6197
  812MOL0     H 9594   1.768  11.447   9.080  0.0608 -0.5350 -0.6787
  812MOL0     H 9595   1.705  11.376   8.946  2.1915  0.4029 -0.9108
  812MOL0     H 9596   1.973  11.299   9.055 -0.6310  2.3411  1.0728
  812MOL0     H 9597   1.887  11.223   8.915  2.3111 -2.7955  1.9269
  812MOL0     H 9598   1.978  11.511   8.918  2.7116 -0.4757 -2.0560
  812MOL0     H 9599   1.905  11.432   8.787  1.1531  4.2668 -1.4196
  812MOL0     H 9600   2.168  11.391   8.932  0.8193 -0.4362 -0.8027
  812MOL0     H 9601   2.154  11.451   8.772  2.4014 -1.0449  0.8709
  812MOL0     H 9602   1.198  11.059   9.577 -0.5905  0.7459  1.0174
  812MOL0     H 9603   0.972  11.007   9.635 -2.0361 -2.7456 -1.8091
  812MOL0     H 9604   0.609  10.931   9.658 -0.2188  0.0460 -0.2208
  812MOL0     H 9605   0.389  10.857   9.742 -2.7685 -1.2836 -3.0270
  812MOL0     H 9606  -0.130  10.780  11.138 -0.2846 -1.3859  1.3003
  812MOL0     H 9607   0.040  10.837  11.294 -2.0783 -0.8456 -0.9646
  812MOL0     H 9608   0.281  10.740  11.687  1.3607  5.8172 -1.5463
  812MOL0     H 9609   0.471  10.755  11.830 -1.1253 -2.3183 -0.1931
  812MOL0     H 9610   0.668  10.814  11.925 -1.2961  0.2903 -2.8486
  812MOL0     H 9611   0.623  10.641  11.936 -1.0510 -0.9255 -0.6219
  812MOL0     H 9612   0.788  10.719  12.081 -2.3136 -1.3312  0.1294
  812MOL0     H 9613   0.908  10.751  11.969 -1.0572  1.4674 -0.7707
  812MOL0     H 9614   0.970  10.533  11.972  0.0793 -2.8654  0.6985
  812MOL0     H 9615   0.824  10.484  11.888  0.2949  2.6319 -2.4084
  812MOL0     H 9616   0.706  10.460  12.111  0.5130  3.0178  0.6614
  812MOL0     H 9617   0.857  10.498  12.190 -0.0961 -0.6152 -0.5906
  812MOL0     H 9618   0.993  10.125  12.090 -1.1456 -1.1611 -0.7127
  812MOL0     H 9619   0.731  10.628  11.511  1.0278  1.2861 -0.6580
  812MOL0     H 9620   0.552  10.601  11.372  3.5812 -0.9424  1.0642
  813MOL0     O 9621   1.097   6.353   1.883 -0.9123 -0.1351  0.4666
  813MOL0     C 9622   1.075   6.351   2.002 -0.3532 -0.5919  0.7620
  813MOL0     O 9623   1.167   6.323   2.103 -0.5495  0.2117  0.0276
  813MOL0     C 9624   1.299   6.298   2.065  0.0436 -0.1207  0.0819
  813MOL0     C 9625   1.349   6.174   2.064 -0.6979 -0.0181  0.9886
  813MOL0     C 9626   1.479   6.149   2.000  0.1161 -0.2748  0.5971
  813MOL0     C 9627   1.562   6.259   1.961 -0.3466  0.7608  0.0670
  813MOL0     O 9628   1.687   6.239   1.909 -0.5245 -0.6096  0.3190
  813MOL0     C 9629   1.723   6.106   1.862  0.0869 -0.6772 -1.0294
  813MOL0     C 9630   1.858   6.127   1.793 -0.5691 -0.2491 -0.2565
  813MOL0     C 9631   1.928   5.991   1.770  0.2686  0.7418  0.3057
  813MOL0     C 9632   1.951   5.902   1.898 -0.4250 -0.2751  0.7685
  813MOL0     C 9633   2.050   5.787   1.886  0.1590 -0.0290  0.1996
  813MOL0     C 9634   2.191   5.808   1.844 -0.6745 -0.2214  0.2466
  813MOL0     C 9635   2.265   5.903   1.931 -1.3804 -0.9391 -0.5195
  813MOL0     C 9636   2.287   5.872   2.080 -0.1512  0.1902  0.2167
  813MOL0     N 9637   2.367   5.748   2.090 -0.0298 -0.0727  0.8346
  813MOL0     C 9638   2.471   5.720   2.006  0.2988  0.7356  0.4528
  813MOL0     C 9639   2.484   5.581   2.015 -0.0830 -0.9526  0.6188
  813MOL0     C 9640   2.584   5.505   1.931  1.0773 -0.1815 -0.5652
  813MOL0     C 9641   2.525   5.403   1.838 -0.3474  0.1578 -0.4632
  813MOL0     C 9642   2.417   5.457   1.742  0.5794  0.0247 -0.2621
  813MOL0     C 9643   2.366   5.358   1.632 -0.1244 -0.8639  0.5761
  813MOL0     O 9644   2.293   5.423   1.527  0.6259 -0.2483  0.7039
  813MOL0     C 9645   2.168   5.468   1.537  0.3470 -0.9664 -0.4842
  813MOL0     C 9646   2.142   5.543   1.424  0.2607 -0.8076 -0.9974
  813MOL0     C 9647   2.029   5.624   1.427 -0.2778 -0.3660  0.1606
  813MOL0     C 9648   2.019   5.724   1.312 -0.3131  0.4684 -0.6345
  813MOL0     C 9649   1.934   5.609   1.535 -0.1652 -0.1122  0.1198
  813MOL0     C 9650   1.800   5.686   1.552 -0.5417  0.1139  0.2566
  813MOL0     O 9651   1.728   5.680   1.671  0.0189  0.7561  0.6009
  813MOL0     C 9652   1.597   5.714   1.671  0.1869  1.0043  0.9152
  813MOL0     C 9653   1.500   5.633   1.605 -0.2204 -0.1811  0.1894
  813MOL0     C 9654   1.361   5.670   1.620 -0.2072  0.2003 -0.1432
  813MOL0     C 9655   1.323   5.785   1.690  0.1397 -0.3703  0.2818
  813MOL0     O 9656   1.190   5.825   1.681 -0.0754  0.0285 -0.4666
  813MOL0     C 9657   1.133   5.936   1.751  0.0960  0.0505  0.7435
  813MOL0     C 9658   0.998   5.929   1.822  1.1927  0.3206  1.1416
  813MOL0     C 9659   0.888   5.875   1.721  0.4453  0.3736  1.1480
  813MOL0     C 9660   0.749   5.874   1.782  0.4417 -0.1697  0.3406
  813MOL0     C 9661   0.652   5.832   1.676  0.5356 -1.5068  0.1058
  813MOL0     C 9662   0.509   5.840   1.729 -0.7799  0.4136 -0.3861
  813MOL0     C 9663   0.465   5.719   1.817  0.4615 -0.3519 -0.8058
  813MOL0     C 9664   0.314   5.688   1.806 -0.6901 -0.0895 -0.9660
  813MOL0    Cl 9665   0.225   5.824   1.870 -0.1477  0.0478  0.2900
  813MOL0     C 9666   1.421   5.869   1.751  0.4300  0.3128 -0.1402
  813MOL0     C 9667   1.548   5.828   1.743 -0.1295  0.0252 -0.0232
  813MOL0     O 9668   1.766   5.755   1.457 -0.1087 -0.1166  0.3601
  813MOL0     C 9669   1.968   5.525   1.640  0.4872  0.0557 -1.9150
  813MOL0     C 9670   2.078   5.448   1.640 -1.8762  0.5350 -0.4362
  813MOL0     N 9671   2.386   5.530   2.109 -0.1412  0.7363  0.1034
  813MOL0     N 9672   2.325   5.630   2.155 -0.0363  0.7777 -0.3429
  813MOL0     C 9673   1.507   6.387   1.968 -0.0182  0.9032 -0.4566
  813MOL0     C 9674   1.378   6.404   2.016 -0.9073  0.6606  0.4636
  813MOL0     C 9675   0.935   6.385   2.039  0.2096  0.3408 -0.7567
  813MOL0     C 9676   0.827   6.419   1.951 -0.3554  0.0550  1.1518
  813MOL0     C 9677   0.698   6.462   1.990  0.1042  0.4546 -0.7183
  813MOL0     C 9678   0.678   6.472   2.128  0.3471  0.5226 -0.2300
  813MOL0     O 9679   0.552   6.489   2.170  0.0060  0.8630 -0.9004
  813MOL0     C 9680   0.492   6.620   2.130  0.1639  0.9750 -0.4198
  813MOL0     C 9681   0.504   6.714   2.254 -0.4176  1.1965  0.8883
  813MOL0     C 9682   0.479   6.654   2.392 -0.5656 -0.0249  0.4687
  813MOL0     C 9683   0.337   6.618   2.420  0.1041 -0.1516  0.0929
  813MOL0     C 9684   0.325   6.553   2.556  0.1957  0.0216  0.0079
  813MOL0     C 9685   0.317   6.512   2.672 -0.6650  0.3608 -0.2818
  813MOL0     C 9686   0.779   6.432   2.218 -0.2570  0.5714  0.5750
  813MOL0     C 9687   0.908   6.407   2.175  0.1435 -0.3342 -0.1737
  813MOL0     H 9688   1.295   6.084   2.090 -2.6510  0.9835  0.5888
  813MOL0     H 9689   1.500   6.043   1.987 -1.9759 -0.5514 -1.1537
  813MOL0     H 9690   1.729   6.048   1.955  1.1172  3.0226  1.4326
  813MOL0     H 9691   1.644   6.075   1.793  1.4848 -2.6995 -1.8262
  813MOL0     H 9692   1.847   6.178   1.697 -0.0109  0.0522 -0.1620
  813MOL0     H 9693   1.916   6.197   1.854 -2.2288  1.2144 -0.2791
  813MOL0     H 9694   1.865   5.935   1.701 -0.7733  0.0361  1.7874
  813MOL0     H 9695   2.028   6.011   1.731 -0.0369  3.0961  0.6176
  813MOL0     H 9696   1.970   5.971   1.981 -0.9113  0.6790  0.1063
  813MOL0     H 9697   1.855   5.854   1.918 -1.3675  0.6101 -1.3084
  813MOL0     H 9698   2.051   5.735   1.982 -0.0983 -2.2106 -0.9280
  813MOL0     H 9699   2.010   5.714   1.815  1.4618  1.7412 -2.5712
  813MOL0     H 9700   2.248   5.715   1.837 -1.5585 -0.7003 -0.9286
  813MOL0     H 9701   2.188   5.847   1.742 -3.3892 -1.3483 -0.1725
  813MOL0     H 9702   2.363   5.928   1.889 -0.2488 -0.4881  2.2015
  813MOL0     H 9703   2.220   6.002   1.941  0.6757 -0.1210  1.5055
  813MOL0     H 9704   2.190   5.855   2.127 -2.0891 -1.9811 -4.0562
  813MOL0     H 9705   2.343   5.951   2.130  0.5475  1.2067 -2.0316
  813MOL0     H 9706   2.522   5.788   1.938  0.8517  0.1454  0.2713
  813MOL0     H 9707   2.633   5.574   1.862 -0.9143  0.0142 -1.8547
  813MOL0     H 9708   2.659   5.470   2.002  1.9149  0.2278 -1.2218
  813MOL0     H 9709   2.482   5.319   1.895 -1.1218  0.6179 -0.3484
  813MOL0     H 9710   2.613   5.350   1.800 -1.1319 -2.8362  1.4706
  813MOL0     H 9711   2.459   5.544   1.692 -1.3689 -0.3940 -2.8512
  813MOL0     H 9712   2.324   5.496   1.784  0.4513  1.4994 -1.8355
  813MOL0     H 9713   2.305   5.277   1.672 -0.6807 -1.1301 -0.7628
  813MOL0     H 9714   2.454   5.311   1.586  0.5469  1.4984 -0.7530
  813MOL0     H 9715   2.221   5.539   1.350  0.6603 -0.7308 -0.5843
  813MOL0     H 9716   1.973   5.811   1.358  1.2367  0.0727  1.8351
  813MOL0     H 9717   2.115   5.748   1.266 -0.6242  1.6464 -0.6970
  813MOL0     H 9718   1.946   5.694   1.236 -1.1142 -0.6748  0.5467
  813MOL0     H 9719   1.526   5.555   1.535 -0.3355 -0.6830  0.6951
  813MOL0     H 9720   1.298   5.597   1.570  0.4824  1.5037 -3.1699
  813MOL0     H 9721   1.200   5.973   1.829  1.8906 -1.3244 -0.0806
  813MOL0     H 9722   1.126   6.012   1.672 -3.1886 -1.9056 -1.0784
  813MOL0     H 9723   1.001   5.878   1.918  1.8068 -1.5134  0.1986
  813MOL0     H 9724   0.974   6.033   1.844  0.9254  0.6706 -0.6239
  813MOL0     H 9725   0.905   5.769   1.700 -2.5891  0.1816 -0.8806
  813MOL0     H 9726   0.887   5.934   1.629 -1.2297  1.6685  1.9461
  813MOL0     H 9727   0.743   5.802   1.864 -2.4302 -1.1855 -0.6455
  813MOL0     H 9728   0.719   5.969   1.827 -2.0565 -1.3317  1.2692
  813MOL0     H 9729   0.670   5.730   1.641  1.0318 -0.4569 -3.0743
  813MOL0     H 9730   0.650   5.911   1.600  0.5504 -1.6110 -0.0036
  813MOL0     H 9731   0.500   5.933   1.786 -0.8954 -0.2038  0.6188
  813MOL0     H 9732   0.439   5.832   1.646 -2.0155 -4.2877  0.8120
  813MOL0     H 9733   0.495   5.734   1.921 -2.7558  0.8763  0.0749
  813MOL0     H 9734   0.530   5.635   1.792  1.5438  0.1953  0.0542
  813MOL0     H 9735   0.285   5.596   1.856 -0.3312  0.2313 -0.1533
  813MOL0     H 9736   0.293   5.666   1.701  1.2551 -4.3224 -0.6621
  813MOL0     H 9737   1.398   5.961   1.803 -0.2676  2.3747 -3.7953
  813MOL0     H 9738   1.633   5.887   1.777 -0.6569  0.0087  1.4107
  813MOL0     H 9739   1.899   5.527   1.724 -0.9930  0.7406 -3.0843
  813MOL0     H 9740   2.102   5.386   1.726 -0.0255 -0.4676 -1.6139
  813MOL0     H 9741   1.568   6.465   1.924  1.6221  1.0005  1.8395
  813MOL0     H 9742   1.322   6.497   2.016  2.0232  2.5394  0.0117
  813MOL0     H 9743   0.839   6.415   1.844 -2.1252  4.0311  0.6021
  813MOL0     H 9744   0.610   6.483   1.930 -1.0410  1.0045  1.0582
  813MOL0     H 9745   0.529   6.657   2.034 -1.9325 -1.4303 -2.3160
  813MOL0     H 9746   0.391   6.599   2.093 -0.3633  2.8616 -0.1369
  813MOL0     H 9747   0.445   6.804   2.240  0.8013  2.3682  2.8747
  813MOL0     H 9748   0.610   6.741   2.248 -0.1076 -0.1930 -1.7142
  813MOL0     H 9749   0.526   6.720   2.467  0.6171 -0.0627 -0.2255
  813MOL0     H 9750   0.549   6.571   2.400 -0.3515 -0.2218 -2.4391
  813MOL0     H 9751   0.294   6.548   2.347 -0.5739 -0.2428  0.5706
  813MOL0     H 9752   0.291   6.717   2.418  1.9626  0.7363 -0.1073
  813MOL0     H 9753   0.310   6.463   2.767  0.7349  1.4758  0.4290
  813MOL0     H 9754   0.738   6.421   2.318  0.9181  2.5718  1.3346
  813MOL0     H 9755   0.978   6.376   2.251  0.9272 -0.0582 -0.7652
  814MOL0     O 9756   7.958   1.434   8.170  0.1003 -0.5574 -0.8565
  814MOL0     C 9757   7.898   1.523   8.231 -0.1953  0.3440  0.0196
  814MOL0     O 9758   7.798   1.497   8.313  0.2999 -0.0841 -0.0221
  814MOL0     C 9759   7.758   1.370   8.318 -0.2217 -0.0628 -0.2384
  814MOL0     C 9760   7.668   1.327   8.222 -0.8132  0.0440  0.4588
  814MOL0     C 9761   7.615   1.202   8.235  0.4440 -0.3338  0.6302
  814MOL0     C 9762   7.648   1.116   8.344 -0.3189  0.3869  0.4821
  814MOL0     O 9763   7.581   0.995   8.358  0.6692 -0.0694  0.3323
  814MOL0     C 9764   7.602   0.914   8.471 -0.3303  0.3131 -0.3475
  814MOL0     C 9765   7.495   0.817   8.470 -0.0261  0.7927  0.7079
  814MOL0     C 9766   7.381   0.859   8.553  0.1351 -0.5155 -1.2490
  814MOL0     C 9767   7.306   0.978   8.497  0.7829 -0.6145 -0.3245
  814MOL0     C 9768   7.235   0.937   8.360 -0.7624 -0.7860 -0.0775
  814MOL0     C 9769   7.140   1.051   8.297  0.6186  0.8066  0.7225
  814MOL0     C 9770   7.208   1.184   8.285 -0.3002 -0.9143  0.7413
  814MOL0     C 9771   7.135   1.267   8.174 -0.0587  0.6246 -0.1509
  814MOL0     N 9772   7.190   1.408   8.143  0.8228 -0.8534  0.6544
  814MOL0     C 9773   7.132   1.526   8.180 -0.1647 -1.6621 -0.0464
  814MOL0     C 9774   7.195   1.631   8.120 -0.3971 -0.2865 -0.3012
  814MOL0     C 9775   7.138   1.767   8.139 -0.1288 -0.7027  0.2652
  814MOL0     C 9776   7.001   1.790   8.081  0.3479 -0.2703  0.0906
  814MOL0     C 9777   6.954   1.940   8.059 -0.4236  1.1193 -0.1859
  814MOL0     C 9778   6.841   1.946   7.952  0.9396 -0.0877 -0.9516
  814MOL0     O 9779   6.797   2.081   7.939 -0.2368  0.8343 -0.4370
  814MOL0     C 9780   6.874   2.173   7.872  0.3969 -0.3178 -0.2295
  814MOL0     C 9781   6.833   2.303   7.889 -0.5294  0.9081  1.2654
  814MOL0     C 9782   6.898   2.414   7.839 -0.1742 -0.7889 -0.3356
  814MOL0     C 9783   6.834   2.550   7.871  0.9666 -0.8417 -0.9431
  814MOL0     C 9784   7.009   2.395   7.757 -0.0543  0.0616  0.2362
  814MOL0     C 9785   7.078   2.506   7.692 -0.1899 -0.1093  0.5968
  814MOL0     O 9786   7.214   2.512   7.687  0.6872 -0.5924 -0.1533
  814MOL0     C 9787   7.257   2.646   7.659 -0.4625  0.0245 -0.9727
  814MOL0     C 9788   7.275   2.724   7.770  0.0412 -0.6486  0.5623
  814MOL0     C 9789   7.321   2.854   7.753 -0.6195  0.3343  0.1992
  814MOL0     C 9790   7.364   2.905   7.629  0.4539  0.4671  0.4496
  814MOL0     O 9791   7.422   3.031   7.641  0.0117 -0.2811 -1.2520
  814MOL0     C 9792   7.469   3.086   7.516 -0.8354 -0.5618  0.1298
  814MOL0     C 9793   7.550   3.216   7.541  0.0285  0.5059  0.4875
  814MOL0     C 9794   7.449   3.318   7.584 -0.0052 -0.9149  0.3109
  814MOL0     C 9795   7.509   3.456   7.626 -0.1369  0.5296  0.0817
  814MOL0     C 9796   7.543   3.454   7.777 -0.3037  0.0269  0.4228
  814MOL0     C 9797   7.446   3.543   7.860  0.4075  0.1264 -0.2135
  814MOL0     C 9798   7.486   3.578   7.999  0.4096 -0.4740  0.3995
  814MOL0     C 9799   7.594   3.691   8.033 -0.7911 -0.3407  1.0011
  814MOL0    Cl 9800   7.632   3.692   8.210  0.2358 -0.0934  0.0941
  814MOL0     C 9801   7.328   2.833   7.516  0.8824 -1.1157 -0.5968
  814MOL0     C 9802   7.275   2.701   7.532 -0.6848  0.2885 -0.0090
  814MOL0     O 9803   7.000   2.593   7.643 -0.8687  0.1880  0.6197
  814MOL0     C 9804   7.068   2.266   7.747  0.0871 -1.4668 -0.3977
  814MOL0     C 9805   6.996   2.162   7.805  0.8714 -0.0253 -0.1182
  814MOL0     N 9806   7.297   1.569   8.051  0.0128 -0.1834 -0.4580
  814MOL0     N 9807   7.294   1.437   8.067  0.6294 -0.6291 -0.4767
  814MOL0     C 9808   7.737   1.166   8.437 -0.0662 -0.0991  0.9762
  814MOL0     C 9809   7.799   1.288   8.417 -0.4433  0.2699 -0.0015
  814MOL0     C 9810   7.949   1.660   8.205  0.6816  0.2713 -1.2336
  814MOL0     C 9811   7.858   1.768   8.213  1.1121  0.2993 -0.0613
  814MOL0     C 9812   7.894   1.901   8.194 -1.1190  0.4840  0.7347
  814MOL0     C 9813   8.029   1.925   8.166  0.3603 -0.2422  0.0775
  814MOL0     O 9814   8.088   2.046   8.156 -0.3408 -0.3428 -0.0582
  814MOL0     C 9815   8.003   2.165   8.133 -0.0244  0.2688 -0.4274
  814MOL0     C 9816   7.947   2.149   7.984  0.0391 -0.1598 -0.0661
  814MOL0     C 9817   8.065   2.182   7.876  0.5259 -0.0914  0.2013
  814MOL0     C 9818   8.050   2.309   7.797  0.2638 -0.6083 -0.2937
  814MOL0     C 9819   8.026   2.431   7.878 -0.2001  0.5397 -0.7973
  814MOL0     C 9820   8.019   2.546   7.935  0.5853  1.1520  0.3157
  814MOL0     C 9821   8.116   1.821   8.153  0.3462 -0.0612 -0.1579
  814MOL0     C 9822   8.082   1.692   8.179 -0.8039 -0.5870 -0.5418
  814MOL0     H 9823   7.650   1.388   8.133  0.3523 -1.0577 -0.5742
  814MOL0     H 9824   7.537   1.160   8.172  1.7061 -2.0354  0.1391
  814MOL0     H 9825   7.701   0.870   8.476  0.0130  1.0057 -0.8856
  814MOL0     H 9826   7.583   0.967   8.566 -0.2109 -1.5323  0.7532
  814MOL0     H 9827   7.456   0.800   8.369  1.2718  1.7056  0.0329
  814MOL0     H 9828   7.542   0.727   8.511  0.5806  1.0343  0.5499
  814MOL0     H 9829   7.313   0.773   8.563  0.9636 -0.9254  2.3956
  814MOL0     H 9830   7.417   0.875   8.655  3.0551  1.9296 -2.5086
  814MOL0     H 9831   7.234   1.004   8.575 -1.3949 -0.9126 -2.1338
  814MOL0     H 9832   7.357   1.073   8.482  1.4256 -1.0283 -0.8234
  814MOL0     H 9833   7.307   0.925   8.278 -1.3503 -0.8401 -0.5912
  814MOL0     H 9834   7.187   0.843   8.387 -0.0374 -2.8555 -4.8370
  814MOL0     H 9835   7.129   1.017   8.193 -0.4545  0.5629  0.8978
  814MOL0     H 9836   7.044   1.057   8.349  1.2975 -1.9520  2.5054
  814MOL0     H 9837   7.208   1.231   8.384  2.7100 -2.4083  1.5795
  814MOL0     H 9838   7.313   1.171   8.256 -0.0395 -1.1528  1.7498
  814MOL0     H 9839   7.034   1.278   8.214 -1.3162  0.1933 -2.9884
  814MOL0     H 9840   7.135   1.201   8.088  3.0485 -3.4382  2.5592
  814MOL0     H 9841   7.040   1.542   8.235  0.0051  1.0609 -0.3938
  814MOL0     H 9842   7.129   1.777   8.247  1.3255  1.2103  0.2682
  814MOL0     H 9843   7.203   1.845   8.096 -0.3719 -1.7730 -2.2494
  814MOL0     H 9844   6.928   1.739   8.144  2.5799 -0.0845  3.0514
  814MOL0     H 9845   7.005   1.741   7.983  3.0304 -1.8715  0.8870
  814MOL0     H 9846   7.039   2.002   8.031 -0.8283  2.1565  0.8013
  814MOL0     H 9847   6.909   1.991   8.145  1.9173 -0.1492  1.9241
  814MOL0     H 9848   6.752   1.884   7.972 -0.0089  0.8157 -2.2233
  814MOL0     H 9849   6.873   1.899   7.859 -0.4617 -2.2908 -0.4062
  814MOL0     H 9850   6.742   2.322   7.945 -2.0213 -0.2811 -0.6130
  814MOL0     H 9851   6.796   2.597   7.780 -2.4860 -4.1115 -1.4358
  814MOL0     H 9852   6.756   2.526   7.944  0.5828  1.9403 -0.3233
  814MOL0     H 9853   6.898   2.620   7.926  3.0219 -2.4285 -1.2084
  814MOL0     H 9854   7.244   2.680   7.865 -1.8069 -1.5464 -0.3915
  814MOL0     H 9855   7.336   2.917   7.840 -1.0922 -0.9720  1.2613
  814MOL0     H 9856   7.540   3.012   7.480  0.7399 -0.2024  2.2978
  814MOL0     H 9857   7.380   3.107   7.456 -1.6966 -0.9779  1.2322
  814MOL0     H 9858   7.622   3.199   7.621 -1.6925  1.6474  2.3414
  814MOL0     H 9859   7.604   3.246   7.450  1.0637 -3.2795 -0.3687
  814MOL0     H 9860   7.372   3.278   7.650  0.3547  2.5317  3.0549
  814MOL0     H 9861   7.388   3.337   7.495  0.3686 -2.3176 -0.2818
  814MOL0     H 9862   7.598   3.488   7.572 -1.6879  1.1254 -2.3097
  814MOL0     H 9863   7.435   3.532   7.599 -1.0007 -0.4368 -0.3632
  814MOL0     H 9864   7.640   3.503   7.789 -0.1293  0.0131 -0.8559
  814MOL0     H 9865   7.552   3.353   7.817 -0.6275 -0.2313 -0.1431
  814MOL0     H 9866   7.431   3.636   7.805  1.6525  0.9050  0.7067
  814MOL0     H 9867   7.356   3.485   7.882  0.8833 -0.0860  1.3216
  814MOL0     H 9868   7.518   3.485   8.046  0.8453 -0.7745 -0.4647
  814MOL0     H 9869   7.395   3.614   8.049 -0.9285 -0.0885 -2.1409
  814MOL0     H 9870   7.569   3.788   7.990 -0.2441 -1.0984 -1.1606
  814MOL0     H 9871   7.690   3.665   7.986  1.6921  2.6630  3.8649
  814MOL0     H 9872   7.339   2.877   7.418 -1.6295  0.7227 -0.1496
  814MOL0     H 9873   7.241   2.635   7.453  1.4624 -4.1928  2.4531
  814MOL0     H 9874   7.160   2.243   7.694 -0.3739 -0.2973 -1.7847
  814MOL0     H 9875   7.032   2.061   7.790  0.1094 -0.2957 -0.1475
  814MOL0     H 9876   7.773   1.099   8.515 -0.9326 -2.5498 -0.6251
  814MOL0     H 9877   7.888   1.328   8.463 -0.6941 -0.9392  1.6073
  814MOL0     H 9878   7.762   1.736   8.252 -0.0909  0.9977 -2.3036
  814MOL0     H 9879   7.826   1.984   8.211 -2.5054 -0.3067 -0.6999
  814MOL0     H 9880   7.911   2.171   8.192 -0.6648  0.9294 -1.4719
  814MOL0     H 9881   8.055   2.260   8.145  0.6713 -0.2711  1.1653
  814MOL0     H 9882   7.866   2.219   7.963  0.0091  0.0493  0.7020
  814MOL0     H 9883   7.915   2.047   7.963 -0.1592 -0.6466  2.2816
  814MOL0     H 9884   8.060   2.104   7.800 -3.2301  0.8884 -0.7763
  814MOL0     H 9885   8.165   2.182   7.921  1.0804  0.6438 -0.9997
  814MOL0     H 9886   7.970   2.292   7.724  1.4366 -1.3218 -1.4452
  814MOL0     H 9887   8.144   2.313   7.743 -0.2125 -2.7109 -1.3728
  814MOL0     H 9888   8.034   2.644   7.977 -3.7069  0.8706  3.1973
  814MOL0     H 9889   8.219   1.836   8.123  0.0777 -2.5840 -2.8167
  814MOL0     H 9890   8.151   1.609   8.170 -0.1981  0.1349 -3.8740
  815MOL0     O 9891  10.479   7.210   4.491  0.8230 -0.7181 -0.1049
  815MOL0     C 9892  10.354   7.203   4.482 -0.7968 -0.7913 -0.1798
  815MOL0     O 9893  10.270   7.131   4.558 -0.3390  0.2198 -1.0045
  815MOL0     C 9894  10.306   7.045   4.661  0.8296  0.3417  0.7556
  815MOL0     C 9895  10.435   7.017   4.704 -0.3358  0.3383 -0.4802
  815MOL0     C 9896  10.449   6.947   4.821 -0.0467  0.1773 -0.5153
  815MOL0     C 9897  10.338   6.895   4.884 -0.0257 -1.2710  0.3807
  815MOL0     O 9898  10.344   6.839   5.004  0.1083  0.3653  0.0233
  815MOL0     C 9899  10.409   6.714   5.002  0.2552  0.2573  0.3455
  815MOL0     C 9900  10.384   6.628   5.134 -0.4877  0.1327  1.0069
  815MOL0     C 9901  10.435   6.475   5.139  0.6150 -0.0438  0.4658
  815MOL0     C 9902  10.586   6.473   5.116  0.4443  0.2589  0.2211
  815MOL0     C 9903  10.670   6.531   5.236 -0.2919  0.4312 -0.7737
  815MOL0     C 9904  10.820   6.506   5.243 -0.4268  0.0890  0.4318
  815MOL0     C 9905  10.882   6.588   5.117 -0.2082 -0.0349  0.0644
  815MOL0     C 9906  11.017   6.657   5.146  0.4461  0.4711  0.4238
  815MOL0     N 9907  11.065   6.725   5.021  1.1244  0.6781 -0.3278
  815MOL0     C 9908  11.181   6.684   4.955 -0.3423  0.4880  0.8635
  815MOL0     C 9909  11.180   6.761   4.850  0.4838 -0.4334 -0.5905
  815MOL0     C 9910  11.272   6.766   4.732 -0.6392  0.4022 -0.0783
  815MOL0     C 9911  11.234   6.662   4.624  0.4531 -0.3946  0.4604
  815MOL0     C 9912  11.296   6.683   4.487 -0.6896  0.6981  0.6338
  815MOL0     C 9913  11.240   6.583   4.376 -0.1344 -0.8237 -0.2251
  815MOL0     O 9914  11.105   6.619   4.356 -0.0197 -0.6382 -0.2896
  815MOL0     C 9915  11.003   6.533   4.336 -0.1578 -0.0289 -0.3355
  815MOL0     C 9916  10.900   6.562   4.242 -0.4338 -0.1035 -0.6542
  815MOL0     C 9917  10.799   6.469   4.214  0.2797 -0.4111 -0.3101
  815MOL0     C 9918  10.686   6.509   4.118  0.9856 -0.2006  0.7053
  815MOL0     C 9919  10.788   6.352   4.293 -0.0180 -0.4251  0.1584
  815MOL0     C 9920  10.680   6.251   4.281  0.2627 -0.0424  0.7077
  815MOL0     O 9921  10.712   6.126   4.300 -0.9841  0.2671 -0.5575
  815MOL0     C 9922  10.625   6.021   4.281 -1.0377 -0.3875  0.2817
  815MOL0     C 9923  10.651   5.908   4.348 -0.8316 -0.1361 -0.1165
  815MOL0     C 9924  10.567   5.793   4.324 -0.7475  0.0394 -0.1783
  815MOL0     C 9925  10.459   5.795   4.232 -0.2714 -0.6572  0.3559
  815MOL0     O 9926  10.373   5.683   4.212  0.3824  0.2486 -0.2858
  815MOL0     C 9927  10.237   5.691   4.165  0.5435  0.7309 -1.0800
  815MOL0     C 9928  10.157   5.579   4.241 -0.0305  1.5684  0.0664
  815MOL0     C 9929  10.015   5.572   4.181 -0.3059  0.3862 -0.0499
  815MOL0     C 9930   9.929   5.472   4.253  0.3594  0.5064 -0.5321
  815MOL0     C 9931   9.791   5.463   4.187 -0.7362  1.5091  0.4746
  815MOL0     C 9932   9.722   5.593   4.194  0.2415 -0.0055 -0.4745
  815MOL0     C 9933   9.569   5.574   4.186 -0.5857  0.6784  0.9051
  815MOL0     C 9934   9.517   5.570   4.035 -0.3309  0.0419  0.5799
  815MOL0    Cl 9935   9.566   5.706   3.922 -0.0165 -0.0834 -0.3782
  815MOL0     C 9936  10.443   5.913   4.166  0.1567 -0.5644  0.0451
  815MOL0     C 9937  10.523   6.016   4.193 -0.1527 -1.1758 -0.8985
  815MOL0     O 9938  10.564   6.287   4.277  0.3144 -0.2887 -0.1315
  815MOL0     C 9939  10.882   6.331   4.391  0.2706 -1.2086 -0.5617
  815MOL0     C 9940  10.990   6.414   4.409  0.8569  0.0653  0.6959
  815MOL0     N 9941  11.073   6.848   4.855 -0.3732  0.1000 -0.0198
  815MOL0     N 9942  11.007   6.837   4.965 -0.4110 -0.2099 -0.3394
  815MOL0     C 9943  10.210   6.916   4.839  0.5091  0.5131  0.8988
  815MOL0     C 9944  10.192   6.986   4.721  0.2522  0.0658  0.0002
  815MOL0     C 9945  10.283   7.295   4.385  0.1918 -0.0601  0.5160
  815MOL0     C 9946  10.353   7.353   4.279  0.7032  0.2319 -0.1141
  815MOL0     C 9947  10.304   7.451   4.204 -0.1351  0.2955 -0.1985
  815MOL0     C 9948  10.170   7.498   4.223 -0.1961 -0.0931 -0.3500
  815MOL0     O 9949  10.137   7.597   4.135 -1.2245  0.1049 -0.3160
  815MOL0     C 9950  10.022   7.676   4.162 -0.6845  0.1573  0.0398
  815MOL0     C 9951  10.027   7.782   4.056  0.6393 -0.5318  0.1451
  815MOL0     C 9952   9.943   7.905   4.098  0.3242  0.7669 -0.2645
  815MOL0     C 9953   9.944   7.994   3.972 -0.5102 -0.3735  0.2012
  815MOL0     C 9954  10.072   8.055   3.938  0.2779 -0.4866  0.7291
  815MOL0     C 9955  10.175   8.094   3.896 -0.2252 -0.1731  0.5804
  815MOL0     C 9956  10.093   7.449   4.328  0.1644  0.2021 -0.4949
  815MOL0     C 9957  10.151   7.357   4.414 -0.2970 -0.3355  0.5184
  815MOL0     H 9958  10.526   7.043   4.650  0.2810 -2.4657 -0.9243
  815MOL0     H 9959  10.543   6.912   4.862 -0.8683  1.6849  3.1171
  815MOL0     H 9960  10.383   6.656   4.913  2.2048  0.9181 -0.7331
  815MOL0     H 9961  10.518   6.729   4.999  0.0820  1.4987 -1.6816
  815MOL0     H 9962  10.431   6.683   5.216  2.2477  1.4639 -1.2953
  815MOL0     H 9963  10.276   6.623   5.155 -0.7907  0.2893 -0.3849
  815MOL0     H 9964  10.394   6.431   5.230 -0.8857 -2.8700 -1.4039
  815MOL0     H 9965  10.391   6.411   5.062 -0.4008  0.8413  0.2797
  815MOL0     H 9966  10.621   6.371   5.100  1.0320  0.6938 -1.5872
  815MOL0     H 9967  10.607   6.524   5.022 -0.8641  0.3831 -0.0326
  815MOL0     H 9968  10.648   6.638   5.245 -2.3965  0.0080 -0.4032
  815MOL0     H 9969  10.633   6.480   5.325  3.1126  1.8469  1.7080
  815MOL0     H 9970  10.858   6.554   5.334  0.0210  2.3506 -0.8657
  815MOL0     H 9971  10.851   6.401   5.245 -0.0468  0.0903  4.7283
  815MOL0     H 9972  10.895   6.529   5.026 -0.6659 -0.0736  0.0212
  815MOL0     H 9973  10.812   6.670   5.097 -1.6107 -0.9071  1.1017
  815MOL0     H 9974  11.098   6.598   5.191  3.3771  2.4587 -1.9174
  815MOL0     H 9975  10.992   6.731   5.223  0.8478  0.6636  0.3697
  815MOL0     H 9976  11.261   6.613   4.971 -0.6819 -0.2317 -0.4321
  815MOL0     H 9977  11.259   6.865   4.689  0.1425  0.2031 -0.7927
  815MOL0     H 9978  11.376   6.743   4.758 -1.8225 -2.1028  3.2025
  815MOL0     H 9979  11.126   6.672   4.609  0.7679 -0.2510 -2.2662
  815MOL0     H 9980  11.257   6.567   4.672  1.8655  0.2339  1.1094
  815MOL0     H 9981  11.400   6.649   4.493 -1.3391 -1.6582 -0.3021
  815MOL0     H 9982  11.277   6.784   4.451  1.7452  0.3467 -1.9527
  815MOL0     H 9983  11.254   6.482   4.416 -0.1858 -0.4022  0.9036
  815MOL0     H 9984  11.306   6.596   4.290 -0.2223  2.2567  0.0766
  815MOL0     H 9985  10.901   6.661   4.198  0.6268  0.3200  0.3026
  815MOL0     H 9986  10.586   6.480   4.151  2.2517 -2.5567  2.8738
  815MOL0     H 9987  10.695   6.616   4.097  2.8048 -0.0584  1.9565
  815MOL0     H 9988  10.708   6.454   4.027 -2.2289 -1.4379  0.5474
  815MOL0     H 9989  10.722   5.898   4.430 -1.3134  3.3594  0.8816
  815MOL0     H 9990  10.584   5.697   4.373 -0.7764  0.6258  1.0149
  815MOL0     H 9991  10.193   5.791   4.173 -3.7837 -0.8241 -2.3082
  815MOL0     H 9992  10.236   5.672   4.057  1.5646 -4.3959 -0.4745
  815MOL0     H 9993  10.191   5.480   4.210  0.4913  1.6220  0.4571
  815MOL0     H 9994  10.149   5.586   4.350 -2.2123  0.2689  0.0347
  815MOL0     H 9995  10.020   5.551   4.073  3.3166  2.3261 -0.4270
  815MOL0     H 9996   9.972   5.673   4.179 -3.0410 -0.3959  4.7834
  815MOL0     H 9997   9.971   5.371   4.258 -1.7188 -0.4094 -0.1880
  815MOL0     H 9998   9.909   5.490   4.359  0.0013  0.4845 -0.5921
  815MOL0     H 9999   9.728   5.394   4.242  2.2348 -1.5214  0.4321
  815MOL0     H10000   9.799   5.417   4.088 -1.8479  2.5075 -0.0969
  815MOL0     H10001   9.730   5.641   4.292 -0.7922 -0.1108 -0.3373
  815MOL0     H10002   9.762   5.658   4.115  0.6755 -0.7159 -0.8616
  815MOL0     H10003   9.522   5.655   4.243 -4.0889 -1.4550  1.3825
  815MOL0     H10004   9.540   5.479   4.233 -3.5825  1.4701  0.8696
  815MOL0     H10005   9.408   5.571   4.050 -0.1835  1.7914  1.8236
  815MOL0     H10006   9.530   5.467   3.999  0.4583  0.8092 -1.4332
  815MOL0     H10007  10.366   5.936   4.094 -0.6451  0.9556  1.3311
  815MOL0     H10008  10.486   6.101   4.136 -3.5727 -1.9189  0.0349
  815MOL0     H10009  10.862   6.246   4.455  0.7693 -2.0187 -1.4668
  815MOL0     H10010  11.069   6.383   4.477  0.8235  1.5364  1.4496
  815MOL0     H10011  10.126   6.876   4.896  2.2221 -4.1217  0.5944
  815MOL0     H10012  10.094   7.000   4.676 -2.5569 -1.8050  4.7952
  815MOL0     H10013  10.445   7.304   4.248 -0.0166 -2.8360  2.1237
  815MOL0     H10014  10.364   7.503   4.130  0.8841  0.7524  0.9219
  815MOL0     H10015   9.929   7.619   4.160  0.4747 -1.8593  0.9465
  815MOL0     H10016  10.034   7.721   4.261 -0.4246 -0.5189  0.3202
  815MOL0     H10017  10.000   7.740   3.958  1.0720 -1.8383  0.5603
  815MOL0     H10018  10.134   7.804   4.055  1.1578 -2.7370  1.1512
  815MOL0     H10019   9.982   7.970   4.177 -1.4803 -0.4663  1.7382
  815MOL0     H10020   9.840   7.878   4.122 -0.7389 -0.6634 -5.2875
  815MOL0     H10021   9.868   8.071   3.988 -0.5966 -0.5414  0.6347
  815MOL0     H10022   9.915   7.930   3.888  0.8197 -1.1653  0.3112
  815MOL0     H10023  10.248   8.126   3.825  1.5506 -3.3645  0.7936
  815MOL0     H10024   9.999   7.492   4.360  0.3570 -0.3010  0.8001
  815MOL0     H10025  10.110   7.341   4.513 -1.8926  0.1647 -0.0415
  816MOL0     O10026   2.269   8.766   6.578 -0.1550 -0.3130 -0.6081
  816MOL0     C10027   2.320   8.820   6.473  0.5215  0.6075  0.5867
  816MOL0     O10028   2.264   8.817   6.350  0.1732 -0.0744  0.0523
  816MOL0     C10029   2.145   8.748   6.346  0.6811  0.3710  0.5342
  816MOL0     C10030   2.014   8.809   6.361  0.1452 -0.6576  0.2206
  816MOL0     C10031   1.902   8.731   6.344 -0.0287 -0.2441  0.4733
  816MOL0     C10032   1.905   8.601   6.290  0.3061  0.3883  0.3275
  816MOL0     O10033   1.786   8.524   6.272 -0.0981  0.1541  0.0698
  816MOL0     C10034   1.747   8.495   6.131 -0.5758 -0.5519 -0.6117
  816MOL0     C10035   1.721   8.350   6.112 -2.1646 -0.7287  0.4578
  816MOL0     C10036   1.629   8.288   6.213  0.4127  0.5717 -0.3882
  816MOL0     C10037   1.596   8.146   6.167  0.4712  0.9864  0.1602
  816MOL0     C10038   1.493   8.126   6.050 -0.5092  0.1509 -0.6654
  816MOL0     C10039   1.467   7.988   5.990 -0.6232 -0.5386  0.1743
  816MOL0     C10040   1.468   7.854   6.072  0.7666 -0.1709  0.5874
  816MOL0     C10041   1.604   7.786   6.119  0.0319  0.2854  1.5825
  816MOL0     N10042   1.585   7.671   6.211  0.2846 -0.1575 -0.1261
  816MOL0     C10043   1.644   7.661   6.335  0.3726 -0.4941  0.8959
  816MOL0     C10044   1.621   7.529   6.362  0.0303  0.3854 -0.7510
  816MOL0     C10045   1.662   7.453   6.480  0.0934  0.4451 -0.6988
  816MOL0     C10046   1.819   7.442   6.509 -0.0642  1.0665  0.3473
  816MOL0     C10047   1.901   7.375   6.394  0.5561 -0.2985  0.0844
  816MOL0     C10048   2.051   7.359   6.425 -0.3789  1.0683 -0.5489
  816MOL0     O10049   2.104   7.297   6.308  0.1227 -0.1999  0.4971
  816MOL0     C10050   2.163   7.369   6.203 -0.1539  0.1777 -0.5330
  816MOL0     C10051   2.176   7.300   6.086  0.7769  0.3718 -0.0446
  816MOL0     C10052   2.225   7.360   5.965 -1.2932  0.0816  0.5352
  816MOL0     C10053   2.219   7.285   5.834  0.4244  0.5606  0.5420
  816MOL0     C10054   2.284   7.496   5.973  1.0749  0.7640 -0.7076
  816MOL0     C10055   2.352   7.553   5.858  0.6579 -0.0395 -0.3011
  816MOL0     O10056   2.343   7.686   5.838 -0.5088 -0.8891 -0.1968
  816MOL0     C10057   2.381   7.740   5.713  0.0055  0.4188 -0.1956
  816MOL0     C10058   2.282   7.747   5.615  0.5383  0.2621 -1.2278
  816MOL0     C10059   2.317   7.785   5.487 -0.7242 -0.2857  0.0410
  816MOL0     C10060   2.445   7.833   5.462 -0.3317  0.1250 -0.4303
  816MOL0     O10061   2.470   7.887   5.342 -0.3364  0.6446  0.0166
  816MOL0     C10062   2.608   7.891   5.302 -0.7223 -0.3083  0.4069
  816MOL0     C10063   2.608   7.944   5.161  0.1065 -0.3536  0.1315
  816MOL0     C10064   2.578   8.096   5.153 -0.0039 -0.4671 -1.0518
  816MOL0     C10065   2.511   8.135   5.023 -0.0314 -0.8314 -0.8354
  816MOL0     C10066   2.465   8.284   5.008  1.1914 -0.2784 -0.2806
  816MOL0     C10067   2.576   8.372   5.062  0.0521  0.0956  1.0030
  816MOL0     C10068   2.558   8.523   5.035 -0.7778  0.4420  0.4614
  816MOL0     C10069   2.458   8.590   5.128 -0.9197  0.5332  0.5449
  816MOL0    Cl10070   2.310   8.600   5.030  0.6518 -0.1473  0.0250
  816MOL0     C10071   2.541   7.838   5.567 -0.6233  0.5486  1.1606
  816MOL0     C10072   2.511   7.785   5.692  1.2549 -0.0166 -0.2564
  816MOL0     O10073   2.436   7.477   5.800  0.2433 -0.3908  0.4264
  816MOL0     C10074   2.264   7.563   6.094 -0.2979 -0.7424  0.3314
  816MOL0     C10075   2.213   7.499   6.214 -0.1329  0.7123  0.8920
  816MOL0     N10076   1.554   7.465   6.262  0.0968 -0.3260 -0.3909
  816MOL0     N10077   1.542   7.551   6.165  0.7007  0.3964 -0.4230
  816MOL0     C10078   2.026   8.548   6.258  0.2883  1.0985  0.6672
  816MOL0     C10079   2.144   8.615   6.293  0.1943  0.1306  0.5362
  816MOL0     C10080   2.456   8.878   6.485  1.1392 -0.8947 -0.6327
  816MOL0     C10081   2.479   8.923   6.611  0.8497 -0.7347  0.7849
  816MOL0     C10082   2.607   8.979   6.623  0.3049 -0.5703 -0.2719
  816MOL0     C10083   2.710   8.980   6.525 -0.2329  0.6681  0.4022
  816MOL0     O10084   2.837   9.025   6.559 -0.6810 -0.3174 -0.1746
  816MOL0     C10085   2.942   8.979   6.469 -0.9451  0.6699  0.1917
  816MOL0     C10086   3.072   9.030   6.523  0.4056  1.4381  0.3081
  816MOL0     C10087   3.059   9.184   6.523 -0.7609  0.3671 -0.2232
  816MOL0     C10088   3.200   9.240   6.526 -0.2849  0.3151 -0.0124
  816MOL0     C10089   3.279   9.183   6.643 -0.6290 -0.5287 -0.6426
  816MOL0     C10090   3.359   9.150   6.728 -0.0242 -0.4225 -0.3184
  816MOL0     C10091   2.670   8.930   6.400  0.5308 -0.3044  0.5329
  816MOL0     C10092   2.543   8.880   6.373  0.3059 -0.2777 -0.0714
  816MOL0     H10093   2.001   8.912   6.395  0.2537 -0.2647 -0.8813
  816MOL0     H10094   1.805   8.773   6.366 -0.5125 -0.0257 -1.8700
  816MOL0     H10095   1.656   8.550   6.107  0.9238  1.4782 -2.0727
  816MOL0     H10096   1.819   8.526   6.054 -1.0572  1.4082 -0.3242
  816MOL0     H10097   1.676   8.333   6.013  1.2509 -1.3581 -1.1204
  816MOL0     H10098   1.823   8.313   6.105 -1.9865 -0.0253 -4.2388
  816MOL0     H10099   1.679   8.281   6.309  1.8158  0.3440 -1.1083
  816MOL0     H10100   1.536   8.345   6.217  0.0876 -0.0362  1.9615
  816MOL0     H10101   1.689   8.103   6.130 -1.0027 -1.4620 -0.9916
  816MOL0     H10102   1.552   8.092   6.251 -1.6560 -2.6484 -2.9443
  816MOL0     H10103   1.397   8.149   6.097 -1.3867 -0.0774 -2.2992
  816MOL0     H10104   1.506   8.192   5.964 -0.7865 -4.5943 -4.7970
  816MOL0     H10105   1.374   7.991   5.932 -1.4824 -0.2660  1.5052
  816MOL0     H10106   1.544   7.977   5.914 -1.1248  3.0429 -1.0205
  816MOL0     H10107   1.406   7.862   6.162 -3.6086  4.1041 -2.2866
  816MOL0     H10108   1.421   7.782   6.004  3.3984 -1.9790  0.5493
  816MOL0     H10109   1.666   7.859   6.171  1.6108 -1.4827  2.3019
  816MOL0     H10110   1.655   7.756   6.026  0.6309  1.1969  1.6075
  816MOL0     H10111   1.683   7.737   6.402 -1.1176 -2.0762  3.7375
  816MOL0     H10112   1.626   7.509   6.567  4.1793  1.3340  0.6412
  816MOL0     H10113   1.623   7.351   6.483  1.5792 -0.1321 -0.1498
  816MOL0     H10114   1.854   7.401   6.604  2.1217  1.7129 -0.1187
  816MOL0     H10115   1.850   7.547   6.517  2.1563  0.4296  0.6179
  816MOL0     H10116   1.893   7.452   6.316  2.9509 -2.7093 -2.8006
  816MOL0     H10117   1.859   7.282   6.355  1.5388 -0.5744 -0.3529
  816MOL0     H10118   2.067   7.285   6.504 -0.5346  0.5411 -1.0064
  816MOL0     H10119   2.095   7.452   6.463  0.3363 -0.1799  1.9166
  816MOL0     H10120   2.126   7.204   6.089 -2.0666  1.5303 -3.4493
  816MOL0     H10121   2.139   7.211   5.832  1.3699 -0.4557 -0.0030
  816MOL0     H10122   2.214   7.359   5.754  0.3314  1.0152  0.9599
  816MOL0     H10123   2.311   7.228   5.820 -1.1266 -2.2078  1.0245
  816MOL0     H10124   2.190   7.698   5.647  0.3555  1.7909  0.7569
  816MOL0     H10125   2.243   7.802   5.410 -0.6574  2.5966  0.5046
  816MOL0     H10126   2.665   7.964   5.359 -1.5540 -0.1551  1.0653
  816MOL0     H10127   2.654   7.793   5.314  2.0183  0.8020 -0.4005
  816MOL0     H10128   2.691   7.907   5.100 -0.6527 -2.9221  0.5333
  816MOL0     H10129   2.523   7.895   5.113  0.4614 -3.2090  2.1941
  816MOL0     H10130   2.675   8.148   5.146 -0.3504  0.4231  0.3775
  816MOL0     H10131   2.531   8.133   5.245  0.9948 -0.7652 -0.4052
  816MOL0     H10132   2.571   8.107   4.935 -0.3422 -2.8417 -0.4581
  816MOL0     H10133   2.415   8.084   5.009 -0.8760  0.4422  0.1493
  816MOL0     H10134   2.382   8.305   5.077  1.2764 -0.8035 -0.0058
  816MOL0     H10135   2.428   8.297   4.906  0.3457 -0.1620  0.0347
  816MOL0     H10136   2.598   8.358   5.168  2.3153 -2.1873  0.3364
  816MOL0     H10137   2.672   8.348   5.016  1.9905  1.5488  3.9519
  816MOL0     H10138   2.533   8.528   4.929  0.2676  2.0546  0.2555
  816MOL0     H10139   2.651   8.578   5.052  0.5178 -1.5198  0.0703
  816MOL0     H10140   2.486   8.689   5.166 -0.0125 -0.2219  1.9055
  816MOL0     H10141   2.446   8.533   5.220  2.5276 -0.4970  0.5018
  816MOL0     H10142   2.636   7.887   5.548 -0.5846  0.4606  1.1286
  816MOL0     H10143   2.583   7.764   5.771 -0.0159  0.2933  1.0272
  816MOL0     H10144   2.316   7.657   6.106  0.2098 -1.1026  1.0644
  816MOL0     H10145   2.215   7.551   6.310 -1.1026  2.9452 -0.2306
  816MOL0     H10146   2.028   8.444   6.227 -0.2761  1.1499  0.4320
  816MOL0     H10147   2.232   8.554   6.275  0.1445 -0.6920  2.7546
  816MOL0     H10148   2.405   8.909   6.690  0.5059  3.4328  1.4634
  816MOL0     H10149   2.626   9.028   6.718  1.8857  0.1201 -0.9203
  816MOL0     H10150   2.944   8.873   6.446 -0.2416  1.1002 -1.9387
  816MOL0     H10151   2.925   9.024   6.371  0.1038 -0.7896 -0.6983
  816MOL0     H10152   3.148   8.990   6.455  0.6268  0.1851  1.2493
  816MOL0     H10153   3.086   8.987   6.622 -1.7849 -0.4340 -0.1015
  816MOL0     H10154   3.009   9.220   6.613 -0.7441 -0.2958  0.0585
  816MOL0     H10155   3.008   9.213   6.431  3.7761  3.4771 -2.1728
  816MOL0     H10156   3.194   9.349   6.527 -2.0416  0.2463  1.1917
  816MOL0     H10157   3.259   9.209   6.439  2.0828  0.8634  1.3103
  816MOL0     H10158   3.422   9.116   6.808 -1.9717 -2.9667  0.2861
  816MOL0     H10159   2.725   8.929   6.307 -1.6340 -2.3891 -0.8476
  816MOL0     H10160   2.504   8.846   6.278  1.8757 -2.0354 -0.1514
  817MOL0     O10161   9.243   7.527  10.032 -0.7226  0.0724  0.5710
  817MOL0     C10162   9.225   7.603  10.120  0.4368  0.1820 -1.0112
  817MOL0     O10163   9.301   7.707  10.167  0.5251  0.1206 -0.4096
  817MOL0     C10164   9.417   7.733  10.106  0.0894 -0.0391  1.2071
  817MOL0     C10165   9.426   7.738   9.965 -0.2293 -0.4782 -0.6098
  817MOL0     C10166   9.551   7.760   9.910 -0.7382 -0.6216 -0.2130
  817MOL0     C10167   9.665   7.776   9.989 -0.1341 -0.1765  0.0279
  817MOL0     O10168   9.776   7.807   9.912 -0.3321 -0.0107  0.2250
  817MOL0     C10169   9.866   7.915   9.975 -0.7584  0.6814  1.1705
  817MOL0     C10170   9.821   8.044   9.912  0.3681  0.2906  0.9529
  817MOL0     C10171   9.896   8.171   9.952 -0.3004  0.0855 -0.4006
  817MOL0     C10172  10.051   8.155   9.954 -0.2823  0.8046  0.4288
  817MOL0     C10173  10.118   8.287   9.978  0.2502  0.3266  0.3877
  817MOL0     C10174  10.109   8.398   9.861 -0.4818  0.6352  0.3865
  817MOL0     C10175  10.204   8.366   9.746 -0.2254 -0.0121  0.3315
  817MOL0     C10176  10.204   8.481   9.648  0.8758 -0.3472  0.4227
  817MOL0     N10177  10.325   8.464   9.559 -0.4759 -0.7576  0.1146
  817MOL0     C10178  10.319   8.488   9.424  0.3633 -0.4495  0.2504
  817MOL0     C10179  10.446   8.476   9.380 -0.6435  0.5491  0.2874
  817MOL0     C10180  10.510   8.496   9.245 -0.0666 -0.5089  0.8444
  817MOL0     C10181  10.401   8.468   9.140  0.5421 -0.0622  0.5074
  817MOL0     C10182  10.451   8.415   9.001 -0.6553  0.2509  1.1800
  817MOL0     C10183  10.337   8.377   8.911  0.7379  0.1004  0.4045
  817MOL0     O10184  10.306   8.239   8.936  0.3446  0.2796  0.0983
  817MOL0     C10185  10.174   8.207   8.972  0.2597 -0.3091  0.2822
  817MOL0     C10186  10.120   8.099   8.912 -0.0896  0.5590 -0.1891
  817MOL0     C10187   9.992   8.043   8.942 -0.4121  0.2851 -0.2625
  817MOL0     C10188   9.949   7.913   8.876  0.3203 -0.9749  0.5091
  817MOL0     C10189   9.917   8.119   9.038  0.4505 -1.0477 -0.0898
  817MOL0     C10190   9.778   8.081   9.076 -0.6419  0.0599 -0.0054
  817MOL0     O10191   9.743   7.954   9.080 -0.6855 -0.7284  0.7535
  817MOL0     C10192   9.794   7.881   9.184  0.5072 -0.7973 -0.0374
  817MOL0     C10193   9.897   7.925   9.270 -0.1256  0.6800 -0.7188
  817MOL0     C10194   9.941   7.835   9.374 -0.2154 -0.3964  0.4264
  817MOL0     C10195   9.883   7.709   9.393 -0.6076 -0.3946 -0.3922
  817MOL0     O10196   9.949   7.636   9.489 -0.1467  0.3560 -0.6309
  817MOL0     C10197   9.879   7.529   9.554 -0.2299  0.8381  0.0498
  817MOL0     C10198   9.895   7.536   9.701  0.2584 -0.0665  0.8205
  817MOL0     C10199   9.814   7.432   9.773 -0.7593 -0.0574 -0.7601
  817MOL0     C10200   9.831   7.446   9.922 -0.9505  0.5265 -0.0891
  817MOL0     C10201   9.747   7.326   9.998  0.2898 -0.3319  0.6262
  817MOL0     C10202   9.755   7.310  10.155  0.6678  0.0404  0.6819
  817MOL0     C10203   9.609   7.288  10.203  0.3453 -0.4240 -0.5756
  817MOL0     C10204   9.583   7.286  10.362 -0.1705 -0.0914  0.3230
  817MOL0    Cl10205   9.555   7.447  10.424  0.6256  0.2156  0.3885
  817MOL0     C10206   9.796   7.664   9.303 -0.6629 -0.6361  0.7869
  817MOL0     C10207   9.742   7.755   9.208 -0.7450  0.7174 -0.0270
  817MOL0     O10208   9.702   8.167   9.105  0.1793 -0.3953 -0.8257
  817MOL0     C10209   9.975   8.231   9.106  0.0914  0.1107  0.3171
  817MOL0     C10210  10.095   8.282   9.064  0.7510 -0.0522  0.0120
  817MOL0     N10211  10.527   8.450   9.496 -0.1255 -0.7380  1.0208
  817MOL0     N10212  10.454   8.449   9.598  0.4820  0.3909 -0.1329
  817MOL0     C10213   9.657   7.766  10.126 -0.2421 -0.0868 -0.1723
  817MOL0     C10214   9.527   7.757  10.186 -0.9351  0.3398  0.0379
  817MOL0     C10215   9.097   7.586  10.195 -0.0029  0.5388  0.7333
  817MOL0     C10216   9.044   7.698  10.260 -0.1191 -1.1244 -0.2311
  817MOL0     C10217   8.908   7.689  10.309  0.6037 -0.3233  0.5087
  817MOL0     C10218   8.834   7.569  10.318  0.3893  0.1159  0.0752
  817MOL0     O10219   8.709   7.581  10.373  0.6442 -0.2168  0.7948
  817MOL0     C10220   8.623   7.463  10.369 -0.6180 -0.6402  0.1363
  817MOL0     C10221   8.632   7.371  10.493 -0.1751  0.0909  0.3131
  817MOL0     C10222   8.523   7.261  10.502 -0.2387  0.1425 -1.1986
  817MOL0     C10223   8.484   7.228  10.645 -0.1468 -1.1164  0.4108
  817MOL0     C10224   8.423   7.105  10.639 -0.4303  0.2851 -0.4029
  817MOL0     C10225   8.378   6.997  10.633  0.0008  0.9295 -0.0868
  817MOL0     C10226   8.902   7.453  10.262 -0.5038  0.7183 -0.4485
  817MOL0     C10227   9.023   7.465  10.201  0.3304  0.3520 -1.0706
  817MOL0     H10228   9.337   7.734   9.903  0.7332  3.0171 -2.4801
  817MOL0     H10229   9.566   7.761   9.803  4.0479  0.1878  0.2305
  817MOL0     H10230   9.857   7.913  10.084 -0.0212 -4.9182  1.4238
  817MOL0     H10231   9.973   7.896   9.960 -0.9723 -0.4828  1.0048
  817MOL0     H10232   9.856   8.038   9.808 -1.2385  2.6593  0.1802
  817MOL0     H10233   9.713   8.060   9.913 -0.3181 -1.3285 -5.1309
  817MOL0     H10234   9.861   8.262   9.904 -1.3992  0.1163  0.4201
  817MOL0     H10235   9.866   8.182  10.057  0.3298  0.5163 -0.2568
  817MOL0     H10236  10.073   8.088  10.038 -2.4861  1.1869  1.3737
  817MOL0     H10237  10.084   8.111   9.860 -1.9157  1.4227 -0.4554
  817MOL0     H10238  10.060   8.330  10.060 -2.0115 -2.1259  0.2363
  817MOL0     H10239  10.221   8.273  10.011 -0.1902 -1.5291  1.1214
  817MOL0     H10240  10.004   8.408   9.833 -0.1656  2.6500 -0.2500
  817MOL0     H10241  10.136   8.492   9.909 -0.9709  0.3999  1.1594
  817MOL0     H10242  10.305   8.349   9.785  0.5848  1.9156 -0.7689
  817MOL0     H10243  10.176   8.279   9.685 -2.3368  0.4660  0.5438
  817MOL0     H10244  10.213   8.584   9.684  0.0884  0.0541 -0.4882
  817MOL0     H10245  10.115   8.482   9.584 -0.0840  1.7306  1.6924
  817MOL0     H10246  10.233   8.512   9.362  2.6445  0.2988 -2.8747
  817MOL0     H10247  10.543   8.597   9.217  0.5024  0.1056  3.4658
  817MOL0     H10248  10.602   8.438   9.235  0.9934  1.0121  1.3739
  817MOL0     H10249  10.339   8.555   9.117 -2.5888 -2.6062 -1.5158
  817MOL0     H10250  10.333   8.390   9.176 -0.1538  0.5931  0.6304
  817MOL0     H10251  10.507   8.323   9.017 -0.5706  0.0898  0.0258
  817MOL0     H10252  10.518   8.486   8.952 -2.3522 -0.7306 -2.9593
  817MOL0     H10253  10.379   8.393   8.811 -0.9674 -2.1330 -0.7447
  817MOL0     H10254  10.253   8.446   8.930  0.8234  0.4478 -0.4586
  817MOL0     H10255  10.192   8.047   8.849 -2.4692 -2.2739 -0.8335
  817MOL0     H10256   9.987   7.833   8.939  3.2771 -3.1616 -3.5442
  817MOL0     H10257   9.846   7.921   8.842  0.9675 -2.2163 -2.0289
  817MOL0     H10258  10.009   7.912   8.784  2.4116  1.9073  1.6742
  817MOL0     H10259   9.952   8.017   9.252  0.7722  0.2792 -0.0767
  817MOL0     H10260  10.028   7.857   9.435  1.7575  2.5325 -2.9642
  817MOL0     H10261   9.773   7.521   9.527 -0.5315 -2.0460  1.6334
  817MOL0     H10262   9.921   7.431   9.530  0.4822  0.6144  2.0088
  817MOL0     H10263   9.999   7.521   9.732  1.1244  1.7891 -0.9688
  817MOL0     H10264   9.858   7.637   9.721 -1.5205 -0.0885 -1.8614
  817MOL0     H10265   9.858   7.340   9.734 -1.3366 -0.9469  0.6222
  817MOL0     H10266   9.706   7.431   9.751 -0.8379  2.3037 -0.7771
  817MOL0     H10267   9.934   7.460   9.955 -1.3253  3.5409  0.0351
  817MOL0     H10268   9.788   7.546   9.934 -0.7679  0.7270 -1.0257
  817MOL0     H10269   9.751   7.222   9.966 -3.6298 -1.0564  2.0385
  817MOL0     H10270   9.645   7.362   9.985  0.7458  0.4036 -1.2093
  817MOL0     H10271   9.813   7.220  10.178  0.2631 -0.3110  0.3386
  817MOL0     H10272   9.785   7.404  10.202  0.8594  0.5862 -0.5087
  817MOL0     H10273   9.587   7.186  10.168  2.6980 -0.8903 -0.9113
  817MOL0     H10274   9.543   7.360  10.154 -1.0259 -0.6308  0.9056
  817MOL0     H10275   9.662   7.239  10.420 -0.0642  0.0537  0.2969
  817MOL0     H10276   9.505   7.213  10.385 -1.6033  1.3942  0.3246
  817MOL0     H10277   9.761   7.562   9.302 -0.4155 -0.7811 -1.9846
  817MOL0     H10278   9.676   7.729   9.125  0.5222  1.9963 -1.5054
  817MOL0     H10279   9.928   8.275   9.193  0.2295 -2.4512  1.8033
  817MOL0     H10280  10.123   8.375   9.112 -3.3426  0.5529  1.6300
  817MOL0     H10281   9.751   7.766  10.181  2.1580 -0.2528 -3.9693
  817MOL0     H10282   9.523   7.749  10.294 -2.6864 -1.8259 -0.1019
  817MOL0     H10283   9.096   7.793  10.260  1.5872 -2.0255 -0.1471
  817MOL0     H10284   8.853   7.771  10.352  2.6787  0.9331  0.8974
  817MOL0     H10285   8.524   7.505  10.351  1.0374  2.5349 -2.6163
  817MOL0     H10286   8.644   7.419  10.271  2.9940  0.4293  0.2666
  817MOL0     H10287   8.626   7.427  10.586 -0.7861  1.3746 -0.4671
  817MOL0     H10288   8.733   7.331  10.502 -0.8237 -1.7261 -0.1088
  817MOL0     H10289   8.569   7.180  10.444  2.2249  1.3850 -1.1078
  817MOL0     H10290   8.434   7.287  10.444 -0.5954  1.2292 -0.2039
  817MOL0     H10291   8.412   7.305  10.674 -1.9238 -2.2597 -0.8002
  817MOL0     H10292   8.571   7.224  10.712  0.9447  0.9126 -0.8005
  817MOL0     H10293   8.342   6.896  10.633  3.6911 -0.5480  0.1577
  817MOL0     H10294   8.854   7.356  10.259 -1.0839  0.8993  1.6157
  817MOL0     H10295   9.078   7.379  10.164  2.0630  0.7972  0.3207
  818MOL0     O10296   3.032   7.173   3.874  0.0225  0.7174  0.4219
  818MOL0     C10297   3.013   7.253   3.964  0.0181 -0.0797 -0.8584
  818MOL0     O10298   3.068   7.372   3.973  0.4697  0.3731 -0.4031
  818MOL0     C10299   3.133   7.437   3.870  0.4986  0.4021  0.6155
  818MOL0     C10300   3.075   7.535   3.791  0.6131  0.5743 -0.8405
  818MOL0     C10301   3.146   7.610   3.702 -0.2735 -0.4180  0.9736
  818MOL0     C10302   3.283   7.575   3.687  0.1984 -0.6716 -0.3143
  818MOL0     O10303   3.362   7.646   3.598 -1.1524 -0.6816 -0.0757
  818MOL0     C10304   3.503   7.655   3.622  0.2560  0.0801 -0.6612
  818MOL0     C10305   3.578   7.758   3.537 -0.2761 -0.3473  0.8215
  818MOL0     C10306   3.587   7.721   3.381  0.4789 -0.4210 -0.1645
  818MOL0     C10307   3.737   7.725   3.334 -0.3853  0.5523 -0.6273
  818MOL0     C10308   3.774   7.881   3.318  0.1325  0.6324  1.4512
  818MOL0     C10309   3.908   7.892   3.242  0.0764  0.4808 -0.0031
  818MOL0     C10310   3.969   8.029   3.248 -0.2012 -0.3607  0.4056
  818MOL0     C10311   4.093   8.048   3.155 -0.5581  1.3704 -0.8165
  818MOL0     N10312   4.178   8.165   3.178 -0.1332 -0.2329  0.3233
  818MOL0     C10313   4.128   8.279   3.242 -0.0462  0.1151 -0.3381
  818MOL0     C10314   4.239   8.358   3.239  0.1918 -0.0948 -0.1517
  818MOL0     C10315   4.258   8.502   3.293  0.1162  0.4996 -0.7061
  818MOL0     C10316   4.233   8.596   3.182  0.3142 -0.0458  1.4413
  818MOL0     C10317   4.098   8.586   3.109 -1.3243  0.3701  0.2983
  818MOL0     C10318   4.082   8.718   3.034  1.1784  0.8338 -1.1967
  818MOL0     O10319   4.169   8.737   2.937  0.6537 -1.0051  0.7893
  818MOL0     C10320   4.177   8.639   2.841  0.9621 -0.5212 -0.9490
  818MOL0     C10321   4.300   8.581   2.824  0.2819  0.0299  0.3876
  818MOL0     C10322   4.312   8.479   2.727 -0.3857 -0.1828 -1.3565
  818MOL0     C10323   4.446   8.408   2.721 -1.0920  1.0437  0.3072
  818MOL0     C10324   4.197   8.448   2.648 -0.0935  0.1784 -0.0423
  818MOL0     C10325   4.212   8.358   2.530  0.3771 -0.5037 -1.2100
  818MOL0     O10326   4.087   8.280   2.523 -0.8079 -0.3911  0.5382
  818MOL0     C10327   4.059   8.189   2.429 -0.6327  0.9817 -0.2897
  818MOL0     C10328   4.147   8.119   2.346  0.0080  0.1880  0.1241
  818MOL0     C10329   4.095   8.033   2.243  0.9538 -0.4264  0.2046
  818MOL0     C10330   3.957   8.009   2.234  0.5481  0.3669  0.0900
  818MOL0     O10331   3.898   7.919   2.150  0.3325  0.2328  0.0417
  818MOL0     C10332   3.988   7.830   2.077  0.6712  0.9446 -0.4784
  818MOL0     C10333   3.894   7.750   1.978  0.4575 -0.6525  0.7702
  818MOL0     C10334   3.835   7.836   1.867 -0.6692  0.3097 -0.5895
  818MOL0     C10335   3.735   7.751   1.784  1.2149 -0.1663 -0.1828
  818MOL0     C10336   3.677   7.813   1.659  0.4934  0.5208 -0.3072
  818MOL0     C10337   3.523   7.810   1.650 -0.6447  0.0812  0.3986
  818MOL0     C10338   3.464   7.675   1.664 -0.3425 -0.8298 -0.0606
  818MOL0     C10339   3.509   7.580   1.545 -0.6363 -0.3301  0.0941
  818MOL0    Cl10340   3.395   7.445   1.534 -0.1358 -0.1490  0.4588
  818MOL0     C10341   3.874   8.057   2.337  0.8251  0.4345  0.4555
  818MOL0     C10342   3.929   8.150   2.428 -0.5415 -0.0264  0.0058
  818MOL0     O10343   4.301   8.366   2.444  0.3534 -0.6354  0.0631
  818MOL0     C10344   4.078   8.518   2.671 -0.4127 -1.0016 -0.0950
  818MOL0     C10345   4.061   8.603   2.776  0.1489 -0.5516 -0.2385
  818MOL0     N10346   4.347   8.289   3.185  0.7421 -0.3884  0.3913
  818MOL0     N10347   4.306   8.177   3.148  0.0940 -0.7884  0.4010
  818MOL0     C10348   3.343   7.473   3.762 -0.2271  0.8666  1.0811
  818MOL0     C10349   3.264   7.404   3.848 -0.9584 -0.1163 -0.6710
  818MOL0     C10350   2.929   7.199   4.079  0.9612  0.0755  0.1482
  818MOL0     C10351   2.936   7.260   4.208  0.2659  1.6348 -0.2903
  818MOL0     C10352   2.868   7.206   4.320 -0.1637  0.0853  0.7771
  818MOL0     C10353   2.774   7.111   4.298  0.9099 -0.7125  0.5472
  818MOL0     O10354   2.708   7.060   4.416  0.3944  0.0170 -0.6324
  818MOL0     C10355   2.700   6.917   4.436 -0.1453  0.8444 -0.3764
  818MOL0     C10356   2.564   6.881   4.493  0.5179 -0.3063 -0.8182
  818MOL0     C10357   2.541   6.732   4.467  0.0244  0.4839 -0.7369
  818MOL0     C10358   2.385   6.709   4.499 -0.1116 -0.2394 -0.9283
  818MOL0     C10359   2.329   6.598   4.425  0.7010 -0.4511  0.9783
  818MOL0     C10360   2.282   6.496   4.381  0.5706 -0.2113 -0.2657
  818MOL0     C10361   2.745   7.057   4.168 -0.1133 -0.1902  0.5369
  818MOL0     C10362   2.826   7.106   4.058  0.1905 -0.7809  0.6807
  818MOL0     H10363   2.977   7.568   3.826 -0.4841 -1.9695 -1.2846
  818MOL0     H10364   3.096   7.691   3.649 -0.4210  1.2986  3.5105
  818MOL0     H10365   3.522   7.675   3.728 -1.3715  2.1834 -0.7005
  818MOL0     H10366   3.550   7.558   3.610 -2.1953 -1.5295  1.4951
  818MOL0     H10367   3.518   7.849   3.547 -0.0213  0.3544 -2.7494
  818MOL0     H10368   3.680   7.760   3.576  1.0913 -2.5568 -2.2746
  818MOL0     H10369   3.555   7.616   3.380  1.3973 -0.7114  0.0504
  818MOL0     H10370   3.522   7.791   3.327 -2.2171 -1.1213  1.9406
  818MOL0     H10371   3.806   7.663   3.393 -0.8279 -1.1825 -1.8564
  818MOL0     H10372   3.724   7.663   3.245 -2.0392  1.2120 -0.8741
  818MOL0     H10373   3.700   7.927   3.251  1.5792 -0.9997 -1.4880
  818MOL0     H10374   3.773   7.930   3.416  0.7449 -1.2226  2.4187
  818MOL0     H10375   3.968   7.811   3.283  1.4790  1.2779 -0.4177
  818MOL0     H10376   3.901   7.863   3.137  2.8770 -0.8329  0.0999
  818MOL0     H10377   3.901   8.108   3.213 -1.6267 -0.8297  2.0151
  818MOL0     H10378   3.995   8.054   3.351  1.5036  0.1923 -0.1199
  818MOL0     H10379   4.066   8.037   3.050 -0.0220  1.4088 -0.9597
  818MOL0     H10380   4.153   7.962   3.187 -2.8593 -0.1063 -0.2398
  818MOL0     H10381   4.032   8.286   3.291  0.6396 -0.9316  1.2629
  818MOL0     H10382   4.197   8.532   3.380 -1.0269 -1.7303 -0.6562
  818MOL0     H10383   4.362   8.501   3.325 -0.8206 -1.7358  2.8707
  818MOL0     H10384   4.316   8.571   3.116  2.0888  3.5661  2.0934
  818MOL0     H10385   4.248   8.698   3.218 -0.1297  0.3969  0.4212
  818MOL0     H10386   4.019   8.566   3.181 -2.3522 -3.1923 -1.5738
  818MOL0     H10387   4.099   8.500   3.041 -3.5989  1.0427 -0.6771
  818MOL0     H10388   4.091   8.796   3.109 -0.2481 -0.7186  0.6937
  818MOL0     H10389   3.980   8.721   2.995 -0.6619  0.7875  3.1007
  818MOL0     H10390   4.376   8.633   2.881 -2.0543  2.6706  1.3321
  818MOL0     H10391   4.450   8.333   2.801  0.4394  0.1469 -0.5469
  818MOL0     H10392   4.464   8.350   2.630 -0.2592 -0.4668  1.3814
  818MOL0     H10393   4.522   8.486   2.734  0.3844 -0.4989  1.3665
  818MOL0     H10394   4.255   8.134   2.349 -0.0038  1.6775 -2.8983
  818MOL0     H10395   4.167   7.996   2.170  0.2731  0.8746 -1.1899
  818MOL0     H10396   4.065   7.877   2.014  0.9433 -2.1080 -2.6136
  818MOL0     H10397   4.032   7.763   2.151 -0.8451  2.0934  1.5800
  818MOL0     H10398   3.950   7.666   1.937 -0.4345  0.8785 -4.2827
  818MOL0     H10399   3.812   7.710   2.038  1.5655 -3.3810  0.6035
  818MOL0     H10400   3.907   7.879   1.796 -0.0950 -1.9832 -1.4760
  818MOL0     H10401   3.793   7.930   1.904  1.7365  0.2057  2.8688
  818MOL0     H10402   3.774   7.656   1.746  2.0273  1.5061 -4.0169
  818MOL0     H10403   3.660   7.723   1.857  2.7275 -1.0894  1.0689
  818MOL0     H10404   3.720   7.752   1.578 -3.6479 -3.9971  0.3596
  818MOL0     H10405   3.704   7.918   1.653 -0.2082  0.8888  2.0540
  818MOL0     H10406   3.468   7.881   1.713  0.1254  2.0077 -1.0100
  818MOL0     H10407   3.505   7.846   1.549 -0.3723 -0.4272  0.1676
  818MOL0     H10408   3.357   7.691   1.646 -0.2746  0.5353  0.6418
  818MOL0     H10409   3.481   7.621   1.758 -2.2074 -0.3291  0.6131
  818MOL0     H10410   3.608   7.539   1.570 -0.9000 -0.6985  0.5495
  818MOL0     H10411   3.516   7.636   1.452  5.4139  1.1383  1.0022
  818MOL0     H10412   3.766   8.046   2.341  0.7614  1.3483  3.1752
  818MOL0     H10413   3.871   8.203   2.502  1.3345  1.9154  0.1699
  818MOL0     H10414   3.989   8.493   2.613  0.8093 -1.4292 -1.8604
  818MOL0     H10415   3.962   8.648   2.783  0.1954 -0.7367  2.6471
  818MOL0     H10416   3.449   7.456   3.745 -0.5353  0.8407 -1.1326
  818MOL0     H10417   3.311   7.332   3.914 -0.9909  2.5097  2.4897
  818MOL0     H10418   3.006   7.340   4.230 -0.2639  1.6888  1.3055
  818MOL0     H10419   2.885   7.250   4.417 -2.4994 -0.2123  1.3807
  818MOL0     H10420   2.720   6.859   4.346 -2.9860 -2.8720  1.1362
  818MOL0     H10421   2.775   6.884   4.509 -1.5116 -1.8889 -0.1124
  818MOL0     H10422   2.484   6.931   4.437 -0.3179 -0.4354  0.2274
  818MOL0     H10423   2.554   6.897   4.600 -2.5945 -2.8856 -0.5386
  818MOL0     H10424   2.607   6.666   4.525 -2.2894 -0.9432  0.4421
  818MOL0     H10425   2.568   6.714   4.363  0.9832 -0.9356 -0.2755
  818MOL0     H10426   2.329   6.800   4.474 -1.2218 -0.5917  0.1849
  818MOL0     H10427   2.370   6.705   4.608  1.0486  2.4148 -0.5774
  818MOL0     H10428   2.229   6.412   4.341 -1.3069  1.6620 -1.9753
  818MOL0     H10429   2.661   6.991   4.146 -0.9118  1.7274 -2.8295
  818MOL0     H10430   2.801   7.055   3.966  4.2682 -0.0046 -1.0686
  819MOL0     O10431   9.088   6.671   8.789  0.5634 -0.2665 -0.3454
  819MOL0     C10432   9.211   6.665   8.804 -0.6367  0.6637  0.5604
  819MOL0     O10433   9.301   6.751   8.753 -0.0071 -0.1411  1.0654
  819MOL0     C10434   9.251   6.852   8.668  0.7866 -0.0772 -0.6910
  819MOL0     C10435   9.160   6.945   8.712  0.5850  1.1342 -0.2253
  819MOL0     C10436   9.131   7.058   8.628  0.3168  0.4330 -0.3976
  819MOL0     C10437   9.174   7.066   8.500  0.9213  0.5664  0.1476
  819MOL0     O10438   9.132   7.166   8.418 -0.3472 -0.1757  1.1671
  819MOL0     C10439   9.032   7.259   8.459  0.5800 -1.3076  0.0889
  819MOL0     C10440   8.972   7.343   8.343  0.4022  0.3577 -0.4691
  819MOL0     C10441   9.060   7.454   8.310 -0.7336 -0.4407  0.8072
  819MOL0     C10442   9.208   7.424   8.258  0.6174 -1.2286  1.0150
  819MOL0     C10443   9.205   7.337   8.131 -0.0154  0.4454  0.8676
  819MOL0     C10444   9.329   7.378   8.033  0.3893 -0.7987 -0.6783
  819MOL0     C10445   9.279   7.465   7.906 -0.3060 -0.4855  1.0104
  819MOL0     C10446   9.205   7.593   7.939  0.1878 -0.8481 -0.1928
  819MOL0     N10447   9.295   7.706   7.989 -0.1965  0.3015 -0.4060
  819MOL0     C10448   9.394   7.758   7.915  0.1420  0.1052 -0.9431
  819MOL0     C10449   9.450   7.853   7.994  0.3222 -1.4314 -0.3743
  819MOL0     C10450   9.560   7.946   7.960  0.8997  0.5614 -1.1171
  819MOL0     C10451   9.566   7.990   7.819  0.8888 -0.0121  0.0122
  819MOL0     C10452   9.445   8.081   7.779  0.5959  0.2932 -1.0068
  819MOL0     C10453   9.486   8.127   7.643  0.6584 -0.9568  0.7862
  819MOL0     O10454   9.381   8.215   7.588  0.4689  0.3646 -0.1445
  819MOL0     C10455   9.401   8.283   7.474  0.8536 -0.3065  0.7512
  819MOL0     C10456   9.327   8.405   7.457  0.1327 -0.1020 -0.1191
  819MOL0     C10457   9.336   8.487   7.340  0.3042  1.0994 -1.6052
  819MOL0     C10458   9.229   8.603   7.324 -0.0590  0.5211 -0.3845
  819MOL0     C10459   9.420   8.448   7.241 -0.2661 -0.9839 -0.9459
  819MOL0     C10460   9.431   8.518   7.107 -1.3081  0.0776  0.2685
  819MOL0     O10461   9.389   8.641   7.087 -0.0498  0.0746  0.0205
  819MOL0     C10462   9.397   8.699   6.966  0.0495  0.0228  0.3906
  819MOL0     C10463   9.510   8.777   6.932 -0.5382 -0.5447 -0.3208
  819MOL0     C10464   9.502   8.845   6.816 -0.2790  0.4656 -0.4615
  819MOL0     C10465   9.397   8.827   6.720  0.6775 -0.4228  0.4346
  819MOL0     O10466   9.403   8.914   6.612  0.9403 -0.0406  0.5568
  819MOL0     C10467   9.294   8.933   6.522 -0.4319 -0.3101  0.6679
  819MOL0     C10468   9.324   8.854   6.392 -0.6093 -0.6752 -1.1715
  819MOL0     C10469   9.336   8.956   6.281 -0.3446  0.0251  1.0426
  819MOL0     C10470   9.416   8.903   6.161  0.4165 -1.0935  1.1109
  819MOL0     C10471   9.445   9.009   6.054  0.8752  0.9218 -0.4575
  819MOL0     C10472   9.514   8.958   5.926  0.2327 -0.0981 -1.2973
  819MOL0     C10473   9.524   9.077   5.835 -0.0561 -0.2018 -0.0086
  819MOL0     C10474   9.569   9.030   5.698  0.5600 -0.2953  0.0418
  819MOL0    Cl10475   9.747   8.989   5.702  0.3013 -0.0730 -0.1718
  819MOL0     C10476   9.293   8.738   6.752 -0.0779 -0.2075  0.6198
  819MOL0     C10477   9.297   8.668   6.870  0.2954 -0.0326 -0.6453
  819MOL0     O10478   9.475   8.447   7.017  0.1810  0.1135  0.3560
  819MOL0     C10479   9.487   8.325   7.253  0.1476  0.2481 -0.1132
  819MOL0     C10480   9.473   8.239   7.359  0.5918  0.7721  0.0050
  819MOL0     N10481   9.386   7.863   8.114  0.5669 -0.9870  0.1738
  819MOL0     N10482   9.297   7.767   8.113  0.2205 -0.3327  0.9792
  819MOL0     C10483   9.264   6.966   8.451  0.0304  0.1742 -0.2282
  819MOL0     C10484   9.308   6.868   8.543  1.1527  0.6762 -0.0484
  819MOL0     C10485   9.266   6.554   8.884  0.5111  1.5268 -0.9211
  819MOL0     C10486   9.402   6.513   8.890 -0.6455  0.0456  0.5081
  819MOL0     C10487   9.444   6.417   8.980 -0.9050  0.0411 -0.1751
  819MOL0     C10488   9.355   6.351   9.072 -0.1325  0.6301  0.8934
  819MOL0     O10489   9.393   6.254   9.164 -0.1095  0.4869  0.2858
  819MOL0     C10490   9.521   6.184   9.150 -0.4870  0.9562 -0.6661
  819MOL0     C10491   9.535   6.064   9.244  0.4619 -0.9838  0.1477
  819MOL0     C10492   9.544   6.116   9.383  0.6930  0.4854 -0.1305
  819MOL0     C10493   9.557   6.004   9.484 -0.6639  0.9226 -0.7658
  819MOL0     C10494   9.486   5.878   9.449  0.1074 -0.1347 -0.5813
  819MOL0     C10495   9.430   5.780   9.413  0.4872 -0.8686 -0.7569
  819MOL0     C10496   9.219   6.376   9.055  0.0110  0.1237  0.4003
  819MOL0     C10497   9.173   6.469   8.966  0.4790 -0.2418  0.3856
  819MOL0     H10498   9.134   6.937   8.817  0.4607 -4.6178 -0.4282
  819MOL0     H10499   9.073   7.136   8.676 -1.7146 -0.8566 -0.6787
  819MOL0     H10500   8.951   7.199   8.500 -1.4106  0.2412 -1.3770
  819MOL0     H10501   9.075   7.322   8.538  0.0767 -2.6727  1.4889
  819MOL0     H10502   8.960   7.273   8.260  0.7689 -1.6166  1.0448
  819MOL0     H10503   8.876   7.390   8.366 -0.3662 -1.7103  0.9095
  819MOL0     H10504   9.007   7.519   8.239  1.8795  3.7706  2.3378
  819MOL0     H10505   9.064   7.507   8.405  0.8267 -0.9873  1.0776
  819MOL0     H10506   9.254   7.521   8.238  0.0944 -0.6306  2.5479
  819MOL0     H10507   9.262   7.387   8.346 -0.4914 -1.2402  1.7161
  819MOL0     H10508   9.220   7.235   8.167  2.0998  1.2144  2.3750
  819MOL0     H10509   9.113   7.337   8.071  0.2170  0.9240  0.5002
  819MOL0     H10510   9.412   7.429   8.082  0.4946  0.8637 -2.4395
  819MOL0     H10511   9.386   7.293   7.995  2.7045 -0.2761  1.3693
  819MOL0     H10512   9.360   7.495   7.839  1.4227 -1.0797  2.7400
  819MOL0     H10513   9.219   7.396   7.846 -1.8890  1.5448  0.1531
  819MOL0     H10514   9.130   7.582   8.019 -0.2509 -0.9957 -0.6164
  819MOL0     H10515   9.158   7.627   7.846  1.0601  2.2615  0.3970
  819MOL0     H10516   9.411   7.742   7.809 -1.0594  2.4240 -1.5589
  819MOL0     H10517   9.557   8.037   8.020 -0.1514  0.0606 -0.3906
  819MOL0     H10518   9.654   7.896   7.986 -0.2724 -1.8106 -1.2128
  819MOL0     H10519   9.580   7.906   7.751 -1.1516 -1.4717  1.2572
  819MOL0     H10520   9.656   8.049   7.803  1.2021  0.8011  3.8834
  819MOL0     H10521   9.419   8.155   7.856 -3.4431 -2.7382  0.9354
  819MOL0     H10522   9.351   8.025   7.768  0.0391  0.0176  3.3903
  819MOL0     H10523   9.505   8.042   7.576 -0.2639  0.0988 -0.8701
  819MOL0     H10524   9.575   8.190   7.656 -1.2458  1.4326  3.3603
  819MOL0     H10525   9.268   8.433   7.544  0.8530 -2.3797  1.1956
  819MOL0     H10526   9.158   8.611   7.407  1.1213  1.7326  0.5324
  819MOL0     H10527   9.281   8.699   7.330  0.2434  0.3114  0.4959
  819MOL0     H10528   9.176   8.588   7.229  1.6245 -2.4553 -0.9979
  819MOL0     H10529   9.583   8.804   7.007 -3.3469 -1.0728  2.8538
  819MOL0     H10530   9.577   8.921   6.797  1.3091 -1.5437 -2.9555
  819MOL0     H10531   9.200   8.898   6.566 -2.1795  0.4368 -2.1787
  819MOL0     H10532   9.283   9.039   6.502 -0.3210 -0.6437 -1.3898
  819MOL0     H10533   9.415   8.798   6.416  0.2472 -0.2355 -3.2289
  819MOL0     H10534   9.244   8.780   6.382  0.4969 -2.4409  1.6436
  819MOL0     H10535   9.377   9.052   6.315 -0.6437  0.3763  0.4425
  819MOL0     H10536   9.238   8.965   6.233  0.5973 -0.8677 -1.2063
  819MOL0     H10537   9.507   8.851   6.194  0.2512 -0.3035  2.9669
  819MOL0     H10538   9.360   8.820   6.117  1.0472 -0.9227 -0.0435
  819MOL0     H10539   9.507   9.092   6.089  1.4711  0.9744 -1.5878
  819MOL0     H10540   9.347   9.051   6.027 -0.1380 -0.6425  0.6075
  819MOL0     H10541   9.611   8.913   5.949 -0.6964 -1.4500  0.1668
  819MOL0     H10542   9.452   8.879   5.883 -0.7744 -0.5105  0.7839
  819MOL0     H10543   9.593   9.150   5.878 -1.4462  0.2220  1.6494
  819MOL0     H10544   9.423   9.120   5.833 -0.4468 -1.1273 -1.2818
  819MOL0     H10545   9.549   9.106   5.622  2.1498  0.0837 -0.0318
  819MOL0     H10546   9.519   8.936   5.671  1.0687  0.1130 -2.6389
  819MOL0     H10547   9.206   8.722   6.689  2.3853 -3.7544 -2.2725
  819MOL0     H10548   9.222   8.594   6.897 -0.9259  1.8519  1.5061
  819MOL0     H10549   9.565   8.308   7.180  1.1477  1.9442  0.4788
  819MOL0     H10550   9.524   8.144   7.373 -0.5588  0.3847  1.8929
  819MOL0     H10551   9.299   6.964   8.349  1.3988  0.8457  0.2112
  819MOL0     H10552   9.381   6.794   8.514  1.3193  0.3234  1.2229
  819MOL0     H10553   9.483   6.564   8.840  1.1892 -0.8662  2.3993
  819MOL0     H10554   9.550   6.396   8.989 -1.3469 -1.5416  2.4811
  819MOL0     H10555   9.531   6.147   9.048  1.2985  1.3175 -0.6423
  819MOL0     H10556   9.608   6.249   9.160 -0.1315  0.5156 -0.8644
  819MOL0     H10557   9.620   5.997   9.229  2.1698  1.3980 -1.4648
  819MOL0     H10558   9.443   6.005   9.239  0.4859 -1.2225  1.9291
  819MOL0     H10559   9.449   6.168   9.399 -0.0836  0.5623 -3.9535
  819MOL0     H10560   9.627   6.186   9.395 -0.2889  1.6820 -0.1056
  819MOL0     H10561   9.545   6.038   9.587  2.4677  3.1471 -0.9879
  819MOL0     H10562   9.661   5.973   9.474 -0.4998  0.8337  0.9641
  819MOL0     H10563   9.382   5.688   9.387 -1.2298 -0.4274  0.6651
  819MOL0     H10564   9.141   6.318   9.103 -0.5740 -0.1476 -0.8422
  819MOL0     H10565   9.067   6.482   8.949  0.5002 -2.6712 -2.3988
  820MOL0     O10566   8.757   7.822   9.219  0.3102  0.5790  0.5006
  820MOL0     C10567   8.721   7.766   9.323 -0.1817  0.8186 -0.4968
  820MOL0     O10568   8.708   7.822   9.448  0.4005 -0.7343  0.1980
  820MOL0     C10569   8.758   7.945   9.471 -0.7224  0.1087 -0.1485
  820MOL0     C10570   8.675   8.048   9.484 -0.3315  0.5637 -0.8381
  820MOL0     C10571   8.727   8.169   9.534  0.1757 -0.7812 -0.6871
  820MOL0     C10572   8.869   8.188   9.542  0.9973 -0.2856  0.3198
  820MOL0     O10573   8.926   8.303   9.581 -0.1581  0.0035  0.3649
  820MOL0     C10574   8.917   8.419   9.508  0.7714 -0.5930 -0.5314
  820MOL0     C10575   9.052   8.498   9.507  0.3590  0.3189  0.2602
  820MOL0     C10576   9.167   8.425   9.426  0.6820 -0.7497  0.4338
  820MOL0     C10577   9.282   8.516   9.395 -1.3885  0.3511 -0.2963
  820MOL0     C10578   9.396   8.441   9.322 -0.0380 -0.4498 -0.1639
  820MOL0     C10579   9.497   8.541   9.280  0.7144 -0.3040 -0.9828
  820MOL0     C10580   9.614   8.462   9.220 -0.0078  0.1702  0.3329
  820MOL0     C10581   9.725   8.557   9.175 -0.5484 -0.5497  0.2276
  820MOL0     N10582   9.789   8.627   9.283  0.0393 -0.6116 -0.3308
  820MOL0     C10583   9.742   8.733   9.353  0.3381 -0.2045  0.7492
  820MOL0     C10584   9.831   8.776   9.445 -0.6134  0.0203 -1.4921
  820MOL0     C10585   9.814   8.881   9.555  0.0579  0.3504  0.7363
  820MOL0     C10586   9.910   8.832   9.671  1.2702  0.4970  0.0485
  820MOL0     C10587   9.863   8.877   9.807 -0.0825 -0.7612 -0.1216
  820MOL0     C10588   9.981   8.873   9.905 -0.7812 -0.5049 -0.0469
  820MOL0     O10589  10.070   8.969   9.897  0.2339 -0.4754  0.1829
  820MOL0     C10590  10.188   8.953   9.966 -0.0323 -0.0718  0.5026
  820MOL0     C10591  10.288   9.043   9.925 -0.1284 -0.0636 -0.0913
  820MOL0     C10592  10.421   9.016   9.990 -0.5279 -0.6072  0.0520
  820MOL0     C10593  10.528   9.092   9.924 -0.3244  0.3902  0.6032
  820MOL0     C10594  10.441   8.930  10.101 -0.1308 -0.1868  0.1967
  820MOL0     C10595  10.568   8.928  10.189 -0.0281 -0.6324 -0.3463
  820MOL0     O10596  10.620   8.810  10.246 -0.4359 -0.1852  0.0727
  820MOL0     C10597  10.728   8.826  10.335 -0.6671  0.4412 -0.0253
  820MOL0     C10598  10.716   8.775  10.465  0.1392 -0.7517 -0.1749
  820MOL0     C10599  10.815   8.797  10.564 -0.3521 -0.5613 -0.5693
  820MOL0     C10600  10.935   8.851  10.524  0.5535  0.1902 -0.7631
  820MOL0     O10601  11.037   8.844  10.617 -0.6790 -0.6668 -0.6232
  820MOL0     C10602  11.155   8.762  10.603  0.2111 -0.9619 -0.1645
  820MOL0     C10603  11.265   8.793  10.700 -0.2377 -0.2359  0.7295
  820MOL0     C10604  11.382   8.687  10.722  0.6107  0.8131  0.0966
  820MOL0     C10605  11.346   8.545  10.760  0.1819 -0.9975  0.2315
  820MOL0     C10606  11.458   8.427  10.757  0.4473  0.3689  0.0734
  820MOL0     C10607  11.550   8.446  10.872 -0.5646  0.7075 -0.8944
  820MOL0     C10608  11.667   8.348  10.859  0.4522 -0.8648  0.6516
  820MOL0     C10609  11.772   8.379  10.963  0.0358  0.1740 -0.2723
  820MOL0    Cl10610  11.910   8.289  10.934 -0.4085  0.2140 -0.2126
  820MOL0     C10611  10.949   8.892  10.393 -0.4888 -0.1635 -1.2466
  820MOL0     C10612  10.846   8.881  10.297 -0.2974  0.6114  0.4033
  820MOL0     O10613  10.601   9.046  10.218 -0.7172  1.0368  0.0248
  820MOL0     C10614  10.329   8.854  10.144  0.3482  0.4191 -0.6787
  820MOL0     C10615  10.214   8.862  10.064 -0.2465 -0.5271 -0.9139
  820MOL0     N10616   9.936   8.680   9.435  1.0361 -0.8460 -1.0667
  820MOL0     N10617   9.910   8.605   9.334 -0.0255 -0.4928 -0.3359
  820MOL0     C10618   8.953   8.084   9.519 -0.5938  0.2592  0.8850
  820MOL0     C10619   8.898   7.962   9.481  0.4228  1.3804 -0.0010
  820MOL0     C10620   8.689   7.623   9.294  0.4938 -0.7712 -0.2021
  820MOL0     C10621   8.624   7.545   9.395 -0.0909 -0.9548 -1.4457
  820MOL0     C10622   8.573   7.415   9.372  0.1831 -0.6458 -0.0972
  820MOL0     C10623   8.605   7.354   9.245  0.1123  0.2071  0.4508
  820MOL0     O10624   8.565   7.227   9.202 -0.9020  0.2783  0.1805
  820MOL0     C10625   8.452   7.168   9.263 -0.2835  0.1032 -0.1549
  820MOL0     C10626   8.331   7.147   9.181  0.5539  0.1383  0.1614
  820MOL0     C10627   8.361   7.084   9.043  0.5830 -0.0702  0.8793
  820MOL0     C10628   8.251   7.112   8.942  0.4501 -0.6232  0.1067
  820MOL0     C10629   8.127   7.055   8.985  0.2411  0.1261 -0.2945
  820MOL0     C10630   8.018   6.993   9.013 -0.4692  0.5064  0.0697
  820MOL0     C10631   8.693   7.419   9.159 -0.2281 -0.5762  0.5042
  820MOL0     C10632   8.726   7.547   9.180 -0.0144 -0.0318 -0.3585
  820MOL0     H10633   8.567   8.037   9.476 -0.4819  2.2203 -1.3715
  820MOL0     H10634   8.662   8.241   9.583  0.0078 -1.2334 -0.2429
  820MOL0     H10635   8.885   8.397   9.406 -0.1674 -2.2563  0.0822
  820MOL0     H10636   8.832   8.468   9.556  0.9656  2.0671 -2.6251
  820MOL0     H10637   9.017   8.585   9.451 -0.5577 -0.1531  0.0727
  820MOL0     H10638   9.087   8.538   9.603 -0.9839  1.3064  0.3779
  820MOL0     H10639   9.188   8.334   9.483 -1.4249 -1.0952  0.7298
  820MOL0     H10640   9.123   8.390   9.332  0.6439  2.2212 -0.7814
  820MOL0     H10641   9.256   8.607   9.340 -0.5275 -0.1207 -1.5111
  820MOL0     H10642   9.323   8.552   9.491 -0.5543  0.8371 -0.8197
  820MOL0     H10643   9.442   8.363   9.384 -0.7647  0.3785  1.5027
  820MOL0     H10644   9.361   8.387   9.234  1.1872  0.9895 -1.5937
  820MOL0     H10645   9.453   8.616   9.214  2.1284  1.6275  0.1656
  820MOL0     H10646   9.534   8.590   9.370 -0.3779 -1.3671  0.0902
  820MOL0     H10647   9.680   8.400   9.280 -2.3051 -1.2485  1.5109
  820MOL0     H10648   9.578   8.410   9.131  0.6937  1.6975 -0.9086
  820MOL0     H10649   9.682   8.630   9.106  0.8024 -1.5977 -1.8503
  820MOL0     H10650   9.795   8.506   9.108 -0.6875  1.3351 -1.4624
  820MOL0     H10651   9.643   8.768   9.328 -0.0883 -2.4324 -0.9265
  820MOL0     H10652   9.856   8.974   9.515  1.2155  0.6167  2.4432
  820MOL0     H10653   9.711   8.895   9.589  0.7861  1.1399  2.7338
  820MOL0     H10654  10.010   8.870   9.646  2.4225 -1.9460  0.6647
  820MOL0     H10655   9.924   8.724   9.677  2.7218  0.6914  0.6025
  820MOL0     H10656   9.801   8.792   9.835  1.0912 -2.3032 -1.9251
  820MOL0     H10657   9.809   8.971   9.797  1.1762  0.2963  2.2088
  820MOL0     H10658  10.031   8.777   9.888 -0.7872 -0.1980 -2.0933
  820MOL0     H10659   9.943   8.882  10.007 -1.6623  2.0596 -0.5350
  820MOL0     H10660  10.270   9.118   9.849 -0.0232  3.2709  2.9492
  820MOL0     H10661  10.562   9.171   9.993  0.9852  0.8692 -0.5384
  820MOL0     H10662  10.617   9.030   9.923  1.1807  2.4221  1.1171
  820MOL0     H10663  10.509   9.125   9.822  3.0438 -1.6691 -0.8611
  820MOL0     H10664  10.624   8.726  10.494 -0.4692  1.0146  1.0633
  820MOL0     H10665  10.809   8.756  10.665 -0.1271 -1.3194 -0.8619
  820MOL0     H10666  11.118   8.660  10.618  0.7221 -1.0959  0.2329
  820MOL0     H10667  11.197   8.771  10.503 -1.0962  1.8764 -0.5741
  820MOL0     H10668  11.318   8.887  10.680  0.6207 -1.1026 -1.3057
  820MOL0     H10669  11.218   8.812  10.797  0.2975 -1.1759  1.1821
  820MOL0     H10670  11.449   8.731  10.796 -1.7127  0.8886  2.2853
  820MOL0     H10671  11.437   8.679  10.627 -2.7133  1.7583 -2.0699
  820MOL0     H10672  11.306   8.557  10.861 -2.0184 -3.2363 -0.2641
  820MOL0     H10673  11.261   8.511  10.699 -1.1656  1.8471  0.3870
  820MOL0     H10674  11.515   8.429  10.663 -3.1281  1.3361 -2.2787
  820MOL0     H10675  11.416   8.326  10.767  4.5467 -1.9035 -2.3448
  820MOL0     H10676  11.589   8.548  10.867 -1.2068  1.0085 -0.1029
  820MOL0     H10677  11.499   8.436  10.968  1.3574  2.5498  0.3925
  820MOL0     H10678  11.698   8.353  10.754 -2.3469 -2.0452 -0.3160
  820MOL0     H10679  11.625   8.248  10.865  0.9409 -1.6306 -4.3447
  820MOL0     H10680  11.737   8.362  11.066 -2.5968  0.0999 -1.0963
  820MOL0     H10681  11.801   8.485  10.958  3.4866 -0.6786 -0.9196
  820MOL0     H10682  11.043   8.929  10.355  0.0779 -0.0273  0.2369
  820MOL0     H10683  10.864   8.917  10.197 -1.9567 -0.6014 -0.3829
  820MOL0     H10684  10.328   8.806  10.241  3.8473 -0.0528 -0.7621
  820MOL0     H10685  10.138   8.791  10.096  1.1452 -2.4367 -1.6791
  820MOL0     H10686   9.060   8.091   9.531 -0.5472  1.2238  0.0499
  820MOL0     H10687   8.955   7.873   9.459 -1.7298  0.3601 -1.8843
  820MOL0     H10688   8.620   7.590   9.493 -0.4993 -1.5649 -1.1722
  820MOL0     H10689   8.503   7.371   9.443 -4.1082  3.5518 -1.1835
  820MOL0     H10690   8.494   7.072   9.293  2.0893  1.2860  0.5735
  820MOL0     H10691   8.431   7.210   9.362  2.5079  4.7754 -1.2492
  820MOL0     H10692   8.286   7.245   9.166  0.6491 -0.0506 -1.5772
  820MOL0     H10693   8.267   7.089   9.249 -0.8152 -0.0343 -1.2028
  820MOL0     H10694   8.391   6.979   9.052  2.0907  0.4602  2.5747
  820MOL0     H10695   8.448   7.138   9.004 -0.1543  1.0739  0.7784
  820MOL0     H10696   8.283   7.076   8.844  0.2696 -0.1067 -0.1462
  820MOL0     H10697   8.235   7.220   8.936  3.3207 -0.1976 -1.4927
  820MOL0     H10698   7.923   6.951   9.042  0.1796 -0.1477  1.3155
  820MOL0     H10699   8.734   7.367   9.073  0.7872  0.5215  0.2955
  820MOL0     H10700   8.786   7.600   9.106 -0.1443  1.3338  0.4745
  821MOL0     O10701   7.200   2.810  10.526  0.0715 -0.2675 -0.2249
  821MOL0     C10702   7.310   2.755  10.495 -0.4436  0.0586  0.2503
  821MOL0     O10703   7.337   2.621  10.506 -0.9429  0.3543  0.3561
  821MOL0     C10704   7.251   2.541  10.574  0.3714  0.7205 -0.0148
  821MOL0     C10705   7.284   2.497  10.706  0.3532  0.2990 -1.2844
  821MOL0     C10706   7.196   2.409  10.771 -0.1359 -0.3380  0.1423
  821MOL0     C10707   7.078   2.366  10.712  1.0596  0.5526 -0.0494
  821MOL0     O10708   6.988   2.298  10.786 -0.0255  0.6584  0.6014
  821MOL0     C10709   6.986   2.326  10.923  0.1294  0.4235  0.0583
  821MOL0     C10710   6.858   2.278  10.988 -0.2585 -0.3706 -0.0500
  821MOL0     C10711   6.835   2.123  10.969 -0.3758 -0.5079  0.7482
  821MOL0     C10712   6.716   2.065  11.041  0.6919  0.4812 -0.2859
  821MOL0     C10713   6.669   1.932  10.984  0.2226 -0.9595 -0.1127
  821MOL0     C10714   6.760   1.821  11.042  0.0700 -0.4057  0.4862
  821MOL0     C10715   6.696   1.682  11.019 -0.1744  0.4271  0.4839
  821MOL0     C10716   6.794   1.569  11.024  0.2967  0.3596 -0.7973
  821MOL0     N10717   6.728   1.435  11.003 -0.4121 -0.3029  0.5671
  821MOL0     C10718   6.694   1.372  10.883 -0.1287  0.1398 -0.0512
  821MOL0     C10719   6.649   1.254  10.922  0.0923  0.3658  0.3444
  821MOL0     C10720   6.593   1.133  10.837 -0.1905 -0.3064 -0.5428
  821MOL0     C10721   6.432   1.129  10.833 -0.1831  0.6008  1.2028
  821MOL0     C10722   6.371   1.094  10.968  0.7045 -0.4087 -0.0975
  821MOL0     C10723   6.360   0.944  10.981  0.4901 -0.5050  0.1794
  821MOL0     O10724   6.259   0.890  10.898  0.1221 -0.2751  0.3290
  821MOL0     C10725   6.233   0.757  10.889  0.2118 -0.6745 -0.0416
  821MOL0     C10726   6.121   0.717  10.826  0.9026  0.2519  0.3357
  821MOL0     C10727   6.109   0.581  10.782  0.0608  0.6120 -0.5678
  821MOL0     C10728   5.981   0.546  10.702 -0.2745 -0.2318  0.6813
  821MOL0     C10729   6.214   0.477  10.823  0.5366 -0.4838  0.3078
  821MOL0     C10730   6.208   0.342  10.783 -0.4869  0.4291 -0.5475
  821MOL0     O10731   6.285   0.249  10.853 -0.0004  0.2271 -0.1587
  821MOL0     C10732   6.258   0.117  10.850 -0.8356 -0.0051 -0.4457
  821MOL0     C10733   6.130   0.064  10.869 -0.2983  0.1440  1.1531
  821MOL0     C10734   6.110  -0.074  10.891  0.0648 -1.1862  0.4649
  821MOL0     C10735   6.219  -0.162  10.901 -0.4359 -0.4998  0.1039
  821MOL0     O10736   6.201  -0.296  10.923  0.8442 -0.3433  0.1257
  821MOL0     C10737   6.111  -0.350  10.828  0.6441  0.0424 -0.0764
  821MOL0     C10738   6.156  -0.492  10.786 -0.0717  1.2223 -0.5159
  821MOL0     C10739   6.295  -0.495  10.712  0.2616 -0.9387 -0.1609
  821MOL0     C10740   6.374  -0.621  10.757  0.1340  0.3270  0.6733
  821MOL0     C10741   6.503  -0.654  10.674 -0.9442  0.8961 -0.3349
  821MOL0     C10742   6.609  -0.534  10.678 -0.0189  0.6790  0.2563
  821MOL0     C10743   6.730  -0.579  10.592  0.3254 -0.3879  0.0200
  821MOL0     C10744   6.721  -0.544  10.455  1.2514 -0.1405 -0.2134
  821MOL0    Cl10745   6.768  -0.376  10.404  0.1831  0.1743 -0.4071
  821MOL0     C10746   6.348  -0.101  10.869  0.1915  0.4012 -0.5746
  821MOL0     C10747   6.368   0.032  10.850  0.6532 -0.5302 -0.2631
  821MOL0     O10748   6.142   0.314  10.686 -0.9563 -0.8653  0.1604
  821MOL0     C10749   6.315   0.519  10.911  0.5198 -0.1134 -0.4063
  821MOL0     C10750   6.320   0.655  10.942  0.1658  0.5040  0.2993
  821MOL0     N10751   6.646   1.249  11.064  0.4519 -0.3073  0.1933
  821MOL0     N10752   6.692   1.356  11.105 -0.1995 -0.1577  0.3468
  821MOL0     C10753   7.057   2.398  10.582 -0.0390  0.2505  1.0269
  821MOL0     C10754   7.137   2.492  10.506  0.4492  0.2261 -0.6379
  821MOL0     C10755   7.419   2.846  10.454  0.7342  1.1038 -0.4299
  821MOL0     C10756   7.555   2.798  10.443  0.1579 -0.9555 -0.2345
  821MOL0     C10757   7.661   2.885  10.417 -0.8103 -0.1124  0.2479
  821MOL0     C10758   7.640   3.022  10.391  1.1087 -0.0765 -0.1001
  821MOL0     O10759   7.757   3.102  10.384 -0.1519 -0.2007  0.4401
  821MOL0     C10760   7.765   3.201  10.277  0.2596  0.7800  0.3791
  821MOL0     C10761   7.752   3.130  10.143 -1.0101  0.4985 -1.2547
  821MOL0     C10762   7.798   3.246  10.044  0.6332 -0.5579 -0.1702
  821MOL0     C10763   7.771   3.198   9.897  0.3070 -0.2253 -0.3998
  821MOL0     C10764   7.705   3.286   9.808  0.0943  0.1330 -0.4067
  821MOL0     C10765   7.657   3.363   9.717  0.8478  0.2106 -0.5573
  821MOL0     C10766   7.504   3.070  10.397  0.3669 -0.2806 -0.3400
  821MOL0     C10767   7.395   2.983  10.439 -0.0243 -0.2368 -0.2903
  821MOL0     H10768   7.373   2.529  10.758 -0.2320 -0.2076  0.0646
  821MOL0     H10769   7.230   2.367  10.865 -0.4369 -0.1221  0.3482
  821MOL0     H10770   7.066   2.275  10.976  4.2954  3.4163 -2.7479
  821MOL0     H10771   7.001   2.431  10.948 -1.0136  1.2393 -2.4086
  821MOL0     H10772   6.872   2.301  11.094  2.4095 -0.5651 -0.2699
  821MOL0     H10773   6.772   2.330  10.945 -0.1076  1.1013  1.3525
  821MOL0     H10774   6.833   2.094  10.864  3.1105  0.7839  0.2119
  821MOL0     H10775   6.925   2.072  11.004  0.6333  1.3610  1.0050
  821MOL0     H10776   6.711   2.066  11.151 -1.0230  1.1411 -0.3361
  821MOL0     H10777   6.634   2.134  11.017 -0.6683  0.1767  2.9453
  821MOL0     H10778   6.565   1.930  11.017  0.6504 -3.2079  1.3608
  821MOL0     H10779   6.678   1.936  10.875 -1.6626  0.0399 -0.2665
  821MOL0     H10780   6.856   1.827  10.992  0.1786 -2.2942  0.3891
  821MOL0     H10781   6.762   1.834  11.151 -1.0237  1.5883  0.3142
  821MOL0     H10782   6.612   1.674  11.087 -1.1787  1.2581 -0.6139
  821MOL0     H10783   6.666   1.677  10.914 -3.1452 -0.7300  1.2929
  821MOL0     H10784   6.843   1.549  11.119  0.4248  0.9240 -0.7423
  821MOL0     H10785   6.864   1.592  10.943 -2.0492  5.1871 -1.8437
  821MOL0     H10786   6.719   1.394  10.780 -0.2480  0.2820 -0.0499
  821MOL0     H10787   6.640   1.143  10.738  2.7007 -0.2958  0.7464
  821MOL0     H10788   6.616   1.035  10.879 -1.4968 -0.1692  0.5556
  821MOL0     H10789   6.396   1.067  10.751 -1.6907  0.4465  1.9368
  821MOL0     H10790   6.409   1.233  10.809 -0.4346  0.1848 -0.4700
  821MOL0     H10791   6.268   1.130  10.968  0.3467 -1.3893  0.9581
  821MOL0     H10792   6.428   1.125  11.056  3.5787 -0.1647 -1.9109
  821MOL0     H10793   6.328   0.933  11.085 -2.6861  2.4537 -0.3126
  821MOL0     H10794   6.458   0.896  10.969  2.2796  2.3134  2.0598
  821MOL0     H10795   6.043   0.785  10.796  0.2523 -0.2027  0.9809
  821MOL0     H10796   5.933   0.468  10.762  0.8455 -2.2483 -0.9309
  821MOL0     H10797   5.914   0.631  10.686 -0.2868 -0.3851 -0.1297
  821MOL0     H10798   6.007   0.517  10.600  2.0879  5.1839 -0.6113
  821MOL0     H10799   6.041   0.125  10.858 -1.5892 -2.0672 -2.4819
  821MOL0     H10800   6.007  -0.105  10.906 -0.2704  0.6357  2.3870
  821MOL0     H10801   6.013  -0.347  10.876  0.2287  4.0566 -0.8574
  821MOL0     H10802   6.115  -0.297  10.732  2.7657  1.6004  0.7908
  821MOL0     H10803   6.173  -0.546  10.880 -1.5199  0.5241 -0.6343
  821MOL0     H10804   6.082  -0.545  10.725  4.2919 -1.0419 -4.4816
  821MOL0     H10805   6.347  -0.406  10.750 -3.0132  0.0079  2.5802
  821MOL0     H10806   6.294  -0.488  10.603 -1.3889 -0.9850 -0.1755
  821MOL0     H10807   6.398  -0.616  10.863  1.0034 -0.7837  0.5529
  821MOL0     H10808   6.311  -0.709  10.747 -1.1569  1.3039 -0.1293
  821MOL0     H10809   6.469  -0.680  10.573 -1.6309  3.9910 -1.0155
  821MOL0     H10810   6.559  -0.738  10.715  3.5686  2.1152 -3.3572
  821MOL0     H10811   6.558  -0.449  10.632  3.7955  2.1799 -1.5682
  821MOL0     H10812   6.623  -0.504  10.783  0.1481  1.8035 -0.0792
  821MOL0     H10813   6.743  -0.687  10.607  1.6086 -0.2561  0.0209
  821MOL0     H10814   6.820  -0.532  10.632 -0.4448  2.2099 -1.1060
  821MOL0     H10815   6.617  -0.554  10.425  0.7010 -3.1914  2.2534
  821MOL0     H10816   6.777  -0.623  10.403  1.0886  0.2271 -0.9661
  821MOL0     H10817   6.424  -0.177  10.885 -2.1388 -1.6037  2.1954
  821MOL0     H10818   6.468   0.074  10.843  0.6674 -0.6785 -1.0642
  821MOL0     H10819   6.376   0.441  10.955  1.0716  1.6053  2.1060
  821MOL0     H10820   6.413   0.682  10.991  1.0534 -0.9183 -0.5036
  821MOL0     H10821   6.959   2.361  10.551 -1.1752  2.4463  1.8149
  821MOL0     H10822   7.103   2.521  10.407  0.8962 -0.7967 -1.1007
  821MOL0     H10823   7.569   2.692  10.463 -1.3266 -1.8618 -3.4462
  821MOL0     H10824   7.764   2.856  10.431 -1.0009 -0.7091  0.4658
  821MOL0     H10825   7.681   3.269  10.295 -0.8193  0.0386 -1.6295
  821MOL0     H10826   7.860   3.255  10.282  0.9256 -0.1576 -1.4264
  821MOL0     H10827   7.649   3.096  10.128 -1.4525  1.7441 -1.1713
  821MOL0     H10828   7.819   3.044  10.133  0.3530  1.3472  0.2313
  821MOL0     H10829   7.896   3.292  10.052  0.3173  0.1101 -0.0626
  821MOL0     H10830   7.735   3.336  10.048  3.3150  1.5667 -1.7099
  821MOL0     H10831   7.711   3.107   9.907  0.9729 -0.5345  1.1204
  821MOL0     H10832   7.865   3.181   9.844 -0.2032  1.2879 -1.8836
  821MOL0     H10833   7.617   3.416   9.633 -0.4886  0.5171  0.2510
  821MOL0     H10834   7.477   3.173  10.375 -0.2916 -0.5684 -0.9341
  821MOL0     H10835   7.294   3.019  10.458 -0.5723 -2.4490  1.4623
  822MOL0     O10836   3.659   5.494   0.272  0.3858  0.4548 -0.4341
  822MOL0     C10837   3.571   5.492   0.366 -0.7396 -0.3744 -0.5347
  822MOL0     O10838   3.604   5.465   0.497 -0.2419  0.0881 -0.0022
  822MOL0     C10839   3.721   5.403   0.519 -0.3901 -0.1778 -0.9413
  822MOL0     C10840   3.774   5.413   0.652 -1.6914  0.1721 -0.4792
  822MOL0     C10841   3.878   5.332   0.696 -0.2102  0.1063 -0.4222
  822MOL0     C10842   3.943   5.245   0.609  0.2108 -0.3130 -0.1784
  822MOL0     O10843   4.051   5.168   0.642  0.3449  0.4124 -1.2921
  822MOL0     C10844   4.056   5.036   0.583 -0.8387  0.0293  0.6114
  822MOL0     C10845   4.128   4.951   0.679 -0.7591  0.3871  0.6507
  822MOL0     C10846   4.058   4.952   0.812 -0.2802 -1.1525 -0.2001
  822MOL0     C10847   4.132   5.040   0.914 -1.0888 -0.2386 -1.0200
  822MOL0     C10848   4.067   5.036   1.059  0.1847  0.1941  0.0113
  822MOL0     C10849   3.943   5.135   1.060 -0.1266  0.2433  0.8444
  822MOL0     C10850   3.879   5.148   1.200 -0.6325 -0.0863 -0.0734
  822MOL0     C10851   3.737   5.193   1.203 -0.2525 -0.4687 -0.0879
  822MOL0     N10852   3.685   5.216   1.344 -0.0528 -0.2768  0.0348
  822MOL0     C10853   3.685   5.323   1.432 -0.1878 -0.7249 -0.0128
  822MOL0     C10854   3.604   5.286   1.538 -0.6320  0.3005  1.1371
  822MOL0     C10855   3.577   5.375   1.649 -1.2739 -0.4671 -0.7323
  822MOL0     C10856   3.687   5.376   1.753  0.5364 -0.0977  0.0830
  822MOL0     C10857   3.659   5.434   1.888  0.1499  0.1110  0.4474
  822MOL0     C10858   3.755   5.405   2.003 -0.5346  0.2137 -0.5681
  822MOL0     O10859   3.786   5.260   2.014 -0.1849 -0.5872 -0.1074
  822MOL0     C10860   3.690   5.182   2.066  0.7803  0.2379 -0.8032
  822MOL0     C10861   3.576   5.147   1.996 -0.2021  0.7178 -0.1705
  822MOL0     C10862   3.487   5.062   2.054 -1.1063 -0.0154  0.5048
  822MOL0     C10863   3.374   5.019   1.966  0.2836 -0.3619 -0.5463
  822MOL0     C10864   3.514   5.008   2.177 -0.2427  0.6795 -0.0299
  822MOL0     C10865   3.420   4.909   2.246  0.0247 -0.3989  0.3919
  822MOL0     O10866   3.475   4.822   2.334 -0.2943 -0.4614 -0.2388
  822MOL0     C10867   3.396   4.725   2.392  0.9585  1.0756 -0.9091
  822MOL0     C10868   3.304   4.635   2.319  0.7033 -0.0856 -0.1350
  822MOL0     C10869   3.226   4.539   2.393 -0.2901  0.1941 -0.5931
  822MOL0     C10870   3.226   4.536   2.532 -0.2297  0.8604  0.1660
  822MOL0     O10871   3.141   4.443   2.603 -0.9504 -1.1858  0.4616
  822MOL0     C10872   3.073   4.346   2.536  0.1008  0.2158  0.3367
  822MOL0     C10873   2.935   4.387   2.490  0.5049 -0.5901 -0.6018
  822MOL0     C10874   2.833   4.350   2.599  0.0640 -0.9001 -0.4659
  822MOL0     C10875   2.819   4.467   2.697  0.3865  0.4434 -0.3848
  822MOL0     C10876   2.714   4.432   2.808  0.1204 -0.3588  0.2022
  822MOL0     C10877   2.747   4.334   2.918 -0.7166  0.4552  0.1214
  822MOL0     C10878   2.870   4.373   3.007 -0.9323  0.4378 -0.1399
  822MOL0     C10879   2.909   4.296   3.133 -0.3290 -0.2436 -0.0863
  822MOL0    Cl10880   2.837   4.367   3.284 -0.2298  0.3750  0.2020
  822MOL0     C10881   3.318   4.618   2.602 -0.0795  0.3841 -0.4364
  822MOL0     C10882   3.397   4.710   2.534  0.3602  0.7146  0.2181
  822MOL0     O10883   3.299   4.931   2.242  0.6749  1.3568 -0.4241
  822MOL0     C10884   3.635   5.038   2.244 -1.0917 -0.1080  0.1510
  822MOL0     C10885   3.720   5.135   2.190 -0.6689 -1.2351  0.0446
  822MOL0     N10886   3.562   5.160   1.519 -0.3874  1.1292  0.0004
  822MOL0     N10887   3.608   5.123   1.404  0.0266  0.4872  0.0077
  822MOL0     C10888   3.899   5.241   0.478  0.8638  0.4442  0.1220
  822MOL0     C10889   3.789   5.314   0.440  0.3516 -0.0150 -0.4913
  822MOL0     C10890   3.441   5.568   0.340  0.6119 -0.4932  0.3099
  822MOL0     C10891   3.411   5.619   0.211  0.1054 -1.1130  0.5221
  822MOL0     C10892   3.286   5.680   0.180 -1.1090  0.2761 -0.1278
  822MOL0     C10893   3.194   5.705   0.280 -0.3320  0.3185 -0.7127
  822MOL0     O10894   3.091   5.783   0.227  0.1593 -0.1216 -0.4419
  822MOL0     C10895   2.982   5.816   0.313  1.0385 -0.9278 -0.3328
  822MOL0     C10896   2.887   5.910   0.239  0.4628  0.1149 -0.4876
  822MOL0     C10897   2.815   5.846   0.128 -0.4887  0.6567 -0.6441
  822MOL0     C10898   2.688   5.925   0.091 -1.0998 -0.6335 -0.3082
  822MOL0     C10899   2.584   5.882   0.184 -0.4269 -0.7916 -0.8618
  822MOL0     C10900   2.505   5.844   0.266 -0.3165  0.6193 -0.2288
  822MOL0     C10901   3.227   5.662   0.416 -0.0103  0.7288  0.9811
  822MOL0     C10902   3.349   5.591   0.442  0.1981  0.3362  0.1637
  822MOL0     H10903   3.714   5.467   0.725 -1.0374 -0.3565  0.4632
  822MOL0     H10904   3.904   5.331   0.801 -0.0505 -1.4722 -0.4548
  822MOL0     H10905   3.955   4.997   0.564 -1.1624  1.1965 -0.1304
  822MOL0     H10906   4.109   5.035   0.487 -3.6148 -1.2585 -1.0379
  822MOL0     H10907   4.127   4.847   0.647  0.2768  0.2711  0.9469
  822MOL0     H10908   4.234   4.975   0.689 -0.7804  0.7076  0.1519
  822MOL0     H10909   3.951   4.974   0.802  0.1120  1.0432  0.0030
  822MOL0     H10910   4.078   4.849   0.843  1.2692 -0.9812 -0.5811
  822MOL0     H10911   4.236   5.004   0.915 -1.5831 -1.7235 -0.9359
  822MOL0     H10912   4.140   5.143   0.878 -2.5766 -0.0286 -0.7797
  822MOL0     H10913   4.016   4.940   1.074 -5.2281  2.1345 -3.0415
  822MOL0     H10914   4.138   5.057   1.139  0.6770 -0.0643 -0.3455
  822MOL0     H10915   3.976   5.232   1.023 -0.3864 -0.0566 -0.2325
  822MOL0     H10916   3.868   5.093   0.991  1.3289 -1.4492  0.2020
  822MOL0     H10917   3.855   5.048   1.239 -0.7216  0.4525  1.3156
  822MOL0     H10918   3.947   5.199   1.269  0.7092  1.8259 -2.6013
  822MOL0     H10919   3.671   5.124   1.150  0.8301 -0.9358 -0.8667
  822MOL0     H10920   3.719   5.289   1.154  0.8121 -0.1414  0.1353
  822MOL0     H10921   3.721   5.423   1.408  3.4946 -1.7921  0.4513
  822MOL0     H10922   3.575   5.479   1.616  2.6633 -0.6438 -2.1425
  822MOL0     H10923   3.485   5.344   1.698 -0.0895  0.9655  2.6704
  822MOL0     H10924   3.780   5.420   1.714  1.1638 -0.6705  0.8938
  822MOL0     H10925   3.711   5.271   1.770 -1.7174 -0.9822 -1.6931
  822MOL0     H10926   3.559   5.404   1.920 -0.1868  1.7578  1.0308
  822MOL0     H10927   3.667   5.542   1.876  3.2704  0.2369  2.4362
  822MOL0     H10928   3.717   5.442   2.098 -0.3626 -3.0567  0.9258
  822MOL0     H10929   3.844   5.463   1.977  1.1308  0.8845  5.2193
  822MOL0     H10930   3.562   5.175   1.892 -0.9477  3.3625  0.5606
  822MOL0     H10931   3.385   4.913   1.941  2.5230 -0.2798 -0.1123
  822MOL0     H10932   3.278   5.027   2.018  0.6349 -0.0698  0.0674
  822MOL0     H10933   3.360   5.078   1.875  0.3636  0.4152 -0.0631
  822MOL0     H10934   3.295   4.633   2.211  0.4077 -1.3537 -0.0944
  822MOL0     H10935   3.157   4.472   2.342  0.4359  0.3707 -1.8518
  822MOL0     H10936   3.118   4.319   2.440  3.2619  2.2360  1.0809
  822MOL0     H10937   3.069   4.250   2.587 -0.5237  0.0843  0.0460
  822MOL0     H10938   2.934   4.493   2.465  0.5903 -0.3302  0.4345
  822MOL0     H10939   2.916   4.336   2.395  0.9646  1.6633 -1.9674
  822MOL0     H10940   2.852   4.262   2.662 -0.1180  0.3787  1.4542
  822MOL0     H10941   2.733   4.322   2.564 -1.0928  0.3876  1.6322
  822MOL0     H10942   2.915   4.480   2.748 -0.8601 -1.6818  2.8530
  822MOL0     H10943   2.796   4.563   2.649  2.8101  0.5898 -1.3945
  822MOL0     H10944   2.623   4.403   2.754 -0.5655 -1.7198  2.0094
  822MOL0     H10945   2.694   4.531   2.850 -2.3065 -0.2479 -1.0084
  822MOL0     H10946   2.660   4.318   2.982 -0.0430 -0.5021  0.8268
  822MOL0     H10947   2.759   4.242   2.860 -1.9775  2.0392 -2.8605
  822MOL0     H10948   2.842   4.477   3.022  0.9737  1.2031 -1.5195
  822MOL0     H10949   2.958   4.369   2.943 -2.0436  0.6743 -1.7207
  822MOL0     H10950   3.016   4.310   3.149  0.0658  1.8868 -3.4643
  822MOL0     H10951   2.893   4.188   3.133  1.0587 -0.5370 -3.0044
  822MOL0     H10952   3.329   4.620   2.710 -2.4213 -0.9262 -0.1055
  822MOL0     H10953   3.456   4.779   2.593 -0.1964  1.5230 -0.1658
  822MOL0     H10954   3.661   4.986   2.336 -0.4593  1.5156  0.9202
  822MOL0     H10955   3.802   5.181   2.244 -1.9269  0.1072  0.8871
  822MOL0     H10956   3.949   5.176   0.407  1.7432 -1.1640  2.0885
  822MOL0     H10957   3.759   5.297   0.337  1.9365 -2.4579 -0.6350
  822MOL0     H10958   3.486   5.613   0.133 -1.2368  2.0594 -1.1874
  822MOL0     H10959   3.267   5.725   0.083 -0.7337 -1.7884 -1.2198
  822MOL0     H10960   2.940   5.724   0.354 -2.6665  0.9437  0.4546
  822MOL0     H10961   3.020   5.858   0.407 -1.8795 -2.1182  1.5092
  822MOL0     H10962   2.941   6.000   0.207 -2.4118  2.8377  1.6765
  822MOL0     H10963   2.813   5.947   0.311 -0.0282 -1.0879 -0.3532
  822MOL0     H10964   2.809   5.738   0.142  2.7613  0.4552  0.1042
  822MOL0     H10965   2.877   5.840   0.038  0.7985 -1.1301  0.2693
  822MOL0     H10966   2.659   5.886  -0.007  2.2897 -2.0976 -0.8829
  822MOL0     H10967   2.698   6.033   0.102 -1.2677 -0.7488  1.1789
  822MOL0     H10968   2.444   5.800   0.343  0.6706 -0.6256 -0.1226
  822MOL0     H10969   3.169   5.694   0.502 -0.1521  3.6523 -0.0653
  822MOL0     H10970   3.376   5.577   0.547 -0.4237  1.3578  0.4732
  823MOL0     O10971   4.799   1.068   5.717  0.4205 -0.6184  0.7564
  823MOL0     C10972   4.734   1.102   5.809 -0.2771  0.7197 -0.6431
  823MOL0     O10973   4.756   1.056   5.936  0.6251  0.3212 -0.3276
  823MOL0     C10974   4.819   0.930   5.949  0.4726 -0.0110  0.0864
  823MOL0     C10975   4.960   0.930   5.944  0.6390 -1.0503 -0.2684
  823MOL0     C10976   5.031   0.811   5.978  0.6202 -0.6823 -0.0015
  823MOL0     C10977   4.966   0.686   6.022  0.1285 -0.1551  0.1670
  823MOL0     O10978   5.044   0.571   6.044  0.5941 -0.0712  0.4086
  823MOL0     C10979   4.995   0.474   6.135  0.6494 -0.6001 -0.4433
  823MOL0     C10980   5.082   0.347   6.144  0.3567  0.4573  0.1286
  823MOL0     C10981   5.238   0.373   6.130  0.8094 -0.0608  0.2851
  823MOL0     C10982   5.285   0.494   6.208  0.4953  0.9060 -0.7244
  823MOL0     C10983   5.421   0.532   6.168 -0.3388 -0.3135 -0.8269
  823MOL0     C10984   5.465   0.653   6.247 -0.9231 -0.0055 -0.1121
  823MOL0     C10985   5.506   0.626   6.396 -0.3184 -0.1487 -0.1920
  823MOL0     C10986   5.496   0.745   6.480 -0.8709  0.5053  0.2775
  823MOL0     N10987   5.358   0.802   6.483  0.0962 -0.0552 -0.4732
  823MOL0     C10988   5.239   0.748   6.532  0.3462 -0.6193 -0.0459
  823MOL0     C10989   5.156   0.855   6.517 -0.6390 -0.6579 -0.7685
  823MOL0     C10990   5.013   0.853   6.564  0.3794 -0.0123  0.7732
  823MOL0     C10991   4.920   0.764   6.477  0.6085  0.2553  0.4166
  823MOL0     C10992   4.855   0.841   6.346 -0.4864  0.0101 -0.3637
  823MOL0     C10993   4.708   0.815   6.335  0.4754 -0.0460 -0.3319
  823MOL0     O10994   4.686   0.674   6.341  0.6026 -0.3658 -0.2260
  823MOL0     C10995   4.555   0.636   6.315  0.4590 -0.4643 -0.2176
  823MOL0     C10996   4.442   0.716   6.294  0.2754 -0.5443  0.5852
  823MOL0     C10997   4.322   0.661   6.252  0.1227  0.0483  0.4082
  823MOL0     C10998   4.217   0.756   6.214 -0.2283  0.4219  0.6984
  823MOL0     C10999   4.309   0.523   6.230 -0.1680  0.9013 -0.7025
  823MOL0     C11000   4.175   0.446   6.210  0.7603  0.1633 -0.1699
  823MOL0     O11001   4.180   0.311   6.200 -0.3462  0.7617  0.6668
  823MOL0     C11002   4.062   0.241   6.182  0.2442  0.2762 -1.1733
  823MOL0     C11003   3.996   0.196   6.296  0.6082 -0.6552 -0.7227
  823MOL0     C11004   3.880   0.125   6.294  0.4377 -0.1969 -0.0786
  823MOL0     C11005   3.818   0.097   6.176 -0.4682  0.0890  0.5612
  823MOL0     O11006   3.704   0.021   6.176  1.0767  0.3876  0.6371
  823MOL0     C11007   3.641  -0.038   6.059  0.0318  0.0706 -0.3822
  823MOL0     C11008   3.506  -0.087   6.101  0.2605 -0.0834  0.1336
  823MOL0     C11009   3.416  -0.008   6.195 -0.8189 -0.6063  1.2948
  823MOL0     C11010   3.277  -0.072   6.203  0.1864 -1.3924 -0.3121
  823MOL0     C11011   3.164   0.023   6.267 -0.1038  0.9783 -0.1160
  823MOL0     C11012   3.024  -0.061   6.255 -0.0457  0.5696  0.6355
  823MOL0     C11013   2.899   0.020   6.304 -0.5000  0.0473 -0.4947
  823MOL0     C11014   2.773  -0.044   6.269 -0.0954  0.5927  0.0251
  823MOL0    Cl11015   2.756  -0.064   6.094 -0.1950  0.1212  0.3556
  823MOL0     C11016   3.889   0.132   6.064  0.1885  0.4873 -0.3055
  823MOL0     C11017   4.003   0.210   6.061 -0.1106  0.1143 -0.1131
  823MOL0     O11018   4.062   0.510   6.215 -0.3371 -0.4801  0.1332
  823MOL0     C11019   4.418   0.443   6.259 -0.6581  0.2767 -0.1621
  823MOL0     C11020   4.533   0.500   6.304 -0.4129 -0.5227 -0.1437
  823MOL0     N11021   5.218   0.952   6.445  0.0460 -0.7639  0.0884
  823MOL0     N11022   5.336   0.919   6.423 -0.6125 -0.2342  0.8478
  823MOL0     C11023   4.826   0.693   6.024 -0.7194  0.9676 -0.0502
  823MOL0     C11024   4.752   0.810   5.987  0.5997  0.5557  0.0308
  823MOL0     C11025   4.624   1.205   5.796 -0.6147  0.9583  0.3207
  823MOL0     C11026   4.532   1.215   5.902  0.3359  0.4984  0.4566
  823MOL0     C11027   4.423   1.310   5.898 -0.3949 -0.0612  0.1941
  823MOL0     C11028   4.406   1.389   5.777 -0.2925  0.3117  0.0711
  823MOL0     O11029   4.302   1.475   5.754  0.7533 -0.6024 -0.5811
  823MOL0     C11030   4.202   1.480   5.862  0.2620  0.7743 -0.5502
  823MOL0     C11031   4.074   1.556   5.810 -0.4922  0.1728  0.8052
  823MOL0     C11032   4.112   1.693   5.740 -0.2071 -0.2754  0.0681
  823MOL0     C11033   3.986   1.775   5.716 -0.6455  0.0834 -0.3347
  823MOL0     C11034   3.923   1.729   5.593  0.0310 -0.3597  0.3011
  823MOL0     C11035   3.875   1.676   5.498  0.0620 -0.7645 -0.4759
  823MOL0     C11036   4.511   1.383   5.681 -0.1561 -0.1015 -0.4395
  823MOL0     C11037   4.608   1.289   5.687 -1.3339  0.7328  0.0551
  823MOL0     H11038   5.014   1.023   5.931 -1.5789  0.3130 -0.3406
  823MOL0     H11039   5.139   0.798   5.976  0.3662 -3.5330 -3.0680
  823MOL0     H11040   4.977   0.516   6.235 -0.8962 -0.3375 -0.8099
  823MOL0     H11041   4.902   0.439   6.090  1.6289 -1.3658 -1.9481
  823MOL0     H11042   5.067   0.300   6.241  0.7666 -0.1405 -0.0906
  823MOL0     H11043   5.053   0.275   6.067  1.8690 -0.6972  0.5831
  823MOL0     H11044   5.298   0.287   6.160  4.8198  2.4072  0.1616
  823MOL0     H11045   5.272   0.375   6.027  0.8674  1.0533  0.3052
  823MOL0     H11046   5.218   0.580   6.205 -3.2693 -1.7713 -0.1169
  823MOL0     H11047   5.292   0.468   6.314  0.7080  0.0856 -0.9292
  823MOL0     H11048   5.495   0.452   6.179 -1.9108 -2.3704 -3.6941
  823MOL0     H11049   5.416   0.555   6.061  0.4952  1.1863 -0.5677
  823MOL0     H11050   5.561   0.679   6.203 -1.1707 -1.2598 -1.4625
  823MOL0     H11051   5.396   0.738   6.249  0.0666  0.8010  0.5589
  823MOL0     H11052   5.438   0.557   6.448 -1.0123  1.5708  1.2728
  823MOL0     H11053   5.608   0.587   6.403 -1.1988 -2.7622 -0.5816
  823MOL0     H11054   5.568   0.823   6.454 -0.8488  0.6438  0.7462
  823MOL0     H11055   5.521   0.721   6.584  0.2213  2.2001  0.4379
  823MOL0     H11056   5.217   0.656   6.585  0.6472  0.9420  3.0342
  823MOL0     H11057   5.005   0.830   6.671  0.1791 -1.2622  0.4998
  823MOL0     H11058   4.972   0.955   6.570 -1.4660 -0.5717 -1.0461
  823MOL0     H11059   4.831   0.742   6.537  1.7124  1.7048  2.7171
  823MOL0     H11060   4.979   0.678   6.442  2.3041  0.4416  2.6252
  823MOL0     H11061   4.900   0.799   6.256 -1.0271  1.7341 -1.4978
  823MOL0     H11062   4.875   0.948   6.355 -1.3772  0.1046  0.7888
  823MOL0     H11063   4.659   0.872   6.255 -3.1795  2.6727  3.3720
  823MOL0     H11064   4.667   0.860   6.426 -1.6251 -1.8332 -0.3029
  823MOL0     H11065   4.454   0.823   6.312 -0.8992 -0.3550  0.3351
  823MOL0     H11066   4.263   0.847   6.174  1.5589 -1.3758 -1.6452
  823MOL0     H11067   4.157   0.712   6.133 -0.5224  1.4648  0.3344
  823MOL0     H11068   4.157   0.766   6.305 -1.5373  1.2453 -0.2194
  823MOL0     H11069   4.035   0.226   6.393 -1.7633 -2.5864  0.9502
  823MOL0     H11070   3.837   0.107   6.392 -2.3683  1.2775 -0.8968
  823MOL0     H11071   3.627   0.038   5.981 -4.8175  0.1762  0.2769
  823MOL0     H11072   3.704  -0.114   6.013 -0.0458  1.5488 -3.1282
  823MOL0     H11073   3.449  -0.122   6.015  3.8779 -3.3837 -1.2428
  823MOL0     H11074   3.534  -0.181   6.151  0.7463  0.2459  0.4952
  823MOL0     H11075   3.399   0.092   6.154 -2.2716  0.5215  4.3714
  823MOL0     H11076   3.464   0.003   6.293  2.5536 -0.8467 -0.1635
  823MOL0     H11077   3.253  -0.092   6.098  0.0087  1.7552 -0.9672
  823MOL0     H11078   3.282  -0.167   6.256  1.8882  0.1398  2.5349
  823MOL0     H11079   3.158   0.116   6.211 -0.5068 -0.9262 -3.5713
  823MOL0     H11080   3.191   0.036   6.372  1.9895 -3.1441  0.0882
  823MOL0     H11081   3.004  -0.100   6.154 -3.1555 -0.0054  1.3887
  823MOL0     H11082   3.029  -0.142   6.328 -1.3245  0.5880  0.7534
  823MOL0     H11083   2.903   0.112   6.245  0.4969 -0.7782 -1.7776
  823MOL0     H11084   2.901   0.042   6.411 -0.1255 -1.3237 -0.2038
  823MOL0     H11085   2.688   0.016   6.303 -1.4595 -1.0221 -0.3880
  823MOL0     H11086   2.771  -0.146   6.308  0.4213 -0.7548 -3.1519
  823MOL0     H11087   3.841   0.130   5.967 -2.1358 -1.2852  0.7982
  823MOL0     H11088   4.037   0.239   5.963 -2.1035  3.3577  0.0234
  823MOL0     H11089   4.414   0.336   6.244 -0.0243  0.2652 -0.2669
  823MOL0     H11090   4.621   0.438   6.316  1.0777  1.4471 -0.4394
  823MOL0     H11091   4.770   0.606   6.056 -2.7232  2.3685  0.4709
  823MOL0     H11092   4.644   0.818   5.988  0.5677  0.3857 -0.8341
  823MOL0     H11093   4.530   1.151   5.989 -1.4453  1.5361  1.2253
  823MOL0     H11094   4.353   1.314   5.980  0.0813  4.5878  0.6210
  823MOL0     H11095   4.175   1.381   5.898  0.0671  1.6197  1.7697
  823MOL0     H11096   4.236   1.536   5.949  1.1804  0.5432 -0.7448
  823MOL0     H11097   3.998   1.569   5.888 -1.2430  2.3542 -0.2146
  823MOL0     H11098   4.037   1.494   5.728  1.5874  0.4390 -0.4017
  823MOL0     H11099   4.165   1.686   5.644 -0.0615  3.0204 -0.1842
  823MOL0     H11100   4.182   1.737   5.811  2.2384 -2.6943 -0.6705
  823MOL0     H11101   4.012   1.881   5.710 -0.9531  0.5299  3.5564
  823MOL0     H11102   3.911   1.770   5.796  2.8717 -2.4016  3.1962
  823MOL0     H11103   3.825   1.633   5.414 -3.0697  0.8821  0.4160
  823MOL0     H11104   4.505   1.462   5.607  1.8974  0.8253  0.3225
  823MOL0     H11105   4.676   1.274   5.604 -0.9997 -1.3221  0.6467
  824MOL0     O11106   6.295   7.427  10.552 -0.3461  0.4653 -0.4076
  824MOL0     C11107   6.286   7.364  10.662 -0.4841 -0.2914  1.2077
  824MOL0     O11108   6.325   7.408  10.784  0.1874 -0.3678 -0.3073
  824MOL0     C11109   6.319   7.542  10.799  0.3027  0.1837 -0.0285
  824MOL0     C11110   6.436   7.616  10.790  0.0801 -0.6858 -0.4194
  824MOL0     C11111   6.438   7.749  10.829  1.0784 -0.4124 -0.0658
  824MOL0     C11112   6.317   7.806  10.877 -0.4264  0.2287  0.7565
  824MOL0     O11113   6.339   7.937  10.920  0.3652 -0.3041 -0.0082
  824MOL0     C11114   6.224   8.026  10.877  0.0873  0.9212  0.2169
  824MOL0     C11115   6.297   8.153  10.832 -0.1033 -0.7246  1.3515
  824MOL0     C11116   6.387   8.112  10.714 -0.2253 -0.2951  0.7327
  824MOL0     C11117   6.466   8.238  10.660  0.3581 -0.2458 -0.4820
  824MOL0     C11118   6.542   8.209  10.532  0.0395 -0.1159  0.7591
  824MOL0     C11119   6.599   8.323  10.443 -0.3635  0.5604 -0.8357
  824MOL0     C11120   6.655   8.435  10.523 -0.9519 -0.8836 -0.2286
  824MOL0     C11121   6.687   8.555  10.435 -0.5680  0.5840  0.5978
  824MOL0     N11122   6.775   8.525  10.320  0.3127  0.6929 -0.2268
  824MOL0     C11123   6.903   8.477  10.338 -0.3414 -0.5154  0.5010
  824MOL0     C11124   6.963   8.486  10.211 -0.6747 -0.7670 -0.2492
  824MOL0     C11125   7.101   8.464  10.169 -0.4133  0.5985  0.0964
  824MOL0     C11126   7.123   8.441  10.020  1.0037  0.6241 -0.3218
  824MOL0     C11127   7.257   8.391   9.987 -0.0583 -0.1265  0.7316
  824MOL0     C11128   7.375   8.487  10.024  0.0731 -0.0500 -0.6670
  824MOL0     O11129   7.409   8.469  10.158 -0.2040  0.6814  0.1863
  824MOL0     C11130   7.493   8.564  10.210  0.5523  0.6615  0.2439
  824MOL0     C11131   7.466   8.604  10.338  0.4656  0.0219 -0.6638
  824MOL0     C11132   7.555   8.682  10.410 -0.6497  0.8372 -0.5366
  824MOL0     C11133   7.516   8.716  10.557 -0.7550  0.1095  1.0315
  824MOL0     C11134   7.672   8.720  10.348  0.4365 -0.7968 -0.1831
  824MOL0     C11135   7.772   8.806  10.414  1.1922  0.2923 -0.3461
  824MOL0     O11136   7.814   8.747  10.531 -1.3005  0.2261  0.2603
  824MOL0     C11137   7.931   8.778  10.601  0.4895  0.5125 -0.0630
  824MOL0     C11138   7.916   8.758  10.741 -0.2147  0.6450  0.0366
  824MOL0     C11139   8.026   8.734  10.822  0.2813 -0.4319 -0.8649
  824MOL0     C11140   8.154   8.729  10.762  0.1236 -0.5305 -0.4554
  824MOL0     O11141   8.272   8.692  10.828 -0.5651 -0.5336 -0.1884
  824MOL0     C11142   8.269   8.679  10.967 -0.0675 -0.4378 -0.4102
  824MOL0     C11143   8.396   8.660  11.045 -0.0561  0.3404  0.2061
  824MOL0     C11144   8.495   8.781  11.029  0.5136  0.6825  0.1570
  824MOL0     C11145   8.460   8.895  11.130 -0.8717  0.6259 -0.5018
  824MOL0     C11146   8.555   9.015  11.146  0.0282 -0.0800 -0.0045
  824MOL0     C11147   8.495   9.138  11.060  0.3012  0.5110 -0.3583
  824MOL0     C11148   8.588   9.259  11.063  0.1937  0.0040 -0.2534
  824MOL0     C11149   8.588   9.325  11.198  0.0699  0.7900 -0.7956
  824MOL0    Cl11150   8.426   9.359  11.257 -0.2048 -0.4186  0.6047
  824MOL0     C11151   8.168   8.761  10.622 -0.4008  0.6988  0.0488
  824MOL0     C11152   8.054   8.767  10.543 -1.5725  0.2141 -0.4764
  824MOL0     O11153   7.818   8.906  10.361 -0.5399 -0.6812  0.3097
  824MOL0     C11154   7.696   8.695  10.209 -0.2801  0.3637 -0.7058
  824MOL0     C11155   7.607   8.616  10.145 -0.0724  0.2672 -0.4857
  824MOL0     N11156   6.869   8.543  10.122 -0.1545 -0.2358  0.1048
  824MOL0     N11157   6.767   8.570  10.197 -0.3912 -0.4327 -0.6944
  824MOL0     C11158   6.210   7.729  10.907  0.6907 -0.4126 -1.1524
  824MOL0     C11159   6.209   7.596  10.868  0.6671  0.3165  1.3296
  824MOL0     C11160   6.234   7.224  10.651 -0.7813 -1.2362 -0.8428
  824MOL0     C11161   6.217   7.148  10.760 -0.5761 -0.4691  0.2451
  824MOL0     C11162   6.161   7.020  10.743  0.4003  0.1212  0.2952
  824MOL0     C11163   6.134   6.961  10.626  0.8623 -0.1557  0.9773
  824MOL0     O11164   6.085   6.835  10.609  0.0567 -0.3120  0.1058
  824MOL0     C11165   6.091   6.740  10.720  0.5595  0.8205  0.3737
  824MOL0     C11166   6.045   6.598  10.678  0.5832 -0.2478  0.1047
  824MOL0     C11167   6.169   6.520  10.622  0.0164  0.6167  0.4500
  824MOL0     C11168   6.135   6.371  10.623 -0.4848  0.5114  0.1808
  824MOL0     C11169   6.108   6.309  10.750  0.1999 -0.3651  0.6484
  824MOL0     C11170   6.093   6.242  10.852  0.5370  0.6812 -1.0135
  824MOL0     C11171   6.161   7.038  10.510  0.1650 -0.4207 -0.2491
  824MOL0     C11172   6.222   7.165  10.518 -0.3490 -0.2215  0.0791
  824MOL0     H11173   6.533   7.583  10.754  0.3912 -0.9347  0.6235
  824MOL0     H11174   6.514   7.825  10.814 -0.9618  1.4620 -1.3941
  824MOL0     H11175   6.169   7.983  10.793  1.9692 -0.3888 -0.4287
  824MOL0     H11176   6.155   8.044  10.960 -0.3333  0.3823 -0.0103
  824MOL0     H11177   6.229   8.234  10.801  0.1684 -1.6565 -2.0013
  824MOL0     H11178   6.361   8.190  10.912  2.3892  2.2299 -1.6993
  824MOL0     H11179   6.458   8.032  10.735 -1.2562 -1.5631 -0.4813
  824MOL0     H11180   6.319   8.068  10.641  0.6444 -1.9778  0.9018
  824MOL0     H11181   6.385   8.311  10.670 -1.2097 -2.2036  2.6648
  824MOL0     H11182   6.541   8.274  10.731 -2.0592  4.0306  0.2002
  824MOL0     H11183   6.621   8.140  10.564 -2.4830 -2.8787  1.5106
  824MOL0     H11184   6.486   8.149  10.460  0.6877 -0.0912  0.2221
  824MOL0     H11185   6.682   8.288  10.380  0.0343  0.5903 -0.3377
  824MOL0     H11186   6.522   8.366  10.378 -0.4857  1.9386  0.1732
  824MOL0     H11187   6.585   8.465  10.602 -2.8955 -1.2236 -1.7480
  824MOL0     H11188   6.747   8.397  10.567 -2.0085 -3.5524 -0.1391
  824MOL0     H11189   6.730   8.633  10.499 -0.5351 -1.6551  3.5313
  824MOL0     H11190   6.596   8.592  10.388 -0.3649 -0.0473 -0.3052
  824MOL0     H11191   6.963   8.443  10.422  2.5267 -0.8664 -1.5275
  824MOL0     H11192   7.170   8.540  10.207 -0.1248  0.5074 -0.2404
  824MOL0     H11193   7.128   8.366  10.211  0.0034  0.7832  0.2680
  824MOL0     H11194   7.104   8.542   9.983  0.5766 -0.0303 -1.9501
  824MOL0     H11195   7.046   8.374   9.980  0.5211  2.0177 -1.8061
  824MOL0     H11196   7.263   8.396   9.877  1.2644  0.1109  0.7954
  824MOL0     H11197   7.270   8.289  10.022  1.3795  0.3773  1.7530
  824MOL0     H11198   7.345   8.591  10.012  1.7888  0.6641  0.8149
  824MOL0     H11199   7.466   8.465   9.967  1.6934  2.5087  0.7687
  824MOL0     H11200   7.367   8.578  10.374  0.8721  3.4018  3.7910
  824MOL0     H11201   7.569   8.793  10.615 -2.6091  0.4027  2.4400
  824MOL0     H11202   7.412   8.748  10.555 -0.0469  2.7016 -1.9866
  824MOL0     H11203   7.537   8.629  10.620  1.4318  1.7182  2.7275
  824MOL0     H11204   7.819   8.758  10.789 -0.1742 -1.6892  0.2352
  824MOL0     H11205   8.011   8.720  10.928  0.7977 -1.3959 -0.9054
  824MOL0     H11206   8.232   8.774  11.007 -0.8032 -2.0079  3.0614
  824MOL0     H11207   8.199   8.600  10.996  2.3112 -2.3896  0.3679
  824MOL0     H11208   8.382   8.655  11.153 -2.9856  0.6645 -0.0898
  824MOL0     H11209   8.429   8.566  11.000 -0.3972  0.9905 -1.4874
  824MOL0     H11210   8.486   8.822  10.928  1.8561 -0.5928 -0.5108
  824MOL0     H11211   8.598   8.745  11.039  0.2909  0.3953  1.7590
  824MOL0     H11212   8.361   8.935  11.106 -1.0276 -0.9807 -2.9334
  824MOL0     H11213   8.456   8.839  11.224  5.4938 -0.6179 -0.4875
  824MOL0     H11214   8.657   8.977  11.137 -0.4131 -1.6374  1.0569
  824MOL0     H11215   8.547   9.046  11.251  0.8183 -0.5413  0.1948
  824MOL0     H11216   8.498   9.091  10.962 -3.5631 -1.9327  0.4689
  824MOL0     H11217   8.394   9.172  11.086  0.7007  0.9279  0.7321
  824MOL0     H11218   8.556   9.329  10.986 -0.2411  1.2001  0.9865
  824MOL0     H11219   8.692   9.226  11.049 -0.1177 -0.6927 -1.0037
  824MOL0     H11220   8.632   9.425  11.200  0.8553  0.5662  3.7042
  824MOL0     H11221   8.629   9.249  11.265 -2.1211  0.4010  0.1935
  824MOL0     H11222   8.267   8.752  10.579 -1.0178 -2.7113 -0.9921
  824MOL0     H11223   8.071   8.774  10.436 -0.3158 -0.9613 -0.3810
  824MOL0     H11224   7.782   8.730  10.154  1.9739 -2.6784  0.5972
  824MOL0     H11225   7.628   8.595  10.040 -0.8754 -1.2517 -0.3819
  824MOL0     H11226   6.124   7.777  10.952  0.8023 -2.8262  2.0200
  824MOL0     H11227   6.126   7.529  10.888  2.1958 -1.2999  2.4263
  824MOL0     H11228   6.249   7.184  10.857 -1.7169  2.7215 -0.4335
  824MOL0     H11229   6.150   6.957  10.831 -4.3576 -0.8608 -0.7141
  824MOL0     H11230   6.183   6.743  10.778  1.0567  0.0154 -0.3514
  824MOL0     H11231   6.010   6.765  10.790  2.4307  0.8044  2.6561
  824MOL0     H11232   5.960   6.587  10.610  0.8677 -1.6524 -0.0451
  824MOL0     H11233   6.026   6.551  10.775  2.8054  1.7017  1.5863
  824MOL0     H11234   6.251   6.538  10.692 -0.8924  3.3515  0.9158
  824MOL0     H11235   6.191   6.555  10.521  2.6687  0.6834  0.9727
  824MOL0     H11236   6.230   6.328  10.591 -2.1928  0.0700 -5.2538
  824MOL0     H11237   6.075   6.334  10.539  4.9905 -1.9860 -3.2099
  824MOL0     H11238   6.083   6.194  10.948  0.1796  0.1696 -1.2963
  824MOL0     H11239   6.144   6.998  10.410  1.4369  2.6512 -1.8580
  824MOL0     H11240   6.255   7.214  10.427  0.3126  1.6400  1.2496
  825MOL0     O11241   6.748   0.046   6.051 -0.4121  1.1031  0.5244
  825MOL0     C11242   6.727   0.157   5.999 -0.5139 -0.1158  0.5712
  825MOL0     O11243   6.606   0.189   5.939 -0.3933  0.9719 -0.0439
  825MOL0     C11244   6.496   0.103   5.932 -0.0226 -0.0517  0.3834
  825MOL0     C11245   6.425   0.099   5.817 -0.0547  1.1527 -1.2455
  825MOL0     C11246   6.316   0.007   5.801 -0.0800 -1.1332  0.0421
  825MOL0     C11247   6.269  -0.067   5.910  0.1672  0.2849 -0.2875
  825MOL0     O11248   6.163  -0.161   5.895 -0.5993  0.0806 -0.9324
  825MOL0     C11249   6.044  -0.121   5.830  1.0536 -0.2443  0.8003
  825MOL0     C11250   5.943  -0.229   5.879 -0.7546 -0.8350 -0.7132
  825MOL0     C11251   5.805  -0.196   5.824 -0.2099  0.2283 -0.5621
  825MOL0     C11252   5.731  -0.300   5.737  0.2886 -0.1442  0.4074
  825MOL0     C11253   5.614  -0.246   5.644  0.4517  0.1227  0.2847
  825MOL0     C11254   5.487  -0.218   5.728 -0.4441 -0.5027 -0.8233
  825MOL0     C11255   5.370  -0.163   5.647 -0.9504 -0.8127  1.1006
  825MOL0     C11256   5.391  -0.020   5.602 -1.4630 -0.0825 -0.9312
  825MOL0     N11257   5.294   0.014   5.511  0.4775  0.2380 -0.3651
  825MOL0     C11258   5.313   0.115   5.417 -0.6351  0.1238 -1.8847
  825MOL0     C11259   5.200   0.111   5.337 -0.2636  0.0326 -0.8575
  825MOL0     C11260   5.171   0.217   5.236  0.5630 -0.9147  0.3374
  825MOL0     C11261   5.031   0.252   5.261  0.9512 -0.4721 -0.5205
  825MOL0     C11262   4.969   0.335   5.144 -0.6572 -0.2351  0.1293
  825MOL0     C11263   4.926   0.259   5.023  0.1249  0.0084 -0.1264
  825MOL0     O11264   4.855   0.348   4.934 -0.3046  0.3840  0.1937
  825MOL0     C11265   4.722   0.331   4.909  0.9657 -0.7707  0.0246
  825MOL0     C11266   4.665   0.386   4.790  0.3979 -0.8843  0.0829
  825MOL0     C11267   4.529   0.381   4.760  0.8178 -0.4068  0.6085
  825MOL0     C11268   4.480   0.446   4.627  0.2164 -0.5251  0.7485
  825MOL0     C11269   4.444   0.322   4.857  0.0743  0.1329 -1.3269
  825MOL0     C11270   4.296   0.309   4.842  0.8055  0.1516  1.1545
  825MOL0     O11271   4.223   0.235   4.936  1.1686  0.0927  0.1671
  825MOL0     C11272   4.100   0.196   4.894  0.5598 -0.3501 -0.6695
  825MOL0     C11273   4.059   0.182   4.763  0.5804  0.1923  0.2099
  825MOL0     C11274   3.934   0.153   4.734  0.1619  0.4726 -0.2833
  825MOL0     C11275   3.834   0.112   4.823  0.0399  0.0446 -0.0075
  825MOL0     O11276   3.702   0.093   4.781 -0.0496  0.5974  0.1361
  825MOL0     C11277   3.608   0.017   4.864  0.9070  0.3690 -0.1715
  825MOL0     C11278   3.640  -0.135   4.851  0.3683 -0.3656  0.0310
  825MOL0     C11279   3.527  -0.232   4.890  0.3477  1.0795  0.1194
  825MOL0     C11280   3.552  -0.385   4.880 -0.1690 -1.2986  0.0767
  825MOL0     C11281   3.437  -0.482   4.907 -0.0069 -1.5087 -0.2626
  825MOL0     C11282   3.476  -0.626   4.882 -0.4255  0.4794 -1.6856
  825MOL0     C11283   3.395  -0.726   4.968 -0.4692  0.4059  0.1224
  825MOL0     C11284   3.427  -0.727   5.122 -0.3466 -0.9403 -0.2855
  825MOL0    Cl11285   3.322  -0.832   5.205 -0.4403  0.3349  0.1122
  825MOL0     C11286   3.877   0.113   4.957  0.7852 -1.2459  0.5466
  825MOL0     C11287   4.005   0.165   4.993  0.1319 -0.4512 -0.1794
  825MOL0     O11288   4.238   0.391   4.766 -0.3108 -0.7760 -0.0559
  825MOL0     C11289   4.503   0.271   4.975  0.3000 -0.2243  0.9086
  825MOL0     C11290   4.636   0.274   5.002 -1.0650  0.2024 -0.4316
  825MOL0     N11291   5.118   0.015   5.385  0.7159  0.1421 -0.3192
  825MOL0     N11292   5.172  -0.043   5.487  0.3549  0.1283 -0.0661
  825MOL0     C11293   6.346  -0.070   6.028 -0.0303 -0.8038  0.6654
  825MOL0     C11294   6.455   0.017   6.036 -0.0948 -0.1712 -0.5094
  825MOL0     C11295   6.836   0.255   6.025 -0.3908  0.3917 -1.1530
  825MOL0     C11296   6.832   0.380   5.979  0.1995 -0.6245  0.4161
  825MOL0     C11297   6.932   0.477   5.981 -0.0427  0.6050  0.3300
  825MOL0     C11298   7.066   0.446   6.038 -0.3878  0.4466 -0.2500
  825MOL0     O11299   7.153   0.546   6.047 -0.4511  0.0121  0.6060
  825MOL0     C11300   7.289   0.518   6.099  0.7564 -0.9400  0.6969
  825MOL0     C11301   7.359   0.450   5.981  0.3702  0.1457  1.2435
  825MOL0     C11302   7.386   0.541   5.861  0.5938  0.0077  0.5308
  825MOL0     C11303   7.269   0.578   5.776 -0.4028  0.5196 -0.7443
  825MOL0     C11304   7.319   0.634   5.645  0.0996  0.2365  0.5552
  825MOL0     C11305   7.349   0.693   5.540  0.0541  0.4319  0.3266
  825MOL0     C11306   7.073   0.311   6.092 -0.4002 -0.9957  0.1508
  825MOL0     C11307   6.970   0.225   6.075 -0.5571  0.8860  0.3412
  825MOL0     H11308   6.447   0.183   5.752 -3.1506  2.7312 -0.4750
  825MOL0     H11309   6.257  -0.003   5.711  0.6775 -1.7188 -0.3959
  825MOL0     H11310   6.005  -0.022   5.855  1.0391 -0.5894  2.2271
  825MOL0     H11311   6.059  -0.134   5.723 -2.5757 -1.1621  0.2898
  825MOL0     H11312   5.981  -0.315   5.823  0.5931 -0.1504 -0.8954
  825MOL0     H11313   5.960  -0.236   5.987  2.9290  0.5036 -1.0648
  825MOL0     H11314   5.736  -0.173   5.906  0.1578  1.5033 -0.5877
  825MOL0     H11315   5.799  -0.101   5.770 -1.4036  3.4259  4.4333
  825MOL0     H11316   5.810  -0.336   5.671  0.6563  1.6795 -0.1849
  825MOL0     H11317   5.691  -0.380   5.801  1.2450 -0.0021  1.2015
  825MOL0     H11318   5.648  -0.155   5.593  2.3216 -0.6048  0.1695
  825MOL0     H11319   5.591  -0.318   5.565  0.9312  1.1680 -0.8379
  825MOL0     H11320   5.455  -0.319   5.754 -2.5102  0.1138 -0.7831
  825MOL0     H11321   5.508  -0.157   5.816  0.4310 -1.2844 -0.4825
  825MOL0     H11322   5.365  -0.223   5.556 -2.9186 -1.2254  1.4273
  825MOL0     H11323   5.274  -0.185   5.697 -1.5456  0.4840  0.5820
  825MOL0     H11324   5.488  -0.005   5.554 -0.1652 -2.4913  0.6815
  825MOL0     H11325   5.385   0.053   5.684 -2.3679  2.4663 -3.1259
  825MOL0     H11326   5.403   0.175   5.410 -0.0350 -0.5718 -0.4681
  825MOL0     H11327   5.241   0.301   5.227  0.1113 -0.5589  0.1031
  825MOL0     H11328   5.181   0.163   5.142  4.0399 -0.8375  0.5166
  825MOL0     H11329   5.026   0.318   5.348 -0.2491 -2.9605  1.4530
  825MOL0     H11330   4.967   0.170   5.294  1.2099 -0.4081  0.1613
  825MOL0     H11331   5.049   0.405   5.117  0.2338 -1.3545 -0.2257
  825MOL0     H11332   4.884   0.388   5.187 -0.5459  0.8907 -0.9825
  825MOL0     H11333   4.860   0.178   5.053 -2.0691  2.4295  2.1403
  825MOL0     H11334   5.007   0.204   4.974 -0.4731 -1.4006  0.4061
  825MOL0     H11335   4.740   0.446   4.741 -0.0532 -0.4456 -0.0881
  825MOL0     H11336   4.436   0.545   4.642  1.5551 -0.0463  1.7210
  825MOL0     H11337   4.562   0.472   4.559 -0.9458  2.5738  0.3742
  825MOL0     H11338   4.413   0.372   4.582 -0.0464 -1.2542  2.2517
  825MOL0     H11339   4.125   0.209   4.682  2.4467  0.8675  1.8905
  825MOL0     H11340   3.921   0.159   4.626  2.5892  1.7003 -0.5856
  825MOL0     H11341   3.607   0.056   4.966  3.1442  2.4909 -0.8502
  825MOL0     H11342   3.506   0.030   4.825  1.2208 -0.5302 -1.3447
  825MOL0     H11343   3.669  -0.145   4.746  1.6406  4.7221 -0.3844
  825MOL0     H11344   3.730  -0.150   4.912  0.4949  1.9274  0.4967
  825MOL0     H11345   3.442  -0.213   4.825 -0.4985  0.2216  0.9452
  825MOL0     H11346   3.497  -0.205   4.992 -0.0623  2.3178 -0.3076
  825MOL0     H11347   3.574  -0.399   4.774  2.9276  0.3688  0.3695
  825MOL0     H11348   3.646  -0.412   4.928  1.5303  1.6457 -1.2871
  825MOL0     H11349   3.367  -0.444   4.831  1.0131  1.3787  0.1032
  825MOL0     H11350   3.405  -0.470   5.010 -2.3368 -0.9661 -0.9818
  825MOL0     H11351   3.448  -0.656   4.781  1.7237 -3.0229 -1.4330
  825MOL0     H11352   3.584  -0.629   4.903 -0.8767  1.7893  1.4889
  825MOL0     H11353   3.393  -0.824   4.920 -2.8369  0.1528  0.6204
  825MOL0     H11354   3.292  -0.690   4.957 -1.6037 -1.4555  3.5089
  825MOL0     H11355   3.405  -0.625   5.155 -1.8074 -1.2316 -0.2907
  825MOL0     H11356   3.533  -0.750   5.140  1.3337  3.6585 -2.7761
  825MOL0     H11357   3.818   0.071   5.038 -0.1520  2.6595  2.1502
  825MOL0     H11358   4.047   0.173   5.093 -0.6735  2.8310  0.0148
  825MOL0     H11359   4.445   0.232   5.058  0.7867  2.5440  2.6500
  825MOL0     H11360   4.664   0.258   5.105 -1.7457  2.3401  0.1439
  825MOL0     H11361   6.314  -0.135   6.109 -0.0851 -0.9845  0.4995
  825MOL0     H11362   6.513   0.016   6.127 -0.4699  1.3055 -0.2334
  825MOL0     H11363   6.734   0.410   5.943  0.8632 -1.4407 -2.2851
  825MOL0     H11364   6.912   0.579   5.949  2.7925  0.7375 -1.3934
  825MOL0     H11365   7.337   0.612   6.130  2.0251 -0.7309 -1.6894
  825MOL0     H11366   7.294   0.457   6.190  2.1448 -0.1542  1.1890
  825MOL0     H11367   7.300   0.362   5.953 -0.3671  1.1044 -0.3446
  825MOL0     H11368   7.462   0.418   6.002  0.1576 -0.7595  0.9551
  825MOL0     H11369   7.461   0.483   5.806  3.4414  0.6337  3.4608
  825MOL0     H11370   7.434   0.633   5.895  1.4709 -0.6021  0.9462
  825MOL0     H11371   7.196   0.642   5.827 -1.2894 -0.2618 -1.0092
  825MOL0     H11372   7.214   0.486   5.755  0.4970 -0.0785 -0.5315
  825MOL0     H11373   7.369   0.740   5.446 -2.2058 -0.7862 -0.8345
  825MOL0     H11374   7.164   0.287   6.145 -1.0193 -1.6329  0.9409
  825MOL0     H11375   6.984   0.120   6.099 -1.5360  0.3865 -1.1299
  826MOL0     O11376   7.837   3.606  11.382  0.0267 -0.0929 -0.2749
  826MOL0     C11377   7.774   3.575  11.281  0.3737 -0.0195  1.2083
  826MOL0     O11378   7.820   3.481  11.196  1.6869 -0.0201 -1.1066
  826MOL0     C11379   7.949   3.446  11.176 -0.7472 -0.2323  1.3836
  826MOL0     C11380   8.037   3.421  11.284 -0.0711 -0.6345  0.0186
  826MOL0     C11381   8.174   3.392  11.265 -0.8432  0.8444 -0.6264
  826MOL0     C11382   8.214   3.372  11.133 -0.8121  0.2973 -0.4442
  826MOL0     O11383   8.344   3.352  11.105  0.0145 -0.2629  0.0848
  826MOL0     C11384   8.394   3.284  10.987 -0.6840 -0.0415  0.7229
  826MOL0     C11385   8.521   3.222  11.010 -0.8918 -0.5365 -0.5412
  826MOL0     C11386   8.564   3.104  10.920  0.6086  0.3221  0.1890
  826MOL0     C11387   8.495   3.068  10.785 -0.6332 -0.0382  0.2975
  826MOL0     C11388   8.582   2.954  10.732  0.0727 -0.6047  0.7436
  826MOL0     C11389   8.516   2.890  10.618  0.4285 -0.5915  0.9108
  826MOL0     C11390   8.608   2.767  10.565  0.4097 -0.5897  0.8246
  826MOL0     C11391   8.546   2.678  10.456 -0.3449 -0.5755  0.3629
  826MOL0     N11392   8.545   2.749  10.329 -1.1102 -0.3842 -0.6234
  826MOL0     C11393   8.650   2.763  10.247 -0.0883  0.2983  0.1277
  826MOL0     C11394   8.608   2.831  10.140 -0.1331 -0.4322  0.2271
  826MOL0     C11395   8.675   2.879  10.017 -0.9168  0.3442  0.6582
  826MOL0     C11396   8.806   2.797   9.987  0.1369  0.1596  0.5040
  826MOL0     C11397   8.785   2.651   9.934 -0.0320  0.5839 -0.1341
  826MOL0     C11398   8.905   2.555   9.945  0.1558  0.2378  0.5738
  826MOL0     O11399   8.950   2.552  10.080  0.5397  0.1767  0.3024
  826MOL0     C11400   8.872   2.491  10.178 -0.5474 -0.1617  0.3712
  826MOL0     C11401   8.890   2.526  10.315  0.7589 -1.4468 -0.8126
  826MOL0     C11402   8.838   2.451  10.420  0.1414 -0.1643  1.0583
  826MOL0     C11403   8.864   2.482  10.569 -0.3135 -0.1352  0.1454
  826MOL0     C11404   8.770   2.329  10.393 -0.0514 -0.0738  0.3117
  826MOL0     C11405   8.715   2.234  10.489 -0.3670 -0.0749 -0.3286
  826MOL0     O11406   8.727   2.100  10.455  0.1786  0.4531  0.2278
  826MOL0     C11407   8.682   2.004  10.532  0.0933  0.2989  0.5023
  826MOL0     C11408   8.771   1.933  10.622  0.4511 -0.3163  1.1262
  826MOL0     C11409   8.720   1.828  10.700  0.4904  1.0854  0.1026
  826MOL0     C11410   8.582   1.796  10.702 -0.9237 -0.3203  0.1363
  826MOL0     O11411   8.519   1.700  10.781 -0.2589  0.1827  0.1055
  826MOL0     C11412   8.414   1.764  10.856 -1.2769  0.0095  1.0359
  826MOL0     C11413   8.335   1.672  10.939 -0.2051  0.5147 -0.8269
  826MOL0     C11414   8.416   1.582  11.034  0.0533 -0.3599 -0.5915
  826MOL0     C11415   8.312   1.493  11.100  0.0828 -0.0601 -0.1461
  826MOL0     C11416   8.356   1.370  11.196 -0.3615 -0.5030 -0.2514
  826MOL0     C11417   8.480   1.290  11.137  0.2371 -0.1143  0.7620
  826MOL0     C11418   8.503   1.159  11.210  0.6727 -0.6975 -1.0312
  826MOL0     C11419   8.643   1.103  11.186  1.0099 -0.1239 -0.3967
  826MOL0    Cl11420   8.774   1.225  11.202  0.0537 -0.0827 -0.2123
  826MOL0     C11421   8.503   1.863  10.601 -0.0740  0.2877 -0.3412
  826MOL0     C11422   8.551   1.962  10.519 -0.6677 -0.6107  0.0344
  826MOL0     O11423   8.654   2.272  10.587  0.4910 -0.4973 -0.2675
  826MOL0     C11424   8.747   2.300  10.258 -0.1773 -0.3612 -0.1269
  826MOL0     C11425   8.793   2.381  10.148 -0.1906  0.0436  0.2646
  826MOL0     N11426   8.474   2.857  10.166  0.5589  0.8323 -0.5535
  826MOL0     N11427   8.436   2.810  10.270  0.1635  0.7661 -0.1794
  826MOL0     C11428   8.126   3.374  11.019 -0.1581 -0.3851 -0.0506
  826MOL0     C11429   7.996   3.407  11.051  0.9417 -0.6448 -0.0293
  826MOL0     C11430   7.654   3.643  11.234  0.5863  0.5720  0.3095
  826MOL0     C11431   7.600   3.753  11.301  0.0595  0.1039 -0.4887
  826MOL0     C11432   7.502   3.829  11.247 -0.2539  0.1209 -0.2992
  826MOL0     C11433   7.427   3.784  11.139  0.4229 -0.3419  0.2467
  826MOL0     O11434   7.317   3.854  11.091  0.0339  0.1610 -0.1052
  826MOL0     C11435   7.222   3.889  11.188  0.1180 -0.3553 -0.2388
  826MOL0     C11436   7.081   3.889  11.138 -0.5404  0.7040  0.3104
  826MOL0     C11437   7.043   3.791  11.014  0.1270  0.0338  0.5166
  826MOL0     C11438   6.890   3.783  11.004 -0.0214  0.2513 -0.6931
  826MOL0     C11439   6.837   3.657  11.074  0.9015 -0.2436  0.4718
  826MOL0     C11440   6.778   3.560  11.110 -0.2086 -0.5076  0.0154
  826MOL0     C11441   7.469   3.664  11.082  1.0945 -0.4431  0.2842
  826MOL0     C11442   7.582   3.593  11.116 -0.6342 -0.5844 -1.1365
  826MOL0     H11443   8.009   3.430  11.388  1.2565  0.3922  0.3154
  826MOL0     H11444   8.237   3.371  11.350 -2.3078  1.2798  0.6055
  826MOL0     H11445   8.333   3.197  10.960  0.6392 -0.9246  0.4712
  826MOL0     H11446   8.410   3.359  10.909  4.7364  2.1047  3.3607
  826MOL0     H11447   8.608   3.288  11.014 -0.4660 -1.1492  1.9883
  826MOL0     H11448   8.513   3.184  11.112  0.8179  2.8819  1.0309
  826MOL0     H11449   8.673   3.097  10.925  0.6310 -1.3527 -1.6999
  826MOL0     H11450   8.533   3.016  10.978  0.5509 -2.1671 -3.3074
  826MOL0     H11451   8.394   3.039  10.816  0.5130 -0.4840  4.2333
  826MOL0     H11452   8.486   3.159  10.724 -0.5414  0.8548  1.5592
  826MOL0     H11453   8.680   2.997  10.707 -0.2053  0.3345  1.2444
  826MOL0     H11454   8.583   2.883  10.815 -2.3876 -0.2701  1.1355
  826MOL0     H11455   8.412   2.858  10.628  0.5182 -2.5313 -2.8222
  826MOL0     H11456   8.515   2.972  10.546 -2.2529  0.3992  1.9408
  826MOL0     H11457   8.705   2.807  10.534  1.6758 -0.9196  3.9365
  826MOL0     H11458   8.628   2.692  10.643 -4.0536  0.5502  3.3914
  826MOL0     H11459   8.449   2.639  10.488  0.5417 -2.5543  0.8294
  826MOL0     H11460   8.597   2.583  10.434  4.8172  2.0702 -0.7645
  826MOL0     H11461   8.748   2.728  10.275  0.0913  2.6512  2.9404
  826MOL0     H11462   8.606   2.872   9.933 -0.6636  1.1253  0.3750
  826MOL0     H11463   8.706   2.984  10.025  0.2882  0.0752 -0.1919
  826MOL0     H11464   8.854   2.787  10.085 -1.5414  1.1685  1.4713
  826MOL0     H11465   8.851   2.857   9.908 -0.3475 -3.1778 -2.5631
  826MOL0     H11466   8.750   2.659   9.830 -0.5238 -2.3564 -0.3032
  826MOL0     H11467   8.705   2.606   9.994 -0.1366 -1.1656 -1.5057
  826MOL0     H11468   8.981   2.605   9.885 -1.0565  2.6898  0.9520
  826MOL0     H11469   8.875   2.458   9.903 -1.4288  0.9042  0.0663
  826MOL0     H11470   8.957   2.605  10.346  0.2051 -1.1880 -0.2554
  826MOL0     H11471   8.932   2.567  10.582 -1.0654  0.7869 -1.6279
  826MOL0     H11472   8.773   2.494  10.628 -0.8255  2.0208 -0.9950
  826MOL0     H11473   8.922   2.395  10.602 -2.4603 -2.1193 -1.0547
  826MOL0     H11474   8.877   1.957  10.619  0.9596 -2.0650 -2.9340
  826MOL0     H11475   8.782   1.779  10.774  3.9891  2.3325 -1.7725
  826MOL0     H11476   8.462   1.845  10.912 -0.3987  1.3206 -1.4657
  826MOL0     H11477   8.346   1.809  10.783 -0.4723  0.2071  0.3953
  826MOL0     H11478   8.262   1.726  10.999  0.9759  2.4882 -1.0952
  826MOL0     H11479   8.278   1.609  10.870 -1.4297  1.9660 -1.1953
  826MOL0     H11480   8.472   1.640  11.108  2.4355 -2.0215 -0.9923
  826MOL0     H11481   8.494   1.526  10.981 -0.9054 -1.8991 -0.4237
  826MOL0     H11482   8.241   1.560  11.149  1.2973  0.9310  0.3173
  826MOL0     H11483   8.254   1.442  11.022  2.3806  1.0980 -2.8149
  826MOL0     H11484   8.266   1.309  11.213 -2.8814  3.1826  0.8939
  826MOL0     H11485   8.380   1.415  11.292  2.6080 -1.0511 -0.6534
  826MOL0     H11486   8.468   1.267  11.031  0.3676 -6.5403  1.7039
  826MOL0     H11487   8.564   1.358  11.151 -0.0151  0.8869 -2.0255
  826MOL0     H11488   8.440   1.075  11.180  1.4227 -2.3623  1.7389
  826MOL0     H11489   8.488   1.167  11.318 -3.9522 -1.0279 -1.4792
  826MOL0     H11490   8.656   1.054  11.089  1.8813  1.9706 -1.3994
  826MOL0     H11491   8.668   1.022  11.254 -0.4611  0.4889  0.9390
  826MOL0     H11492   8.396   1.852  10.588 -0.3250  1.7420  0.2379
  826MOL0     H11493   8.487   2.004  10.442  0.0099 -1.8764 -1.2665
  826MOL0     H11494   8.707   2.205  10.224  0.1457 -0.2799 -0.7418
  826MOL0     H11495   8.771   2.353  10.046  0.0034  0.2502  0.1665
  826MOL0     H11496   8.158   3.345  10.920  0.9395 -1.1472  0.4997
  826MOL0     H11497   7.916   3.404  10.978  0.6313 -2.7217  0.3439
  826MOL0     H11498   7.636   3.778  11.400 -1.2254  1.2324 -0.2791
  826MOL0     H11499   7.463   3.903  11.316  1.4186  2.0958 -1.3681
  826MOL0     H11500   7.228   3.837  11.284  2.0362  0.1323 -0.0468
  826MOL0     H11501   7.255   3.987  11.223 -2.4659 -0.1045  1.8566
  826MOL0     H11502   7.050   3.987  11.099 -0.9498  1.8467  3.2612
  826MOL0     H11503   7.011   3.870  11.219 -0.6758  3.0735  0.8124
  826MOL0     H11504   7.091   3.697  11.042 -0.3087 -1.1181 -2.3016
  826MOL0     H11505   7.099   3.816  10.923  1.4320 -1.5105  0.8531
  826MOL0     H11506   6.874   3.790  10.897 -1.4827  2.4877 -0.3885
  826MOL0     H11507   6.837   3.868  11.049 -1.0623 -0.7489  0.0606
  826MOL0     H11508   6.716   3.484  11.154  0.7683 -1.8578 -0.8691
  826MOL0     H11509   7.418   3.629  10.993 -1.4620 -0.5591  1.6948
  826MOL0     H11510   7.601   3.505  11.056  3.8055 -0.8091  0.2576
  827MOL0     O11511   4.394   5.850  10.113 -0.1563 -0.2276 -0.7799
  827MOL0     C11512   4.487   5.916  10.157  0.4062  0.5923 -0.0307
  827MOL0     O11513   4.518   5.928  10.293  0.4683  0.5255  0.3798
  827MOL0     C11514   4.428   5.877  10.386 -0.0685 -0.5921  0.3348
  827MOL0     C11515   4.489   5.830  10.502  0.3283 -0.1044  0.9760
  827MOL0     C11516   4.412   5.771  10.603 -0.5615  0.4504 -0.1072
  827MOL0     C11517   4.275   5.777  10.608 -0.1473  0.0135 -0.3216
  827MOL0     O11518   4.199   5.720  10.711  0.2193 -0.5707  0.4334
  827MOL0     C11519   4.220   5.577  10.735 -0.1512  0.0446  0.3662
  827MOL0     C11520   4.195   5.493  10.608 -0.5055 -0.4913  0.4250
  827MOL0     C11521   4.317   5.467  10.529  0.5050 -0.3357  0.0181
  827MOL0     C11522   4.289   5.366  10.426  0.1026  0.5157  1.0530
  827MOL0     C11523   4.402   5.346  10.327 -0.4389  0.0158  0.2793
  827MOL0     C11524   4.376   5.349  10.180 -0.3510 -0.5213  0.0159
  827MOL0     C11525   4.458   5.246  10.111  0.2176  0.8250  0.9870
  827MOL0     C11526   4.442   5.255   9.956 -0.0019 -0.3857 -0.2734
  827MOL0     N11527   4.481   5.129   9.898  0.1451 -0.2210  0.6122
  827MOL0     C11528   4.610   5.074   9.905  0.7943  0.3464  0.3128
  827MOL0     C11529   4.608   4.970   9.816  0.1460  0.3688 -1.1782
  827MOL0     C11530   4.725   4.875   9.791  0.8494 -0.5917  0.4496
  827MOL0     C11531   4.736   4.845   9.641  0.0735  0.0635  1.1023
  827MOL0     C11532   4.655   4.723   9.594 -0.2052 -0.1234 -1.0062
  827MOL0     C11533   4.696   4.662   9.462  0.9508  0.8588 -0.6658
  827MOL0     O11534   4.614   4.550   9.436 -0.0669  0.5303  0.8068
  827MOL0     C11535   4.641   4.463   9.335 -0.1780 -0.0894  0.3820
  827MOL0     C11536   4.748   4.483   9.251  0.5798  0.3295 -0.6718
  827MOL0     C11537   4.790   4.399   9.159 -0.0880  0.2549  0.5358
  827MOL0     C11538   4.931   4.423   9.102  0.2505 -0.4171  0.3037
  827MOL0     C11539   4.715   4.281   9.133  0.4954 -0.6993 -0.8067
  827MOL0     C11540   4.759   4.175   9.034  0.2843 -0.2063  0.2540
  827MOL0     O11541   4.721   4.048   9.060 -0.9035 -0.1152  1.1545
  827MOL0     C11542   4.737   3.941   8.976  0.2259  0.0298  0.3596
  827MOL0     C11543   4.665   3.827   9.022  0.4655  0.0354 -0.7781
  827MOL0     C11544   4.649   3.716   8.943  0.2145  0.6288  0.7588
  827MOL0     C11545   4.726   3.708   8.819 -0.8433  0.7164 -0.4324
  827MOL0     O11546   4.723   3.600   8.732 -0.6006 -0.4455  0.0200
  827MOL0     C11547   4.670   3.485   8.795 -0.4377 -0.7890 -0.1404
  827MOL0     C11548   4.688   3.368   8.704 -1.1354 -0.2902  0.2517
  827MOL0     C11549   4.643   3.237   8.775  0.3556  0.3869 -0.1269
  827MOL0     C11550   4.687   3.108   8.694 -0.1560 -0.9159 -0.2752
  827MOL0     C11551   4.626   3.095   8.557 -0.5702 -0.1417  0.1253
  827MOL0     C11552   4.625   2.963   8.478  0.2353 -0.7312 -0.7404
  827MOL0     C11553   4.765   2.917   8.467  0.4957  0.5386 -0.0519
  827MOL0     C11554   4.779   2.785   8.384 -0.0138 -0.4229  0.4161
  827MOL0    Cl11555   4.682   2.792   8.228  0.0803 -0.3865  0.2833
  827MOL0     C11556   4.808   3.813   8.781  0.9844  1.4047  0.4156
  827MOL0     C11557   4.801   3.939   8.859 -0.2510 -0.3656  0.4309
  827MOL0     O11558   4.823   4.221   8.939  0.4234 -0.2496  1.0522
  827MOL0     C11559   4.580   4.282   9.187  0.0505  0.2073  0.0505
  827MOL0     C11560   4.554   4.355   9.303  0.2450  0.4083 -0.0059
  827MOL0     N11561   4.480   4.969   9.765  0.0122  0.3597 -0.3526
  827MOL0     N11562   4.401   5.053   9.805  0.2366 -0.4028 -0.1136
  827MOL0     C11563   4.207   5.813  10.484 -0.8648 -0.9772 -0.2261
  827MOL0     C11564   4.290   5.874  10.384 -0.8324  0.3229  1.0958
  827MOL0     C11565   4.590   5.964  10.063 -0.4425  1.0296  0.4854
  827MOL0     C11566   4.605   5.901   9.935  0.0471  0.0252  0.1282
  827MOL0     C11567   4.704   5.942   9.847 -0.1791 -0.7320 -1.1861
  827MOL0     C11568   4.801   6.038   9.883 -0.0028  0.1708 -0.1974
  827MOL0     O11569   4.895   6.073   9.790 -0.3381 -0.8194 -0.2832
  827MOL0     C11570   4.903   6.222   9.779  0.0237  0.5613  0.2547
  827MOL0     C11571   4.986   6.250   9.665  0.4963  0.0699  0.2157
  827MOL0     C11572   5.074   6.374   9.692  0.8120  0.8184 -0.6221
  827MOL0     C11573   5.115   6.424   9.551 -0.1005  0.0460  0.6198
  827MOL0     C11574   5.014   6.523   9.488 -0.3142  0.0615 -0.0880
  827MOL0     C11575   4.926   6.598   9.451  0.5014  0.6215  1.0262
  827MOL0     C11576   4.784   6.089  10.017 -0.5824 -1.0790 -0.3641
  827MOL0     C11577   4.686   6.047  10.109 -0.4729 -1.0656 -0.3764
  827MOL0     H11578   4.596   5.843  10.507  0.2297  0.2081  3.2326
  827MOL0     H11579   4.475   5.737  10.684  0.2475  0.7235 -0.6042
  827MOL0     H11580   4.320   5.552  10.773  0.2322  1.2934  0.2178
  827MOL0     H11581   4.149   5.554  10.816  0.5956 -1.9608  0.4943
  827MOL0     H11582   4.159   5.394  10.639  2.7227 -1.9493 -0.1375
  827MOL0     H11583   4.126   5.544  10.539  0.6823  1.9269  0.9183
  827MOL0     H11584   4.351   5.561  10.485  2.5952 -0.0423  2.0878
  827MOL0     H11585   4.397   5.435  10.596 -0.0812  1.1766  1.5194
  827MOL0     H11586   4.262   5.272  10.475 -3.3585  0.8465  0.0446
  827MOL0     H11587   4.196   5.370  10.369 -1.3778 -4.6569  2.5152
  827MOL0     H11588   4.469   5.427  10.357 -2.1807  1.2426  0.9891
  827MOL0     H11589   4.449   5.253  10.362 -1.0972 -0.5763 -0.3779
  827MOL0     H11590   4.271   5.321  10.169 -0.3095 -0.8755  0.4641
  827MOL0     H11591   4.389   5.445  10.130  1.9430 -0.6499  0.2526
  827MOL0     H11592   4.562   5.251  10.144  1.0719  1.9193 -1.6325
  827MOL0     H11593   4.428   5.147  10.145 -1.6348  1.6209  1.7945
  827MOL0     H11594   4.501   5.339   9.919 -1.3559  0.4471 -0.6183
  827MOL0     H11595   4.341   5.278   9.920 -0.2083 -1.2575 -0.2759
  827MOL0     H11596   4.692   5.119   9.961  0.3642  4.3342 -1.8672
  827MOL0     H11597   4.816   4.926   9.823  0.5820 -0.8913  1.7575
  827MOL0     H11598   4.717   4.780   9.844 -0.4539 -1.9744 -2.0278
  827MOL0     H11599   4.840   4.824   9.613  0.7765  0.7163  3.0617
  827MOL0     H11600   4.692   4.929   9.586 -1.9014 -1.6997 -0.1603
  827MOL0     H11601   4.554   4.765   9.589  0.1527  0.7361 -1.1459
  827MOL0     H11602   4.653   4.650   9.675  0.5864  0.3991 -0.4991
  827MOL0     H11603   4.799   4.626   9.452 -0.3643 -3.6007 -0.1431
  827MOL0     H11604   4.677   4.729   9.378  0.1068  0.8045 -0.5292
  827MOL0     H11605   4.816   4.568   9.262 -0.1716  0.8911 -0.3197
  827MOL0     H11606   4.987   4.495   9.162  0.1011 -0.1370  0.1112
  827MOL0     H11607   4.991   4.331   9.105 -1.9538 -2.1033 -2.4292
  827MOL0     H11608   4.914   4.468   9.003 -1.4741  0.3636  0.9167
  827MOL0     H11609   4.608   3.833   9.115  1.1752 -0.3910 -0.3068
  827MOL0     H11610   4.582   3.639   8.978  0.7549 -0.1295  0.1679
  827MOL0     H11611   4.705   3.469   8.897 -2.3182  1.5211  0.9816
  827MOL0     H11612   4.563   3.504   8.804 -0.3982  1.4780 -2.9178
  827MOL0     H11613   4.624   3.389   8.617  2.8110 -0.1354 -2.9280
  827MOL0     H11614   4.791   3.354   8.671 -1.5675 -1.8211 -0.5586
  827MOL0     H11615   4.536   3.250   8.786  0.7978  2.7135  2.3653
  827MOL0     H11616   4.663   3.219   8.881 -2.8696 -3.2155  0.0583
  827MOL0     H11617   4.796   3.104   8.688 -0.0132  1.2779  0.0019
  827MOL0     H11618   4.661   3.027   8.763  1.1065 -1.5557 -0.5289
  827MOL0     H11619   4.683   3.168   8.499  1.7811 -2.8605 -1.1790
  827MOL0     H11620   4.521   3.124   8.569 -0.8141 -0.6801 -0.6797
  827MOL0     H11621   4.561   2.897   8.535  2.2511 -0.1289  2.4517
  827MOL0     H11622   4.585   2.994   8.381 -0.9147  1.2557  0.2989
  827MOL0     H11623   4.795   2.883   8.566 -1.0398 -0.1861  0.1824
  827MOL0     H11624   4.833   2.991   8.423 -0.6895  0.0623 -2.9255
  827MOL0     H11625   4.747   2.700   8.445  1.9761 -0.9354  0.8035
  827MOL0     H11626   4.882   2.772   8.350  0.0628 -2.1236  1.2115
  827MOL0     H11627   4.866   3.817   8.689  0.7976 -2.8464 -0.0908
  827MOL0     H11628   4.851   4.020   8.806 -0.2234 -1.4392 -1.2655
  827MOL0     H11629   4.512   4.198   9.176 -1.3574  1.0682  1.7375
  827MOL0     H11630   4.455   4.336   9.344 -0.8732  2.5136 -1.4848
  827MOL0     H11631   4.099   5.804  10.476 -1.1756  0.7971  1.2700
  827MOL0     H11632   4.235   5.892  10.293  1.8035  2.8086 -0.2001
  827MOL0     H11633   4.541   5.824   9.893 -1.3401  1.7576 -1.0635
  827MOL0     H11634   4.711   5.898   9.748  1.6349 -0.0277 -1.4170
  827MOL0     H11635   4.796   6.244   9.777 -0.4015 -1.3691  0.1453
  827MOL0     H11636   4.948   6.268   9.868 -0.7018  0.3419  0.7445
  827MOL0     H11637   4.927   6.264   9.574 -0.2357  2.1675  0.9694
  827MOL0     H11638   5.064   6.176   9.644 -0.1582 -0.5667 -0.0084
  827MOL0     H11639   5.160   6.337   9.749  0.6969  1.0479 -0.2976
  827MOL0     H11640   5.016   6.454   9.738  2.5000  1.3142  0.7614
  827MOL0     H11641   5.110   6.343   9.479  0.8045  0.3144  0.2405
  827MOL0     H11642   5.221   6.453   9.550  0.9100 -3.2828  0.4033
  827MOL0     H11643   4.855   6.673   9.424  0.4957  0.1608 -0.3098
  827MOL0     H11644   4.867   6.149  10.053 -0.3470 -1.8042  0.3177
  827MOL0     H11645   4.680   6.095  10.206 -2.7675  1.3002 -1.5811
  828MOL0     O11646   4.968   2.911  10.411  0.2462 -0.1380  0.8373
  828MOL0     C11647   5.011   2.860  10.508 -0.4498 -0.5628 -1.2571
  828MOL0     O11648   5.131   2.881  10.562  0.3487 -0.3772 -1.1959
  828MOL0     C11649   5.235   2.941  10.499  0.0471  0.3684  0.8850
  828MOL0     C11650   5.358   2.905  10.561 -0.0101  0.3383 -0.4673
  828MOL0     C11651   5.483   2.952  10.527  0.9212  1.0885  0.1984
  828MOL0     C11652   5.492   3.014  10.403  1.4676  0.6014  0.7946
  828MOL0     O11653   5.607   3.052  10.347 -0.5011 -0.1953  0.0273
  828MOL0     C11654   5.730   3.009  10.404 -0.3297  0.1813 -0.1098
  828MOL0     C11655   5.832   3.051  10.297 -1.0057  0.1320  0.4818
  828MOL0     C11656   5.945   2.945  10.296  0.2380  1.5381 -0.0336
  828MOL0     C11657   5.899   2.826  10.221  0.0555 -0.4139  1.4892
  828MOL0     C11658   6.028   2.745  10.167  0.2696  0.1460  0.3565
  828MOL0     C11659   5.996   2.618  10.084  0.0839  0.5141 -0.0389
  828MOL0     C11660   6.121   2.544  10.073  0.2088  0.6703 -0.8782
  828MOL0     C11661   6.093   2.410  10.002 -0.4345  0.8294 -0.2880
  828MOL0     N11662   6.143   2.290  10.069  0.5343 -0.0285 -0.1358
  828MOL0     C11663   6.247   2.215  10.015  0.3146 -0.4148  0.3448
  828MOL0     C11664   6.271   2.117  10.107  0.3641 -1.1700  0.2440
  828MOL0     C11665   6.390   2.027  10.117 -0.3161 -0.0719 -0.7947
  828MOL0     C11666   6.356   1.877  10.091  0.3889  0.2954  0.1327
  828MOL0     C11667   6.295   1.840   9.956 -0.2968 -0.0698 -0.7004
  828MOL0     C11668   6.358   1.878   9.821 -0.2657  0.1760 -0.1564
  828MOL0     O11669   6.304   1.812   9.700 -0.1863 -0.5399 -0.0103
  828MOL0     C11670   6.371   1.819   9.582 -0.1362 -0.3443 -0.8371
  828MOL0     C11671   6.290   1.766   9.484  0.0550 -0.3514 -0.3487
  828MOL0     C11672   6.343   1.745   9.358  0.5856  0.5400  0.8668
  828MOL0     C11673   6.277   1.645   9.267  0.2262  0.1697 -1.1115
  828MOL0     C11674   6.452   1.818   9.323 -0.6810 -0.6862 -0.0210
  828MOL0     C11675   6.482   1.841   9.188 -0.6658  0.4764 -0.8778
  828MOL0     O11676   6.612   1.825   9.155 -0.2213  0.2212 -1.0582
  828MOL0     C11677   6.667   1.871   9.033  0.2674 -0.9472  0.0308
  828MOL0     C11678   6.683   2.003   9.009  0.6448  1.1898  0.9789
  828MOL0     C11679   6.764   2.049   8.900 -0.9451  1.0082 -0.4460
  828MOL0     C11680   6.805   1.968   8.800 -0.5016 -0.9984 -0.2417
  828MOL0     O11681   6.890   2.019   8.702 -0.5953  0.2441 -0.2763
  828MOL0     C11682   6.954   2.146   8.715 -0.6083 -1.3276  0.0223
  828MOL0     C11683   7.080   2.142   8.622  0.0657  0.1469 -0.7235
  828MOL0     C11684   7.156   2.270   8.629  0.7956 -0.4962 -0.7544
  828MOL0     C11685   7.122   2.363   8.507 -0.6408  0.3334  0.3882
  828MOL0     C11686   7.191   2.297   8.382  0.4261 -1.0458 -0.2780
  828MOL0     C11687   7.149   2.381   8.269  0.8349 -1.0324 -0.4866
  828MOL0     C11688   7.230   2.350   8.144  0.6745 -0.5745  0.7070
  828MOL0     C11689   7.234   2.456   8.042  0.2115  0.5267  0.5493
  828MOL0    Cl11690   7.333   2.598   8.096 -0.3963  0.6142  0.4823
  828MOL0     C11691   6.770   1.829   8.813  0.3696 -0.0861 -0.2873
  828MOL0     C11692   6.701   1.785   8.926 -0.1070  1.5425  0.0038
  828MOL0     O11693   6.396   1.878   9.114 -0.2263  0.5747 -0.1364
  828MOL0     C11694   6.542   1.876   9.421  0.2790 -0.0661  0.7005
  828MOL0     C11695   6.496   1.875   9.548 -0.1265 -0.4745 -0.7749
  828MOL0     N11696   6.162   2.126  10.199 -1.2923  0.0621  0.6716
  828MOL0     N11697   6.096   2.240  10.187 -0.2567  0.0033  0.0434
  828MOL0     C11698   5.374   3.043  10.334 -0.0248 -0.0612 -0.1827
  828MOL0     C11699   5.246   3.014  10.379 -0.4812 -0.2300  0.8612
  828MOL0     C11700   4.932   2.754  10.576 -0.8976  0.1115  0.0444
  828MOL0     C11701   5.000   2.641  10.619  0.4487  0.6040 -0.5877
  828MOL0     C11702   4.929   2.542  10.696 -1.0083 -1.0740  1.1029
  828MOL0     C11703   4.787   2.550  10.716 -0.8008  0.1228 -0.2298
  828MOL0     O11704   4.719   2.470  10.800  0.0176  0.2329 -0.3393
  828MOL0     C11705   4.731   2.326  10.782  0.5203  0.0017 -0.0897
  828MOL0     C11706   4.608   2.296  10.702 -0.3421  0.1825 -0.2418
  828MOL0     C11707   4.480   2.269  10.788 -0.1063  0.4464 -0.2669
  828MOL0     C11708   4.443   2.381  10.885  0.1706  0.6585  0.0273
  828MOL0     C11709   4.400   2.494  10.809 -0.2865 -0.0123  0.4404
  828MOL0     C11710   4.378   2.597  10.748  0.4434 -0.3449  0.8420
  828MOL0     C11711   4.724   2.648  10.655 -0.5018 -0.6425  1.3563
  828MOL0     C11712   4.790   2.755  10.588 -0.4924 -0.0816  0.6180
  828MOL0     H11713   5.363   2.846  10.652  1.4789  0.5328 -0.3944
  828MOL0     H11714   5.570   2.916  10.580  1.7563  0.0788 -1.7354
  828MOL0     H11715   5.762   3.070  10.488  0.2751 -0.0627 -0.1559
  828MOL0     H11716   5.729   2.900  10.413  3.9336  0.0237  0.5437
  828MOL0     H11717   5.785   3.062  10.199  1.3957 -2.4996 -1.1157
  828MOL0     H11718   5.882   3.147  10.317  0.6465 -0.6720  0.3860
  828MOL0     H11719   6.034   2.982  10.244  2.9139 -4.1334 -0.2161
  828MOL0     H11720   5.984   2.924  10.396  1.7810  3.0184 -0.2698
  828MOL0     H11721   5.842   2.756  10.284 -0.6194 -0.5779  0.7117
  828MOL0     H11722   5.837   2.843  10.133  0.6261 -1.3936  0.8757
  828MOL0     H11723   6.084   2.807  10.096 -0.7249 -0.0827 -0.6555
  828MOL0     H11724   6.087   2.729  10.258 -3.0144 -3.9102  2.1413
  828MOL0     H11725   5.910   2.565  10.127  1.0171 -2.5160 -1.6679
  828MOL0     H11726   5.978   2.650   9.981 -0.7489  1.8495  0.4922
  828MOL0     H11727   6.202   2.597  10.023  2.2308 -1.9432 -0.5584
  828MOL0     H11728   6.152   2.522  10.175  2.4527 -1.0503 -1.8483
  828MOL0     H11729   6.146   2.416   9.906  1.5983  0.1872  0.7419
  828MOL0     H11730   5.985   2.404   9.984 -0.9478  0.9957  2.4265
  828MOL0     H11731   6.299   2.228   9.921 -1.9602 -0.8438 -1.0413
  828MOL0     H11732   6.471   2.055  10.048 -1.5090  3.8441 -0.8187
  828MOL0     H11733   6.434   2.041  10.216  0.0310 -0.9809 -0.8048
  828MOL0     H11734   6.288   1.850  10.172 -1.3069  1.5702 -0.8209
  828MOL0     H11735   6.446   1.815  10.103 -2.1891 -3.4089  2.3570
  828MOL0     H11736   6.204   1.899   9.971 -0.0358  0.5677 -1.5636
  828MOL0     H11737   6.279   1.733   9.974 -1.0576  0.4247  2.1850
  828MOL0     H11738   6.467   1.870   9.824 -0.2452  0.6072  0.2733
  828MOL0     H11739   6.330   1.982   9.803  2.0478  0.4895 -2.7130
  828MOL0     H11740   6.188   1.735   9.503 -0.0549 -0.6698 -1.4231
  828MOL0     H11741   6.278   1.665   9.160 -4.8035  0.9183 -1.2710
  828MOL0     H11742   6.313   1.544   9.289 -1.2543 -0.1021  0.3716
  828MOL0     H11743   6.170   1.653   9.291  0.2377  2.8473 -1.6767
  828MOL0     H11744   6.670   2.073   9.091 -1.6491 -2.4236  4.0044
  828MOL0     H11745   6.786   2.155   8.901 -2.4027  1.4473 -3.7115
  828MOL0     H11746   6.892   2.231   8.686  2.0526  1.3516  1.6528
  828MOL0     H11747   6.989   2.161   8.818  0.1151  2.4916 -0.6490
  828MOL0     H11748   7.142   2.057   8.651 -1.8402 -1.0114  0.2019
  828MOL0     H11749   7.042   2.121   8.521  0.5909 -0.7553 -0.7433
  828MOL0     H11750   7.263   2.254   8.641  1.0352  1.6906  0.8317
  828MOL0     H11751   7.126   2.329   8.717  0.2894 -1.8288 -0.0079
  828MOL0     H11752   7.015   2.376   8.489 -0.4481 -1.5809 -2.8168
  828MOL0     H11753   7.161   2.460   8.539 -0.6174  0.5173 -0.1773
  828MOL0     H11754   7.173   2.190   8.379  2.1546 -1.3560 -0.2715
  828MOL0     H11755   7.299   2.302   8.397  0.6155 -0.7598 -1.6066
  828MOL0     H11756   7.042   2.382   8.247  0.8967  1.9522 -0.9733
  828MOL0     H11757   7.180   2.480   8.301 -1.4669 -0.4141  0.0276
  828MOL0     H11758   7.193   2.259   8.097  2.7866 -0.9007 -0.4519
  828MOL0     H11759   7.326   2.320   8.187  0.9776 -1.5386 -0.5907
  828MOL0     H11760   7.135   2.497   8.018 -0.1915  0.4109  1.9445
  828MOL0     H11761   7.291   2.424   7.954  1.8853 -1.3719  2.2400
  828MOL0     H11762   6.776   1.752   8.736  1.4616  0.2216 -0.5311
  828MOL0     H11763   6.656   1.686   8.929  2.8124  0.1090  0.1518
  828MOL0     H11764   6.629   1.934   9.389  1.3000 -2.5534 -1.3664
  828MOL0     H11765   6.540   1.943   9.620 -3.7885 -0.1961  1.4304
  828MOL0     H11766   5.380   3.095  10.239 -0.4090 -1.1501 -0.8178
  828MOL0     H11767   5.155   3.050  10.332  0.6848  2.4809  0.4776
  828MOL0     H11768   5.108   2.628  10.616  0.2473 -1.9584  0.3252
  828MOL0     H11769   4.993   2.470  10.746 -2.3414 -0.6172  3.6434
  828MOL0     H11770   4.821   2.293  10.730  0.0444 -0.4152 -0.6645
  828MOL0     H11771   4.729   2.265  10.873  0.1899 -1.1865 -0.8627
  828MOL0     H11772   4.616   2.223  10.621 -0.4185  1.2581 -1.2370
  828MOL0     H11773   4.582   2.372  10.628  0.3934 -0.0934 -0.7939
  828MOL0     H11774   4.500   2.188  10.859 -0.9256  0.9023  0.4995
  828MOL0     H11775   4.395   2.238  10.726 -2.0258 -1.5108  3.0308
  828MOL0     H11776   4.531   2.399  10.947  2.2080 -4.0102 -1.0425
  828MOL0     H11777   4.367   2.346  10.955  0.0989 -0.6655 -0.6700
  828MOL0     H11778   4.372   2.692  10.699 -1.4204 -1.1744 -0.6272
  828MOL0     H11779   4.617   2.635  10.674 -1.3904 -0.5128 -2.7199
  828MOL0     H11780   4.745   2.845  10.547  0.5042 -0.2790 -1.0019
  829MOL0     O11781   9.592   0.192   9.620 -0.4077  0.4307  0.4787
  829MOL0     C11782   9.639   0.078   9.600 -0.3208 -0.3834  0.8379
  829MOL0     O11783   9.718   0.010   9.681 -0.5444  0.5697  0.1857
  829MOL0     C11784   9.780   0.064   9.787  0.5145 -0.4033 -0.8284
  829MOL0     C11785   9.827   0.200   9.789  0.0236 -0.2744  0.9949
  829MOL0     C11786   9.880   0.246   9.909 -0.3786  0.3617  0.4841
  829MOL0     C11787   9.903   0.162  10.011  0.1746 -1.0374 -0.6238
  829MOL0     O11788   9.962   0.232  10.123  0.5889  0.7543 -0.2990
  829MOL0     C11789  10.000   0.147  10.235  0.7528  0.1122  0.4718
  829MOL0     C11790  10.057   0.242  10.354  0.1718  0.5378  0.4185
  829MOL0     C11791  10.187   0.314  10.309 -0.2480 -0.1139 -0.0053
  829MOL0     C11792  10.320   0.231  10.306  0.2545  0.2272 -0.5397
  829MOL0     C11793  10.405   0.205  10.430  0.8708 -1.0346 -0.3280
  829MOL0     C11794  10.487   0.333  10.436 -0.6556  1.0365 -0.1194
  829MOL0     C11795  10.585   0.325  10.566  1.0146  0.1984  0.2314
  829MOL0     C11796  10.710   0.252  10.541 -0.0995  0.3718 -0.9743
  829MOL0     N11797  10.787   0.216  10.660  0.3954  0.3036  0.8366
  829MOL0     C11798  10.740   0.132  10.754  0.2185  0.3053  0.5137
  829MOL0     C11799  10.832   0.122  10.849 -0.0325 -0.4687  0.8830
  829MOL0     C11800  10.809   0.032  10.969  1.0576  1.0862  0.0637
  829MOL0     C11801  10.933  -0.030  11.027  0.4818 -0.5714 -0.2418
  829MOL0     C11802  10.912  -0.113  11.156 -0.2015  0.5727 -0.0157
  829MOL0     C11803  10.834  -0.238  11.122  0.6126 -0.1863  0.9699
  829MOL0     O11804  10.809  -0.315  11.234 -0.4405  0.4943 -0.2893
  829MOL0     C11805  10.719  -0.418  11.226 -0.0741 -1.8767 -0.3917
  829MOL0     C11806  10.659  -0.461  11.107 -0.2770 -0.0266  0.1876
  829MOL0     C11807  10.588  -0.585  11.104  0.7910  0.8496  0.3497
  829MOL0     C11808  10.520  -0.615  10.974  0.1107 -1.2768 -0.8266
  829MOL0     C11809  10.576  -0.656  11.222  2.1628  0.4393 -0.7054
  829MOL0     C11810  10.500  -0.791  11.240  0.4087  0.5236  0.6184
  829MOL0     O11811  10.464  -0.832  11.369 -0.0783 -0.5349  0.4249
  829MOL0     C11812  10.410  -0.960  11.386  0.0011 -0.2052 -1.1664
  829MOL0     C11813  10.459  -1.084  11.333 -0.2927  0.3044 -0.3592
  829MOL0     C11814  10.402  -1.206  11.376 -0.4050  0.4710 -0.1660
  829MOL0     C11815  10.302  -1.214  11.463 -0.3579  0.0103 -0.0597
  829MOL0     O11816  10.229  -1.329  11.493  0.7904 -0.0365 -0.0926
  829MOL0     C11817  10.250  -1.443  11.405  0.2790  0.9113  0.7955
  829MOL0     C11818  10.155  -1.553  11.440 -0.8421  0.8476  1.5569
  829MOL0     C11819  10.087  -1.609  11.310  0.4167 -0.7318 -0.3469
  829MOL0     C11820   9.983  -1.715  11.346 -0.7134  0.0106 -0.3778
  829MOL0     C11821   9.922  -1.778  11.226  2.1290 -0.7140  0.5999
  829MOL0     C11822   9.844  -1.909  11.269  0.4080 -0.8060  0.2853
  829MOL0     C11823   9.775  -1.965  11.137 -0.5477  0.1631 -0.1124
  829MOL0     C11824   9.685  -2.082  11.150 -0.0366 -0.1337 -0.5286
  829MOL0    Cl11825   9.608  -2.106  10.999 -0.1891 -0.1409 -0.1872
  829MOL0     C11826  10.272  -1.098  11.535 -0.6802 -0.2806  0.4153
  829MOL0     C11827  10.321  -0.975  11.495 -0.4348 -0.0212  0.2913
  829MOL0     O11828  10.469  -0.851  11.138  0.5527 -1.3781 -0.2246
  829MOL0     C11829  10.623  -0.603  11.347  0.1413  1.4621 -0.2841
  829MOL0     C11830  10.707  -0.486  11.340  0.7826  0.8611  0.1370
  829MOL0     N11831  10.946   0.184  10.806 -0.4317  0.2750 -0.1547
  829MOL0     N11832  10.916   0.254  10.698  0.2581  0.1568 -0.9409
  829MOL0     C11833   9.858   0.030  10.007 -0.1229  0.8820 -0.0154
  829MOL0     C11834   9.795  -0.028   9.896 -0.1570  0.1665 -0.0806
  829MOL0     C11835   9.622   0.003   9.474  0.7606  0.5879 -0.5931
  829MOL0     C11836   9.608  -0.137   9.473 -0.8139 -0.6100  0.8529
  829MOL0     C11837   9.596  -0.201   9.351 -0.7342  1.0683  0.0903
  829MOL0     C11838   9.601  -0.133   9.227 -0.7666  0.2152  0.2568
  829MOL0     O11839   9.581  -0.187   9.104 -0.1867 -0.3166 -0.3366
  829MOL0     C11840   9.517  -0.317   9.076  0.3579 -0.7018 -0.4646
  829MOL0     C11841   9.576  -0.390   8.962  0.7779 -0.2039 -0.2104
  829MOL0     C11842   9.499  -0.514   8.920  0.9660 -0.8514 -0.1423
  829MOL0     C11843   9.574  -0.579   8.794 -0.8575  0.6343 -0.4415
  829MOL0     C11844   9.694  -0.646   8.841 -0.1598 -1.0043 -1.9958
  829MOL0     C11845   9.799  -0.683   8.887  0.4800  0.3593  1.1937
  829MOL0     C11846   9.618   0.002   9.232  0.0750  0.9120 -0.0221
  829MOL0     C11847   9.625   0.066   9.355 -0.2793  0.0186 -1.2134
  829MOL0     H11848   9.808   0.264   9.704  1.3602  1.6846  2.0770
  829MOL0     H11849   9.919   0.347   9.918 -1.2528  0.5642  2.6941
  829MOL0     H11850   9.911   0.097  10.274  1.1252 -1.8491 -1.0713
  829MOL0     H11851  10.073   0.072  10.205  1.8699  1.1802  0.4440
  829MOL0     H11852   9.985   0.318  10.385  1.0133  1.1102  0.9946
  829MOL0     H11853  10.085   0.186  10.444  1.2800 -1.2618 -0.9722
  829MOL0     H11854  10.177   0.371  10.216  0.6619  0.0762 -0.0045
  829MOL0     H11855  10.206   0.404  10.369 -0.1495  1.2049 -1.9287
  829MOL0     H11856  10.281   0.131  10.286 -0.3793  0.0823  1.2072
  829MOL0     H11857  10.380   0.270  10.224 -0.2383  1.0108 -0.5343
  829MOL0     H11858  10.341   0.189  10.517  0.4726 -1.7092 -0.7341
  829MOL0     H11859  10.473   0.122  10.411  0.2238 -1.2196 -2.1079
  829MOL0     H11860  10.539   0.350  10.341 -1.4704  0.0121 -0.7673
  829MOL0     H11861  10.421   0.420  10.440 -2.2656  0.2065 -4.1764
  829MOL0     H11862  10.616   0.425  10.598 -0.3670  2.1800 -3.9491
  829MOL0     H11863  10.516   0.280  10.639  0.3858  0.3284 -0.2696
  829MOL0     H11864  10.778   0.310  10.478 -2.4144  2.4819 -1.6802
  829MOL0     H11865  10.685   0.158  10.490 -1.9300 -0.2317  0.8759
  829MOL0     H11866  10.640   0.091  10.744  1.5707 -3.1747 -0.1909
  829MOL0     H11867  10.765   0.105  11.037  0.7538  0.3006  0.7246
  829MOL0     H11868  10.722  -0.032  10.953  1.9558  0.0471 -0.8758
  829MOL0     H11869  11.002   0.049  11.059 -0.1875 -0.5074  1.1183
  829MOL0     H11870  10.982  -0.098  10.956  0.2918  0.0688 -1.0006
  829MOL0     H11871  10.855  -0.055  11.230 -0.7327  1.1530 -0.8575
  829MOL0     H11872  11.012  -0.136  11.193 -0.7822 -1.5284  0.4247
  829MOL0     H11873  10.876  -0.298  11.040  0.4902  1.1376 -0.0978
  829MOL0     H11874  10.733  -0.212  11.089 -0.8082 -1.9422  3.5989
  829MOL0     H11875  10.668  -0.407  11.014 -1.8747 -1.0650 -0.6098
  829MOL0     H11876  10.495  -0.517  10.933 -1.3944 -0.8322  0.9966
  829MOL0     H11877  10.583  -0.674  10.907  1.8102 -1.2719  0.6929
  829MOL0     H11878  10.425  -0.666  10.992  1.2233 -2.1814  3.6337
  829MOL0     H11879  10.536  -1.082  11.256 -1.1199  1.0133 -1.2025
  829MOL0     H11880  10.430  -1.292  11.317 -1.1100  1.4708 -2.0584
  829MOL0     H11881  10.224  -1.414  11.303 -2.2211  2.3216  1.7517
  829MOL0     H11882  10.352  -1.484  11.406 -0.8999 -2.3228  1.0422
  829MOL0     H11883  10.210  -1.628  11.498 -0.9919 -1.1012 -0.6453
  829MOL0     H11884  10.081  -1.506  11.505 -1.0547  1.7255  0.7160
  829MOL0     H11885  10.159  -1.652  11.239 -0.6141 -3.8399  0.3475
  829MOL0     H11886  10.034  -1.525  11.265  0.8344 -0.5691 -0.5442
  829MOL0     H11887  10.036  -1.780  11.416  0.3353  0.5093 -0.6850
  829MOL0     H11888   9.900  -1.672  11.404 -3.3585 -2.3188 -2.1709
  829MOL0     H11889   9.997  -1.809  11.153  2.5199 -0.3524  0.8427
  829MOL0     H11890   9.856  -1.703  11.180  2.0055 -0.8877  0.4928
  829MOL0     H11891   9.911  -1.983  11.314  0.9216  1.2217  3.1213
  829MOL0     H11892   9.771  -1.888  11.348 -1.4069 -0.3541 -1.4130
  829MOL0     H11893   9.860  -1.988  11.072  1.9717  3.6574  1.6177
  829MOL0     H11894   9.709  -1.886  11.102 -1.7182  0.3560  2.3023
  829MOL0     H11895   9.617  -2.044  11.227 -1.3883 -1.7239 -0.8601
  829MOL0     H11896   9.740  -2.170  11.184 -0.7005 -0.5841 -0.5890
  829MOL0     H11897  10.216  -1.091  11.628  1.6159  0.3126  1.8187
  829MOL0     H11898  10.294  -0.883  11.547  0.5715  0.0228  0.7471
  829MOL0     H11899  10.604  -0.650  11.443  0.1015 -0.2490 -1.0919
  829MOL0     H11900  10.746  -0.441  11.431  2.3611 -1.7390  0.8702
  829MOL0     H11901   9.854  -0.034  10.095  0.6211  0.1347 -0.5195
  829MOL0     H11902   9.748  -0.126   9.892  0.4764 -0.3182  2.6263
  829MOL0     H11903   9.611  -0.192   9.566  0.6120 -0.9199  0.6561
  829MOL0     H11904   9.593  -0.309   9.357  0.4209  1.0937  2.3165
  829MOL0     H11905   9.533  -0.386   9.159 -0.2124  0.9076  1.0405
  829MOL0     H11906   9.412  -0.288   9.070  1.0159  2.4262  1.1815
  829MOL0     H11907   9.676  -0.419   8.994 -0.6727 -1.3622  3.9956
  829MOL0     H11908   9.587  -0.328   8.873  1.4375  2.1168  1.3969
  829MOL0     H11909   9.398  -0.486   8.891 -0.7346 -1.1946  4.5372
  829MOL0     H11910   9.488  -0.584   9.003  2.4927  0.1365  0.9578
  829MOL0     H11911   9.599  -0.516   8.707  3.6032 -1.2938 -0.8259
  829MOL0     H11912   9.514  -0.657   8.748 -0.6981 -0.1174  0.6122
  829MOL0     H11913   9.878  -0.738   8.935 -1.2925 -2.2012  1.3527
  829MOL0     H11914   9.613   0.052   9.136 -0.4034 -0.5660 -0.8034
  829MOL0     H11915   9.636   0.174   9.361  1.6336 -0.1187 -1.3674
  830MOL0     O11916  11.439   4.721  10.904 -1.3030  0.1819 -0.6551
  830MOL0     C11917  11.494   4.756  11.008 -0.0753  0.3119 -0.3294
  830MOL0     O11918  11.433   4.836  11.094  0.5554 -0.8789 -0.1030
  830MOL0     C11919  11.333   4.924  11.058  0.9362 -0.9252  0.4307
  830MOL0     C11920  11.271   4.977  11.168  0.4920  0.1084  0.3810
  830MOL0     C11921  11.157   5.055  11.157 -0.1292  0.1993  0.4892
  830MOL0     C11922  11.130   5.103  11.030 -0.0976  0.1457  0.5217
  830MOL0     O11923  11.025   5.191  11.001  0.6200 -0.0872 -0.1192
  830MOL0     C11924  10.896   5.169  11.075 -0.2721 -0.1267 -0.4922
  830MOL0     C11925  10.799   5.281  11.035 -0.8831  0.2391 -0.7736
  830MOL0     C11926  10.678   5.273  11.121  0.7380  0.1288  0.6848
  830MOL0     C11927  10.587   5.394  11.095  0.1446 -0.3284  0.6613
  830MOL0     C11928  10.450   5.416  11.176  0.2579 -0.3613 -0.5876
  830MOL0     C11929  10.489   5.428  11.316 -0.1519  1.1068  0.2878
  830MOL0     C11930  10.350   5.447  11.390 -0.6076  0.1275  0.5220
  830MOL0     C11931  10.374   5.456  11.549 -0.3783  0.0347 -0.3231
  830MOL0     N11932  10.259   5.478  11.635 -0.0590  0.7521  0.4995
  830MOL0     C11933  10.225   5.397  11.738  0.2717 -0.1324  0.3392
  830MOL0     C11934  10.120   5.467  11.806  0.0979  0.6268 -0.9561
  830MOL0     C11935  10.038   5.396  11.914  0.4911 -0.9316  0.3454
  830MOL0     C11936   9.992   5.250  11.885  0.8706  0.1782 -0.6972
  830MOL0     C11937   9.847   5.251  11.837 -0.0503  0.6556  0.3325
  830MOL0     C11938   9.847   5.287  11.691 -0.2453  0.3665  0.0566
  830MOL0     O11939   9.709   5.304  11.645  0.8838 -0.4831  0.4954
  830MOL0     C11940   9.620   5.386  11.702 -0.5844 -0.4555  0.7490
  830MOL0     C11941   9.661   5.513  11.744 -0.8397  0.3898 -1.2487
  830MOL0     C11942   9.571   5.619  11.791  0.6470 -0.5594  0.0889
  830MOL0     C11943   9.638   5.754  11.813 -0.0430  0.1718  0.3489
  830MOL0     C11944   9.436   5.595  11.800 -0.7850  0.2552 -0.1266
  830MOL0     C11945   9.331   5.690  11.852  0.8674  1.0399 -0.0687
  830MOL0     O11946   9.199   5.665  11.831 -1.2150 -0.0848 -0.2462
  830MOL0     C11947   9.119   5.760  11.885  0.4886 -1.1269 -0.1077
  830MOL0     C11948   9.053   5.853  11.800 -0.5633 -1.2374  0.2016
  830MOL0     C11949   8.964   5.953  11.852  1.1785  0.8281  0.6332
  830MOL0     C11950   8.933   5.952  11.986  0.3597  0.7782 -0.0066
  830MOL0     O11951   8.844   6.054  12.024 -0.5564  0.5158  0.7987
  830MOL0     C11952   8.775   6.079  12.158 -1.0276  0.3451  0.3031
  830MOL0     C11953   8.673   6.192  12.162  0.2403 -0.4453  0.7512
  830MOL0     C11954   8.727   6.327  12.120  0.1770  0.4294 -0.2391
  830MOL0     C11955   8.776   6.406  12.250  0.4925 -0.3538 -0.9571
  830MOL0     C11956   8.824   6.547  12.216  0.4330 -0.0875 -0.3718
  830MOL0     C11957   8.832   6.649  12.335 -0.2952  0.6931 -0.7030
  830MOL0     C11958   8.692   6.676  12.406 -0.1986 -0.2491  0.0106
  830MOL0     C11959   8.691   6.790  12.497  0.3241 -0.8235  0.4307
  830MOL0    Cl11960   8.792   6.747  12.645  0.1985 -0.3839 -0.1404
  830MOL0     C11961   9.012   5.879  12.073 -0.3210 -0.1694 -0.1737
  830MOL0     C11962   9.095   5.784  12.024 -0.8537  0.9721  0.0826
  830MOL0     O11963   9.374   5.784  11.918 -0.5465  0.0371  0.2201
  830MOL0     C11964   9.394   5.467  11.757 -0.0067  0.8240  0.5406
  830MOL0     C11965   9.484   5.364  11.704  1.0102 -0.8529 -0.3198
  830MOL0     N11966  10.103   5.585  11.743  0.1889  0.6080  0.3708
  830MOL0     N11967  10.169   5.589  11.630  0.7593  0.0649  0.3918
  830MOL0     C11968  11.211   5.072  10.915 -0.6433  0.0852  1.7671
  830MOL0     C11969  11.320   4.983  10.931 -0.6207  0.3504  0.0274
  830MOL0     C11970  11.628   4.698  11.044  1.8227 -0.3454 -0.2059
  830MOL0     C11971  11.691   4.602  10.972  0.5721  0.1316 -0.4735
  830MOL0     C11972  11.819   4.546  10.986  0.6592  0.1970 -0.5720
  830MOL0     C11973  11.885   4.576  11.104  0.4507 -0.2582 -0.9032
  830MOL0     O11974  12.011   4.528  11.125  0.1669  0.2028  0.4319
  830MOL0     C11975  12.086   4.547  11.246 -0.4391 -0.0368  0.6268
  830MOL0     C11976  12.207   4.453  11.277 -0.3003 -0.0594  0.2261
  830MOL0     C11977  12.161   4.310  11.302 -0.7273 -0.4146 -0.5195
  830MOL0     C11978  12.112   4.230  11.176 -0.0606 -0.1755 -0.5302
  830MOL0     C11979  12.222   4.171  11.094  0.2715  0.6731  0.7131
  830MOL0     C11980  12.310   4.127  11.020  1.6068  0.4549 -0.2918
  830MOL0     C11981  11.827   4.672  11.191  0.3981  0.7852  0.5008
  830MOL0     C11982  11.695   4.716  11.164  0.2857  0.3924  0.3879
  830MOL0     H11983  11.293   4.962  11.273  0.5533 -1.3675  0.1852
  830MOL0     H11984  11.099   5.091  11.241  0.2960 -0.7474  1.2111
  830MOL0     H11985  10.864   5.067  11.054 -0.3880  0.5357 -4.3781
  830MOL0     H11986  10.917   5.182  11.182  0.4744 -1.3564 -0.4727
  830MOL0     H11987  10.853   5.376  11.041 -0.5746  0.4797 -4.6265
  830MOL0     H11988  10.776   5.265  10.929  0.6194 -2.7467 -0.7322
  830MOL0     H11989  10.614   5.185  11.103 -2.1842  2.1146  0.6161
  830MOL0     H11990  10.705   5.276  11.227 -0.9317  2.8503  1.1447
  830MOL0     H11991  10.644   5.482  11.124 -1.6833  0.9930  0.4107
  830MOL0     H11992  10.557   5.389  10.990  0.9311  0.8069  0.3655
  830MOL0     H11993  10.400   5.506  11.140  2.2357  1.2780  0.5282
  830MOL0     H11994  10.379   5.337  11.152  1.6152 -2.1983  1.0717
  830MOL0     H11995  10.548   5.340  11.341 -1.5288 -0.0692 -0.4426
  830MOL0     H11996  10.545   5.520  11.334  1.8758  0.2805 -1.3320
  830MOL0     H11997  10.291   5.535  11.360  0.7717  0.7173 -0.5809
  830MOL0     H11998  10.293   5.355  11.377  1.8734 -1.3121 -0.8684
  830MOL0     H11999  10.445   5.534  11.575  0.8687 -0.4150 -2.1675
  830MOL0     H12000  10.421   5.363  11.581 -0.3296 -0.0618 -0.6738
  830MOL0     H12001  10.257   5.296  11.758  0.1734  0.2097  2.5285
  830MOL0     H12002  10.079   5.395  12.015  1.2191 -0.8783  0.0508
  830MOL0     H12003   9.951   5.462  11.925 -0.7907 -2.6472  1.0912
  830MOL0     H12004   9.998   5.194  11.979  0.6076  1.5349  0.1493
  830MOL0     H12005  10.055   5.189  11.820  0.4975 -1.8284  0.7287
  830MOL0     H12006   9.786   5.322  11.893 -0.5372  0.0039  0.6289
  830MOL0     H12007   9.795   5.155  11.843  2.4700 -0.7684  1.2497
  830MOL0     H12008   9.888   5.207  11.629 -0.5964  1.4519 -1.6234
  830MOL0     H12009   9.912   5.370  11.662 -0.2647  0.3795  0.0492
  830MOL0     H12010   9.767   5.532  11.756 -0.1004 -4.0397  1.7024
  830MOL0     H12011   9.573   5.830  11.769 -2.4615 -0.4508  2.5340
  830MOL0     H12012   9.640   5.782  11.919 -0.0809  2.5592 -0.2248
  830MOL0     H12013   9.737   5.756  11.767 -0.5831 -1.0509 -0.9114
  830MOL0     H12014   9.070   5.850  11.693  1.3595  0.9847  0.3703
  830MOL0     H12015   8.911   6.029  11.796  0.3192 -1.2170 -1.4958
  830MOL0     H12016   8.732   5.982  12.187 -2.1321  0.9477  0.7439
  830MOL0     H12017   8.850   6.113  12.229 -2.3495 -1.8568  2.9834
  830MOL0     H12018   8.596   6.173  12.087 -0.5996  2.2193  0.8563
  830MOL0     H12019   8.624   6.190  12.259 -1.9778 -2.6525 -0.3175
  830MOL0     H12020   8.640   6.381  12.080 -0.9271 -0.5384  0.7458
  830MOL0     H12021   8.804   6.300  12.048 -0.1430 -1.4155  0.0725
  830MOL0     H12022   8.699   6.402  12.327  0.1451  2.9761 -1.0021
  830MOL0     H12023   8.852   6.356  12.311 -0.9930 -2.0157 -0.3925
  830MOL0     H12024   8.753   6.591  12.146 -0.0081  0.5491  0.4530
  830MOL0     H12025   8.925   6.548  12.175 -0.7855 -0.5073 -3.6242
  830MOL0     H12026   8.916   6.625  12.401  0.2364  0.2549 -1.5351
  830MOL0     H12027   8.865   6.750  12.307 -3.1269  1.8207 -0.3215
  830MOL0     H12028   8.663   6.584  12.458 -0.9067 -1.1309 -1.8705
  830MOL0     H12029   8.620   6.675  12.324 -0.5388 -1.7759  0.2826
  830MOL0     H12030   8.591   6.808  12.538  1.2266 -0.1876  2.4819
  830MOL0     H12031   8.731   6.869  12.433 -3.9676 -0.1752 -1.8861
  830MOL0     H12032   9.011   5.883  12.181 -2.1494 -0.0173 -0.1647
  830MOL0     H12033   9.148   5.708  12.080 -1.9458 -2.4954 -3.1754
  830MOL0     H12034   9.291   5.434  11.763 -0.4111  2.3085  3.8569
  830MOL0     H12035   9.437   5.273  11.667  0.4848 -1.3675  1.5290
  830MOL0     H12036  11.187   5.118  10.819 -0.5737 -0.5954  1.4170
  830MOL0     H12037  11.383   4.951  10.848 -0.2866  0.4064  0.2539
  830MOL0     H12038  11.652   4.565  10.877  2.5010 -0.3372 -1.1259
  830MOL0     H12039  11.853   4.473  10.913 -2.1685 -2.2355  0.3515
  830MOL0     H12040  12.114   4.652  11.244  0.4189 -0.2090  2.2225
  830MOL0     H12041  12.018   4.540  11.331 -2.1752 -1.6996 -0.7987
  830MOL0     H12042  12.265   4.490  11.362  0.2256 -0.3751  0.0048
  830MOL0     H12043  12.282   4.463  11.198  0.8213 -0.7841  1.1737
  830MOL0     H12044  12.077   4.313  11.372 -1.6592  0.6919 -1.6531
  830MOL0     H12045  12.229   4.250  11.363 -1.7007 -3.4118 -2.1879
  830MOL0     H12046  12.043   4.282  11.109 -0.3002 -4.1702 -3.7952
  830MOL0     H12047  12.049   4.144  11.204  1.4566 -0.5310  2.1012
  830MOL0     H12048  12.405   4.105  10.975  1.1085 -0.4164 -0.9692
  830MOL0     H12049  11.878   4.711  11.279 -0.8077  0.3473  1.4196
  830MOL0     H12050  11.651   4.786  11.234 -0.1006 -1.6823  2.3357
  831MOL0     O12051   6.906   1.054  10.126 -0.2727 -0.3775 -0.2103
  831MOL0     C12052   6.833   0.956  10.080  0.1127 -0.0683  0.1393
  831MOL0     O12053   6.838   0.828  10.126 -0.2748  0.2013  0.0007
  831MOL0     C12054   6.903   0.815  10.245 -0.2742 -0.2457 -0.0786
  831MOL0     C12055   6.848   0.843  10.367 -1.5194 -0.7246  0.5576
  831MOL0     C12056   6.922   0.849  10.483  0.2085 -0.5509 -0.1729
  831MOL0     C12057   7.058   0.814  10.490 -1.0114  0.4853  0.5794
  831MOL0     O12058   7.138   0.800  10.598  0.4472  0.0740 -0.1621
  831MOL0     C12059   7.122   0.914  10.692 -0.2113 -0.2283 -0.5157
  831MOL0     C12060   7.237   0.890  10.798  0.4546  0.2841 -0.1323
  831MOL0     C12061   7.188   0.766  10.877  0.0946 -0.6849 -0.6610
  831MOL0     C12062   7.294   0.722  10.980  0.7462 -1.1304  0.2848
  831MOL0     C12063   7.253   0.601  11.064 -0.0675 -0.4258  0.5105
  831MOL0     C12064   7.355   0.570  11.173 -0.1156 -0.4708 -1.1429
  831MOL0     C12065   7.304   0.473  11.280  0.1530 -0.3383 -0.4540
  831MOL0     C12066   7.305   0.332  11.215  0.4061  0.0639  0.3003
  831MOL0     N12067   7.363   0.233  11.310 -0.2831  0.2178  0.0574
  831MOL0     C12068   7.493   0.218  11.341 -0.5596  0.6845  0.3150
  831MOL0     C12069   7.508   0.127  11.435  0.1630  0.1978 -0.7607
  831MOL0     C12070   7.632   0.094  11.507  0.6670  0.5466 -0.9547
  831MOL0     C12071   7.644   0.195  11.631  0.3333 -0.1889 -1.0394
  831MOL0     C12072   7.761   0.158  11.720 -0.8949  0.6853  0.0065
  831MOL0     C12073   7.896   0.202  11.690 -0.6268 -0.8644 -0.6319
  831MOL0     O12074   7.972   0.214  11.804  0.4902  0.7089 -0.5223
  831MOL0     C12075   8.052   0.329  11.819 -0.4591 -0.8126 -0.1659
  831MOL0     C12076   8.165   0.323  11.890  0.0172  1.8339 -0.5861
  831MOL0     C12077   8.258   0.419  11.912 -0.4064 -0.7346 -0.6027
  831MOL0     C12078   8.387   0.377  11.978 -0.2443  0.6046 -0.7544
  831MOL0     C12079   8.224   0.550  11.871 -0.4753 -0.6551  0.2838
  831MOL0     C12080   8.318   0.667  11.881  1.1367 -0.0549  0.3790
  831MOL0     O12081   8.423   0.658  11.970  0.5143  0.1985  0.3152
  831MOL0     C12082   8.529   0.747  11.973 -0.3738  0.8286 -0.6497
  831MOL0     C12083   8.566   0.835  11.871 -0.2143  0.1322 -1.0994
  831MOL0     C12084   8.670   0.916  11.892  0.3892  0.7590  0.1161
  831MOL0     C12085   8.746   0.912  12.002 -0.1784  0.3972 -0.0115
  831MOL0     O12086   8.866   0.971  12.005 -0.9491 -0.0185  0.4815
  831MOL0     C12087   8.867   1.109  11.987  0.4395 -0.0206  0.6136
  831MOL0     C12088   9.012   1.146  11.947  0.6078  0.2214  0.4552
  831MOL0     C12089   9.053   1.131  11.789  0.8409  0.1583 -0.6770
  831MOL0     C12090   9.084   0.982  11.754  0.9623 -0.3907 -0.0566
  831MOL0     C12091   9.112   0.979  11.595  0.5730  0.1603  0.4150
  831MOL0     C12092   8.993   1.024  11.504  0.6135 -0.0058 -0.4643
  831MOL0     C12093   9.024   0.970  11.354  0.3689 -0.7330  0.3809
  831MOL0     C12094   9.090   1.074  11.269 -0.0515 -0.3554  0.3247
  831MOL0    Cl12095   9.142   1.008  11.106  0.0999  0.0505 -0.8473
  831MOL0     C12096   8.717   0.826  12.101  0.1191  0.2903 -0.0066
  831MOL0     C12097   8.602   0.748  12.098  0.1484 -0.0271  0.9816
  831MOL0     O12098   8.271   0.766  11.838 -0.5150  0.1116 -0.2976
  831MOL0     C12099   8.095   0.563  11.808 -0.3609  0.9115 -0.4667
  831MOL0     C12100   8.016   0.460  11.785  0.6768  0.1266  0.2526
  831MOL0     N12101   7.375   0.089  11.462  0.3236  0.0854  0.3280
  831MOL0     N12102   7.298   0.140  11.383 -0.4595  0.5248 -0.4380
  831MOL0     C12103   7.123   0.776  10.365 -0.3108 -0.3906  0.3988
  831MOL0     C12104   7.037   0.773  10.248  0.7986  0.0819  0.7330
  831MOL0     C12105   6.750   0.988   9.959 -0.1702 -0.2198 -0.0286
  831MOL0     C12106   6.731   0.897   9.851  0.4074  0.8670 -0.6756
  831MOL0     C12107   6.634   0.921   9.753  0.7836 -0.0433  0.4335
  831MOL0     C12108   6.562   1.038   9.755  0.6060  1.4056  0.9967
  831MOL0     O12109   6.479   1.058   9.636 -0.3000  0.3028 -0.3257
  831MOL0     C12110   6.431   1.187   9.611 -0.8655  0.1823 -0.5582
  831MOL0     C12111   6.372   1.197   9.466 -1.1862 -0.7334  1.2210
  831MOL0     C12112   6.451   1.159   9.340  0.0828  0.9131  0.2173
  831MOL0     C12113   6.361   1.111   9.231 -0.3413 -0.6704  0.4283
  831MOL0     C12114   6.295   1.218   9.148  0.2247 -0.7977 -0.7736
  831MOL0     C12115   6.246   1.313   9.084  0.4242  0.0130 -0.4526
  831MOL0     C12116   6.587   1.128   9.850 -0.1360 -0.4415 -0.0710
  831MOL0     C12117   6.678   1.108   9.954 -0.6714 -0.3724 -0.2042
  831MOL0     H12118   6.754   0.897  10.358 -1.3812 -0.8411 -4.0813
  831MOL0     H12119   6.870   0.885  10.572 -0.8435  2.2404 -1.7903
  831MOL0     H12120   7.154   1.001  10.634 -1.1822  0.2806 -0.2971
  831MOL0     H12121   7.026   0.927  10.741  0.8492 -0.5514  1.7700
  831MOL0     H12122   7.326   0.871  10.738  1.3835 -1.8597  1.7441
  831MOL0     H12123   7.266   0.978  10.857  2.3651  0.9315 -1.9135
  831MOL0     H12124   7.095   0.788  10.931 -1.0634 -0.7267 -2.5346
  831MOL0     H12125   7.168   0.679  10.813 -0.2191 -2.2962  1.4859
  831MOL0     H12126   7.391   0.713  10.931  1.5347  0.8094  1.3800
  831MOL0     H12127   7.314   0.803  11.051 -0.6710 -1.1850  0.7895
  831MOL0     H12128   7.158   0.629  11.111  1.2212  2.8497  1.4875
  831MOL0     H12129   7.234   0.519  10.995  2.0383  0.5980 -1.4104
  831MOL0     H12130   7.444   0.529  11.124 -1.2892 -3.9105 -0.7056
  831MOL0     H12131   7.384   0.657  11.232  3.8506 -0.3838 -2.8805
  831MOL0     H12132   7.378   0.477  11.360  1.4684 -0.2057 -1.6400
  831MOL0     H12133   7.203   0.492  11.318  0.4386 -0.7562  0.5332
  831MOL0     H12134   7.359   0.334  11.120  1.6024  2.1964  0.9507
  831MOL0     H12135   7.203   0.304  11.188  1.2584 -3.0060 -0.1246
  831MOL0     H12136   7.575   0.281  11.307  0.1741  0.3781  1.4552
  831MOL0     H12137   7.628  -0.010  11.540 -1.9227  0.6172 -0.8125
  831MOL0     H12138   7.718   0.119  11.443  2.2774 -0.1278  0.8668
  831MOL0     H12139   7.555   0.193  11.695  0.2838 -0.8098 -1.1161
  831MOL0     H12140   7.652   0.295  11.588  1.7705 -0.9600 -2.7376
  831MOL0     H12141   7.751   0.050  11.731 -0.6424  0.6851  0.2448
  831MOL0     H12142   7.738   0.197  11.819 -1.1398  4.0811 -1.2485
  831MOL0     H12143   7.891   0.299  11.639 -0.0057  0.4864  1.7555
  831MOL0     H12144   7.942   0.137  11.615  2.1962  1.6465 -1.3036
  831MOL0     H12145   8.180   0.221  11.923 -0.8640  1.7198 -0.5085
  831MOL0     H12146   8.410   0.272  11.959  3.5867  0.7845  1.7400
  831MOL0     H12147   8.470   0.434  11.935  0.8044  0.3775  0.8757
  831MOL0     H12148   8.397   0.396  12.086 -1.3779 -4.3889  0.5024
  831MOL0     H12149   8.494   0.849  11.791  0.6233 -0.8309 -2.0488
  831MOL0     H12150   8.678   0.998  11.821 -1.6778  0.8162 -0.1115
  831MOL0     H12151   8.806   1.150  11.906  2.2163 -0.0101 -0.7702
  831MOL0     H12152   8.841   1.161  12.080  3.7049  1.5478  0.7740
  831MOL0     H12153   9.036   1.249  11.977 -2.1487  1.6245 -1.7979
  831MOL0     H12154   9.081   1.086  12.008 -0.7889  0.5861  2.5093
  831MOL0     H12155   9.129   1.202  11.755 -1.4175  2.8473 -0.5125
  831MOL0     H12156   8.965   1.155  11.729  1.1528  0.1524 -1.1441
  831MOL0     H12157   9.172   0.954  11.813  0.8573 -0.2195  0.1824
  831MOL0     H12158   8.997   0.925  11.790  0.9776 -0.1965  0.2910
  831MOL0     H12159   9.141   0.877  11.569  0.0216  0.8452 -3.5943
  831MOL0     H12160   9.198   1.045  11.579  0.8179 -0.4698 -1.0364
  831MOL0     H12161   8.909   0.973  11.552  3.7365 -4.0058  1.3575
  831MOL0     H12162   8.981   1.133  11.498 -0.7736  0.0807  2.4185
  831MOL0     H12163   8.933   0.941  11.302 -1.2440  1.7107  1.6321
  831MOL0     H12164   9.073   0.874  11.373 -3.6695 -3.7501 -2.8444
  831MOL0     H12165   9.182   1.101  11.323 -0.0315  1.1584 -0.4307
  831MOL0     H12166   9.021   1.158  11.259 -0.9813 -1.1414 -0.0232
  831MOL0     H12167   8.782   0.818  12.188  0.3094  1.1719 -0.0586
  831MOL0     H12168   8.566   0.685  12.179  0.8149 -0.8027  0.6918
  831MOL0     H12169   8.052   0.658  11.779  1.1809  1.2337 -1.7963
  831MOL0     H12170   7.914   0.482  11.753 -0.5799 -1.2874  3.0186
  831MOL0     H12171   7.223   0.734  10.376 -1.0460 -1.8360  2.1184
  831MOL0     H12172   7.065   0.726  10.154 -2.8563 -0.3689 -0.2871
  831MOL0     H12173   6.783   0.804   9.865  0.2392  0.6806 -1.2816
  831MOL0     H12174   6.629   0.842   9.678  1.5147 -0.4653  0.8185
  831MOL0     H12175   6.346   1.211   9.675 -1.1807 -2.3521  0.0904
  831MOL0     H12176   6.516   1.256   9.618 -0.3102 -0.4467 -0.9403
  831MOL0     H12177   6.342   1.298   9.439  0.3801 -0.6839 -0.5727
  831MOL0     H12178   6.291   1.125   9.481 -0.5983 -1.8060 -0.4517
  831MOL0     H12179   6.534   1.093   9.369  2.2686  3.3723 -0.1678
  831MOL0     H12180   6.500   1.252   9.311 -1.6957  1.4411 -1.2328
  831MOL0     H12181   6.293   1.034   9.267 -0.2246 -1.2695 -0.5924
  831MOL0     H12182   6.426   1.063   9.157 -0.7309 -0.9337  0.2541
  831MOL0     H12183   6.209   1.392   9.022 -0.3305 -0.6327 -0.8490
  831MOL0     H12184   6.557   1.233   9.847  7.1807  2.1758 -1.9694
  831MOL0     H12185   6.681   1.168  10.044 -2.0533 -0.2452 -0.2124
  832MOL0     O12186   6.727   9.957   5.144 -0.3540 -0.5454 -0.0077
  832MOL0     C12187   6.672  10.064   5.160  0.0110 -0.6579 -0.8782
  832MOL0     O12188   6.636  10.160   5.069  0.1135 -0.2489 -0.0585
  832MOL0     C12189   6.595  10.115   4.953 -0.6721 -0.2514  0.6395
  832MOL0     C12190   6.677  10.081   4.848 -0.2109 -0.5034 -0.3719
  832MOL0     C12191   6.626  10.037   4.729  0.4247  0.0215  1.2016
  832MOL0     C12192   6.493  10.013   4.703 -0.7555 -0.8201  0.6697
  832MOL0     O12193   6.441  10.000   4.574  0.4228  0.1679  0.4197
  832MOL0     C12194   6.327   9.918   4.562  0.1532  0.3192  0.3043
  832MOL0     C12195   6.376   9.770   4.570 -0.6602 -0.7669  0.1630
  832MOL0     C12196   6.254   9.675   4.603 -0.5571  1.4261  0.4297
  832MOL0     C12197   6.299   9.530   4.578  0.3602 -0.2829 -0.7088
  832MOL0     C12198   6.201   9.426   4.628  0.6005  0.4759 -0.3059
  832MOL0     C12199   6.274   9.293   4.655 -0.0480  0.5884 -0.4675
  832MOL0     C12200   6.176   9.182   4.702 -0.9065  0.0110  0.6427
  832MOL0     C12201   6.251   9.041   4.698  0.6280 -0.1180  0.9865
  832MOL0     N12202   6.252   8.969   4.567  0.7301  0.1797 -0.9902
  832MOL0     C12203   6.266   8.824   4.560  1.0905 -0.7891 -0.4656
  832MOL0     C12204   6.294   8.809   4.426  0.4753 -0.7041  0.1978
  832MOL0     C12205   6.315   8.679   4.371 -0.0099  0.4402  0.1355
  832MOL0     C12206   6.451   8.634   4.412 -0.2038 -0.4364 -0.0765
  832MOL0     C12207   6.484   8.484   4.379  0.3419  0.4054  0.2753
  832MOL0     C12208   6.521   8.470   4.234 -0.6068 -0.4779  0.5341
  832MOL0     O12209   6.547   8.336   4.193  0.4289  0.4200 -0.4863
  832MOL0     C12210   6.651   8.274   4.256  0.5935  0.5922  0.3852
  832MOL0     C12211   6.783   8.294   4.212  0.4475  0.3008  0.9151
  832MOL0     C12212   6.896   8.244   4.270 -0.0146  0.4138 -0.6937
  832MOL0     C12213   7.025   8.293   4.205  0.2448  0.4154  0.2082
  832MOL0     C12214   6.876   8.165   4.382 -0.7615 -0.3163  0.5762
  832MOL0     C12215   6.989   8.104   4.466 -0.1338 -0.6358  0.4256
  832MOL0     O12216   6.962   8.078   4.591  0.1698 -0.5881  0.6076
  832MOL0     C12217   7.053   8.015   4.672 -0.0766 -0.2814  0.4308
  832MOL0     C12218   7.179   8.075   4.693 -0.0558  1.1061 -0.8266
  832MOL0     C12219   7.265   8.021   4.798  0.0101  0.6464  0.4139
  832MOL0     C12220   7.222   7.910   4.879 -0.7421  0.6219  0.8593
  832MOL0     O12221   7.303   7.856   4.976 -0.2108 -0.0436 -0.5719
  832MOL0     C12222   7.359   7.946   5.074  0.7748 -0.7407 -0.1274
  832MOL0     C12223   7.385   7.879   5.198  0.2801  0.8207 -0.0744
  832MOL0     C12224   7.260   7.870   5.273  0.1281 -0.3943 -0.1426
  832MOL0     C12225   7.262   7.783   5.397  0.0511  0.4335  0.4611
  832MOL0     C12226   7.136   7.827   5.481  0.9230  0.9190 -0.7695
  832MOL0     C12227   7.110   7.726   5.587  0.2626  0.0204  0.0172
  832MOL0     C12228   7.042   7.596   5.544 -0.2528 -0.6487  0.4032
  832MOL0     C12229   6.915   7.613   5.487 -0.2307 -0.8466  1.0807
  832MOL0    Cl12230   6.848   7.450   5.439  0.2943 -0.5370  0.0742
  832MOL0     C12231   7.096   7.855   4.858 -0.4112 -0.8317 -0.4958
  832MOL0     C12232   7.010   7.902   4.761  0.0116  0.1565  0.1227
  832MOL0     O12233   7.101   8.095   4.417 -0.0321 -0.1419 -0.6734
  832MOL0     C12234   6.747   8.124   4.407 -0.5044 -0.2534 -0.6836
  832MOL0     C12235   6.631   8.178   4.351 -1.3158  0.3939 -0.7556
  832MOL0     N12236   6.306   8.923   4.355  0.4529 -0.6820 -0.1516
  832MOL0     N12237   6.295   9.021   4.442 -0.2327 -0.7273  0.3895
  832MOL0     C12238   6.409  10.049   4.814  0.3282  0.4754  0.2643
  832MOL0     C12239   6.462  10.089   4.936  0.2556  0.0287 -0.5654
  832MOL0     C12240   6.669  10.099   5.302  0.2707 -0.7150 -1.7288
  832MOL0     C12241   6.631  10.231   5.345 -0.3810  0.3041  0.3854
  832MOL0     C12242   6.622  10.262   5.476  0.1873 -0.3533 -0.5858
  832MOL0     C12243   6.649  10.163   5.580 -0.9809 -0.3139  0.2461
  832MOL0     O12244   6.648  10.184   5.716  0.1669 -0.7096  0.1050
  832MOL0     C12245   6.650  10.326   5.752  0.3036  0.1328  0.2782
  832MOL0     C12246   6.676  10.324   5.901  0.0152  0.4173 -0.1538
  832MOL0     C12247   6.571  10.237   5.979 -0.6663  0.6370  0.2000
  832MOL0     C12248   6.432  10.292   5.960 -0.5159 -0.5407 -0.4563
  832MOL0     C12249   6.340  10.268   6.085 -1.2232 -0.5231 -1.1096
  832MOL0     C12250   6.259  10.268   6.179 -1.1234  0.1870  0.2628
  832MOL0     C12251   6.690  10.032   5.537 -0.2625  0.9945 -0.1368
  832MOL0     C12252   6.691   9.993   5.402  0.3497 -0.1454 -0.0472
  832MOL0     H12253   6.783  10.071   4.871 -0.1418  1.7543  0.5410
  832MOL0     H12254   6.692  10.028   4.644  2.0355  0.6141  2.3475
  832MOL0     H12255   6.247   9.941   4.633  0.3681  1.9542  0.0547
  832MOL0     H12256   6.280   9.934   4.464  1.8831 -0.0615 -0.6345
  832MOL0     H12257   6.419   9.740   4.474 -0.0666 -0.5724  0.3658
  832MOL0     H12258   6.459   9.771   4.642  1.5328  0.1715 -2.2473
  832MOL0     H12259   6.227   9.691   4.707 -0.2458  2.3568  0.3727
  832MOL0     H12260   6.174   9.704   4.535 -0.7234  0.6189  0.2738
  832MOL0     H12261   6.339   9.520   4.477 -0.7104  0.2049 -1.2067
  832MOL0     H12262   6.382   9.532   4.649 -2.6939  1.7554  3.2530
  832MOL0     H12263   6.158   9.462   4.721  2.0743  0.5668  0.3744
  832MOL0     H12264   6.125   9.417   4.550 -0.1553  1.6651  0.2723
  832MOL0     H12265   6.319   9.245   4.568 -0.3987 -2.4351  0.8877
  832MOL0     H12266   6.345   9.301   4.738 -0.6347 -0.3567  0.1537
  832MOL0     H12267   6.134   9.195   4.802 -1.1278  2.7918  0.2554
  832MOL0     H12268   6.099   9.181   4.624 -0.3633 -0.0785  0.1026
  832MOL0     H12269   6.201   8.975   4.769 -2.1276 -0.4960 -1.1267
  832MOL0     H12270   6.355   9.062   4.722  0.7510  2.0693 -1.0270
  832MOL0     H12271   6.262   8.750   4.639 -2.6017  0.9709  1.2417
  832MOL0     H12272   6.230   8.614   4.396 -0.3816 -0.0794 -2.2266
  832MOL0     H12273   6.325   8.686   4.262 -0.0197  1.4446  0.1878
  832MOL0     H12274   6.453   8.638   4.521  0.5216  1.0073 -0.1121
  832MOL0     H12275   6.530   8.703   4.379  0.5649 -1.5945 -0.7505
  832MOL0     H12276   6.409   8.410   4.406  0.1460  0.4281 -0.1953
  832MOL0     H12277   6.573   8.453   4.435 -0.5273 -1.1399  0.8686
  832MOL0     H12278   6.609   8.533   4.221 -0.6557 -0.7072 -1.1974
  832MOL0     H12279   6.439   8.512   4.174  0.3647  1.5037  0.5280
  832MOL0     H12280   6.789   8.369   4.134  2.1236 -2.4727 -1.8218
  832MOL0     H12281   7.052   8.226   4.123 -0.5045  0.9784 -0.5160
  832MOL0     H12282   7.012   8.397   4.172 -1.2141  1.5759  3.9422
  832MOL0     H12283   7.103   8.290   4.282 -0.2802 -2.1565  0.7267
  832MOL0     H12284   7.202   8.163   4.635 -3.2433  1.1821 -2.1954
  832MOL0     H12285   7.364   8.054   4.827 -1.1462  1.8793  3.3197
  832MOL0     H12286   7.460   7.983   5.056  1.3229 -2.4152 -0.6750
  832MOL0     H12287   7.294   8.033   5.090  1.3548 -0.0188 -1.5426
  832MOL0     H12288   7.434   7.785   5.171  1.4375  2.1760 -3.1083
  832MOL0     H12289   7.459   7.937   5.255  4.0897 -4.7620  1.5743
  832MOL0     H12290   7.181   7.835   5.207 -2.0219 -0.9477  2.5279
  832MOL0     H12291   7.220   7.971   5.286 -0.1081 -0.4430 -0.5022
  832MOL0     H12292   7.237   7.679   5.369  0.7367  0.5031 -0.4621
  832MOL0     H12293   7.356   7.787   5.452 -0.0840  4.5629  0.6789
  832MOL0     H12294   7.043   7.831   5.424  1.0346  0.1253 -1.0236
  832MOL0     H12295   7.137   7.925   5.530 -2.3600  0.6712  0.0106
  832MOL0     H12296   7.203   7.697   5.636 -1.5658 -1.7463  2.7687
  832MOL0     H12297   7.038   7.762   5.662 -2.3457  2.1941 -3.2351
  832MOL0     H12298   7.046   7.536   5.635  2.4521  0.7251  1.2935
  832MOL0     H12299   7.097   7.534   5.473 -1.5184 -0.2850 -0.9551
  832MOL0     H12300   6.918   7.671   5.394  0.2365  0.1968  1.7197
  832MOL0     H12301   6.851   7.668   5.557  0.4554  3.2038 -1.1414
  832MOL0     H12302   7.062   7.784   4.932 -0.8226  0.0078  0.1442
  832MOL0     H12303   6.906   7.874   4.747  0.1148 -1.6123  2.3298
  832MOL0     H12304   6.737   8.037   4.472 -0.1165 -0.2138 -0.5708
  832MOL0     H12305   6.541   8.138   4.398 -0.6367 -0.1707  0.0956
  832MOL0     H12306   6.301  10.047   4.810  0.2518 -2.5215 -4.2260
  832MOL0     H12307   6.399  10.105   5.023 -0.0299  0.7537 -0.8977
  832MOL0     H12308   6.614  10.303   5.265  1.5628  0.6393  0.2431
  832MOL0     H12309   6.611  10.368   5.497  0.0854 -0.4435 -0.1703
  832MOL0     H12310   6.737  10.376   5.709  0.5774 -0.3547  0.2596
  832MOL0     H12311   6.551  10.366   5.728 -2.0011 -5.5344 -1.3610
  832MOL0     H12312   6.675  10.427   5.938  0.9817  0.5424 -0.4667
  832MOL0     H12313   6.774  10.279   5.921  0.2846 -0.7900 -3.6422
  832MOL0     H12314   6.587  10.236   6.088 -0.4258 -0.7155  0.1720
  832MOL0     H12315   6.588  10.133   5.951  2.9902  1.3148 -0.7037
  832MOL0     H12316   6.385  10.250   5.871 -1.5597  1.1215 -0.7395
  832MOL0     H12317   6.443  10.397   5.931 -1.4620 -0.6791 -1.3784
  832MOL0     H12318   6.181  10.251   6.250 -0.3906 -0.7682  0.8627
  832MOL0     H12319   6.709   9.954   5.610  1.8263 -2.1902 -3.7248
  832MOL0     H12320   6.710   9.889   5.377  0.3468 -0.5097  1.3825
  833MOL0     O12321  11.001   6.219   2.332  0.6027 -0.0147  0.0969
  833MOL0     C12322  11.011   6.293   2.236 -0.4552 -0.5637 -0.2698
  833MOL0     O12323  10.936   6.288   2.125 -0.3951 -0.0341 -0.2594
  833MOL0     C12324  10.853   6.182   2.086 -0.5928  0.6901  0.6757
  833MOL0     C12325  10.871   6.045   2.123  0.3072  0.4657 -0.1789
  833MOL0     C12326  10.813   5.944   2.046 -0.0829  0.3675  0.2238
  833MOL0     C12327  10.718   5.976   1.952 -0.1308 -0.3868  0.1263
  833MOL0     O12328  10.656   5.881   1.876 -0.2734  0.0253 -0.2213
  833MOL0     C12329  10.577   5.790   1.949  0.7441  1.3088 -0.6066
  833MOL0     C12330  10.437   5.774   1.890 -1.1919  1.0535 -1.1267
  833MOL0     C12331  10.371   5.901   1.843  0.0099 -0.3954  1.0408
  833MOL0     C12332  10.324   5.962   1.971  0.6045  0.3553  0.5106
  833MOL0     C12333  10.244   6.090   1.955  0.3512  1.1961  0.1803
  833MOL0     C12334  10.219   6.169   2.083  0.1887  1.1280 -0.3996
  833MOL0     C12335  10.162   6.303   2.045  0.0847  0.9653 -0.4497
  833MOL0     C12336  10.110   6.372   2.178  0.0629 -1.0440 -1.3102
  833MOL0     N12337  10.073   6.511   2.141  0.0030  0.6540 -0.0491
  833MOL0     C12338  10.103   6.624   2.212 -0.7444  0.7948 -1.0615
  833MOL0     C12339  10.000   6.707   2.188  0.3089  0.3879  0.1918
  833MOL0     C12340   9.994   6.852   2.236 -0.0822  1.1600 -0.5740
  833MOL0     C12341  10.067   6.945   2.140 -0.2649 -0.2506  0.4169
  833MOL0     C12342  10.114   7.076   2.207  0.7724 -0.1007 -1.0386
  833MOL0     C12343  10.079   7.194   2.121  0.0749  0.2778 -0.3228
  833MOL0     O12344  10.152   7.181   1.999 -0.1744 -0.0865  0.3309
  833MOL0     C12345  10.235   7.288   1.958 -0.2267 -0.6501  0.6969
  833MOL0     C12346  10.262   7.286   1.814  0.2858 -0.3356 -1.0696
  833MOL0     C12347  10.338   7.385   1.765 -0.2236  0.0432  1.0211
  833MOL0     C12348  10.360   7.376   1.618  0.1443 -0.9806 -0.3602
  833MOL0     C12349  10.408   7.482   1.848  0.7573  0.5227  0.7656
  833MOL0     C12350  10.493   7.599   1.805 -0.0517 -0.0602 -0.3003
  833MOL0     O12351  10.513   7.694   1.900 -0.2336  0.4467 -0.6196
  833MOL0     C12352  10.621   7.776   1.881 -0.2797  0.5002 -0.1385
  833MOL0     C12353  10.646   7.839   1.767 -0.4814  1.0179 -0.2915
  833MOL0     C12354  10.739   7.939   1.758  0.1091  1.1095  0.1489
  833MOL0     C12355  10.806   7.984   1.876 -0.1909  0.0714 -0.0106
  833MOL0     O12356  10.888   8.091   1.890  0.3979  0.3487 -0.1723
  833MOL0     C12357  10.888   8.194   1.787 -0.0832 -0.4265  0.8952
  833MOL0     C12358  10.998   8.174   1.685 -0.7133 -0.9483  0.0834
  833MOL0     C12359  11.135   8.145   1.746 -0.4761 -0.0279 -0.2470
  833MOL0     C12360  11.243   8.173   1.653 -0.5790  0.3028  1.2702
  833MOL0     C12361  11.383   8.121   1.701  0.0713  0.2158  0.1490
  833MOL0     C12362  11.476   8.123   1.578 -0.0692  0.1557 -0.4107
  833MOL0     C12363  11.453   8.237   1.477 -1.0860 -0.2856  0.5776
  833MOL0     C12364  11.553   8.241   1.367 -0.1100 -0.6981 -0.2241
  833MOL0    Cl12365  11.721   8.282   1.420  0.2649 -0.0640  0.0274
  833MOL0     C12366  10.786   7.917   1.989  0.2539  0.2455  0.0697
  833MOL0     C12367  10.690   7.812   1.998  1.0036  0.0744  0.0596
  833MOL0     O12368  10.538   7.592   1.690  0.1268 -0.2019  0.3794
  833MOL0     C12369  10.375   7.480   1.982 -0.3915  0.4174 -0.1868
  833MOL0     C12370  10.299   7.376   2.042 -0.0549 -1.1281  0.4873
  833MOL0     N12371   9.909   6.643   2.103  0.1813  0.3088 -0.3196
  833MOL0     N12372   9.960   6.532   2.064 -0.7308 -0.1815 -1.2527
  833MOL0     C12373  10.694   6.105   1.931  0.2222 -0.4601  0.9840
  833MOL0     C12374  10.762   6.212   1.985 -0.2187  0.8257 -0.6977
  833MOL0     C12375  11.109   6.406   2.242  0.2251 -0.0715 -0.5719
  833MOL0     C12376  11.138   6.470   2.360  0.4637 -0.3125 -0.1698
  833MOL0     C12377  11.224   6.579   2.367 -0.8306 -0.2294 -0.3322
  833MOL0     C12378  11.273   6.635   2.248 -0.5392  0.2035  0.1316
  833MOL0     O12379  11.349   6.746   2.240 -0.4264 -0.3045  0.0658
  833MOL0     C12380  11.392   6.819   2.360 -0.3332  0.8769 -0.3009
  833MOL0     C12381  11.521   6.752   2.429 -0.4324  0.9640  0.8424
  833MOL0     C12382  11.570   6.824   2.557  0.3773 -0.2680  0.2787
  833MOL0     C12383  11.627   6.969   2.534  0.3305 -1.0678 -0.1534
  833MOL0     C12384  11.718   6.991   2.417 -0.3780 -0.2350 -1.0783
  833MOL0     C12385  11.787   6.987   2.315 -1.6155  0.3151  1.0692
  833MOL0     C12386  11.241   6.577   2.133 -0.0480 -0.4313 -0.1483
  833MOL0     C12387  11.171   6.458   2.124  0.5575 -0.1433 -0.0769
  833MOL0     H12388  10.952   6.020   2.191  2.5800  0.4545 -2.7100
  833MOL0     H12389  10.835   5.839   2.059  2.1985  0.9234  1.4601
  833MOL0     H12390  10.618   5.688   1.943 -0.8778  0.6573 -1.4792
  833MOL0     H12391  10.571   5.824   2.053  2.2074  0.4357 -0.2090
  833MOL0     H12392  10.447   5.711   1.802  1.2514  1.0340 -0.9072
  833MOL0     H12393  10.381   5.712   1.961 -0.7313  3.2453  1.3054
  833MOL0     H12394  10.431   5.971   1.784  1.1242 -2.4029 -0.3347
  833MOL0     H12395  10.288   5.873   1.777 -0.7214 -0.0357  1.7865
  833MOL0     H12396  10.267   5.880   2.016  1.1823 -1.7827 -2.3184
  833MOL0     H12397  10.404   5.976   2.044 -1.2832  2.5362  2.2994
  833MOL0     H12398  10.311   6.161   1.904 -0.9904  1.3236 -1.5009
  833MOL0     H12399  10.155   6.067   1.896  1.5196  1.4238 -1.7632
  833MOL0     H12400  10.140   6.113   2.134  1.6594  0.1582  0.9298
  833MOL0     H12401  10.314   6.165   2.138  2.3358 -0.4995 -3.8817
  833MOL0     H12402  10.237   6.360   1.989  2.9190 -4.1043 -2.5751
  833MOL0     H12403  10.075   6.298   1.980 -2.9364  1.9275  3.1841
  833MOL0     H12404  10.194   6.392   2.245 -0.4390  2.3145 -1.5173
  833MOL0     H12405  10.024   6.325   2.227  2.5351 -4.4888  0.0642
  833MOL0     H12406  10.189   6.649   2.273 -1.7462  0.5367  0.5082
  833MOL0     H12407   9.888   6.880   2.236 -1.3613 -3.0177 -0.3834
  833MOL0     H12408  10.036   6.849   2.336 -2.1817 -2.1815  0.3540
  833MOL0     H12409   9.992   6.970   2.064 -0.7729  3.7545  1.9874
  833MOL0     H12410  10.155   6.895   2.099 -1.8127 -3.0510  0.3255
  833MOL0     H12411  10.222   7.081   2.225  0.5283 -0.9777  0.9835
  833MOL0     H12412  10.062   7.074   2.303 -2.0240  1.5271 -2.4030
  833MOL0     H12413  10.111   7.282   2.178  2.4759  0.3740 -1.6692
  833MOL0     H12414   9.972   7.193   2.096 -0.0816  1.1827  0.2668
  833MOL0     H12415  10.210   7.215   1.751  0.2597  0.0172 -1.4515
  833MOL0     H12416  10.326   7.284   1.570 -0.5845  0.0789 -1.9562
  833MOL0     H12417  10.300   7.449   1.563  1.2207 -2.1343 -3.2896
  833MOL0     H12418  10.465   7.382   1.586  0.1895 -0.7976 -0.1819
  833MOL0     H12419  10.591   7.827   1.674  0.8575 -0.3320 -0.9552
  833MOL0     H12420  10.771   7.979   1.663 -0.9034  1.9313  0.1347
  833MOL0     H12421  10.802   8.207   1.722 -0.0251  0.9666  1.0661
  833MOL0     H12422  10.892   8.289   1.841  2.3610  1.1331 -1.7684
  833MOL0     H12423  10.970   8.096   1.614  4.4055 -0.5599 -2.8483
  833MOL0     H12424  11.006   8.264   1.624  4.1651  0.2732  2.0136
  833MOL0     H12425  11.136   8.037   1.768  3.6715 -0.2213 -0.5348
  833MOL0     H12426  11.154   8.200   1.838  1.6400 -2.3839  0.8377
  833MOL0     H12427  11.215   8.129   1.557  0.5305 -1.5788  1.7538
  833MOL0     H12428  11.241   8.281   1.636  0.0737  0.3494  1.4657
  833MOL0     H12429  11.371   8.018   1.736  0.7552 -0.4064 -1.3624
  833MOL0     H12430  11.425   8.181   1.783 -0.7824  3.2536 -1.4494
  833MOL0     H12431  11.575   8.139   1.622 -1.1161  2.5198  1.2999
  833MOL0     H12432  11.479   8.027   1.525  1.2940 -0.5929  0.9621
  833MOL0     H12433  11.447   8.336   1.524 -0.5725  0.6233 -1.1825
  833MOL0     H12434  11.361   8.223   1.419  0.7099  0.2360 -2.6463
  833MOL0     H12435  11.515   8.301   1.284  1.0155  2.4268  1.3524
  833MOL0     H12436  11.558   8.140   1.325 -0.0539  0.3141 -2.8638
  833MOL0     H12437  10.826   7.951   2.084  0.7540  2.3251 -0.8322
  833MOL0     H12438  10.659   7.758   2.088 -4.7023 -0.4719 -1.8172
  833MOL0     H12439  10.419   7.543   2.058  0.3026 -2.0836  1.6231
  833MOL0     H12440  10.297   7.378   2.151 -1.1943  1.3432  0.4986
  833MOL0     H12441  10.636   6.134   1.844 -1.8517  0.4589  2.5651
  833MOL0     H12442  10.726   6.312   1.964 -4.2750  0.2245  2.1874
  833MOL0     H12443  11.098   6.433   2.455  0.8219  0.4068  0.2684
  833MOL0     H12444  11.247   6.618   2.466 -0.7002  2.9305 -1.5157
  833MOL0     H12445  11.423   6.919   2.328  0.6188  1.0272  0.9853
  833MOL0     H12446  11.316   6.832   2.438  0.9899  0.5467  1.0984
  833MOL0     H12447  11.604   6.748   2.357  0.2447 -0.1701  1.6586
  833MOL0     H12448  11.508   6.644   2.439 -0.1890  0.5090 -2.4810
  833MOL0     H12449  11.647   6.767   2.610 -1.2473 -3.7556 -0.7790
  833MOL0     H12450  11.478   6.832   2.616  0.0617 -1.7947  0.0494
  833MOL0     H12451  11.684   7.002   2.621 -2.1451  1.0991  0.7963
  833MOL0     H12452  11.539   7.034   2.519 -1.9574 -4.2582 -1.6962
  833MOL0     H12453  11.838   6.993   2.221 -1.0961  0.9268  1.3845
  833MOL0     H12454  11.283   6.615   2.040 -1.6314 -0.8131 -1.0651
  833MOL0     H12455  11.142   6.410   2.031 -4.6460  1.9099  0.1551
  834MOL0     O12456   3.358   0.501   5.861  0.3827 -1.0419 -0.9152
  834MOL0     C12457   3.320   0.477   5.741 -0.2531 -0.5660 -0.2738
  834MOL0     O12458   3.378   0.515   5.620 -0.2878  0.3386  0.2017
  834MOL0     C12459   3.475   0.612   5.630  0.3038 -0.8154  0.2626
  834MOL0     C12460   3.454   0.740   5.667  0.2072 -0.1424 -0.9366
  834MOL0     C12461   3.557   0.844   5.670 -0.8035 -0.2429 -0.2529
  834MOL0     C12462   3.692   0.811   5.626  0.2047 -0.0036 -0.0562
  834MOL0     O12463   3.789   0.912   5.632  0.0647 -0.2859  0.3911
  834MOL0     C12464   3.926   0.870   5.642 -0.2429  0.1934  0.2333
  834MOL0     C12465   3.999   0.935   5.764 -0.4508  0.1889  0.5181
  834MOL0     C12466   3.931   0.898   5.902 -0.5436 -0.4506  0.3722
  834MOL0     C12467   4.002   0.973   6.012  1.5303 -0.7764 -0.0038
  834MOL0     C12468   3.950   1.123   6.050  0.2195  0.9022  0.2132
  834MOL0     C12469   3.828   1.133   6.132  0.5113  0.1291 -0.0154
  834MOL0     C12470   3.819   1.070   6.270 -0.1347  0.7350  0.0935
  834MOL0     C12471   3.856   1.159   6.388 -0.6547 -0.1950  0.4703
  834MOL0     N12472   4.006   1.166   6.411 -0.0682  0.1074 -0.3546
  834MOL0     C12473   4.075   1.285   6.448 -0.0589  0.9251  0.8151
  834MOL0     C12474   4.199   1.238   6.481  0.3504 -0.0344  0.0810
  834MOL0     C12475   4.307   1.338   6.495 -1.2984  0.4890 -0.1181
  834MOL0     C12476   4.447   1.268   6.510  0.2455 -0.4993 -0.0514
  834MOL0     C12477   4.513   1.242   6.373  0.3790 -0.8327  0.1467
  834MOL0     C12478   4.666   1.254   6.373 -0.8336  0.4530 -0.9702
  834MOL0     O12479   4.714   1.196   6.246  0.3318 -0.8829 -0.0072
  834MOL0     C12480   4.822   1.256   6.191  0.6234 -0.1007 -0.3999
  834MOL0     C12481   4.950   1.195   6.200  0.2717 -0.0203  0.1527
  834MOL0     C12482   5.063   1.246   6.133 -0.1996 -0.4258 -0.2099
  834MOL0     C12483   5.200   1.189   6.162  0.5388  0.1974 -0.7457
  834MOL0     C12484   5.045   1.357   6.043  0.5738  0.5052 -0.4383
  834MOL0     C12485   5.160   1.413   5.962  0.3999  0.8710 -0.8604
  834MOL0     O12486   5.153   1.554   5.947  0.0503  0.0413  0.1601
  834MOL0     C12487   5.256   1.598   5.871  0.1228 -0.1377 -0.1240
  834MOL0     C12488   5.291   1.554   5.741  0.3373  0.0521  0.0218
  834MOL0     C12489   5.401   1.601   5.664  0.2870  0.5302 -0.2813
  834MOL0     C12490   5.485   1.700   5.717 -0.1141  0.5099 -1.2005
  834MOL0     O12491   5.595   1.757   5.665  0.1128  0.5280  1.1142
  834MOL0     C12492   5.661   1.688   5.558 -0.3989  0.7689  0.0002
  834MOL0     C12493   5.802   1.746   5.547 -0.3753 -1.0403 -0.5435
  834MOL0     C12494   5.814   1.902   5.520  0.4744  0.4971 -0.1343
  834MOL0     C12495   5.947   1.973   5.554 -0.4381 -0.4861 -0.3014
  834MOL0     C12496   5.927   2.123   5.596 -0.0670  0.2432 -0.0620
  834MOL0     C12497   5.862   2.200   5.481  0.6308  0.9609  0.1207
  834MOL0     C12498   5.850   2.348   5.508 -0.1873  0.8354  0.1346
  834MOL0     C12499   5.740   2.377   5.604  0.2819  0.6393 -0.8283
  834MOL0    Cl12500   5.730   2.545   5.610  0.1049 -0.2088 -0.1369
  834MOL0     C12501   5.444   1.744   5.841  0.3848  0.1657 -0.3480
  834MOL0     C12502   5.335   1.697   5.919  0.2146  0.0699  0.6900
  834MOL0     O12503   5.252   1.344   5.929  0.7238  0.3657  0.5874
  834MOL0     C12504   4.914   1.417   6.037 -0.4855 -0.1301  0.6842
  834MOL0     C12505   4.813   1.366   6.112 -0.0029 -0.5360 -0.3709
  834MOL0     N12506   4.192   1.107   6.497  0.1818  0.2724  0.1775
  834MOL0     N12507   4.080   1.059   6.452 -0.2599  0.0759  0.4587
  834MOL0     C12508   3.710   0.678   5.569 -0.1594 -0.7925 -0.9261
  834MOL0     C12509   3.608   0.587   5.587 -0.0385 -0.5277 -0.2771
  834MOL0     C12510   3.202   0.390   5.713  0.7431 -0.2168 -0.2647
  834MOL0     C12511   3.193   0.325   5.586  0.6950  0.0871 -0.3059
  834MOL0     C12512   3.089   0.251   5.550  0.8286  0.5466  0.4719
  834MOL0     C12513   2.982   0.226   5.645  0.4890  0.5385  0.5662
  834MOL0     O12514   2.863   0.160   5.625 -0.2812  0.5629  0.0852
  834MOL0     C12515   2.835   0.110   5.494 -0.7878  0.5774 -0.1463
  834MOL0     C12516   2.746   0.215   5.422  0.6567 -0.9557 -0.1676
  834MOL0     C12517   2.736   0.194   5.268 -0.3148 -0.3374  0.4305
  834MOL0     C12518   2.662   0.067   5.225 -0.0873 -0.5866  0.9701
  834MOL0     C12519   2.521   0.065   5.267 -0.9307  0.1085 -0.5635
  834MOL0     C12520   2.408   0.063   5.304 -0.6756 -1.3665 -1.0522
  834MOL0     C12521   3.001   0.264   5.777  0.1133  0.2838  0.2879
  834MOL0     C12522   3.114   0.350   5.815 -0.5987 -0.6041  0.5035
  834MOL0     H12523   3.355   0.745   5.711  0.1985 -0.3253 -0.9352
  834MOL0     H12524   3.547   0.942   5.717  2.2055 -0.4262  1.0612
  834MOL0     H12525   3.938   0.763   5.658 -0.7946  0.4191  2.4062
  834MOL0     H12526   3.960   0.899   5.542 -6.2148 -0.0021 -2.3036
  834MOL0     H12527   4.106   0.912   5.765 -0.6847 -1.0307 -0.1838
  834MOL0     H12528   3.992   1.043   5.750  1.0011  0.3863  1.1563
  834MOL0     H12529   3.822   0.909   5.896 -0.6250 -1.8755 -2.7893
  834MOL0     H12530   3.939   0.789   5.907 -0.9505 -0.5316 -0.5475
  834MOL0     H12531   3.982   0.913   6.102 -2.1450  0.2381  0.0156
  834MOL0     H12532   4.110   0.984   5.997  1.8309  0.1436  2.3977
  834MOL0     H12533   4.034   1.165   6.106  1.8828 -0.0987 -1.4499
  834MOL0     H12534   3.925   1.180   5.960  1.9004 -0.2144 -1.0084
  834MOL0     H12535   3.805   1.240   6.130  3.3399  0.8146  0.3908
  834MOL0     H12536   3.737   1.091   6.087 -0.1561 -0.5229  1.8293
  834MOL0     H12537   3.714   1.042   6.276 -0.4004  0.9375 -2.4958
  834MOL0     H12538   3.875   0.977   6.268  1.9446  1.8594  1.5352
  834MOL0     H12539   3.808   1.117   6.477 -0.9707 -2.5555 -0.7451
  834MOL0     H12540   3.819   1.262   6.387  0.2098  0.1359  0.9855
  834MOL0     H12541   4.035   1.381   6.419 -1.9838  0.2135  0.9819
  834MOL0     H12542   4.299   1.408   6.411 -3.0975  0.2634 -0.1838
  834MOL0     H12543   4.300   1.399   6.586 -4.5348  0.8914 -0.5132
  834MOL0     H12544   4.447   1.165   6.548 -0.2307 -1.8909 -3.4689
  834MOL0     H12545   4.517   1.328   6.569 -0.3615  2.5733 -2.2404
  834MOL0     H12546   4.481   1.331   6.318  0.7244  0.7978  2.4374
  834MOL0     H12547   4.468   1.153   6.329 -0.7826 -0.0080 -0.4019
  834MOL0     H12548   4.710   1.192   6.452 -0.9708 -0.0185 -1.2583
  834MOL0     H12549   4.699   1.355   6.397  2.4231 -0.9201  0.9607
  834MOL0     H12550   4.963   1.102   6.255 -0.3716  0.1404  0.5910
  834MOL0     H12551   5.276   1.170   6.085 -2.3152  0.3216 -3.8043
  834MOL0     H12552   5.252   1.262   6.224  0.2680  2.1733 -2.7037
  834MOL0     H12553   5.186   1.102   6.227 -1.5299  2.6075  2.3477
  834MOL0     H12554   5.227   1.476   5.701 -3.0989  1.9877  1.3561
  834MOL0     H12555   5.416   1.565   5.562  1.6069 -0.8778  0.3578
  834MOL0     H12556   5.667   1.579   5.572 -0.3945  0.6025 -1.1577
  834MOL0     H12557   5.606   1.695   5.463  1.2518 -1.2342 -1.2105
  834MOL0     H12558   5.861   1.731   5.638 -0.1537 -0.0787 -0.5266
  834MOL0     H12559   5.846   1.690   5.464 -2.0907  0.5509 -2.6488
  834MOL0     H12560   5.738   1.950   5.583  2.2989  0.4300  2.2774
  834MOL0     H12561   5.794   1.933   5.417 -0.3634  1.5399  0.3146
  834MOL0     H12562   6.006   1.923   5.632  0.9781  3.4681  1.4229
  834MOL0     H12563   6.014   1.973   5.468 -0.7453 -1.9206 -0.5627
  834MOL0     H12564   6.020   2.170   5.627 -1.3437  3.6171 -0.9276
  834MOL0     H12565   5.864   2.130   5.685 -0.4123  0.1753 -0.2995
  834MOL0     H12566   5.924   2.197   5.391  1.0751  1.5403  0.4011
  834MOL0     H12567   5.765   2.158   5.455  2.4542 -3.8776  0.1018
  834MOL0     H12568   5.826   2.393   5.411  1.7375 -1.4838 -1.5624
  834MOL0     H12569   5.950   2.373   5.544  1.2880 -3.4801 -0.3433
  834MOL0     H12570   5.768   2.340   5.703 -1.6892 -2.5533 -1.2899
  834MOL0     H12571   5.643   2.329   5.582  2.4556 -5.1803  0.3844
  834MOL0     H12572   5.507   1.818   5.888  1.3944  0.3103 -1.8402
  834MOL0     H12573   5.314   1.744   6.015  0.0028 -0.7538  1.0590
  834MOL0     H12574   4.887   1.498   5.970 -1.1659 -1.6014 -0.8921
  834MOL0     H12575   4.712   1.405   6.103 -0.1187 -0.1358  2.0746
  834MOL0     H12576   3.803   0.651   5.521  0.4979  0.9864 -0.7490
  834MOL0     H12577   3.623   0.483   5.564 -2.4599 -1.1193  0.4946
  834MOL0     H12578   3.276   0.335   5.516  1.7153 -1.9547  0.5250
  834MOL0     H12579   3.082   0.210   5.450 -0.8594  1.1751  0.2929
  834MOL0     H12580   2.918   0.081   5.429 -0.9720 -1.1698  0.3680
  834MOL0     H12581   2.766   0.027   5.504 -1.8143  1.2899 -1.1128
  834MOL0     H12582   2.777   0.316   5.449 -1.4818 -0.9411  2.6947
  834MOL0     H12583   2.645   0.210   5.463  1.4599  2.2286  2.5914
  834MOL0     H12584   2.838   0.193   5.227 -1.1270  0.6184 -1.7583
  834MOL0     H12585   2.680   0.276   5.223 -0.6888 -0.8904 -0.1281
  834MOL0     H12586   2.710  -0.028   5.250  0.2800 -0.5510  0.4236
  834MOL0     H12587   2.657   0.074   5.116  1.3158  2.4437  1.0056
  834MOL0     H12588   2.312   0.073   5.349 -1.1581  0.8675 -2.4083
  834MOL0     H12589   2.934   0.224   5.852 -2.6576  1.3252 -1.4399
  834MOL0     H12590   3.134   0.383   5.916  1.6933 -0.2466 -0.0071
  835MOL0     O12591   4.822  10.785   0.862 -0.5416 -0.0768  0.5369
  835MOL0     C12592   4.797  10.705   0.946 -0.0538 -0.4973 -0.1484
  835MOL0     O12593   4.836  10.574   0.952 -0.4915 -0.2568  0.7955
  835MOL0     C12594   4.920  10.528   0.852  0.7862  0.6120  0.0451
  835MOL0     C12595   5.046  10.579   0.843 -0.6157 -0.1434  0.2652
  835MOL0     C12596   5.142  10.511   0.759  0.5432  0.4426  1.2345
  835MOL0     C12597   5.108  10.394   0.688 -0.8976  0.2499  0.6886
  835MOL0     O12598   5.211  10.332   0.623  0.0112 -0.3368 -0.8088
  835MOL0     C12599   5.197  10.232   0.521 -0.1605 -0.4550 -0.0407
  835MOL0     C12600   5.337  10.182   0.477 -1.1145  0.1249  0.6882
  835MOL0     C12601   5.382  10.246   0.345 -0.0663  0.1747 -0.6779
  835MOL0     C12602   5.503  10.176   0.291 -0.6316 -0.2525  0.3137
  835MOL0     C12603   5.568  10.258   0.177 -1.2765 -1.2971  0.8409
  835MOL0     C12604   5.679  10.173   0.099 -1.5725 -0.7085  0.3722
  835MOL0     C12605   5.756  10.258  -0.005 -0.3952 -0.3776 -0.9443
  835MOL0     C12606   5.884  10.307   0.057  0.9750  0.7466 -0.4140
  835MOL0     N12607   5.922  10.449   0.026 -0.2809 -0.4022 -0.8598
  835MOL0     C12608   5.922  10.510  -0.094  1.0737  0.0273 -0.0603
  835MOL0     C12609   5.992  10.623  -0.073 -0.0222  0.1105 -0.7081
  835MOL0     C12610   6.047  10.712  -0.184  0.6578 -1.3239 -0.1218
  835MOL0     C12611   5.969  10.695  -0.319  0.7473  0.2944 -0.0315
  835MOL0     C12612   5.822  10.742  -0.300 -0.0531  0.3430 -0.4780
  835MOL0     C12613   5.734  10.660  -0.396 -1.4303  0.1535  0.2840
  835MOL0     O12614   5.702  10.536  -0.345 -0.4156  0.0461 -0.6865
  835MOL0     C12615   5.587  10.517  -0.279 -0.0164  0.1021  0.5342
  835MOL0     C12616   5.527  10.395  -0.283  0.3342  0.3592  0.2608
  835MOL0     C12617   5.429  10.356  -0.195 -0.7066  1.1188  1.0860
  835MOL0     C12618   5.426  10.199  -0.188  0.9566 -0.1887 -0.0429
  835MOL0     C12619   5.365  10.439  -0.113 -1.1304 -1.2324 -0.3798
  835MOL0     C12620   5.261  10.404  -0.018  0.2670  0.4971  0.2069
  835MOL0     O12621   5.233  10.501   0.065  0.4943 -0.0089 -0.2224
  835MOL0     C12622   5.128  10.482   0.161  0.0786 -0.0065 -0.8054
  835MOL0     C12623   4.997  10.461   0.113  0.6171  0.9230 -0.9542
  835MOL0     C12624   4.885  10.467   0.205  0.0586  0.6006 -0.3691
  835MOL0     C12625   4.906  10.502   0.341 -1.1257 -1.1741 -0.4927
  835MOL0     O12626   4.798  10.515   0.421  0.6084  0.4437  0.2655
  835MOL0     C12627   4.798  10.639   0.500 -0.0235 -0.0049  0.2571
  835MOL0     C12628   4.657  10.672   0.559  0.0992  0.4853  0.1214
  835MOL0     C12629   4.637  10.818   0.586 -0.1309  0.6357 -0.1726
  835MOL0     C12630   4.609  10.899   0.455  0.7930  0.4147 -0.1589
  835MOL0     C12631   4.601  11.050   0.472 -0.0761 -0.3731 -0.5330
  835MOL0     C12632   4.735  11.128   0.449  0.5567  0.3404 -0.4005
  835MOL0     C12633   4.733  11.265   0.516  0.1083 -0.3962  0.5828
  835MOL0     C12634   4.857  11.350   0.501 -0.1082 -1.3386  1.4965
  835MOL0    Cl12635   5.010  11.281   0.564  0.3398  0.3403 -0.3158
  835MOL0     C12636   5.044  10.525   0.391  0.0656 -0.9489  0.7699
  835MOL0     C12637   5.151  10.524   0.297 -0.2834 -0.5243  0.6131
  835MOL0     O12638   5.212  10.293  -0.019  0.6020 -0.4711 -0.3266
  835MOL0     C12639   5.421  10.567  -0.115  0.5026 -0.5065 -1.1792
  835MOL0     C12640   5.527  10.605  -0.191 -0.5260 -0.5846  0.1287
  835MOL0     N12641   6.048  10.622   0.051 -0.3147  0.4649  0.5535
  835MOL0     N12642   5.999  10.515   0.109 -0.5527  0.3306  0.2899
  835MOL0     C12643   4.978  10.365   0.673  0.7601 -0.4293  0.0887
  835MOL0     C12644   4.884  10.417   0.766  0.2833 -1.5257  0.1191
  835MOL0     C12645   4.700  10.754   1.051 -0.1732 -0.4234  0.2077
  835MOL0     C12646   4.644  10.887   1.046  0.8430 -0.3452 -0.3466
  835MOL0     C12647   4.563  10.926   1.156 -0.0926 -0.6963 -0.4877
  835MOL0     C12648   4.532  10.842   1.264  0.1587 -0.1229  0.0683
  835MOL0     O12649   4.432  10.869   1.353  0.6349 -0.4009  0.0279
  835MOL0     C12650   4.384  11.000   1.348  0.0719 -0.2939  0.6231
  835MOL0     C12651   4.278  11.028   1.461 -0.2376  1.0262 -0.3768
  835MOL0     C12652   4.155  10.944   1.449  0.1150  0.0092 -0.9223
  835MOL0     C12653   4.062  10.978   1.332 -0.6529 -0.2825  0.1064
  835MOL0     C12654   3.974  11.092   1.361 -0.1511  0.3032 -0.4573
  835MOL0     C12655   3.910  11.194   1.378 -0.1706  0.0738 -0.7134
  835MOL0     C12656   4.586  10.709   1.274  0.7386 -0.2926  0.3927
  835MOL0     C12657   4.670  10.673   1.164 -0.2460  0.1591 -0.2654
  835MOL0     H12658   5.080  10.652   0.915  0.9351  0.2678 -0.8245
  835MOL0     H12659   5.247  10.536   0.767  1.7239 -2.8214 -1.4967
  835MOL0     H12660   5.158  10.142   0.571 -2.1592  0.3061 -0.1433
  835MOL0     H12661   5.132  10.269   0.442 -1.4270  0.2875  1.2880
  835MOL0     H12662   5.415  10.189   0.554 -0.6184 -1.4118  0.3639
  835MOL0     H12663   5.336  10.074   0.459  2.8143 -0.6430  3.6883
  835MOL0     H12664   5.299  10.248   0.274  0.6540 -1.1672 -1.5909
  835MOL0     H12665   5.413  10.348   0.369  1.0294 -0.0394 -1.1395
  835MOL0     H12666   5.574  10.158   0.372  0.0813 -3.8441 -0.9121
  835MOL0     H12667   5.472  10.082   0.244  0.0455  0.8722 -2.6322
  835MOL0     H12668   5.494  10.269   0.097  0.2186  0.4008 -0.3956
  835MOL0     H12669   5.602  10.359   0.198 -0.0463 -1.8897  1.8114
  835MOL0     H12670   5.748  10.111   0.157 -1.2215 -0.5862  0.0919
  835MOL0     H12671   5.635  10.097   0.033  3.3298 -2.0692 -1.8235
  835MOL0     H12672   5.779  10.181  -0.078  0.7826 -0.6814 -0.2818
  835MOL0     H12673   5.693  10.343  -0.035 -1.9312 -0.6757  1.2214
  835MOL0     H12674   5.963  10.243   0.016 -0.7747  0.1064 -3.0061
  835MOL0     H12675   5.881  10.310   0.167  1.4340  3.0951 -0.4002
  835MOL0     H12676   5.888  10.484  -0.193  1.9019 -0.2685 -0.2719
  835MOL0     H12677   6.035  10.815  -0.148  0.4428 -1.5394  0.4462
  835MOL0     H12678   6.152  10.695  -0.206  0.9883  0.4510 -0.0837
  835MOL0     H12679   5.975  10.592  -0.353  0.9447  0.0754  0.6475
  835MOL0     H12680   6.019  10.754  -0.396  0.6472 -2.7766 -2.6527
  835MOL0     H12681   5.820  10.846  -0.334  1.1717  0.4783 -0.1723
  835MOL0     H12682   5.786  10.737  -0.197 -2.2201  1.9869 -1.0713
  835MOL0     H12683   5.793  10.642  -0.486  0.4787 -0.5540  1.6150
  835MOL0     H12684   5.650  10.726  -0.421 -0.4720  1.5579  0.7010
  835MOL0     H12685   5.574  10.333  -0.359 -0.9820  0.9870 -1.1080
  835MOL0     H12686   5.331  10.169  -0.233 -0.3953  3.3474  0.1519
  835MOL0     H12687   5.505  10.138  -0.233  0.9391 -0.5817  0.4405
  835MOL0     H12688   5.417  10.173  -0.082  3.9713  2.7098  1.1237
  835MOL0     H12689   4.989  10.436   0.008 -0.6726 -1.1275 -0.4342
  835MOL0     H12690   4.783  10.439   0.183  0.5524 -1.4170 -0.2761
  835MOL0     H12691   4.871  10.629   0.581 -0.3285  1.2089  0.6975
  835MOL0     H12692   4.840  10.720   0.439  0.4675 -1.2332 -1.1143
  835MOL0     H12693   4.588  10.649   0.477 -0.3342  0.3934  0.5041
  835MOL0     H12694   4.640  10.609   0.647  3.3598  1.6481  1.7396
  835MOL0     H12695   4.718  10.866   0.641 -0.1964 -1.0089  1.4404
  835MOL0     H12696   4.560  10.814   0.664  2.8783 -1.8695  2.9973
  835MOL0     H12697   4.680  10.875   0.375  0.0701  0.4656 -0.8365
  835MOL0     H12698   4.510  10.864   0.424  1.5149 -0.7098 -1.2911
  835MOL0     H12699   4.573  11.063   0.576  2.2771  0.7664  0.0450
  835MOL0     H12700   4.528  11.094   0.403  2.5264  2.4103 -1.7665
  835MOL0     H12701   4.810  11.066   0.499 -1.1232 -2.1218 -0.7483
  835MOL0     H12702   4.766  11.138   0.345  1.4931 -1.9535 -0.4039
  835MOL0     H12703   4.722  11.281   0.623  0.2334  0.4856  0.4738
  835MOL0     H12704   4.647  11.315   0.471 -0.3163  1.4883  3.2622
  835MOL0     H12705   4.837  11.447   0.549 -1.4491 -1.1878  0.6652
  835MOL0     H12706   4.849  11.378   0.396  0.8957  1.2479  2.0226
  835MOL0     H12707   5.051  10.554   0.495 -0.9958 -3.3004  1.5476
  835MOL0     H12708   5.252  10.542   0.332  0.6148  1.2376 -2.5717
  835MOL0     H12709   5.382  10.644  -0.049 -1.1186 -0.5939 -1.9872
  835MOL0     H12710   5.570  10.703  -0.177  5.4566 -2.7791 -0.1757
  835MOL0     H12711   4.942  10.299   0.595 -1.1046  1.0917 -0.4095
  835MOL0     H12712   4.784  10.376   0.778 -2.2130  2.8153 -3.1753
  835MOL0     H12713   4.651  10.950   0.957  1.4709  0.3317  0.1673
  835MOL0     H12714   4.499  11.010   1.134 -2.6556 -1.5497  2.8489
  835MOL0     H12715   4.459  11.079   1.353 -1.1577  1.1266 -1.4997
  835MOL0     H12716   4.331  11.020   1.254  0.4171  1.1445  0.7101
  835MOL0     H12717   4.253  11.134   1.459 -0.6890  0.9179 -0.4466
  835MOL0     H12718   4.319  11.011   1.562 -1.3739 -1.9210 -0.2964
  835MOL0     H12719   4.103  10.959   1.543  1.9092  0.5746  0.0365
  835MOL0     H12720   4.188  10.840   1.449  0.5191 -0.0031  3.1039
  835MOL0     H12721   3.993  10.893   1.326 -0.0772 -0.8606  1.4059
  835MOL0     H12722   4.118  10.991   1.239 -0.4644  0.2561  0.2895
  835MOL0     H12723   3.857  11.287   1.377  1.4012  1.1895  3.0662
  835MOL0     H12724   4.560  10.650   1.362 -0.9567  2.7846  2.1057
  835MOL0     H12725   4.718  10.577   1.177  1.1836  1.0680  1.7153
  836MOL0     O12726   2.305   7.159   1.200 -0.2512  0.4723  0.3747
  836MOL0     C12727   2.216   7.079   1.180  0.5101 -0.2244 -0.2772
  836MOL0     O12728   2.132   7.083   1.067 -0.6784 -0.1842 -0.8672
  836MOL0     C12729   2.142   7.181   0.976 -0.7258 -0.6454  0.4163
  836MOL0     C12730   2.205   7.180   0.852 -0.1504  0.3365  0.5804
  836MOL0     C12731   2.193   7.283   0.756 -1.4614  0.0716  0.7858
  836MOL0     C12732   2.139   7.406   0.786  0.0575 -0.3227 -0.6451
  836MOL0     O12733   2.144   7.502   0.683 -0.1071 -0.1429 -1.1441
  836MOL0     C12734   2.080   7.627   0.713  0.4146 -0.1444 -0.2569
  836MOL0     C12735   2.184   7.733   0.752 -0.3077 -0.0115  0.3237
  836MOL0     C12736   2.112   7.856   0.810  0.5316 -0.4559 -0.1785
  836MOL0     C12737   2.005   7.918   0.708  0.7403  0.5614 -0.2415
  836MOL0     C12738   1.929   8.047   0.770 -0.3454  0.1536  0.6826
  836MOL0     C12739   2.009   8.172   0.773  0.5971  0.6603 -0.8976
  836MOL0     C12740   1.913   8.277   0.827 -0.3344 -0.7879 -0.2888
  836MOL0     C12741   1.983   8.403   0.871 -0.5845  0.0480  0.5834
  836MOL0     N12742   2.026   8.490   0.762  1.0468  0.6101 -0.5184
  836MOL0     C12743   2.127   8.455   0.674  0.6485  0.4063 -0.3887
  836MOL0     C12744   2.121   8.551   0.577  0.2951 -0.1657 -1.2188
  836MOL0     C12745   2.195   8.544   0.442  0.1702  0.4290 -0.4369
  836MOL0     C12746   2.316   8.643   0.449 -0.6388  0.1079  0.5036
  836MOL0     C12747   2.404   8.612   0.574  0.6157  0.5569  0.6368
  836MOL0     C12748   2.548   8.650   0.574 -0.5968 -0.5426 -0.7752
  836MOL0     O12749   2.556   8.784   0.526 -0.6833 -0.0683 -0.9232
  836MOL0     C12750   2.559   8.875   0.634 -0.1814  0.9710  0.3767
  836MOL0     C12751   2.677   8.878   0.711  0.5557 -0.6002 -0.2181
  836MOL0     C12752   2.677   8.966   0.823  0.1405 -0.3917 -0.9533
  836MOL0     C12753   2.802   8.966   0.908  0.2987 -0.4745 -0.1156
  836MOL0     C12754   2.564   9.050   0.848  0.2011  0.1258  0.6671
  836MOL0     C12755   2.553   9.149   0.957  0.4454 -0.6215 -0.1046
  836MOL0     O12756   2.429   9.179   0.991 -0.6962  0.7050 -0.5189
  836MOL0     C12757   2.389   9.289   1.070  0.2595  0.8407  0.8184
  836MOL0     C12758   2.260   9.343   1.053 -0.2229 -0.1994  0.9701
  836MOL0     C12759   2.215   9.449   1.128 -0.4514  0.2108  0.2584
  836MOL0     C12760   2.290   9.505   1.226  0.1511 -0.1721 -0.4459
  836MOL0     O12761   2.247   9.603   1.310 -0.3911  1.0505  0.3655
  836MOL0     C12762   2.109   9.596   1.341 -0.2944 -0.8056  0.1511
  836MOL0     C12763   2.122   9.678   1.466  1.1554  0.1180 -0.2044
  836MOL0     C12764   2.169   9.818   1.448 -0.3357 -0.4848  0.6773
  836MOL0     C12765   2.055   9.926   1.450 -0.7264  0.6518 -0.2775
  836MOL0     C12766   2.122  10.066   1.445 -0.3846 -1.3788  0.3618
  836MOL0     C12767   2.016  10.175   1.462  0.2401 -0.2129 -0.4765
  836MOL0     C12768   1.936  10.170   1.594 -0.0152  0.6164  0.3392
  836MOL0     C12769   1.861  10.293   1.619  0.1264  0.4643 -0.0790
  836MOL0    Cl12770   1.954  10.436   1.631  0.2664 -0.0864 -0.3677
  836MOL0     C12771   2.420   9.459   1.248 -0.8303  1.0501 -0.1566
  836MOL0     C12772   2.470   9.358   1.167  0.9490  1.1866 -0.5005
  836MOL0     O12773   2.655   9.188   1.017  0.4016 -1.7441 -0.2153
  836MOL0     C12774   2.462   9.051   0.754 -0.1518 -0.2852  0.5592
  836MOL0     C12775   2.451   8.952   0.653  0.1865  0.2385 -0.9724
  836MOL0     N12776   2.013   8.637   0.606  0.1469  0.0555  0.0355
  836MOL0     N12777   1.951   8.587   0.710 -0.4604  0.1883 -0.0865
  836MOL0     C12778   2.084   7.412   0.914 -0.3090 -0.5577 -1.2543
  836MOL0     C12779   2.077   7.295   1.007  0.7347 -0.3883 -0.4009
  836MOL0     C12780   2.199   6.979   1.277  0.1580 -0.6758  0.3216
  836MOL0     C12781   2.077   6.912   1.279  0.3952  0.9205  0.4894
  836MOL0     C12782   2.059   6.811   1.376  0.6606  0.1745  0.3117
  836MOL0     C12783   2.158   6.787   1.472  0.5242  0.6551  0.1106
  836MOL0     O12784   2.144   6.686   1.568  1.1497 -0.1246 -0.3037
  836MOL0     C12785   2.226   6.575   1.555  0.1387 -0.4406  0.4845
  836MOL0     C12786   2.158   6.438   1.592  0.1713 -0.1801 -0.5650
  836MOL0     C12787   2.270   6.328   1.600 -0.7218 -1.0016 -0.8143
  836MOL0     C12788   2.221   6.186   1.644 -0.0508 -0.6646 -0.4814
  836MOL0     C12789   2.182   6.109   1.524  0.1630  0.9108 -0.6557
  836MOL0     C12790   2.157   6.038   1.430 -0.7924  0.6948  0.3459
  836MOL0     C12791   2.279   6.852   1.465 -1.1971 -0.4607 -0.4331
  836MOL0     C12792   2.306   6.954   1.374 -0.1548  0.2876 -0.0939
  836MOL0     H12793   2.258   7.095   0.810 -3.4865 -0.8563 -1.6548
  836MOL0     H12794   2.233   7.261   0.657  0.7620 -4.5243  2.4209
  836MOL0     H12795   2.042   7.654   0.614  2.8656  0.0082 -1.2001
  836MOL0     H12796   1.999   7.615   0.786  0.4641 -1.8362 -0.4432
  836MOL0     H12797   2.256   7.701   0.828 -0.6674  0.2031  0.7573
  836MOL0     H12798   2.243   7.764   0.665  0.3792 -0.0382  0.7742
  836MOL0     H12799   2.055   7.828   0.899  0.0465 -3.3352 -1.2935
  836MOL0     H12800   2.186   7.932   0.837 -1.1344  0.8918  0.8078
  836MOL0     H12801   2.050   7.941   0.611  3.9441  0.8046  1.1893
  836MOL0     H12802   1.927   7.843   0.691  4.0121 -4.3961  3.8532
  836MOL0     H12803   1.832   8.066   0.723  0.5186  0.5167 -1.0421
  836MOL0     H12804   1.904   8.017   0.872 -4.9934 -1.3037 -0.6665
  836MOL0     H12805   2.102   8.157   0.828  0.3981  0.1834 -0.6887
  836MOL0     H12806   2.044   8.182   0.670  1.4476 -0.0735 -0.6920
  836MOL0     H12807   1.838   8.309   0.753  0.6764  1.9527 -0.2581
  836MOL0     H12808   1.847   8.238   0.905 -0.4338  1.6996  0.9610
  836MOL0     H12809   2.075   8.396   0.930  1.5080  3.3872 -1.8747
  836MOL0     H12810   1.905   8.454   0.929  0.3446  1.5570  0.5705
  836MOL0     H12811   2.189   8.366   0.667  1.2063  0.9116 -2.7073
  836MOL0     H12812   2.234   8.443   0.426  1.3689  0.8876 -0.5046
  836MOL0     H12813   2.129   8.558   0.356  0.9716 -2.7566 -1.7305
  836MOL0     H12814   2.277   8.745   0.452 -1.6810 -0.1962 -1.3066
  836MOL0     H12815   2.369   8.635   0.353  1.0652 -4.7136  1.5538
  836MOL0     H12816   2.405   8.503   0.589 -5.1170 -0.0948 -1.1669
  836MOL0     H12817   2.359   8.669   0.655  0.2429  0.4919  0.4778
  836MOL0     H12818   2.613   8.588   0.512  2.9087 -0.5538  2.5180
  836MOL0     H12819   2.587   8.651   0.676  0.7041  2.2807 -1.1950
  836MOL0     H12820   2.762   8.814   0.686  0.5062 -1.0476  0.7248
  836MOL0     H12821   2.769   8.964   1.013 -1.9568 -2.8794 -0.7743
  836MOL0     H12822   2.868   8.880   0.897  2.4203  1.0243  0.3931
  836MOL0     H12823   2.872   9.050   0.912  2.1138 -1.9559  2.5303
  836MOL0     H12824   2.191   9.312   0.975  0.2663  0.5280  0.2330
  836MOL0     H12825   2.115   9.490   1.115 -0.4307  0.7293  1.6153
  836MOL0     H12826   2.052   9.659   1.273  2.6880 -0.2054 -1.9789
  836MOL0     H12827   2.072   9.493   1.345  1.7660 -1.5980 -0.1108
  836MOL0     H12828   2.025   9.673   1.516  1.6706 -0.5882  0.7495
  836MOL0     H12829   2.179   9.619   1.538 -5.5136 -3.7412  2.7937
  836MOL0     H12830   2.226   9.828   1.355 -1.9808  0.5510 -0.2589
  836MOL0     H12831   2.246   9.830   1.525 -2.2340 -2.0986  2.9839
  836MOL0     H12832   2.004   9.908   1.354  0.2905 -0.4516 -0.6404
  836MOL0     H12833   1.982   9.911   1.530 -1.2693  0.6950 -0.7511
  836MOL0     H12834   2.179  10.088   1.354 -1.0948  0.2143  0.2622
  836MOL0     H12835   2.198  10.074   1.522  3.3627 -1.4403 -3.0030
  836MOL0     H12836   2.073  10.269   1.457 -0.4538  0.1615 -1.8253
  836MOL0     H12837   1.937  10.166   1.388  0.7241 -1.6627 -0.8350
  836MOL0     H12838   2.007  10.149   1.675 -1.8202  3.2960  2.8080
  836MOL0     H12839   1.862  10.090   1.603  1.5116 -1.4972 -3.5683
  836MOL0     H12840   1.824  10.284   1.721  0.7158  2.6406  0.3840
  836MOL0     H12841   1.780  10.298   1.546 -0.7261  2.9648  0.9287
  836MOL0     H12842   2.490   9.492   1.323  1.9467 -4.0064 -0.0323
  836MOL0     H12843   2.565   9.318   1.201 -0.3989  0.5600  2.9965
  836MOL0     H12844   2.382   9.124   0.762 -1.0953 -1.3224  1.0022
  836MOL0     H12845   2.364   8.946   0.588 -0.1753 -0.1293 -0.4664
  836MOL0     H12846   2.042   7.504   0.953  2.8762  0.1304  0.8810
  836MOL0     H12847   2.012   7.287   1.093 -0.2319 -1.1546 -1.1709
  836MOL0     H12848   2.004   6.934   1.203  0.6337 -1.7935 -0.6620
  836MOL0     H12849   1.971   6.751   1.391  0.4135  0.5853  0.5218
  836MOL0     H12850   2.251   6.560   1.449 -0.0382  1.5880  0.1163
  836MOL0     H12851   2.315   6.590   1.617 -1.5976  2.1029  2.5833
  836MOL0     H12852   2.078   6.413   1.521 -2.0553  0.6697  1.4929
  836MOL0     H12853   2.114   6.440   1.692 -2.2779  1.7582 -1.5610
  836MOL0     H12854   2.356   6.354   1.663 -0.6328 -2.5336 -0.2521
  836MOL0     H12855   2.312   6.329   1.499  2.8925  0.7888  0.5152
  836MOL0     H12856   2.136   6.187   1.713  1.7312  1.2265  1.8457
  836MOL0     H12857   2.304   6.128   1.685 -1.4820 -4.0830 -2.0468
  836MOL0     H12858   2.137   6.024   1.326 -2.9716  1.8850  0.5421
  836MOL0     H12859   2.357   6.844   1.540  0.5752  0.9347 -2.0126
  836MOL0     H12860   2.404   6.998   1.360 -0.6237  1.3103 -0.2379
  837MOL0     O12861   1.927   7.908   2.832 -0.1846 -0.1059 -0.2022
  837MOL0     C12862   1.907   7.935   2.710  0.2544  0.1216 -0.6344
  837MOL0     O12863   1.868   8.053   2.655 -0.3124  0.2155 -0.0347
  837MOL0     C12864   1.821   8.160   2.714  1.7612 -0.6949  0.5549
  837MOL0     C12865   1.767   8.260   2.626  0.2956 -0.3729 -0.7114
  837MOL0     C12866   1.727   8.385   2.669 -1.7111 -0.1110  0.4250
  837MOL0     C12867   1.724   8.422   2.803  1.0235 -0.0630  1.1230
  837MOL0     O12868   1.664   8.535   2.851  0.3082  0.7668 -0.0881
  837MOL0     C12869   1.724   8.657   2.815  0.2010 -0.5322 -0.3752
  837MOL0     C12870   1.832   8.694   2.925  0.9440  0.5582  0.7229
  837MOL0     C12871   1.761   8.748   3.038  0.5869 -0.1254  0.5067
  837MOL0     C12872   1.873   8.799   3.135 -0.4892 -0.1744  0.0326
  837MOL0     C12873   1.822   8.869   3.267  0.0632 -0.7490  0.7450
  837MOL0     C12874   1.941   8.915   3.351 -0.0545 -0.5818 -0.4129
  837MOL0     C12875   1.903   8.974   3.491 -0.4577  0.4487  0.3278
  837MOL0     C12876   2.032   8.945   3.572  0.3335  0.8843  0.0723
  837MOL0     N12877   2.048   9.052   3.674  0.3496 -0.4855  0.2581
  837MOL0     C12878   1.979   9.065   3.786 -0.7090 -0.6859  0.3205
  837MOL0     C12879   2.031   9.173   3.834  0.3474 -0.2637 -0.2793
  837MOL0     C12880   1.987   9.240   3.962  0.2922 -0.7397 -1.0766
  837MOL0     C12881   2.100   9.316   4.043 -0.0807  1.0613  0.0624
  837MOL0     C12882   2.037   9.408   4.146 -0.5975  0.5139 -0.4632
  837MOL0     C12883   2.141   9.470   4.236  0.7884 -0.6464 -0.7593
  837MOL0     O12884   2.070   9.513   4.354 -0.2790  1.0183 -0.1028
  837MOL0     C12885   2.154   9.588   4.440  0.2149  0.2579  0.0380
  837MOL0     C12886   2.097   9.688   4.505 -0.3274  0.7018  0.4594
  837MOL0     C12887   2.174   9.752   4.617  0.1131 -0.1319  0.3986
  837MOL0     C12888   2.088   9.853   4.694 -0.3537  0.1985 -0.3266
  837MOL0     C12889   2.304   9.708   4.658  0.5439  0.0501 -0.2041
  837MOL0     C12890   2.375   9.761   4.769 -0.1846 -0.3974  0.4728
  837MOL0     O12891   2.499   9.792   4.742  0.3700 -0.8744 -0.0959
  837MOL0     C12892   2.591   9.827   4.838  0.0525  0.2562  1.5609
  837MOL0     C12893   2.558   9.925   4.921  0.4135  0.0791  0.3926
  837MOL0     C12894   2.641   9.967   5.027 -0.7823 -0.6330 -0.9625
  837MOL0     C12895   2.765   9.902   5.040 -0.2560 -0.3741 -0.1748
  837MOL0     O12896   2.861   9.931   5.140 -0.1487 -0.3765  0.1362
  837MOL0     C12897   2.842  10.049   5.218 -1.4355  0.4233  0.2348
  837MOL0     C12898   2.977  10.098   5.273  0.0181 -1.4430 -0.4552
  837MOL0     C12899   2.964  10.242   5.336  0.8284  0.9840  0.2473
  837MOL0     C12900   3.114  10.306   5.357  1.1003 -0.5647  0.2849
  837MOL0     C12901   3.101  10.425   5.466 -0.9206 -0.0706  0.9787
  837MOL0     C12902   3.235  10.457   5.538 -0.0106  0.0062 -0.3362
  837MOL0     C12903   3.226  10.586   5.627 -0.4725 -0.3837 -0.0452
  837MOL0     C12904   3.366  10.621   5.671 -0.4187 -0.6229 -0.0111
  837MOL0    Cl12905   3.357  10.776   5.757  0.2288 -0.1970 -0.5223
  837MOL0     C12906   2.796   9.799   4.951 -0.6318 -0.7004  1.0673
  837MOL0     C12907   2.710   9.753   4.850  1.2104  0.3038 -0.0883
  837MOL0     O12908   2.330   9.752   4.882 -0.1440 -0.5997 -0.2334
  837MOL0     C12909   2.352   9.605   4.573  0.2729 -0.4893  0.0906
  837MOL0     C12910   2.281   9.542   4.471 -0.3965 -0.2401 -0.5337
  837MOL0     N12911   2.124   9.226   3.749 -0.4681 -0.0406 -0.1217
  837MOL0     N12912   2.141   9.143   3.649  0.2265 -0.3493  0.5769
  837MOL0     C12913   1.745   8.317   2.892 -0.9533 -0.9104  0.0837
  837MOL0     C12914   1.803   8.187   2.851  0.2328 -0.0636 -0.3893
  837MOL0     C12915   1.948   7.827   2.626 -0.4186  0.1686 -0.2074
  837MOL0     C12916   1.867   7.802   2.522  0.3940 -0.2707  0.9957
  837MOL0     C12917   1.871   7.678   2.459  0.6042 -0.2640 -0.3435
  837MOL0     C12918   1.952   7.576   2.503  0.4455  1.1174  0.8266
  837MOL0     O12919   1.942   7.460   2.427 -0.1895 -0.3741  0.3137
  837MOL0     C12920   2.050   7.366   2.412  0.9695  0.1364  0.5544
  837MOL0     C12921   2.146   7.404   2.316  0.0700 -0.4683  0.6921
  837MOL0     C12922   2.235   7.281   2.277  0.4380  0.4829  0.2902
  837MOL0     C12923   2.338   7.298   2.166  0.2754  0.0410 -0.0559
  837MOL0     C12924   2.469   7.354   2.212 -0.4728 -0.4085  0.9778
  837MOL0     C12925   2.579   7.398   2.248 -0.0368 -0.3534  0.7347
  837MOL0     C12926   2.049   7.612   2.599  0.6998 -0.3739  0.1300
  837MOL0     C12927   2.048   7.733   2.665  0.2110 -0.0902 -0.5752
  837MOL0     H12928   1.782   8.237   2.521  0.3704 -2.4214 -0.2932
  837MOL0     H12929   1.696   8.444   2.583 -3.6670 -0.7780  0.6210
  837MOL0     H12930   1.773   8.656   2.718  2.6825 -1.2730  0.7996
  837MOL0     H12931   1.653   8.740   2.813 -1.2249 -1.7345 -1.1316
  837MOL0     H12932   1.892   8.606   2.953 -0.0199  0.9168  4.3356
  837MOL0     H12933   1.885   8.778   2.879 -1.6643  2.1152  0.4058
  837MOL0     H12934   1.688   8.826   3.015  0.0519 -0.7111  0.2046
  837MOL0     H12935   1.701   8.673   3.091 -2.1875  0.5889 -1.4277
  837MOL0     H12936   1.931   8.712   3.164  3.7427  1.8588 -1.5091
  837MOL0     H12937   1.931   8.875   3.081 -1.8154  0.1811 -0.9563
  837MOL0     H12938   1.767   8.957   3.231  0.1993 -1.2725 -0.8029
  837MOL0     H12939   1.755   8.807   3.327 -0.9497  0.0505  0.4740
  837MOL0     H12940   2.001   8.827   3.376  3.6428  1.6362 -0.7202
  837MOL0     H12941   1.999   8.985   3.289 -0.8594  0.2887 -0.1959
  837MOL0     H12942   1.896   9.083   3.498 -2.9137  0.2881  1.5186
  837MOL0     H12943   1.813   8.933   3.540 -0.0390 -0.4399  0.3632
  837MOL0     H12944   2.124   8.927   3.516 -0.1885  0.7433 -0.7496
  837MOL0     H12945   2.012   8.850   3.624  1.6068  1.0874  0.9853
  837MOL0     H12946   1.889   9.012   3.815 -0.8778 -0.4416  0.2425
  837MOL0     H12947   1.907   9.311   3.939  2.4690  2.6216  0.8836
  837MOL0     H12948   1.940   9.171   4.033  0.4838  0.3982  0.1894
  837MOL0     H12949   2.151   9.385   3.976  1.6048  0.1071  0.2930
  837MOL0     H12950   2.173   9.249   4.089 -0.8097  0.3153  0.1835
  837MOL0     H12951   1.960   9.353   4.199 -0.4695 -0.9267 -1.7234
  837MOL0     H12952   1.982   9.480   4.085  1.1037 -0.0860 -2.8132
  837MOL0     H12953   2.182   9.562   4.193  0.5715  0.5365  1.4632
  837MOL0     H12954   2.217   9.396   4.262  2.1005  1.1886  0.8909
  837MOL0     H12955   1.993   9.700   4.477 -0.1852 -1.6648 -1.4055
  837MOL0     H12956   1.987   9.848   4.654  0.2446 -3.1642 -1.7179
  837MOL0     H12957   2.089   9.826   4.800 -2.4317 -0.0057 -0.3322
  837MOL0     H12958   2.114   9.958   4.677 -2.3788  0.5713 -1.4739
  837MOL0     H12959   2.460   9.972   4.912  0.6643  0.7445  1.0338
  837MOL0     H12960   2.608  10.034   5.105 -0.6348 -3.2181  1.4483
  837MOL0     H12961   2.808  10.128   5.150 -1.5128 -2.4675 -3.3844
  837MOL0     H12962   2.780  10.042   5.309 -0.7893  2.3113  0.8553
  837MOL0     H12963   3.013  10.027   5.348  1.0711 -0.8004 -0.3325
  837MOL0     H12964   3.050  10.103   5.192 -0.5675 -1.4184 -0.9842
  837MOL0     H12965   2.925  10.211   5.434  1.4677  3.4467  1.3673
  837MOL0     H12966   2.892  10.311   5.290 -1.2762 -1.4332 -0.2645
  837MOL0     H12967   3.173  10.227   5.404 -0.3843 -2.5321 -0.9392
  837MOL0     H12968   3.160  10.345   5.266 -2.0797  0.6732 -0.9224
  837MOL0     H12969   3.045  10.378   5.547 -2.3385 -4.7301 -2.2924
  837MOL0     H12970   3.061  10.523   5.435 -1.6340 -0.7401 -0.3000
  837MOL0     H12971   3.268  10.370   5.595  2.1670  0.3921 -0.9091
  837MOL0     H12972   3.309  10.483   5.461 -0.0673  1.4014  0.0551
  837MOL0     H12973   3.158  10.574   5.712 -3.4225  0.7333 -2.0729
  837MOL0     H12974   3.175  10.668   5.576  0.3608 -0.7405 -1.5113
  837MOL0     H12975   3.425  10.630   5.579 -2.9310 -1.2986 -1.8232
  837MOL0     H12976   3.414  10.548   5.737  0.4373 -0.2251 -0.1911
  837MOL0     H12977   2.886   9.745   4.976 -0.2721 -1.7813 -2.1417
  837MOL0     H12978   2.738   9.672   4.783  0.0201  0.5999 -0.9721
  837MOL0     H12979   2.439   9.554   4.613 -1.1796 -0.7567  3.2342
  837MOL0     H12980   2.328   9.455   4.425  0.7002  0.4195 -0.7022
  837MOL0     H12981   1.757   8.344   2.996 -2.1068  2.2602 -0.5048
  837MOL0     H12982   1.826   8.119   2.933 -0.3563 -2.1869 -1.8883
  837MOL0     H12983   1.789   7.875   2.501  0.0701 -1.2005 -1.3184
  837MOL0     H12984   1.798   7.654   2.382 -0.3488 -0.3324  0.5612
  837MOL0     H12985   2.094   7.355   2.511  1.9193  3.9506  0.7226
  837MOL0     H12986   2.009   7.273   2.372  2.4959  0.3503 -1.7085
  837MOL0     H12987   2.218   7.475   2.359  0.3051 -1.4151  1.8975
  837MOL0     H12988   2.102   7.446   2.225 -0.6974 -2.2594  0.1919
  837MOL0     H12989   2.167   7.200   2.251  1.3484  0.1620 -1.2166
  837MOL0     H12990   2.287   7.246   2.367 -2.5247 -0.7887  1.6390
  837MOL0     H12991   2.295   7.365   2.091 -1.2447 -1.5278 -0.6342
  837MOL0     H12992   2.353   7.209   2.105  1.6125  0.6647 -0.6951
  837MOL0     H12993   2.679   7.424   2.276  0.1826 -3.2045  3.0276
  837MOL0     H12994   2.111   7.532   2.636 -0.4819 -1.9034 -1.0528
  837MOL0     H12995   2.131   7.759   2.731  0.4007  1.9801 -1.5452
  838MOL0     O12996   8.612   8.544  10.002  0.2606 -0.8026  0.0941
  838MOL0     C12997   8.707   8.526   9.931 -0.8423 -0.1616 -0.7908
  838MOL0     O12998   8.758   8.406   9.893  0.7108  0.5746 -0.5782
  838MOL0     C12999   8.739   8.289   9.961 -0.5224  0.6203  0.6450
  838MOL0     C13000   8.806   8.179   9.898 -0.3971 -0.0962  0.9930
  838MOL0     C13001   8.795   8.053   9.953  0.3007  0.4149  0.5211
  838MOL0     C13002   8.720   8.022  10.065 -0.0535  0.0450  0.9105
  838MOL0     O13003   8.714   7.890  10.091 -0.3829 -0.4943 -0.3942
  838MOL0     C13004   8.588   7.844  10.132 -0.5731  1.0970  0.3656
  838MOL0     C13005   8.534   7.726  10.051 -0.0813  0.2747  0.4288
  838MOL0     C13006   8.524   7.748   9.904 -0.2770  0.1894  0.1838
  838MOL0     C13007   8.441   7.869   9.862  0.2794 -0.0537 -0.3030
  838MOL0     C13008   8.453   7.917   9.712  1.3905 -0.4767 -1.1875
  838MOL0     C13009   8.352   8.037   9.670  0.0920  0.9310 -0.3144
  838MOL0     C13010   8.346   8.150   9.769 -0.4222 -0.2581 -1.0407
  838MOL0     C13011   8.255   8.261   9.713  0.5213  0.7078  0.2446
  838MOL0     N13012   8.310   8.335   9.596 -0.6452  0.6497 -0.3980
  838MOL0     C13013   8.437   8.395   9.614  0.0801 -0.0199  1.2584
  838MOL0     C13014   8.460   8.443   9.490  1.8432 -0.2930 -0.1290
  838MOL0     C13015   8.583   8.522   9.450 -0.2314  0.4493  0.0860
  838MOL0     C13016   8.525   8.656   9.384  0.2175  1.1677 -0.4840
  838MOL0     C13017   8.629   8.761   9.364  0.2834  0.6236 -0.3527
  838MOL0     C13018   8.757   8.727   9.282  0.1167 -0.5382  0.0804
  838MOL0     O13019   8.836   8.843   9.265  0.2161  1.0214 -0.1777
  838MOL0     C13020   8.951   8.827   9.198  0.0515 -0.5193 -0.3412
  838MOL0     C13021   9.036   8.937   9.203 -0.8936 -0.5171  0.2621
  838MOL0     C13022   9.158   8.938   9.132 -0.2132 -1.1730  0.4507
  838MOL0     C13023   9.246   9.071   9.119  0.5775  0.5587  0.3444
  838MOL0     C13024   9.209   8.813   9.082  0.3247  0.0462 -1.0799
  838MOL0     C13025   9.344   8.794   9.024 -0.4294 -0.6193 -0.8848
  838MOL0     O13026   9.357   8.722   8.911 -0.0066 -0.5630 -1.2762
  838MOL0     C13027   9.481   8.679   8.863  0.2122 -0.6281  0.6860
  838MOL0     C13028   9.492   8.541   8.830  0.3069 -0.0565 -0.2369
  838MOL0     C13029   9.614   8.483   8.784 -0.3883  0.0334 -0.2720
  838MOL0     C13030   9.721   8.571   8.753 -0.3135  1.2875 -0.4373
  838MOL0     O13031   9.843   8.518   8.710  0.2942  0.9113 -0.3297
  838MOL0     C13032   9.856   8.378   8.684 -0.6923 -0.2883  0.0120
  838MOL0     C13033  10.001   8.368   8.646 -0.4189  1.0599 -0.4944
  838MOL0     C13034  10.023   8.224   8.585  1.5284  0.0981  0.0347
  838MOL0     C13035  10.162   8.224   8.530 -0.5232  0.7607 -0.6783
  838MOL0     C13036  10.226   8.087   8.498  0.7734  0.7582  0.3206
  838MOL0     C13037  10.146   7.960   8.467 -0.3263  0.3139 -0.1190
  838MOL0     C13038  10.225   7.840   8.492 -0.2300 -1.0152  0.3656
  838MOL0     C13039  10.124   7.730   8.456 -0.4348 -0.4807 -0.1689
  838MOL0    Cl13040  10.146   7.706   8.282  0.3199  0.2024 -0.0347
  838MOL0     C13041   9.704   8.705   8.784 -0.9092  0.0029 -0.4500
  838MOL0     C13042   9.587   8.764   8.840  0.0528  0.1690  0.1149
  838MOL0     O13043   9.442   8.843   9.092  0.1068  0.7251 -0.1433
  838MOL0     C13044   9.126   8.711   9.091 -0.0555  0.3423  0.2833
  838MOL0     C13045   8.996   8.708   9.135 -0.6197 -0.8975 -0.1432
  838MOL0     N13046   8.350   8.421   9.404 -0.4758 -0.3056  0.5370
  838MOL0     N13047   8.267   8.361   9.468 -0.7190 -0.0578  0.6146
  838MOL0     C13048   8.653   8.126  10.127  0.3999 -0.5656  0.7429
  838MOL0     C13049   8.657   8.261  10.075 -0.0142 -0.1335  0.0406
  838MOL0     C13050   8.780   8.631   9.870  0.5615  0.3923  1.0542
  838MOL0     C13051   8.716   8.756   9.854  0.0413  0.2113 -0.5919
  838MOL0     C13052   8.787   8.856   9.788  0.1000 -0.5392 -0.8800
  838MOL0     C13053   8.917   8.841   9.745 -0.9315 -0.3696  0.0571
  838MOL0     O13054   8.989   8.931   9.666  0.5613  0.3912 -0.3276
  838MOL0     C13055   8.907   9.043   9.608 -0.5108  0.2675 -0.4415
  838MOL0     C13056   9.012   9.136   9.539 -0.0006  0.4131  1.0890
  838MOL0     C13057   8.958   9.260   9.476  0.5654 -0.5104 -0.1762
  838MOL0     C13058   8.880   9.351   9.575 -0.0695  0.5245  0.7033
  838MOL0     C13059   8.973   9.410   9.677  0.6826  0.9991 -0.1896
  838MOL0     C13060   9.058   9.459   9.748 -0.4071  1.2206 -0.9285
  838MOL0     C13061   8.982   8.720   9.769 -0.4367 -0.3497 -0.9032
  838MOL0     C13062   8.914   8.617   9.828  0.4957  0.2512  0.1264
  838MOL0     H13063   8.874   8.178   9.814 -0.9219  1.7240  0.4856
  838MOL0     H13064   8.858   7.973   9.917  4.9082  3.0691  1.8880
  838MOL0     H13065   8.611   7.804  10.231  0.2532 -0.7097 -0.5101
  838MOL0     H13066   8.505   7.915  10.146 -2.6980 -1.5860  2.4122
  838MOL0     H13067   8.609   7.647  10.064  1.2482  1.2576 -0.9334
  838MOL0     H13068   8.433   7.707  10.088  0.5975 -0.7724  1.8875
  838MOL0     H13069   8.626   7.770   9.870 -0.4223  0.4872 -0.0605
  838MOL0     H13070   8.487   7.659   9.852  0.8086  0.8676 -1.8378
  838MOL0     H13071   8.337   7.838   9.880  0.3797 -0.7742 -0.9208
  838MOL0     H13072   8.467   7.962   9.913 -1.1379 -0.4121  1.1964
  838MOL0     H13073   8.554   7.960   9.716  0.2907  2.3917 -1.8166
  838MOL0     H13074   8.438   7.835   9.641 -2.4470 -0.2285 -0.8477
  838MOL0     H13075   8.372   8.072   9.568 -2.9816 -0.1730 -1.3956
  838MOL0     H13076   8.252   7.994   9.665  0.2589  0.2784  1.1849
  838MOL0     H13077   8.317   8.117   9.869 -1.4619  2.1663 -0.4735
  838MOL0     H13078   8.450   8.180   9.786 -0.2205 -1.2239 -0.5020
  838MOL0     H13079   8.224   8.333   9.790 -1.7505  1.8453 -1.5998
  838MOL0     H13080   8.174   8.202   9.669  1.3957 -1.6747  1.6688
  838MOL0     H13081   8.503   8.409   9.699  4.9310  2.6432 -2.4536
  838MOL0     H13082   8.636   8.542   9.543  1.9167  2.6647 -1.4692
  838MOL0     H13083   8.648   8.477   9.374  1.1510  2.6218 -0.0955
  838MOL0     H13084   8.452   8.695   9.457  2.1976  1.5768  1.3856
  838MOL0     H13085   8.467   8.629   9.295 -0.7782 -0.1801  0.5282
  838MOL0     H13086   8.663   8.794   9.462 -2.8894  0.9418  0.7520
  838MOL0     H13087   8.571   8.834   9.306 -0.3826 -0.1036 -0.6268
  838MOL0     H13088   8.717   8.691   9.187 -2.8753 -0.0624  1.0653
  838MOL0     H13089   8.804   8.643   9.334  0.6232 -0.7233 -0.6683
  838MOL0     H13090   9.003   9.031   9.245 -0.8728 -0.2450 -0.3218
  838MOL0     H13091   9.184   9.155   9.149 -0.9271 -0.7579  1.1000
  838MOL0     H13092   9.341   9.066   9.175  2.8780 -1.4896 -3.3292
  838MOL0     H13093   9.268   9.087   9.013 -5.4914  1.2539 -1.1431
  838MOL0     H13094   9.407   8.481   8.858  0.6531  0.5741  2.4020
  838MOL0     H13095   9.604   8.375   8.776 -2.9843 -0.0942  2.7492
  838MOL0     H13096   9.839   8.314   8.771  1.1411 -1.3347 -0.3473
  838MOL0     H13097   9.796   8.350   8.597  1.8620 -1.9661 -1.3436
  838MOL0     H13098  10.028   8.442   8.571 -0.0415  0.0523 -1.3812
  838MOL0     H13099  10.066   8.380   8.734  3.6465 -1.1671 -2.8840
  838MOL0     H13100   9.944   8.204   8.512 -1.6731  2.9078  2.4298
  838MOL0     H13101  10.012   8.150   8.665 -4.3527 -1.3121 -1.5675
  838MOL0     H13102  10.158   8.270   8.430 -5.2173  1.9831 -0.1723
  838MOL0     H13103  10.225   8.276   8.603 -0.6689 -0.7679  0.5771
  838MOL0     H13104  10.277   8.059   8.591  1.2233 -3.8911 -1.0823
  838MOL0     H13105  10.304   8.101   8.423 -1.2916  3.9538 -1.4778
  838MOL0     H13106  10.049   7.954   8.517 -0.1219 -2.6334  0.0818
  838MOL0     H13107  10.132   7.957   8.358 -0.6754  0.5976 -0.0840
  838MOL0     H13108  10.245   7.840   8.600  2.9398 -0.2052 -0.1282
  838MOL0     H13109  10.321   7.838   8.439  0.6670  2.3977  1.5506
  838MOL0     H13110  10.017   7.748   8.470 -0.3846  1.9730 -2.1934
  838MOL0     H13111  10.145   7.636   8.508  0.0947 -0.4395 -0.3012
  838MOL0     H13112   9.783   8.778   8.764 -2.2777  2.0223  1.0735
  838MOL0     H13113   9.564   8.869   8.853  1.4265  0.4337  0.5248
  838MOL0     H13114   9.153   8.615   9.050 -3.9634 -0.2432 -1.3777
  838MOL0     H13115   8.941   8.615   9.125  0.7500 -1.5217 -2.8734
  838MOL0     H13116   8.590   8.109  10.214  1.4895  1.2740  1.9787
  838MOL0     H13117   8.584   8.330  10.115  1.1185 -0.3095  2.5426
  838MOL0     H13118   8.614   8.781   9.884  0.4723  0.8040  0.4466
  838MOL0     H13119   8.749   8.957   9.801  1.1364 -0.1454 -0.7968
  838MOL0     H13120   8.831   9.001   9.541 -0.3287 -0.1137 -0.4100
  838MOL0     H13121   8.861   9.093   9.693  1.7006  0.7681  0.5378
  838MOL0     H13122   9.047   9.080   9.451 -0.2393 -1.1678  1.9680
  838MOL0     H13123   9.097   9.155   9.605  1.8630  0.2775 -1.1257
  838MOL0     H13124   8.881   9.233   9.404 -0.8883  0.4433  0.9681
  838MOL0     H13125   9.039   9.311   9.423 -1.1750  1.9054 -0.6698
  838MOL0     H13126   8.797   9.304   9.629 -1.3763  1.4243 -0.4577
  838MOL0     H13127   8.842   9.439   9.521 -0.0185 -0.8400 -1.7041
  838MOL0     H13128   9.135   9.480   9.820 -2.1275 -0.9892  1.7868
  838MOL0     H13129   9.087   8.721   9.740  0.3949  2.2542  1.7196
  838MOL0     H13130   8.971   8.526   9.846 -1.7627 -1.3807 -0.5259
  839MOL0     O13131   5.288   5.186   8.930 -0.0896 -0.1509 -0.1006
  839MOL0     C13132   5.254   5.092   8.853  0.7101  1.1699 -0.3624
  839MOL0     O13133   5.240   4.952   8.885 -0.0616 -0.0480  1.1101
  839MOL0     C13134   5.282   4.893   9.006  0.0704  0.4474  0.6787
  839MOL0     C13135   5.372   4.945   9.098  0.1218  0.0472 -0.5112
  839MOL0     C13136   5.410   4.868   9.212 -0.3157 -0.7842 -0.2472
  839MOL0     C13137   5.375   4.732   9.228  0.9576 -1.3353  1.0503
  839MOL0     O13138   5.407   4.656   9.337 -0.3269 -0.0042 -0.1871
  839MOL0     C13139   5.537   4.661   9.401  0.0127 -0.7753  0.0319
  839MOL0     C13140   5.538   4.543   9.506  0.4263 -1.1217  0.1274
  839MOL0     C13141   5.443   4.573   9.617  0.2068  0.6257 -0.6721
  839MOL0     C13142   5.451   4.475   9.726  0.7115 -0.1670 -0.6356
  839MOL0     C13143   5.344   4.505   9.839 -0.3287  1.0516 -0.4171
  839MOL0     C13144   5.348   4.397   9.950 -1.1001 -0.0772 -0.3365
  839MOL0     C13145   5.241   4.426  10.056  0.2680  0.0055 -0.5693
  839MOL0     C13146   5.259   4.339  10.181  0.2339 -0.4432  0.1711
  839MOL0     N13147   5.250   4.204  10.155  0.8248  0.8325 -0.7738
  839MOL0     C13148   5.160   4.152  10.062  0.3161 -0.1949 -0.8912
  839MOL0     C13149   5.183   4.020  10.063 -0.3534 -0.0843 -0.0038
  839MOL0     C13150   5.113   3.931   9.967  0.1646  0.9359  1.0196
  839MOL0     C13151   5.129   3.977   9.827  0.3926 -0.4724  0.9567
  839MOL0     C13152   5.277   3.998   9.788  0.9111 -0.7442 -0.3759
  839MOL0     C13153   5.289   4.039   9.640  0.7271 -0.3306  0.4638
  839MOL0     O13154   5.419   4.068   9.610  0.0906 -0.4426 -0.4311
  839MOL0     C13155   5.453   4.137   9.496  0.3232  0.0897  0.9298
  839MOL0     C13156   5.587   4.149   9.471 -0.1534 -0.0061  0.4256
  839MOL0     C13157   5.634   4.208   9.352 -0.4306  0.7033 -0.2666
  839MOL0     C13158   5.789   4.197   9.340  0.0744  0.3557 -0.2310
  839MOL0     C13159   5.545   4.243   9.253  1.1809 -0.1285  0.5143
  839MOL0     C13160   5.572   4.306   9.131 -0.2154 -0.1133 -0.4249
  839MOL0     O13161   5.697   4.285   9.082 -0.1813 -0.2199  0.3828
  839MOL0     C13162   5.737   4.349   8.963  0.5825  0.3168 -0.1669
  839MOL0     C13163   5.752   4.273   8.847  0.3362 -0.3383 -0.8084
  839MOL0     C13164   5.807   4.340   8.730 -0.3269 -0.5694 -0.6608
  839MOL0     C13165   5.836   4.475   8.732 -0.0440 -0.6165  0.1212
  839MOL0     O13166   5.908   4.518   8.623  0.2309 -0.1149  0.0908
  839MOL0     C13167   5.952   4.662   8.616  0.0855  1.2946 -0.9449
  839MOL0     C13168   6.023   4.680   8.492  0.2699 -0.4990  0.7453
  839MOL0     C13169   5.944   4.647   8.364 -0.9992 -0.4240 -0.0571
  839MOL0     C13170   6.004   4.720   8.247 -0.2437 -0.6470 -0.9100
  839MOL0     C13171   5.919   4.729   8.124  0.3400 -0.1058 -0.0568
  839MOL0     C13172   5.838   4.863   8.107  0.0205 -0.0885  0.3254
  839MOL0     C13173   5.734   4.858   7.994  0.6216 -0.4788 -0.2074
  839MOL0     C13174   5.609   4.772   8.024 -0.1038 -0.1423  0.1798
  839MOL0    Cl13175   5.519   4.789   7.860  0.2186  0.0520 -0.4908
  839MOL0     C13176   5.824   4.556   8.850 -0.4733  0.0807  0.9229
  839MOL0     C13177   5.771   4.487   8.959 -0.3457 -0.2249 -0.3993
  839MOL0     O13178   5.484   4.381   9.084 -0.2283  0.3024 -0.6547
  839MOL0     C13179   5.407   4.239   9.288 -0.6649 -0.1847 -0.0220
  839MOL0     C13180   5.359   4.184   9.398 -0.4897 -0.3109  0.1441
  839MOL0     N13181   5.281   3.989  10.159 -0.0405  0.4208 -0.1466
  839MOL0     N13182   5.316   4.100  10.218 -0.1006  0.0187  1.2364
  839MOL0     C13183   5.287   4.684   9.126 -0.2971  0.4672  0.5704
  839MOL0     C13184   5.245   4.759   9.016 -0.3060 -0.5031  0.2498
  839MOL0     C13185   5.193   5.133   8.720 -0.3896 -0.3838  0.2336
  839MOL0     C13186   5.135   5.050   8.622 -0.2785 -0.1963  0.8622
  839MOL0     C13187   5.075   5.102   8.510 -0.5488 -0.0194 -0.2303
  839MOL0     C13188   5.093   5.235   8.475 -1.0980  1.2912  0.6003
  839MOL0     O13189   5.053   5.283   8.356 -0.6289 -0.8759  0.3525
  839MOL0     C13190   5.028   5.186   8.247 -0.4459  0.2161 -0.5580
  839MOL0     C13191   5.008   5.277   8.121  0.2695 -0.5786 -0.2753
  839MOL0     C13192   4.916   5.387   8.152 -0.4629 -0.1811 -0.0749
  839MOL0     C13193   4.856   5.447   8.018 -1.0662  0.0821  0.4196
  839MOL0     C13194   4.979   5.501   7.940  0.2029 -0.4471 -0.0249
  839MOL0     C13195   5.064   5.526   7.858 -1.3044 -1.0579 -0.5852
  839MOL0     C13196   5.144   5.324   8.573  0.4717  0.6205  0.3322
  839MOL0     C13197   5.192   5.278   8.694 -0.4056  0.1418  0.5630
  839MOL0     H13198   5.414   5.044   9.085 -1.9455  0.7496 -2.6288
  839MOL0     H13199   5.479   4.921   9.277  0.9553 -1.1377 -1.2672
  839MOL0     H13200   5.618   4.649   9.329 -2.1172 -1.6359 -2.3381
  839MOL0     H13201   5.549   4.757   9.452 -0.4014 -0.8236  0.2240
  839MOL0     H13202   5.521   4.451   9.449 -2.7386  1.5866 -3.9207
  839MOL0     H13203   5.638   4.537   9.551  1.4715  1.3394 -1.6351
  839MOL0     H13204   5.464   4.678   9.642 -4.1736  2.4792 -3.5464
  839MOL0     H13205   5.339   4.575   9.583  0.2811 -0.6742 -1.0180
  839MOL0     H13206   5.413   4.384   9.679  2.2132 -1.1504 -0.0218
  839MOL0     H13207   5.553   4.464   9.763 -0.0154  2.5623  2.7274
  839MOL0     H13208   5.361   4.601   9.888 -0.4640  0.8512  0.0323
  839MOL0     H13209   5.245   4.493   9.792  0.0294 -1.9314 -0.5927
  839MOL0     H13210   5.315   4.299   9.914 -0.5330 -0.1135 -0.7652
  839MOL0     H13211   5.450   4.393   9.989 -1.7288 -1.1655  1.3316
  839MOL0     H13212   5.264   4.525  10.096 -0.0042 -0.7860  1.6945
  839MOL0     H13213   5.134   4.423  10.033 -0.2546  1.7393  1.2637
  839MOL0     H13214   5.187   4.360  10.261  2.2371 -0.1671  2.0163
  839MOL0     H13215   5.361   4.362  10.213  0.8251 -1.3709 -0.9941
  839MOL0     H13216   5.087   4.206  10.002  0.5111  3.3806  1.7700
  839MOL0     H13217   5.154   3.831   9.978 -1.4874 -0.1800 -1.8070
  839MOL0     H13218   5.006   3.925   9.990 -0.2455  1.7430 -0.5221
  839MOL0     H13219   5.076   4.064   9.787 -0.5346 -0.6657  1.7317
  839MOL0     H13220   5.105   3.893   9.761  1.0894 -0.5244  0.7645
  839MOL0     H13221   5.335   3.906   9.801  2.3942  0.1149 -0.7646
  839MOL0     H13222   5.326   4.080   9.841 -2.1966  0.8462  0.2613
  839MOL0     H13223   5.229   4.128   9.619 -0.1356 -1.2541 -1.2477
  839MOL0     H13224   5.249   3.959   9.576  2.3914  0.0452 -1.1339
  839MOL0     H13225   5.648   4.114   9.554 -1.1072  1.1035  1.6378
  839MOL0     H13226   5.825   4.295   9.308 -0.4349  1.5175  2.4815
  839MOL0     H13227   5.845   4.155   9.424 -0.3071  1.6176  0.6761
  839MOL0     H13228   5.809   4.135   9.253 -1.6041  0.9266 -1.0821
  839MOL0     H13229   5.748   4.165   8.859  1.1194 -0.1955  0.9563
  839MOL0     H13230   5.823   4.282   8.640 -0.3342 -2.5803  0.5866
  839MOL0     H13231   5.866   4.729   8.617 -0.9637  0.0249  1.2694
  839MOL0     H13232   6.023   4.689   8.694  1.0179 -1.6762 -0.6376
  839MOL0     H13233   6.036   4.789   8.489 -0.2708 -0.4445 -1.0113
  839MOL0     H13234   6.120   4.630   8.486  1.3678  1.6669 -1.2028
  839MOL0     H13235   5.837   4.663   8.379 -1.1126 -2.0833  1.2997
  839MOL0     H13236   5.945   4.538   8.355  0.2698 -0.3310 -1.3167
  839MOL0     H13237   6.026   4.821   8.284 -0.0707 -1.7090  2.1426
  839MOL0     H13238   6.103   4.676   8.231  0.3040 -0.4623  1.6111
  839MOL0     H13239   5.854   4.642   8.114  0.8855 -0.3811 -1.4316
  839MOL0     H13240   5.975   4.727   8.031 -1.5032 -1.3206 -1.2127
  839MOL0     H13241   5.782   4.876   8.200 -0.5387  0.3378 -0.0633
  839MOL0     H13242   5.902   4.951   8.101  0.7145 -0.4812  1.7062
  839MOL0     H13243   5.788   4.817   7.908  0.2815  0.1758 -0.7479
  839MOL0     H13244   5.707   4.961   7.970  0.4316 -0.4529  0.1102
  839MOL0     H13245   5.547   4.824   8.098 -0.2242  2.3325 -1.5447
  839MOL0     H13246   5.638   4.667   8.033  1.7440  0.3759  0.6364
  839MOL0     H13247   5.842   4.662   8.856  0.9284 -0.0117 -0.9825
  839MOL0     H13248   5.756   4.544   9.051 -1.5747 -0.1917 -0.6067
  839MOL0     H13249   5.318   4.267   9.231 -0.5592  0.2655  0.0290
  839MOL0     H13250   5.252   4.186   9.415 -1.0272  0.4164 -2.7794
  839MOL0     H13251   5.254   4.580   9.129  2.2908 -0.5061 -0.9984
  839MOL0     H13252   5.173   4.724   8.943  1.1148  0.5303 -1.7595
  839MOL0     H13253   5.133   4.942   8.638 -2.0363 -0.0671  1.6900
  839MOL0     H13254   5.015   5.030   8.456 -1.2406  0.3866 -0.0230
  839MOL0     H13255   5.110   5.114   8.239  0.6936  1.4288 -0.2407
  839MOL0     H13256   4.935   5.140   8.281  2.0795 -2.9483  2.8694
  839MOL0     H13257   4.963   5.217   8.042  0.1836 -0.1043 -0.5870
  839MOL0     H13258   5.107   5.307   8.089  0.0767 -1.0526 -1.3577
  839MOL0     H13259   4.974   5.465   8.202  0.4097  0.7697 -2.4277
  839MOL0     H13260   4.834   5.370   8.223  1.0500 -0.0282  1.8040
  839MOL0     H13261   4.799   5.539   8.036  2.3806  2.6455 -0.6983
  839MOL0     H13262   4.797   5.378   7.956  0.4529 -0.2621 -0.6886
  839MOL0     H13263   5.132   5.540   7.777 -1.2736  1.9929 -0.1642
  839MOL0     H13264   5.154   5.427   8.542  0.7150  0.3137 -0.6234
  839MOL0     H13265   5.233   5.351   8.762 -2.6160  1.6558  0.4071
  840MOL0     O13266   6.496   2.661   3.116  1.0275  0.3932  0.8619
  840MOL0     C13267   6.404   2.702   3.189 -0.6933  0.1136  0.3129
  840MOL0     O13268   6.390   2.820   3.246  0.2550  1.1587 -0.1584
  840MOL0     C13269   6.483   2.912   3.238 -0.7973 -0.1671 -0.1017
  840MOL0     C13270   6.511   2.974   3.354  0.2448  0.0176 -1.2674
  840MOL0     C13271   6.607   3.078   3.354  0.2122  0.5922 -0.0177
  840MOL0     C13272   6.663   3.122   3.233 -0.3190 -0.7351  0.2441
  840MOL0     O13273   6.751   3.226   3.237  0.3249 -0.1091  0.6661
  840MOL0     C13274   6.708   3.350   3.175  0.9671  0.2296  0.0345
  840MOL0     C13275   6.616   3.428   3.264  0.5419  0.6482 -0.7653
  840MOL0     C13276   6.590   3.564   3.216 -0.9815  0.1962  0.3785
  840MOL0     C13277   6.521   3.659   3.329  0.1908 -0.3980  0.3592
  840MOL0     C13278   6.472   3.799   3.278 -0.0156  0.5263  0.2466
  840MOL0     C13279   6.398   3.893   3.372  0.2678  0.5533  0.6094
  840MOL0     C13280   6.454   3.905   3.512  0.5325 -0.3558  0.5872
  840MOL0     C13281   6.587   3.986   3.513  1.1161 -0.3384 -0.2865
  840MOL0     N13282   6.566   4.122   3.457 -0.1291  0.0476  0.2942
  840MOL0     C13283   6.591   4.161   3.326 -0.2965 -0.9306 -0.0700
  840MOL0     C13284   6.539   4.285   3.311 -0.8383 -0.3548 -0.1338
  840MOL0     C13285   6.552   4.375   3.199  0.1840  0.0617  0.6169
  840MOL0     C13286   6.677   4.457   3.164 -0.1266  0.5654  0.3209
  840MOL0     C13287   6.774   4.490   3.284  0.7717  0.0166 -0.4744
  840MOL0     C13288   6.904   4.545   3.229  0.2979  0.2251  1.7428
  840MOL0     O13289   6.977   4.449   3.149 -0.0308 -0.3255 -0.5196
  840MOL0     C13290   7.078   4.495   3.075 -0.4497  1.3386 -0.3235
  840MOL0     C13291   7.146   4.394   3.002  0.6825 -0.0477  0.2637
  840MOL0     C13292   7.260   4.432   2.920 -0.3692 -0.9251  0.3350
  840MOL0     C13293   7.340   4.331   2.843 -0.3702  0.2597  0.5935
  840MOL0     C13294   7.306   4.568   2.925  1.1011 -0.7901 -0.4459
  840MOL0     C13295   7.440   4.600   2.871  0.4707  0.9532 -0.1901
  840MOL0     O13296   7.438   4.710   2.789  0.0042  0.0216  0.2970
  840MOL0     C13297   7.518   4.819   2.812  0.1569 -0.6612 -0.6190
  840MOL0     C13298   7.579   4.839   2.936 -0.4791 -0.6579  0.6030
  840MOL0     C13299   7.635   4.965   2.966 -0.8296 -0.0975 -0.2084
  840MOL0     C13300   7.629   5.070   2.865 -0.1982  0.1959  0.1713
  840MOL0     O13301   7.673   5.195   2.899 -0.4257 -0.4959  0.4834
  840MOL0     C13302   7.826   5.211   2.902  0.7629  1.0673  0.0734
  840MOL0     C13303   7.868   5.347   2.975 -0.2349 -0.1650 -0.4415
  840MOL0     C13304   8.012   5.394   2.929  0.3781 -0.4438  0.7457
  840MOL0     C13305   8.047   5.502   3.035 -0.3207  0.7582  0.3234
  840MOL0     C13306   8.181   5.561   2.990 -0.2188  0.0778 -0.7617
  840MOL0     C13307   8.211   5.697   3.047 -0.3259  0.4824 -0.6108
  840MOL0     C13308   8.304   5.691   3.170 -0.0794 -0.2755  0.4711
  840MOL0     C13309   8.373   5.820   3.210  0.1139 -0.2820 -1.2196
  840MOL0    Cl13310   8.260   5.957   3.220  0.2341 -0.3461 -0.4622
  840MOL0     C13311   7.581   5.041   2.738  0.3663 -0.3699  0.1199
  840MOL0     C13312   7.520   4.919   2.725  0.2935  0.5095 -0.3965
  840MOL0     O13313   7.538   4.545   2.912 -0.1051 -0.0600  0.1098
  840MOL0     C13314   7.235   4.665   2.992 -0.1929 -0.7674  0.2844
  840MOL0     C13315   7.116   4.631   3.057  0.3321 -0.3066 -0.2460
  840MOL0     N13316   6.494   4.326   3.438 -0.0242 -0.1843  0.2883
  840MOL0     N13317   6.492   4.220   3.516 -0.5561 -0.4945  0.1455
  840MOL0     C13318   6.632   3.061   3.115  0.4451  0.8469  0.3734
  840MOL0     C13319   6.539   2.960   3.114  0.0929  0.7383  0.2304
  840MOL0     C13320   6.305   2.601   3.213 -0.8732 -0.3381 -0.4737
  840MOL0     C13321   6.197   2.635   3.299  0.0637 -0.0638  0.0614
  840MOL0     C13322   6.092   2.549   3.322 -0.1321  0.6166 -0.2189
  840MOL0     C13323   6.095   2.421   3.247  0.2921 -0.6246 -0.3294
  840MOL0     O13324   5.991   2.343   3.280 -0.1361 -0.1119 -0.2717
  840MOL0     C13325   5.949   2.243   3.181 -0.0851  1.2235 -0.4752
  840MOL0     C13326   5.995   2.108   3.208 -0.6384 -0.2307  0.4834
  840MOL0     C13327   5.933   2.001   3.113  0.0824  0.2525  0.3584
  840MOL0     C13328   6.004   1.858   3.094 -0.9107 -0.0628  0.8523
  840MOL0     C13329   6.071   1.821   3.220  0.5283  0.0054  0.9259
  840MOL0     C13330   6.112   1.801   3.332 -0.4360  0.5220  0.5740
  840MOL0     C13331   6.198   2.388   3.164 -0.1908 -0.5236  0.5886
  840MOL0     C13332   6.303   2.476   3.156 -0.5275  0.3568 -0.4338
  840MOL0     H13333   6.465   2.928   3.441  2.0776 -1.7489 -1.1538
  840MOL0     H13334   6.641   3.135   3.439 -0.3670  1.5239 -0.3880
  840MOL0     H13335   6.792   3.407   3.134  0.2333 -0.1014 -2.0265
  840MOL0     H13336   6.656   3.316   3.085  0.9137 -0.2203  0.2311
  840MOL0     H13337   6.529   3.372   3.299 -0.7073  3.6789  1.4448
  840MOL0     H13338   6.668   3.444   3.359  0.2356  0.9192 -0.6399
  840MOL0     H13339   6.684   3.604   3.176 -1.6594  1.9058  0.4176
  840MOL0     H13340   6.517   3.559   3.136  1.1091 -1.4964 -1.5575
  840MOL0     H13341   6.430   3.615   3.371 -0.6080 -0.6198 -1.4847
  840MOL0     H13342   6.586   3.675   3.415 -1.6718  0.6608  1.6289
  840MOL0     H13343   6.561   3.847   3.236  0.8571 -2.5394 -1.7517
  840MOL0     H13344   6.406   3.782   3.192  0.8814  4.2155 -1.3664
  840MOL0     H13345   6.384   3.989   3.322 -0.2322  1.8218  3.0495
  840MOL0     H13346   6.300   3.844   3.377 -0.9658  2.6970 -1.0181
  840MOL0     H13347   6.388   3.964   3.577 -1.5944 -0.7592 -1.0889
  840MOL0     H13348   6.471   3.812   3.566 -1.1953 -0.0167  1.8030
  840MOL0     H13349   6.665   3.923   3.469 -0.8814 -1.8183 -1.8963
  840MOL0     H13350   6.618   4.011   3.615 -2.6020  0.0117  0.9005
  840MOL0     H13351   6.646   4.104   3.251 -0.3592  0.5944 -1.3185
  840MOL0     H13352   6.522   4.308   3.117 -1.8241 -0.2102  1.5054
  840MOL0     H13353   6.461   4.436   3.206  0.7107  0.9378  0.0475
  840MOL0     H13354   6.657   4.551   3.112  0.0951  1.2283  1.3832
  840MOL0     H13355   6.741   4.391   3.105 -0.3754 -0.0898  0.7633
  840MOL0     H13356   6.779   4.412   3.361 -2.1798  1.1095  1.0028
  840MOL0     H13357   6.728   4.566   3.348  0.9508  0.0909 -0.4327
  840MOL0     H13358   6.973   4.579   3.307  0.3388 -1.7118  2.6165
  840MOL0     H13359   6.879   4.627   3.162  0.8003  0.0060  1.2829
  840MOL0     H13360   7.097   4.297   3.005 -2.3566  1.3896  0.6132
  840MOL0     H13361   7.364   4.364   2.742 -1.4776  1.9997  0.8607
  840MOL0     H13362   7.431   4.317   2.902 -2.6063  0.6387  4.5403
  840MOL0     H13363   7.288   4.234   2.835 -0.6378  0.3971  0.6599
  840MOL0     H13364   7.583   4.757   3.007 -2.0805 -2.5861 -1.3801
  840MOL0     H13365   7.661   4.987   3.069 -0.2534 -1.6765  0.0014
  840MOL0     H13366   7.883   5.128   2.946 -0.9570 -0.1088  0.1552
  840MOL0     H13367   7.867   5.214   2.801  2.0807  2.2101  0.6008
  840MOL0     H13368   7.794   5.423   2.950  0.8233  0.9457 -0.3105
  840MOL0     H13369   7.869   5.341   3.084 -1.6723  0.4275 -0.3794
  840MOL0     H13370   8.003   5.426   2.824 -2.3871 -0.6315  0.8511
  840MOL0     H13371   8.074   5.303   2.932  0.4295 -0.7116 -3.0686
  840MOL0     H13372   7.970   5.578   3.051  1.0937  2.1075  0.9322
  840MOL0     H13373   8.057   5.449   3.130 -0.9224 -0.7207 -0.3874
  840MOL0     H13374   8.177   5.570   2.881 -0.1710  0.9254 -0.6959
  840MOL0     H13375   8.251   5.478   3.003  1.7744  1.2815 -3.0477
  840MOL0     H13376   8.266   5.758   2.975  0.1185  2.6105  1.4283
  840MOL0     H13377   8.121   5.747   3.082 -0.9572 -0.9390 -0.1199
  840MOL0     H13378   8.375   5.610   3.151  0.4236  0.5709 -1.5172
  840MOL0     H13379   8.242   5.672   3.258 -2.1238  0.0368 -0.8263
  840MOL0     H13380   8.451   5.841   3.137 -0.2402  0.6330 -1.3512
  840MOL0     H13381   8.416   5.799   3.309 -2.1344 -5.0436 -0.9343
  840MOL0     H13382   7.572   5.122   2.667  1.7655  0.5154  0.8918
  840MOL0     H13383   7.456   4.915   2.637  1.8206 -0.3193 -1.5198
  840MOL0     H13384   7.274   4.765   2.976 -0.5375 -1.1400 -4.3858
  840MOL0     H13385   7.055   4.711   3.098  3.0250  0.8700  1.7486
  840MOL0     H13386   6.668   3.092   3.018  0.1678 -1.3643 -0.4883
  840MOL0     H13387   6.512   2.913   3.020  0.0474  3.2612 -1.1025
  840MOL0     H13388   6.184   2.725   3.358 -1.1134 -1.3513  1.8768
  840MOL0     H13389   6.005   2.584   3.377 -0.9258  2.8274 -2.7019
  840MOL0     H13390   5.841   2.231   3.192 -0.0267  0.0555 -1.0209
  840MOL0     H13391   5.976   2.271   3.079  1.5776 -0.3805 -0.5456
  840MOL0     H13392   5.987   2.071   3.311  3.9869  1.7672  1.8149
  840MOL0     H13393   6.102   2.109   3.187 -0.5451 -0.6675  0.9196
  840MOL0     H13394   5.900   2.043   3.018 -2.2231  1.6538  1.6611
  840MOL0     H13395   5.843   1.971   3.169 -1.1732  3.9114  0.5925
  840MOL0     H13396   6.087   1.882   3.027  0.7808  1.9225  3.4556
  840MOL0     H13397   5.946   1.775   3.053 -0.1291 -1.6877  2.8825
  840MOL0     H13398   6.128   1.777   3.436 -1.7317  1.0538  0.9153
  840MOL0     H13399   6.192   2.298   3.104 -0.9843  0.5659 -1.0614
  840MOL0     H13400   6.387   2.449   3.093  1.3166  1.4768  1.4192
  841MOL0     O13401   3.931   4.559   0.767 -0.1765  0.3101 -0.1315
  841MOL0     C13402   3.919   4.476   0.856  0.3852 -0.0906 -0.4987
  841MOL0     O13403   3.980   4.356   0.861 -0.2173  0.1551  0.0508
  841MOL0     C13404   4.039   4.305   0.749  0.7256 -0.0390 -0.5018
  841MOL0     C13405   3.971   4.298   0.629  0.3237  0.4093  0.8189
  841MOL0     C13406   4.038   4.249   0.513  0.0385  0.8242 -0.3056
  841MOL0     C13407   4.166   4.206   0.520 -1.6060 -0.1569  0.6403
  841MOL0     O13408   4.224   4.160   0.402  1.1974  0.2490  0.1302
  841MOL0     C13409   4.346   4.103   0.412  0.2867  0.4073 -0.4074
  841MOL0     C13410   4.393   4.038   0.281  0.3545  0.0612 -0.3155
  841MOL0     C13411   4.538   3.996   0.278  0.5987  0.2455 -0.4713
  841MOL0     C13412   4.586   3.949   0.139 -0.4102  0.4125  0.0677
  841MOL0     C13413   4.733   3.918   0.132 -0.6483  0.0748 -0.0404
  841MOL0     C13414   4.773   3.799   0.217  0.3121 -1.0141  0.4641
  841MOL0     C13415   4.888   3.715   0.163  0.4207 -0.8321  0.1026
  841MOL0     C13416   4.936   3.613   0.270  1.2400  1.2303  0.4199
  841MOL0     N13417   4.835   3.509   0.299 -0.0940  0.3989 -0.6694
  841MOL0     C13418   4.756   3.521   0.409  0.6818  0.1920 -0.1029
  841MOL0     C13419   4.685   3.406   0.408 -0.1738  0.8008  0.3071
  841MOL0     C13420   4.579   3.365   0.492  0.9783  0.6544 -0.4484
  841MOL0     C13421   4.443   3.420   0.443  0.1030 -0.9599 -0.8950
  841MOL0     C13422   4.313   3.369   0.506 -0.3084 -0.3525  0.9663
  841MOL0     C13423   4.283   3.402   0.655 -0.2140 -0.5150 -0.3933
  841MOL0     O13424   4.271   3.541   0.682  0.3637 -0.0910 -0.3008
  841MOL0     C13425   4.245   3.579   0.815 -0.5773  1.2141 -0.7921
  841MOL0     C13426   4.220   3.708   0.846 -1.0984  0.3857  0.4885
  841MOL0     C13427   4.185   3.755   0.971 -0.7222 -1.2214 -0.7219
  841MOL0     C13428   4.171   3.899   0.987  0.6031  0.2602  0.6890
  841MOL0     C13429   4.168   3.671   1.083  0.4788 -1.1230  0.8351
  841MOL0     C13430   4.105   3.711   1.217  0.0586  0.7260 -0.3430
  841MOL0     O13431   4.042   3.602   1.283 -0.0431 -0.0024  0.0739
  841MOL0     C13432   3.959   3.631   1.388  1.2851 -0.5214  0.5141
  841MOL0     C13433   4.016   3.617   1.507 -0.4407 -0.9811  0.0891
  841MOL0     C13434   3.947   3.642   1.629 -0.3250  1.5011 -0.1084
  841MOL0     C13435   3.816   3.680   1.621  1.2949  0.4469 -0.0575
  841MOL0     O13436   3.741   3.679   1.732  0.4778 -0.4845 -0.6335
  841MOL0     C13437   3.756   3.787   1.824 -0.5153 -0.0786  0.3533
  841MOL0     C13438   3.740   3.921   1.756 -0.8118  0.6163  0.3570
  841MOL0     C13439   3.768   4.027   1.860 -0.2029  0.3218  0.4753
  841MOL0     C13440   3.712   4.165   1.813  0.2235 -0.6976 -0.5312
  841MOL0     C13441   3.681   4.269   1.926 -0.0632 -0.5210 -0.2454
  841MOL0     C13442   3.687   4.411   1.871 -0.4665  0.3963  0.6929
  841MOL0     C13443   3.618   4.520   1.950  0.7133  0.4273  0.4220
  841MOL0     C13444   3.697   4.562   2.071  0.0237 -0.1700  0.3724
  841MOL0    Cl13445   3.677   4.458   2.205  0.4070  0.2079 -0.3237
  841MOL0     C13446   3.752   3.698   1.500 -0.1799 -0.8656 -1.1170
  841MOL0     C13447   3.825   3.676   1.385 -1.0136 -0.1243 -1.4086
  841MOL0     O13448   4.103   3.826   1.259 -0.0514  0.8399 -0.3630
  841MOL0     C13449   4.192   3.537   1.052  0.8544 -0.2997  0.0050
  841MOL0     C13450   4.220   3.490   0.925  0.6284  0.3568 -0.6399
  841MOL0     N13451   4.733   3.323   0.309  0.0528  0.0767 -0.3655
  841MOL0     N13452   4.825   3.383   0.244 -0.2186  0.5854  0.3244
  841MOL0     C13453   4.235   4.217   0.641  0.5891 -0.3846 -0.8523
  841MOL0     C13454   4.169   4.264   0.758 -0.3957 -0.9216  0.2396
  841MOL0     C13455   3.860   4.527   0.976 -1.0621 -0.9165  0.3161
  841MOL0     C13456   3.778   4.432   1.048 -0.5895 -0.2536 -0.4722
  841MOL0     C13457   3.714   4.485   1.164 -0.5669 -0.6677  0.5466
  841MOL0     C13458   3.701   4.622   1.188  0.2829 -0.6072 -0.1608
  841MOL0     O13459   3.628   4.670   1.295 -0.2977  0.2021  0.5075
  841MOL0     C13460   3.661   4.793   1.361  0.4702 -0.4972  0.0154
  841MOL0     C13461   3.804   4.798   1.428 -0.3316  0.2909 -0.2275
  841MOL0     C13462   3.845   4.696   1.519  0.0404 -0.1708  0.0543
  841MOL0     C13463   3.773   4.700   1.657  0.7920 -0.1976 -0.2829
  841MOL0     C13464   3.800   4.818   1.741  0.4119 -0.8374 -0.2994
  841MOL0     C13465   3.800   4.909   1.831  1.2797 -0.4023  1.0966
  841MOL0     C13466   3.774   4.712   1.105 -0.3496  0.1720 -0.3549
  841MOL0     C13467   3.861   4.659   1.005  0.0907  0.3438  0.0611
  841MOL0     H13468   3.866   4.322   0.615 -0.1636 -1.2019  1.4276
  841MOL0     H13469   3.985   4.243   0.419 -2.4388  3.9328  0.7400
  841MOL0     H13470   4.418   4.183   0.429  2.9821 -1.4774 -2.0679
  841MOL0     H13471   4.351   4.025   0.488  0.3119  0.8107  0.0079
  841MOL0     H13472   4.325   3.955   0.260  1.4466 -0.6527 -1.1744
  841MOL0     H13473   4.374   4.111   0.202  1.0686 -0.3153 -0.8429
  841MOL0     H13474   4.600   4.072   0.326 -0.9453  0.9799  0.4387
  841MOL0     H13475   4.550   3.909   0.343  0.1063  0.1815 -0.4599
  841MOL0     H13476   4.530   3.862   0.104 -0.0803 -0.0484  0.6557
  841MOL0     H13477   4.564   4.033   0.072  0.9355  1.0591  0.3946
  841MOL0     H13478   4.758   3.909   0.025  2.8324 -1.1216  0.7259
  841MOL0     H13479   4.794   4.002   0.164  1.6869 -0.7901 -1.8641
  841MOL0     H13480   4.801   3.834   0.316 -1.4810  0.0600  0.6327
  841MOL0     H13481   4.683   3.737   0.225 -0.4016  0.0549  0.9694
  841MOL0     H13482   4.844   3.666   0.076 -1.1191 -1.4477  1.1769
  841MOL0     H13483   4.978   3.773   0.141 -1.3204  2.3704  0.8191
  841MOL0     H13484   4.976   3.661   0.360  0.9587  1.7595  0.2666
  841MOL0     H13485   5.022   3.562   0.224  0.5036  2.7214 -2.9446
  841MOL0     H13486   4.740   3.608   0.473 -0.8105  0.2774 -0.5368
  841MOL0     H13487   4.589   3.257   0.509  3.7570  1.2205  2.5109
  841MOL0     H13488   4.594   3.391   0.597 -1.2579 -3.0090  0.9979
  841MOL0     H13489   4.426   3.394   0.338  1.0677 -2.2943 -0.7605
  841MOL0     H13490   4.443   3.529   0.446 -3.5863 -0.8440 -0.4130
  841MOL0     H13491   4.332   3.261   0.497 -1.5656 -0.3941 -2.8029
  841MOL0     H13492   4.225   3.408   0.455  0.6742  1.0186  0.2734
  841MOL0     H13493   4.350   3.349   0.724 -1.0427 -0.0867  0.7810
  841MOL0     H13494   4.183   3.362   0.670 -0.2995  0.1231  0.8678
  841MOL0     H13495   4.241   3.770   0.760 -0.1182 -1.8716 -0.9978
  841MOL0     H13496   4.177   3.954   0.893 -0.9019  0.8279  0.9052
  841MOL0     H13497   4.074   3.922   1.032  0.1736  0.6098 -0.4030
  841MOL0     H13498   4.257   3.939   1.042  1.7772 -1.3910  0.1316
  841MOL0     H13499   4.118   3.579   1.511 -0.0635 -0.1272 -0.9901
  841MOL0     H13500   3.994   3.625   1.726 -0.9021  1.4779  0.1722
  841MOL0     H13501   3.681   3.774   1.903 -3.5722 -0.9660 -2.4697
  841MOL0     H13502   3.855   3.782   1.870  0.1045 -0.6211 -1.0001
  841MOL0     H13503   3.816   3.929   1.678 -0.8092  0.6766  0.3658
  841MOL0     H13504   3.644   3.926   1.704 -0.1622 -1.0808 -1.1098
  841MOL0     H13505   3.874   4.033   1.885  0.1085  1.1208 -0.9401
  841MOL0     H13506   3.717   3.993   1.951 -2.6262  0.9002 -0.5855
  841MOL0     H13507   3.783   4.202   1.738  3.3280 -3.0049  1.0894
  841MOL0     H13508   3.614   4.149   1.767 -0.1465 -2.2382  0.7187
  841MOL0     H13509   3.754   4.266   2.008  0.7267  0.1262 -0.9051
  841MOL0     H13510   3.583   4.246   1.969 -0.0838  0.1464  0.0667
  841MOL0     H13511   3.794   4.436   1.864 -0.2591 -0.8257 -1.1090
  841MOL0     H13512   3.643   4.416   1.771  3.7856  0.0048 -1.4234
  841MOL0     H13513   3.514   4.496   1.972  0.4001  2.7914  1.8694
  841MOL0     H13514   3.614   4.618   1.901 -0.0159  0.4791  0.5730
  841MOL0     H13515   3.661   4.659   2.108 -2.0151  0.1980 -2.2886
  841MOL0     H13516   3.805   4.562   2.056  0.2196 -1.7372  1.5586
  841MOL0     H13517   3.650   3.736   1.502 -0.2082 -0.7341 -2.8371
  841MOL0     H13518   3.791   3.691   1.283 -2.9553  1.9033 -0.5544
  841MOL0     H13519   4.171   3.465   1.130 -2.9503  0.6187  0.0201
  841MOL0     H13520   4.226   3.382   0.913 -3.5079 -0.5989  3.2676
  841MOL0     H13521   4.343   4.208   0.638  0.5461 -0.7504 -1.3864
  841MOL0     H13522   4.217   4.257   0.856 -3.7722  1.1813  2.2477
  841MOL0     H13523   3.786   4.324   1.043  3.4801 -0.1193 -0.7722
  841MOL0     H13524   3.647   4.425   1.225 -3.9809 -3.0190 -4.7927
  841MOL0     H13525   3.644   4.876   1.291 -1.1260 -1.1493 -0.4207
  841MOL0     H13526   3.581   4.816   1.432 -0.2132 -0.5261 -0.7229
  841MOL0     H13527   3.815   4.896   1.474  0.8678 -0.0604  0.2698
  841MOL0     H13528   3.879   4.795   1.349  0.3487 -0.5477  0.4354
  841MOL0     H13529   3.945   4.728   1.551 -0.8272  2.0486  0.6747
  841MOL0     H13530   3.845   4.596   1.474 -2.8235  0.0006 -0.4998
  841MOL0     H13531   3.811   4.617   1.716  1.9227 -0.1752 -0.9538
  841MOL0     H13532   3.664   4.694   1.657  0.8146 -1.1193  1.4641
  841MOL0     H13533   3.772   4.989   1.896  2.7530 -0.1795  1.4919
  841MOL0     H13534   3.770   4.821   1.099  0.7387  0.1734 -1.7343
  841MOL0     H13535   3.915   4.722   0.935  0.5514  1.4330  1.3608
  842MOL0     O13536   0.429   8.623   1.955  0.0053  0.2846  0.1572
  842MOL0     C13537   0.405   8.578   1.841 -0.5432  0.2884 -1.0596
  842MOL0     O13538   0.487   8.504   1.766  0.1495 -0.3699  0.2502
  842MOL0     C13539   0.623   8.498   1.793 -0.7492  0.5856 -0.3492
  842MOL0     C13540   0.696   8.595   1.862 -0.8432  1.2575  0.0851
  842MOL0     C13541   0.827   8.576   1.885 -0.2813  0.8929  0.0516
  842MOL0     C13542   0.909   8.479   1.817 -0.3044 -0.4997  0.8810
  842MOL0     O13543   1.041   8.477   1.849  0.2385  0.4782 -0.0353
  842MOL0     C13544   1.123   8.417   1.757 -1.7165  1.0391  0.5719
  842MOL0     C13545   1.182   8.280   1.806 -0.6598 -0.1538  0.2003
  842MOL0     C13546   1.265   8.286   1.935  1.1886 -0.2323  0.2163
  842MOL0     C13547   1.306   8.142   1.963  0.2852 -0.3161  0.8527
  842MOL0     C13548   1.401   8.120   2.074 -0.0213 -0.2509 -0.1117
  842MOL0     C13549   1.342   8.161   2.214 -0.6676  0.0727 -1.4818
  842MOL0     C13550   1.445   8.177   2.329  0.9212 -0.4285 -0.2454
  842MOL0     C13551   1.539   8.056   2.356 -0.9532 -0.4758 -0.8196
  842MOL0     N13552   1.468   7.947   2.417 -0.0231 -0.2350  0.4493
  842MOL0     C13553   1.479   7.901   2.550 -0.4870 -0.6084  0.0212
  842MOL0     C13554   1.391   7.802   2.556  0.2830  0.2004 -0.2140
  842MOL0     C13555   1.388   7.704   2.678 -0.1241 -0.2047  0.2166
  842MOL0     C13556   1.348   7.794   2.802 -0.0530  0.3887  0.1373
  842MOL0     C13557   1.379   7.713   2.922 -0.0178  1.6369  0.7831
  842MOL0     C13558   1.358   7.781   3.047 -0.3046 -0.1789 -0.7336
  842MOL0     O13559   1.381   7.701   3.170  0.4714 -1.1550 -0.9635
  842MOL0     C13560   1.412   7.780   3.281  0.0615  0.1772 -0.7075
  842MOL0     C13561   1.469   7.701   3.384  0.3973 -0.0779  0.7588
  842MOL0     C13562   1.505   7.765   3.500 -0.1343  0.1217 -0.3990
  842MOL0     C13563   1.593   7.675   3.587  0.8054  0.3183 -0.5448
  842MOL0     C13564   1.479   7.904   3.525  0.7168  0.2910  0.7956
  842MOL0     C13565   1.499   7.968   3.657  0.0820 -0.0056  0.1225
  842MOL0     O13566   1.523   8.104   3.648  0.2711  0.0416 -0.0067
  842MOL0     C13567   1.589   8.164   3.752 -1.6254 -0.5848  0.1628
  842MOL0     C13568   1.659   8.102   3.857  1.6204 -0.7113  0.7481
  842MOL0     C13569   1.737   8.179   3.951 -0.5203  0.1654 -0.1109
  842MOL0     C13570   1.739   8.318   3.931  0.9283 -0.5279  0.0175
  842MOL0     O13571   1.819   8.403   4.008 -0.0604  0.2502  0.1026
  842MOL0     C13572   1.754   8.469   4.118 -0.2998 -0.3834 -0.2286
  842MOL0     C13573   1.819   8.441   4.251  0.6706  1.5940  0.4143
  842MOL0     C13574   1.956   8.511   4.254  0.0067  0.7147  0.2866
  842MOL0     C13575   2.032   8.459   4.375  0.2481  0.2202  0.0543
  842MOL0     C13576   2.151   8.559   4.402 -0.1229 -0.0522  0.7190
  842MOL0     C13577   2.230   8.518   4.524  0.1665  0.2484 -0.3460
  842MOL0     C13578   2.145   8.553   4.650 -0.4983  1.0976  0.2876
  842MOL0     C13579   2.193   8.468   4.770  1.0467 -0.2920 -0.3192
  842MOL0    Cl13580   2.190   8.287   4.725  0.0392  0.0035 -0.8071
  842MOL0     C13581   1.659   8.374   3.824  0.0995  0.0853 -0.0055
  842MOL0     C13582   1.586   8.302   3.740 -0.4870  0.8907  0.0030
  842MOL0     O13583   1.472   7.906   3.766 -0.6450  0.0374 -0.0042
  842MOL0     C13584   1.441   7.982   3.416  0.3721 -0.7559 -0.9570
  842MOL0     C13585   1.401   7.921   3.300  1.0506  0.6218  0.3880
  842MOL0     N13586   1.310   7.784   2.442  0.3519  0.2617  0.5051
  842MOL0     N13587   1.362   7.878   2.369 -0.0140 -0.3844 -0.0869
  842MOL0     C13588   0.844   8.400   1.731  0.4514 -0.7119 -0.1818
  842MOL0     C13589   0.697   8.403   1.716  0.2667  0.0917 -1.1198
  842MOL0     C13590   0.272   8.605   1.781 -0.1912  0.9591  0.0879
  842MOL0     C13591   0.226   8.536   1.662  0.0732 -0.2965  1.2197
  842MOL0     C13592   0.102   8.567   1.609  0.6535 -0.8614  0.4996
  842MOL0     C13593   0.027   8.678   1.643  0.0453  1.9945 -0.1790
  842MOL0     O13594  -0.084   8.720   1.575 -0.6898  0.4163  0.1076
  842MOL0     C13595  -0.165   8.630   1.497  0.3478 -0.0277 -0.2807
  842MOL0     C13596  -0.272   8.561   1.588  0.1500 -0.5388  0.4157
  842MOL0     C13597  -0.402   8.644   1.608  0.5849  1.2762  0.0759
  842MOL0     C13598  -0.433   8.637   1.756 -0.7820  0.4336  0.0918
  842MOL0     C13599  -0.549   8.726   1.769 -0.7148 -0.6312 -0.1748
  842MOL0     C13600  -0.644   8.792   1.793  0.0566  0.1244 -0.4048
  842MOL0     C13601   0.069   8.753   1.757 -0.7603 -0.0137 -0.3602
  842MOL0     C13602   0.189   8.710   1.827 -0.6910  0.0566 -0.3378
  842MOL0     H13603   0.644   8.676   1.913 -1.3819 -0.9861  3.3812
  842MOL0     H13604   0.873   8.614   1.976  3.8873 -0.0612 -1.4712
  842MOL0     H13605   1.078   8.403   1.658  0.0909  1.1495 -0.2931
  842MOL0     H13606   1.199   8.494   1.745  0.2087 -0.5569  1.8697
  842MOL0     H13607   1.095   8.214   1.804  0.0467 -1.1984 -3.1190
  842MOL0     H13608   1.240   8.234   1.726  3.0430  2.1919  1.2921
  842MOL0     H13609   1.351   8.352   1.928  1.1926 -0.0506  1.6753
  842MOL0     H13610   1.205   8.329   2.017  4.3868  0.2793  2.4634
  842MOL0     H13611   1.217   8.090   1.996 -1.9821  4.2225  2.7592
  842MOL0     H13612   1.352   8.109   1.869  0.4027  1.5293  0.2215
  842MOL0     H13613   1.405   8.011   2.062 -0.1979 -0.0842 -1.9667
  842MOL0     H13614   1.501   8.155   2.051  0.4858  0.0633  2.3007
  842MOL0     H13615   1.284   8.254   2.205 -0.7784  0.4801  2.1748
  842MOL0     H13616   1.271   8.084   2.246  1.3157 -1.0476  0.4220
  842MOL0     H13617   1.491   8.274   2.308  0.2779  0.3006  1.5210
  842MOL0     H13618   1.390   8.198   2.422  0.1202  0.3671 -0.8710
  842MOL0     H13619   1.618   8.087   2.426 -1.3311  2.1439 -1.4383
  842MOL0     H13620   1.594   8.031   2.265  0.0275 -0.8450 -0.1424
  842MOL0     H13621   1.545   7.925   2.633 -2.1505  3.0826  0.5224
  842MOL0     H13622   1.311   7.629   2.655  1.7056 -1.6802 -1.4018
  842MOL0     H13623   1.486   7.660   2.695  0.8882  0.7410 -2.5070
  842MOL0     H13624   1.242   7.819   2.798  0.4826  2.9962  0.2733
  842MOL0     H13625   1.396   7.892   2.807 -0.2096  0.4154  3.4600
  842MOL0     H13626   1.483   7.680   2.918  0.4383  2.9471  1.3150
  842MOL0     H13627   1.306   7.632   2.913  0.9763  0.5644  1.9045
  842MOL0     H13628   1.257   7.823   3.056 -0.4586 -0.9776  2.4913
  842MOL0     H13629   1.417   7.873   3.044 -4.2546  2.6651  0.4710
  842MOL0     H13630   1.492   7.595   3.375 -2.3534 -0.9335  2.5825
  842MOL0     H13631   1.669   7.744   3.624 -0.1220  1.1211 -0.0768
  842MOL0     H13632   1.529   7.640   3.669  5.4411  0.4938  3.6144
  842MOL0     H13633   1.632   7.587   3.535 -1.8046 -1.1879 -0.1651
  842MOL0     H13634   1.665   7.994   3.863  0.3093 -0.8292  0.2383
  842MOL0     H13635   1.772   8.129   4.040  1.1158  0.3211 -0.6249
  842MOL0     H13636   1.754   8.576   4.095  3.1370 -0.2368 -0.0521
  842MOL0     H13637   1.648   8.451   4.135 -0.4167  1.2015  1.0057
  842MOL0     H13638   1.738   8.475   4.316 -3.0693 -0.1232 -2.9304
  842MOL0     H13639   1.846   8.335   4.248  0.4082  1.5399 -0.0157
  842MOL0     H13640   1.937   8.618   4.252  0.5874  0.8306 -1.4898
  842MOL0     H13641   2.017   8.498   4.163  3.8088  3.6906  2.0914
  842MOL0     H13642   1.960   8.463   4.458 -1.0491  3.8181 -1.0422
  842MOL0     H13643   2.069   8.357   4.371 -2.5674 -0.9536  1.0681
  842MOL0     H13644   2.124   8.665   4.405 -0.4330 -0.1398  1.1793
  842MOL0     H13645   2.216   8.556   4.314 -0.3010  0.1288  0.5834
  842MOL0     H13646   2.241   8.410   4.523  0.8047  0.3167 -0.6293
  842MOL0     H13647   2.328   8.566   4.531  0.3366 -0.2241  0.6634
  842MOL0     H13648   2.040   8.541   4.619  0.0222  0.5266 -1.3829
  842MOL0     H13649   2.157   8.656   4.684 -0.0885  0.4154  2.3339
  842MOL0     H13650   2.123   8.492   4.851  0.1789  1.6978 -1.5778
  842MOL0     H13651   2.301   8.483   4.774  1.2718 -1.9416  1.1168
  842MOL0     H13652   1.662   8.482   3.821 -2.4504  0.2275 -3.8462
  842MOL0     H13653   1.527   8.349   3.661 -0.1838  2.2545  0.5504
  842MOL0     H13654   1.420   8.088   3.402  1.5107 -0.3104  0.5026
  842MOL0     H13655   1.367   7.977   3.214  0.3894 -3.0751 -2.0332
  842MOL0     H13656   0.902   8.323   1.681  1.0792 -0.9299  0.8575
  842MOL0     H13657   0.652   8.326   1.655  1.0369 -0.7269 -0.6758
  842MOL0     H13658   0.278   8.448   1.627  0.4171  0.3062  0.1388
  842MOL0     H13659   0.068   8.498   1.532 -1.2018  0.0632  0.4290
  842MOL0     H13660  -0.216   8.693   1.423  1.4254 -1.3899 -2.2671
  842MOL0     H13661  -0.102   8.555   1.449 -0.1777  0.0110 -1.0514
  842MOL0     H13662  -0.232   8.521   1.681 -4.0148 -2.7357  1.4904
  842MOL0     H13663  -0.304   8.469   1.537 -2.2353 -1.3670  3.1606
  842MOL0     H13664  -0.487   8.609   1.549 -0.3651  0.8421  1.6163
  842MOL0     H13665  -0.396   8.750   1.583  0.5155  0.8300 -2.0375
  842MOL0     H13666  -0.344   8.657   1.817  0.5664 -2.5187 -0.7360
  842MOL0     H13667  -0.450   8.530   1.774  2.0815 -0.7221 -3.0404
  842MOL0     H13668  -0.744   8.829   1.808 -1.3741 -3.5027 -0.0594
  842MOL0     H13669   0.023   8.844   1.795  0.4019 -0.5541  2.7008
  842MOL0     H13670   0.231   8.763   1.912  1.8200 -1.9268 -0.2115
  843MOL0     O13671   7.621   6.742   8.664 -0.0081  0.1620 -0.6393
  843MOL0     C13672   7.500   6.753   8.680 -0.1405 -0.5798  0.4523
  843MOL0     O13673   7.433   6.779   8.799 -0.2408 -0.4043 -0.1975
  843MOL0     C13674   7.510   6.786   8.917  0.3993  0.2546 -0.1553
  843MOL0     C13675   7.583   6.682   8.969  0.4311 -0.9719 -0.6119
  843MOL0     C13676   7.664   6.705   9.082 -0.1077 -0.0644  0.0788
  843MOL0     C13677   7.671   6.823   9.155  0.5108 -0.3429  0.6652
  843MOL0     O13678   7.747   6.812   9.264  0.1447  0.4340  0.7507
  843MOL0     C13679   7.702   6.877   9.382 -0.3171 -0.0540  0.5508
  843MOL0     C13680   7.811   6.872   9.486 -0.3023 -0.2005 -0.4183
  843MOL0     C13681   7.776   6.954   9.609 -0.6020  0.4992 -0.4397
  843MOL0     C13682   7.797   7.111   9.585  1.2214  0.2046  0.0920
  843MOL0     C13683   7.783   7.180   9.718  0.2061  0.1163  0.2405
  843MOL0     C13684   7.774   7.332   9.701 -0.3588 -0.2741 -0.7323
  843MOL0     C13685   7.807   7.412   9.828 -0.4222  0.5032 -0.3666
  843MOL0     C13686   7.697   7.415   9.939 -0.2151 -0.8850 -0.3115
  843MOL0     N13687   7.591   7.511   9.911 -0.6342 -1.0734  0.3785
  843MOL0     C13688   7.598   7.640   9.952 -0.1466 -0.2088 -0.4068
  843MOL0     C13689   7.480   7.701   9.927  0.2166  0.7020 -0.0885
  843MOL0     C13690   7.455   7.848   9.944 -0.7952 -0.1180 -0.8102
  843MOL0     C13691   7.321   7.895   9.886 -0.6605 -0.0634  1.0282
  843MOL0     C13692   7.330   7.906   9.731 -0.0373  0.0087  0.0856
  843MOL0     C13693   7.196   7.937   9.668 -0.0913 -0.0926  1.0188
  843MOL0     O13694   7.129   8.040   9.739 -0.6175  0.0487  0.2708
  843MOL0     C13695   6.991   8.056   9.719  0.3568 -0.3275 -0.5986
  843MOL0     C13696   6.936   8.183   9.745 -0.1879  0.6419  0.8194
  843MOL0     C13697   6.807   8.213   9.721  0.1302 -0.4602 -0.4890
  843MOL0     C13698   6.756   8.349   9.745 -1.1079  0.2490 -0.3157
  843MOL0     C13699   6.720   8.114   9.680  0.3469  0.4764 -0.0592
  843MOL0     C13700   6.572   8.129   9.642 -0.4445 -0.5987 -1.0878
  843MOL0     O13701   6.505   8.248   9.655  0.0391 -0.4301 -0.6155
  843MOL0     C13702   6.392   8.261   9.571  0.4034 -0.8169  0.1990
  843MOL0     C13703   6.255   8.225   9.591  0.5578  0.4888  0.6469
  843MOL0     C13704   6.162   8.264   9.491  1.2733 -0.4862  0.2615
  843MOL0     C13705   6.191   8.332   9.366 -0.0046  0.8209  0.7483
  843MOL0     O13706   6.083   8.373   9.295  0.2134  0.2089 -1.0937
  843MOL0     C13707   6.106   8.395   9.154  0.5915 -0.3075  0.1190
  843MOL0     C13708   5.968   8.404   9.094 -0.5907  0.1023  0.1049
  843MOL0     C13709   5.985   8.448   8.945 -0.4114  0.5654  0.2285
  843MOL0     C13710   5.872   8.410   8.854  0.7842  0.1230 -0.4944
  843MOL0     C13711   5.734   8.431   8.915 -0.4914 -0.6269 -0.0925
  843MOL0     C13712   5.628   8.323   8.875  0.2680  0.7632  0.8115
  843MOL0     C13713   5.593   8.338   8.727 -1.1402  0.1771  0.5387
  843MOL0     C13714   5.460   8.273   8.697 -1.7130 -0.1946 -0.4630
  843MOL0    Cl13715   5.332   8.381   8.746  0.2261 -0.1605  0.2846
  843MOL0     C13716   6.320   8.359   9.353  0.1017 -0.5042  0.7330
  843MOL0     C13717   6.414   8.331   9.450  0.2690  1.0392 -0.2629
  843MOL0     O13718   6.518   8.035   9.588  0.2356  0.2892  0.9515
  843MOL0     C13719   6.778   8.000   9.634  0.6963  0.2987 -0.0451
  843MOL0     C13720   6.905   7.960   9.660 -0.6412  0.3966  0.3382
  843MOL0     N13721   7.400   7.601   9.876  0.6808 -0.1113 -0.2373
  843MOL0     N13722   7.466   7.490   9.865 -0.4725  0.1350 -0.2193
  843MOL0     C13723   7.613   6.934   9.099  0.4614  0.4898 -0.2875
  843MOL0     C13724   7.528   6.912   8.987 -0.7462 -0.7757  0.8263
  843MOL0     C13725   7.414   6.750   8.547 -0.5228 -0.9217 -0.2627
  843MOL0     C13726   7.279   6.778   8.545  0.7292  0.5808  0.2153
  843MOL0     C13727   7.201   6.785   8.428  0.1610 -0.3606  0.6464
  843MOL0     C13728   7.266   6.776   8.305  0.4256  0.5598 -0.2236
  843MOL0     O13729   7.199   6.777   8.184  0.3172 -0.1211 -0.6748
  843MOL0     C13730   7.251   6.873   8.089  0.7516 -0.6047 -0.4867
  843MOL0     C13731   7.126   6.915   7.996 -0.8368  0.3277  0.3666
  843MOL0     C13732   7.126   7.065   7.991  1.0068  0.3036 -0.4271
  843MOL0     C13733   7.252   7.127   7.917  0.6734 -0.7063  0.7656
  843MOL0     C13734   7.250   7.083   7.771  0.2164 -0.4588 -0.6502
  843MOL0     C13735   7.248   7.079   7.650 -0.3369  0.5021  0.4011
  843MOL0     C13736   7.405   6.746   8.310 -0.1287 -0.3554  0.3643
  843MOL0     C13737   7.475   6.733   8.422  0.1977 -0.1828 -0.7594
  843MOL0     H13738   7.581   6.598   8.900 -2.1266 -1.2109 -0.3118
  843MOL0     H13739   7.717   6.620   9.123  0.0361  0.5502  1.1846
  843MOL0     H13740   7.705   6.981   9.348 -0.0526 -1.3753 -4.3218
  843MOL0     H13741   7.610   6.840   9.426 -0.1029  1.9394  2.8697
  843MOL0     H13742   7.823   6.769   9.519  0.2722  0.5757  1.9681
  843MOL0     H13743   7.900   6.914   9.438  1.0986  1.5421  3.3381
  843MOL0     H13744   7.672   6.935   9.637 -0.4546 -1.4006 -1.0612
  843MOL0     H13745   7.839   6.925   9.694 -0.5744 -1.3712 -1.0647
  843MOL0     H13746   7.901   7.118   9.553  0.7092 -2.0054 -2.3905
  843MOL0     H13747   7.722   7.149   9.515  2.0502  1.8370  0.0410
  843MOL0     H13748   7.689   7.146   9.763  1.1616 -2.3535  0.5217
  843MOL0     H13749   7.864   7.155   9.788  1.6491 -2.2498 -2.1158
  843MOL0     H13750   7.864   7.351   9.641  0.7140  0.3433  0.9916
  843MOL0     H13751   7.677   7.358   9.658 -1.8505  0.6104  2.7998
  843MOL0     H13752   7.900   7.368   9.865 -0.5523  1.0224  0.6026
  843MOL0     H13753   7.838   7.512   9.795 -1.7207  0.4594 -1.8674
  843MOL0     H13754   7.740   7.446  10.034 -1.3302  1.2593 -0.4415
  843MOL0     H13755   7.670   7.311   9.960  1.4869 -0.9641  1.7695
  843MOL0     H13756   7.689   7.687   9.985 -0.7186  0.8273 -0.2655
  843MOL0     H13757   7.450   7.874  10.051  1.6385  0.9664 -0.8886
  843MOL0     H13758   7.542   7.901   9.905  1.1081  1.4627  4.6772
  843MOL0     H13759   7.292   7.988   9.936 -1.6449 -1.5307  3.2992
  843MOL0     H13760   7.242   7.829   9.920  0.3026 -0.3249  2.9201
  843MOL0     H13761   7.366   7.810   9.692 -0.9324 -0.1123 -0.4672
  843MOL0     H13762   7.394   7.991   9.708  0.2174 -0.1589  0.1705
  843MOL0     H13763   7.154   7.836   9.667  2.6552 -1.3400  1.3339
  843MOL0     H13764   7.199   7.973   9.565  0.5381 -6.1227 -1.5034
  843MOL0     H13765   6.994   8.260   9.795 -0.1928  2.5323 -1.8839
  843MOL0     H13766   6.697   8.347   9.837  1.0465 -1.5939  1.1249
  843MOL0     H13767   6.845   8.409   9.765 -0.2673 -1.3856  1.0812
  843MOL0     H13768   6.699   8.391   9.661  0.7705 -1.3998 -2.5462
  843MOL0     H13769   6.239   8.168   9.683  1.9152  1.1850  1.3496
  843MOL0     H13770   6.058   8.248   9.519 -0.0464  3.1405 -1.8103
  843MOL0     H13771   6.159   8.490   9.139  0.4555 -0.6832 -3.6277
  843MOL0     H13772   6.162   8.318   9.101  1.9174  0.6641  0.0638
  843MOL0     H13773   5.938   8.299   9.092  2.6630 -0.9525  0.5061
  843MOL0     H13774   5.905   8.466   9.158  2.6182  1.5117  2.1737
  843MOL0     H13775   6.076   8.401   8.905 -0.7463 -0.0528  0.1794
  843MOL0     H13776   6.013   8.554   8.949  0.1697  0.5529 -1.9548
  843MOL0     H13777   5.884   8.460   8.758  3.2094 -1.7902 -1.2868
  843MOL0     H13778   5.866   8.302   8.836 -1.0910  0.1719 -0.3790
  843MOL0     H13779   5.699   8.533   8.896 -1.0863 -0.6427  0.8666
  843MOL0     H13780   5.730   8.435   9.024  1.5870  1.9011 -0.0102
  843MOL0     H13781   5.654   8.219   8.893 -2.4327 -0.2906 -0.8068
  843MOL0     H13782   5.540   8.350   8.935 -0.0151  2.3531 -0.2425
  843MOL0     H13783   5.672   8.295   8.666 -1.1776  0.5095  0.2546
  843MOL0     H13784   5.589   8.445   8.705 -0.6642 -0.0532 -0.7276
  843MOL0     H13785   5.448   8.185   8.761 -0.7860  0.4386  0.6213
  843MOL0     H13786   5.447   8.258   8.590  1.0399  3.5717 -1.5161
  843MOL0     H13787   6.360   8.415   9.269  2.1726 -0.2202  1.8312
  843MOL0     H13788   6.519   8.350   9.430  0.7239 -3.6500 -4.5564
  843MOL0     H13789   6.734   7.922   9.573  3.1365  0.8555 -2.6635
  843MOL0     H13790   6.944   7.862   9.635 -1.0336  0.0090  1.2069
  843MOL0     H13791   7.608   7.030   9.149 -0.3819  0.4909 -0.3626
  843MOL0     H13792   7.464   6.993   8.955  0.3024  0.3442  1.4868
  843MOL0     H13793   7.225   6.790   8.637 -0.5151 -2.0945 -0.0549
  843MOL0     H13794   7.096   6.810   8.421  0.2676  0.0585  0.5756
  843MOL0     H13795   7.289   6.957   8.148 -0.8739 -2.4492  3.5568
  843MOL0     H13796   7.335   6.837   8.029 -0.0350 -0.4559 -1.7171
  843MOL0     H13797   7.036   6.881   8.047  0.2571 -3.8068 -0.1114
  843MOL0     H13798   7.132   6.868   7.897 -5.8461  0.0562 -0.0562
  843MOL0     H13799   7.113   7.103   8.093 -1.1848 -0.4043 -0.3843
  843MOL0     H13800   7.030   7.096   7.949 -0.6298  2.7030  4.2567
  843MOL0     H13801   7.343   7.089   7.964  2.8408  0.7793 -1.9099
  843MOL0     H13802   7.230   7.234   7.925 -2.7954 -0.6400 -4.6514
  843MOL0     H13803   7.255   7.070   7.543  0.4562 -2.5421  0.6348
  843MOL0     H13804   7.451   6.732   8.213 -2.2849  3.8270 -1.5263
  843MOL0     H13805   7.578   6.698   8.421 -0.4999 -2.3755 -1.0468
  844MOL0     O13806   9.221   2.405   3.675  0.1819  0.0508  0.0286
  844MOL0     C13807   9.118   2.459   3.715  0.1758 -0.2894 -0.0732
  844MOL0     O13808   9.018   2.402   3.791 -0.4554  0.4414  0.2485
  844MOL0     C13809   9.018   2.265   3.757  1.0125  0.4681  0.6669
  844MOL0     C13810   9.009   2.215   3.625 -0.1896 -0.3978 -0.3361
  844MOL0     C13811   8.997   2.074   3.597 -0.7342 -0.3427  0.0542
  844MOL0     C13812   9.013   1.987   3.710 -0.5434 -0.4333  0.2776
  844MOL0     O13813   9.013   1.849   3.672 -0.0521 -0.9923 -0.7558
  844MOL0     C13814   9.049   1.752   3.776 -0.7480 -1.1863 -0.8648
  844MOL0     C13815   9.049   1.618   3.711  0.5487  0.5703 -0.2172
  844MOL0     C13816   9.048   1.516   3.818  0.0857 -0.2626 -0.5468
  844MOL0     C13817   9.054   1.372   3.754 -0.2142 -1.3456  0.4943
  844MOL0     C13818   8.966   1.266   3.824  0.0956 -0.1908  0.2904
  844MOL0     C13819   8.962   1.138   3.743  0.6801  0.7561  0.0115
  844MOL0     C13820   8.848   1.133   3.639  0.0716 -0.0586  0.9030
  844MOL0     C13821   8.864   1.008   3.548 -0.8286  0.4771  0.7203
  844MOL0     N13822   8.981   1.001   3.459  0.6666 -0.4472  0.0978
  844MOL0     C13823   8.984   1.080   3.352 -0.0076 -0.8146  1.0324
  844MOL0     C13824   9.108   1.063   3.298 -0.0272 -0.0762  0.7133
  844MOL0     C13825   9.172   1.130   3.169 -1.0494  0.3186  0.3975
  844MOL0     C13826   9.061   1.161   3.070  0.3649  0.9953  0.6608
  844MOL0     C13827   9.025   1.043   2.974  0.1343 -0.0072  0.1995
  844MOL0     C13828   8.897   1.063   2.888 -0.0460  1.1138 -1.7322
  844MOL0     O13829   8.788   1.105   2.964 -0.4946  0.2336 -0.0179
  844MOL0     C13830   8.718   1.011   3.037 -0.9232 -0.4902  0.0270
  844MOL0     C13831   8.663   1.064   3.155  0.0033  0.1083 -0.4921
  844MOL0     C13832   8.581   0.982   3.244  0.1033 -0.3621  0.3043
  844MOL0     C13833   8.492   1.056   3.350  0.5978  0.0887 -0.6733
  844MOL0     C13834   8.561   0.849   3.204 -0.5330 -0.6336 -0.4740
  844MOL0     C13835   8.468   0.759   3.270 -0.0282  0.2637  0.1929
  844MOL0     O13836   8.438   0.778   3.401 -0.2921 -0.5892  0.0440
  844MOL0     C13837   8.341   0.704   3.459 -0.3036 -1.0049  0.7968
  844MOL0     C13838   8.226   0.645   3.398  0.0265 -0.9607 -0.1396
  844MOL0     C13839   8.125   0.573   3.475 -0.3424  0.0238  0.2219
  844MOL0     C13840   8.140   0.578   3.619  0.0211  0.4523  0.1025
  844MOL0     O13841   8.044   0.538   3.708 -0.9354 -0.3928  0.3543
  844MOL0     C13842   7.911   0.578   3.669 -0.4593  0.0578  0.2539
  844MOL0     C13843   7.833   0.615   3.787 -0.9295  0.5138 -1.0337
  844MOL0     C13844   7.684   0.659   3.754  0.3440  0.6705  0.4353
  844MOL0     C13845   7.624   0.691   3.895  0.2680 -0.2786  0.1459
  844MOL0     C13846   7.476   0.724   3.892 -0.4766 -0.3927  0.4249
  844MOL0     C13847   7.424   0.779   4.023  0.1572  0.1389  0.7791
  844MOL0     C13848   7.271   0.808   4.036  0.9078  1.1937 -0.1792
  844MOL0     C13849   7.234   0.932   3.967 -0.3203 -0.2882  0.1538
  844MOL0    Cl13850   7.346   1.079   3.979 -0.1627 -0.0700 -0.6536
  844MOL0     C13851   8.265   0.612   3.672 -0.3575 -0.1301  0.0981
  844MOL0     C13852   8.358   0.679   3.595  0.0965  0.6463  0.1420
  844MOL0     O13853   8.411   0.676   3.196 -0.1820  0.5335 -0.0561
  844MOL0     C13854   8.635   0.794   3.098  0.1786  0.1069  1.1958
  844MOL0     C13855   8.704   0.874   3.013  0.6556 -0.2999  0.1174
  844MOL0     N13856   9.176   0.967   3.371 -0.0535 -0.2379 -0.7257
  844MOL0     N13857   9.097   0.933   3.474  1.0864 -0.0457 -0.6169
  844MOL0     C13858   9.004   2.033   3.835  0.4272  0.1065 -0.9178
  844MOL0     C13859   9.008   2.169   3.858  0.7457 -0.1130  0.3168
  844MOL0     C13860   9.108   2.601   3.687  0.6385 -0.0659  0.7064
  844MOL0     C13861   8.985   2.672   3.732  0.1399 -0.7652 -0.0077
  844MOL0     C13862   8.974   2.812   3.698 -0.0509  0.6014  0.1833
  844MOL0     C13863   9.085   2.884   3.649 -1.1454  0.9681  0.2752
  844MOL0     O13864   9.079   3.020   3.619  0.2624  0.1110  1.1190
  844MOL0     C13865   9.123   3.065   3.491 -0.9962 -0.7835  0.5373
  844MOL0     C13866   9.031   3.174   3.440 -0.5839 -0.1751 -0.0855
  844MOL0     C13867   9.108   3.246   3.335  0.6310  0.8254  0.1261
  844MOL0     C13868   9.042   3.369   3.276 -0.1775  0.1570  0.0003
  844MOL0     C13869   8.899   3.349   3.239 -1.0607  0.3790 -0.1709
  844MOL0     C13870   8.787   3.362   3.183 -0.1114 -0.1738  1.0148
  844MOL0     C13871   9.191   2.809   3.606  0.8253 -0.3817 -0.2557
  844MOL0     C13872   9.204   2.674   3.626 -1.1529 -0.0279  0.1865
  844MOL0     H13873   9.012   2.285   3.542  1.5633  1.0829  0.9028
  844MOL0     H13874   9.014   2.024   3.502  1.5488 -0.8379  0.6606
  844MOL0     H13875   9.147   1.765   3.822 -0.6321 -0.7575 -1.2218
  844MOL0     H13876   8.977   1.753   3.858 -0.5783  3.1944 -0.5428
  844MOL0     H13877   8.963   1.617   3.643 -0.3549  0.3640  0.8880
  844MOL0     H13878   9.137   1.605   3.648  1.5576 -0.4121  1.3216
  844MOL0     H13879   9.130   1.530   3.889 -1.4045  1.4953  0.9141
  844MOL0     H13880   8.951   1.516   3.870  1.4403  2.8338  2.3350
  844MOL0     H13881   9.027   1.376   3.648 -0.8152  0.5624  0.6782
  844MOL0     H13882   9.161   1.349   3.762  0.5595  1.5543 -0.1757
  844MOL0     H13883   9.014   1.254   3.921  2.6711  0.7579 -0.7730
  844MOL0     H13884   8.867   1.304   3.852  1.1000  0.2157  3.7663
  844MOL0     H13885   9.053   1.140   3.683  1.4503  2.0213  1.1594
  844MOL0     H13886   8.953   1.045   3.801 -2.7897 -1.0340 -2.9688
  844MOL0     H13887   8.750   1.134   3.687 -1.0303 -3.9990 -0.8257
  844MOL0     H13888   8.863   1.210   3.563 -0.9416 -0.5423  0.1769
  844MOL0     H13889   8.772   1.007   3.489  0.1325 -0.6114 -0.8297
  844MOL0     H13890   8.863   0.915   3.605 -0.2862  0.3711  0.5647
  844MOL0     H13891   8.902   1.143   3.319 -0.8020  0.8071  5.4631
  844MOL0     H13892   9.224   1.223   3.194  0.6359  0.0156 -1.6307
  844MOL0     H13893   9.252   1.066   3.130 -1.2203 -0.2841  1.0230
  844MOL0     H13894   9.107   1.249   3.024  0.4284  1.7459  2.0984
  844MOL0     H13895   8.968   1.201   3.111  0.2984  0.6639  0.8331
  844MOL0     H13896   9.029   0.948   3.028 -0.8654 -0.3499 -0.2927
  844MOL0     H13897   9.107   1.034   2.902  2.1748 -0.7777  2.4890
  844MOL0     H13898   8.883   0.971   2.830  0.0580  2.0629 -3.3335
  844MOL0     H13899   8.920   1.146   2.821 -2.3148  2.2091 -1.2460
  844MOL0     H13900   8.689   1.169   3.170  1.7830 -0.4891  0.9831
  844MOL0     H13901   8.521   1.031   3.453  0.9555  0.3319 -0.7151
  844MOL0     H13902   8.521   1.162   3.348  0.4082  0.1333 -1.7948
  844MOL0     H13903   8.384   1.042   3.347  0.5898 -1.2115  2.2005
  844MOL0     H13904   8.200   0.662   3.294 -2.0705  0.3866  0.5361
  844MOL0     H13905   8.047   0.515   3.427 -0.2084 -0.3959  0.5107
  844MOL0     H13906   7.920   0.663   3.601 -2.3425 -0.6672 -0.9737
  844MOL0     H13907   7.866   0.498   3.609 -0.0563  1.6684 -2.3812
  844MOL0     H13908   7.828   0.525   3.850  0.1217  0.9909 -0.2488
  844MOL0     H13909   7.871   0.699   3.846 -3.4960 -1.2682  3.7641
  844MOL0     H13910   7.631   0.574   3.709 -0.4678  1.9050 -1.0347
  844MOL0     H13911   7.671   0.748   3.692 -1.5933 -1.0735 -1.8871
  844MOL0     H13912   7.631   0.608   3.965 -5.2213 -0.4229  0.9141
  844MOL0     H13913   7.679   0.776   3.936  1.1184 -1.1410  0.8392
  844MOL0     H13914   7.413   0.636   3.874  0.6242 -1.2120  0.5277
  844MOL0     H13915   7.462   0.796   3.811 -1.9940  0.6476  1.5536
  844MOL0     H13916   7.452   0.709   4.102 -1.6177  0.2448  1.5277
  844MOL0     H13917   7.477   0.872   4.045  2.5892 -1.5143  2.4963
  844MOL0     H13918   7.238   0.801   4.140 -1.8205 -1.4759 -1.0706
  844MOL0     H13919   7.209   0.728   3.995  1.4193  1.4393 -1.4757
  844MOL0     H13920   7.129   0.956   3.986 -0.7666  0.3065 -2.6829
  844MOL0     H13921   7.239   0.919   3.858 -1.7188 -2.1171  0.2428
  844MOL0     H13922   8.279   0.610   3.780 -1.2913 -0.9291  0.2164
  844MOL0     H13923   8.448   0.722   3.637  0.7193 -0.8766  0.4251
  844MOL0     H13924   8.634   0.690   3.069 -3.3981  0.3197  0.0674
  844MOL0     H13925   8.761   0.830   2.932 -0.7643  0.1125 -1.1456
  844MOL0     H13926   9.005   1.969   3.923  2.0367  2.0255  0.5448
  844MOL0     H13927   9.002   2.211   3.958  0.0006 -1.6068  0.9275
  844MOL0     H13928   8.898   2.627   3.780 -2.3236  1.0260 -2.4706
  844MOL0     H13929   8.888   2.864   3.739  0.5844  0.4471  1.8096
  844MOL0     H13930   9.225   3.104   3.489 -1.0440 -0.5547 -2.2783
  844MOL0     H13931   9.116   2.986   3.415  0.1201  0.7053 -1.2204
  844MOL0     H13932   8.999   3.236   3.524 -2.8699 -1.2519 -0.0847
  844MOL0     H13933   8.940   3.129   3.399 -1.6163  1.0455  0.7951
  844MOL0     H13934   9.135   3.172   3.259 -2.1089  0.4553 -0.5725
  844MOL0     H13935   9.201   3.278   3.384 -1.1738  2.3928  2.7998
  844MOL0     H13936   9.101   3.393   3.187 -2.2132  1.2349 -1.1312
  844MOL0     H13937   9.043   3.458   3.341  1.1630  1.3925 -1.6210
  844MOL0     H13938   8.701   3.376   3.120 -0.2636 -3.5942  0.2541
  844MOL0     H13939   9.270   2.856   3.548  1.6739 -0.5646  0.7240
  844MOL0     H13940   9.296   2.621   3.603 -2.0571 -1.4363 -0.3402
  845MOL0     O13941   7.571   7.765   6.605  0.3628  0.1331  0.4864
  845MOL0     C13942   7.570   7.777   6.486 -0.0789 -0.0163  0.5852
  845MOL0     O13943   7.461   7.813   6.406  0.7865  0.0400 -0.3278
  845MOL0     C13944   7.334   7.829   6.469 -0.4408  0.3300  0.2236
  845MOL0     C13945   7.272   7.731   6.554 -0.0747 -0.7590  0.4294
  845MOL0     C13946   7.139   7.742   6.602 -0.4192 -0.3337 -1.3551
  845MOL0     C13947   7.072   7.866   6.574  0.4967  0.0030  0.3960
  845MOL0     O13948   6.940   7.877   6.617  0.4838  0.7651 -0.2389
  845MOL0     C13949   6.945   7.917   6.753  0.6994  0.2135 -0.3104
  845MOL0     C13950   6.798   7.922   6.812  1.0487  0.5297 -0.1483
  845MOL0     C13951   6.729   8.060   6.789 -0.3267 -0.8063  0.3584
  845MOL0     C13952   6.612   8.081   6.887 -0.0090 -0.6657  0.2610
  845MOL0     C13953   6.519   8.206   6.846 -0.1307  1.2277 -0.1897
  845MOL0     C13954   6.440   8.238   6.971  0.2206 -0.2566  0.5548
  845MOL0     C13955   6.342   8.125   7.022 -0.3644 -0.4432 -0.3720
  845MOL0     C13956   6.234   8.184   7.115  0.0544  0.0458  0.4644
  845MOL0     N13957   6.277   8.240   7.248  0.1288  0.9563  0.0683
  845MOL0     C13958   6.398   8.227   7.312  0.1716  0.0606  0.0907
  845MOL0     C13959   6.367   8.255   7.441 -0.3560  0.5301  1.0813
  845MOL0     C13960   6.463   8.251   7.547  0.3215 -0.1910 -0.1892
  845MOL0     C13961   6.407   8.175   7.671  0.3739  0.3183  0.4444
  845MOL0     C13962   6.509   8.183   7.788  0.0383 -0.2743  0.5076
  845MOL0     C13963   6.459   8.114   7.913 -0.0168 -0.6864 -0.0887
  845MOL0     O13964   6.545   8.161   8.025  0.0721 -0.4774  0.0236
  845MOL0     C13965   6.532   8.102   8.140  0.6423  0.1354 -0.5195
  845MOL0     C13966   6.480   7.969   8.169 -0.6689 -0.6574  0.1619
  845MOL0     C13967   6.474   7.916   8.293  0.1470  0.6868 -0.2019
  845MOL0     C13968   6.384   7.786   8.309  0.5582 -0.1146 -0.1863
  845MOL0     C13969   6.536   7.986   8.397  0.0901 -0.1167 -0.3008
  845MOL0     C13970   6.537   7.944   8.543  0.0610 -0.2172  0.5277
  845MOL0     O13971   6.532   7.816   8.577  0.6396  0.6424  1.0795
  845MOL0     C13972   6.542   7.777   8.703  0.1583  0.2107 -0.0612
  845MOL0     C13973   6.431   7.741   8.785 -0.1689  1.0965  1.2768
  845MOL0     C13974   6.458   7.702   8.922 -1.1658  0.2075 -0.2459
  845MOL0     C13975   6.585   7.709   8.984  0.3964 -0.4393  0.8275
  845MOL0     O13976   6.616   7.680   9.114  0.5586  0.7625  0.8498
  845MOL0     C13977   6.523   7.720   9.212  0.1947 -0.3182  0.5870
  845MOL0     C13978   6.431   7.617   9.267  0.6944  0.1956  0.2782
  845MOL0     C13979   6.324   7.667   9.367  0.1810 -0.4833  0.4295
  845MOL0     C13980   6.282   7.805   9.332  0.2734  0.0262 -0.3244
  845MOL0     C13981   6.178   7.872   9.430 -0.0319 -0.3404  0.2991
  845MOL0     C13982   6.045   7.792   9.446 -0.0636  0.1217 -0.1303
  845MOL0     C13983   5.937   7.877   9.525  0.5297  0.2963  0.4674
  845MOL0     C13984   5.829   7.802   9.608  0.2113 -0.0929 -0.3187
  845MOL0    Cl13985   5.721   7.702   9.496  0.2635  0.1095  0.4311
  845MOL0     C13986   6.687   7.749   8.899 -0.9074 -0.2456 -0.2669
  845MOL0     C13987   6.669   7.784   8.762  1.0924 -0.3099 -0.0615
  845MOL0     O13988   6.525   8.034   8.623  0.5852 -1.0801  0.0882
  845MOL0     C13989   6.588   8.115   8.380  0.5075  0.3719  0.4410
  845MOL0     C13990   6.590   8.167   8.250 -0.8719 -0.0944 -0.3879
  845MOL0     N13991   6.233   8.281   7.445  0.1145  0.2342 -0.4009
  845MOL0     N13992   6.174   8.269   7.329 -0.9921  0.4076 -0.2367
  845MOL0     C13993   7.131   7.958   6.487  0.2597  0.5614  0.3111
  845MOL0     C13994   7.253   7.935   6.434 -0.6979  0.1075 -0.7755
  845MOL0     C13995   7.697   7.753   6.411  0.0353  0.3561  0.4125
  845MOL0     C13996   7.719   7.822   6.288  0.0301  0.3611  0.4500
  845MOL0     C13997   7.834   7.821   6.218 -0.3337  0.2851  0.2965
  845MOL0     C13998   7.942   7.743   6.271  0.1808 -0.2438  0.2893
  845MOL0     O13999   8.055   7.748   6.205 -0.4238  0.9711 -0.2242
  845MOL0     C14000   8.174   7.703   6.273 -0.1373 -0.0649 -0.1348
  845MOL0     C14001   8.302   7.702   6.188  0.3195 -0.7619 -0.3422
  845MOL0     C14002   8.291   7.608   6.055 -0.8290  0.0778  0.1306
  845MOL0     C14003   8.398   7.646   5.946  0.8540 -0.4158 -0.8508
  845MOL0     C14004   8.384   7.562   5.829  1.0092 -0.2378  0.5779
  845MOL0     C14005   8.409   7.489   5.738  0.4845  0.4230  0.1588
  845MOL0     C14006   7.921   7.674   6.392 -0.6584 -0.2041  0.2583
  845MOL0     C14007   7.803   7.673   6.459 -0.8691  0.5241 -1.0819
  845MOL0     H14008   7.340   7.648   6.575  1.2185  0.3515  0.8012
  845MOL0     H14009   7.117   7.666   6.677 -1.9414 -1.4302 -2.8310
  845MOL0     H14010   7.011   7.851   6.809  0.7174 -0.3755 -0.9989
  845MOL0     H14011   6.979   8.018   6.776 -0.0174  0.2550  0.5947
  845MOL0     H14012   6.745   7.842   6.760  0.1691  0.2508  1.1202
  845MOL0     H14013   6.801   7.888   6.916  3.3689 -0.9446 -0.6232
  845MOL0     H14014   6.796   8.141   6.820 -3.1396  2.7723 -1.9555
  845MOL0     H14015   6.704   8.073   6.684  0.7654  2.1674  0.3670
  845MOL0     H14016   6.553   7.989   6.882  0.4659 -1.1653  2.7697
  845MOL0     H14017   6.662   8.084   6.984 -0.8081 -0.9045  0.6849
  845MOL0     H14018   6.585   8.290   6.819  1.9073 -0.3392 -0.3201
  845MOL0     H14019   6.457   8.191   6.757 -1.3786 -0.1312  0.8772
  845MOL0     H14020   6.505   8.254   7.058  1.2162 -0.1074 -0.1971
  845MOL0     H14021   6.384   8.330   6.952  0.5712  0.2008  1.6512
  845MOL0     H14022   6.297   8.074   6.936 -0.3649  0.5948 -1.0113
  845MOL0     H14023   6.403   8.053   7.077  0.4598 -0.3228 -1.1017
  845MOL0     H14024   6.156   8.107   7.120  0.0203 -0.5101 -4.3054
  845MOL0     H14025   6.198   8.273   7.064  1.5607  1.0651  1.1170
  845MOL0     H14026   6.493   8.199   7.268  0.2762  0.5011  0.0304
  845MOL0     H14027   6.555   8.219   7.497  2.1085  3.4470  0.5146
  845MOL0     H14028   6.473   8.356   7.575  1.3309 -1.0758  3.1323
  845MOL0     H14029   6.394   8.068   7.651 -0.3669  0.6101 -0.7778
  845MOL0     H14030   6.308   8.213   7.698 -2.3612 -2.8184 -3.8232
  845MOL0     H14031   6.528   8.289   7.811 -0.4576 -0.2137  0.6410
  845MOL0     H14032   6.605   8.143   7.755  0.2260  1.4374 -1.2000
  845MOL0     H14033   6.464   8.005   7.905 -0.9502 -1.0815  3.3265
  845MOL0     H14034   6.353   8.139   7.922  0.4629  1.1974  0.8119
  845MOL0     H14035   6.414   7.929   8.093 -3.6780 -2.9833  3.6153
  845MOL0     H14036   6.293   7.796   8.249 -2.5253  0.9810  4.1442
  845MOL0     H14037   6.445   7.699   8.282  0.4872 -0.1246 -0.3155
  845MOL0     H14038   6.353   7.758   8.410 -4.7939  1.4807 -1.0554
  845MOL0     H14039   6.329   7.738   8.748 -0.1444 -0.9211  1.2605
  845MOL0     H14040   6.372   7.678   8.984 -0.7453  0.6141  0.5135
  845MOL0     H14041   6.576   7.759   9.300 -0.9707  3.0768 -0.0913
  845MOL0     H14042   6.474   7.803   9.160  3.6805 -0.2677 -3.2106
  845MOL0     H14043   6.370   7.585   9.182 -1.3903  1.6244  1.1679
  845MOL0     H14044   6.487   7.533   9.311 -0.1218 -0.0975  0.7750
  845MOL0     H14045   6.362   7.655   9.469  0.7362 -3.3281 -0.0296
  845MOL0     H14046   6.229   7.613   9.356 -0.6477  0.9410  0.3488
  845MOL0     H14047   6.369   7.870   9.320  0.1873  0.3303  0.6157
  845MOL0     H14048   6.226   7.806   9.237 -1.1501 -3.0779  0.3560
  845MOL0     H14049   6.165   7.977   9.402  0.1486 -0.5929 -0.7863
  845MOL0     H14050   6.220   7.868   9.531 -2.6438  4.0425  1.8441
  845MOL0     H14051   6.006   7.758   9.350 -3.5278  0.9124  0.8305
  845MOL0     H14052   6.076   7.707   9.507  1.2898 -0.1787 -1.2007
  845MOL0     H14053   5.888   7.958   9.471  0.0992 -1.4375 -1.8548
  845MOL0     H14054   5.989   7.928   9.606 -0.1272 -0.9759  1.7484
  845MOL0     H14055   5.768   7.862   9.675  0.3790 -0.3895  0.1039
  845MOL0     H14056   5.882   7.731   9.673 -2.4763 -2.8438 -0.9044
  845MOL0     H14057   6.786   7.749   8.944 -1.3151 -0.7870  0.6672
  845MOL0     H14058   6.754   7.830   8.712 -0.1419  0.1118 -1.8927
  845MOL0     H14059   6.617   8.188   8.456 -1.7562  2.4930 -0.5787
  845MOL0     H14060   6.631   8.265   8.231  1.3547 -1.1282 -1.2764
  845MOL0     H14061   7.083   8.050   6.455 -0.5454  0.5238  1.3296
  845MOL0     H14062   7.290   8.009   6.364  1.1812  1.7626  1.7632
  845MOL0     H14063   7.634   7.880   6.253  0.0810 -0.1009 -0.4645
  845MOL0     H14064   7.847   7.868   6.120 -0.7207 -0.3958 -0.0865
  845MOL0     H14065   8.177   7.772   6.358 -2.4076  0.6326 -0.5526
  845MOL0     H14066   8.160   7.603   6.317  0.0827  0.2540  0.6671
  845MOL0     H14067   8.392   7.671   6.241  0.7146  0.3026 -0.3693
  845MOL0     H14068   8.331   7.803   6.156 -0.4047 -0.7904 -1.1400
  845MOL0     H14069   8.191   7.617   6.013 -1.0635 -0.7892  0.4813
  845MOL0     H14070   8.305   7.504   6.088  0.0361 -0.2866 -1.3128
  845MOL0     H14071   8.498   7.629   5.988  0.5261  0.8836  0.4935
  845MOL0     H14072   8.395   7.753   5.924  0.9684  0.6339  3.3946
  845MOL0     H14073   8.435   7.425   5.657 -1.2582  0.7946 -0.7296
  845MOL0     H14074   8.001   7.618   6.439 -1.8886 -1.4748  0.9367
  845MOL0     H14075   7.815   7.631   6.559 -5.8307  1.1768  0.0402
  846MOL0     O14076   1.660   2.560   3.005  0.2760  0.4598  0.4370
  846MOL0     C14077   1.702   2.629   3.103 -0.3431  0.5699 -0.1836
  846MOL0     O14078   1.826   2.624   3.156  0.3960  0.5700  0.4892
  846MOL0     C14079   1.918   2.529   3.106  0.2846 -0.1212  0.0575
  846MOL0     C14080   1.921   2.392   3.141 -0.2177  0.1303  0.2041
  846MOL0     C14081   2.014   2.294   3.094 -0.7814  0.2192 -0.3433
  846MOL0     C14082   2.126   2.354   3.027 -0.5644 -0.0410  0.4051
  846MOL0     O14083   2.237   2.281   2.986 -0.3750 -0.2926  0.1299
  846MOL0     C14084   2.257   2.142   3.000 -0.7488 -0.0772 -1.3125
  846MOL0     C14085   2.385   2.090   2.949  0.1640 -0.4928 -0.7636
  846MOL0     C14086   2.409   1.944   2.999 -0.2992 -0.7828  0.3374
  846MOL0     C14087   2.338   1.844   2.897 -0.6229 -0.9597 -0.9881
  846MOL0     C14088   2.303   1.703   2.944 -0.4893 -1.0403 -0.3700
  846MOL0     C14089   2.392   1.587   2.885  0.7821  1.0533  0.3846
  846MOL0     C14090   2.344   1.462   2.972  0.3888 -0.4547 -0.2483
  846MOL0     C14091   2.367   1.327   2.904  0.1705  0.4007  0.0536
  846MOL0     N14092   2.265   1.229   2.959  0.4030  0.8439 -0.4516
  846MOL0     C14093   2.285   1.158   3.079  1.3834  0.6658 -0.2992
  846MOL0     C14094   2.163   1.092   3.080  0.4537 -0.6143  0.7181
  846MOL0     C14095   2.121   0.994   3.189  0.7435  1.2279 -0.5650
  846MOL0     C14096   2.229   0.894   3.236  0.1945 -0.1308  0.4619
  846MOL0     C14097   2.187   0.784   3.330  0.3251 -0.3141  0.9745
  846MOL0     C14098   2.278   0.661   3.329  0.3761  0.2813  0.8133
  846MOL0     O14099   2.299   0.596   3.453 -0.1481  0.8219 -0.3836
  846MOL0     C14100   2.411   0.523   3.473 -0.1375  1.0605  0.0802
  846MOL0     C14101   2.512   0.501   3.378 -0.5424 -0.4289  0.1822
  846MOL0     C14102   2.606   0.388   3.392  0.5218  0.2937 -0.2156
  846MOL0     C14103   2.697   0.366   3.269  0.6247 -0.4143  0.1736
  846MOL0     C14104   2.592   0.301   3.504 -0.0799  0.1114 -0.2714
  846MOL0     C14105   2.689   0.198   3.547  0.6086  0.3099 -0.4434
  846MOL0     O14106   2.671   0.127   3.664 -0.8313  1.2618 -0.5833
  846MOL0     C14107   2.735   0.004   3.667  0.9243 -1.0592  0.2557
  846MOL0     C14108   2.672  -0.105   3.605  0.5841 -0.2249  0.7294
  846MOL0     C14109   2.737  -0.235   3.622  0.1599  0.2910 -0.4212
  846MOL0     C14110   2.847  -0.253   3.701 -0.0664  0.0906 -0.4165
  846MOL0     O14111   2.902  -0.376   3.714  0.6527  0.4732  0.0545
  846MOL0     C14112   2.974  -0.418   3.833  0.2834 -0.2598  0.1216
  846MOL0     C14113   3.018  -0.569   3.830 -0.2445 -0.0894  0.2599
  846MOL0     C14114   2.908  -0.674   3.863  0.4407 -0.5557 -0.0806
  846MOL0     C14115   2.784  -0.660   3.777 -0.1492 -0.0708  0.1142
  846MOL0     C14116   2.669  -0.753   3.819 -0.2969  0.0291 -0.0704
  846MOL0     C14117   2.580  -0.672   3.915 -0.7466 -0.3063 -0.3255
  846MOL0     C14118   2.507  -0.775   3.998 -0.3941  0.2579  0.5075
  846MOL0     C14119   2.464  -0.720   4.130  0.3704  0.1064  0.5524
  846MOL0    Cl14120   2.370  -0.843   4.211 -0.1209  0.2031 -0.6605
  846MOL0     C14121   2.900  -0.142   3.771 -0.5483  0.0764 -0.8051
  846MOL0     C14122   2.843  -0.013   3.748 -0.2389  0.1215  0.7056
  846MOL0     O14123   2.786   0.178   3.476  0.4911  0.0983  0.6073
  846MOL0     C14124   2.495   0.341   3.604 -1.4263 -0.4457 -0.5361
  846MOL0     C14125   2.411   0.447   3.585 -1.4289  0.9004 -0.6649
  846MOL0     N14126   2.081   1.116   2.976  0.2186 -0.2604  0.4273
  846MOL0     N14127   2.136   1.204   2.908  1.0794 -0.4891 -0.4165
  846MOL0     C14128   2.129   2.488   3.000 -0.0171 -0.2145 -0.1658
  846MOL0     C14129   2.023   2.580   3.026 -0.3340 -1.2360 -0.6290
  846MOL0     C14130   1.602   2.722   3.155  0.4127 -0.1082  0.0674
  846MOL0     C14131   1.636   2.844   3.204  0.4018 -1.0373 -0.4509
  846MOL0     C14132   1.529   2.940   3.237  0.1402 -0.5832  0.6705
  846MOL0     C14133   1.399   2.910   3.234 -0.4105  0.2013  0.5174
  846MOL0     O14134   1.305   3.011   3.248  0.0488  0.1061  0.3002
  846MOL0     C14135   1.335   3.154   3.265 -0.2527  1.0251 -0.4758
  846MOL0     C14136   1.382   3.175   3.406  0.3191 -0.1942 -1.0909
  846MOL0     C14137   1.256   3.161   3.507 -0.0936  0.6927 -0.5187
  846MOL0     C14138   1.307   3.188   3.650  0.3169  0.3107  0.5664
  846MOL0     C14139   1.422   3.104   3.679  0.2420  0.2734 -0.6472
  846MOL0     C14140   1.517   3.030   3.684  0.6729  0.9317 -0.1578
  846MOL0     C14141   1.372   2.777   3.202  0.5686 -0.2264 -0.2700
  846MOL0     C14142   1.463   2.679   3.171 -0.2466  0.3452 -0.0088
  846MOL0     H14143   1.856   2.363   3.222 -0.6415 -0.6620 -0.3973
  846MOL0     H14144   2.021   2.187   3.108  0.2874 -0.2139 -3.4771
  846MOL0     H14145   2.259   2.128   3.109 -0.5880 -0.1067 -1.3188
  846MOL0     H14146   2.172   2.091   2.953  0.0344 -1.6540 -1.1131
  846MOL0     H14147   2.377   2.089   2.840  0.7528 -1.1187 -0.8081
  846MOL0     H14148   2.461   2.155   2.994 -1.9571  0.1600  2.2245
  846MOL0     H14149   2.517   1.930   2.990  0.3146  2.2319  1.7622
  846MOL0     H14150   2.385   1.941   3.106 -1.1511 -2.3451  0.1327
  846MOL0     H14151   2.245   1.892   2.863  0.7769  1.7223 -1.3068
  846MOL0     H14152   2.397   1.847   2.805 -1.0711  1.9982 -1.2985
  846MOL0     H14153   2.317   1.688   3.052 -1.0380 -0.0095 -0.1411
  846MOL0     H14154   2.195   1.685   2.940 -0.2314 -3.2950  0.8706
  846MOL0     H14155   2.367   1.579   2.779 -2.0091  0.7792  1.0054
  846MOL0     H14156   2.500   1.599   2.899  0.6354  2.1199  0.6505
  846MOL0     H14157   2.395   1.462   3.068  1.4769 -1.6844 -0.7889
  846MOL0     H14158   2.237   1.480   2.986  1.1070  1.9098  3.4142
  846MOL0     H14159   2.470   1.292   2.915 -0.2330 -2.2675 -3.0712
  846MOL0     H14160   2.339   1.345   2.800  2.4036 -0.8157 -0.8233
  846MOL0     H14161   2.366   1.154   3.151  0.9102 -2.1851  0.1740
  846MOL0     H14162   2.092   1.050   3.279 -1.1223 -2.2181  1.1873
  846MOL0     H14163   2.029   0.941   3.161  0.9948 -1.1303  2.5629
  846MOL0     H14164   2.312   0.948   3.281  1.8472 -0.9720 -1.3930
  846MOL0     H14165   2.266   0.841   3.147 -1.3373  1.7396 -1.3902
  846MOL0     H14166   2.081   0.761   3.316 -0.5688  2.4774  2.3507
  846MOL0     H14167   2.199   0.833   3.427  2.4111  5.2105 -1.6708
  846MOL0     H14168   2.370   0.707   3.292  0.6175 -0.2129  0.7955
  846MOL0     H14169   2.233   0.593   3.255 -0.1854  1.4575  0.0370
  846MOL0     H14170   2.530   0.571   3.298  0.6198  0.5633  1.2519
  846MOL0     H14171   2.657   0.411   3.178  0.9772 -0.8047 -0.1767
  846MOL0     H14172   2.797   0.408   3.276  0.7020 -0.3446 -1.1606
  846MOL0     H14173   2.720   0.259   3.275 -1.2734 -0.7840  2.7327
  846MOL0     H14174   2.590  -0.095   3.535  0.8231  2.7799  0.7609
  846MOL0     H14175   2.693  -0.324   3.577  2.2591 -0.0231 -2.0162
  846MOL0     H14176   3.071  -0.369   3.836  0.9694 -1.6046  1.3063
  846MOL0     H14177   2.923  -0.394   3.926  1.8290  1.0643  0.6736
  846MOL0     H14178   3.070  -0.603   3.740  0.4349 -1.6350  1.1828
  846MOL0     H14179   3.097  -0.572   3.906 -0.5794 -2.2380  0.6062
  846MOL0     H14180   2.881  -0.653   3.967 -0.8245  2.8148 -0.9909
  846MOL0     H14181   2.959  -0.767   3.835 -0.5089 -0.2034 -3.2975
  846MOL0     H14182   2.752  -0.556   3.780  0.8002  0.2093  2.8093
  846MOL0     H14183   2.802  -0.690   3.673 -0.7612 -0.2166  0.0468
  846MOL0     H14184   2.695  -0.850   3.862 -1.2237 -1.1745 -2.1007
  846MOL0     H14185   2.613  -0.788   3.732  0.7309 -1.6287 -0.1047
  846MOL0     H14186   2.646  -0.608   3.974 -1.1063  1.5193 -1.7886
  846MOL0     H14187   2.515  -0.600   3.864 -0.8704 -1.4559 -1.8775
  846MOL0     H14188   2.565  -0.867   4.013  0.0995  0.3782 -0.5501
  846MOL0     H14189   2.412  -0.805   3.954  0.7193 -0.0449 -1.8551
  846MOL0     H14190   2.403  -0.632   4.106 -0.1087 -0.5027 -0.5277
  846MOL0     H14191   2.542  -0.692   4.202 -2.4140 -0.2587  4.0308
  846MOL0     H14192   2.983  -0.154   3.840 -2.3942  1.8999  1.9518
  846MOL0     H14193   2.866   0.078   3.803  1.5318  0.6260 -0.7582
  846MOL0     H14194   2.493   0.281   3.694  0.3953 -0.3983 -0.4215
  846MOL0     H14195   2.331   0.476   3.652 -2.8706  3.0979 -3.1406
  846MOL0     H14196   2.215   2.532   2.950  0.8739 -1.1003  0.5387
  846MOL0     H14197   2.034   2.680   2.986 -0.2437 -1.4389 -1.1187
  846MOL0     H14198   1.741   2.871   3.207  0.2978 -0.6332 -0.4968
  846MOL0     H14199   1.567   3.039   3.263 -1.4197 -0.6189  3.5147
  846MOL0     H14200   1.415   3.194   3.201  2.3285  0.5376  2.2362
  846MOL0     H14201   1.240   3.204   3.242 -2.6019 -2.8843 -0.1568
  846MOL0     H14202   1.407   3.282   3.413 -1.9922  0.3087  0.4527
  846MOL0     H14203   1.463   3.109   3.439  0.2066 -0.2353 -0.8971
  846MOL0     H14204   1.205   3.064   3.513 -1.5392  1.4395 -0.2261
  846MOL0     H14205   1.183   3.240   3.484  1.3560  2.2783  0.1481
  846MOL0     H14206   1.225   3.169   3.720  0.8497  0.6307  1.2911
  846MOL0     H14207   1.345   3.291   3.648  1.0272  0.0907 -2.2858
  846MOL0     H14208   1.604   2.967   3.679 -0.0869 -0.0854 -0.9769
  846MOL0     H14209   1.264   2.765   3.212  0.3537  1.4537 -0.1558
  846MOL0     H14210   1.411   2.585   3.153 -1.4068  0.7553  1.0812
  847MOL0     O14211   7.061   5.270   3.564  0.1500  0.6279 -0.0547
  847MOL0     C14212   6.953   5.329   3.564 -1.0287 -0.3341  0.1820
  847MOL0     O14213   6.933   5.449   3.499 -0.7383 -0.1528  0.1090
  847MOL0     C14214   7.040   5.504   3.432  0.1602 -0.3158  0.5826
  847MOL0     C14215   7.137   5.584   3.501 -0.4056  0.1467 -0.4360
  847MOL0     C14216   7.253   5.632   3.441  0.2969 -0.9248 -0.5282
  847MOL0     C14217   7.263   5.623   3.306  0.2143  0.4549  0.9127
  847MOL0     O14218   7.381   5.673   3.252  0.1125  0.5674  0.1140
  847MOL0     C14219   7.366   5.755   3.139  0.2753  0.0803 -0.3602
  847MOL0     C14220   7.453   5.877   3.147 -0.1983  0.0621  0.4573
  847MOL0     C14221   7.378   6.014   3.202 -0.3128  0.0314 -0.4556
  847MOL0     C14222   7.478   6.108   3.274 -0.0564  0.0297 -0.0358
  847MOL0     C14223   7.404   6.246   3.269 -0.7308  0.2840  0.1422
  847MOL0     C14224   7.455   6.345   3.369  0.0893  0.7808  0.4816
  847MOL0     C14225   7.391   6.482   3.350 -0.6985 -0.6516 -0.9775
  847MOL0     C14226   7.490   6.575   3.285 -0.4193 -0.1693  0.0088
  847MOL0     N14227   7.466   6.715   3.261 -0.7251  0.2276 -0.6537
  847MOL0     C14228   7.558   6.820   3.278  0.1559  0.0272 -0.4489
  847MOL0     C14229   7.499   6.945   3.246 -0.7482  1.4702 -0.5314
  847MOL0     C14230   7.557   7.086   3.251 -0.7365 -0.2125 -0.3552
  847MOL0     C14231   7.481   7.171   3.362  0.0620 -1.3244 -0.7709
  847MOL0     C14232   7.536   7.312   3.388  0.5679 -0.2187 -0.3680
  847MOL0     C14233   7.422   7.412   3.444 -0.2416 -0.2654  0.6225
  847MOL0     O14234   7.485   7.534   3.486  0.0095 -0.5612 -0.3569
  847MOL0     C14235   7.405   7.642   3.515 -0.1687 -0.1318  0.2715
  847MOL0     C14236   7.474   7.765   3.540  0.9815  0.0039  0.8687
  847MOL0     C14237   7.404   7.878   3.596 -0.7609  0.0585  0.8143
  847MOL0     C14238   7.487   8.004   3.630 -0.5918  0.0531  0.4228
  847MOL0     C14239   7.268   7.869   3.608  1.2672 -0.3370 -0.5223
  847MOL0     C14240   7.178   7.989   3.641 -0.2979 -0.1585 -0.6680
  847MOL0     O14241   7.040   7.983   3.615 -0.8234  0.0039 -0.8054
  847MOL0     C14242   6.966   8.093   3.664 -0.4646 -0.1501 -0.3024
  847MOL0     C14243   6.927   8.097   3.796  0.3327 -0.2368  0.0635
  847MOL0     C14244   6.872   8.207   3.846  0.8351 -0.2504  0.8816
  847MOL0     C14245   6.843   8.317   3.763  0.1184  0.4471  0.4888
  847MOL0     O14246   6.776   8.418   3.832  0.2112 -0.2655  0.4176
  847MOL0     C14247   6.726   8.529   3.770 -0.5226 -1.0319  0.3447
  847MOL0     C14248   6.652   8.620   3.872  1.2965 -0.0255  0.0042
  847MOL0     C14249   6.732   8.663   3.985 -0.3357 -0.1417 -0.3282
  847MOL0     C14250   6.665   8.762   4.078 -0.1282  0.3021  0.0565
  847MOL0     C14251   6.738   8.799   4.208  0.0790  0.1821 -0.5510
  847MOL0     C14252   6.665   8.913   4.265  0.0829  0.4126  0.3365
  847MOL0     C14253   6.707   8.939   4.405  0.4682 -0.1220  0.1640
  847MOL0     C14254   6.629   9.054   4.459  0.0909 -0.5317  0.6668
  847MOL0    Cl14255   6.733   9.129   4.587 -0.2658  0.0209 -0.6034
  847MOL0     C14256   6.884   8.314   3.632 -0.7749 -0.3146  0.2272
  847MOL0     C14257   6.956   8.207   3.583 -0.3582  0.9334 -0.2938
  847MOL0     O14258   7.226   8.089   3.694 -0.7941  0.2616  0.7764
  847MOL0     C14259   7.202   7.744   3.593  0.7690  0.3442  0.2070
  847MOL0     C14260   7.268   7.629   3.552 -0.1575 -0.4040  0.1921
  847MOL0     N14261   7.373   6.904   3.207 -0.6773 -0.1683  0.5597
  847MOL0     N14262   7.353   6.780   3.224  0.0265 -0.5391 -0.1971
  847MOL0     C14263   7.163   5.557   3.233  0.4252 -0.2729  0.1447
  847MOL0     C14264   7.042   5.495   3.293  0.1113 -0.0044 -0.4286
  847MOL0     C14265   6.836   5.248   3.607  0.1914  0.8452 -0.1136
  847MOL0     C14266   6.854   5.126   3.671 -0.0811  0.0870  0.0221
  847MOL0     C14267   6.742   5.050   3.701 -0.7178  0.9600 -0.5487
  847MOL0     C14268   6.610   5.085   3.671  0.2929 -0.6572 -0.3792
  847MOL0     O14269   6.502   4.996   3.700 -0.3639 -0.2908  0.3516
  847MOL0     C14270   6.371   5.033   3.656  0.2962  0.6377  0.4262
  847MOL0     C14271   6.266   5.053   3.780 -0.7138 -0.4795  0.1645
  847MOL0     C14272   6.323   5.156   3.881 -0.1907  0.8136  0.3016
  847MOL0     C14273   6.224   5.251   3.945  0.5316 -0.3906  0.0058
  847MOL0     C14274   6.121   5.179   4.029  0.2583 -0.7673  0.8405
  847MOL0     C14275   6.045   5.100   4.082  1.4758 -0.4207 -1.0434
  847MOL0     C14276   6.595   5.209   3.609 -0.0298  0.1390 -0.5877
  847MOL0     C14277   6.703   5.294   3.568 -0.1652  0.1433  0.3866
  847MOL0     H14278   7.122   5.590   3.608 -0.2532 -2.9289 -0.1289
  847MOL0     H14279   7.328   5.692   3.492  0.7658 -2.2648  0.4344
  847MOL0     H14280   7.390   5.702   3.047 -0.8659 -1.5969  0.2683
  847MOL0     H14281   7.265   5.794   3.128  0.8146  1.6028 -0.0890
  847MOL0     H14282   7.539   5.851   3.209 -1.2242 -4.0549  0.4477
  847MOL0     H14283   7.505   5.886   3.052  1.8318  0.4279  1.5402
  847MOL0     H14284   7.338   6.065   3.115  2.7001  1.4045 -1.1603
  847MOL0     H14285   7.297   5.997   3.274  0.8472  3.7620  2.0026
  847MOL0     H14286   7.494   6.076   3.377 -3.3406 -2.8531 -0.2137
  847MOL0     H14287   7.574   6.111   3.222 -0.3758 -2.3648 -0.8907
  847MOL0     H14288   7.400   6.295   3.171 -0.4180  4.9904  2.1773
  847MOL0     H14289   7.301   6.241   3.304 -0.4997  1.5496  1.0896
  847MOL0     H14290   7.441   6.305   3.470  3.0695  1.4002  1.2298
  847MOL0     H14291   7.564   6.349   3.365  0.1814 -1.0979 -3.0663
  847MOL0     H14292   7.303   6.472   3.285 -0.7069  1.1138 -1.2815
  847MOL0     H14293   7.367   6.526   3.447  1.0346 -1.1183 -0.3005
  847MOL0     H14294   7.510   6.527   3.189 -2.0147  1.5811 -1.2675
  847MOL0     H14295   7.579   6.556   3.345 -0.5374 -0.2535  0.1576
  847MOL0     H14296   7.660   6.805   3.313  0.3433  1.6777 -0.1930
  847MOL0     H14297   7.664   7.086   3.273 -0.8247 -0.9463  0.1253
  847MOL0     H14298   7.556   7.123   3.148  1.3329 -2.1448 -1.1582
  847MOL0     H14299   7.498   7.116   3.455  5.2298 -2.5771 -2.1053
  847MOL0     H14300   7.374   7.180   3.341 -0.4247 -1.5507  1.3495
  847MOL0     H14301   7.574   7.355   3.295  1.5621  0.2692  0.2507
  847MOL0     H14302   7.619   7.302   3.459  1.3354  1.2933 -0.9998
  847MOL0     H14303   7.378   7.372   3.536  0.1490  2.1355  1.9491
  847MOL0     H14304   7.342   7.420   3.371  0.5174 -3.0205 -0.6154
  847MOL0     H14305   7.582   7.765   3.524  1.1871 -1.2770  2.0506
  847MOL0     H14306   7.579   8.006   3.570 -0.6650 -2.9343  0.0587
  847MOL0     H14307   7.439   8.102   3.632  0.8624  0.8252  2.5069
  847MOL0     H14308   7.520   7.997   3.735 -2.8276  2.9326  1.4644
  847MOL0     H14309   6.931   7.996   3.838  1.4825 -1.8306 -3.5063
  847MOL0     H14310   6.836   8.214   3.948  0.3392 -3.4431  1.0334
  847MOL0     H14311   6.804   8.599   3.739 -1.0743  0.6142  2.4687
  847MOL0     H14312   6.673   8.525   3.675 -0.6114  2.6585  0.1116
  847MOL0     H14313   6.620   8.709   3.817 -1.9163 -0.1634  1.3900
  847MOL0     H14314   6.560   8.572   3.907  0.2197  3.0701  1.8162
  847MOL0     H14315   6.830   8.700   3.956  0.7341 -0.7071  2.2980
  847MOL0     H14316   6.759   8.574   4.043  2.7713  1.0300  0.1909
  847MOL0     H14317   6.656   8.856   4.022 -4.8274 -0.6439 -1.2427
  847MOL0     H14318   6.561   8.737   4.104  0.4656  1.6381  4.6784
  847MOL0     H14319   6.843   8.826   4.200  0.1625  0.3733  0.9047
  847MOL0     H14320   6.724   8.723   4.286 -0.2374  1.6091  0.8172
  847MOL0     H14321   6.685   9.004   4.206  0.1357 -0.5710 -1.2285
  847MOL0     H14322   6.560   8.885   4.256  0.8454 -1.9346 -3.0773
  847MOL0     H14323   6.814   8.961   4.406  0.4195  0.2896 -1.3153
  847MOL0     H14324   6.685   8.852   4.468 -0.0672  1.4028  2.2007
  847MOL0     H14325   6.527   9.035   4.494 -0.0999  0.0257  0.4158
  847MOL0     H14326   6.625   9.123   4.374  0.1608 -3.2993 -1.7587
  847MOL0     H14327   6.882   8.405   3.573 -0.6644 -1.2911 -1.3438
  847MOL0     H14328   6.995   8.207   3.482  2.2103  0.3125  0.6297
  847MOL0     H14329   7.096   7.757   3.613  0.6187  1.4070 -1.1254
  847MOL0     H14330   7.213   7.536   3.543  2.2366 -1.7704 -1.3772
  847MOL0     H14331   7.156   5.559   3.124 -4.9991  1.2952  0.2253
  847MOL0     H14332   6.966   5.440   3.239  0.2148 -2.2565  1.5450
  847MOL0     H14333   6.948   5.085   3.708 -1.2579 -1.9674  0.9195
  847MOL0     H14334   6.769   4.958   3.752 -0.0378  0.0225 -2.5366
  847MOL0     H14335   6.366   5.111   3.580  1.8524  0.4293  0.0834
  847MOL0     H14336   6.314   4.946   3.620 -3.1833  1.7108  2.8104
  847MOL0     H14337   6.241   4.956   3.824 -4.9134  0.3833  0.1284
  847MOL0     H14338   6.171   5.091   3.742 -1.3041 -0.1614  1.8418
  847MOL0     H14339   6.390   5.223   3.828  0.9030  1.9191  2.9192
  847MOL0     H14340   6.393   5.106   3.948  1.9314  2.9611 -0.2090
  847MOL0     H14341   6.181   5.320   3.871  0.8190 -1.0570 -0.8031
  847MOL0     H14342   6.276   5.318   4.014 -1.6090  0.9525  0.3986
  847MOL0     H14343   5.989   5.025   4.133  1.6931 -0.0863 -0.3003
  847MOL0     H14344   6.504   5.265   3.591 -1.0000 -1.2649 -0.2278
  847MOL0     H14345   6.679   5.396   3.540 -1.6514 -0.3259 -0.1546
  848MOL0     O14346   7.143  11.313   4.924 -0.4519  0.2273 -0.4401
  848MOL0     C14347   7.118  11.426   4.884 -0.5760 -0.7803  0.8550
  848MOL0     O14348   7.002  11.460   4.826  0.4393 -0.2900 -0.7940
  848MOL0     C14349   6.931  11.365   4.761 -0.1049 -0.5459  0.3906
  848MOL0     C14350   6.813  11.307   4.815 -0.2313  0.0507 -0.5714
  848MOL0     C14351   6.747  11.203   4.751  1.5347 -0.2575  0.5147
  848MOL0     C14352   6.796  11.159   4.624 -0.1922 -0.3778 -0.0685
  848MOL0     O14353   6.728  11.066   4.550  0.2985  0.0319  0.6674
  848MOL0     C14354   6.699  10.933   4.606 -0.1956 -0.8367 -0.9525
  848MOL0     C14355   6.681  10.855   4.471  0.0306 -1.1662  0.3696
  848MOL0     C14356   6.524  10.835   4.459 -0.7121 -1.1023 -0.6124
  848MOL0     C14357   6.504  10.744   4.345  0.6855 -0.2638 -0.7695
  848MOL0     C14358   6.357  10.700   4.355 -0.0382 -0.2517 -0.7274
  848MOL0     C14359   6.326  10.627   4.230  0.7131 -0.7294  0.4563
  848MOL0     C14360   6.262  10.715   4.124 -0.1330 -0.6568  0.5858
  848MOL0     C14361   6.106  10.711   4.116  0.4030 -0.8547  0.1914
  848MOL0     N14362   6.054  10.754   3.982  0.4792  0.0477  0.5176
  848MOL0     C14363   6.032  10.879   3.939  0.2527 -0.1731 -0.0941
  848MOL0     C14364   5.981  10.859   3.817  0.6750  0.2893  1.0517
  848MOL0     C14365   5.908  10.961   3.718 -0.8319  0.2771 -0.8380
  848MOL0     C14366   5.765  10.944   3.669  0.1259  0.8002 -0.2626
  848MOL0     C14367   5.730  11.072   3.594  1.1754  0.8030  0.1189
  848MOL0     C14368   5.605  11.033   3.501  1.6014 -0.1953 -0.1597
  848MOL0     O14369   5.641  10.921   3.417  0.1782 -0.0696 -0.0465
  848MOL0     C14370   5.548  10.857   3.335  0.0747 -0.5283 -0.1204
  848MOL0     C14371   5.590  10.741   3.268  0.2800  0.0311  0.1342
  848MOL0     C14372   5.503  10.664   3.191 -0.1770  0.0779  0.3465
  848MOL0     C14373   5.542  10.524   3.164 -0.4678 -0.4710  0.2512
  848MOL0     C14374   5.379  10.721   3.148  0.2656  0.1639  0.4264
  848MOL0     C14375   5.266  10.641   3.075 -0.6020 -0.3454  0.1119
  848MOL0     O14376   5.138  10.682   3.084 -0.6153 -0.9070  0.1060
  848MOL0     C14377   5.033  10.592   3.054 -1.1007  0.1588 -0.6181
  848MOL0     C14378   5.026  10.468   3.123  0.8033  0.4107 -0.3241
  848MOL0     C14379   4.916  10.377   3.116  0.1236 -0.2402  1.0258
  848MOL0     C14380   4.798  10.421   3.053  0.5963 -1.0745  0.7608
  848MOL0     O14381   4.676  10.349   3.059  0.5457 -0.0601  0.4932
  848MOL0     C14382   4.676  10.210   3.029  0.3328 -0.7030 -0.8495
  848MOL0     C14383   4.602  10.174   2.897 -0.9126  1.0471  0.8751
  848MOL0     C14384   4.642  10.247   2.766  0.3716 -0.4614  1.1679
  848MOL0     C14385   4.556  10.371   2.741  0.4759  0.7790 -0.3028
  848MOL0     C14386   4.619  10.457   2.626 -0.1124  1.0142 -0.0491
  848MOL0     C14387   4.522  10.575   2.576 -0.3789  0.2265  1.1655
  848MOL0     C14388   4.470  10.657   2.701 -0.1549 -0.5040  1.1701
  848MOL0     C14389   4.379  10.778   2.663  0.3210  0.3248  0.3768
  848MOL0    Cl14390   4.216  10.725   2.605  0.1120 -0.1884  0.0439
  848MOL0     C14391   4.795  10.545   2.976  0.1952 -0.1429 -0.5142
  848MOL0     C14392   4.914  10.623   2.980  0.6464  0.2781  0.0157
  848MOL0     O14393   5.303  10.543   3.017  0.4229  1.1683  0.8381
  848MOL0     C14394   5.349  10.848   3.192  0.0239 -0.2072 -0.0199
  848MOL0     C14395   5.425  10.909   3.303  0.3975 -0.2880  0.0994
  848MOL0     N14396   5.978  10.725   3.786 -0.3003 -0.1112 -0.1040
  848MOL0     N14397   6.020  10.659   3.886 -0.6808 -0.1694 -0.1076
  848MOL0     C14398   6.900  11.225   4.565 -0.2683  0.8795 -0.2434
  848MOL0     C14399   6.974  11.318   4.632 -0.5797 -0.0925 -0.5568
  848MOL0     C14400   7.206  11.543   4.912  0.2058  0.9035 -0.4435
  848MOL0     C14401   7.174  11.674   4.868 -0.4317  0.1864  0.2870
  848MOL0     C14402   7.264  11.781   4.897 -0.4279  0.3677  0.4709
  848MOL0     C14403   7.390  11.763   4.952 -0.2754 -0.4390  0.4845
  848MOL0     O14404   7.477  11.873   4.969 -0.9559  0.1630  0.2830
  848MOL0     C14405   7.465  11.986   4.889  0.0315  0.1019  0.1789
  848MOL0     C14406   7.600  12.060   4.891 -0.2702 -0.4872  0.0516
  848MOL0     C14407   7.623  12.117   5.029  0.0777 -0.1818  0.3888
  848MOL0     C14408   7.525  12.237   5.060  0.1667 -0.1533  0.0602
  848MOL0     C14409   7.552  12.307   5.185 -1.3583 -0.7561 -0.0423
  848MOL0     C14410   7.567  12.362   5.294  0.1375 -0.4002 -0.4166
  848MOL0     C14411   7.417  11.637   5.004 -0.9952  1.0359  0.0717
  848MOL0     C14412   7.331  11.530   4.983 -0.4796 -0.4206 -0.1698
  848MOL0     H14413   6.786  11.346   4.913  2.7756 -3.4955  1.9469
  848MOL0     H14414   6.661  11.153   4.796  2.2014 -2.0145 -0.0737
  848MOL0     H14415   6.777  10.882   4.663 -2.1811 -1.3981  1.4111
  848MOL0     H14416   6.603  10.945   4.657  0.8996  2.9173  0.5272
  848MOL0     H14417   6.721  10.914   4.388 -2.5856 -3.4511 -2.7868
  848MOL0     H14418   6.744  10.766   4.470  0.6891 -0.7094 -0.8951
  848MOL0     H14419   6.485  10.778   4.544 -0.1942 -1.9528 -0.9317
  848MOL0     H14420   6.472  10.931   4.457  2.2402  0.7395  2.2976
  848MOL0     H14421   6.529  10.795   4.252  0.2678  1.2994 -0.0618
  848MOL0     H14422   6.563  10.652   4.360 -0.2222 -0.8392 -0.6714
  848MOL0     H14423   6.339  10.652   4.452  2.0240  0.0611 -0.1575
  848MOL0     H14424   6.297  10.791   4.360 -2.7336 -1.8629 -1.2947
  848MOL0     H14425   6.418  10.580   4.194  0.5215  0.2633 -1.4830
  848MOL0     H14426   6.256  10.546   4.249 -0.0770  0.2499  1.9881
  848MOL0     H14427   6.296  10.819   4.128  0.3007 -0.7978  0.5781
  848MOL0     H14428   6.299  10.674   4.029 -3.9000 -0.8440 -0.9899
  848MOL0     H14429   6.067  10.777   4.194  1.8786  0.7849 -0.3888
  848MOL0     H14430   6.068  10.610   4.133 -0.1560 -0.8832 -1.1449
  848MOL0     H14431   6.034  10.967   4.003 -0.9112  1.1780 -1.8438
  848MOL0     H14432   5.908  11.056   3.772  2.1733  1.2013 -2.2375
  848MOL0     H14433   5.977  10.974   3.634  0.8878  0.4513  0.5616
  848MOL0     H14434   5.693  10.933   3.752 -5.0100  4.4962 -3.6201
  848MOL0     H14435   5.764  10.850   3.614 -1.8084  0.6398 -0.0316
  848MOL0     H14436   5.806  11.126   3.537  0.6328  1.5366  0.0649
  848MOL0     H14437   5.690  11.143   3.667  2.0824  2.0132 -0.5268
  848MOL0     H14438   5.588  11.125   3.445  0.5925  0.1055  0.6175
  848MOL0     H14439   5.520  11.008   3.565  1.4744  2.5053  0.8853
  848MOL0     H14440   5.688  10.702   3.293 -0.1777 -1.6674 -0.5496
  848MOL0     H14441   5.462  10.454   3.192 -1.6727  0.8805  0.3100
  848MOL0     H14442   5.572  10.510   3.060  2.8556 -1.4301  1.2050
  848MOL0     H14443   5.629  10.489   3.220  2.0255  0.4401 -2.7932
  848MOL0     H14444   5.098  10.435   3.198 -0.5128  1.8683  1.6971
  848MOL0     H14445   4.917  10.282   3.168 -1.9076 -1.6725 -1.3031
  848MOL0     H14446   4.780  10.179   3.014  0.8122  0.7470 -0.6962
  848MOL0     H14447   4.627  10.155   3.109 -3.0524 -0.8024 -2.8319
  848MOL0     H14448   4.617  10.068   2.875  0.0517  1.3198  0.1148
  848MOL0     H14449   4.495  10.184   2.918 -1.2605 -0.7657  0.1660
  848MOL0     H14450   4.613  10.178   2.686 -0.3872  0.5818  0.5185
  848MOL0     H14451   4.748  10.270   2.760  0.3772 -0.6067  0.6197
  848MOL0     H14452   4.461  10.329   2.706  0.9073 -1.6684  1.2299
  848MOL0     H14453   4.556  10.433   2.830  2.1173  1.5202 -0.7852
  848MOL0     H14454   4.654  10.393   2.545  4.2368  3.0497 -0.0291
  848MOL0     H14455   4.706  10.508   2.667  2.3922 -1.5362 -1.8204
  848MOL0     H14456   4.571  10.646   2.508  0.5411  2.3244  3.8432
  848MOL0     H14457   4.434  10.541   2.520 -0.5515 -0.7194  1.9954
  848MOL0     H14458   4.545  10.675   2.779  0.5577 -1.7435  0.8049
  848MOL0     H14459   4.407  10.581   2.749  0.0709 -2.3585 -1.2922
  848MOL0     H14460   4.434  10.841   2.593 -0.1889  0.4724  0.0981
  848MOL0     H14461   4.359  10.831   2.757 -0.0561 -1.8241  1.5787
  848MOL0     H14462   4.707  10.583   2.925 -0.2510  3.0495  2.3096
  848MOL0     H14463   4.914  10.723   2.938  0.3154  1.0592  1.7971
  848MOL0     H14464   5.263  10.892   3.143  0.8358  0.9711 -0.4393
  848MOL0     H14465   5.390  10.993   3.362 -1.7162 -0.7542 -0.4152
  848MOL0     H14466   6.927  11.194   4.464  4.3961  0.5579  0.8740
  848MOL0     H14467   7.056  11.380   4.598 -0.2141 -1.0077 -1.3944
  848MOL0     H14468   7.076  11.677   4.822 -1.2664 -1.1425  1.8883
  848MOL0     H14469   7.227  11.879   4.870  0.0924  0.7432  1.0921
  848MOL0     H14470   7.442  11.957   4.786 -4.4425 -0.6208  1.1910
  848MOL0     H14471   7.376  12.043   4.919  1.2424  1.3982  1.4470
  848MOL0     H14472   7.597  12.139   4.815  2.7521 -0.2237  0.0884
  848MOL0     H14473   7.686  11.999   4.864  0.1470 -0.2156  0.7591
  848MOL0     H14474   7.728  12.147   5.040 -0.1732  0.7713  0.2813
  848MOL0     H14475   7.616  12.026   5.090  1.3231 -0.6415 -0.1330
  848MOL0     H14476   7.431  12.183   5.074 -0.1738  0.9315  2.5441
  848MOL0     H14477   7.513  12.308   4.978  2.8695  0.6918  0.3173
  848MOL0     H14478   7.572  12.401   5.393 -0.5837  2.6432 -1.4806
  848MOL0     H14479   7.510  11.613   5.055 -0.3160  2.5249 -0.4086
  848MOL0     H14480   7.349  11.432   5.026 -1.7383 -1.6322 -2.2266
  849MOL0     O14481   5.335   2.502   9.628 -0.8558 -0.5791 -0.6708
  849MOL0     C14482   5.386   2.412   9.565 -0.4428  0.1180  0.7171
  849MOL0     O14483   5.474   2.319   9.613  0.0006  0.5563 -0.3889
  849MOL0     C14484   5.530   2.327   9.743  0.5773 -0.3225  0.4042
  849MOL0     C14485   5.663   2.371   9.750 -0.2134  0.9301  0.3974
  849MOL0     C14486   5.724   2.397   9.876 -0.4205 -0.5043  0.1129
  849MOL0     C14487   5.652   2.383   9.998 -0.2730 -0.4463  0.4309
  849MOL0     O14488   5.712   2.412  10.119  0.7035 -0.2374 -0.5414
  849MOL0     C14489   5.734   2.289  10.192  0.3596 -0.3668  1.1431
  849MOL0     C14490   5.799   2.314  10.322  0.3779  0.1956  0.1231
  849MOL0     C14491   5.701   2.391  10.416  0.6324  0.0709  0.4962
  849MOL0     C14492   5.667   2.315  10.545  0.1184  0.6949  0.8390
  849MOL0     C14493   5.579   2.408  10.630  0.3946 -0.1777  0.4015
  849MOL0     C14494   5.529   2.347  10.761 -0.0650  0.3102  0.7141
  849MOL0     C14495   5.413   2.417  10.830  0.1480 -0.5875  0.2468
  849MOL0     C14496   5.440   2.572  10.831  0.6797 -0.3696  0.5246
  849MOL0     N14497   5.360   2.627  10.950  0.4495 -0.4218  0.8275
  849MOL0     C14498   5.415   2.639  11.073  1.3332  0.0750  0.0453
  849MOL0     C14499   5.315   2.700  11.142 -0.2201  0.9789  0.3276
  849MOL0     C14500   5.327   2.720  11.289  0.5678  0.0121 -0.7572
  849MOL0     C14501   5.421   2.828  11.338  0.3374 -0.5882  0.9803
  849MOL0     C14502   5.448   2.815  11.491 -0.3806 -0.1963  0.4456
  849MOL0     C14503   5.507   2.951  11.535 -0.0733  0.4216  0.0602
  849MOL0     O14504   5.626   2.981  11.456 -0.1473 -0.0596  0.3758
  849MOL0     C14505   5.689   3.107  11.462 -0.7403  0.0842  0.2208
  849MOL0     C14506   5.767   3.134  11.353 -0.6986 -0.8009  0.6907
  849MOL0     C14507   5.852   3.246  11.354  0.0238  0.7627 -0.1062
  849MOL0     C14508   5.945   3.259  11.253 -0.1381  1.1923 -0.5462
  849MOL0     C14509   5.836   3.339  11.462  0.2606  0.7700  1.4333
  849MOL0     C14510   5.910   3.468  11.446  1.1026 -0.0819  0.0079
  849MOL0     O14511   5.944   3.532  11.568 -0.4056 -0.3781  0.8583
  849MOL0     C14512   6.009   3.657  11.537 -0.5961  0.4361 -1.0811
  849MOL0     C14513   6.150   3.653  11.545  0.6808 -0.5695 -0.6075
  849MOL0     C14514   6.225   3.771  11.532 -0.0127  0.2991 -0.4358
  849MOL0     C14515   6.159   3.894  11.492  1.0718 -0.1220  0.1911
  849MOL0     O14516   6.227   4.005  11.468  0.1228  0.2119 -0.2195
  849MOL0     C14517   6.193   4.125  11.541 -0.2904  0.0975 -1.3795
  849MOL0     C14518   6.315   4.202  11.559 -0.0913 -0.1640  0.0268
  849MOL0     C14519   6.440   4.129  11.615 -0.6184  0.1112  0.1719
  849MOL0     C14520   6.434   4.106  11.766  0.3303 -1.0899  0.6668
  849MOL0     C14521   6.568   4.079  11.830  0.4697 -0.1447 -0.1736
  849MOL0     C14522   6.548   4.009  11.967 -0.4568  0.0106  0.2990
  849MOL0     C14523   6.517   4.113  12.077 -0.2793 -0.1170  0.2377
  849MOL0     C14524   6.519   4.048  12.216  0.2709  0.4714 -1.0326
  849MOL0    Cl14525   6.400   3.911  12.223  0.7343 -0.5103  0.0946
  849MOL0     C14526   6.022   3.894  11.481  0.3552 -0.2536  0.2454
  849MOL0     C14527   5.949   3.777  11.501 -0.2988  0.8796 -0.2190
  849MOL0     O14528   5.920   3.520  11.336 -0.6139 -0.5110 -0.3576
  849MOL0     C14529   5.743   3.321  11.561  0.7933  1.0881  0.3444
  849MOL0     C14530   5.670   3.202  11.564 -0.4477  0.3632  0.1937
  849MOL0     N14531   5.201   2.714  11.068  0.1363  0.5296 -0.6914
  849MOL0     N14532   5.232   2.669  10.948 -0.8964 -0.1354  0.0316
  849MOL0     C14533   5.519   2.338   9.984  0.4568  1.3518  0.2616
  849MOL0     C14534   5.462   2.303   9.866  0.1784 -0.3682  0.3350
  849MOL0     C14535   5.357   2.415   9.423 -0.2083  0.4043 -0.3269
  849MOL0     C14536   5.350   2.546   9.369  0.2512  0.8406 -0.3162
  849MOL0     C14537   5.326   2.544   9.233 -0.3031  0.1025 -0.2964
  849MOL0     C14538   5.323   2.429   9.155 -1.3473  0.2938  0.2899
  849MOL0     O14539   5.308   2.436   9.022  0.2506  0.4577  0.4679
  849MOL0     C14540   5.236   2.537   8.953 -0.1998 -0.2425 -0.0900
  849MOL0     C14541   5.339   2.616   8.873  0.1152  0.1337  0.6686
  849MOL0     C14542   5.273   2.670   8.744  0.2968 -0.8005 -0.0378
  849MOL0     C14543   5.364   2.763   8.663 -0.5682 -0.7650 -0.3123
  849MOL0     C14544   5.374   2.892   8.734 -0.1996  0.4889  0.1382
  849MOL0     C14545   5.381   3.004   8.775 -0.7480  0.3171 -0.0441
  849MOL0     C14546   5.333   2.301   9.210 -0.1342  0.4166  0.2829
  849MOL0     C14547   5.342   2.297   9.352 -0.6205 -0.3309 -0.1308
  849MOL0     H14548   5.714   2.379   9.654  0.1070  2.3506  0.6557
  849MOL0     H14549   5.826   2.434   9.867  0.1182 -1.3431  2.2020
  849MOL0     H14550   5.632   2.254  10.205 -1.2546  3.2024 -0.4639
  849MOL0     H14551   5.806   2.229  10.135 -1.0431  0.5889 -1.8268
  849MOL0     H14552   5.824   2.217  10.365  1.8858 -0.4463 -2.0581
  849MOL0     H14553   5.888   2.377  10.308  1.5647 -2.0064 -3.3166
  849MOL0     H14554   5.752   2.482  10.448 -0.7925  0.3250  2.2152
  849MOL0     H14555   5.608   2.414  10.363  2.4387  4.7671 -1.0779
  849MOL0     H14556   5.617   2.223  10.515  1.1041  0.9475 -1.8437
  849MOL0     H14557   5.755   2.292  10.605  0.8965  1.9810  0.2458
  849MOL0     H14558   5.641   2.492  10.663 -0.4182  0.1285  1.2136
  849MOL0     H14559   5.502   2.448  10.563  1.7467 -0.3211 -1.2816
  849MOL0     H14560   5.502   2.242  10.746  1.5718 -0.3081  1.8252
  849MOL0     H14561   5.613   2.332  10.829 -0.3967 -0.9006  0.8867
  849MOL0     H14562   5.323   2.394  10.773  0.6336  0.3255 -0.9379
  849MOL0     H14563   5.429   2.367  10.926  2.4073 -1.6589 -0.6048
  849MOL0     H14564   5.409   2.623  10.739 -0.9609  3.5964  2.9966
  849MOL0     H14565   5.545   2.594  10.851  0.5227  2.9275 -1.5212
  849MOL0     H14566   5.510   2.595  11.102 -0.6504 -2.1057  3.9827
  849MOL0     H14567   5.240   2.752  11.346  2.5822  1.0436  1.9385
  849MOL0     H14568   5.349   2.619  11.326 -1.5295 -1.0944 -2.2790
  849MOL0     H14569   5.371   2.919  11.301 -1.0299 -0.5992  2.7060
  849MOL0     H14570   5.513   2.811  11.280 -0.5954 -3.6338  0.2312
  849MOL0     H14571   5.520   2.735  11.509 -1.1060 -0.3081  3.2310
  849MOL0     H14572   5.365   2.788  11.557 -0.1784  0.4638  0.9803
  849MOL0     H14573   5.531   2.941  11.641  3.4964 -1.5043 -0.7426
  849MOL0     H14574   5.421   3.018  11.533  0.6582  1.4745 -3.4295
  849MOL0     H14575   5.769   3.067  11.267 -0.7936 -0.8867  0.7561
  849MOL0     H14576   5.900   3.334  11.187 -0.9528  1.1183 -0.0868
  849MOL0     H14577   6.037   3.295  11.299  1.2925 -1.2984 -1.2860
  849MOL0     H14578   5.972   3.174  11.190  1.5728  1.5455 -0.3332
  849MOL0     H14579   6.207   3.566  11.577  1.4559  0.9231  2.4151
  849MOL0     H14580   6.332   3.780  11.548  0.2825  1.0250 -2.5129
  849MOL0     H14581   6.117   4.182  11.488 -1.3946 -0.4100 -0.3956
  849MOL0     H14582   6.141   4.105  11.636 -0.6883 -0.7838 -1.7734
  849MOL0     H14583   6.340   4.250  11.464 -1.9787 -1.9070 -1.4504
  849MOL0     H14584   6.278   4.278  11.628 -1.5303 -1.2863  0.5271
  849MOL0     H14585   6.518   4.199  11.585 -0.8873  0.3275 -0.0309
  849MOL0     H14586   6.460   4.032  11.567 -3.6594 -1.0211  0.8982
  849MOL0     H14587   6.399   4.202  11.804  3.0056  0.3284 -0.1450
  849MOL0     H14588   6.375   4.024  11.808 -4.7270  2.3112  1.0195
  849MOL0     H14589   6.630   4.167  11.846  0.6352  0.0412 -1.6968
  849MOL0     H14590   6.612   4.003  11.765 -1.5393 -2.2340  0.7543
  849MOL0     H14591   6.483   3.921  11.962  1.3474 -1.5528  2.2330
  849MOL0     H14592   6.633   3.941  11.973 -0.5741 -0.6491 -3.2932
  849MOL0     H14593   6.420   4.162  12.067 -0.4436 -0.5968 -0.6733
  849MOL0     H14594   6.597   4.188  12.086 -3.1130  2.9625  2.0320
  849MOL0     H14595   6.494   4.105  12.305 -0.9248 -3.1479  1.1676
  849MOL0     H14596   6.616   4.005  12.242  0.3319 -1.0521 -3.4870
  849MOL0     H14597   5.956   3.974  11.452  0.7392 -0.5066 -1.4192
  849MOL0     H14598   5.841   3.786  11.494 -0.4870 -1.1998 -0.5839
  849MOL0     H14599   5.713   3.385  11.643 -2.8652  1.0368 -0.7731
  849MOL0     H14600   5.617   3.175  11.655 -1.2943 -0.4683 -0.5284
  849MOL0     H14601   5.450   2.343  10.067  2.1234  0.4787  1.7546
  849MOL0     H14602   5.363   2.260   9.862  1.3222 -3.3602  1.4563
  849MOL0     H14603   5.371   2.636   9.426  0.8745  1.0421 -0.8502
  849MOL0     H14604   5.338   2.645   9.196 -1.9454  2.1925  4.0780
  849MOL0     H14605   5.168   2.482   8.888  0.6458  0.2283 -1.3991
  849MOL0     H14606   5.180   2.594   9.028  1.1812 -1.9084  2.3474
  849MOL0     H14607   5.420   2.550   8.842  0.5193 -0.3131  2.5452
  849MOL0     H14608   5.368   2.694   8.944 -3.7339  0.1568  2.5185
  849MOL0     H14609   5.178   2.711   8.780  0.0574 -2.8712  1.9676
  849MOL0     H14610   5.261   2.588   8.672  2.9317  0.9397 -2.6942
  849MOL0     H14611   5.312   2.781   8.568 -1.5121  2.7209  0.7222
  849MOL0     H14612   5.470   2.738   8.656  0.9502  2.8946  4.3064
  849MOL0     H14613   5.403   3.101   8.814  2.6673 -0.5101  0.3841
  849MOL0     H14614   5.324   2.220   9.137  0.1720  2.5021 -2.2347
  849MOL0     H14615   5.361   2.205   9.407 -1.6283 -2.9554 -3.7879
  850MOL0     O14616   1.239   6.748   5.882 -0.2974 -0.0743 -0.4182
  850MOL0     C14617   1.353   6.713   5.901 -0.1773 -0.8294  0.0497
  850MOL0     O14618   1.423   6.718   6.023 -0.5221 -0.6490  0.1387
  850MOL0     C14619   1.391   6.807   6.117 -0.1886  0.2273 -1.1945
  850MOL0     C14620   1.270   6.802   6.187 -0.3600 -0.7284  0.0941
  850MOL0     C14621   1.247   6.900   6.281  0.1701 -0.9656 -0.5714
  850MOL0     C14622   1.344   6.998   6.310  0.3595  0.1444  0.4975
  850MOL0     O14623   1.289   7.087   6.399  0.0163  0.6701  0.1420
  850MOL0     C14624   1.331   7.223   6.386 -0.3536  0.2453  0.0663
  850MOL0     C14625   1.233   7.315   6.464  0.1171  0.8009  1.6309
  850MOL0     C14626   1.237   7.313   6.611 -0.4662  0.2781  0.6057
  850MOL0     C14627   1.317   7.426   6.675  0.4355  0.9283 -0.1084
  850MOL0     C14628   1.328   7.420   6.832 -1.0750 -0.8967  0.1613
  850MOL0     C14629   1.478   7.445   6.862  0.0894 -0.7758  0.5642
  850MOL0     C14630   1.499   7.421   7.016 -0.0319 -0.3873  0.1569
  850MOL0     C14631   1.643   7.452   7.056  0.3904  0.1503 -0.0878
  850MOL0     N14632   1.735   7.363   6.994 -0.0414 -0.0936 -1.1229
  850MOL0     C14633   1.753   7.241   7.052 -0.4947  0.1595  0.3784
  850MOL0     C14634   1.852   7.186   6.982 -0.5392  0.7350 -0.1533
  850MOL0     C14635   1.909   7.045   7.012  0.0389  0.4231  0.8513
  850MOL0     C14636   1.977   6.975   6.893 -1.4047 -0.0622 -0.4297
  850MOL0     C14637   1.904   6.860   6.848 -0.7952 -0.6194 -0.6640
  850MOL0     C14638   1.970   6.792   6.730  1.2071 -0.3142  0.2241
  850MOL0     O14639   1.945   6.657   6.751  1.1644  0.4959 -0.7945
  850MOL0     C14640   1.968   6.568   6.650 -0.7017 -0.0199  0.0995
  850MOL0     C14641   2.000   6.592   6.517 -0.1010  0.0912  0.0775
  850MOL0     C14642   2.027   6.484   6.425 -0.6736 -1.0560 -0.0604
  850MOL0     C14643   2.063   6.534   6.283  0.3754 -1.0636  0.0668
  850MOL0     C14644   2.008   6.349   6.462  0.2328 -0.3517  0.2384
  850MOL0     C14645   2.025   6.232   6.378 -0.3352 -0.2953 -0.1399
  850MOL0     O14646   2.001   6.113   6.447  0.4960 -0.8078  0.0592
  850MOL0     C14647   2.024   5.999   6.389  0.8090  0.6969 -0.2790
  850MOL0     C14648   2.149   5.957   6.365 -0.1326  0.8494  0.5268
  850MOL0     C14649   2.176   5.824   6.310 -0.2890 -1.3073 -0.3760
  850MOL0     C14650   2.068   5.737   6.285  0.6971  0.9547  0.4397
  850MOL0     O14651   2.079   5.604   6.240  0.3860  0.3223 -0.1263
  850MOL0     C14652   2.206   5.565   6.185  0.5056  0.5051  0.4663
  850MOL0     C14653   2.214   5.609   6.035  0.1240  1.0225  0.5688
  850MOL0     C14654   2.103   5.559   5.936  0.4781  0.4292  0.2560
  850MOL0     C14655   2.108   5.586   5.783 -0.6777  0.7325 -0.4995
  850MOL0     C14656   1.971   5.590   5.721 -0.1683  0.4909  0.6209
  850MOL0     C14657   1.982   5.615   5.569  0.5168  0.1941 -0.4677
  850MOL0     C14658   1.844   5.623   5.518  0.3695 -0.4121 -1.6250
  850MOL0     C14659   1.789   5.488   5.486 -0.7690  0.4394  0.0974
  850MOL0    Cl14660   1.859   5.433   5.316  0.3640 -0.3140 -0.0264
  850MOL0     C14661   1.939   5.772   6.313  0.6474  0.0572 -0.2718
  850MOL0     C14662   1.920   5.904   6.362  0.6808 -0.4265  0.0800
  850MOL0     O14663   2.084   6.249   6.269  0.2344  0.3900  0.3463
  850MOL0     C14664   1.972   6.327   6.600 -0.1248 -0.3626 -0.3532
  850MOL0     C14665   1.954   6.436   6.686  0.1935  1.1465 -0.1190
  850MOL0     N14666   1.908   7.280   6.902 -0.6209 -0.4187 -0.5026
  850MOL0     N14667   1.843   7.392   6.920 -0.0773 -0.7617 -0.2902
  850MOL0     C14668   1.471   6.991   6.270  0.6589  0.5881  1.6855
  850MOL0     C14669   1.498   6.895   6.166 -0.1588  0.1537 -0.5483
  850MOL0     C14670   1.425   6.664   5.779  0.0423  0.2436 -0.3419
  850MOL0     C14671   1.547   6.734   5.741  0.3254 -0.8937  1.1472
  850MOL0     C14672   1.611   6.703   5.619 -0.6598 -0.2760 -0.6487
  850MOL0     C14673   1.552   6.614   5.529 -0.1648  0.5267  0.3360
  850MOL0     O14674   1.627   6.587   5.411  0.4750 -1.0180  0.7094
  850MOL0     C14675   1.575   6.490   5.319 -0.4366  0.7146  0.0102
  850MOL0     C14676   1.631   6.352   5.368  0.1809 -0.6658  0.4382
  850MOL0     C14677   1.784   6.363   5.394 -0.0406 -0.1231  0.2123
  850MOL0     C14678   1.861   6.413   5.274  0.1874  1.2175  0.1678
  850MOL0     C14679   2.005   6.392   5.293 -0.3510  0.7526  0.2578
  850MOL0     C14680   2.116   6.346   5.320 -0.4882  0.2654 -0.4027
  850MOL0     C14681   1.428   6.560   5.564  0.7568 -0.6151  0.5118
  850MOL0     C14682   1.367   6.581   5.686  0.2678 -0.6949 -0.1735
  850MOL0     H14683   1.185   6.737   6.169 -2.9446  3.2187 -4.1180
  850MOL0     H14684   1.145   6.908   6.317  0.9354 -3.1583  2.4361
  850MOL0     H14685   1.426   7.235   6.438 -0.9618  1.5779  0.9399
  850MOL0     H14686   1.337   7.251   6.280  0.4549 -0.4581 -0.0737
  850MOL0     H14687   1.255   7.419   6.439 -1.8903  1.9512  4.1703
  850MOL0     H14688   1.132   7.287   6.432  1.4112 -2.4096 -0.0349
  850MOL0     H14689   1.132   7.314   6.643  0.1740  2.2894  2.9708
  850MOL0     H14690   1.278   7.220   6.652 -0.3882  1.4295  3.3574
  850MOL0     H14691   1.410   7.405   6.622 -0.1503 -1.3615 -0.3257
  850MOL0     H14692   1.274   7.520   6.639  4.0246  3.1515  0.9348
  850MOL0     H14693   1.259   7.496   6.869 -2.2537 -2.5821  1.6094
  850MOL0     H14694   1.292   7.324   6.869 -2.4834 -0.2368  0.5613
  850MOL0     H14695   1.543   7.376   6.807  1.7599  1.8478 -0.9736
  850MOL0     H14696   1.505   7.547   6.834  0.4983 -0.3814  2.2652
  850MOL0     H14697   1.434   7.490   7.071  2.9997  1.2155  1.9966
  850MOL0     H14698   1.475   7.321   7.054 -0.5986 -0.2968  0.0498
  850MOL0     H14699   1.646   7.439   7.164  3.4500 -2.2132 -0.3373
  850MOL0     H14700   1.674   7.556   7.039 -2.5905  1.2226  0.5298
  850MOL0     H14701   1.695   7.198   7.133 -0.5505 -1.6700 -0.5650
  850MOL0     H14702   1.988   7.063   7.084  2.8777 -2.5379 -1.2256
  850MOL0     H14703   1.834   6.989   7.069 -0.4854 -0.3272 -0.4992
  850MOL0     H14704   2.076   6.936   6.916 -0.6271 -0.0095 -3.2882
  850MOL0     H14705   1.998   7.057   6.823 -1.8725  1.5439  1.2138
  850MOL0     H14706   1.804   6.889   6.816 -1.1374 -3.1034 -2.1772
  850MOL0     H14707   1.903   6.788   6.930  2.5071  1.0779  1.0792
  850MOL0     H14708   2.078   6.808   6.728  1.3586 -1.2754  0.4580
  850MOL0     H14709   1.926   6.828   6.637 -1.4683 -2.0562  0.7036
  850MOL0     H14710   2.007   6.692   6.476  0.3435 -0.3065 -0.8482
  850MOL0     H14711   2.059   6.643   6.272  1.5361 -1.0424 -0.1860
  850MOL0     H14712   2.164   6.496   6.267  1.6670  2.3218 -0.5043
  850MOL0     H14713   2.001   6.479   6.212  0.5392 -1.7850  0.4736
  850MOL0     H14714   2.235   6.021   6.380  0.0747  0.2025  2.4104
  850MOL0     H14715   2.280   5.805   6.286  0.2269  1.0517 -0.2650
  850MOL0     H14716   2.286   5.604   6.248  1.0724  0.0464  0.0493
  850MOL0     H14717   2.221   5.457   6.194  2.0049  0.4954 -1.3937
  850MOL0     H14718   2.219   5.718   6.020  0.3267  0.9953  0.4316
  850MOL0     H14719   2.308   5.573   5.992  1.0326  2.1520  1.5315
  850MOL0     H14720   2.003   5.574   5.979  0.4592 -2.3197  1.4122
  850MOL0     H14721   2.107   5.449   5.934  1.0527  0.4596 -0.4965
  850MOL0     H14722   2.161   5.679   5.761  0.3386  0.2224 -0.2895
  850MOL0     H14723   2.157   5.495   5.749 -0.4856 -0.2818  2.2485
  850MOL0     H14724   1.912   5.669   5.768 -2.1641 -1.4639  1.5572
  850MOL0     H14725   1.918   5.500   5.754  2.6123 -1.9048 -0.9470
  850MOL0     H14726   2.023   5.714   5.545  1.1822 -0.0831 -0.4804
  850MOL0     H14727   2.056   5.558   5.512  1.6433 -0.3860  1.4623
  850MOL0     H14728   1.850   5.693   5.435  2.8354 -0.0603 -1.2221
  850MOL0     H14729   1.787   5.671   5.599  0.8519  0.1007 -1.5826
  850MOL0     H14730   1.681   5.486   5.471 -0.9552 -2.0899  1.4257
  850MOL0     H14731   1.821   5.419   5.564  1.1865 -0.1622 -1.1449
  850MOL0     H14732   1.856   5.703   6.302  1.0417 -0.8199  1.6659
  850MOL0     H14733   1.826   5.944   6.399  0.5146 -0.7060 -0.0357
  850MOL0     H14734   1.955   6.233   6.652 -0.0292 -0.3837 -0.3611
  850MOL0     H14735   1.926   6.413   6.788  2.1820  3.0674  0.9540
  850MOL0     H14736   1.543   7.065   6.302  1.5442 -0.0048  1.0983
  850MOL0     H14737   1.596   6.909   6.122  1.1029 -1.8135  1.4156
  850MOL0     H14738   1.594   6.806   5.807  1.9314  0.1980 -1.0717
  850MOL0     H14739   1.699   6.756   5.583  0.1798 -1.5267 -0.5053
  850MOL0     H14740   1.466   6.481   5.319 -0.3635 -0.2194 -0.4598
  850MOL0     H14741   1.601   6.510   5.215 -2.0261  2.2047 -0.1517
  850MOL0     H14742   1.617   6.276   5.291  1.4905 -0.6594  0.1655
  850MOL0     H14743   1.574   6.319   5.455 -1.2931  0.9955  0.1729
  850MOL0     H14744   1.823   6.267   5.428  1.7008  0.5363  0.1658
  850MOL0     H14745   1.809   6.443   5.465  3.8933  0.2505 -1.3167
  850MOL0     H14746   1.847   6.521   5.257  0.4876  1.3057  0.4828
  850MOL0     H14747   1.821   6.348   5.195 -1.2193  0.6960  1.2584
  850MOL0     H14748   2.206   6.302   5.358  0.0158  2.5590  1.2815
  850MOL0     H14749   1.371   6.493   5.499  0.6782  1.3422 -1.5607
  850MOL0     H14750   1.268   6.540   5.700  0.0929 -0.3915 -0.4963
  851MOL0     O14751   6.087   6.794   6.436  0.1374  0.0312  0.2729
  851MOL0     C14752   6.051   6.878   6.519 -0.6974 -0.1973 -0.3656
  851MOL0     O14753   5.998   6.852   6.644  0.8332  0.0304  0.0033
  851MOL0     C14754   5.963   6.718   6.676  0.0256 -0.5847 -0.7378
  851MOL0     C14755   5.980   6.679   6.802 -0.3389 -1.1695 -0.2393
  851MOL0     C14756   5.967   6.549   6.847  0.6871  1.1157 -0.0642
  851MOL0     C14757   5.919   6.450   6.757 -0.3605  0.6237 -0.3137
  851MOL0     O14758   5.911   6.314   6.792 -0.7301 -0.4410  0.3778
  851MOL0     C14759   5.791   6.303   6.860  0.6538 -0.7214 -0.3938
  851MOL0     C14760   5.820   6.279   7.012 -0.4926  0.3836 -0.5887
  851MOL0     C14761   5.711   6.210   7.086  0.1232  0.3439  0.7435
  851MOL0     C14762   5.606   6.319   7.120  0.4352  0.1746  0.2926
  851MOL0     C14763   5.471   6.264   7.170  0.6923  0.0165 -0.2141
  851MOL0     C14764   5.485   6.161   7.281 -0.5151  0.1090 -0.5258
  851MOL0     C14765   5.544   6.223   7.410  0.6627 -0.9241 -0.3593
  851MOL0     C14766   5.443   6.243   7.519  0.0453 -0.6407 -0.4221
  851MOL0     N14767   5.316   6.295   7.457  0.4256  0.3458 -0.6843
  851MOL0     C14768   5.275   6.422   7.422  0.5749  0.2016 -0.1529
  851MOL0     C14769   5.145   6.405   7.381 -0.3101 -0.2749  0.2681
  851MOL0     C14770   5.068   6.520   7.319  0.5497  0.6666 -0.9873
  851MOL0     C14771   5.017   6.628   7.419 -0.6376  0.2503  0.2138
  851MOL0     C14772   4.946   6.752   7.357  1.0766 -0.2801  0.6849
  851MOL0     C14773   4.901   6.859   7.455  0.3757 -1.1749  0.5861
  851MOL0     O14774   4.788   6.806   7.525 -0.9855 -0.7415  0.4105
  851MOL0     C14775   4.659   6.840   7.486 -0.3968 -1.0069  0.1061
  851MOL0     C14776   4.558   6.808   7.572  0.7137  0.7843  0.4600
  851MOL0     C14777   4.426   6.851   7.567  0.0115 -0.3292 -0.0709
  851MOL0     C14778   4.333   6.800   7.678  0.7968  0.6104  0.0262
  851MOL0     C14779   4.390   6.934   7.456 -0.3893  0.1127  0.6860
  851MOL0     C14780   4.247   6.986   7.439 -1.1423 -0.1954 -0.3128
  851MOL0     O14781   4.150   6.936   7.511  1.1056  0.1131 -0.4969
  851MOL0     C14782   4.025   6.968   7.473  0.4357  0.2290  0.8369
  851MOL0     C14783   3.949   6.872   7.390 -0.4747 -1.1335  0.8771
  851MOL0     C14784   3.824   6.901   7.343 -0.6157 -0.8751 -0.4410
  851MOL0     C14785   3.758   7.026   7.369 -0.1870 -0.3550  0.2836
  851MOL0     O14786   3.638   7.055   7.306 -0.6987 -0.7486  0.5700
  851MOL0     C14787   3.524   7.012   7.379  0.6065  0.1546 -0.0701
  851MOL0     C14788   3.386   7.082   7.336 -0.2528  1.1573  0.6905
  851MOL0     C14789   3.368   7.111   7.185 -0.7284 -0.1272  0.3638
  851MOL0     C14790   3.270   7.238   7.176  0.2153 -0.0636  0.2898
  851MOL0     C14791   3.230   7.264   7.033  0.1528  0.3585 -0.0945
  851MOL0     C14792   3.149   7.143   6.972  0.6744  0.5085  0.4482
  851MOL0     C14793   3.093   7.200   6.840  0.0523  0.0232 -0.2294
  851MOL0     C14794   3.013   7.087   6.772 -0.1736  0.4060 -1.1130
  851MOL0    Cl14795   2.904   7.178   6.676  0.4942  0.0233  0.5032
  851MOL0     C14796   3.823   7.116   7.450 -0.3074 -0.3262  0.1329
  851MOL0     C14797   3.955   7.090   7.495  0.9078 -0.3824 -0.9649
  851MOL0     O14798   4.235   7.071   7.349  0.2530 -0.2529 -0.5341
  851MOL0     C14799   4.496   6.969   7.364 -0.4978  0.1606  0.1802
  851MOL0     C14800   4.622   6.919   7.369 -0.6480 -0.0344  0.3688
  851MOL0     N14801   5.112   6.272   7.399  0.2137 -0.1079  0.9936
  851MOL0     N14802   5.207   6.212   7.456  0.8418  0.0779  0.5947
  851MOL0     C14803   5.894   6.491   6.627 -0.6423  0.5653 -0.3712
  851MOL0     C14804   5.916   6.624   6.580  0.4858  0.7034  0.0096
  851MOL0     C14805   6.087   7.012   6.489 -0.4609  0.2714 -0.1167
  851MOL0     C14806   6.054   7.119   6.577 -0.0113 -0.5573 -1.1721
  851MOL0     C14807   6.061   7.252   6.534  0.4903 -0.4865  0.0912
  851MOL0     C14808   6.092   7.293   6.415 -0.2732 -0.2977 -0.0381
  851MOL0     O14809   6.102   7.434   6.392  0.6810  0.4295  0.1347
  851MOL0     C14810   6.135   7.480   6.254 -0.0101  0.7312  0.1315
  851MOL0     C14811   6.284   7.472   6.218  0.2348 -0.0574 -0.4399
  851MOL0     C14812   6.319   7.549   6.092 -0.4577 -0.5124 -0.0359
  851MOL0     C14813   6.238   7.515   5.959 -0.1348  0.2194  0.6705
  851MOL0     C14814   6.271   7.374   5.928  0.4093  0.6577 -0.2258
  851MOL0     C14815   6.301   7.262   5.887  0.4637 -0.5721 -0.0214
  851MOL0     C14816   6.129   7.193   6.329  0.1191  0.4083 -0.3818
  851MOL0     C14817   6.132   7.057   6.361 -0.6162 -0.9356  0.5361
  851MOL0     H14818   6.005   6.755   6.876  1.2183  1.3829 -3.1677
  851MOL0     H14819   6.000   6.537   6.950 -0.2420  0.8030  0.2086
  851MOL0     H14820   5.719   6.385   6.854  0.0371 -1.1218  1.1046
  851MOL0     H14821   5.733   6.216   6.828 -0.3548  0.2989 -1.4297
  851MOL0     H14822   5.908   6.215   7.023  0.9939  2.5080  0.7702
  851MOL0     H14823   5.849   6.371   7.064  1.0030 -0.8807  0.9667
  851MOL0     H14824   5.662   6.133   7.026  0.4401  0.7669 -0.0726
  851MOL0     H14825   5.753   6.172   7.180  1.8553  0.0792 -0.1031
  851MOL0     H14826   5.647   6.388   7.195 -0.8226 -1.0368  2.1770
  851MOL0     H14827   5.577   6.372   7.029 -1.3457 -0.3335  0.5304
  851MOL0     H14828   5.409   6.349   7.201 -1.0588 -2.1910  2.8536
  851MOL0     H14829   5.414   6.200   7.102 -2.1980 -0.1781  2.2059
  851MOL0     H14830   5.392   6.114   7.314 -0.7716  1.1143  0.2662
  851MOL0     H14831   5.541   6.072   7.252 -1.7995 -0.6343 -0.8102
  851MOL0     H14832   5.617   6.148   7.442  0.6038 -1.4109 -1.3109
  851MOL0     H14833   5.599   6.315   7.392  0.8793 -0.7462  1.1445
  851MOL0     H14834   5.488   6.304   7.598  0.6497 -0.3616 -0.9781
  851MOL0     H14835   5.420   6.146   7.564 -1.2973 -0.2644 -0.2634
  851MOL0     H14836   5.330   6.516   7.419  4.0635 -1.5725 -4.5141
  851MOL0     H14837   5.124   6.559   7.233  0.6702 -0.3310 -1.3751
  851MOL0     H14838   4.980   6.470   7.278 -1.1297  2.2936  0.4874
  851MOL0     H14839   5.107   6.654   7.476  0.0260  1.8291 -1.4690
  851MOL0     H14840   4.960   6.583   7.501 -0.5059  2.9556  1.9010
  851MOL0     H14841   4.861   6.725   7.293  0.4996 -1.9778  2.0880
  851MOL0     H14842   5.026   6.796   7.297  1.6620  3.8849  4.0664
  851MOL0     H14843   4.869   6.950   7.404  2.3413 -0.2450  0.9066
  851MOL0     H14844   4.988   6.878   7.518  0.8557  2.9082 -1.0336
  851MOL0     H14845   4.582   6.743   7.656  1.0143  1.5457  0.9725
  851MOL0     H14846   4.266   6.880   7.711 -0.0176  1.4616 -3.3048
  851MOL0     H14847   4.267   6.718   7.645 -1.5519  0.8277  3.5796
  851MOL0     H14848   4.389   6.762   7.764  0.3985  1.1778  0.5455
  851MOL0     H14849   4.003   6.783   7.361 -0.3231 -0.2107 -1.8930
  851MOL0     H14850   3.767   6.845   7.269 -2.4543  0.7200 -0.3297
  851MOL0     H14851   3.507   6.904   7.371 -1.1108  0.5175 -2.8054
  851MOL0     H14852   3.544   7.049   7.480  1.0993  0.0826 -0.1419
  851MOL0     H14853   3.306   7.016   7.370  2.0846 -2.7432 -0.6778
  851MOL0     H14854   3.381   7.175   7.394  1.3099  1.3550  0.5694
  851MOL0     H14855   3.332   7.016   7.143  0.7744 -0.1112 -1.0428
  851MOL0     H14856   3.457   7.143   7.130  0.2136 -1.0308  1.3097
  851MOL0     H14857   3.174   7.230   7.229 -1.0901  1.1137 -1.7572
  851MOL0     H14858   3.312   7.327   7.223  2.2623  1.1489 -3.4805
  851MOL0     H14859   3.321   7.285   6.975  2.0091  2.0203  3.1682
  851MOL0     H14860   3.166   7.352   7.025  0.1305  0.4779  1.2158
  851MOL0     H14861   3.209   7.058   6.939  0.2087  0.7500 -1.1260
  851MOL0     H14862   3.063   7.111   7.031 -0.7425 -0.3922 -1.9454
  851MOL0     H14863   3.169   7.243   6.774 -0.0947  4.3063  2.0367
  851MOL0     H14864   3.031   7.288   6.860  1.7635  0.9086  1.4518
  851MOL0     H14865   2.945   7.043   6.845  1.7170  2.3916  2.0561
  851MOL0     H14866   3.076   7.013   6.723 -1.5984 -1.5697 -0.0999
  851MOL0     H14867   3.777   7.207   7.487 -1.0094 -0.8696  0.6499
  851MOL0     H14868   3.995   7.162   7.565 -1.8155 -1.8714  2.4394
  851MOL0     H14869   4.474   7.041   7.285 -0.5879  0.7307  0.7170
  851MOL0     H14870   4.692   6.936   7.288 -1.0645 -3.5091 -0.8781
  851MOL0     H14871   5.852   6.428   6.549 -2.1008  1.4368 -0.3395
  851MOL0     H14872   5.892   6.643   6.476 -2.1695  0.2266  0.4726
  851MOL0     H14873   6.017   7.104   6.678  1.2425  0.4480 -0.5276
  851MOL0     H14874   6.038   7.329   6.608 -0.2343 -0.7462  0.1458
  851MOL0     H14875   6.068   7.438   6.179 -0.6024  1.8931 -0.0255
  851MOL0     H14876   6.110   7.587   6.254 -1.9588  0.3128  0.6439
  851MOL0     H14877   6.315   7.367   6.214 -1.3643 -0.5919  0.3510
  851MOL0     H14878   6.328   7.521   6.305 -0.4301 -1.5307  0.7780
  851MOL0     H14879   6.428   7.544   6.085 -0.5758 -3.8867 -1.0533
  851MOL0     H14880   6.293   7.650   6.127 -1.7415 -0.4898 -0.9703
  851MOL0     H14881   6.272   7.586   5.884 -1.6910  0.4423  0.1362
  851MOL0     H14882   6.133   7.540   5.974  0.2123  1.8527  0.6303
  851MOL0     H14883   6.319   7.164   5.848 -4.0925 -1.4224 -0.6147
  851MOL0     H14884   6.170   7.234   6.237  0.3597 -1.5298 -1.1829
  851MOL0     H14885   6.146   6.985   6.281  0.3734  0.1177 -0.2737
  852MOL0     O14886   9.719   4.572   8.895 -0.0318 -0.4050  0.0912
  852MOL0     C14887   9.667   4.465   8.929  0.2189  0.2956 -0.5432
  852MOL0     O14888   9.542   4.436   8.934 -0.9139  0.2452 -0.3361
  852MOL0     C14889   9.460   4.495   8.842 -0.1051  0.4132 -0.5723
  852MOL0     C14890   9.380   4.418   8.763 -0.3479 -0.0367 -0.8610
  852MOL0     C14891   9.267   4.464   8.689 -0.8088 -0.1510 -0.6347
  852MOL0     C14892   9.234   4.596   8.687 -0.4048 -0.5299 -1.1902
  852MOL0     O14893   9.133   4.642   8.599 -0.0385  0.6766 -1.1544
  852MOL0     C14894   9.187   4.672   8.466 -0.0925 -0.4885 -0.4789
  852MOL0     C14895   9.063   4.682   8.368  0.7101 -0.1747 -0.2773
  852MOL0     C14896   9.030   4.546   8.297 -0.4311  0.7247  0.4336
  852MOL0     C14897   8.978   4.432   8.398  0.0887  0.9750  0.3321
  852MOL0     C14898   8.951   4.293   8.326 -0.5514 -0.0905 -0.7174
  852MOL0     C14899   8.804   4.245   8.335  0.5410  0.0339 -0.3001
  852MOL0     C14900   8.759   4.250   8.483 -0.2199 -0.4779  0.7837
  852MOL0     C14901   8.618   4.188   8.503  0.3144  1.5118 -0.8811
  852MOL0     N14902   8.501   4.268   8.467 -0.3064  0.1860 -0.3155
  852MOL0     C14903   8.460   4.365   8.550  0.0484 -0.1976  0.2570
  852MOL0     C14904   8.371   4.426   8.459 -0.3320  0.8834  0.1310
  852MOL0     C14905   8.273   4.527   8.503 -1.0506  0.3041 -0.6401
  852MOL0     C14906   8.311   4.676   8.472 -0.2445 -0.6064  0.3080
  852MOL0     C14907   8.337   4.726   8.327  0.1864  1.4525  0.5886
  852MOL0     C14908   8.212   4.688   8.237 -0.2145 -0.2906  0.2321
  852MOL0     O14909   8.094   4.754   8.291  0.2452  0.3935 -0.3628
  852MOL0     C14910   7.985   4.757   8.210  0.1838  1.2038  0.3784
  852MOL0     C14911   7.881   4.839   8.254  0.4415 -0.3422 -1.0938
  852MOL0     C14912   7.771   4.865   8.176 -0.8339  0.3109  0.8917
  852MOL0     C14913   7.665   4.941   8.232  0.5006  0.3141 -0.7889
  852MOL0     C14914   7.776   4.817   8.041  0.3279 -1.0846 -0.5756
  852MOL0     C14915   7.679   4.867   7.941 -0.1766  0.8865 -0.6311
  852MOL0     O14916   7.552   4.877   7.983 -0.0890 -0.7052 -0.1515
  852MOL0     C14917   7.466   4.924   7.895  0.6279  0.0156 -0.1919
  852MOL0     C14918   7.407   4.827   7.813  0.4865  0.0191 -0.0607
  852MOL0     C14919   7.321   4.870   7.712 -0.6716  0.2889 -0.1955
  852MOL0     C14920   7.304   5.007   7.687  0.5718 -0.1885 -0.6278
  852MOL0     O14921   7.225   5.056   7.585 -0.2903  0.0620 -0.6502
  852MOL0     C14922   7.219   4.987   7.463 -0.1311 -0.8102 -0.3255
  852MOL0     C14923   7.124   5.066   7.363 -0.0518 -0.9041 -0.0085
  852MOL0     C14924   7.073   4.995   7.246  0.8336 -0.3766  0.3963
  852MOL0     C14925   7.190   4.939   7.163 -0.5413  0.3597 -0.7109
  852MOL0     C14926   7.268   5.039   7.081 -0.7204 -0.0938  0.8372
  852MOL0     C14927   7.401   4.962   7.043 -0.7046  0.7115 -1.0081
  852MOL0     C14928   7.502   5.057   6.980 -0.4331  0.1870 -0.2889
  852MOL0     C14929   7.638   4.989   6.939 -0.1664 -1.3489  0.4364
  852MOL0    Cl14930   7.773   5.094   6.977 -0.2070 -0.4790 -0.3260
  852MOL0     C14931   7.374   5.098   7.764  0.5438 -0.1440  0.4477
  852MOL0     C14932   7.455   5.057   7.869  0.7354 -0.0152 -0.9939
  852MOL0     O14933   7.721   4.874   7.823  0.9612  0.7542  0.3719
  852MOL0     C14934   7.869   4.719   8.000 -0.2247 -0.4142 -0.2732
  852MOL0     C14935   7.965   4.682   8.087 -1.0144  0.7204 -0.8476
  852MOL0     N14936   8.371   4.373   8.334  0.1602  0.7864  0.0062
  852MOL0     N14937   8.459   4.280   8.340 -0.3193  0.3782 -0.8839
  852MOL0     C14938   9.319   4.687   8.768  0.3102 -0.3419 -0.8229
  852MOL0     C14939   9.429   4.632   8.845  1.2973 -0.7872  0.2099
  852MOL0     C14940   9.759   4.356   8.982  0.1768 -0.3025  0.9097
  852MOL0     C14941   9.721   4.221   9.004  0.0522 -0.3151 -0.3971
  852MOL0     C14942   9.815   4.125   9.035 -0.5511 -0.6225 -0.0860
  852MOL0     C14943   9.950   4.168   9.044  0.2204  0.2639 -0.4878
  852MOL0     O14944  10.028   4.090   9.121 -0.4238  0.3154 -0.0425
  852MOL0     C14945  10.171   4.107   9.134 -0.0934 -0.5182 -0.9507
  852MOL0     C14946  10.234   4.057   9.010 -0.0956 -0.1723 -0.0788
  852MOL0     C14947  10.250   3.907   9.007 -0.1146 -0.5626 -0.0762
  852MOL0     C14948  10.117   3.834   9.032  0.6546  0.1786 -0.1338
  852MOL0     C14949  10.139   3.698   9.011  1.1906  0.1669  0.2772
  852MOL0     C14950  10.160   3.577   9.007 -0.3696  0.2011  0.5350
  852MOL0     C14951   9.987   4.304   9.024  0.3525  0.4368 -0.8412
  852MOL0     C14952   9.890   4.399   8.997  0.2966  0.1391 -0.2742
  852MOL0     H14953   9.397   4.313   8.747 -2.0523 -0.6946  1.0746
  852MOL0     H14954   9.217   4.394   8.622  1.6968  0.8011 -3.7892
  852MOL0     H14955   9.239   4.768   8.463 -0.7805 -0.1377 -2.3954
  852MOL0     H14956   9.255   4.597   8.425  1.2801  0.2486  0.3631
  852MOL0     H14957   8.979   4.719   8.427  0.2142 -1.5068 -0.1106
  852MOL0     H14958   9.077   4.747   8.282  0.4809  0.6808  0.3226
  852MOL0     H14959   8.962   4.558   8.213 -0.7780 -2.4098  0.1527
  852MOL0     H14960   9.122   4.509   8.251 -2.1529 -0.2715 -2.4617
  852MOL0     H14961   9.042   4.410   8.483 -1.3038 -1.7705  0.7949
  852MOL0     H14962   8.897   4.483   8.452 -1.3620 -0.4590 -0.4128
  852MOL0     H14963   8.975   4.287   8.220  0.5639 -1.3589 -0.4265
  852MOL0     H14964   9.008   4.212   8.373 -0.4957  1.3726  1.9437
  852MOL0     H14965   8.738   4.308   8.275 -4.1159 -0.8429  3.3638
  852MOL0     H14966   8.807   4.146   8.287 -1.9879 -0.5837  0.6788
  852MOL0     H14967   8.829   4.186   8.537 -1.5307 -1.4818  1.3509
  852MOL0     H14968   8.756   4.352   8.523  2.9070  1.1765 -2.5431
  852MOL0     H14969   8.611   4.151   8.605 -0.9100 -0.3248 -1.5742
  852MOL0     H14970   8.625   4.103   8.434  0.9669  0.2093  0.7301
  852MOL0     H14971   8.488   4.402   8.648 -1.0475  0.8901  0.1892
  852MOL0     H14972   8.170   4.516   8.468 -1.7021  4.7180 -0.5858
  852MOL0     H14973   8.277   4.525   8.612 -2.1201  2.8893 -0.5026
  852MOL0     H14974   8.402   4.693   8.531  1.8313 -2.1821 -2.1729
  852MOL0     H14975   8.219   4.727   8.499  0.2008  1.8390 -2.3521
  852MOL0     H14976   8.422   4.686   8.270  0.4443  4.7945 -1.7193
  852MOL0     H14977   8.344   4.836   8.326 -1.8789  1.6728 -2.1330
  852MOL0     H14978   8.210   4.579   8.239  1.1998 -0.4034  4.5171
  852MOL0     H14979   8.236   4.714   8.133 -0.6510 -0.6317  0.0454
  852MOL0     H14980   7.880   4.877   8.356 -2.9228  3.0522 -2.1446
  852MOL0     H14981   7.630   5.020   8.164 -0.2885 -0.0318 -0.7956
  852MOL0     H14982   7.570   4.886   8.234 -0.2325  1.4616 -1.8692
  852MOL0     H14983   7.675   5.001   8.322 -0.6862  1.8871 -1.6448
  852MOL0     H14984   7.424   4.722   7.834 -1.8905 -1.4438 -4.3196
  852MOL0     H14985   7.268   4.794   7.656  1.9099 -0.1318 -2.2555
  852MOL0     H14986   7.315   4.960   7.418  2.0949  1.3609  2.7041
  852MOL0     H14987   7.169   4.892   7.483 -1.8573 -0.2921 -1.9069
  852MOL0     H14988   7.037   5.094   7.424  1.2198  1.0136  1.0488
  852MOL0     H14989   7.175   5.159   7.337 -2.1536  0.8900  1.8887
  852MOL0     H14990   7.020   5.065   7.181  0.4026 -0.0375  1.1067
  852MOL0     H14991   6.992   4.926   7.269 -0.9460  1.5080  0.0081
  852MOL0     H14992   7.241   4.863   7.223  0.0434  0.0303 -1.5991
  852MOL0     H14993   7.156   4.863   7.092  1.3017  0.2392 -1.5224
  852MOL0     H14994   7.288   5.122   7.148 -2.0392 -0.8063  2.1608
  852MOL0     H14995   7.211   5.067   6.991 -1.6251 -2.6963  0.5051
  852MOL0     H14996   7.444   4.925   7.136 -2.7963 -0.4090 -0.4261
  852MOL0     H14997   7.389   4.867   6.990  0.1739 -2.2651  3.5531
  852MOL0     H14998   7.521   5.131   7.059  1.4992 -2.3940  1.8378
  852MOL0     H14999   7.461   5.115   6.896 -2.7872 -1.0866 -0.1214
  852MOL0     H15000   7.630   4.963   6.833 -1.9980  1.8631 -0.3686
  852MOL0     H15001   7.663   4.901   6.998  3.6873 -0.2952  0.6759
  852MOL0     H15002   7.371   5.203   7.734  0.0875 -0.1949  0.3057
  852MOL0     H15003   7.511   5.116   7.941  2.1889 -0.0604 -2.0416
  852MOL0     H15004   7.854   4.657   7.913 -1.9176 -3.7869  2.1774
  852MOL0     H15005   8.037   4.608   8.053  1.4936  1.1892  2.8201
  852MOL0     H15006   9.296   4.793   8.770 -4.0813 -1.0928 -1.4711
  852MOL0     H15007   9.495   4.700   8.898  0.0497 -1.5313  2.8448
  852MOL0     H15008   9.615   4.195   9.007  0.1096 -0.5878 -0.7086
  852MOL0     H15009   9.797   4.019   9.052  1.9355 -0.7019  3.1199
  852MOL0     H15010  10.206   4.208   9.156 -2.7842  1.4264 -4.5455
  852MOL0     H15011  10.194   4.036   9.214 -1.6455  0.7834  0.7036
  852MOL0     H15012  10.334   4.100   9.005 -0.3844  0.3826 -2.2780
  852MOL0     H15013  10.179   4.110   8.931  2.2254  3.1184  0.2981
  852MOL0     H15014  10.329   3.874   9.075 -0.3016 -0.9812 -0.0532
  852MOL0     H15015  10.268   3.880   8.902 -1.9740 -0.0735 -0.5573
  852MOL0     H15016  10.040   3.866   8.962  2.0016  1.7063 -0.9760
  852MOL0     H15017  10.077   3.858   9.132 -0.9181  0.0854 -0.7104
  852MOL0     H15018  10.205   3.481   8.991  2.6555  1.5988 -0.1030
  852MOL0     H15019  10.086   4.336   9.055 -0.6019  0.5124  2.5915
  852MOL0     H15020   9.922   4.499   8.968 -3.2771  0.8241 -2.4880
  853MOL0     O15021   2.671   6.035   0.875  0.6863 -0.5884  0.2245
  853MOL0     C15022   2.754   6.075   0.960  0.4546 -0.1586 -0.4800
  853MOL0     O15023   2.885   6.032   0.979 -0.0228  0.0497 -0.6806
  853MOL0     C15024   2.929   5.915   0.920  0.0521  1.0274 -0.3516
  853MOL0     C15025   2.885   5.789   0.973 -1.3193  0.0792  0.2414
  853MOL0     C15026   2.936   5.668   0.922 -0.0824  0.0122  0.1783
  853MOL0     C15027   3.040   5.673   0.830  0.2040 -0.6098 -0.0043
  853MOL0     O15028   3.117   5.567   0.775  0.3308  0.1897  0.2694
  853MOL0     C15029   3.057   5.437   0.785 -0.6000 -0.4141 -0.0470
  853MOL0     C15030   3.130   5.323   0.710  0.2821  0.0972  0.5876
  853MOL0     C15031   3.043   5.193   0.723 -0.5362  0.7050  0.5334
  853MOL0     C15032   3.045   5.136   0.868 -0.2147  0.2951 -0.0721
  853MOL0     C15033   2.978   4.996   0.871 -0.6692 -0.0611 -0.1823
  853MOL0     C15034   3.071   4.887   0.800 -0.0328  0.1815  0.8178
  853MOL0     C15035   3.008   4.743   0.812 -0.1436 -0.9026 -0.5082
  853MOL0     C15036   2.889   4.718   0.718  0.2570  0.8201 -0.4295
  853MOL0     N15037   2.910   4.754   0.583 -0.5060  0.2465 -0.0198
  853MOL0     C15038   2.868   4.865   0.519 -0.2617 -0.1982 -0.2489
  853MOL0     C15039   2.914   4.851   0.386  0.4637  0.0547 -0.0221
  853MOL0     C15040   2.912   4.954   0.267  0.2666  0.7358 -1.2946
  853MOL0     C15041   2.770   4.972   0.209 -0.5376 -0.6527  0.5091
  853MOL0     C15042   2.731   4.860   0.103  0.6975 -0.3864  0.0926
  853MOL0     C15043   2.584   4.875   0.052  0.1978  0.4410 -0.4063
  853MOL0     O15044   2.509   4.884   0.170  0.2582 -0.3097 -0.4433
  853MOL0     C15045   2.410   4.787   0.208 -0.2291  0.3747 -0.3622
  853MOL0     C15046   2.314   4.824   0.291 -0.2828  0.4456 -0.1460
  853MOL0     C15047   2.225   4.721   0.337  0.4648  0.8996  0.5630
  853MOL0     C15048   2.136   4.759   0.449  0.2581 -0.7224 -0.9394
  853MOL0     C15049   2.216   4.591   0.284  0.4478 -0.3082 -0.1666
  853MOL0     C15050   2.115   4.482   0.325 -1.1798 -0.9834  0.2400
  853MOL0     O15051   2.010   4.521   0.387  0.7413 -0.1391 -0.3027
  853MOL0     C15052   1.894   4.460   0.393  0.8788 -0.0323 -1.1155
  853MOL0     C15053   1.835   4.380   0.294 -0.0728  0.0140 -1.4606
  853MOL0     C15054   1.709   4.328   0.313  1.4914 -0.5329  0.1408
  853MOL0     C15055   1.641   4.340   0.435 -0.4768  0.3822  0.0124
  853MOL0     O15056   1.529   4.266   0.463  0.6309  0.3803  0.5487
  853MOL0     C15057   1.418   4.300   0.383 -0.6405 -0.2083 -0.1151
  853MOL0     C15058   1.283   4.271   0.451 -0.0190 -0.0694  0.0371
  853MOL0     C15059   1.262   4.333   0.590 -0.0839  0.5742  0.7323
  853MOL0     C15060   1.128   4.279   0.647 -0.6171  0.1627 -0.9056
  853MOL0     C15061   1.081   4.346   0.769  0.4128  0.2425  0.1447
  853MOL0     C15062   0.941   4.303   0.813  0.9040 -0.6122 -0.9776
  853MOL0     C15063   0.926   4.175   0.887  0.0042 -0.0984  0.9188
  853MOL0     C15064   0.779   4.147   0.927 -0.6254  0.1083  0.6889
  853MOL0    Cl15065   0.711   4.278   1.033 -0.6638 -0.1419 -0.1484
  853MOL0     C15066   1.700   4.413   0.537  0.3092  0.3186  1.1886
  853MOL0     C15067   1.829   4.472   0.519  0.3275  0.5235 -0.0924
  853MOL0     O15068   2.141   4.369   0.296 -0.2109  0.6646 -0.1459
  853MOL0     C15069   2.305   4.566   0.179  0.3870 -0.2886 -0.1048
  853MOL0     C15070   2.402   4.657   0.153 -0.7679 -0.4114  0.2711
  853MOL0     N15071   2.984   4.733   0.386  0.8828 -0.1763 -0.3398
  853MOL0     N15072   3.001   4.691   0.503 -0.1308 -0.3068  0.0919
  853MOL0     C15073   3.085   5.797   0.782 -0.0141 -0.1972  1.3318
  853MOL0     C15074   3.028   5.913   0.825  0.1230 -0.2544  0.2417
  853MOL0     C15075   2.705   6.189   1.051 -0.1668 -0.4087  0.4633
  853MOL0     C15076   2.791   6.296   1.072  0.9033 -0.2310  0.0911
  853MOL0     C15077   2.759   6.392   1.173 -0.7630  0.4081  0.2391
  853MOL0     C15078   2.642   6.383   1.243  0.9300  0.0109 -0.4621
  853MOL0     O15079   2.612   6.470   1.347 -0.2046 -0.2076 -0.1807
  853MOL0     C15080   2.690   6.428   1.468  0.1128  0.0859  0.0929
  853MOL0     C15081   2.658   6.517   1.592  0.3310 -0.7307 -0.4384
  853MOL0     C15082   2.647   6.656   1.546  0.6308 -0.5545  0.1043
  853MOL0     C15083   2.617   6.762   1.653 -0.2152  0.7214 -0.4048
  853MOL0     C15084   2.722   6.767   1.753  0.7520  0.3666  0.4997
  853MOL0     C15085   2.823   6.771   1.820  0.2629  0.0255  0.8313
  853MOL0     C15086   2.552   6.275   1.224  0.0412 -0.4832 -0.6454
  853MOL0     C15087   2.580   6.179   1.132 -1.5185 -0.4981 -0.6222
  853MOL0     H15088   2.801   5.784   1.041 -1.7201  0.2526 -0.2261
  853MOL0     H15089   2.903   5.569   0.952  3.1711 -0.9296  1.0063
  853MOL0     H15090   3.055   5.414   0.892 -0.9393 -0.4353 -0.0574
  853MOL0     H15091   2.955   5.450   0.749 -0.7903  0.9892  0.9144
  853MOL0     H15092   3.129   5.356   0.605 -0.0871  3.1252  1.4321
  853MOL0     H15093   3.230   5.312   0.752  1.2126 -0.1363 -1.5358
  853MOL0     H15094   2.945   5.217   0.681 -0.9092  1.4542  1.7503
  853MOL0     H15095   3.087   5.129   0.647  0.4861  2.4145 -0.3645
  853MOL0     H15096   3.150   5.121   0.895 -0.2622  1.0769  0.6028
  853MOL0     H15097   2.994   5.206   0.935  1.1235  0.9631  0.2824
  853MOL0     H15098   2.962   4.964   0.974  1.3395  0.8892  0.4843
  853MOL0     H15099   2.882   5.001   0.819 -2.0917 -3.5932  1.7727
  853MOL0     H15100   3.082   4.907   0.693  0.1144 -1.3047  0.5335
  853MOL0     H15101   3.170   4.881   0.847  1.2249  2.5375 -1.3212
  853MOL0     H15102   3.079   4.674   0.767  0.2267  0.1709 -1.6405
  853MOL0     H15103   3.000   4.717   0.918  1.7881 -1.9996 -0.5955
  853MOL0     H15104   2.799   4.765   0.758  1.1135 -0.0292  2.7901
  853MOL0     H15105   2.865   4.612   0.729 -0.4805  1.0784  0.5212
  853MOL0     H15106   2.837   4.958   0.566  1.7746  0.4299 -0.0453
  853MOL0     H15107   2.962   5.045   0.302 -0.3305 -0.3799  3.0039
  853MOL0     H15108   2.980   4.921   0.187  0.5180  1.4721 -1.3856
  853MOL0     H15109   2.759   5.067   0.155  1.0283  0.0448  1.3370
  853MOL0     H15110   2.700   4.957   0.291 -0.0962 -3.4900  0.4871
  853MOL0     H15111   2.745   4.772   0.166  0.9823 -1.8712 -1.9164
  853MOL0     H15112   2.787   4.850   0.009 -1.3707 -0.5454 -1.1659
  853MOL0     H15113   2.559   4.790  -0.012 -0.0076 -0.4458  0.8064
  853MOL0     H15114   2.575   4.970  -0.003 -1.1247  1.6133  1.6995
  853MOL0     H15115   2.282   4.922   0.327 -1.9820  0.0532 -0.4736
  853MOL0     H15116   2.132   4.680   0.525 -0.1543  1.5193  1.5278
  853MOL0     H15117   2.159   4.852   0.502 -2.0989 -0.7255  0.1896
  853MOL0     H15118   2.036   4.770   0.408 -0.3104  0.2858  0.6220
  853MOL0     H15119   1.883   4.351   0.201  0.8959  0.4588 -1.1014
  853MOL0     H15120   1.653   4.277   0.236 -1.0458  1.2387  0.6784
  853MOL0     H15121   1.434   4.404   0.354 -0.2975 -0.0456  0.6436
  853MOL0     H15122   1.430   4.243   0.290  0.0033  0.2472 -0.3164
  853MOL0     H15123   1.208   4.321   0.389 -1.4593  1.5790  2.9221
  853MOL0     H15124   1.260   4.164   0.453 -0.1665 -0.0996 -1.6363
  853MOL0     H15125   1.247   4.441   0.580  0.2788  0.4855 -0.9085
  853MOL0     H15126   1.339   4.319   0.666 -2.0557 -0.0859  2.7205
  853MOL0     H15127   1.055   4.309   0.571 -0.2366 -1.6453 -2.0572
  853MOL0     H15128   1.124   4.169   0.653  0.7064  0.1593  0.5908
  853MOL0     H15129   1.098   4.454   0.763  0.8389  0.1559 -0.3276
  853MOL0     H15130   1.152   4.313   0.846 -0.0936  3.4544  2.1836
  853MOL0     H15131   0.887   4.377   0.873 -0.0733 -1.0367 -1.3148
  853MOL0     H15132   0.874   4.299   0.727  0.6057 -2.0405 -0.7072
  853MOL0     H15133   0.992   4.178   0.974  2.5444  3.1551 -0.8763
  853MOL0     H15134   0.959   4.098   0.817 -0.0891  1.0997 -0.5099
  853MOL0     H15135   0.784   4.052   0.979  0.4696 -0.2133  0.0270
  853MOL0     H15136   0.717   4.136   0.837 -0.7208 -1.5506  0.9427
  853MOL0     H15137   1.658   4.407   0.637 -0.1563 -0.7134  0.9438
  853MOL0     H15138   1.890   4.512   0.599 -0.5163 -1.4847  1.6284
  853MOL0     H15139   2.311   4.471   0.128 -2.6900 -1.0142  0.6625
  853MOL0     H15140   2.479   4.630   0.082  0.4034 -0.4008  1.5038
  853MOL0     H15141   3.169   5.810   0.714 -0.2032 -0.1247  1.1141
  853MOL0     H15142   3.088   6.001   0.804  0.0210 -0.4946 -1.1209
  853MOL0     H15143   2.885   6.305   1.018  0.9191  1.6780  0.3551
  853MOL0     H15144   2.832   6.465   1.206  0.3779 -0.3987 -0.4685
  853MOL0     H15145   2.688   6.321   1.490  0.6728 -0.0075 -0.2967
  853MOL0     H15146   2.793   6.447   1.437  0.0372 -0.1756 -0.3171
  853MOL0     H15147   2.729   6.513   1.676  1.3806 -0.2493 -1.2826
  853MOL0     H15148   2.563   6.477   1.630 -0.4107 -1.8598 -3.2367
  853MOL0     H15149   2.561   6.661   1.478 -0.6412  2.5291  1.7493
  853MOL0     H15150   2.731   6.692   1.485  0.5701  1.3197  1.0720
  853MOL0     H15151   2.523   6.745   1.707 -0.5866  0.6073 -1.0834
  853MOL0     H15152   2.607   6.860   1.605 -2.8149 -0.5365 -2.6649
  853MOL0     H15153   2.912   6.768   1.879  0.9177 -1.7738 -0.1691
  853MOL0     H15154   2.453   6.261   1.266 -1.1036  2.0406 -2.2442
  853MOL0     H15155   2.514   6.099   1.101 -2.5336  0.8449 -2.0985
  854MOL0     O15156   3.388   5.735   6.031 -0.6988  0.5008  0.0345
  854MOL0     C15157   3.303   5.819   6.043  0.4407 -0.7912  0.1149
  854MOL0     O15158   3.327   5.949   6.042  0.6601  0.0231 -0.4301
  854MOL0     C15159   3.457   5.992   6.039 -0.5328 -0.0730 -0.2226
  854MOL0     C15160   3.537   5.996   5.926 -0.3103  0.0742  0.5750
  854MOL0     C15161   3.674   6.036   5.957 -0.4866  0.6978 -0.9539
  854MOL0     C15162   3.717   6.082   6.088  0.0256  0.7124  0.4733
  854MOL0     O15163   3.843   6.122   6.138  0.6329 -0.3836  0.0637
  854MOL0     C15164   3.946   6.035   6.099  0.0784  0.7627  0.2200
  854MOL0     C15165   4.065   6.091   6.168  0.6956  0.6806  1.0887
  854MOL0     C15166   4.086   6.070   6.313  0.3324  0.5699 -0.0353
  854MOL0     C15167   4.231   6.065   6.350 -0.4788 -0.1565  0.2030
  854MOL0     C15168   4.300   6.201   6.367  0.3539  0.1500 -0.6733
  854MOL0     C15169   4.214   6.322   6.429 -0.1963 -0.1285 -0.4613
  854MOL0     C15170   4.204   6.306   6.584  0.0977  0.1530  0.9826
  854MOL0     C15171   4.340   6.318   6.653  0.1261 -0.5627 -0.0712
  854MOL0     N15172   4.329   6.241   6.777 -0.1587 -0.0772 -0.1602
  854MOL0     C15173   4.299   6.304   6.903  0.6158  0.4887 -0.1151
  854MOL0     C15174   4.330   6.206   6.990  0.6212  1.8496  0.2018
  854MOL0     C15175   4.324   6.206   7.142 -0.1213  0.1362 -0.5236
  854MOL0     C15176   4.405   6.320   7.197 -1.0562  0.7627 -0.0844
  854MOL0     C15177   4.424   6.324   7.347 -0.8028  0.4360 -0.3338
  854MOL0     C15178   4.307   6.385   7.412  0.1914 -0.5988  0.3899
  854MOL0     O15179   4.181   6.331   7.392  0.1374 -0.5800  0.1432
  854MOL0     C15180   4.068   6.385   7.435  0.8486 -0.3769 -0.5223
  854MOL0     C15181   3.940   6.322   7.412  0.6959  0.4758 -1.0059
  854MOL0     C15182   3.817   6.385   7.459  0.3731  0.3174  0.1860
  854MOL0     C15183   3.675   6.336   7.406 -0.0314  0.1884  0.1353
  854MOL0     C15184   3.824   6.494   7.554  0.8310  0.6009  0.6050
  854MOL0     C15185   3.704   6.560   7.612  0.1862 -0.0041  0.1129
  854MOL0     O15186   3.722   6.694   7.612  0.1045 -0.1068 -0.3793
  854MOL0     C15187   3.608   6.769   7.635  0.1078 -0.5117 -0.3521
  854MOL0     C15188   3.481   6.742   7.570  0.0043 -0.6549 -0.5303
  854MOL0     C15189   3.363   6.809   7.607 -0.3533 -0.7171  1.3512
  854MOL0     C15190   3.370   6.931   7.680  0.2729 -0.0704  0.0362
  854MOL0     O15191   3.256   6.983   7.730  0.4577 -0.6659  0.7543
  854MOL0     C15192   3.250   7.124   7.749 -0.0657  0.2341  0.1560
  854MOL0     C15193   3.167   7.147   7.876 -0.5616  0.0579  0.0274
  854MOL0     C15194   3.230   7.124   8.013 -0.3381  0.0668  0.4852
  854MOL0     C15195   3.155   7.189   8.130  0.2726  0.1270 -0.4557
  854MOL0     C15196   3.230   7.169   8.259 -0.1908 -0.9905 -0.1744
  854MOL0     C15197   3.229   7.029   8.323 -0.2252  0.2626  0.6741
  854MOL0     C15198   3.090   6.966   8.335  0.3720  1.1190 -0.1049
  854MOL0     C15199   3.098   6.862   8.455  0.3638  0.3521 -0.0865
  854MOL0    Cl15200   3.088   6.969   8.600 -0.0987  0.5980 -0.3088
  854MOL0     C15201   3.499   6.971   7.730  0.3262 -0.3677  0.8541
  854MOL0     C15202   3.612   6.888   7.707 -0.4687 -1.1204  0.0551
  854MOL0     O15203   3.601   6.497   7.649 -0.0299  0.3783 -0.2751
  854MOL0     C15204   3.950   6.541   7.580 -1.2576 -0.0753 -0.4183
  854MOL0     C15205   4.068   6.494   7.524  0.8188  1.0611  0.8150
  854MOL0     N15206   4.374   6.093   6.910  0.7221 -0.4109 -1.0141
  854MOL0     N15207   4.386   6.115   6.789  0.0875 -0.8077  0.2950
  854MOL0     C15208   3.624   6.110   6.182 -0.7374  0.2897 -1.0378
  854MOL0     C15209   3.493   6.060   6.161  0.7898 -0.4925  0.3773
  854MOL0     C15210   3.162   5.770   6.032 -0.7927 -0.5033 -0.0278
  854MOL0     C15211   3.049   5.840   6.088 -0.5011 -0.2807 -0.5595
  854MOL0     C15212   2.923   5.787   6.067 -0.2804 -0.2359 -0.7501
  854MOL0     C15213   2.895   5.670   5.992  0.0503 -0.8918 -0.7264
  854MOL0     O15214   2.763   5.650   5.958 -0.4122 -0.2910 -0.6282
  854MOL0     C15215   2.751   5.635   5.820  0.7781 -0.2494  1.0379
  854MOL0     C15216   2.600   5.647   5.794 -0.0231  0.4177 -0.7406
  854MOL0     C15217   2.595   5.661   5.640 -0.2349  0.9764  0.7156
  854MOL0     C15218   2.433   5.661   5.606  0.6336 -0.8388  0.8144
  854MOL0     C15219   2.407   5.717   5.471 -0.0641  1.7391 -0.5455
  854MOL0     C15220   2.393   5.733   5.353 -0.3220  0.0274 -0.0111
  854MOL0     C15221   3.004   5.599   5.946 -0.6580  1.2011 -0.1539
  854MOL0     C15222   3.132   5.642   5.980  1.8733  0.6610  1.4934
  854MOL0     H15223   3.511   5.971   5.824  2.2802  1.3295 -0.4848
  854MOL0     H15224   3.739   6.025   5.871 -0.2663 -1.0086 -0.6149
  854MOL0     H15225   3.928   5.934   6.137 -2.0508  0.3812 -1.5700
  854MOL0     H15226   3.969   6.033   5.992  3.7957 -3.8751  0.7965
  854MOL0     H15227   4.152   6.066   6.106 -0.5447 -1.1127 -0.0023
  854MOL0     H15228   4.054   6.198   6.147  0.5079  0.5325  0.3817
  854MOL0     H15229   4.023   6.137   6.372 -0.3541 -2.0906  2.5073
  854MOL0     H15230   4.048   5.973   6.349 -2.6627  0.8431 -2.0953
  854MOL0     H15231   4.243   6.022   6.450  0.6381  5.0417  2.6332
  854MOL0     H15232   4.295   6.002   6.288  0.9251  3.4252 -2.3159
  854MOL0     H15233   4.390   6.172   6.420 -0.2262  0.6238  0.6144
  854MOL0     H15234   4.324   6.235   6.266 -0.1762  0.1184 -0.8159
  854MOL0     H15235   4.264   6.414   6.398  1.1171 -0.7001 -0.1143
  854MOL0     H15236   4.117   6.332   6.378 -0.8029  2.2345  0.9739
  854MOL0     H15237   4.134   6.382   6.619 -2.5298 -0.8491 -1.6826
  854MOL0     H15238   4.154   6.211   6.606 -0.2142  0.0582 -0.0905
  854MOL0     H15239   4.358   6.420   6.686  0.6021 -0.0057 -1.9571
  854MOL0     H15240   4.426   6.281   6.596  0.0688 -2.4292  0.9621
  854MOL0     H15241   4.262   6.402   6.931  0.7721  1.1632 -2.1687
  854MOL0     H15242   4.220   6.235   7.164  0.2635  0.0544  1.7038
  854MOL0     H15243   4.348   6.115   7.198 -2.1303  0.8870  1.7359
  854MOL0     H15244   4.355   6.410   7.160  1.8030  1.0934 -3.8377
  854MOL0     H15245   4.508   6.319   7.160 -0.5424  1.3595  1.2652
  854MOL0     H15246   4.518   6.371   7.376 -1.9294  2.1613  0.7491
  854MOL0     H15247   4.426   6.217   7.369 -2.7497  0.3916 -0.2001
  854MOL0     H15248   4.311   6.491   7.385 -0.2927 -0.8816 -0.8857
  854MOL0     H15249   4.326   6.377   7.519  1.1344 -2.1629  0.1493
  854MOL0     H15250   3.931   6.238   7.345  0.4859 -0.5164  0.2448
  854MOL0     H15251   3.610   6.422   7.386  2.8302  2.7661  1.1381
  854MOL0     H15252   3.681   6.261   7.327  2.1642  0.2423  0.1981
  854MOL0     H15253   3.638   6.283   7.494  1.7691  0.3969  1.0684
  854MOL0     H15254   3.478   6.664   7.494 -1.4561  0.1316 -1.3180
  854MOL0     H15255   3.271   6.760   7.575 -0.0309 -0.0935 -0.6145
  854MOL0     H15256   3.349   7.169   7.761  0.5112 -1.4666  2.5607
  854MOL0     H15257   3.197   7.158   7.659  1.4752 -3.2287 -2.2994
  854MOL0     H15258   3.141   7.253   7.872 -2.2663 -0.3676 -1.6363
  854MOL0     H15259   3.081   7.081   7.861 -0.0962 -0.0279 -2.7655
  854MOL0     H15260   3.329   7.169   8.003 -1.7746  3.3455 -0.1631
  854MOL0     H15261   3.230   7.014   8.018 -0.6471 -0.0632 -1.5576
  854MOL0     H15262   3.165   7.295   8.104 -0.7482  0.4157  0.2845
  854MOL0     H15263   3.052   7.154   8.137 -0.0910  1.0905 -0.8588
  854MOL0     H15264   3.206   7.245   8.334 -1.1755 -0.2724 -1.1713
  854MOL0     H15265   3.336   7.187   8.242 -0.6986  1.4386 -1.2066
  854MOL0     H15266   3.289   6.958   8.265 -0.2819 -1.0119  2.1234
  854MOL0     H15267   3.276   7.039   8.421 -1.1830 -2.1130  1.4474
  854MOL0     H15268   3.069   6.900   8.250 -1.5931 -1.1283  1.9388
  854MOL0     H15269   3.009   7.038   8.347  0.1579  0.7855  0.5306
  854MOL0     H15270   3.199   6.820   8.464 -0.0097 -0.4903  0.2672
  854MOL0     H15271   3.025   6.781   8.446  0.8819 -0.7581  3.8925
  854MOL0     H15272   3.509   7.053   7.800 -0.8556  0.4602  0.0942
  854MOL0     H15273   3.712   6.902   7.749 -0.4747  0.4801 -0.3924
  854MOL0     H15274   3.965   6.623   7.650  2.1073 -1.8413  1.1668
  854MOL0     H15275   4.162   6.541   7.551  0.8677  1.0964  0.5852
  854MOL0     H15276   3.651   6.163   6.273  0.2484 -1.6656 -0.1466
  854MOL0     H15277   3.407   6.069   6.227  0.2437 -0.0153 -0.3780
  854MOL0     H15278   3.055   5.938   6.134  4.9443  0.6863 -2.5825
  854MOL0     H15279   2.841   5.833   6.120 -0.5192  3.1356 -3.6629
  854MOL0     H15280   2.819   5.701   5.765  0.9127 -1.5682 -0.4408
  854MOL0     H15281   2.779   5.534   5.789 -1.6300  0.2025 -3.4296
  854MOL0     H15282   2.548   5.728   5.845  0.1254 -1.1607  2.1161
  854MOL0     H15283   2.556   5.551   5.824  1.3911 -0.1888 -0.5122
  854MOL0     H15284   2.645   5.567   5.616  1.2119  1.4137  1.8222
  854MOL0     H15285   2.649   5.749   5.604  0.4015 -0.4289 -2.0052
  854MOL0     H15286   2.393   5.730   5.681 -0.7888 -0.4262 -0.2839
  854MOL0     H15287   2.384   5.563   5.609 -1.8236  0.2708  0.0840
  854MOL0     H15288   2.403   5.762   5.250 -0.2099 -0.0990 -0.0357
  854MOL0     H15289   2.999   5.506   5.890 -1.3042  0.8164  0.5187
  854MOL0     H15290   3.215   5.601   5.923 -0.8450 -0.6629 -1.8963
  855MOL0     O15291   7.784   3.293   3.209  0.2043  0.0625 -0.0490
  855MOL0     C15292   7.731   3.396   3.171 -0.3044 -0.1542  0.6031
  855MOL0     O15293   7.599   3.421   3.184 -0.3742 -0.1136 -0.6214
  855MOL0     C15294   7.546   3.341   3.291  0.0369  0.3968 -0.1963
  855MOL0     C15295   7.553   3.391   3.419 -0.2548  0.0869 -0.3508
  855MOL0     C15296   7.508   3.315   3.526 -1.2740  0.0079 -0.7154
  855MOL0     C15297   7.459   3.182   3.510  0.7275  0.1095  0.5382
  855MOL0     O15298   7.433   3.097   3.619 -0.4525  0.2434  0.1485
  855MOL0     C15299   7.491   3.131   3.744  0.3954  1.2414 -0.3186
  855MOL0     C15300   7.450   3.005   3.838 -0.2215  0.2528  0.0195
  855MOL0     C15301   7.502   2.876   3.784 -0.6028 -0.1026  1.2360
  855MOL0     C15302   7.489   2.762   3.891 -0.5996 -0.1566 -0.3183
  855MOL0     C15303   7.513   2.625   3.826 -0.1896  0.0727  0.1539
  855MOL0     C15304   7.384   2.553   3.782  0.1217 -0.2259 -0.2081
  855MOL0     C15305   7.404   2.426   3.701 -0.2591 -0.0655 -0.3219
  855MOL0     C15306   7.450   2.302   3.776 -0.0180  0.4110  0.2154
  855MOL0     N15307   7.414   2.177   3.716 -0.2460 -1.2553  0.3921
  855MOL0     C15308   7.285   2.141   3.707  0.2545 -0.0674  0.1585
  855MOL0     C15309   7.278   2.025   3.637 -0.0796  0.8492  0.1218
  855MOL0     C15310   7.156   1.960   3.581  0.2155 -1.0465  0.4261
  855MOL0     C15311   7.162   1.812   3.582 -0.2225  0.3662 -0.1612
  855MOL0     C15312   7.173   1.748   3.720 -0.2701 -0.0342 -0.6982
  855MOL0     C15313   7.188   1.591   3.716 -0.1075  0.0142  0.6703
  855MOL0     O15314   7.072   1.526   3.652  0.2911  0.5362 -0.0793
  855MOL0     C15315   6.972   1.479   3.738 -0.1536 -0.0730 -0.2255
  855MOL0     C15316   7.009   1.404   3.852 -0.1077  1.3969  0.1216
  855MOL0     C15317   6.918   1.348   3.937 -0.6674 -0.0016 -0.5786
  855MOL0     C15318   6.979   1.262   4.042  0.0437  0.2030 -0.4898
  855MOL0     C15319   6.776   1.369   3.912 -0.3967 -0.3682  0.5395
  855MOL0     C15320   6.660   1.324   3.990  0.5179 -1.0813  0.7190
  855MOL0     O15321   6.531   1.351   3.940 -0.1535 -0.2844 -0.2017
  855MOL0     C15322   6.420   1.294   3.988  1.2823  0.0838  0.2679
  855MOL0     C15323   6.404   1.155   4.002 -0.0458 -0.3745 -0.0755
  855MOL0     C15324   6.275   1.103   4.026  0.0471 -0.7267 -1.3987
  855MOL0     C15325   6.166   1.186   4.047  0.0998 -0.5334  0.0415
  855MOL0     O15326   6.034   1.154   4.061  0.0953 -0.0592  0.4177
  855MOL0     C15327   6.019   1.029   4.121 -0.5084 -0.9752 -0.1195
  855MOL0     C15328   5.883   0.981   4.130 -0.1925 -0.2593 -0.4318
  855MOL0     C15329   5.811   0.959   3.994 -0.2589  0.5581  0.2123
  855MOL0     C15330   5.762   0.815   3.977 -0.3532 -0.0690  0.3522
  855MOL0     C15331   5.670   0.768   4.091  0.1258  0.0588 -1.4576
  855MOL0     C15332   5.590   0.645   4.055  1.1824  0.2438 -0.5682
  855MOL0     C15333   5.559   0.559   4.181 -0.4533 -0.7259 -0.1223
  855MOL0     C15334   5.462   0.438   4.156 -1.1102 -0.5169  1.3062
  855MOL0    Cl15335   5.297   0.502   4.134  0.1841  0.0237  0.1127
  855MOL0     C15336   6.200   1.322   4.046  0.8943 -0.3555 -0.3528
  855MOL0     C15337   6.321   1.382   4.030 -0.6221  0.3906 -1.0369
  855MOL0     O15338   6.683   1.265   4.093 -0.3830 -0.7770 -0.0786
  855MOL0     C15339   6.738   1.444   3.802  0.1129 -0.2614 -0.0064
  855MOL0     C15340   6.836   1.492   3.714  0.8292  0.0425 -0.3107
  855MOL0     N15341   7.413   1.986   3.626 -0.2271 -0.4050  0.2806
  855MOL0     N15342   7.491   2.075   3.673  0.0196 -0.1585 -0.2982
  855MOL0     C15343   7.439   3.131   3.378 -0.3721  0.0777 -0.2957
  855MOL0     C15344   7.480   3.218   3.272 -0.4497  0.2822  0.1716
  855MOL0     C15345   7.810   3.511   3.123  0.5133 -0.2800 -0.8147
  855MOL0     C15346   7.948   3.503   3.109  0.8759  0.2329  0.6343
  855MOL0     C15347   8.014   3.602   3.051 -1.1202  0.1504 -0.3583
  855MOL0     C15348   7.961   3.731   3.022  0.2150 -0.7317 -0.6416
  855MOL0     O15349   8.020   3.849   2.973 -0.3248 -0.6650 -0.5414
  855MOL0     C15350   8.148   3.821   2.893  0.9353  0.2694 -0.1444
  855MOL0     C15351   8.208   3.941   2.833 -0.4530 -0.2052 -0.1369
  855MOL0     C15352   8.115   4.018   2.738  0.2089 -0.5083  1.1570
  855MOL0     C15353   8.196   4.083   2.631  0.6475 -0.0870  1.1739
  855MOL0     C15354   8.104   4.119   2.522  0.2162  0.0750 -0.2208
  855MOL0     C15355   8.015   4.138   2.434 -0.2764  0.5524  0.5472
  855MOL0     C15356   7.827   3.737   3.049 -0.5476 -0.6417 -0.3154
  855MOL0     C15357   7.749   3.630   3.086 -0.4450 -0.0600  0.7632
  855MOL0     H15358   7.595   3.484   3.455  1.3775 -1.1720  1.2404
  855MOL0     H15359   7.518   3.353   3.627  2.0916  2.5086 -1.8214
  855MOL0     H15360   7.600   3.132   3.736  0.3960 -0.1737 -0.8067
  855MOL0     H15361   7.457   3.224   3.792  1.2138  1.3804  0.0066
  855MOL0     H15362   7.479   3.009   3.944  0.1996 -1.3519 -0.0114
  855MOL0     H15363   7.341   2.999   3.845 -0.0838 -2.0394  1.0757
  855MOL0     H15364   7.443   2.858   3.694  0.7353 -0.4949  0.4056
  855MOL0     H15365   7.607   2.880   3.751 -1.9353 -0.9631 -3.9890
  855MOL0     H15366   7.562   2.789   3.968  0.4921 -0.1506 -1.3231
  855MOL0     H15367   7.389   2.763   3.934 -0.5407 -0.6340 -0.1667
  855MOL0     H15368   7.560   2.641   3.728 -1.4087  1.8259 -0.1955
  855MOL0     H15369   7.573   2.553   3.881 -0.4316 -2.5736 -2.7455
  855MOL0     H15370   7.323   2.540   3.872  0.4533  6.1806  1.3994
  855MOL0     H15371   7.326   2.624   3.723 -1.4848  1.0160  2.6703
  855MOL0     H15372   7.299   2.408   3.674 -0.8226  2.2481  0.0819
  855MOL0     H15373   7.454   2.455   3.608  0.9242 -0.8319  0.0514
  855MOL0     H15374   7.407   2.311   3.876 -0.9407  3.3831 -0.3736
  855MOL0     H15375   7.559   2.303   3.788  0.2376 -4.1528  0.1716
  855MOL0     H15376   7.201   2.201   3.740 -2.1918 -0.3405 -4.6024
  855MOL0     H15377   7.076   1.997   3.647  0.1001  1.4845 -1.0347
  855MOL0     H15378   7.147   2.006   3.483  0.2981 -0.7843  0.5410
  855MOL0     H15379   7.252   1.796   3.522  0.0850  2.2867 -0.2812
  855MOL0     H15380   7.077   1.772   3.526  0.5701 -2.7719  0.7019
  855MOL0     H15381   7.084   1.759   3.783  0.7634  0.3726  0.7360
  855MOL0     H15382   7.252   1.793   3.781 -0.9947  1.1472 -0.6058
  855MOL0     H15383   7.203   1.552   3.817 -0.6956 -1.8426  0.0917
  855MOL0     H15384   7.275   1.562   3.655 -0.9091  0.2868 -0.6453
  855MOL0     H15385   7.114   1.391   3.876  0.2558  3.0621 -0.4586
  855MOL0     H15386   7.059   1.202   3.997  0.4226  0.7075 -0.4871
  855MOL0     H15387   7.016   1.310   4.132  4.7341  0.0398 -2.0704
  855MOL0     H15388   6.910   1.183   4.074  1.8518 -2.2057 -2.1264
  855MOL0     H15389   6.482   1.083   3.977 -0.4180 -0.0462 -2.4157
  855MOL0     H15390   6.266   0.995   4.013 -0.7192 -1.6266  4.0221
  855MOL0     H15391   6.072   0.951   4.066  1.8345 -0.3617  1.1402
  855MOL0     H15392   6.062   1.031   4.221 -0.2760  1.3227 -0.1943
  855MOL0     H15393   5.872   0.897   4.199  2.2283 -0.8056 -0.6246
  855MOL0     H15394   5.844   1.072   4.176  1.2263  0.2084 -0.1083
  855MOL0     H15395   5.873   0.986   3.908 -0.6179  0.7784  0.0211
  855MOL0     H15396   5.725   1.025   3.984  0.6146  1.9545  1.4974
  855MOL0     H15397   5.697   0.811   3.890 -1.4526  1.0649  1.0871
  855MOL0     H15398   5.846   0.748   3.957 -1.0348 -0.6563 -0.6351
  855MOL0     H15399   5.608   0.843   4.142 -0.7616  0.1903 -2.6775
  855MOL0     H15400   5.735   0.739   4.173 -2.9878  0.4642  1.3937
  855MOL0     H15401   5.503   0.681   4.000  0.3127 -0.0777  0.5679
  855MOL0     H15402   5.645   0.584   3.982  0.7235 -0.6365 -0.1984
  855MOL0     H15403   5.505   0.625   4.249 -1.8600  1.1066 -2.8279
  855MOL0     H15404   5.651   0.519   4.225  0.1857  1.0938  0.3039
  855MOL0     H15405   5.476   0.371   4.242  0.9002  1.2833  2.4589
  855MOL0     H15406   5.496   0.383   4.067 -1.5776 -0.4611  1.0911
  855MOL0     H15407   6.120   1.394   4.044  0.4254 -0.8537  0.0067
  855MOL0     H15408   6.340   1.489   4.019  4.7310 -0.5490 -5.1803
  855MOL0     H15409   6.636   1.470   3.777  1.2353  3.4629 -1.2984
  855MOL0     H15410   6.812   1.548   3.624 -0.8506  3.9602  2.3181
  855MOL0     H15411   7.411   3.029   3.354  1.6081  0.2710 -4.1722
  855MOL0     H15412   7.459   3.184   3.171 -0.6033  0.7282  0.0479
  855MOL0     H15413   8.004   3.415   3.139  0.9043 -0.7453 -1.9959
  855MOL0     H15414   8.117   3.580   3.026 -1.3773 -1.5616  0.0180
  855MOL0     H15415   8.224   3.762   2.944 -0.0976 -1.6821 -0.7373
  855MOL0     H15416   8.111   3.757   2.811  0.1207 -2.0235  1.8968
  855MOL0     H15417   8.305   3.925   2.786 -0.0161 -1.7460  1.1791
  855MOL0     H15418   8.232   4.015   2.910 -0.1965  2.2468 -2.4409
  855MOL0     H15419   8.073   4.097   2.800  0.1495 -1.0319  1.7980
  855MOL0     H15420   8.042   3.951   2.691 -1.0527  3.0851 -2.5097
  855MOL0     H15421   8.266   4.008   2.593 -1.5549 -2.6104  1.7971
  855MOL0     H15422   8.228   4.181   2.668 -0.2366  1.1156 -1.0107
  855MOL0     H15423   7.952   4.142   2.348  2.2098 -0.3098 -1.4512
  855MOL0     H15424   7.794   3.838   3.023  4.3467  1.9626  2.2065
  855MOL0     H15425   7.641   3.636   3.099 -0.5758  0.7635 -0.4897
  856MOL0     O15426   8.263   8.464   7.930 -0.7047 -0.0452 -0.5681
  856MOL0     C15427   8.303   8.406   8.029 -0.4631  0.0755  0.4593
  856MOL0     O15428   8.237   8.310   8.103 -0.8351 -0.1450  0.7553
  856MOL0     C15429   8.128   8.268   8.039 -0.3616  0.1246 -0.7516
  856MOL0     C15430   7.997   8.303   8.069  0.9018 -0.1144 -0.2524
  856MOL0     C15431   7.887   8.232   8.012  0.1946  0.7297  0.6432
  856MOL0     C15432   7.915   8.140   7.910  0.0054 -0.3329  0.1835
  856MOL0     O15433   7.791   8.083   7.860  0.3986  0.2829  0.1147
  856MOL0     C15434   7.772   7.938   7.863 -0.0133 -0.2584  0.2480
  856MOL0     C15435   7.815   7.865   7.732 -0.2314  0.0451 -1.1588
  856MOL0     C15436   7.758   7.927   7.608  0.2275 -0.7807 -0.3464
  856MOL0     C15437   7.687   7.816   7.522  0.1229  0.0666  0.4530
  856MOL0     C15438   7.638   7.869   7.379 -0.0109  0.6195 -0.5816
  856MOL0     C15439   7.545   7.770   7.303 -0.2314  0.2835 -0.7120
  856MOL0     C15440   7.499   7.798   7.156 -0.1906 -1.2856  0.1921
  856MOL0     C15441   7.363   7.857   7.147 -0.0125 -0.1817  0.7501
  856MOL0     N15442   7.254   7.755   7.139  0.3244  0.1549  0.2206
  856MOL0     C15443   7.212   7.684   7.026  0.2151  0.1412  1.1235
  856MOL0     C15444   7.122   7.600   7.078 -0.6649 -0.4515  0.4256
  856MOL0     C15445   7.051   7.497   6.988 -0.2266  0.0098  0.3423
  856MOL0     C15446   6.915   7.537   6.933 -0.7404  0.1927 -0.0485
  856MOL0     C15447   6.832   7.409   6.920 -0.1663  0.1871  0.7269
  856MOL0     C15448   6.880   7.296   6.825 -0.0044 -0.3524  0.8377
  856MOL0     O15449   7.004   7.220   6.868 -0.2203  0.0736 -0.0786
  856MOL0     C15450   7.076   7.140   6.780  0.6369  0.2286 -0.7745
  856MOL0     C15451   7.189   7.054   6.823  0.0906  0.6613 -0.4386
  856MOL0     C15452   7.274   6.986   6.733  0.6756 -0.1756  0.3638
  856MOL0     C15453   7.380   6.888   6.781  0.1904 -0.0955 -0.4413
  856MOL0     C15454   7.237   6.995   6.599 -0.9390 -0.5061 -0.0079
  856MOL0     C15455   7.328   6.945   6.490 -0.2017 -0.0178  0.6834
  856MOL0     O15456   7.273   6.900   6.368 -0.0909  0.2077  0.5066
  856MOL0     C15457   7.357   6.852   6.274 -0.3725 -0.5555  0.8603
  856MOL0     C15458   7.445   6.939   6.195 -0.8596  0.2726 -0.0255
  856MOL0     C15459   7.497   6.895   6.069  0.6695 -0.2366 -0.3696
  856MOL0     C15460   7.467   6.764   6.021 -0.7386 -0.7535 -0.0908
  856MOL0     O15461   7.497   6.717   5.899  0.1928 -0.2406  0.6597
  856MOL0     C15462   7.589   6.802   5.814  0.1527  0.1664 -0.6804
  856MOL0     C15463   7.596   6.764   5.668 -0.9353 -0.6676  0.3576
  856MOL0     C15464   7.469   6.785   5.594 -0.2842 -0.1528  0.0166
  856MOL0     C15465   7.466   6.724   5.453 -0.0231 -0.9632  0.3170
  856MOL0     C15466   7.321   6.744   5.401  0.0571 -0.2916  0.4725
  856MOL0     C15467   7.278   6.656   5.286  0.1813  0.1650  0.2930
  856MOL0     C15468   7.354   6.673   5.151 -0.1187  0.9947 -0.6991
  856MOL0     C15469   7.354   6.803   5.075 -0.3701  0.1376  1.1019
  856MOL0    Cl15470   7.441   6.775   4.912 -0.6987  0.6020 -0.1829
  856MOL0     C15471   7.386   6.684   6.099 -0.0717 -0.7787 -0.4232
  856MOL0     C15472   7.342   6.728   6.219 -0.3630  0.0635  0.5136
  856MOL0     O15473   7.447   6.936   6.515 -0.7045 -0.0612 -0.0982
  856MOL0     C15474   7.118   7.059   6.560 -0.0579  0.9826 -0.3958
  856MOL0     C15475   7.039   7.145   6.640 -0.6714  0.1114 -0.3978
  856MOL0     N15476   7.098   7.627   7.210  0.4948  1.0081  0.0107
  856MOL0     N15477   7.176   7.718   7.246 -0.6945 -0.3604  0.6890
  856MOL0     C15478   8.041   8.112   7.875 -0.9928 -0.3607  0.0536
  856MOL0     C15479   8.152   8.167   7.941  0.1768 -0.5734 -0.6708
  856MOL0     C15480   8.436   8.447   8.088  0.1852  0.5695 -0.3550
  856MOL0     C15481   8.475   8.381   8.206 -0.5835 -0.6772 -1.0439
  856MOL0     C15482   8.594   8.405   8.283  0.0725  0.5260  0.4517
  856MOL0     C15483   8.693   8.487   8.225  1.1932  0.3746 -1.0331
  856MOL0     O15484   8.811   8.513   8.285  0.3307  0.8364 -0.4041
  856MOL0     C15485   8.831   8.478   8.426  0.3850 -0.6602 -0.0669
  856MOL0     C15486   8.783   8.596   8.510  0.1373  0.1625 -0.6004
  856MOL0     C15487   8.771   8.561   8.672 -0.2814 -0.2829  0.3914
  856MOL0     C15488   8.904   8.537   8.738  0.1673  0.0845 -0.9573
  856MOL0     C15489   9.010   8.626   8.696  1.2262  0.4346  0.4271
  856MOL0     C15490   9.100   8.705   8.677 -0.3132 -0.5151  0.7776
  856MOL0     C15491   8.660   8.558   8.112 -0.1220  0.5763  0.0306
  856MOL0     C15492   8.541   8.537   8.039 -0.1160  0.6234  0.0541
  856MOL0     H15493   7.988   8.379   8.146 -1.5508 -1.2223  0.6631
  856MOL0     H15494   7.782   8.254   8.029 -0.1427 -1.4783  1.8357
  856MOL0     H15495   7.833   7.913   7.951  1.4456  0.5505 -0.4923
  856MOL0     H15496   7.670   7.906   7.886  0.4648 -1.8658  0.2154
  856MOL0     H15497   7.923   7.855   7.716  0.0937 -1.0711  1.2493
  856MOL0     H15498   7.793   7.758   7.742  5.6371 -1.6425 -2.1410
  856MOL0     H15499   7.703   8.020   7.622  2.6475  0.4336  2.2251
  856MOL0     H15500   7.848   7.966   7.560  0.2350  0.3848  0.5707
  856MOL0     H15501   7.762   7.737   7.518  1.8566  1.6906 -0.4614
  856MOL0     H15502   7.596   7.775   7.568  1.1796 -0.6029  2.0240
  856MOL0     H15503   7.572   7.956   7.381 -0.6283  0.2851  4.0032
  856MOL0     H15504   7.729   7.901   7.327  1.5552 -0.3012  1.4251
  856MOL0     H15505   7.607   7.680   7.312  0.4649  0.8438  0.2572
  856MOL0     H15506   7.459   7.741   7.365  1.1613 -2.9716 -0.0813
  856MOL0     H15507   7.568   7.866   7.105 -2.6969 -0.1358 -1.8898
  856MOL0     H15508   7.495   7.703   7.102  1.7838 -0.5965 -1.3001
  856MOL0     H15509   7.352   7.914   7.054 -1.0338 -2.4459 -0.5995
  856MOL0     H15510   7.338   7.936   7.219 -4.7252  0.8724 -1.6435
  856MOL0     H15511   7.260   7.684   6.928  2.0166 -2.3578  1.9114
  856MOL0     H15512   7.118   7.463   6.908 -0.1568 -2.1435  1.2587
  856MOL0     H15513   7.023   7.415   7.055 -1.4538  1.1870  1.3452
  856MOL0     H15514   6.917   7.596   6.841  0.4071 -0.5334 -0.5153
  856MOL0     H15515   6.862   7.596   7.007 -4.0234 -1.4538 -0.9042
  856MOL0     H15516   6.736   7.445   6.881 -0.6611 -1.0411  0.7694
  856MOL0     H15517   6.814   7.352   7.011  1.2511 -0.1404  0.8172
  856MOL0     H15518   6.926   7.346   6.739  1.6717 -4.6952 -1.0697
  856MOL0     H15519   6.806   7.227   6.786  1.1507 -0.9968 -0.3015
  856MOL0     H15520   7.197   7.040   6.930 -1.1177  0.5971 -0.3475
  856MOL0     H15521   7.475   6.942   6.772 -0.2815  0.5164 -1.9684
  856MOL0     H15522   7.352   6.857   6.882 -1.0058  0.6256 -0.5467
  856MOL0     H15523   7.381   6.795   6.723  1.9488 -0.4744  0.1245
  856MOL0     H15524   7.462   7.043   6.220 -0.6431  0.8146 -2.2704
  856MOL0     H15525   7.553   6.973   6.018 -0.8233  1.1618  0.0761
  856MOL0     H15526   7.568   6.909   5.819 -3.0982 -0.4240  3.3149
  856MOL0     H15527   7.692   6.782   5.846 -0.6872 -0.0577  2.2000
  856MOL0     H15528   7.678   6.807   5.611 -1.3275 -1.2971 -0.7218
  856MOL0     H15529   7.614   6.656   5.672 -0.1443 -0.5466  0.0672
  856MOL0     H15530   7.440   6.890   5.583 -0.5425 -0.1485  0.7071
  856MOL0     H15531   7.383   6.740   5.644  1.0652 -0.5213  2.0951
  856MOL0     H15532   7.542   6.761   5.384 -0.6678  0.0782  0.1463
  856MOL0     H15533   7.479   6.616   5.463  1.4383 -1.0902 -2.1319
  856MOL0     H15534   7.313   6.850   5.377 -0.3641 -0.1744  1.1310
  856MOL0     H15535   7.253   6.712   5.481  2.2452 -2.0663  1.7458
  856MOL0     H15536   7.281   6.547   5.301  1.1089 -0.1386 -1.7244
  856MOL0     H15537   7.169   6.657   5.277 -0.1166 -1.9930  2.5806
  856MOL0     H15538   7.300   6.618   5.073 -2.2918 -1.2312  2.1464
  856MOL0     H15539   7.453   6.628   5.160 -1.2301 -1.1633  2.3538
  856MOL0     H15540   7.397   6.885   5.133  0.3973  0.1096  0.5846
  856MOL0     H15541   7.249   6.818   5.049 -0.1559 -1.2713 -0.8453
  856MOL0     H15542   7.366   6.582   6.069  1.0041 -1.9844  2.5500
  856MOL0     H15543   7.271   6.668   6.276 -0.0025  1.3899  2.4740
  856MOL0     H15544   7.078   7.047   6.459 -4.5716 -0.9217  1.3735
  856MOL0     H15545   6.957   7.203   6.599 -1.8093 -1.3656 -0.3213
  856MOL0     H15546   8.063   8.042   7.795  2.3111  1.4326 -0.7611
  856MOL0     H15547   8.254   8.141   7.916  0.1911 -3.3194  1.6731
  856MOL0     H15548   8.402   8.312   8.247 -0.2061 -0.2467  0.4228
  856MOL0     H15549   8.614   8.347   8.373 -0.8958  3.9571  3.0722
  856MOL0     H15550   8.782   8.386   8.458 -3.5947  1.2300 -0.1285
  856MOL0     H15551   8.938   8.458   8.437  0.6405  0.4122 -0.4331
  856MOL0     H15552   8.680   8.613   8.479 -0.4063 -0.7843  0.5797
  856MOL0     H15553   8.844   8.685   8.494 -0.8553  1.3441  1.7611
  856MOL0     H15554   8.696   8.482   8.679  0.9339 -1.5809 -0.7802
  856MOL0     H15555   8.735   8.653   8.720 -0.7458 -0.1380 -0.2080
  856MOL0     H15556   8.942   8.435   8.723  0.7314 -0.1925  1.9119
  856MOL0     H15557   8.892   8.554   8.845  2.5856 -1.9969 -0.2493
  856MOL0     H15558   9.178   8.776   8.657 -2.3901  2.0411  1.1299
  856MOL0     H15559   8.739   8.612   8.060  2.2734 -0.2382  2.5272
  856MOL0     H15560   8.516   8.572   7.939 -0.6693 -3.9057 -1.6176
  857MOL0     O15561   1.125  10.384   5.933 -0.1596 -0.9017  0.1125
  857MOL0     C15562   1.178  10.333   6.035  0.6456 -0.0772  0.2628
  857MOL0     O15563   1.203  10.410   6.153  0.5697  0.6637 -0.4444
  857MOL0     C15564   1.151  10.537   6.170 -0.3096 -0.0971 -0.0410
  857MOL0     C15565   1.018  10.563   6.162 -0.8543  0.7097 -0.6531
  857MOL0     C15566   0.955  10.688   6.183 -1.2455 -0.4445  0.2657
  857MOL0     C15567   1.031  10.793   6.225 -0.4140  0.4692 -0.8257
  857MOL0     O15568   0.954  10.902   6.263  0.5941  0.0501 -0.2230
  857MOL0     C15569   1.018  11.009   6.332  0.4053  0.0115 -0.3072
  857MOL0     C15570   0.912  11.109   6.369  1.0187 -0.4714  0.1882
  857MOL0     C15571   0.809  11.069   6.485 -0.0774  0.7920  0.0341
  857MOL0     C15572   0.687  10.982   6.432 -0.5345 -0.0057 -0.5570
  857MOL0     C15573   0.545  11.037   6.469  0.3050 -0.0704  0.3116
  857MOL0     C15574   0.500  11.046   6.614  0.1295  0.4421  0.4532
  857MOL0     C15575   0.491  11.192   6.665  0.7027 -0.4392  0.4763
  857MOL0     C15576   0.382  11.285   6.602  0.8005  0.9661  0.3085
  857MOL0     N15577   0.252  11.223   6.580  0.3630 -0.0197 -0.4594
  857MOL0     C15578   0.152  11.208   6.664 -0.6397  0.7092 -0.0782
  857MOL0     C15579   0.034  11.211   6.595  0.7102 -0.6689 -0.6290
  857MOL0     C15580  -0.111  11.203   6.658 -0.5161  0.5204 -0.3000
  857MOL0     C15581  -0.157  11.309   6.757  0.4322 -0.7397 -0.6932
  857MOL0     C15582  -0.310  11.332   6.734  0.1731 -0.6236  0.1079
  857MOL0     C15583  -0.346  11.472   6.766 -0.4543  0.4171 -0.5125
  857MOL0     O15584  -0.485  11.491   6.734  0.0199 -0.3203  0.2447
  857MOL0     C15585  -0.556  11.607   6.776  0.0899  0.0583  0.5358
  857MOL0     C15586  -0.664  11.653   6.699 -0.2034 -0.0132 -0.0224
  857MOL0     C15587  -0.735  11.769   6.735  0.9036  0.4953 -0.6184
  857MOL0     C15588  -0.849  11.813   6.652 -0.4924  0.1210 -0.7541
  857MOL0     C15589  -0.711  11.825   6.862  0.5781 -0.1643  0.6446
  857MOL0     C15590  -0.806  11.921   6.926 -1.3916  0.3231  0.8667
  857MOL0     O15591  -0.887  12.002   6.852  1.1297  0.0134 -0.7754
  857MOL0     C15592  -0.994  12.060   6.921  1.3241  0.7753 -0.3028
  857MOL0     C15593  -0.978  12.144   7.024 -0.0414 -0.0963 -0.6286
  857MOL0     C15594  -1.075  12.197   7.100  0.7518  0.4228 -0.6865
  857MOL0     C15595  -1.208  12.173   7.064  0.7724  0.3979 -0.5747
  857MOL0     O15596  -1.313  12.225   7.138  0.3597 -0.2093  0.2931
  857MOL0     C15597  -1.277  12.316   7.240  0.0598  0.3178  0.3591
  857MOL0     C15598  -1.415  12.373   7.276  0.6293  0.2976  0.5455
  857MOL0     C15599  -1.495  12.273   7.366 -0.1640  0.7553 -0.0727
  857MOL0     C15600  -1.616  12.350   7.429  0.5748  0.1763 -0.9447
  857MOL0     C15601  -1.721  12.254   7.488  0.1936  0.0787  0.2237
  857MOL0     C15602  -1.789  12.330   7.613 -0.1460  0.1635  0.4936
  857MOL0     C15603  -1.920  12.264   7.658  0.5443 -0.3678 -0.6706
  857MOL0     C15604  -1.914  12.191   7.796  0.2422  0.6285  0.0791
  857MOL0    Cl15605  -1.925  12.296   7.939 -0.0861  0.9252 -0.2269
  857MOL0     C15606  -1.235  12.096   6.950  0.9396  0.4165 -1.3348
  857MOL0     C15607  -1.130  12.033   6.888 -0.9265  0.1965  0.9587
  857MOL0     O15608  -0.779  11.938   7.047  0.4678  0.6230 -0.4396
  857MOL0     C15609  -0.611  11.772   6.946 -0.3146 -0.3780 -0.4781
  857MOL0     C15610  -0.521  11.675   6.895 -0.3205  0.3016 -0.4360
  857MOL0     N15611   0.063  11.214   6.459 -0.1705  0.0627 -0.1291
  857MOL0     N15612   0.193  11.223   6.460  0.1891 -0.4412  1.0820
  857MOL0     C15613   1.174  10.774   6.232  1.1783  0.0395 -0.5122
  857MOL0     C15614   1.229  10.643   6.214  0.1478 -0.5240  0.0076
  857MOL0     C15615   1.207  10.186   6.036 -0.7323 -0.1593 -0.1185
  857MOL0     C15616   1.272  10.131   6.148 -0.4250  1.0102  0.0551
  857MOL0     C15617   1.296   9.989   6.151  0.1634 -1.0582  0.2590
  857MOL0     C15618   1.264   9.918   6.035  1.2378  0.4664 -1.1440
  857MOL0     O15619   1.279   9.787   6.022 -0.6937  0.3208  0.2820
  857MOL0     C15620   1.418   9.747   5.999  0.2737  0.0436  0.7158
  857MOL0     C15621   1.398   9.607   5.937  0.4439 -0.1000 -0.2426
  857MOL0     C15622   1.519   9.522   5.959 -0.1525  0.2557  0.0648
  857MOL0     C15623   1.644   9.574   5.872  0.5394  0.2513 -0.9006
  857MOL0     C15624   1.773   9.560   5.936  0.3572 -1.0948  1.0467
  857MOL0     C15625   1.888   9.563   5.979 -0.2540 -0.0670  0.0917
  857MOL0     C15626   1.187   9.970   5.933 -0.2291 -0.0873 -0.7375
  857MOL0     C15627   1.160  10.109   5.935  0.5957  0.6734 -0.3350
  857MOL0     H15628   0.965  10.471   6.140 -0.4370  0.6849 -1.6038
  857MOL0     H15629   0.848  10.691   6.171 -0.9899  0.5907 -2.6993
  857MOL0     H15630   1.070  10.973   6.421 -1.1361  2.1923  1.5874
  857MOL0     H15631   1.084  11.062   6.262 -0.0161  0.7584 -0.1417
  857MOL0     H15632   0.959  11.200   6.406 -1.1789  0.6585  0.3484
  857MOL0     H15633   0.853  11.146   6.285  2.7555  3.3920  0.4850
  857MOL0     H15634   0.869  11.011   6.556  0.1400  2.4022  1.2120
  857MOL0     H15635   0.771  11.152   6.545  2.5336  0.5765  2.2289
  857MOL0     H15636   0.700  10.971   6.324  0.9401  2.0878 -0.6481
  857MOL0     H15637   0.693  10.877   6.463  1.2720 -0.0445 -0.9505
  857MOL0     H15638   0.534  11.141   6.437  0.7780  0.4782  1.8221
  857MOL0     H15639   0.479  10.968   6.415 -1.6837  0.9098  1.3825
  857MOL0     H15640   0.410  10.983   6.617  0.9267 -0.7611  0.0225
  857MOL0     H15641   0.573  11.000   6.681 -3.0877 -0.5924  3.5778
  857MOL0     H15642   0.471  11.180   6.772 -1.5042 -2.0544 -0.0449
  857MOL0     H15643   0.585  11.246   6.652  0.6675  0.2599  2.6199
  857MOL0     H15644   0.408  11.306   6.498 -2.3513  0.4509 -0.6676
  857MOL0     H15645   0.360  11.367   6.672  2.7651  0.6909  1.3244
  857MOL0     H15646   0.149  11.204   6.772  0.7194 -0.9160 -0.0669
  857MOL0     H15647  -0.172  11.195   6.568  0.7140 -0.2332 -1.0985
  857MOL0     H15648  -0.122  11.099   6.689 -2.2352 -0.2095 -3.0481
  857MOL0     H15649  -0.102  11.401   6.734  4.8562 -3.1368 -0.9439
  857MOL0     H15650  -0.136  11.278   6.860  2.7531 -0.3535 -0.9811
  857MOL0     H15651  -0.373  11.260   6.787 -0.6897 -2.8725 -3.6589
  857MOL0     H15652  -0.329  11.309   6.629  0.3565 -2.1931  0.4047
  857MOL0     H15653  -0.280  11.532   6.703 -0.2537 -1.0646 -1.7820
  857MOL0     H15654  -0.319  11.503   6.867  1.5671  0.3841 -0.9988
  857MOL0     H15655  -0.693  11.620   6.600  1.7451  4.5578 -2.4398
  857MOL0     H15656  -0.826  11.909   6.606  0.1605  0.0427 -0.5906
  857MOL0     H15657  -0.879  11.750   6.568  0.2830  1.1571 -1.8277
  857MOL0     H15658  -0.932  11.812   6.724  0.6803 -4.1000  0.8920
  857MOL0     H15659  -0.881  12.152   7.073 -0.8638  1.3789  0.8650
  857MOL0     H15660  -1.032  12.233   7.193  0.6093  0.8356 -0.7779
  857MOL0     H15661  -1.234  12.272   7.330  2.2949  0.9786 -0.3178
  857MOL0     H15662  -1.201  12.388   7.207  3.2405 -3.4977 -1.4812
  857MOL0     H15663  -1.397  12.457   7.343 -1.8983 -0.2385  2.0024
  857MOL0     H15664  -1.469  12.413   7.190 -1.6610 -1.1730  1.2151
  857MOL0     H15665  -1.431  12.233   7.444 -1.9675  1.3246  1.7956
  857MOL0     H15666  -1.533  12.190   7.305  0.3903  2.2638 -2.6552
  857MOL0     H15667  -1.579  12.421   7.504  0.6044  0.0685 -0.8563
  857MOL0     H15668  -1.670  12.405   7.352  1.9554  1.7113 -0.8761
  857MOL0     H15669  -1.683  12.155   7.513  2.5552  1.1037  0.9639
  857MOL0     H15670  -1.788  12.227   7.406 -0.1104 -4.1214  1.6477
  857MOL0     H15671  -1.714  12.332   7.692  0.2638 -0.9487  0.1639
  857MOL0     H15672  -1.811  12.433   7.584 -4.0716 -0.2502  1.3526
  857MOL0     H15673  -1.953  12.185   7.589 -0.5845 -1.5644  1.1524
  857MOL0     H15674  -1.994  12.344   7.657  1.2449  0.2809 -0.7227
  857MOL0     H15675  -1.813  12.149   7.811  0.3680  0.5395 -0.9596
  857MOL0     H15676  -1.994  12.118   7.807  0.2991  0.4896 -0.3889
  857MOL0     H15677  -1.341  12.081   6.939  0.8878  0.0681 -0.4156
  857MOL0     H15678  -1.139  11.968   6.802 -0.6095  1.9759 -0.4752
  857MOL0     H15679  -0.595  11.807   7.048 -1.6562 -0.4930 -0.2080
  857MOL0     H15680  -0.430  11.658   6.951  2.3688  3.9485 -3.2371
  857MOL0     H15681   1.236  10.861   6.250 -2.3737  2.4463  1.0359
  857MOL0     H15682   1.336  10.625   6.220 -0.0131 -1.0547  1.6344
  857MOL0     H15683   1.318  10.200   6.218 -1.2596 -0.5964  2.3220
  857MOL0     H15684   1.344   9.947   6.239  3.4305  1.2916 -0.2417
  857MOL0     H15685   1.472   9.809   5.927  1.9229 -0.8248  1.1390
  857MOL0     H15686   1.470   9.740   6.095 -1.5067  1.4593  1.8522
  857MOL0     H15687   1.373   9.618   5.831  1.4208  3.0183 -0.2550
  857MOL0     H15688   1.308   9.553   5.968  1.3326 -1.3415  0.2468
  857MOL0     H15689   1.499   9.420   5.923 -2.2196  1.0482 -1.2334
  857MOL0     H15690   1.545   9.519   6.065  0.1710  2.3277  0.0843
  857MOL0     H15691   1.630   9.679   5.846  0.2737  0.6807  0.8256
  857MOL0     H15692   1.647   9.511   5.782  0.4873 -1.9895  0.5859
  857MOL0     H15693   1.988   9.567   6.019 -0.2263  1.2817 -0.0709
  857MOL0     H15694   1.163   9.912   5.845  4.0749 -2.3915 -0.6832
  857MOL0     H15695   1.099  10.154   5.857  1.0805 -1.9786 -2.3982
  858MOL0     O15696  10.391  10.118   5.121 -0.4724  0.1558 -0.3743
  858MOL0     C15697  10.481  10.191   5.163  0.1465 -0.6455 -0.0994
  858MOL0     O15698  10.587  10.250   5.088  0.1429  0.1626 -0.4456
  858MOL0     C15699  10.619  10.214   4.962  0.3050  0.6849  0.3712
  858MOL0     C15700  10.753  10.238   4.913  0.0024  0.2834 -0.5027
  858MOL0     C15701  10.787  10.231   4.775 -0.1004 -0.4033 -0.1694
  858MOL0     C15702  10.692  10.173   4.685  0.2411  0.1391 -0.0927
  858MOL0     O15703  10.746  10.130   4.566  0.3413 -0.4824 -0.1738
  858MOL0     C15704  10.652  10.099   4.453 -0.8910 -0.6844 -0.6823
  858MOL0     C15705  10.706  10.103   4.314 -0.1400 -0.1873 -0.1016
  858MOL0     C15706  10.649   9.989   4.221 -0.1329 -0.0053  0.1870
  858MOL0     C15707  10.712   9.999   4.075 -0.0319  0.5645 -0.0218
  858MOL0     C15708  10.621   9.960   3.957 -0.0071 -0.2732 -1.8141
  858MOL0     C15709  10.692   9.956   3.826 -0.3454  0.7348 -0.4389
  858MOL0     C15710  10.595   9.921   3.710 -0.9683  0.6279 -0.7762
  858MOL0     C15711  10.671   9.906   3.572  0.0338 -0.3459  0.3341
  858MOL0     N15712  10.582   9.858   3.462  0.4356 -0.1221  0.1183
  858MOL0     C15713  10.461   9.894   3.431 -0.0147 -0.0947 -0.6200
  858MOL0     C15714  10.429   9.839   3.310 -0.1296  0.5622  0.6237
  858MOL0     C15715  10.293   9.861   3.253 -0.1721 -0.2691 -0.9432
  858MOL0     C15716  10.289   9.935   3.121 -0.5828 -0.0859  0.3234
  858MOL0     C15717  10.204  10.057   3.107 -0.4643  0.1695 -0.6361
  858MOL0     C15718  10.225  10.158   3.216 -0.0332  0.6730  0.2290
  858MOL0     O15719  10.332  10.140   3.308 -0.2026 -0.2269  0.7754
  858MOL0     C15720  10.463  10.189   3.285  0.0759 -0.2890  0.4445
  858MOL0     C15721  10.513  10.225   3.161  0.3920  0.2197  0.3228
  858MOL0     C15722  10.645  10.283   3.138  0.0726 -0.0843  0.3680
  858MOL0     C15723  10.695  10.309   2.993 -0.1198  0.6736 -0.5387
  858MOL0     C15724  10.718  10.320   3.257 -0.3066 -0.5467  0.3556
  858MOL0     C15725  10.856  10.381   3.243  0.8526 -0.2898 -0.0831
  858MOL0     O15726  10.896  10.434   3.117 -0.3141  0.5284 -0.5508
  858MOL0     C15727  11.015  10.513   3.104  0.6088  0.9005  0.0613
  858MOL0     C15728  11.078  10.591   3.202  1.0430  0.2759  0.0492
  858MOL0     C15729  11.200  10.644   3.168  1.0626 -1.0127  0.3957
  858MOL0     C15730  11.263  10.632   3.041 -0.0940 -0.6067 -0.0117
  858MOL0     O15731  11.390  10.703   3.031 -0.2520 -1.2256  0.6989
  858MOL0     C15732  11.463  10.711   2.902  0.0725 -0.1838  0.0060
  858MOL0     C15733  11.598  10.779   2.915 -0.3483  0.4195  0.2775
  858MOL0     C15734  11.683  10.744   3.042 -0.0253  0.6406  0.4808
  858MOL0     C15735  11.808  10.831   3.051  0.5038  0.1288 -0.9602
  858MOL0     C15736  11.930  10.767   2.968  0.9356  0.2346 -0.2145
  858MOL0     C15737  12.040  10.874   2.934  0.0765 -0.9565  0.3326
  858MOL0     C15738  12.117  10.825   2.805 -0.2454  0.4508  0.6350
  858MOL0     C15739  12.161  10.671   2.807  0.3035 -0.8358  0.5485
  858MOL0    Cl15740  12.306  10.666   2.695 -0.3733 -0.1349 -0.0754
  858MOL0     C15741  11.203  10.562   2.953 -0.5507 -0.3461  0.6548
  858MOL0     C15742  11.083  10.504   2.983  0.0682 -0.1114 -0.5234
  858MOL0     O15743  10.931  10.375   3.337  0.0857 -0.2353 -0.1664
  858MOL0     C15744  10.661  10.283   3.382 -0.1642 -0.4637  0.3257
  858MOL0     C15745  10.542  10.215   3.392  0.1965 -0.4089  0.0566
  858MOL0     N15746  10.536   9.763   3.265  0.1420  0.1368 -0.6273
  858MOL0     N15747  10.628   9.782   3.360  0.3813  0.7931  0.0463
  858MOL0     C15748  10.566  10.142   4.737  0.4963  0.4987 -0.9334
  858MOL0     C15749  10.528  10.172   4.870 -0.0331  0.2437  0.7287
  858MOL0     C15750  10.470  10.246   5.300  0.7328  0.4732  0.8501
  858MOL0     C15751  10.388  10.186   5.392  0.2191  0.1614  0.1345
  858MOL0     C15752  10.396  10.235   5.523  0.4322  0.0698  0.0902
  858MOL0     C15753  10.482  10.334   5.566  1.1799  1.3691  0.8230
  858MOL0     O15754  10.499  10.368   5.695 -0.7283 -0.9057 -0.0364
  858MOL0     C15755  10.384  10.384   5.781  0.7094 -0.4538  0.2704
  858MOL0     C15756  10.419  10.450   5.911  0.1642  0.2317  0.4530
  858MOL0     C15757  10.508  10.355   6.000 -0.0030  0.2633  0.6586
  858MOL0     C15758  10.589  10.415   6.114  0.4972  1.1320 -0.1136
  858MOL0     C15759  10.501  10.432   6.237  0.1557  0.7078 -0.2853
  858MOL0     C15760  10.434  10.446   6.334  0.5455  1.1930 -0.3612
  858MOL0     C15761  10.564  10.396   5.468 -0.6431  1.2546  0.0504
  858MOL0     C15762  10.562  10.348   5.336  0.0610  0.9769 -0.1737
  858MOL0     H15763  10.834  10.281   4.972  0.1540 -0.3861 -0.2182
  858MOL0     H15764  10.890  10.249   4.746 -0.9703  0.7453 -2.9209
  858MOL0     H15765  10.609  10.001   4.475 -3.5621  0.2649 -1.2534
  858MOL0     H15766  10.570  10.171   4.453 -1.0988 -0.8994 -2.0102
  858MOL0     H15767  10.687  10.198   4.263  2.4764  0.5633  0.1701
  858MOL0     H15768  10.815  10.094   4.319  0.4051  0.2772 -5.3877
  858MOL0     H15769  10.672   9.892   4.265  1.6146  0.1185 -0.3899
  858MOL0     H15770  10.541  10.008   4.211  0.2596  2.8779  0.6419
  858MOL0     H15771  10.731  10.103   4.051  0.5972  0.0706 -1.7915
  858MOL0     H15772  10.798   9.932   4.065  0.0398  0.5398  0.6765
  858MOL0     H15773  10.570   9.864   3.974 -0.7950  0.6111  1.5353
  858MOL0     H15774  10.546  10.039   3.960 -0.9610 -1.1652  0.0675
  858MOL0     H15775  10.726  10.057   3.802  2.2557  0.4651  1.5697
  858MOL0     H15776  10.773   9.883   3.821 -1.2560 -0.5583  2.0108
  858MOL0     H15777  10.549   9.824   3.729 -0.6826  1.2688  5.1608
  858MOL0     H15778  10.521  10.001   3.715  1.9880  3.5399 -0.2943
  858MOL0     H15779  10.763   9.849   3.561  1.3214  2.0411 -2.5998
  858MOL0     H15780  10.694  10.008   3.540  1.2195 -0.1576  1.6912
  858MOL0     H15781  10.394   9.948   3.497 -0.8514 -1.0516 -0.6580
  858MOL0     H15782  10.253   9.759   3.255 -2.1091  0.4605  0.2555
  858MOL0     H15783  10.241   9.918   3.331 -1.6440 -1.1313 -1.2552
  858MOL0     H15784  10.257   9.859   3.049  0.6326 -0.3653  0.0634
  858MOL0     H15785  10.392   9.969   3.106 -1.2147  2.5637  1.3338
  858MOL0     H15786  10.098  10.030   3.103 -0.5873  0.2821  1.0050
  858MOL0     H15787  10.231  10.099   3.010 -0.4938  3.3783  0.6212
  858MOL0     H15788  10.141  10.177   3.284 -0.9977  0.0366 -0.7429
  858MOL0     H15789  10.233  10.252   3.162  0.2915 -0.0099 -0.9489
  858MOL0     H15790  10.448  10.207   3.076 -0.2694 -0.3670  0.9401
  858MOL0     H15791  10.697  10.415   2.967 -1.1601  1.4706  2.3016
  858MOL0     H15792  10.794  10.265   2.981 -1.1906 -1.6861 -1.4169
  858MOL0     H15793  10.618  10.254   2.938 -1.6079  0.9020  1.2105
  858MOL0     H15794  11.033  10.604   3.300  0.8224  1.7526 -0.2142
  858MOL0     H15795  11.241  10.706   3.247 -0.6158  3.5205 -1.9371
  858MOL0     H15796  11.496  10.608   2.880  1.7713  0.2227  0.4678
  858MOL0     H15797  11.406  10.759   2.822  1.7505 -1.0671 -1.8146
  858MOL0     H15798  11.657  10.787   2.823  2.0158 -0.1619  1.6620
  858MOL0     H15799  11.578  10.884   2.940  1.3228  0.7607  0.2955
  858MOL0     H15800  11.712  10.639   3.041  0.7389  0.7928  2.4351
  858MOL0     H15801  11.626  10.767   3.133  2.0755 -1.0097  2.3521
  858MOL0     H15802  11.788  10.930   3.008 -0.2269 -0.2985 -1.6330
  858MOL0     H15803  11.844  10.847   3.153 -0.8267 -3.0227  0.1524
  858MOL0     H15804  11.886  10.713   2.884 -0.7062 -0.5717  1.1177
  858MOL0     H15805  11.967  10.694   3.039  3.2020 -0.7319 -2.2467
  858MOL0     H15806  12.002  10.972   2.903  1.4767  0.7294  3.5234
  858MOL0     H15807  12.083  10.912   3.027 -2.4891  4.1837 -0.2206
  858MOL0     H15808  12.211  10.880   2.793  1.1580 -1.6964  1.2639
  858MOL0     H15809  12.047  10.839   2.721 -2.5904  0.6051  2.5049
  858MOL0     H15810  12.079  10.602   2.784  0.4265 -0.2276 -2.0694
  858MOL0     H15811  12.190  10.647   2.909 -1.6703  2.2052  1.9718
  858MOL0     H15812  11.235  10.548   2.851 -1.5668 -2.1454  0.5365
  858MOL0     H15813  11.038  10.453   2.899  1.2277 -0.6659 -0.8336
  858MOL0     H15814  10.719  10.299   3.472  0.1986  0.3113 -0.0400
  858MOL0     H15815  10.492  10.203   3.488 -0.4307 -2.1470 -0.4402
  858MOL0     H15816  10.490  10.097   4.674 -0.1463  2.3563 -1.5481
  858MOL0     H15817  10.422  10.160   4.890 -0.3208 -1.2862 -1.3720
  858MOL0     H15818  10.325  10.099   5.377 -1.6819  1.3858  0.6938
  858MOL0     H15819  10.336  10.176   5.592  0.6031 -4.9158 -3.4807
  858MOL0     H15820  10.314  10.448   5.726  0.5895 -0.5682  0.2868
  858MOL0     H15821  10.356  10.280   5.802  1.7505 -0.4226  2.0033
  858MOL0     H15822  10.329  10.477   5.965 -0.5569  0.0453 -0.6298
  858MOL0     H15823  10.480  10.537   5.886 -0.2036 -0.2965 -2.7098
  858MOL0     H15824  10.574  10.302   5.930 -0.2055 -1.2613  1.5728
  858MOL0     H15825  10.444  10.283   6.051  3.1144 -1.1085  2.9482
  858MOL0     H15826  10.620  10.514   6.079 -0.5892  1.1888 -0.9702
  858MOL0     H15827  10.661  10.340   6.146 -0.8836  0.9980  3.0232
  858MOL0     H15828  10.361  10.456   6.412  0.3318  1.7186 -0.6213
  858MOL0     H15829  10.635  10.477   5.479 -0.1984  1.3320 -2.8127
  858MOL0     H15830  10.637  10.395   5.273  2.8272 -0.0103  2.1597
  859MOL0     O15831   9.489   8.577  10.157  0.2428  0.0130 -0.5424
  859MOL0     C15832   9.508   8.463  10.112  0.2862 -0.3320 -0.4281
  859MOL0     O15833   9.537   8.432   9.983  0.3524 -0.4711  0.0849
  859MOL0     C15834   9.513   8.531   9.887 -0.0702 -0.1963 -0.5221
  859MOL0     C15835   9.607   8.538   9.785  0.8432  0.1850 -0.4016
  859MOL0     C15836   9.595   8.639   9.683  0.3432  1.0384  0.5472
  859MOL0     C15837   9.474   8.709   9.678  0.6104  0.5195  0.6193
  859MOL0     O15838   9.449   8.784   9.562  0.7310 -0.2720  0.8553
  859MOL0     C15839   9.328   8.859   9.534 -0.3050 -0.1709 -0.0647
  859MOL0     C15840   9.369   8.956   9.420  0.0752  0.1268  0.0544
  859MOL0     C15841   9.476   9.053   9.445  0.2426 -0.2854 -0.2380
  859MOL0     C15842   9.435   9.142   9.563 -0.7753  0.5153  0.4847
  859MOL0     C15843   9.498   9.284   9.557 -0.3031  0.0983  1.1250
  859MOL0     C15844   9.425   9.383   9.650 -1.1749  0.1039 -0.6516
  859MOL0     C15845   9.501   9.525   9.641 -0.2076  0.2174 -0.2739
  859MOL0     C15846   9.647   9.529   9.667  0.3288  0.4564 -0.2168
  859MOL0     N15847   9.689   9.438   9.779  0.0995  0.1931 -0.0220
  859MOL0     C15848   9.820   9.373   9.805  0.8999 -0.4586 -0.2266
  859MOL0     C15849   9.804   9.321   9.930  0.4766  0.0198  0.6085
  859MOL0     C15850   9.917   9.243  10.003 -1.0377 -0.2392  0.4328
  859MOL0     C15851  10.006   9.327  10.095 -0.4011  0.7712  0.2329
  859MOL0     C15852   9.938   9.378  10.213  0.8731 -0.2099 -0.8399
  859MOL0     C15853  10.043   9.444  10.308  0.3671  0.4774  0.1084
  859MOL0     O15854   9.969   9.552  10.368 -0.2802 -0.3078 -0.4403
  859MOL0     C15855  10.067   9.637  10.412 -0.7584  0.5790 -0.5721
  859MOL0     C15856  10.063   9.768  10.378  0.2333 -0.1629  0.2916
  859MOL0     C15857  10.150   9.862  10.432  0.4236  0.8503 -0.4427
  859MOL0     C15858  10.132  10.005  10.382 -0.5596  0.7098  0.0543
  859MOL0     C15859  10.263   9.817  10.518  0.0546 -0.2793 -0.2785
  859MOL0     C15860  10.376   9.898  10.571 -0.9427  0.6892  0.1037
  859MOL0     O15861  10.467   9.852  10.663  0.2588 -0.4455 -0.2300
  859MOL0     C15862  10.506   9.952  10.747 -0.2354  0.1538  0.0887
  859MOL0     C15863  10.626  10.015  10.723 -0.8387  1.3216 -0.4802
  859MOL0     C15864  10.680  10.118  10.798 -0.6968  0.5798  0.6756
  859MOL0     C15865  10.610  10.157  10.912 -0.4296  0.7068  0.2241
  859MOL0     O15866  10.657  10.251  11.001  0.3778  0.1452 -0.0765
  859MOL0     C15867  10.578  10.371  11.004 -0.5792 -0.7021 -0.0194
  859MOL0     C15868  10.571  10.467  10.882  0.3546  0.2886 -0.8580
  859MOL0     C15869  10.696  10.543  10.851 -0.4152  0.1724 -0.3209
  859MOL0     C15870  10.673  10.608  10.713 -0.1100 -0.7563 -0.1367
  859MOL0     C15871  10.785  10.710  10.698 -0.6538  0.6649 -0.5924
  859MOL0     C15872  10.782  10.786  10.560  0.1485 -0.1995  0.5506
  859MOL0     C15873  10.674  10.893  10.543 -0.0204 -0.8043 -0.1116
  859MOL0     C15874  10.571  10.859  10.439  0.7977  0.2449 -0.8492
  859MOL0    Cl15875  10.426  10.968  10.448 -0.1765  0.3001  0.4881
  859MOL0     C15876  10.492  10.088  10.936 -0.5895  0.5376 -0.3133
  859MOL0     C15877  10.439   9.984  10.857 -0.2071 -0.3340  0.2502
  859MOL0     O15878  10.388  10.007  10.515 -0.3914 -0.2552 -0.3000
  859MOL0     C15879  10.270   9.680  10.546  0.0556 -0.9287  1.0519
  859MOL0     C15880  10.176   9.596  10.490 -0.4069  0.6995 -1.1894
  859MOL0     N15881   9.675   9.342   9.973 -1.2025  0.3319  0.1441
  859MOL0     N15882   9.610   9.416   9.895 -0.0684  0.2467 -1.0033
  859MOL0     C15883   9.383   8.702   9.775 -0.7320 -1.3291 -0.3786
  859MOL0     C15884   9.397   8.614   9.881  0.1705  0.0846  0.9965
  859MOL0     C15885   9.465   8.357  10.197  0.3996  1.1412  0.9264
  859MOL0     C15886   9.486   8.222  10.157  1.2906 -0.3550  0.5390
  859MOL0     C15887   9.415   8.115  10.230 -0.1476 -0.3821  0.3247
  859MOL0     C15888   9.353   8.149  10.349  1.0209  0.7785 -0.0514
  859MOL0     O15889   9.279   8.047  10.413  0.5782  0.0221  0.1721
  859MOL0     C15890   9.280   8.064  10.557 -0.1746  0.8765 -0.3920
  859MOL0     C15891   9.241   7.937  10.637  0.3540  0.5689 -0.6191
  859MOL0     C15892   9.340   7.817  10.622  0.5395 -1.3676  0.1321
  859MOL0     C15893   9.469   7.850  10.693 -0.4278  0.5240  0.3251
  859MOL0     C15894   9.455   7.865  10.839 -0.2777  0.7692  0.6507
  859MOL0     C15895   9.421   7.874  10.948  0.5564 -0.3955  0.2976
  859MOL0     C15896   9.362   8.273  10.406  0.7770 -0.5312 -0.7123
  859MOL0     C15897   9.416   8.376  10.329  0.3668 -0.4429  0.3885
  859MOL0     H15898   9.693   8.473   9.775 -0.5970 -1.5813 -1.9796
  859MOL0     H15899   9.666   8.642   9.601  0.9893 -4.5968  0.5109
  859MOL0     H15900   9.245   8.798   9.498  0.3254 -0.6760 -0.7006
  859MOL0     H15901   9.298   8.908   9.626  0.5109  1.5743 -0.6922
  859MOL0     H15902   9.378   8.892   9.331 -4.0120 -1.4731  0.5676
  859MOL0     H15903   9.279   9.015   9.398 -0.8849 -1.7597 -1.4599
  859MOL0     H15904   9.575   9.010   9.461  0.3399 -0.6159 -1.6433
  859MOL0     H15905   9.485   9.108   9.351 -3.2033  2.4207  0.8124
  859MOL0     H15906   9.328   9.162   9.558 -1.0949 -0.8403  1.3723
  859MOL0     H15907   9.451   9.089   9.658  2.9106  3.5765  1.8462
  859MOL0     H15908   9.605   9.278   9.581 -0.4727  1.6861  2.4517
  859MOL0     H15909   9.490   9.328   9.457  1.7263 -2.2793 -0.1991
  859MOL0     H15910   9.318   9.401   9.637 -1.8702 -2.9043  0.1362
  859MOL0     H15911   9.421   9.336   9.749  0.9553 -1.9677 -1.4314
  859MOL0     H15912   9.493   9.570   9.542  1.8776  2.3222  0.4056
  859MOL0     H15913   9.454   9.596   9.711  0.1423 -1.1354  1.4070
  859MOL0     H15914   9.682   9.632   9.678 -2.0801  1.3813 -0.5002
  859MOL0     H15915   9.684   9.501   9.569  1.3029 -2.3262  0.8518
  859MOL0     H15916   9.916   9.362   9.756  3.3707  2.8101  3.2516
  859MOL0     H15917   9.868   9.158  10.053 -1.6826 -1.0722 -1.5344
  859MOL0     H15918   9.987   9.208   9.927 -2.7630 -0.1165 -1.2874
  859MOL0     H15919  10.046   9.413  10.041 -2.2282  2.6940  1.7318
  859MOL0     H15920  10.093   9.267  10.123  2.2137  1.8715 -4.4854
  859MOL0     H15921   9.890   9.303  10.276  1.6047 -0.6515 -0.7930
  859MOL0     H15922   9.861   9.448  10.180  0.3813 -0.0948  0.4944
  859MOL0     H15923  10.129   9.481  10.251  0.4141  0.7947  0.3802
  859MOL0     H15924  10.073   9.361  10.373  1.3336 -0.9310 -2.0273
  859MOL0     H15925   9.991   9.812  10.311  0.7038 -0.1040 -0.1834
  859MOL0     H15926  10.180  10.087  10.436  3.4119 -0.6823 -1.0424
  859MOL0     H15927  10.159  10.018  10.277 -1.4465  1.3844 -0.1062
  859MOL0     H15928  10.025  10.028  10.390 -1.4773 -2.9299  0.2329
  859MOL0     H15929  10.691   9.995  10.639 -0.5551 -0.7861  0.1962
  859MOL0     H15930  10.775  10.160  10.767 -0.5334 -0.1116  0.2147
  859MOL0     H15931  10.481  10.343  11.045 -1.1714  0.9142 -0.2608
  859MOL0     H15932  10.635  10.425  11.081 -2.8704  1.7062  0.0998
  859MOL0     H15933  10.557  10.403  10.794  1.7617 -1.5374  0.1716
  859MOL0     H15934  10.487  10.534  10.902  1.4092  0.8049  2.4154
  859MOL0     H15935  10.790  10.491  10.833  1.7067  4.1742 -1.9284
  859MOL0     H15936  10.708  10.618  10.930 -1.4304 -0.4943  0.4861
  859MOL0     H15937  10.677  10.531  10.635  1.8797 -0.1569 -0.7053
  859MOL0     H15938  10.577  10.656  10.691  0.9371 -0.1531 -4.3873
  859MOL0     H15939  10.884  10.663  10.706 -1.4423 -0.7765  1.7855
  859MOL0     H15940  10.775  10.786  10.776  1.7310  0.8953 -0.4332
  859MOL0     H15941  10.880  10.832  10.547 -0.7648  1.3762 -1.3874
  859MOL0     H15942  10.773  10.720  10.473 -2.7302  1.0597 -0.2318
  859MOL0     H15943  10.712  10.992  10.517 -2.9554 -0.4604 -4.0911
  859MOL0     H15944  10.633  10.904  10.644 -1.1749  2.2491 -0.8243
  859MOL0     H15945  10.533  10.759  10.464  0.3076  0.6628  0.1132
  859MOL0     H15946  10.631  10.856  10.347 -0.0378  1.2556 -1.4503
  859MOL0     H15947  10.430  10.125  11.018  0.8320 -0.1298  1.1357
  859MOL0     H15948  10.350   9.935  10.894 -2.0559  2.4698 -0.1618
  859MOL0     H15949  10.343   9.641  10.616  3.8848  2.1678 -0.8283
  859MOL0     H15950  10.163   9.494  10.527 -0.1903  0.9544 -0.3873
  859MOL0     H15951   9.305   8.777   9.780 -1.0333 -1.6680  0.0412
  859MOL0     H15952   9.325   8.611   9.962 -1.0857 -0.1565 -0.0942
  859MOL0     H15953   9.533   8.188  10.065 -3.3482  2.9561 -3.5860
  859MOL0     H15954   9.400   8.011  10.205  0.9288 -1.2056  2.8046
  859MOL0     H15955   9.379   8.079  10.599 -1.7110 -0.2350  4.2089
  859MOL0     H15956   9.206   8.143  10.572  0.9344  2.0004 -0.7513
  859MOL0     H15957   9.154   7.898  10.583  0.1826 -1.1259  0.7841
  859MOL0     H15958   9.206   7.949  10.740 -0.4497 -0.9712 -0.6807
  859MOL0     H15959   9.361   7.815  10.515 -2.3828 -0.9643 -0.5274
  859MOL0     H15960   9.283   7.727  10.647 -1.6494 -0.5044 -1.4402
  859MOL0     H15961   9.517   7.940  10.656 -0.4267  1.3035  2.1080
  859MOL0     H15962   9.540   7.766  10.685  0.3393  1.2863 -1.3870
  859MOL0     H15963   9.384   7.898  11.045  0.4720  2.4581 -0.3466
  859MOL0     H15964   9.329   8.296  10.506  4.2927 -1.3820  0.7786
  859MOL0     H15965   9.423   8.472  10.380 -0.7146 -1.1323  1.9230
  860MOL0     O15966   8.960   2.864   2.653  0.6556  0.1869  0.4452
  860MOL0     C15967   8.853   2.894   2.597 -0.5025 -0.2675  0.8792
  860MOL0     O15968   8.815   2.836   2.481 -0.1063 -0.0257  0.8767
  860MOL0     C15969   8.884   2.734   2.421  0.7593 -0.9547  0.9244
  860MOL0     C15970   8.999   2.769   2.351  0.2167 -0.3235  0.0537
  860MOL0     C15971   9.071   2.664   2.294 -0.3598  0.1886 -0.2644
  860MOL0     C15972   9.037   2.529   2.319  0.1531 -1.0887  0.7536
  860MOL0     O15973   9.109   2.423   2.277  0.0432  0.5748  0.5619
  860MOL0     C15974   9.135   2.412   2.136  0.7454 -0.4611 -0.1668
  860MOL0     C15975   9.245   2.309   2.128 -0.5372 -0.0748 -0.3629
  860MOL0     C15976   9.221   2.160   2.165  0.5746  0.7560  0.2377
  860MOL0     C15977   9.075   2.117   2.142 -0.2744  0.6895 -0.4160
  860MOL0     C15978   9.060   1.974   2.191 -0.1637 -0.1153  0.5901
  860MOL0     C15979   8.910   1.930   2.198 -0.0464 -0.8117 -0.4702
  860MOL0     C15980   8.858   1.942   2.352 -0.0119  0.6170  0.3735
  860MOL0     C15981   8.711   1.899   2.368 -0.0897 -0.0011 -0.2398
  860MOL0     N15982   8.665   1.764   2.329  0.5675  0.5438 -0.5820
  860MOL0     C15983   8.539   1.725   2.317  0.7699  0.4912 -0.1115
  860MOL0     C15984   8.549   1.600   2.271  0.0788 -1.1558  0.4173
  860MOL0     C15985   8.432   1.520   2.222 -0.3108 -0.8482  0.2078
  860MOL0     C15986   8.422   1.398   2.302  0.2929  0.3924  0.4093
  860MOL0     C15987   8.332   1.298   2.211 -0.0174  0.8529 -0.9160
  860MOL0     C15988   8.301   1.169   2.293  0.5664  0.3646 -0.0572
  860MOL0     O15989   8.179   1.189   2.363 -0.4555 -0.0122 -0.1265
  860MOL0     C15990   8.125   1.079   2.427 -0.5830 -1.1871 -0.3403
  860MOL0     C15991   8.185   0.953   2.454  0.9759 -0.3729  0.4441
  860MOL0     C15992   8.108   0.846   2.514  0.8056 -0.2981  0.4365
  860MOL0     C15993   8.188   0.720   2.546 -0.6594  0.0195  0.1764
  860MOL0     C15994   7.974   0.864   2.535  0.3278  0.2117 -0.3984
  860MOL0     C15995   7.876   0.763   2.591 -1.1031 -0.5611 -0.1092
  860MOL0     O15996   7.768   0.806   2.656  0.6512  0.2425  0.4099
  860MOL0     C15997   7.689   0.730   2.746  0.0481  0.4416 -1.4443
  860MOL0     C15998   7.729   0.628   2.833  0.3909 -0.9709 -0.3654
  860MOL0     C15999   7.652   0.575   2.937 -0.2971 -0.1675 -0.7557
  860MOL0     C16000   7.511   0.611   2.944 -1.2679 -0.4827  0.3957
  860MOL0     O16001   7.434   0.567   3.049 -0.2963 -0.0888  0.1267
  860MOL0     C16002   7.306   0.629   3.073  0.1598  0.6633  0.2789
  860MOL0     C16003   7.226   0.529   3.169  0.3414 -0.0017  0.2183
  860MOL0     C16004   7.132   0.613   3.263 -0.3331 -0.8828 -0.4484
  860MOL0     C16005   7.035   0.523   3.343 -0.9599  0.2766  0.2770
  860MOL0     C16006   6.912   0.482   3.258 -1.0123  0.4770 -0.5036
  860MOL0     C16007   6.883   0.326   3.261  0.7064 -0.0745 -0.5396
  860MOL0     C16008   6.751   0.296   3.201  0.5319  0.1091  0.9503
  860MOL0     C16009   6.748   0.155   3.132  0.0946 -0.4637  0.6826
  860MOL0    Cl16010   6.593   0.130   3.028  0.1981  0.4307 -0.2762
  860MOL0     C16011   7.469   0.714   2.855 -0.3045 -0.2549 -0.0953
  860MOL0     C16012   7.554   0.776   2.759 -1.1205  0.8366  0.1979
  860MOL0     O16013   7.913   0.644   2.586  0.7794 -0.5357  0.6791
  860MOL0     C16014   7.909   0.988   2.498  0.7716 -0.5416  0.4074
  860MOL0     C16015   7.987   1.095   2.467 -0.5736  0.2206  0.2343
  860MOL0     N16016   8.675   1.559   2.279  0.1652  0.0051  0.2963
  860MOL0     N16017   8.747   1.654   2.318  0.9512 -0.3215 -0.4653
  860MOL0     C16018   8.922   2.497   2.383 -0.2321  0.2794  0.2380
  860MOL0     C16019   8.843   2.609   2.434  0.0119  0.3129 -1.2025
  860MOL0     C16020   8.770   2.995   2.656  0.3209  0.1780 -0.3154
  860MOL0     C16021   8.774   3.026   2.795 -0.3019 -0.3114  1.1070
  860MOL0     C16022   8.691   3.128   2.846  1.0595  1.1547 -0.7812
  860MOL0     C16023   8.598   3.192   2.776 -0.6002  1.1465 -0.2658
  860MOL0     O16024   8.533   3.292   2.842  0.3838  0.3964  0.4871
  860MOL0     C16025   8.450   3.392   2.785 -0.9184 -0.0191  0.0496
  860MOL0     C16026   8.322   3.403   2.861 -0.1838  0.2510  0.0504
  860MOL0     C16027   8.238   3.279   2.815 -0.0820 -0.7984 -0.1832
  860MOL0     C16028   8.106   3.281   2.861  0.4077 -0.2512  0.2967
  860MOL0     C16029   8.103   3.186   2.974 -0.1017 -0.1709  0.7554
  860MOL0     C16030   8.078   3.116   3.070  0.8804 -0.5822 -0.1578
  860MOL0     C16031   8.580   3.149   2.643 -0.2054 -0.2378  0.2549
  860MOL0     C16032   8.658   3.050   2.581  0.6129  0.2800 -0.0801
  860MOL0     H16033   9.025   2.874   2.344 -2.5107  0.3022 -3.0712
  860MOL0     H16034   9.168   2.692   2.253 -1.2603  2.2560 -1.1038
  860MOL0     H16035   9.051   2.385   2.071  2.1696 -3.5095 -0.9547
  860MOL0     H16036   9.173   2.506   2.094 -2.1459  1.1723  0.5639
  860MOL0     H16037   9.263   2.318   2.020  1.0946  1.4686 -0.0056
  860MOL0     H16038   9.336   2.335   2.182 -1.1320 -2.6016  2.1258
  860MOL0     H16039   9.269   2.094   2.092 -0.7548 -0.1259  0.1144
  860MOL0     H16040   9.248   2.126   2.265 -1.6339 -1.8884  0.0666
  860MOL0     H16041   9.002   2.175   2.199 -0.5589  0.1437 -0.2141
  860MOL0     H16042   9.053   2.109   2.035  0.5154 -2.7432 -0.4421
  860MOL0     H16043   9.113   1.906   2.124  2.3781  0.8175  1.5079
  860MOL0     H16044   9.112   1.960   2.286  1.9375  1.8469 -0.1611
  860MOL0     H16045   8.855   1.980   2.118 -2.0664  0.1553  1.4083
  860MOL0     H16046   8.914   1.824   2.173  4.8113 -0.4283 -2.4251
  860MOL0     H16047   8.925   1.886   2.417  0.4377 -0.1365 -0.7014
  860MOL0     H16048   8.865   2.048   2.377  1.9641  0.4019  0.8633
  860MOL0     H16049   8.649   1.974   2.316  2.7661  2.7485  0.0561
  860MOL0     H16050   8.695   1.913   2.475 -0.7289  1.9850 -0.5406
  860MOL0     H16051   8.449   1.785   2.328 -1.1676 -2.3092  0.2899
  860MOL0     H16052   8.346   1.587   2.232  1.3330  1.0183  3.7496
  860MOL0     H16053   8.451   1.499   2.116 -0.5616  0.3198 -0.0856
  860MOL0     H16054   8.382   1.410   2.403 -0.7519 -4.0620  0.7131
  860MOL0     H16055   8.522   1.360   2.325  1.2066  3.5792  2.3966
  860MOL0     H16056   8.395   1.270   2.127  2.3655  0.8711  0.7703
  860MOL0     H16057   8.242   1.355   2.187 -0.7571  0.4686  0.7671
  860MOL0     H16058   8.381   1.148   2.364 -1.4722  4.5529  4.0523
  860MOL0     H16059   8.283   1.086   2.225  2.6166 -0.1788  0.0066
  860MOL0     H16060   8.291   0.942   2.434  0.9137 -1.2693  0.5435
  860MOL0     H16061   8.141   0.660   2.625  1.5061 -1.2496  0.6062
  860MOL0     H16062   8.183   0.656   2.457 -0.2463 -1.6898  1.3401
  860MOL0     H16063   8.294   0.732   2.572 -1.0394  1.0058  1.3098
  860MOL0     H16064   7.833   0.601   2.815  0.9355  1.8924 -2.2453
  860MOL0     H16065   7.687   0.492   2.998 -0.6887  1.0367  1.2148
  860MOL0     H16066   7.312   0.731   3.111 -0.2542  0.4577  0.9146
  860MOL0     H16067   7.249   0.635   2.980 -1.5651  2.9090  1.3853
  860MOL0     H16068   7.162   0.464   3.109 -2.0682  2.6645 -0.3184
  860MOL0     H16069   7.290   0.468   3.233 -1.8949  2.1124  4.9867
  860MOL0     H16070   7.089   0.693   3.201  0.1876 -0.6077 -0.4640
  860MOL0     H16071   7.195   0.667   3.334 -2.4826 -0.4551  1.2319
  860MOL0     H16072   7.079   0.436   3.393 -2.6372 -2.3813 -2.5298
  860MOL0     H16073   7.010   0.583   3.431  2.2302  0.5767  1.0813
  860MOL0     H16074   6.933   0.505   3.153 -1.8117  1.5962 -0.4297
  860MOL0     H16075   6.822   0.539   3.283 -0.5674  1.4571 -1.1020
  860MOL0     H16076   6.964   0.271   3.214  1.0187  0.8747 -1.1359
  860MOL0     H16077   6.878   0.301   3.367 -2.1199  3.6716  0.4635
  860MOL0     H16078   6.737   0.372   3.124  3.6958  0.4678  0.5846
  860MOL0     H16079   6.670   0.313   3.273 -1.5766  0.9703 -1.4649
  860MOL0     H16080   6.763   0.073   3.202 -0.2061 -0.0199  1.2805
  860MOL0     H16081   6.832   0.154   3.062 -2.1597 -4.7427 -2.4149
  860MOL0     H16082   7.372   0.761   2.868  0.1222  0.3850  0.8691
  860MOL0     H16083   7.532   0.856   2.689  4.3490  1.6504 -1.0627
  860MOL0     H16084   7.801   0.998   2.512  1.0525 -0.2886  2.7588
  860MOL0     H16085   7.954   1.196   2.448 -0.8684  0.0052 -0.4375
  860MOL0     H16086   8.900   2.391   2.394 -2.3957  0.4905 -1.3263
  860MOL0     H16087   8.754   2.594   2.495 -0.2220  2.3634 -0.9575
  860MOL0     H16088   8.842   2.973   2.862 -1.6739  1.6026  4.2711
  860MOL0     H16089   8.723   3.161   2.945  3.1650 -0.6101 -0.8034
  860MOL0     H16090   8.497   3.490   2.790 -0.5160 -0.0634 -2.0995
  860MOL0     H16091   8.436   3.373   2.678 -0.9282  3.1948 -0.6032
  860MOL0     H16092   8.289   3.501   2.823  0.2321  1.5056  2.6821
  860MOL0     H16093   8.335   3.410   2.970 -1.3744 -1.8375  0.3701
  860MOL0     H16094   8.283   3.180   2.826 -0.0302 -0.5149  2.9122
  860MOL0     H16095   8.231   3.286   2.706 -2.1606 -3.8472 -0.3934
  860MOL0     H16096   8.039   3.251   2.780  3.5711 -0.2727 -2.5410
  860MOL0     H16097   8.066   3.373   2.903  2.4990  0.3231  1.1455
  860MOL0     H16098   8.052   3.060   3.157 -0.9418  0.9910  0.3747
  860MOL0     H16099   8.502   3.205   2.591 -1.5081 -1.2525  1.0337
  860MOL0     H16100   8.647   3.015   2.479  1.4266  2.5410 -1.0153
  861MOL0     O16101   2.899   7.499   2.665 -1.0040  0.9936 -0.2580
  861MOL0     C16102   2.856   7.451   2.561  1.3017 -0.3212  0.9928
  861MOL0     O16103   2.726   7.456   2.523 -0.0945  0.1448  1.4185
  861MOL0     C16104   2.629   7.486   2.616  0.2197 -0.4398 -0.8067
  861MOL0     C16105   2.514   7.551   2.559  0.4373  0.4829 -0.4712
  861MOL0     C16106   2.418   7.609   2.643 -1.0026 -0.1147  0.6869
  861MOL0     C16107   2.412   7.582   2.783  0.7382  0.3100  0.6706
  861MOL0     O16108   2.307   7.636   2.850 -0.4262 -0.0388  0.2349
  861MOL0     C16109   2.252   7.554   2.958 -0.8444 -0.2105 -0.0978
  861MOL0     C16110   2.275   7.613   3.093 -0.4927 -0.8117 -0.5909
  861MOL0     C16111   2.205   7.748   3.128  0.9210 -0.5292 -0.6818
  861MOL0     C16112   2.284   7.876   3.094  0.8232  1.0802 -0.0617
  861MOL0     C16113   2.201   8.004   3.104  0.0797  0.2760  0.2710
  861MOL0     C16114   2.120   8.017   3.237  0.4570 -0.5656  1.0741
  861MOL0     C16115   2.064   8.163   3.244 -1.4217  0.4915 -0.8074
  861MOL0     C16116   1.993   8.200   3.376  0.4917 -0.4645 -0.4514
  861MOL0     N16117   2.075   8.251   3.486 -0.8439  0.2736  0.7137
  861MOL0     C16118   2.052   8.234   3.619 -0.0000 -0.2827 -0.9352
  861MOL0     C16119   2.141   8.312   3.693  0.2922  0.6369  0.3677
  861MOL0     C16120   2.166   8.317   3.831 -0.6312 -0.5991 -0.2143
  861MOL0     C16121   2.155   8.188   3.911 -0.2946 -1.2210  0.1767
  861MOL0     C16122   2.249   8.083   3.863  0.1402  0.1164 -0.1366
  861MOL0     C16123   2.216   7.944   3.938  0.9496 -0.3174  0.4738
  861MOL0     O16124   2.250   7.830   3.861  0.6100 -0.3369 -0.2194
  861MOL0     C16125   2.188   7.794   3.742 -0.1511  0.4262  0.0876
  861MOL0     C16126   2.259   7.696   3.680  0.2688  0.3701 -0.6567
  861MOL0     C16127   2.212   7.639   3.561 -0.1862  1.4674  0.3618
  861MOL0     C16128   2.308   7.539   3.501 -0.8283  0.5089 -0.3010
  861MOL0     C16129   2.085   7.673   3.506  0.4551  0.5844 -0.1053
  861MOL0     C16130   2.014   7.603   3.398 -0.1302 -0.4049  0.0285
  861MOL0     O16131   1.909   7.673   3.355  0.1315  0.1697  0.2413
  861MOL0     C16132   1.827   7.617   3.269 -0.0428 -0.3946 -0.0294
  861MOL0     C16133   1.752   7.504   3.300 -0.0962 -0.4514 -0.2177
  861MOL0     C16134   1.663   7.442   3.209  0.4606 -0.3806  0.7535
  861MOL0     C16135   1.674   7.490   3.074 -0.5556 -0.0367  0.7389
  861MOL0     O16136   1.606   7.437   2.967 -0.1639 -1.1109 -0.1065
  861MOL0     C16137   1.481   7.377   3.004 -0.3855 -0.0829 -0.8133
  861MOL0     C16138   1.402   7.343   2.878 -0.1854 -0.7635 -0.3745
  861MOL0     C16139   1.467   7.250   2.777  0.6315 -0.8553  0.0719
  861MOL0     C16140   1.514   7.121   2.845 -0.1462  0.8329  0.3740
  861MOL0     C16141   1.575   7.020   2.749  0.2985  0.0912  0.1623
  861MOL0     C16142   1.461   6.946   2.670  0.6978 -0.3876  0.0506
  861MOL0     C16143   1.432   6.801   2.731  0.5522 -0.5991  0.2204
  861MOL0     C16144   1.304   6.739   2.687  0.3898  1.0450 -0.4190
  861MOL0    Cl16145   1.162   6.848   2.709  0.5407 -0.4966  0.1486
  861MOL0     C16146   1.759   7.597   3.039  1.2631 -0.5465  0.5260
  861MOL0     C16147   1.829   7.660   3.133  0.3877 -0.3103 -0.2421
  861MOL0     O16148   2.038   7.484   3.367  0.2507  0.3797  0.0121
  861MOL0     C16149   2.023   7.788   3.566  0.0810 -0.3387 -0.1039
  861MOL0     C16150   2.078   7.847   3.683  1.1380  0.5848 -1.3714
  861MOL0     N16151   2.222   8.361   3.590 -0.7743 -0.0398 -0.7703
  861MOL0     N16152   2.189   8.321   3.471  0.2959 -0.4957 -0.4911
  861MOL0     C16153   2.516   7.503   2.832 -1.0937  0.1748  0.7691
  861MOL0     C16154   2.625   7.457   2.754 -0.2683  0.0374  0.0410
  861MOL0     C16155   2.967   7.421   2.470 -0.3609  0.9760  1.2034
  861MOL0     C16156   3.093   7.455   2.506  0.3427 -0.3554  0.6269
  861MOL0     C16157   3.206   7.410   2.438 -1.0733 -0.1190 -0.1170
  861MOL0     C16158   3.189   7.325   2.323 -1.3635  0.6745 -0.5793
  861MOL0     O16159   3.303   7.296   2.258  0.4790 -0.5417  0.0973
  861MOL0     C16160   3.315   7.168   2.197  1.0280  0.3537 -0.3930
  861MOL0     C16161   3.430   7.166   2.089 -0.2780 -0.1993  0.3585
  861MOL0     C16162   3.388   7.238   1.957  0.0169 -0.4547  0.5836
  861MOL0     C16163   3.501   7.330   1.909  0.3884 -0.0446  0.3463
  861MOL0     C16164   3.507   7.455   1.993 -0.0956  0.2551 -0.5650
  861MOL0     C16165   3.508   7.557   2.060  0.0878  0.1366  0.6182
  861MOL0     C16166   3.063   7.290   2.289 -0.2760 -0.5255  0.4512
  861MOL0     C16167   2.951   7.347   2.352 -0.1124 -0.3297  0.5705
  861MOL0     H16168   2.496   7.575   2.454 -2.8188  2.2359  0.3632
  861MOL0     H16169   2.328   7.660   2.609 -0.5030  0.9765  0.9562
  861MOL0     H16170   2.145   7.561   2.939 -0.7865 -0.0262 -0.3598
  861MOL0     H16171   2.282   7.449   2.952  1.0062  0.3632 -2.8641
  861MOL0     H16172   2.224   7.540   3.157 -1.7682 -0.3363 -1.0206
  861MOL0     H16173   2.381   7.627   3.113 -0.9113  0.4687  0.8932
  861MOL0     H16174   2.110   7.754   3.073  0.7805 -0.4226 -0.4315
  861MOL0     H16175   2.169   7.740   3.231 -1.6676 -1.6961 -1.5831
  861MOL0     H16176   2.365   7.879   3.168 -1.2686  2.7043  2.3133
  861MOL0     H16177   2.318   7.864   2.991 -1.1809 -4.5267 -0.4480
  861MOL0     H16178   2.276   8.084   3.098  0.0969  0.1636 -1.4727
  861MOL0     H16179   2.141   8.018   3.014 -0.5122 -3.4148 -0.0569
  861MOL0     H16180   2.029   7.956   3.241  1.4284 -2.0206  1.9946
  861MOL0     H16181   2.186   7.993   3.322  0.3118  1.2797  1.7685
  861MOL0     H16182   2.144   8.237   3.246  2.2734 -3.1083  0.4070
  861MOL0     H16183   2.005   8.169   3.152  1.8128 -0.1473 -3.0937
  861MOL0     H16184   1.930   8.116   3.405 -1.6695  1.5156  0.9450
  861MOL0     H16185   1.920   8.280   3.359 -1.7832 -2.3709 -0.0568
  861MOL0     H16186   1.980   8.174   3.674 -1.3143  0.9632 -1.2289
  861MOL0     H16187   2.270   8.349   3.837 -0.7496 -0.3861  0.9380
  861MOL0     H16188   2.100   8.392   3.875  1.2169 -0.6572  3.0379
  861MOL0     H16189   2.051   8.158   3.924 -0.4589  0.2019  2.8005
  861MOL0     H16190   2.184   8.212   4.013  2.2050  1.6626 -1.0566
  861MOL0     H16191   2.353   8.106   3.889  0.2971 -2.4950  2.0136
  861MOL0     H16192   2.238   8.067   3.756  2.2470 -0.3650 -0.3275
  861MOL0     H16193   2.109   7.934   3.958  1.0376 -0.0149  1.1181
  861MOL0     H16194   2.258   7.946   4.039  1.1618 -1.8634  0.4448
  861MOL0     H16195   2.353   7.667   3.724 -0.4653  0.8910  1.3612
  861MOL0     H16196   2.411   7.576   3.507  0.1637 -1.6119 -2.3882
  861MOL0     H16197   2.305   7.442   3.550  2.2955 -0.7324 -2.2373
  861MOL0     H16198   2.289   7.531   3.393  0.7849  0.5468 -0.6064
  861MOL0     H16199   1.760   7.464   3.401 -0.1115  0.2812  0.0832
  861MOL0     H16200   1.607   7.357   3.245 -0.6470  0.3326  0.7651
  861MOL0     H16201   1.502   7.279   3.048 -1.1958 -1.2624 -2.8753
  861MOL0     H16202   1.432   7.450   3.069  1.2343  0.0566  0.2878
  861MOL0     H16203   1.306   7.296   2.901  0.6012 -1.3710  2.0742
  861MOL0     H16204   1.388   7.437   2.824 -4.1618 -1.4433 -0.8247
  861MOL0     H16205   1.549   7.314   2.741  1.7402 -1.7480  0.9215
  861MOL0     H16206   1.401   7.230   2.692 -1.9132  1.9863  1.1775
  861MOL0     H16207   1.595   7.154   2.911  0.0319  0.6236  0.2609
  861MOL0     H16208   1.440   7.069   2.905  0.0703 -0.7097 -0.6352
  861MOL0     H16209   1.629   6.947   2.810 -2.1982 -2.9687 -1.0490
  861MOL0     H16210   1.629   7.074   2.671 -1.2591 -0.1486 -1.1215
  861MOL0     H16211   1.367   7.001   2.669  2.3897  2.6974  0.3429
  861MOL0     H16212   1.501   6.929   2.569 -1.7186 -0.2093 -0.9984
  861MOL0     H16213   1.428   6.818   2.839  1.4956  1.4969 -0.0107
  861MOL0     H16214   1.520   6.743   2.702  0.0236  0.5371 -4.2915
  861MOL0     H16215   1.282   6.658   2.758  1.0783  1.6217  0.4784
  861MOL0     H16216   1.317   6.693   2.588  0.8815 -3.2473  1.3935
  861MOL0     H16217   1.783   7.628   2.938  4.7399  1.2392  1.7456
  861MOL0     H16218   1.900   7.738   3.108  0.5180 -0.3566 -0.0257
  861MOL0     H16219   1.927   7.828   3.535  0.2640 -0.6231 -1.0896
  861MOL0     H16220   2.019   7.915   3.745 -0.2919 -3.1923  1.8674
  861MOL0     H16221   2.523   7.477   2.938  2.6489 -4.4717 -0.2890
  861MOL0     H16222   2.693   7.389   2.804 -1.7487  0.9118  3.6065
  861MOL0     H16223   3.125   7.502   2.598  2.8703  0.3060 -0.4905
  861MOL0     H16224   3.306   7.428   2.476 -1.9696 -0.0048  2.3785
  861MOL0     H16225   3.325   7.083   2.266 -2.6664 -2.3277 -2.7903
  861MOL0     H16226   3.227   7.143   2.138  0.0923 -0.5892  1.3143
  861MOL0     H16227   3.454   7.066   2.055 -3.4158 -1.3250  1.0634
  861MOL0     H16228   3.523   7.210   2.126 -1.8375  0.1055  4.4176
  861MOL0     H16229   3.292   7.290   1.964 -1.8745 -3.2896 -1.6759
  861MOL0     H16230   3.365   7.160   1.883  1.7086  0.2824 -0.7720
  861MOL0     H16231   3.477   7.358   1.807 -0.4177 -3.3077 -0.4752
  861MOL0     H16232   3.596   7.276   1.904  1.4736  1.7837  0.2267
  861MOL0     H16233   3.509   7.643   2.123  0.1938  1.2603 -0.8683
  861MOL0     H16234   3.048   7.212   2.215  2.1381  1.7389 -2.6979
  861MOL0     H16235   2.850   7.328   2.318 -0.3153  0.6679  0.6096
  862MOL0     O16236   6.301   3.527   8.300 -0.1865 -0.0027  0.5545
  862MOL0     C16237   6.425   3.507   8.303 -0.7907  0.0009 -0.3569
  862MOL0     O16238   6.501   3.522   8.418 -0.9892  0.0672 -0.3137
  862MOL0     C16239   6.422   3.509   8.532  0.2539 -0.9643  0.1583
  862MOL0     C16240   6.385   3.393   8.596 -0.1551 -0.1340 -0.4368
  862MOL0     C16241   6.294   3.399   8.710 -0.0795  0.2695 -0.2899
  862MOL0     C16242   6.242   3.527   8.753 -1.6862 -0.0079  0.4070
  862MOL0     O16243   6.159   3.540   8.862 -0.3481 -0.8243  0.1040
  862MOL0     C16244   6.080   3.428   8.904  0.5421 -0.1978  0.5636
  862MOL0     C16245   5.952   3.471   8.977 -0.4935 -0.2705 -0.6786
  862MOL0     C16246   5.854   3.353   8.980 -0.7934 -0.3411 -0.7784
  862MOL0     C16247   5.721   3.384   9.040 -1.0640  0.1517  0.2754
  862MOL0     C16248   5.633   3.256   9.051 -0.0320  0.2060  0.2714
  862MOL0     C16249   5.519   3.303   9.150  0.1115  0.4299 -0.1127
  862MOL0     C16250   5.430   3.185   9.169  0.3530  0.0417  0.4041
  862MOL0     C16251   5.479   3.072   9.260  0.4935  0.4850 -0.3153
  862MOL0     N16252   5.358   2.986   9.287 -0.0977 -0.5844 -0.1511
  862MOL0     C16253   5.304   2.988   9.418  0.1239 -0.4759 -0.5702
  862MOL0     C16254   5.199   2.900   9.403 -0.9253  0.6580 -0.8774
  862MOL0     C16255   5.087   2.875   9.502  0.6936  0.2733 -0.2925
  862MOL0     C16256   4.979   2.974   9.478  1.2046 -0.8310 -0.4602
  862MOL0     C16257   4.853   2.959   9.560  0.1593  0.0413 -0.0346
  862MOL0     C16258   4.743   3.060   9.538 -0.9312 -1.0766 -1.2920
  862MOL0     O16259   4.705   3.055   9.404 -0.2235 -0.5354 -0.7635
  862MOL0     C16260   4.625   2.959   9.351  0.6511  0.3343 -0.3301
  862MOL0     C16261   4.598   2.975   9.212 -0.0522  0.5145 -0.0758
  862MOL0     C16262   4.512   2.895   9.140  0.1739  0.0659 -0.4878
  862MOL0     C16263   4.500   2.934   8.997  0.9055  0.7410  0.6756
  862MOL0     C16264   4.446   2.790   9.207  0.1435  0.1583  0.0139
  862MOL0     C16265   4.336   2.714   9.153  0.4293  0.6761  0.2148
  862MOL0     O16266   4.361   2.580   9.117 -0.4004  0.1339  0.5480
  862MOL0     C16267   4.256   2.517   9.072  0.7783 -0.0109 -0.5851
  862MOL0     C16268   4.174   2.461   9.170  0.8905  0.3490  0.4232
  862MOL0     C16269   4.054   2.406   9.133  0.0730  0.1122 -0.1815
  862MOL0     C16270   4.013   2.392   8.999 -0.6177  0.4447  1.0693
  862MOL0     O16271   3.895   2.331   8.948  0.5594 -1.0850 -0.0612
  862MOL0     C16272   3.804   2.282   9.052 -0.4948  0.1629  0.3969
  862MOL0     C16273   3.686   2.218   8.992 -0.2434  0.2587  0.3128
  862MOL0     C16274   3.637   2.277   8.861 -0.2557  0.0204  0.4283
  862MOL0     C16275   3.546   2.180   8.793 -0.6677 -0.6421 -0.6543
  862MOL0     C16276   3.509   2.258   8.667 -0.7163 -0.7349 -0.4078
  862MOL0     C16277   3.376   2.224   8.602 -0.5487  0.6519 -0.1510
  862MOL0     C16278   3.354   2.072   8.575  0.0751 -0.8995 -0.3983
  862MOL0     C16279   3.449   2.011   8.472  0.8677  0.1152  0.3977
  862MOL0    Cl16280   3.423   1.826   8.460 -0.2200 -0.2553 -0.3198
  862MOL0     C16281   4.102   2.439   8.894  0.4311 -0.4852  0.0784
  862MOL0     C16282   4.225   2.501   8.930 -0.8775 -0.6652 -0.1812
  862MOL0     O16283   4.233   2.774   9.149 -0.2607  0.7809  0.3830
  862MOL0     C16284   4.479   2.773   9.343 -0.2476 -0.7697 -0.1433
  862MOL0     C16285   4.579   2.845   9.419  0.8492  0.3338  1.2268
  862MOL0     N16286   5.185   2.845   9.274 -0.1401  0.1451 -0.4364
  862MOL0     N16287   5.288   2.892   9.208  0.0584 -0.1733  0.1883
  862MOL0     C16288   6.282   3.636   8.684  0.3801  0.2170 -1.0863
  862MOL0     C16289   6.376   3.632   8.582 -0.1366 -0.0063  0.4236
  862MOL0     C16290   6.490   3.512   8.169  0.7872 -0.3289 -0.4709
  862MOL0     C16291   6.440   3.445   8.056 -0.5329 -0.2171 -0.0707
  862MOL0     C16292   6.504   3.473   7.932  0.2809 -0.3041  0.7388
  862MOL0     C16293   6.603   3.573   7.916 -0.1510 -0.1207 -0.5331
  862MOL0     O16294   6.664   3.604   7.799 -0.2876  0.0949  0.3485
  862MOL0     C16295   6.581   3.591   7.680  0.1152  0.3540 -0.7134
  862MOL0     C16296   6.639   3.672   7.552 -0.2644 -0.0775 -0.3243
  862MOL0     C16297   6.700   3.805   7.603  0.4907  0.8153 -0.0063
  862MOL0     C16298   6.593   3.893   7.652 -0.4243  0.0838  0.2000
  862MOL0     C16299   6.637   4.031   7.690  0.1240  0.5212 -0.6045
  862MOL0     C16300   6.687   4.140   7.717 -0.2030 -0.1414 -1.0135
  862MOL0     C16301   6.658   3.623   8.031  0.6780 -0.5292 -0.3356
  862MOL0     C16302   6.602   3.591   8.156 -1.2493 -0.2532 -0.0839
  862MOL0     H16303   6.422   3.296   8.566 -0.2767 -0.2549 -0.1987
  862MOL0     H16304   6.273   3.301   8.753  1.2508 -0.4036 -1.1138
  862MOL0     H16305   6.039   3.375   8.818  1.4127 -1.9610  1.1829
  862MOL0     H16306   6.135   3.360   8.969  1.5500 -0.0094 -0.0658
  862MOL0     H16307   5.983   3.499   9.078  0.9648 -5.5361  0.6291
  862MOL0     H16308   5.908   3.560   8.930  1.0817  0.6995 -0.3806
  862MOL0     H16309   5.842   3.310   8.881 -1.4764 -0.1120 -0.8008
  862MOL0     H16310   5.896   3.272   9.041 -0.3210  0.1044 -0.5000
  862MOL0     H16311   5.735   3.419   9.142 -0.2902 -1.3105  0.6946
  862MOL0     H16312   5.676   3.466   8.984 -0.7999 -1.9757 -3.4145
  862MOL0     H16313   5.596   3.233   8.950  1.3371 -1.1123  0.0429
  862MOL0     H16314   5.689   3.173   9.095  1.8064  1.1322 -0.2289
  862MOL0     H16315   5.568   3.312   9.247 -0.1225 -2.6427  0.3731
  862MOL0     H16316   5.473   3.400   9.128  1.5415  1.1778  0.0186
  862MOL0     H16317   5.334   3.225   9.202  0.8495  2.0507 -0.3850
  862MOL0     H16318   5.415   3.136   9.072 -1.0365 -3.2339  2.1149
  862MOL0     H16319   5.532   3.116   9.344 -0.2372  0.6985  0.0453
  862MOL0     H16320   5.551   3.013   9.202  1.8777  1.5125  0.3200
  862MOL0     H16321   5.335   3.057   9.496  0.3811 -0.9234 -0.2708
  862MOL0     H16322   5.046   2.774   9.493  1.1247  0.2851 -6.6285
  862MOL0     H16323   5.120   2.891   9.605  1.9041  2.3500 -0.9467
  862MOL0     H16324   4.948   2.953   9.375  0.6319 -3.6407  0.2038
  862MOL0     H16325   5.024   3.074   9.478  0.5204 -0.4602 -3.0244
  862MOL0     H16326   4.896   2.977   9.659  1.0357  0.6103 -0.5072
  862MOL0     H16327   4.817   2.856   9.551  2.4298 -0.6272 -2.8124
  862MOL0     H16328   4.776   3.161   9.565 -0.5498 -1.1866 -1.3431
  862MOL0     H16329   4.659   3.037   9.604 -1.6043  1.6181 -1.0727
  862MOL0     H16330   4.655   3.045   9.152 -0.2189 -1.8690 -3.2276
  862MOL0     H16331   4.441   3.026   8.996 -3.3615 -1.7618 -1.0778
  862MOL0     H16332   4.607   2.937   8.971  0.3151 -0.7206 -2.3355
  862MOL0     H16333   4.452   2.852   8.942  2.6464  1.8274 -2.7890
  862MOL0     H16334   4.195   2.478   9.275  0.2633 -2.7558  1.1540
  862MOL0     H16335   3.987   2.361   9.205  0.3237  2.5299  1.6684
  862MOL0     H16336   3.849   2.206   9.117  2.8306  1.1100 -0.6077
  862MOL0     H16337   3.775   2.367   9.115  2.0011  1.4111  0.0204
  862MOL0     H16338   3.709   2.113   8.974 -0.6016  0.3555 -0.8204
  862MOL0     H16339   3.599   2.218   9.059 -0.4864 -1.0165  0.0299
  862MOL0     H16340   3.720   2.295   8.791 -2.4202 -0.0177 -2.3177
  862MOL0     H16341   3.578   2.368   8.875 -1.7038 -0.8485  0.1594
  862MOL0     H16342   3.598   2.088   8.762 -0.1540 -0.1262 -1.3464
  862MOL0     H16343   3.459   2.158   8.855  1.1097 -1.8825  1.5423
  862MOL0     H16344   3.592   2.240   8.599  0.7633 -0.6258  1.2946
  862MOL0     H16345   3.499   2.365   8.688  1.6182 -1.1284  4.0724
  862MOL0     H16346   3.302   2.269   8.669  0.1862 -0.3290  1.4011
  862MOL0     H16347   3.367   2.271   8.504 -0.8621 -0.1902 -0.5301
  862MOL0     H16348   3.252   2.068   8.535 -0.4745 -3.6754  1.0202
  862MOL0     H16349   3.364   2.008   8.663  2.3061  0.0867  0.1182
  862MOL0     H16350   3.554   2.026   8.500  0.5294  3.7557  0.1132
  862MOL0     H16351   3.447   2.058   8.373  1.9699  2.4469  1.4168
  862MOL0     H16352   4.083   2.437   8.787  2.0274  1.4545 -0.2981
  862MOL0     H16353   4.296   2.526   8.852 -1.6868  0.2569 -0.6505
  862MOL0     H16354   4.456   2.674   9.380 -0.3716 -1.0181 -0.8695
  862MOL0     H16355   4.593   2.812   9.522 -0.6466 -1.5311  0.8800
  862MOL0     H16356   6.241   3.728   8.724 -1.5178 -0.4025 -1.5111
  862MOL0     H16357   6.417   3.720   8.534 -0.2319  0.0406  0.4287
  862MOL0     H16358   6.344   3.395   8.060 -0.4292 -0.4698 -0.5520
  862MOL0     H16359   6.475   3.431   7.837 -0.0626  2.6804 -0.5915
  862MOL0     H16360   6.566   3.484   7.663  2.3080  0.4735 -4.1072
  862MOL0     H16361   6.481   3.633   7.698  0.3159 -0.2247  2.2925
  862MOL0     H16362   6.566   3.702   7.477 -0.1333  1.3128  0.0906
  862MOL0     H16363   6.721   3.615   7.507  1.4289  2.2204 -0.2960
  862MOL0     H16364   6.754   3.843   7.516  0.6032  1.8071  0.4862
  862MOL0     H16365   6.779   3.790   7.676  1.3170  2.8420 -0.4236
  862MOL0     H16366   6.561   3.850   7.747 -2.1256  0.1533 -0.3070
  862MOL0     H16367   6.504   3.903   7.590 -0.5386  0.8211  0.4750
  862MOL0     H16368   6.736   4.233   7.737  1.1002 -1.4357  2.7069
  862MOL0     H16369   6.737   3.697   8.036  1.2299 -1.1423  0.2345
  862MOL0     H16370   6.655   3.635   8.240  0.8751 -1.7839 -0.5650
  863MOL0     O16371  11.150   2.766   4.817 -0.4300  0.2292  0.8068
  863MOL0     C16372  11.180   2.878   4.854 -0.2538  0.0002 -0.3677
  863MOL0     O16373  11.148   2.998   4.797 -0.5903 -0.6125 -0.9330
  863MOL0     C16374  11.051   3.003   4.707 -0.4574 -0.7712  0.3630
  863MOL0     C16375  11.084   3.009   4.573  0.3276  0.4751  0.4630
  863MOL0     C16376  10.983   3.005   4.473 -1.4321  0.3873  0.2306
  863MOL0     C16377  10.847   3.004   4.503  0.2131 -0.2520  0.4093
  863MOL0     O16378  10.736   2.992   4.418 -0.4271 -0.0751 -0.5818
  863MOL0     C16379  10.759   2.999   4.278  0.9830  0.0884 -0.9056
  863MOL0     C16380  10.631   2.986   4.210 -0.3863  0.4513 -1.2632
  863MOL0     C16381  10.520   3.089   4.248 -0.9008 -0.0714  0.1882
  863MOL0     C16382  10.401   3.084   4.153  0.4112 -0.4142 -0.3113
  863MOL0     C16383  10.292   3.198   4.168 -0.9141  0.6405  0.4835
  863MOL0     C16384  10.197   3.167   4.296 -0.2446  0.9433 -0.2083
  863MOL0     C16385  10.109   3.290   4.339  0.5981 -0.9266 -1.6192
  863MOL0     C16386  10.191   3.381   4.434  0.4059 -1.0812 -0.0470
  863MOL0     N16387  10.110   3.449   4.538  0.1060  0.5643 -0.2378
  863MOL0     C16388  10.160   3.521   4.647  0.5036  0.2554 -0.3016
  863MOL0     C16389  10.055   3.542   4.729  0.2435  0.6379  0.3183
  863MOL0     C16390  10.074   3.611   4.860  0.6537  0.6757  0.9494
  863MOL0     C16391   9.963   3.716   4.873 -0.8217  0.4254 -0.0153
  863MOL0     C16392   9.976   3.831   4.974  0.2321  0.9028  0.0995
  863MOL0     C16393  10.004   3.794   5.116 -0.1042  0.4090  0.2099
  863MOL0     O16394   9.880   3.741   5.167 -0.0598 -0.5716  0.3866
  863MOL0     C16395   9.851   3.735   5.301 -0.6232  0.9197 -0.5023
  863MOL0     C16396   9.711   3.719   5.320 -1.3888 -0.9269 -0.7507
  863MOL0     C16397   9.660   3.703   5.452 -1.0771  0.3283  0.7855
  863MOL0     C16398   9.512   3.707   5.467  0.9791  0.0037 -0.7030
  863MOL0     C16399   9.745   3.714   5.570 -0.8182 -0.0657  0.6416
  863MOL0     C16400   9.707   3.719   5.711  0.3614 -0.2684 -0.6170
  863MOL0     O16401   9.573   3.693   5.740  0.3842 -0.6796  0.2112
  863MOL0     C16402   9.557   3.682   5.870  0.2690  0.4467 -0.1835
  863MOL0     C16403   9.524   3.793   5.958 -0.2585 -0.6469  0.5143
  863MOL0     C16404   9.516   3.784   6.094 -0.3663 -0.0678  0.1053
  863MOL0     C16405   9.548   3.663   6.161 -1.2455 -0.2459  1.1289
  863MOL0     O16406   9.515   3.653   6.289 -0.7016  0.4840  0.1845
  863MOL0     C16407   9.435   3.537   6.329 -0.3330  0.4909  0.3749
  863MOL0     C16408   9.367   3.568   6.464 -0.2877 -1.3686  0.7758
  863MOL0     C16409   9.248   3.655   6.446 -0.3697  0.0426 -0.4316
  863MOL0     C16410   9.230   3.751   6.561  0.3997 -0.8888 -0.7844
  863MOL0     C16411   9.098   3.814   6.556 -0.4095 -0.0089  0.9932
  863MOL0     C16412   9.076   3.891   6.689 -0.4287  0.3279 -1.5071
  863MOL0     C16413   8.939   3.967   6.695  0.1945 -0.2857  0.1241
  863MOL0     C16414   8.829   3.878   6.636  0.5253 -0.2409  0.7756
  863MOL0    Cl16415   8.676   3.936   6.710  0.0146 -0.0022 -0.2167
  863MOL0     C16416   9.599   3.559   6.080 -0.1616  0.0622  1.1524
  863MOL0     C16417   9.606   3.567   5.942  0.2538 -0.9736  1.3209
  863MOL0     O16418   9.793   3.735   5.802  0.0877  0.0683  0.2478
  863MOL0     C16419   9.885   3.722   5.541 -0.7365  0.5686  0.6355
  863MOL0     C16420   9.937   3.732   5.408 -0.3251  1.2252 -0.4283
  863MOL0     N16421   9.941   3.487   4.663  0.1011 -1.0291  0.2136
  863MOL0     N16422   9.980   3.445   4.552 -1.0078 -0.3644  0.1632
  863MOL0     C16423  10.814   3.011   4.634 -0.2103  0.2081  0.6412
  863MOL0     C16424  10.916   3.002   4.731  0.5713 -0.2705 -0.6125
  863MOL0     C16425  11.246   2.884   4.985 -0.4054  0.6599  0.2326
  863MOL0     C16426  11.302   2.993   5.040  0.2335  0.3439  0.0929
  863MOL0     C16427  11.373   2.994   5.161  0.1943 -0.3518 -0.4417
  863MOL0     C16428  11.383   2.886   5.248 -0.0875 -0.5865  0.7840
  863MOL0     O16429  11.448   2.903   5.367 -0.8568  0.3627 -0.1418
  863MOL0     C16430  11.370   2.914   5.485  0.6860 -0.0810  0.1864
  863MOL0     C16431  11.484   2.910   5.585  0.2716  0.2537 -0.2610
  863MOL0     C16432  11.564   2.774   5.573 -0.9067  0.3287  0.2076
  863MOL0     C16433  11.629   2.739   5.713 -0.5220  0.1522  0.6934
  863MOL0     C16434  11.732   2.846   5.757  0.7597  1.2455 -0.9270
  863MOL0     C16435  11.818   2.921   5.791 -0.6432 -0.8732  0.1009
  863MOL0     C16436  11.348   2.768   5.181  0.7868 -0.6242 -0.8977
  863MOL0     C16437  11.278   2.769   5.060  0.0194  0.2046  1.1367
  863MOL0     H16438  11.187   2.983   4.550 -0.6301 -3.4846  0.0344
  863MOL0     H16439  11.013   2.998   4.369  1.2366 -4.1321  1.0440
  863MOL0     H16440  10.791   3.093   4.233 -0.9911  1.6040  0.6341
  863MOL0     H16441  10.830   2.919   4.256  0.9380 -0.5213  0.9786
  863MOL0     H16442  10.649   2.993   4.102  2.4575 -0.7851 -0.9779
  863MOL0     H16443  10.590   2.886   4.228 -2.1858  0.9893 -2.1574
  863MOL0     H16444  10.490   3.064   4.351 -0.7175 -1.0544  0.0189
  863MOL0     H16445  10.567   3.187   4.244  1.6499 -1.0957  1.9785
  863MOL0     H16446  10.430   3.071   4.048 -1.0722 -3.4257 -0.4448
  863MOL0     H16447  10.359   2.990   4.189 -0.3756  0.9521  2.5712
  863MOL0     H16448  10.329   3.300   4.173 -1.2202  0.8933 -1.6194
  863MOL0     H16449  10.224   3.203   4.083  0.7655  1.6970 -0.8606
  863MOL0     H16450  10.146   3.076   4.264  2.1937  0.1864 -2.2040
  863MOL0     H16451  10.263   3.126   4.373  0.3645 -1.4552 -1.9017
  863MOL0     H16452  10.082   3.349   4.251 -2.7236  1.4520  0.7514
  863MOL0     H16453  10.017   3.251   4.383  0.8387 -3.3921 -3.1098
  863MOL0     H16454  10.227   3.461   4.369 -2.9362  0.7464  0.1416
  863MOL0     H16455  10.268   3.328   4.491 -0.3458 -1.4636  0.6285
  863MOL0     H16456  10.254   3.574   4.656 -2.1555  5.2539  3.3699
  863MOL0     H16457  10.069   3.537   4.941 -0.3860  1.6079  1.7937
  863MOL0     H16458  10.178   3.643   4.849  1.3925 -1.4053  1.3675
  863MOL0     H16459   9.876   3.652   4.893  1.2032 -2.2007  0.9523
  863MOL0     H16460   9.953   3.758   4.773  2.0001  0.0214 -0.5380
  863MOL0     H16461   9.885   3.891   4.967 -0.2620  0.1610  0.0271
  863MOL0     H16462  10.061   3.885   4.931  1.9262 -0.9615  0.9591
  863MOL0     H16463  10.036   3.877   5.179  0.0473  1.0313 -0.6718
  863MOL0     H16464  10.089   3.724   5.116  1.9736  2.7831  0.3882
  863MOL0     H16465   9.641   3.708   5.238 -4.3905 -0.5148  1.5492
  863MOL0     H16466   9.480   3.621   5.527 -2.1050  0.6482 -1.2518
  863MOL0     H16467   9.466   3.790   5.521 -2.1685 -0.7493 -2.0014
  863MOL0     H16468   9.465   3.697   5.369 -1.2422 -0.0763  0.3257
  863MOL0     H16469   9.481   3.885   5.919  2.1467 -0.3000 -1.6315
  863MOL0     H16470   9.487   3.872   6.152  0.4366 -1.2678  2.4776
  863MOL0     H16471   9.353   3.516   6.260  1.7878  2.9211 -3.1872
  863MOL0     H16472   9.494   3.445   6.336 -2.4814 -0.9964 -0.0801
  863MOL0     H16473   9.342   3.495   6.541 -0.6597 -1.9636  0.0987
  863MOL0     H16474   9.453   3.620   6.506  1.0751 -0.1724 -3.0987
  863MOL0     H16475   9.156   3.598   6.429 -0.6367 -0.3110  1.8389
  863MOL0     H16476   9.264   3.716   6.358 -2.2628 -0.4046 -1.1351
  863MOL0     H16477   9.237   3.691   6.652 -1.1887  0.5985  0.3903
  863MOL0     H16478   9.304   3.831   6.559 -0.9774  0.4745 -0.0795
  863MOL0     H16479   9.031   3.730   6.533  2.7507 -1.8258 -2.7284
  863MOL0     H16480   9.101   3.882   6.471  0.3078 -2.8813 -1.4878
  863MOL0     H16481   9.076   3.820   6.772  0.3985  0.3040 -1.5249
  863MOL0     H16482   9.158   3.956   6.719 -0.7460  0.7093 -1.4557
  863MOL0     H16483   8.941   4.057   6.634 -3.8346 -0.0513  0.0668
  863MOL0     H16484   8.920   3.984   6.802  1.9784 -2.4299  0.8724
  863MOL0     H16485   8.843   3.770   6.644  0.1326 -0.4608 -1.0488
  863MOL0     H16486   8.821   3.895   6.528  0.0071  0.4274  0.9064
  863MOL0     H16487   9.615   3.459   6.118 -1.2799 -1.0463 -1.1001
  863MOL0     H16488   9.640   3.488   5.875 -1.1142 -1.7668  1.5098
  863MOL0     H16489   9.946   3.722   5.631 -0.0126 -1.6088  0.2057
  863MOL0     H16490  10.044   3.735   5.392 -0.1202 -1.3571 -0.0537
  863MOL0     H16491  10.710   3.023   4.661 -0.7405  1.7020 -1.8143
  863MOL0     H16492  10.873   2.987   4.830  2.4472 -0.2857  0.2351
  863MOL0     H16493  11.302   3.084   4.981  0.3743  0.1010 -0.2891
  863MOL0     H16494  11.411   3.081   5.213 -0.9418 -0.4423  0.5775
  863MOL0     H16495  11.311   3.006   5.485  0.0837 -0.4372 -1.0920
  863MOL0     H16496  11.308   2.827   5.506  2.3870 -1.4489 -0.2221
  863MOL0     H16497  11.449   2.920   5.688  0.2719  1.0965 -0.3363
  863MOL0     H16498  11.554   2.992   5.564 -1.2900  1.1596 -2.1850
  863MOL0     H16499  11.639   2.789   5.495  0.1603 -0.1416  1.1120
  863MOL0     H16500  11.503   2.690   5.538  2.7548 -2.0252 -1.1328
  863MOL0     H16501  11.677   2.641   5.702 -0.7264  0.2652 -2.0629
  863MOL0     H16502  11.549   2.727   5.787 -1.8569 -1.2524 -0.8926
  863MOL0     H16503  11.901   2.984   5.815  1.4368 -2.3309 -2.6817
  863MOL0     H16504  11.372   2.673   5.229  2.1959  0.4662  0.6454
  863MOL0     H16505  11.235   2.675   5.027  2.1573 -1.5407  2.9682
  864MOL0     O16506   5.251   9.094   0.517  0.2808  0.5028 -0.0359
  864MOL0     C16507   5.175   9.121   0.429  0.6423 -0.1659 -0.3301
  864MOL0     O16508   5.206   9.156   0.305 -0.5347 -0.3998 -0.1716
  864MOL0     C16509   5.338   9.202   0.271 -0.4430  0.1015  0.0507
  864MOL0     C16510   5.367   9.214   0.130 -0.0617  0.6377 -0.2769
  864MOL0     C16511   5.474   9.283   0.076 -0.6758 -1.3241 -0.6824
  864MOL0     C16512   5.571   9.326   0.166 -0.2461  0.1059  0.3149
  864MOL0     O16513   5.698   9.357   0.129  0.1883  0.4506  0.6761
  864MOL0     C16514   5.760   9.475   0.169  0.5062 -0.6856 -0.0600
  864MOL0     C16515   5.828   9.532   0.045 -0.4956  0.6540  0.2345
  864MOL0     C16516   5.759   9.539  -0.095 -1.5554  0.7340 -0.7814
  864MOL0     C16517   5.734   9.694  -0.124  0.0671 -0.7816 -0.0565
  864MOL0     C16518   5.681   9.706  -0.265  0.1161  0.5826 -1.2547
  864MOL0     C16519   5.654   9.854  -0.301  0.0287  0.2958  0.2748
  864MOL0     C16520   5.621   9.877  -0.447  0.1136  0.9452 -0.6176
  864MOL0     C16521   5.655  10.010  -0.495 -0.5173 -0.0288 -0.8510
  864MOL0     N16522   5.629  10.027  -0.641 -0.5125 -0.7290 -0.9344
  864MOL0     C16523   5.511  10.062  -0.698  0.3371 -1.0358  1.0244
  864MOL0     C16524   5.549  10.082  -0.829 -0.4616 -0.1996  0.1930
  864MOL0     C16525   5.465  10.099  -0.939  1.2200 -0.2677  0.7473
  864MOL0     C16526   5.381  10.223  -0.925 -1.2435  0.0430  0.8957
  864MOL0     C16527   5.303  10.264  -1.041 -0.4082  0.0347  0.3752
  864MOL0     C16528   5.240  10.402  -1.046 -0.2868 -0.0670  0.3647
  864MOL0     O16529   5.169  10.434  -0.923  0.0694 -0.2777  0.0888
  864MOL0     C16530   5.220  10.542  -0.858 -1.1036  0.7633 -0.5068
  864MOL0     C16531   5.311  10.520  -0.765  0.1469 -0.3639 -0.6307
  864MOL0     C16532   5.363  10.628  -0.697 -0.2750  0.4650 -0.4573
  864MOL0     C16533   5.474  10.580  -0.606  0.0270 -1.4025  1.4286
  864MOL0     C16534   5.336  10.768  -0.733 -0.1142 -0.9673 -0.0315
  864MOL0     C16535   5.399  10.886  -0.664 -0.1730  0.1480 -0.3818
  864MOL0     O16536   5.479  10.877  -0.546 -0.2162  1.0276  0.2336
  864MOL0     C16537   5.547  10.990  -0.502 -0.0031  0.2391  0.2535
  864MOL0     C16538   5.674  11.023  -0.557 -0.2425 -0.1807 -0.3509
  864MOL0     C16539   5.752  11.132  -0.505 -0.2182 -0.9651 -0.4161
  864MOL0     C16540   5.695  11.208  -0.397 -0.0075 -0.1733 -0.9752
  864MOL0     O16541   5.762  11.312  -0.329  0.8390 -0.2467 -0.7293
  864MOL0     C16542   5.900  11.292  -0.316 -0.6723 -0.1153 -0.3524
  864MOL0     C16543   5.947  11.354  -0.176  0.6753 -0.0907  0.0743
  864MOL0     C16544   5.894  11.245  -0.074  0.0627 -0.1036 -0.1405
  864MOL0     C16545   5.986  11.115  -0.066  0.3462 -1.0511  0.4380
  864MOL0     C16546   5.940  11.028   0.058  1.1873 -0.9247 -0.0106
  864MOL0     C16547   5.809  10.951   0.042 -0.2330  0.1723 -0.0039
  864MOL0     C16548   5.774  10.888   0.173 -0.4657  0.0946  0.8180
  864MOL0     C16549   5.676  10.782   0.171  0.1535 -0.4268 -0.3859
  864MOL0    Cl16550   5.521  10.846   0.106 -0.0692  0.1790  0.5524
  864MOL0     C16551   5.568  11.172  -0.342 -0.3388 -0.1326  0.3727
  864MOL0     C16552   5.492  11.074  -0.406 -1.0525 -0.0457  0.1124
  864MOL0     O16553   5.363  10.995  -0.715 -0.6431  0.1719  0.6160
  864MOL0     C16554   5.237  10.793  -0.833 -0.2713  0.9939  1.2922
  864MOL0     C16555   5.186  10.677  -0.897 -1.3296  0.2822 -0.1269
  864MOL0     N16556   5.685  10.040  -0.845 -0.8598  0.2693  1.1458
  864MOL0     N16557   5.729  10.008  -0.728 -0.6195 -0.1658  0.2240
  864MOL0     C16558   5.554   9.305   0.296  0.5585 -0.5972 -0.3454
  864MOL0     C16559   5.435   9.258   0.352 -0.0437  0.1291  0.0134
  864MOL0     C16560   5.031   9.132   0.469  0.2503 -0.6680  0.6350
  864MOL0     C16561   4.983   9.077   0.592  0.0178  0.1123  0.3683
  864MOL0     C16562   4.844   9.073   0.611  0.1738  0.7054  0.0423
  864MOL0     C16563   4.752   9.140   0.526 -0.4958 -0.0407  0.4949
  864MOL0     O16564   4.620   9.123   0.557  0.4276  0.2252  0.3389
  864MOL0     C16565   4.563   8.994   0.526  0.3967  0.7542  0.4080
  864MOL0     C16566   4.506   8.942   0.659 -0.3904 -0.5081 -0.6246
  864MOL0     C16567   4.379   9.026   0.693 -0.8285 -0.1652 -0.0189
  864MOL0     C16568   4.254   8.958   0.635  0.6438  0.0364 -0.1836
  864MOL0     C16569   4.133   8.990   0.721 -1.0291 -0.0546  0.2870
  864MOL0     C16570   4.040   8.999   0.795 -0.2779  0.3666 -0.2624
  864MOL0     C16571   4.806   9.209   0.416 -0.1755  0.1136  0.4462
  864MOL0     C16572   4.938   9.192   0.379 -0.4510  0.2313  0.0315
  864MOL0     H16573   5.299   9.155   0.069  0.3763 -1.4792  1.2019
  864MOL0     H16574   5.481   9.318  -0.027  1.1119  0.1283 -0.1342
  864MOL0     H16575   5.686   9.549   0.198  1.5428  1.1865 -1.9061
  864MOL0     H16576   5.840   9.456   0.241 -0.9182 -0.8970  1.5166
  864MOL0     H16577   5.865   9.624   0.090 -0.8684 -0.8404  3.9150
  864MOL0     H16578   5.917   9.472   0.026 -0.2639  1.4990 -1.6090
  864MOL0     H16579   5.833   9.505  -0.168  0.0283  1.7568  0.3006
  864MOL0     H16580   5.662   9.490  -0.106 -1.3246  0.4308 -1.4860
  864MOL0     H16581   5.662   9.715  -0.045 -2.4290  0.7603 -2.5735
  864MOL0     H16582   5.822   9.758  -0.113  1.4242 -2.5404 -0.1758
  864MOL0     H16583   5.751   9.655  -0.333  0.1607 -1.4843  0.2345
  864MOL0     H16584   5.586   9.652  -0.271 -0.4544  1.5217 -0.8312
  864MOL0     H16585   5.570   9.890  -0.241  0.7642  2.0204  0.3564
  864MOL0     H16586   5.754   9.897  -0.284  0.4313 -0.8020  0.7550
  864MOL0     H16587   5.672   9.797  -0.501  0.6051 -0.0595  1.2513
  864MOL0     H16588   5.512   9.865  -0.459 -0.1943  1.8038  1.1063
  864MOL0     H16589   5.757  10.039  -0.469 -1.3233  2.9543 -0.6235
  864MOL0     H16590   5.592  10.079  -0.438 -0.1499  0.8097 -1.4356
  864MOL0     H16591   5.414  10.068  -0.649 -1.2599 -4.0941 -1.4279
  864MOL0     H16592   5.529  10.097  -1.028 -0.4403 -4.8413 -0.6353
  864MOL0     H16593   5.398  10.012  -0.942  0.5802  0.2493 -0.9996
  864MOL0     H16594   5.448  10.306  -0.898 -1.9901  1.2595 -0.7713
  864MOL0     H16595   5.314  10.195  -0.844 -0.9634 -4.1949 -0.1317
  864MOL0     H16596   5.222  10.191  -1.054  1.3904 -2.1043  0.5414
  864MOL0     H16597   5.364  10.264  -1.131 -0.1434  2.8684  0.4722
  864MOL0     H16598   5.171  10.404  -1.131 -0.1151 -0.6141  0.2087
  864MOL0     H16599   5.308  10.487  -1.062 -1.4590  0.8409  0.0136
  864MOL0     H16600   5.346  10.420  -0.743 -0.6638 -0.5800 -0.2962
  864MOL0     H16601   5.500  10.474  -0.601 -0.5735 -1.5161  2.1549
  864MOL0     H16602   5.564  10.628  -0.645 -0.7037 -0.4352  0.8883
  864MOL0     H16603   5.454  10.625  -0.509  0.5807  2.1314  0.0690
  864MOL0     H16604   5.721  10.953  -0.626 -0.5414  0.5108 -1.2721
  864MOL0     H16605   5.844  11.170  -0.548 -0.6164  0.0068 -0.4329
  864MOL0     H16606   5.938  11.190  -0.330  0.3891 -0.0209  1.5100
  864MOL0     H16607   5.946  11.348  -0.397  1.9513 -0.1030  1.0366
  864MOL0     H16608   6.056  11.349  -0.172  0.6258 -0.8490  0.5792
  864MOL0     H16609   5.908  11.453  -0.152  1.6042 -0.4430  3.5174
  864MOL0     H16610   5.789  11.219  -0.093  0.7609 -2.5030 -1.1600
  864MOL0     H16611   5.891  11.291   0.026 -4.2377 -1.4905  0.5963
  864MOL0     H16612   5.983  11.065  -0.163 -1.8960 -0.6513  0.2363
  864MOL0     H16613   6.085  11.153  -0.042 -0.4535  2.0931 -0.7282
  864MOL0     H16614   5.926  11.090   0.146 -0.0289 -1.7240  0.3874
  864MOL0     H16615   6.004  10.942   0.079 -0.5862 -3.1642 -2.9889
  864MOL0     H16616   5.729  11.022   0.019  1.1032  3.4362  4.0930
  864MOL0     H16617   5.825  10.873  -0.034  4.7772  0.2476  0.5914
  864MOL0     H16618   5.733  10.967   0.237  1.0116  0.4341  1.3927
  864MOL0     H16619   5.860  10.842   0.223  0.5929  1.3496  0.2183
  864MOL0     H16620   5.660  10.743   0.271 -0.6620  0.4541 -0.1585
  864MOL0     H16621   5.705  10.702   0.103  0.5632 -1.3806  0.8818
  864MOL0     H16622   5.532  11.230  -0.258 -0.7040 -0.2567  0.3042
  864MOL0     H16623   5.393  11.062  -0.365 -0.5949  2.8829  2.3482
  864MOL0     H16624   5.205  10.895  -0.852 -0.6392  0.2332 -3.0498
  864MOL0     H16625   5.122  10.689  -0.985  4.3144 -1.7781 -5.1576
  864MOL0     H16626   5.621   9.350   0.368 -2.0834  1.8515  0.8111
  864MOL0     H16627   5.425   9.272   0.459 -1.4310  1.0632 -0.2182
  864MOL0     H16628   5.043   9.024   0.665  0.2132  0.0816  0.1870
  864MOL0     H16629   4.804   9.023   0.699 -0.1419 -0.8876 -0.9691
  864MOL0     H16630   4.478   9.015   0.461 -1.0364 -1.5739  1.4204
  864MOL0     H16631   4.627   8.923   0.474  2.1678  1.0130  2.1368
  864MOL0     H16632   4.580   8.976   0.732 -3.6563  1.6473  1.9463
  864MOL0     H16633   4.496   8.833   0.661  2.1097 -0.7856  1.5585
  864MOL0     H16634   4.393   9.127   0.653  4.2488 -1.1518 -1.4337
  864MOL0     H16635   4.376   9.027   0.802  2.1900  2.9925  0.1953
  864MOL0     H16636   4.260   8.849   0.628 -2.3102 -0.4838  2.8178
  864MOL0     H16637   4.240   8.994   0.532  1.1991 -0.2279 -0.3550
  864MOL0     H16638   3.945   9.017   0.841  1.7044  2.8814  3.3266
  864MOL0     H16639   4.746   9.263   0.344  3.2597  0.9304 -2.0824
  864MOL0     H16640   4.964   9.223   0.278 -1.2490 -0.3153 -0.3505
  865MOL0     O16641   4.138   6.135   1.707  0.7879  0.2727 -0.6446
  865MOL0     C16642   4.195   6.071   1.801  0.3201 -1.1123 -0.9863
  865MOL0     O16643   4.317   6.016   1.790 -0.2483  0.2361  0.4599
  865MOL0     C16644   4.380   6.003   1.670  0.5404 -0.7673  0.2926
  865MOL0     C16645   4.317   5.995   1.546 -0.1426 -1.4839 -0.3062
  865MOL0     C16646   4.386   5.969   1.423  0.0806  0.1120  0.0908
  865MOL0     C16647   4.524   5.963   1.429 -1.5952 -0.1804 -0.4525
  865MOL0     O16648   4.582   5.958   1.306 -0.1050 -0.6403 -0.1030
  865MOL0     C16649   4.725   5.970   1.294 -0.9258  0.4364 -0.0171
  865MOL0     C16650   4.757   5.961   1.143 -0.2009 -0.7997 -0.2791
  865MOL0     C16651   4.912   5.983   1.108 -0.4733 -0.6411  0.1192
  865MOL0     C16652   4.933   5.988   0.961 -0.2964  0.3338 -0.8416
  865MOL0     C16653   5.078   5.971   0.936  0.5242  0.1533  0.1493
  865MOL0     C16654   5.101   5.938   0.785 -0.1987 -0.4214  0.1426
  865MOL0     C16655   5.238   5.987   0.751  0.0769 -0.0571 -0.4969
  865MOL0     C16656   5.362   5.926   0.830  0.1286 -0.3431 -0.0403
  865MOL0     N16657   5.363   5.784   0.825  0.1716  0.7882  0.8272
  865MOL0     C16658   5.325   5.706   0.718  0.4417  1.0974 -0.2790
  865MOL0     C16659   5.323   5.574   0.762  0.0151 -1.3701  0.2026
  865MOL0     C16660   5.289   5.458   0.667 -0.0189  0.6933 -0.0780
  865MOL0     C16661   5.194   5.494   0.551 -0.0306 -0.4255  0.1287
  865MOL0     C16662   5.177   5.371   0.452  0.1214 -0.9350 -0.7077
  865MOL0     C16663   5.094   5.382   0.324 -0.8251  0.3627  0.2474
  865MOL0     O16664   4.957   5.426   0.335 -0.8425  0.6961 -1.1660
  865MOL0     C16665   4.924   5.548   0.289 -1.1074 -0.1894  0.6110
  865MOL0     C16666   4.957   5.668   0.361  0.7967  0.8265 -0.1354
  865MOL0     C16667   4.938   5.792   0.310 -0.0547 -0.8029  0.6305
  865MOL0     C16668   4.970   5.913   0.403 -0.5709 -0.7337 -0.5854
  865MOL0     C16669   4.886   5.800   0.181  0.7507  0.2556 -0.4128
  865MOL0     C16670   4.856   5.935   0.123 -0.1382  0.0313  0.0482
  865MOL0     O16671   4.729   5.954   0.062  0.1614 -0.2197  0.1006
  865MOL0     C16672   4.669   6.075   0.067  0.5046 -0.5466  0.0401
  865MOL0     C16673   4.676   6.170   0.175 -0.7199  0.8539 -0.4141
  865MOL0     C16674   4.596   6.278   0.180 -0.1263  0.0202 -1.4123
  865MOL0     C16675   4.501   6.305   0.083  0.6802  0.6851 -0.3205
  865MOL0     O16676   4.431   6.419   0.057  0.4307 -0.2352  0.6861
  865MOL0     C16677   4.450   6.542   0.131 -0.5878 -0.8187  0.8952
  865MOL0     C16678   4.403   6.672   0.049  0.1781  0.3914  0.7541
  865MOL0     C16679   4.255   6.639   0.043  1.3205  0.3763 -0.2735
  865MOL0     C16680   4.184   6.763   0.001  0.3333  0.6752  0.3820
  865MOL0     C16681   4.213   6.830  -0.137 -1.2885 -0.0955  0.1184
  865MOL0     C16682   4.197   6.725  -0.254  0.0870  0.6894  0.6163
  865MOL0     C16683   4.222   6.773  -0.402  0.2202  0.2935  0.3575
  865MOL0     C16684   4.156   6.671  -0.491  0.1691 -0.2247  0.4645
  865MOL0    Cl16685   4.207   6.709  -0.666  0.3319  0.4537 -0.2133
  865MOL0     C16686   4.486   6.208  -0.023  0.0965  0.7112 -1.1259
  865MOL0     C16687   4.571   6.098  -0.028 -0.3378  0.6098 -0.4539
  865MOL0     O16688   4.946   6.015   0.130 -0.0859  1.4003 -0.1772
  865MOL0     C16689   4.849   5.684   0.118 -0.0840 -0.5658 -0.1160
  865MOL0     C16690   4.863   5.556   0.168 -0.1245 -1.1500 -0.3462
  865MOL0     N16691   5.350   5.581   0.896  0.3732  0.0161 -0.6041
  865MOL0     N16692   5.367   5.698   0.930 -1.0988 -0.7587 -0.0378
  865MOL0     C16693   4.591   5.987   1.548 -0.1098 -0.8061 -0.1953
  865MOL0     C16694   4.516   5.992   1.672  0.0513  0.2855  0.5048
  865MOL0     C16695   4.132   6.064   1.934  0.3597  0.5778  0.0239
  865MOL0     C16696   4.209   6.007   2.043  0.7755 -0.6329  0.8674
  865MOL0     C16697   4.150   6.011   2.166 -0.1182 -0.9736 -1.1017
  865MOL0     C16698   4.022   6.058   2.190  0.3500  0.0811 -0.9071
  865MOL0     O16699   3.966   6.045   2.319 -0.3695  0.1483  0.2780
  865MOL0     C16700   3.820   6.032   2.334 -0.4263 -0.5730 -0.5504
  865MOL0     C16701   3.781   5.916   2.432  1.4949  0.2920 -0.2431
  865MOL0     C16702   3.636   5.894   2.454  0.5127  0.3116 -0.0661
  865MOL0     C16703   3.592   5.864   2.599  0.3095 -0.7536  0.0135
  865MOL0     C16704   3.482   5.768   2.589  0.0751  0.4351  0.7161
  865MOL0     C16705   3.413   5.675   2.570  0.3356  0.7485 -0.8132
  865MOL0     C16706   3.944   6.111   2.082 -0.5884  0.4450  0.3893
  865MOL0     C16707   4.008   6.122   1.958  0.3284  0.6496  0.9517
  865MOL0     H16708   4.209   6.010   1.539 -0.5017 -2.8458  1.5473
  865MOL0     H16709   4.334   5.960   1.328 -1.4115  2.8981  0.5420
  865MOL0     H16710   4.761   6.065   1.334 -1.6118  0.9273 -0.5418
  865MOL0     H16711   4.779   5.887   1.341  0.4861  1.0030 -0.5995
  865MOL0     H16712   4.727   5.863   1.106  0.7571 -0.1126 -3.1702
  865MOL0     H16713   4.704   6.041   1.090 -0.1345 -0.1012  0.6771
  865MOL0     H16714   4.959   6.067   1.159 -1.7884 -0.2504  0.7367
  865MOL0     H16715   4.968   5.896   1.143  3.3765  1.6504  0.1888
  865MOL0     H16716   4.877   5.904   0.918  0.4462  0.8918 -2.9895
  865MOL0     H16717   4.907   6.084   0.917  0.2590  0.5744 -0.6510
  865MOL0     H16718   5.133   6.062   0.965  1.3980 -0.0256 -0.8655
  865MOL0     H16719   5.116   5.891   0.999 -0.7085  1.3407  2.5171
  865MOL0     H16720   5.096   5.830   0.767  1.9931 -0.5576  0.1612
  865MOL0     H16721   5.036   6.010   0.734  3.0884  2.4589 -0.3516
  865MOL0     H16722   5.251   5.964   0.645 -1.9353  0.3119 -0.8745
  865MOL0     H16723   5.250   6.095   0.769  0.5068  0.1860 -2.0997
  865MOL0     H16724   5.343   5.971   0.928 -2.2617  1.3010 -1.1626
  865MOL0     H16725   5.463   5.953   0.796  1.1217 -0.3870  2.6207
  865MOL0     H16726   5.314   5.743   0.616  2.6331 -0.9763 -1.3762
  865MOL0     H16727   5.383   5.419   0.628  0.4725  1.3259  0.4578
  865MOL0     H16728   5.244   5.374   0.720  0.2357  0.0327 -0.8801
  865MOL0     H16729   5.236   5.577   0.493  0.1309  0.0396  0.8950
  865MOL0     H16730   5.099   5.511   0.602  0.4591 -2.0764  1.7163
  865MOL0     H16731   5.131   5.285   0.502 -0.2926  0.6208  1.7465
  865MOL0     H16732   5.273   5.339   0.410  0.2247 -0.5673 -0.7502
  865MOL0     H16733   5.090   5.276   0.294  0.0145 -0.8092  3.8176
  865MOL0     H16734   5.151   5.438   0.249 -3.5129  0.4595 -1.8757
  865MOL0     H16735   5.006   5.654   0.457 -2.2444 -1.4963  1.2610
  865MOL0     H16736   4.977   5.877   0.506  1.2902  1.9313  0.3274
  865MOL0     H16737   5.068   5.959   0.391 -0.6455 -0.4419 -0.1131
  865MOL0     H16738   4.890   5.987   0.394  1.1746  0.9945 -3.2267
  865MOL0     H16739   4.743   6.156   0.260 -0.6227 -0.2891 -0.6673
  865MOL0     H16740   4.598   6.349   0.262 -1.9461 -0.3019 -1.0515
  865MOL0     H16741   4.414   6.546   0.234 -3.2168 -1.1544  0.0662
  865MOL0     H16742   4.559   6.543   0.130 -0.5631 -1.0151 -1.3403
  865MOL0     H16743   4.421   6.755   0.118  0.4237 -0.4867  1.7615
  865MOL0     H16744   4.455   6.691  -0.045 -1.6864  1.1516 -0.1735
  865MOL0     H16745   4.217   6.623   0.144 -1.0843  2.6786 -0.7048
  865MOL0     H16746   4.235   6.564  -0.034  3.7154  0.0824 -0.6793
  865MOL0     H16747   4.079   6.735  -0.009 -0.0594  1.1777  2.6986
  865MOL0     H16748   4.175   6.825   0.090  2.3634  0.4135  0.8111
  865MOL0     H16749   4.316   6.866  -0.149 -1.0735 -1.0216 -1.0747
  865MOL0     H16750   4.158   6.920  -0.166  0.1472  1.4408  1.9355
  865MOL0     H16751   4.262   6.640  -0.231  0.5272  1.2318  1.4388
  865MOL0     H16752   4.096   6.684  -0.253  1.7391 -4.0068 -1.0808
  865MOL0     H16753   4.331   6.774  -0.409  0.2562 -1.2421  0.2646
  865MOL0     H16754   4.177   6.870  -0.422  2.4316  0.8488 -2.4824
  865MOL0     H16755   4.049   6.659  -0.472  0.0892 -0.6447 -0.2069
  865MOL0     H16756   4.195   6.571  -0.469  2.5320  1.0126  2.3103
  865MOL0     H16757   4.410   6.228  -0.097 -1.6852 -1.0258  0.1339
  865MOL0     H16758   4.548   6.033  -0.112 -3.0352  0.7146  0.1233
  865MOL0     H16759   4.793   5.690   0.025 -1.4185 -1.5001  0.5961
  865MOL0     H16760   4.844   5.471   0.104  2.2777  1.0591 -4.4188
  865MOL0     H16761   4.699   6.000   1.546 -0.0574 -0.8404 -4.0427
  865MOL0     H16762   4.564   6.000   1.769  0.5615 -2.1690  0.5171
  865MOL0     H16763   4.311   5.975   2.027  1.1632 -0.7373  3.2109
  865MOL0     H16764   4.211   5.967   2.244  1.3081  0.0396 -1.5841
  865MOL0     H16765   3.766   6.122   2.366 -3.2500 -3.0064  2.3892
  865MOL0     H16766   3.774   6.003   2.239 -2.0235  0.2883 -0.0924
  865MOL0     H16767   3.824   5.928   2.532  1.8720  3.2021 -0.6717
  865MOL0     H16768   3.822   5.823   2.390  0.4603 -0.9146  1.2669
  865MOL0     H16769   3.616   5.820   2.375 -0.0849  3.3452 -2.9684
  865MOL0     H16770   3.579   5.982   2.424  0.6004 -0.2945 -2.2071
  865MOL0     H16771   3.557   5.956   2.646  1.9375 -0.3406  0.4841
  865MOL0     H16772   3.671   5.837   2.669  0.5927 -3.0577 -1.0937
  865MOL0     H16773   3.350   5.592   2.546  2.3088 -0.7196 -1.2064
  865MOL0     H16774   3.841   6.141   2.090 -0.4550  0.4252  3.3455
  865MOL0     H16775   3.950   6.157   1.872  2.9988 -3.4900 -3.0014
  866MOL0     O16776   6.408   6.803   9.953 -0.1190  0.0586 -0.4822
  866MOL0     C16777   6.317   6.830  10.031  0.3013  0.2580  0.3806
  866MOL0     O16778   6.280   6.955  10.073  0.8712  0.2015 -0.2300
  866MOL0     C16779   6.360   7.060  10.089  0.0502 -0.8973 -0.2134
  866MOL0     C16780   6.310   7.179  10.142  0.0702  0.6537  0.1918
  866MOL0     C16781   6.391   7.289  10.158 -0.0957  0.0792 -0.2421
  866MOL0     C16782   6.522   7.282  10.116 -0.2115  0.1402 -0.9756
  866MOL0     O16783   6.594   7.397  10.144  0.8745  0.3446 -0.0406
  866MOL0     C16784   6.723   7.417  10.084  0.0878 -1.2000 -0.1030
  866MOL0     C16785   6.695   7.462   9.939 -0.6059  0.1135  0.4049
  866MOL0     C16786   6.605   7.585   9.952  0.3967 -0.3778  0.8200
  866MOL0     C16787   6.585   7.658   9.822  0.3110  0.4958 -0.0948
  866MOL0     C16788   6.446   7.733   9.801 -0.0144 -0.3133  0.5940
  866MOL0     C16789   6.412   7.837   9.906  0.2899  0.0831 -0.4003
  866MOL0     C16790   6.266   7.886   9.889 -0.0218 -0.6146  0.2663
  866MOL0     C16791   6.165   7.771   9.911  0.1749 -0.0436 -0.6183
  866MOL0     N16792   6.034   7.827   9.969 -0.7660 -1.0957  0.1584
  866MOL0     C16793   5.970   7.761  10.068  0.5852 -0.3937 -0.3671
  866MOL0     C16794   5.848   7.821  10.069  0.0049  0.1661  0.6602
  866MOL0     C16795   5.733   7.804  10.143  0.7534  0.7569  0.2724
  866MOL0     C16796   5.696   7.657  10.140  0.1439  0.7267  0.5341
  866MOL0     C16797   5.579   7.619  10.229 -0.1378  0.5863  0.2119
  866MOL0     C16798   5.547   7.469  10.229  0.0312 -0.0512  0.0765
  866MOL0     O16799   5.454   7.427  10.331  0.2755  1.1634  1.3602
  866MOL0     C16800   5.452   7.287  10.357 -0.0776  0.4474  0.1371
  866MOL0     C16801   5.384   7.252  10.480 -1.0502  0.7804  0.0415
  866MOL0     C16802   5.368   7.112  10.520  0.0036 -0.0692 -0.6501
  866MOL0     C16803   5.290   7.095  10.656 -0.0845  0.0280 -0.8569
  866MOL0     C16804   5.423   7.006  10.448  0.2918 -1.2329  0.0975
  866MOL0     C16805   5.420   6.851  10.485 -0.5077 -0.5817 -0.8788
  866MOL0     O16806   5.504   6.770  10.406  0.6838  0.1750  0.0782
  866MOL0     C16807   5.547   6.644  10.437  0.1242 -0.3274 -0.1996
  866MOL0     C16808   5.614   6.612  10.553 -0.0494  0.3814  0.8943
  866MOL0     C16809   5.675   6.491  10.586 -0.1648  0.1572 -1.4198
  866MOL0     C16810   5.674   6.398  10.484 -0.5658 -0.6203  0.4325
  866MOL0     O16811   5.732   6.280  10.506 -0.5847  0.9021 -0.3174
  866MOL0     C16812   5.654   6.192  10.591  1.1103 -0.1555  0.9842
  866MOL0     C16813   5.756   6.135  10.684  0.3831  0.0740  0.8402
  866MOL0     C16814   5.689   6.036  10.782  0.1716  0.2944 -0.5142
  866MOL0     C16815   5.781   5.989  10.890  0.6896 -0.2619 -0.5674
  866MOL0     C16816   5.706   5.884  10.965  0.6056  0.6935  0.1899
  866MOL0     C16817   5.786   5.836  11.088 -0.4588  0.0447 -0.1260
  866MOL0     C16818   5.708   5.721  11.160  0.8293  0.1088 -0.1001
  866MOL0     C16819   5.582   5.768  11.231 -0.9477 -0.3905 -0.4240
  866MOL0    Cl16820   5.474   5.640  11.267  0.3218 -0.8253  0.0267
  866MOL0     C16821   5.612   6.427  10.356 -0.3483  0.0597 -0.1310
  866MOL0     C16822   5.552   6.548  10.333 -0.8846  0.8448  0.8516
  866MOL0     O16823   5.354   6.809  10.584  0.4241  0.9501  0.5133
  866MOL0     C16824   5.480   7.043  10.325  0.1798  0.2130  0.0215
  866MOL0     C16825   5.498   7.180  10.278 -0.3066  0.9763 -0.3884
  866MOL0     N16826   5.856   7.930   9.993 -0.2037 -0.2035 -0.5076
  866MOL0     N16827   5.972   7.941   9.933 -0.8957 -0.6744  0.2162
  866MOL0     C16828   6.576   7.162  10.066 -0.4207  0.0157 -0.6370
  866MOL0     C16829   6.498   7.049  10.050  0.8213  0.1535 -1.2808
  866MOL0     C16830   6.223   6.723  10.070  0.1362 -0.4744  0.0210
  866MOL0     C16831   6.218   6.601  10.009 -0.0493 -0.5886 -0.6403
  866MOL0     C16832   6.147   6.494  10.074  0.3151  0.1228  0.0737
  866MOL0     C16833   6.073   6.519  10.202 -0.1381  0.7852  0.8191
  866MOL0     O16834   6.016   6.428  10.279  0.0470  1.2495  0.2745
  866MOL0     C16835   6.018   6.289  10.245  0.3883  0.4704 -0.5495
  866MOL0     C16836   5.926   6.248  10.128  0.2939 -0.7926  0.1488
  866MOL0     C16837   5.910   6.097  10.122 -0.9956  0.7354  0.1214
  866MOL0     C16838   5.775   6.064  10.078 -0.0710  0.5918 -0.7158
  866MOL0     C16839   5.740   5.924  10.048 -0.4001  0.6703  0.2768
  866MOL0     C16840   5.717   5.809  10.010 -0.4358  0.1302  0.1619
  866MOL0     C16841   6.069   6.655  10.241  0.1259  0.7852 -0.1124
  866MOL0     C16842   6.145   6.750  10.179 -0.7123 -0.0142 -0.7892
  866MOL0     H16843   6.205   7.185  10.169 -0.2925 -0.3358 -0.8952
  866MOL0     H16844   6.339   7.373  10.203  4.8402  3.4630  0.0487
  866MOL0     H16845   6.777   7.493  10.141 -2.1293 -0.0360  0.5548
  866MOL0     H16846   6.770   7.319  10.087 -0.5898 -1.5066  1.7138
  866MOL0     H16847   6.793   7.484   9.894 -1.6921  1.2720 -1.5031
  866MOL0     H16848   6.655   7.377   9.882 -1.3296  0.6103  0.1649
  866MOL0     H16849   6.504   7.554   9.979 -0.7320  3.3675  1.4530
  866MOL0     H16850   6.639   7.649  10.033  0.2882 -1.3360  1.6383
  866MOL0     H16851   6.667   7.729   9.822  0.1303  0.7162  0.7535
  866MOL0     H16852   6.605   7.588   9.741  0.5311  0.2920  0.1334
  866MOL0     H16853   6.463   7.778   9.702 -2.2657 -1.6116 -0.4599
  866MOL0     H16854   6.364   7.663   9.783 -1.3751  1.7928 -2.1895
  866MOL0     H16855   6.425   7.795  10.007 -0.2220 -1.7786 -1.0614
  866MOL0     H16856   6.473   7.926   9.892  0.6909 -0.0527  0.4093
  866MOL0     H16857   6.240   7.956   9.969  0.2831  0.0439 -0.2001
  866MOL0     H16858   6.246   7.932   9.792 -2.1519  0.4812  1.1474
  866MOL0     H16859   6.218   7.697   9.971 -0.6113 -0.9226 -0.9801
  866MOL0     H16860   6.149   7.724   9.814  2.8963 -1.5665 -0.4222
  866MOL0     H16861   5.997   7.668  10.116  1.0100 -0.2847 -0.3899
  866MOL0     H16862   5.744   7.856  10.238  1.3240  2.3328 -0.6099
  866MOL0     H16863   5.651   7.859  10.095 -1.3270 -1.4857  1.0753
  866MOL0     H16864   5.773   7.602  10.195  1.5778 -0.0026 -1.9957
  866MOL0     H16865   5.684   7.622  10.037 -0.2696 -0.8733  1.0928
  866MOL0     H16866   5.494   7.678  10.193  0.9383  1.0181 -1.7803
  866MOL0     H16867   5.610   7.649  10.330 -0.5666  0.5192  0.3651
  866MOL0     H16868   5.641   7.415  10.238  0.5526  1.1084  2.2817
  866MOL0     H16869   5.498   7.443  10.135  1.4252  0.8766 -0.9539
  866MOL0     H16870   5.346   7.338  10.534  1.9402  1.3872  1.3639
  866MOL0     H16871   5.182   7.082  10.641 -0.7530  2.5873  0.9984
  866MOL0     H16872   5.331   7.018  10.723  1.9164  3.1517  1.8643
  866MOL0     H16873   5.308   7.187  10.713  3.1888 -0.6829 -0.5686
  866MOL0     H16874   5.612   6.694  10.624  1.4916  0.4211  0.9256
  866MOL0     H16875   5.741   6.483  10.671 -1.3696 -1.0798 -0.5526
  866MOL0     H16876   5.570   6.237  10.644 -0.6326 -1.7329 -0.2938
  866MOL0     H16877   5.606   6.113  10.533 -1.3099 -0.2844  3.0073
  866MOL0     H16878   5.828   6.089  10.615 -1.8140  0.7401 -2.1447
  866MOL0     H16879   5.814   6.201  10.748 -0.0846 -0.4515  1.8170
  866MOL0     H16880   5.655   5.952  10.722  0.1300 -1.9824  2.4709
  866MOL0     H16881   5.595   6.073  10.825 -1.2931  0.8087 -3.8392
  866MOL0     H16882   5.872   5.940  10.854  0.5822 -0.8171 -0.1014
  866MOL0     H16883   5.801   6.076  10.954 -1.0791  1.0805 -1.7555
  866MOL0     H16884   5.692   5.815  10.881  0.2054  0.1644  0.6821
  866MOL0     H16885   5.604   5.917  10.986  0.2425 -1.3439  1.9645
  866MOL0     H16886   5.884   5.800  11.056  1.3275 -0.7062  5.1595
  866MOL0     H16887   5.800   5.917  11.161 -1.9180 -2.6522  3.4254
  866MOL0     H16888   5.766   5.675  11.240  0.6165  0.9674  0.5591
  866MOL0     H16889   5.675   5.643  11.090 -0.4827  1.7271 -1.3806
  866MOL0     H16890   5.519   5.825  11.162 -3.6404  0.7969  2.7251
  866MOL0     H16891   5.610   5.835  11.313  2.6836 -1.9486 -0.1948
  866MOL0     H16892   5.602   6.349  10.281 -1.4475  0.8256 -0.8114
  866MOL0     H16893   5.499   6.561  10.239  0.2649 -0.3760 -0.0077
  866MOL0     H16894   5.508   6.971  10.248 -2.7158  1.5679 -2.5005
  866MOL0     H16895   5.550   7.216  10.189  3.4302 -0.0794  1.1689
  866MOL0     H16896   6.685   7.162  10.061 -0.2334  2.8424  1.0734
  866MOL0     H16897   6.555   6.958  10.033  0.9081 -0.9286  3.3677
  866MOL0     H16898   6.287   6.583   9.927 -0.9414 -0.4777 -1.4404
  866MOL0     H16899   6.155   6.396  10.028 -3.4618  0.0121 -0.7340
  866MOL0     H16900   6.118   6.251  10.222  1.1151  2.6969 -1.3030
  866MOL0     H16901   5.971   6.242  10.332  1.1442  2.5529  1.0410
  866MOL0     H16902   5.950   6.274  10.024  1.3017 -2.3720 -0.0500
  866MOL0     H16903   5.834   6.303  10.149 -0.0405  0.6262 -4.0470
  866MOL0     H16904   5.928   6.052  10.220 -1.0370  2.3389  0.8919
  866MOL0     H16905   5.977   6.048  10.051 -3.1996 -2.1923 -0.1750
  866MOL0     H16906   5.746   6.112   9.984  0.0053 -2.0635 -2.2019
  866MOL0     H16907   5.713   6.107  10.157  2.3936 -0.3094  1.9014
  866MOL0     H16908   5.692   5.707   9.989  0.1024 -0.6241  2.8414
  866MOL0     H16909   6.020   6.684  10.333  0.7309 -0.3635  0.5961
  866MOL0     H16910   6.134   6.845  10.230  2.1482  0.3727 -0.7246
  867MOL0     O16911   4.102   5.291   6.961  0.0349  0.4411  0.1338
  867MOL0     C16912   4.016   5.354   7.015  0.8253 -0.4983  0.2309
  867MOL0     O16913   4.039   5.482   7.061 -0.7746 -0.1256 -0.3411
  867MOL0     C16914   4.171   5.528   7.076 -0.0329  0.2057  0.1942
  867MOL0     C16915   4.257   5.479   7.184  0.8616 -0.1482  1.3219
  867MOL0     C16916   4.380   5.542   7.201 -0.4041 -0.1721 -0.1007
  867MOL0     C16917   4.424   5.643   7.118 -0.0867 -0.4500 -0.6304
  867MOL0     O16918   4.550   5.681   7.140  0.4750  0.3065 -0.4433
  867MOL0     C16919   4.612   5.780   7.056 -0.7116  0.4149 -0.2374
  867MOL0     C16920   4.585   5.911   7.133  0.7284 -1.0088 -0.0260
  867MOL0     C16921   4.668   5.908   7.276 -0.3682  1.0843  0.8397
  867MOL0     C16922   4.701   6.056   7.310  0.4614 -0.3044  0.5612
  867MOL0     C16923   4.778   6.057   7.442 -0.6705 -0.5295  0.3774
  867MOL0     C16924   4.760   6.187   7.511 -0.5412  0.4366 -0.8300
  867MOL0     C16925   4.628   6.186   7.598  0.3009  0.6340  0.0755
  867MOL0     C16926   4.634   6.320   7.686  0.5691 -0.4853  0.1514
  867MOL0     N16927   4.509   6.367   7.741  0.7370 -0.3860  0.3952
  867MOL0     C16928   4.421   6.295   7.823  0.0230  0.1896  0.8316
  867MOL0     C16929   4.316   6.373   7.833  0.8629 -0.0498 -0.5677
  867MOL0     C16930   4.190   6.353   7.914 -0.8003 -0.0485  0.4138
  867MOL0     C16931   4.233   6.318   8.068  1.4095  0.0760 -0.3832
  867MOL0     C16932   4.293   6.448   8.131 -0.6706 -0.9908 -0.7149
  867MOL0     C16933   4.315   6.446   8.281 -0.4441  0.4039 -0.2974
  867MOL0     O16934   4.240   6.546   8.360 -0.4872  0.1772 -0.1325
  867MOL0     C16935   4.304   6.613   8.456  0.4996 -1.1153 -0.3861
  867MOL0     C16936   4.278   6.743   8.482  0.2927 -0.4555 -0.2418
  867MOL0     C16937   4.360   6.807   8.575 -0.6659 -0.3813  0.2327
  867MOL0     C16938   4.338   6.958   8.592  0.1380  0.5176  0.0838
  867MOL0     C16939   4.453   6.731   8.653  0.2559  0.4866 -0.6296
  867MOL0     C16940   4.538   6.790   8.761 -0.1506  0.0867  0.2527
  867MOL0     O16941   4.578   6.720   8.864 -0.1260 -0.7292  0.6051
  867MOL0     C16942   4.662   6.778   8.958 -0.7686  0.4444  0.2640
  867MOL0     C16943   4.768   6.692   9.004  1.0280 -0.8924 -0.1670
  867MOL0     C16944   4.862   6.735   9.093 -0.8619 -0.7173 -0.0757
  867MOL0     C16945   4.875   6.875   9.120  0.3826 -0.2180  0.4267
  867MOL0     O16946   4.984   6.933   9.172  0.2146 -0.4130 -0.8682
  867MOL0     C16947   5.096   6.847   9.217  0.0834 -0.2433 -0.0136
  867MOL0     C16948   5.226   6.921   9.249 -0.5938  0.2608 -0.2795
  867MOL0     C16949   5.343   6.826   9.267  0.6366 -0.6085  0.0195
  867MOL0     C16950   5.323   6.705   9.366  0.1334 -0.3368  0.4643
  867MOL0     C16951   5.443   6.693   9.469 -0.5389  0.0696 -0.0467
  867MOL0     C16952   5.584   6.678   9.385  0.1977  0.0181  0.0445
  867MOL0     C16953   5.597   6.569   9.280  0.6522  0.3257 -0.3037
  867MOL0     C16954   5.715   6.575   9.178  1.0237 -0.0761 -1.0192
  867MOL0    Cl16955   5.850   6.587   9.285 -0.3132  0.0397 -0.4856
  867MOL0     C16956   4.772   6.955   9.083  0.4123 -0.5336 -0.5844
  867MOL0     C16957   4.667   6.913   9.002  0.3341 -0.2242  0.8076
  867MOL0     O16958   4.571   6.902   8.742  0.2756 -0.3262  0.1432
  867MOL0     C16959   4.462   6.593   8.636 -0.1196  0.3726  0.6955
  867MOL0     C16960   4.388   6.543   8.536 -1.3137  0.4796  0.7946
  867MOL0     N16961   4.341   6.493   7.776 -0.1575  0.2529  0.8904
  867MOL0     N16962   4.458   6.492   7.729 -0.3933 -0.2418 -0.2020
  867MOL0     C16963   4.328   5.707   7.032 -0.5153  0.2352  0.1077
  867MOL0     C16964   4.207   5.643   7.005 -0.2664  0.3097 -0.2867
  867MOL0     C16965   3.869   5.314   7.009  0.0051 -0.6183  0.3257
  867MOL0     C16966   3.828   5.185   6.952  0.1384  0.0230 -0.0461
  867MOL0     C16967   3.695   5.130   6.948 -0.1678 -0.0259 -0.1683
  867MOL0     C16968   3.594   5.214   6.999 -0.0839  0.0015 -0.0878
  867MOL0     O16969   3.463   5.169   6.995 -0.1607 -0.1240  0.5715
  867MOL0     C16970   3.354   5.222   7.076 -0.5630 -1.3330 -0.6882
  867MOL0     C16971   3.286   5.336   7.005 -0.5395 -0.1991 -0.4246
  867MOL0     C16972   3.126   5.328   7.026  0.9789 -0.4935 -0.4074
  867MOL0     C16973   3.060   5.440   6.941 -0.5312  0.4454 -0.2499
  867MOL0     C16974   3.073   5.404   6.793  0.7076 -0.2695  0.3505
  867MOL0     C16975   3.102   5.357   6.683 -0.3230 -0.7947 -0.1732
  867MOL0     C16976   3.631   5.344   7.048 -0.3118  0.6866 -0.4239
  867MOL0     C16977   3.767   5.394   7.056  0.9633  1.0649  0.2277
  867MOL0     H16978   4.221   5.397   7.245 -1.2515  0.6699  1.2346
  867MOL0     H16979   4.452   5.514   7.278 -1.2568  0.3356  0.9120
  867MOL0     H16980   4.721   5.773   7.053 -0.6135 -0.3058  2.4027
  867MOL0     H16981   4.572   5.782   6.954  0.0122  3.9783 -0.6000
  867MOL0     H16982   4.604   6.002   7.076 -4.6001 -0.3190 -1.2778
  867MOL0     H16983   4.478   5.916   7.155  0.8489 -1.5869  0.7165
  867MOL0     H16984   4.610   5.862   7.357  1.1232 -0.2331  1.2150
  867MOL0     H16985   4.762   5.853   7.265 -0.4598  1.1595 -0.5128
  867MOL0     H16986   4.760   6.106   7.232 -1.5198  1.4437  0.0716
  867MOL0     H16987   4.606   6.110   7.311  0.4501 -0.3270  0.7354
  867MOL0     H16988   4.741   5.977   7.508 -0.2366 -0.7886  0.3093
  867MOL0     H16989   4.878   6.025   7.410 -0.1475  2.0313 -0.7550
  867MOL0     H16990   4.842   6.202   7.583 -2.1122 -1.9183  1.6020
  867MOL0     H16991   4.764   6.267   7.435  0.5856  1.4083  0.2049
  867MOL0     H16992   4.535   6.181   7.541  0.3517 -2.0497  0.0962
  867MOL0     H16993   4.624   6.093   7.656  0.4604 -0.8627 -2.1871
  867MOL0     H16994   4.660   6.398   7.613  0.5909 -0.7432 -0.1184
  867MOL0     H16995   4.715   6.332   7.759  1.1879  0.0506 -0.5912
  867MOL0     H16996   4.422   6.192   7.858  1.2154 -0.7353 -1.6686
  867MOL0     H16997   4.136   6.448   7.924 -2.2345 -0.4109 -2.7666
  867MOL0     H16998   4.128   6.278   7.866 -1.0036 -1.2786  2.4646
  867MOL0     H16999   4.301   6.233   8.075  1.5307  0.2381  0.5520
  867MOL0     H17000   4.149   6.299   8.136 -0.3499 -2.8723 -3.1054
  867MOL0     H17001   4.234   6.538   8.112  0.4386 -0.8024 -3.7976
  867MOL0     H17002   4.391   6.474   8.089  0.4272  4.9957  4.0693
  867MOL0     H17003   4.422   6.463   8.294 -0.6343  2.5935 -1.2574
  867MOL0     H17004   4.280   6.347   8.315 -0.7367  0.7176  0.3380
  867MOL0     H17005   4.195   6.791   8.431  0.5012 -0.1340 -0.2756
  867MOL0     H17006   4.269   6.994   8.514 -0.6348 -3.2693 -1.2053
  867MOL0     H17007   4.296   6.973   8.691  0.3603  0.1306  0.2380
  867MOL0     H17008   4.424   7.023   8.574  1.5359 -0.9107  1.3476
  867MOL0     H17009   4.755   6.586   8.984 -1.8798 -0.9269  1.3648
  867MOL0     H17010   4.933   6.661   9.129 -0.6792 -1.4971 -1.9151
  867MOL0     H17011   5.070   6.779   9.298  4.5689 -2.2817 -0.0416
  867MOL0     H17012   5.110   6.776   9.135 -2.1706  0.0925 -0.7745
  867MOL0     H17013   5.239   6.989   9.164 -2.2471 -1.7566 -2.2852
  867MOL0     H17014   5.208   6.991   9.330 -0.1716  1.3110 -1.0706
  867MOL0     H17015   5.421   6.894   9.303 -0.9968  0.5135  1.6538
  867MOL0     H17016   5.378   6.781   9.173 -1.0027 -0.7367 -0.5590
  867MOL0     H17017   5.226   6.707   9.417 -1.3305 -2.8218 -1.9606
  867MOL0     H17018   5.299   6.612   9.314  3.5298 -3.0615  3.2675
  867MOL0     H17019   5.425   6.608   9.535 -1.8164 -1.0027 -1.6880
  867MOL0     H17020   5.455   6.785   9.527  1.1119 -0.8959  1.2202
  867MOL0     H17021   5.590   6.777   9.338 -3.5281  0.3827  0.0002
  867MOL0     H17022   5.664   6.673   9.459  0.9130  3.0423 -0.3684
  867MOL0     H17023   5.498   6.564   9.233 -0.0914 -2.3084  1.2949
  867MOL0     H17024   5.613   6.473   9.330 -0.8569  1.2132  2.0846
  867MOL0     H17025   5.712   6.661   9.111 -1.6170  0.2387 -0.5876
  867MOL0     H17026   5.707   6.486   9.115 -1.4412 -1.4342  1.0196
  867MOL0     H17027   4.777   7.063   9.095  1.2155 -0.7218  1.1218
  867MOL0     H17028   4.594   6.983   8.961  1.8997 -0.7822 -3.4775
  867MOL0     H17029   4.534   6.529   8.686 -0.3889  0.2063  0.8720
  867MOL0     H17030   4.390   6.435   8.520  1.6612  0.3633  1.4439
  867MOL0     H17031   4.356   5.797   6.979  0.6575 -0.0887  0.1515
  867MOL0     H17032   4.122   5.681   6.949 -1.4099 -0.3194  0.9838
  867MOL0     H17033   3.893   5.117   6.898 -1.1109  1.1698 -3.2313
  867MOL0     H17034   3.672   5.028   6.917  1.3827 -0.7199  0.8810
  867MOL0     H17035   3.278   5.145   7.086  0.7026 -2.3872  1.3814
  867MOL0     H17036   3.386   5.255   7.176 -1.3088 -1.6157 -0.3490
  867MOL0     H17037   3.309   5.333   6.898  0.3931 -1.0466 -0.2221
  867MOL0     H17038   3.336   5.428   7.037 -0.7229 -0.2823  0.1153
  867MOL0     H17039   3.096   5.340   7.130 -0.8079 -1.3797 -0.7824
  867MOL0     H17040   3.082   5.240   6.978  1.6839 -0.5903 -0.8934
  867MOL0     H17041   3.120   5.528   6.966  3.0026 -1.4093 -1.4038
  867MOL0     H17042   2.955   5.452   6.968 -0.6948 -1.5883  0.1556
  867MOL0     H17043   3.127   5.323   6.584 -2.1511 -1.1996 -0.5365
  867MOL0     H17044   3.558   5.409   7.094 -0.8712 -0.5330  0.4535
  867MOL0     H17045   3.779   5.494   7.096 -3.5853  1.6374  0.7408
  868MOL0     O17046   7.019   4.323   9.925 -0.4882 -0.1230 -0.1518
  868MOL0     C17047   6.907   4.261   9.945 -0.0379 -0.6851  1.0136
  868MOL0     O17048   6.807   4.310  10.016  0.1904  0.1390  0.2016
  868MOL0     C17049   6.835   4.405  10.110  0.4855 -0.0680 -0.1236
  868MOL0     C17050   6.854   4.540  10.066  0.7621 -0.2739 -0.3828
  868MOL0     C17051   6.873   4.639  10.166 -0.1335 -1.4159 -0.7939
  868MOL0     C17052   6.890   4.598  10.304 -0.2358 -0.6896  0.8203
  868MOL0     O17053   6.910   4.691  10.401  0.2234  0.2251  1.0117
  868MOL0     C17054   6.929   4.649  10.538  0.2248  0.8339  0.1477
  868MOL0     C17055   6.976   4.765  10.632 -0.7473 -0.3301  0.5875
  868MOL0     C17056   7.094   4.853  10.595  0.2159  0.1612  0.7783
  868MOL0     C17057   7.222   4.804  10.666 -0.5998  0.6738 -0.1446
  868MOL0     C17058   7.235   4.833  10.819 -0.1633  0.6566 -0.5822
  868MOL0     C17059   7.260   4.982  10.838 -0.1486 -1.1088  0.3739
  868MOL0     C17060   7.265   5.024  10.991 -1.0949  0.3292  0.3232
  868MOL0     C17061   7.332   5.153  11.028  0.2196  0.5797 -0.6102
  868MOL0     N17062   7.399   5.147  11.156  0.7991 -0.1746 -0.7567
  868MOL0     C17063   7.518   5.207  11.175 -0.1162  0.8826 -0.2193
  868MOL0     C17064   7.540   5.173  11.309 -0.0121  0.1561 -0.8948
  868MOL0     C17065   7.656   5.222  11.395  0.3124  0.3207 -0.1777
  868MOL0     C17066   7.655   5.358  11.458 -0.4001  0.0291 -0.8274
  868MOL0     C17067   7.784   5.377  11.538  0.6592 -0.3813  0.5153
  868MOL0     C17068   7.781   5.509  11.588  0.4321  0.9157 -0.0957
  868MOL0     O17069   7.910   5.550  11.634  0.7261  0.3553 -0.7007
  868MOL0     C17070   7.977   5.643  11.561  0.3359 -0.5605 -0.5455
  868MOL0     C17071   8.038   5.615  11.440 -0.0383  0.1894 -0.0080
  868MOL0     C17072   8.114   5.710  11.374 -0.5800  0.4798 -0.4573
  868MOL0     C17073   8.180   5.661  11.254 -0.0076  0.4568 -0.7279
  868MOL0     C17074   8.152   5.828  11.442  0.1782 -0.5320  0.0062
  868MOL0     C17075   8.250   5.926  11.394  0.5019  0.0018  0.5757
  868MOL0     O17076   8.292   5.921  11.274  0.4104 -0.1015  0.1729
  868MOL0     C17077   8.400   6.000  11.228 -0.9466  0.5443  0.8294
  868MOL0     C17078   8.392   6.141  11.236  0.4035  0.4361  0.0532
  868MOL0     C17079   8.499   6.225  11.206 -0.0583  0.9322 -0.5137
  868MOL0     C17080   8.617   6.170  11.164 -0.2893  0.1031 -0.6978
  868MOL0     O17081   8.712   6.275  11.153  0.2501  0.7500  0.1238
  868MOL0     C17082   8.854   6.223  11.154  0.2511  0.7990 -0.6110
  868MOL0     C17083   8.948   6.340  11.116 -0.2198 -0.3938  0.2907
  868MOL0     C17084   8.981   6.349  10.963 -0.0414 -1.2311 -0.0848
  868MOL0     C17085   9.061   6.221  10.927  0.6692 -1.2859 -0.8971
  868MOL0     C17086   9.133   6.251  10.796  0.0792  0.4107  0.4679
  868MOL0     C17087   9.162   6.116  10.731 -0.5819 -0.6492  0.3614
  868MOL0     C17088   9.249   6.125  10.606 -0.0578  0.2944  0.8369
  868MOL0     C17089   9.388   6.145  10.627  0.0326  0.1786 -0.4711
  868MOL0    Cl17090   9.452   6.112  10.461  0.3486 -0.1462  0.0949
  868MOL0     C17091   8.625   6.029  11.129 -0.3647 -0.2728 -0.1357
  868MOL0     C17092   8.514   5.945  11.159  0.0105  0.0300 -0.3961
  868MOL0     O17093   8.299   6.000  11.476 -0.6809  0.1816 -0.2746
  868MOL0     C17094   8.089   5.854  11.562 -0.5179 -0.9522 -0.1385
  868MOL0     C17095   7.999   5.770  11.616  0.6883 -0.3710 -0.1468
  868MOL0     N17096   7.430   5.111  11.364  0.0213  0.5218 -0.3655
  868MOL0     N17097   7.351   5.090  11.266  0.2653 -0.3300 -0.4129
  868MOL0     C17098   6.876   4.459  10.341 -0.0404  0.0135  1.2368
  868MOL0     C17099   6.847   4.370  10.242  0.4830 -0.2192 -0.1431
  868MOL0     C17100   6.872   4.146   9.864 -0.5293 -0.2605 -0.6883
  868MOL0     C17101   6.762   4.067   9.881  0.1819  0.5241 -0.3154
  868MOL0     C17102   6.736   3.963   9.795 -0.0856 -0.2774  0.4577
  868MOL0     C17103   6.818   3.929   9.682 -0.3214 -0.1481 -0.5105
  868MOL0     O17104   6.802   3.813   9.610  0.5592 -0.1864 -0.3903
  868MOL0     C17105   6.799   3.820   9.471  0.2228  0.1711 -0.0550
  868MOL0     C17106   6.715   3.703   9.404 -1.3188 -0.2559  0.1766
  868MOL0     C17107   6.737   3.706   9.253  0.2470 -0.0624  0.5771
  868MOL0     C17108   6.659   3.596   9.180  0.3939 -1.2300 -0.4190
  868MOL0     C17109   6.686   3.469   9.235  1.0255  0.1558  0.9894
  868MOL0     C17110   6.715   3.359   9.274  0.1213  0.7544 -0.1621
  868MOL0     C17111   6.913   4.024   9.654 -0.2485 -0.1668 -0.4548
  868MOL0     C17112   6.939   4.121   9.745 -0.8085 -0.8601 -0.6560
  868MOL0     H17113   6.848   4.548   9.958  2.8939 -1.2110 -0.6174
  868MOL0     H17114   6.854   4.743  10.141 -2.2909 -1.9616 -1.6039
  868MOL0     H17115   6.842   4.596  10.576  0.4026 -1.8336 -2.7466
  868MOL0     H17116   7.009   4.574  10.539  0.2722  0.7942  3.1885
  868MOL0     H17117   6.884   4.823  10.646 -3.4302 -3.3712 -2.6202
  868MOL0     H17118   6.998   4.714  10.726 -0.1641 -0.8843  0.1613
  868MOL0     H17119   7.112   4.854  10.487  2.8794  0.1420  1.1551
  868MOL0     H17120   7.084   4.959  10.621 -0.3907  0.9384 -2.2567
  868MOL0     H17121   7.214   4.697  10.648  0.5463  0.9956 -3.0596
  868MOL0     H17122   7.315   4.842  10.621  1.5816 -3.3534  0.5087
  868MOL0     H17123   7.143   4.798  10.867  2.1980 -3.0374  1.8114
  868MOL0     H17124   7.321   4.772  10.850  0.0337  1.4805  0.5268
  868MOL0     H17125   7.353   5.022  10.797  0.0741  2.7726  3.8914
  868MOL0     H17126   7.170   5.030  10.798 -1.8398 -2.1172  2.7150
  868MOL0     H17127   7.164   5.030  11.033 -1.8032 -2.7452 -0.6251
  868MOL0     H17128   7.325   4.948  11.042  0.0003  0.0575 -1.2916
  868MOL0     H17129   7.255   5.230  11.032 -1.1633 -0.7855  0.0607
  868MOL0     H17130   7.406   5.167  10.949 -2.7701  1.7125 -3.4137
  868MOL0     H17131   7.573   5.255  11.095 -0.9397 -0.9943 -1.9978
  868MOL0     H17132   7.667   5.151  11.478  5.1038  2.0145  1.0200
  868MOL0     H17133   7.755   5.214  11.349  0.8736 -0.1292  1.0661
  868MOL0     H17134   7.565   5.364  11.521  0.0930 -0.7874 -0.0104
  868MOL0     H17135   7.643   5.434  11.380  1.0756  1.8683  0.6524
  868MOL0     H17136   7.873   5.376  11.474 -0.5252  2.7514 -1.4111
  868MOL0     H17137   7.792   5.298  11.613  1.9422  0.0201  0.8163
  868MOL0     H17138   7.700   5.521  11.660 -0.2984 -0.8986 -0.5393
  868MOL0     H17139   7.760   5.578  11.505  1.9823  0.6708 -0.7315
  868MOL0     H17140   8.009   5.513  11.415  1.2942 -0.7966  2.2259
  868MOL0     H17141   8.168   5.727  11.167  2.0413  0.3244 -1.1593
  868MOL0     H17142   8.287   5.665  11.272 -0.6833  2.6619  4.5466
  868MOL0     H17143   8.139   5.567  11.214  1.5105 -0.4052 -0.3136
  868MOL0     H17144   8.300   6.173  11.282  0.5429 -0.6616  1.1540
  868MOL0     H17145   8.489   6.332  11.220  1.9491  1.6803 -3.7210
  868MOL0     H17146   8.880   6.180  11.251 -1.4358 -2.6594 -1.5008
  868MOL0     H17147   8.863   6.139  11.085 -2.2354 -0.5628  0.5781
  868MOL0     H17148   8.897   6.434  11.138  0.8961 -0.0591  1.5279
  868MOL0     H17149   9.041   6.330  11.173  0.3725 -2.1881 -0.9007
  868MOL0     H17150   9.042   6.438  10.945 -1.1826 -0.4873 -0.3964
  868MOL0     H17151   8.889   6.366  10.906  2.4495 -1.0230 -4.4794
  868MOL0     H17152   9.132   6.201  11.008  0.3365 -1.1371 -0.5659
  868MOL0     H17153   8.997   6.134  10.909  0.6517 -1.6003  0.5794
  868MOL0     H17154   9.230   6.298  10.814 -1.1293  2.7403  1.4168
  868MOL0     H17155   9.084   6.314  10.721  3.7162  1.8702 -0.8944
  868MOL0     H17156   9.221   6.046  10.792 -0.4274 -1.3514 -0.5694
  868MOL0     H17157   9.070   6.061  10.712  0.3176 -1.4442 -2.1022
  868MOL0     H17158   9.215   6.205  10.538  0.3007 -0.1900  0.0698
  868MOL0     H17159   9.229   6.034  10.549  1.5131  0.2285  0.3385
  868MOL0     H17160   9.436   6.073  10.693  0.3786  0.8271 -0.0029
  868MOL0     H17161   9.427   6.239  10.667 -1.2605 -0.6155  3.0346
  868MOL0     H17162   8.721   5.991  11.096  1.1707 -0.8661  4.3196
  868MOL0     H17163   8.538   5.845  11.124  2.9976  0.5527 -0.1690
  868MOL0     H17164   8.116   5.936  11.627 -1.2016  0.0701 -1.1088
  868MOL0     H17165   7.955   5.798  11.711 -1.1488  2.9258 -1.7574
  868MOL0     H17166   6.875   4.418  10.442  2.5173  1.2067  1.8428
  868MOL0     H17167   6.857   4.271  10.288  6.2382  0.5623  1.0881
  868MOL0     H17168   6.687   4.090   9.956  3.1602  1.2891  2.6685
  868MOL0     H17169   6.658   3.892   9.822  0.3508 -0.4952  1.1641
  868MOL0     H17170   6.762   3.914   9.429  0.8470  0.6272  0.3852
  868MOL0     H17171   6.902   3.816   9.434 -1.0111 -0.3539 -3.7885
  868MOL0     H17172   6.613   3.716   9.439 -0.9918 -0.1749  1.1225
  868MOL0     H17173   6.745   3.608   9.449  0.2930  0.7422  1.3338
  868MOL0     H17174   6.842   3.689   9.227 -0.1743 -3.8019  0.7141
  868MOL0     H17175   6.712   3.802   9.208  1.2840 -0.5140 -1.0422
  868MOL0     H17176   6.691   3.594   9.076 -0.7009 -1.7863 -0.7556
  868MOL0     H17177   6.554   3.624   9.188  0.3423 -1.6327  0.4188
  868MOL0     H17178   6.748   3.258   9.283 -2.2968 -0.4382 -3.1513
  868MOL0     H17179   6.989   4.025   9.577  1.2297 -2.1830  0.8446
  868MOL0     H17180   7.027   4.181   9.722  2.0908 -4.4521  0.0729
  869MOL0     O17181  11.506   7.932   8.256  0.9246 -0.2884  0.8142
  869MOL0     C17182  11.579   7.844   8.289  0.3264  0.0037 -0.5467
  869MOL0     O17183  11.711   7.851   8.299  0.1066  0.0627  0.1967
  869MOL0     C17184  11.769   7.966   8.245  0.0367 -1.0101 -0.1074
  869MOL0     C17185  11.743   8.030   8.125 -0.7645 -0.4667  0.9479
  869MOL0     C17186  11.842   8.115   8.073 -0.0410  0.0785 -0.1123
  869MOL0     C17187  11.958   8.151   8.132  0.1963 -0.0888 -0.5822
  869MOL0     O17188  12.035   8.246   8.069 -1.0376  0.1844  0.3364
  869MOL0     C17189  12.125   8.322   8.155  0.2727 -0.5293  0.2002
  869MOL0     C17190  12.210   8.414   8.072 -0.2838  0.5367 -0.1060
  869MOL0     C17191  12.312   8.493   8.160 -0.2370  0.6824 -0.5261
  869MOL0     C17192  12.254   8.620   8.200  0.3288  0.3614  0.2446
  869MOL0     C17193  12.311   8.681   8.325 -1.8461 -0.3059  0.2995
  869MOL0     C17194  12.462   8.693   8.310  0.3190  0.0713 -0.6996
  869MOL0     C17195  12.524   8.745   8.439  0.8526 -0.6673  0.1966
  869MOL0     C17196  12.615   8.659   8.521  0.3774  0.0934 -0.4139
  869MOL0     N17197  12.549   8.525   8.530 -0.0842 -0.4886 -0.4544
  869MOL0     C17198  12.562   8.414   8.456 -0.5804  0.2920  0.5938
  869MOL0     C17199  12.492   8.322   8.514  0.1341 -0.0781 -0.3631
  869MOL0     C17200  12.478   8.186   8.456 -0.3009 -1.3120  0.5873
  869MOL0     C17201  12.406   8.098   8.545 -0.0247  0.0311  1.2686
  869MOL0     C17202  12.255   8.138   8.544  0.5026  1.3716  0.4612
  869MOL0     C17203  12.166   8.025   8.592  0.8261 -0.5345  0.9827
  869MOL0     O17204  12.176   7.910   8.510  0.0773  0.1013 -0.4137
  869MOL0     C17205  12.086   7.805   8.555  0.0059 -0.9699  0.2356
  869MOL0     C17206  12.033   7.720   8.455 -0.5010  0.1402  0.0889
  869MOL0     C17207  11.956   7.606   8.490  0.1425  0.1641  0.6025
  869MOL0     C17208  11.899   7.513   8.376  0.2224 -0.8846  0.0294
  869MOL0     C17209  11.927   7.581   8.620  0.2865  0.0267 -0.8957
  869MOL0     C17210  11.844   7.468   8.664  0.3701 -0.1154 -0.6726
  869MOL0     O17211  11.745   7.502   8.749 -0.1084  0.4413  0.4861
  869MOL0     C17212  11.661   7.420   8.817  0.2023  0.2232  0.0938
  869MOL0     C17213  11.597   7.473   8.935  0.5976 -0.6722 -0.1151
  869MOL0     C17214  11.491   7.394   8.993 -0.2614 -0.4619  0.6287
  869MOL0     C17215  11.485   7.261   8.967  0.8046 -1.0678 -0.0193
  869MOL0     O17216  11.402   7.191   9.044  0.0339  0.1637 -0.1755
  869MOL0     C17217  11.441   7.062   9.099 -0.7031 -0.9321  0.1409
  869MOL0     C17218  11.350   7.026   9.215 -0.4417 -0.1482  0.0099
  869MOL0     C17219  11.384   7.106   9.328  0.2545  0.5293 -0.2167
  869MOL0     C17220  11.277   7.101   9.432 -0.8555 -0.3435 -0.1140
  869MOL0     C17221  11.192   7.224   9.456 -0.3092 -0.8068 -0.1266
  869MOL0     C17222  11.265   7.353   9.517  0.1060  0.0174  0.5247
  869MOL0     C17223  11.169   7.460   9.575  0.6243  0.5443  0.1333
  869MOL0     C17224  11.243   7.598   9.575 -0.5708  0.7936 -0.1681
  869MOL0    Cl17225  11.160   7.747   9.569  0.1510 -0.2419  0.1071
  869MOL0     C17226  11.532   7.215   8.850 -0.0361  0.1164 -0.7859
  869MOL0     C17227  11.627   7.288   8.775 -0.7969 -0.2388 -0.7324
  869MOL0     O17228  11.893   7.354   8.657 -0.2209  0.4620  0.0021
  869MOL0     C17229  11.989   7.654   8.723 -0.8715 -0.4843  0.3173
  869MOL0     C17230  12.063   7.767   8.693 -0.9440 -2.0139 -0.4149
  869MOL0     N17231  12.439   8.375   8.636 -1.0899  0.2317  0.0969
  869MOL0     N17232  12.480   8.493   8.639 -0.5578 -0.5710 -0.7209
  869MOL0     C17233  11.979   8.104   8.266  0.4599 -0.6287 -0.2127
  869MOL0     C17234  11.885   8.019   8.316  0.3925 -0.6268  0.0657
  869MOL0     C17235  11.513   7.728   8.353 -0.0451  0.1687 -0.0775
  869MOL0     C17236  11.574   7.639   8.440 -0.2666  0.1074 -0.8987
  869MOL0     C17237  11.506   7.532   8.491 -0.1790  0.4548 -0.1280
  869MOL0     C17238  11.379   7.491   8.457  0.4028 -0.6602 -0.2047
  869MOL0     O17239  11.322   7.393   8.529 -0.1657  0.0507  0.2854
  869MOL0     C17240  11.188   7.405   8.577 -0.1960  0.0139  0.2109
  869MOL0     C17241  11.189   7.394   8.730  0.2693 -0.0217 -0.7527
  869MOL0     C17242  11.050   7.347   8.770  0.5373 -0.3989 -0.4913
  869MOL0     C17243  10.953   7.453   8.816 -0.5979  0.4494  0.7400
  869MOL0     C17244  10.841   7.380   8.864 -0.0550 -0.0189 -0.2028
  869MOL0     C17245  10.744   7.312   8.879  0.0790 -0.2852 -1.2404
  869MOL0     C17246  11.323   7.570   8.353 -0.3014 -0.2851  0.0248
  869MOL0     C17247  11.378   7.687   8.307 -0.6188 -0.5531 -0.1402
  869MOL0     H17248  11.660   7.992   8.066  2.1710 -3.8286 -1.4245
  869MOL0     H17249  11.823   8.151   7.973 -1.3024  1.5217  0.6110
  869MOL0     H17250  12.063   8.378   8.226 -0.4411 -0.9498 -0.0715
  869MOL0     H17251  12.186   8.249   8.210  2.7983  1.8524  0.7798
  869MOL0     H17252  12.262   8.358   7.994 -1.2942  1.3084 -1.3838
  869MOL0     H17253  12.144   8.485   8.020  2.2018  2.1046 -1.2851
  869MOL0     H17254  12.333   8.432   8.249 -0.1035  1.0149 -0.3269
  869MOL0     H17255  12.410   8.507   8.113  0.2372  2.4482  0.8660
  869MOL0     H17256  12.270   8.690   8.117  2.5392 -0.0693  0.2503
  869MOL0     H17257  12.149   8.625   8.230 -0.1103  0.7151 -1.2728
  869MOL0     H17258  12.285   8.783   8.353  5.3301  1.6865  1.6717
  869MOL0     H17259  12.288   8.618   8.411 -1.3017  0.4841  1.0385
  869MOL0     H17260  12.509   8.595   8.296 -0.3391 -1.0600  3.6267
  869MOL0     H17261  12.477   8.775   8.239 -0.8256  1.3280  0.4565
  869MOL0     H17262  12.584   8.835   8.421  1.7726 -1.5930 -1.7286
  869MOL0     H17263  12.446   8.776   8.509  3.0942 -0.0556  2.5947
  869MOL0     H17264  12.620   8.695   8.624 -0.9013 -0.4630 -0.1403
  869MOL0     H17265  12.719   8.651   8.488  0.2934 -0.3826 -0.5662
  869MOL0     H17266  12.610   8.401   8.360 -0.5834  1.3647  0.4355
  869MOL0     H17267  12.425   8.199   8.361  0.5159  0.5449  0.3526
  869MOL0     H17268  12.580   8.150   8.438  1.2876  2.4203  1.3103
  869MOL0     H17269  12.448   8.086   8.646 -0.8741 -0.3195  1.5896
  869MOL0     H17270  12.395   7.997   8.505 -4.0135  0.5898  0.5371
  869MOL0     H17271  12.229   8.182   8.447  0.5802  1.7529  0.6125
  869MOL0     H17272  12.241   8.213   8.622 -2.2027 -1.4292  2.9449
  869MOL0     H17273  12.065   8.068   8.593 -0.4592 -3.2539  2.7883
  869MOL0     H17274  12.190   8.011   8.698  0.8188 -0.6122  0.9741
  869MOL0     H17275  12.064   7.734   8.352 -1.5208 -0.3329 -0.2984
  869MOL0     H17276  11.943   7.544   8.281  3.4646  2.9985  2.4885
  869MOL0     H17277  11.922   7.407   8.388 -2.4351 -1.6693 -1.0455
  869MOL0     H17278  11.790   7.522   8.376  0.3556  2.9092 -1.6904
  869MOL0     H17279  11.615   7.570   8.979  0.5061 -0.9860  0.6326
  869MOL0     H17280  11.437   7.429   9.080 -1.1786 -1.4950  0.4919
  869MOL0     H17281  11.423   6.984   9.025  0.4442 -0.8644 -0.2238
  869MOL0     H17282  11.547   7.069   9.126  0.5121  2.6060 -4.3720
  869MOL0     H17283  11.247   7.057   9.194  0.0291  1.9100  0.4785
  869MOL0     H17284  11.358   6.919   9.234  3.3453 -0.2437 -1.2231
  869MOL0     H17285  11.397   7.213   9.309 -0.4102  0.5410 -0.6546
  869MOL0     H17286  11.483   7.079   9.366  1.1044  3.0991 -0.4408
  869MOL0     H17287  11.203   7.028   9.400 -0.3320  0.2170 -2.8842
  869MOL0     H17288  11.335   7.077   9.522 -0.1127 -1.8475 -0.9542
  869MOL0     H17289  11.109   7.194   9.522  0.6516 -3.2491  0.1049
  869MOL0     H17290  11.133   7.254   9.369 -0.3847 -1.9917 -0.5017
  869MOL0     H17291  11.319   7.322   9.607 -0.0073 -1.0107  0.2478
  869MOL0     H17292  11.327   7.402   9.442 -2.6345  4.1350  0.6169
  869MOL0     H17293  11.136   7.433   9.675  3.4863  5.8468  2.9120
  869MOL0     H17294  11.080   7.464   9.512 -0.9644  2.4212  2.3498
  869MOL0     H17295  11.292   7.618   9.479 -1.7027  0.0407 -0.9294
  869MOL0     H17296  11.315   7.602   9.657  0.4992 -0.8976 -0.9721
  869MOL0     H17297  11.508   7.114   8.821 -1.7866  0.6896 -1.4536
  869MOL0     H17298  11.653   7.242   8.680 -0.2300  3.8297 -2.7710
  869MOL0     H17299  11.990   7.619   8.826  0.4010  0.9826  0.8316
  869MOL0     H17300  12.126   7.811   8.769 -1.2272 -1.7852 -0.3109
  869MOL0     H17301  12.067   8.120   8.328  2.0674 -1.4990 -2.1912
  869MOL0     H17302  11.903   7.981   8.416  2.8305  2.0340  0.7600
  869MOL0     H17303  11.673   7.666   8.474 -0.8697  2.0542 -0.5826
  869MOL0     H17304  11.562   7.465   8.555  1.8326 -0.2402 -2.4669
  869MOL0     H17305  11.136   7.497   8.548  0.8667  0.6138  0.1604
  869MOL0     H17306  11.158   7.314   8.524  2.3204 -0.9359  0.2539
  869MOL0     H17307  11.225   7.490   8.766  0.1336  0.2881 -1.4352
  869MOL0     H17308  11.252   7.311   8.763 -1.8373 -1.8956 -1.1201
  869MOL0     H17309  11.055   7.278   8.855 -0.3228 -0.3680 -0.4021
  869MOL0     H17310  11.006   7.303   8.681 -1.8888  1.0383 -0.0966
  869MOL0     H17311  10.927   7.510   8.727  0.2022 -0.7515 -0.2952
  869MOL0     H17312  11.004   7.511   8.893  1.6675 -0.6947  0.2017
  869MOL0     H17313  10.660   7.247   8.892  0.6228 -0.5938  1.2540
  869MOL0     H17314  11.233   7.536   8.304 -0.4914 -0.7716  0.6898
  869MOL0     H17315  11.335   7.740   8.223 -1.2353  2.6681  2.0121
  870MOL0     O17316   2.602   4.609   0.624 -0.0430 -0.3274 -0.5395
  870MOL0     C17317   2.521   4.540   0.558 -0.5130 -0.7014 -0.4998
  870MOL0     O17318   2.388   4.525   0.578 -0.3246 -0.1206 -0.3808
  870MOL0     C17319   2.336   4.556   0.698  0.1604 -0.3864 -0.9731
  870MOL0     C17320   2.365   4.671   0.785  0.4763 -0.2529  0.8169
  870MOL0     C17321   2.305   4.685   0.911  0.1445  0.2935 -0.1516
  870MOL0     C17322   2.217   4.595   0.961  0.4107 -0.3002  1.0175
  870MOL0     O17323   2.182   4.609   1.084 -0.1752 -0.1515 -0.9044
  870MOL0     C17324   2.114   4.504   1.166  0.4832 -0.3970  0.2396
  870MOL0     C17325   2.216   4.440   1.253 -0.1627 -0.4266 -0.7533
  870MOL0     C17326   2.153   4.330   1.344 -0.1512  0.3927  0.4159
  870MOL0     C17327   2.147   4.188   1.280  0.5155  1.0040 -0.1954
  870MOL0     C17328   2.108   4.074   1.375 -0.1509  0.0587 -0.6406
  870MOL0     C17329   2.090   3.941   1.303  1.1796  0.4799 -0.2851
  870MOL0     C17330   1.987   3.830   1.372 -0.6007 -0.6890  0.4178
  870MOL0     C17331   1.992   3.816   1.531 -0.7395  0.5241 -0.2263
  870MOL0     N17332   1.864   3.759   1.572 -0.2031  0.0269 -0.0486
  870MOL0     C17333   1.742   3.817   1.554 -0.3367  0.1805  1.0577
  870MOL0     C17334   1.658   3.719   1.565  0.1326  0.9760 -0.4996
  870MOL0     C17335   1.512   3.710   1.552 -0.3160 -0.6535  0.6971
  870MOL0     C17336   1.422   3.841   1.529 -0.3368  0.7211  0.7129
  870MOL0     C17337   1.436   3.906   1.386 -0.3961  0.1270 -0.6297
  870MOL0     C17338   1.333   3.854   1.284  0.4785  0.8666 -1.8568
  870MOL0     O17339   1.338   3.937   1.176 -0.5606 -0.1200  0.9431
  870MOL0     C17340   1.312   3.914   1.042  0.5356 -0.5617 -0.1966
  870MOL0     C17341   1.389   3.979   0.945  0.4063  0.4217  0.2464
  870MOL0     C17342   1.349   3.973   0.809  0.3541  0.1121 -0.2851
  870MOL0     C17343   1.430   4.067   0.721  0.3661 -0.6160 -0.1894
  870MOL0     C17344   1.232   3.888   0.783  0.5131  0.7155  0.1263
  870MOL0     C17345   1.163   3.892   0.650 -0.2432 -0.7081  0.0219
  870MOL0     O17346   1.031   3.869   0.660 -0.6773  1.0925  0.2978
  870MOL0     C17347   0.947   3.888   0.549 -0.7450  0.9273 -0.7772
  870MOL0     C17348   0.945   3.792   0.447 -0.7680 -0.2703  1.1405
  870MOL0     C17349   0.874   3.806   0.328  0.7014  0.7130 -0.2390
  870MOL0     C17350   0.783   3.911   0.322  0.2579  0.1738  0.3420
  870MOL0     O17351   0.704   3.918   0.211 -0.3777  0.7965  0.4800
  870MOL0     C17352   0.636   4.041   0.182 -0.0495  0.2449  0.1488
  870MOL0     C17353   0.596   4.045   0.036 -0.7542 -0.2197  0.1775
  870MOL0     C17354   0.502   3.927   0.008  0.3215 -0.1682 -0.0110
  870MOL0     C17355   0.453   3.927  -0.132  0.0495 -0.1678 -0.3393
  870MOL0     C17356   0.400   3.791  -0.180 -0.3110 -1.0421 -0.1513
  870MOL0     C17357   0.260   3.809  -0.248  0.3900  0.5071  0.2810
  870MOL0     C17358   0.198   3.673  -0.276 -0.2432  0.4791 -0.4815
  870MOL0     C17359   0.045   3.697  -0.323 -0.3048  0.1829  0.6990
  870MOL0    Cl17360   0.007   3.787  -0.469 -0.0079  0.4202  0.0351
  870MOL0     C17361   0.782   4.011   0.426  0.1179  0.1255 -0.3186
  870MOL0     C17362   0.868   3.995   0.532 -0.3357 -1.0130  1.1868
  870MOL0     O17363   1.219   3.916   0.549 -0.4333  0.8689 -0.3945
  870MOL0     C17364   1.165   3.817   0.887  0.1960  0.3829 -0.0176
  870MOL0     C17365   1.215   3.822   1.011  0.2004 -0.1737  0.2170
  870MOL0     N17366   1.728   3.602   1.593 -0.1245  0.4118 -0.4397
  870MOL0     N17367   1.852   3.627   1.601  0.5886  0.1076  0.6290
  870MOL0     C17368   2.184   4.491   0.879 -0.5512  0.0040 -0.3765
  870MOL0     C17369   2.240   4.469   0.753 -0.0480  0.2589 -0.5747
  870MOL0     C17370   2.569   4.457   0.447 -0.2361 -0.9126 -0.8143
  870MOL0     C17371   2.696   4.473   0.408 -1.0817  0.2051  0.5232
  870MOL0     C17372   2.737   4.406   0.288 -0.2380 -0.1027 -1.2788
  870MOL0     C17373   2.654   4.327   0.215  0.1913  0.0019  0.3869
  870MOL0     O17374   2.679   4.258   0.096 -0.0033 -0.3516 -0.1447
  870MOL0     C17375   2.791   4.307   0.025  0.4914 -0.7913  0.1607
  870MOL0     C17376   2.789   4.237  -0.124 -0.4387 -0.3125  0.0404
  870MOL0     C17377   2.872   4.320  -0.218 -1.0072 -0.7842  0.8065
  870MOL0     C17378   2.805   4.449  -0.259  0.0141 -0.4821  0.4196
  870MOL0     C17379   2.873   4.567  -0.201  0.8654 -0.3701  0.4722
  870MOL0     C17380   2.948   4.655  -0.173 -0.0139  0.5333  0.8823
  870MOL0     C17381   2.527   4.302   0.266  0.7357  0.1829  0.4511
  870MOL0     C17382   2.485   4.362   0.383 -0.4820 -0.7078 -0.7219
  870MOL0     H17383   2.441   4.745   0.759  0.4918 -0.0882  1.3133
  870MOL0     H17384   2.322   4.774   0.971 -0.5839  1.8141 -2.0932
  870MOL0     H17385   2.034   4.547   1.227  2.4069  1.6047  1.4923
  870MOL0     H17386   2.073   4.424   1.103 -3.5652 -0.9614  3.2262
  870MOL0     H17387   2.289   4.399   1.183  0.2877  1.1119 -1.2360
  870MOL0     H17388   2.254   4.520   1.318  0.9548 -1.1233 -0.5133
  870MOL0     H17389   2.210   4.334   1.437 -1.9217  3.9349  1.5469
  870MOL0     H17390   2.050   4.353   1.376 -1.9256 -2.5604 -2.5282
  870MOL0     H17391   2.061   4.185   1.213 -1.1996  2.2151  1.8225
  870MOL0     H17392   2.243   4.157   1.238  0.3560  0.7207 -0.3541
  870MOL0     H17393   2.185   4.066   1.452  0.0295  0.4684 -0.7774
  870MOL0     H17394   2.013   4.088   1.427  1.3619 -2.4848  3.2397
  870MOL0     H17395   2.056   3.961   1.201 -0.0413  1.5630  0.3041
  870MOL0     H17396   2.188   3.894   1.310  1.6682  1.5451  0.2474
  870MOL0     H17397   1.888   3.871   1.347  0.8792  3.8055  0.9869
  870MOL0     H17398   2.002   3.727   1.340  2.4162  0.6282 -3.1159
  870MOL0     H17399   2.011   3.916   1.571  2.3259 -0.8581  2.2045
  870MOL0     H17400   2.073   3.748   1.556 -1.6618 -0.0743  1.2192
  870MOL0     H17401   1.718   3.913   1.510  0.9894  0.8889  1.7972
  870MOL0     H17402   1.499   3.650   1.461  1.2912 -1.4004  0.9211
  870MOL0     H17403   1.489   3.648   1.639 -1.3862 -0.9099  0.2506
  870MOL0     H17404   1.455   3.902   1.614  1.9862 -2.7986  2.6004
  870MOL0     H17405   1.319   3.806   1.544 -0.1825 -2.1897 -3.4050
  870MOL0     H17406   1.534   3.880   1.344 -0.8747  0.3789 -1.9394
  870MOL0     H17407   1.430   4.014   1.402 -2.5124 -0.2066  1.3538
  870MOL0     H17408   1.232   3.854   1.327  0.9638  3.0065 -0.5707
  870MOL0     H17409   1.368   3.756   1.251  0.1542  0.8660 -2.2069
  870MOL0     H17410   1.461   4.051   0.984 -3.1782  3.9294  1.0103
  870MOL0     H17411   1.453   4.162   0.770  1.0057 -0.4975 -0.7061
  870MOL0     H17412   1.524   4.014   0.701  0.5227 -1.2078  1.8792
  870MOL0     H17413   1.382   4.109   0.633  0.1001 -1.8497 -0.6474
  870MOL0     H17414   1.028   3.723   0.447  1.0675  1.8328  0.6760
  870MOL0     H17415   0.894   3.732   0.251 -0.7729  0.3884 -0.3395
  870MOL0     H17416   0.544   4.045   0.241 -0.0168  1.0724  0.1617
  870MOL0     H17417   0.704   4.125   0.202  0.2620  0.2069 -0.7253
  870MOL0     H17418   0.545   4.139   0.017  1.1231  0.9854  0.8087
  870MOL0     H17419   0.692   4.041  -0.017 -0.6186 -1.4581  0.4627
  870MOL0     H17420   0.415   3.929   0.075 -0.3004  4.4989 -0.6326
  870MOL0     H17421   0.557   3.835   0.032 -0.2175 -1.1012 -2.1176
  870MOL0     H17422   0.380   4.003  -0.162 -1.8760 -3.0610 -3.8502
  870MOL0     H17423   0.530   3.957  -0.204 -1.8604  0.4551 -2.2607
  870MOL0     H17424   0.382   3.723  -0.096 -4.1062  1.2329  1.1164
  870MOL0     H17425   0.477   3.755  -0.250  2.2184  2.0638  0.7965
  870MOL0     H17426   0.196   3.861  -0.176 -1.6736 -4.2477  2.2765
  870MOL0     H17427   0.264   3.868  -0.340  1.8439  0.0588  0.0295
  870MOL0     H17428   0.208   3.617  -0.183  0.0311 -0.2096 -0.9133
  870MOL0     H17429   0.250   3.615  -0.352  0.4628  0.4823 -0.0026
  870MOL0     H17430  -0.009   3.738  -0.237  0.1897 -0.6737  1.4228
  870MOL0     H17431   0.007   3.599  -0.353  1.6853 -1.0062  1.8903
  870MOL0     H17432   0.718   4.098   0.425  0.1217  0.4401  4.7851
  870MOL0     H17433   0.871   4.077   0.602 -1.3274  2.3984 -2.3903
  870MOL0     H17434   1.074   3.760   0.872  0.8806 -0.2813 -2.0591
  870MOL0     H17435   1.162   3.772   1.091 -0.9251  2.0234  0.9203
  870MOL0     H17436   2.102   4.421   0.891  0.8037 -1.5158  0.3972
  870MOL0     H17437   2.196   4.388   0.695 -2.0770  0.1568  0.9905
  870MOL0     H17438   2.762   4.544   0.459 -0.8705  1.5216 -1.4621
  870MOL0     H17439   2.839   4.424   0.255 -0.1110 -1.8164 -1.9627
  870MOL0     H17440   2.797   4.416   0.025  1.4505 -0.7228  3.5213
  870MOL0     H17441   2.880   4.269   0.075  0.7558 -1.8653 -1.1045
  870MOL0     H17442   2.689   4.229  -0.166 -0.6195  2.4659 -0.2551
  870MOL0     H17443   2.841   4.141  -0.116  2.4247  1.1123  0.0107
  870MOL0     H17444   2.889   4.259  -0.307  2.2413 -0.8745  1.3771
  870MOL0     H17445   2.967   4.335  -0.165 -1.1493  1.2097  0.5916
  870MOL0     H17446   2.697   4.446  -0.242 -0.3122 -0.7277 -1.4441
  870MOL0     H17447   2.820   4.459  -0.367  2.8217 -3.7128  0.3179
  870MOL0     H17448   3.013   4.734  -0.143 -0.3866  1.5193 -0.7753
  870MOL0     H17449   2.467   4.232   0.209 -0.5107  2.1994 -0.8718
  870MOL0     H17450   2.392   4.322   0.422 -0.2835 -0.3767  0.1175
  871MOL0     O17451  10.825   5.214   1.497  0.3089  0.1233  0.0050
  871MOL0     C17452  10.725   5.215   1.428  1.4029 -0.1133  0.7362
  871MOL0     O17453  10.605   5.187   1.472 -0.6834  0.1569  0.4935
  871MOL0     C17454  10.569   5.216   1.601 -0.2910 -0.2259 -0.7255
  871MOL0     C17455  10.498   5.125   1.674 -0.5234  0.6092  0.7844
  871MOL0     C17456  10.490   5.139   1.810  0.9403 -0.1226 -0.1711
  871MOL0     C17457  10.515   5.265   1.872  0.0890  0.0924  0.5169
  871MOL0     O17458  10.470   5.300   1.995  0.0867 -0.3032 -0.2781
  871MOL0     C17459  10.421   5.206   2.093  0.0120 -0.0169 -0.2930
  871MOL0     C17460  10.538   5.129   2.161 -0.9781  0.0734  0.9776
  871MOL0     C17461  10.490   5.023   2.251  0.1524  0.9480  0.3250
  871MOL0     C17462  10.600   4.934   2.307 -0.1247 -0.2218 -0.3809
  871MOL0     C17463  10.528   4.820   2.380 -0.3447  0.3121 -1.1624
  871MOL0     C17464  10.630   4.730   2.453  0.7821  0.4334  0.0386
  871MOL0     C17465  10.575   4.587   2.497 -0.3607 -0.3603  0.1410
  871MOL0     C17466  10.467   4.594   2.599 -0.2831  0.1613  0.3666
  871MOL0     N17467  10.520   4.595   2.731  0.3680 -1.3443 -0.3759
  871MOL0     C17468  10.579   4.486   2.794  0.2208 -0.2852  0.3159
  871MOL0     C17469  10.644   4.537   2.900 -0.1808 -0.6941  0.1064
  871MOL0     C17470  10.718   4.453   2.993 -0.0593  0.7345 -0.0847
  871MOL0     C17471  10.858   4.392   2.943  1.1322 -1.2361 -0.5687
  871MOL0     C17472  10.957   4.514   2.931 -0.0686  0.8538 -0.0440
  871MOL0     C17473  11.113   4.464   2.922  0.3748 -0.1543 -0.2913
  871MOL0     O17474  11.204   4.568   2.911 -0.3764 -0.4601 -0.7307
  871MOL0     C17475  11.340   4.531   2.920  0.7035 -0.2713 -1.0814
  871MOL0     C17476  11.396   4.403   2.929 -0.5307 -0.7364 -0.0587
  871MOL0     C17477  11.531   4.386   2.967  0.8119 -0.6475  0.1258
  871MOL0     C17478  11.578   4.244   2.967  0.0616  0.5208  0.8195
  871MOL0     C17479  11.610   4.494   2.998 -0.1365 -0.6047 -0.6212
  871MOL0     C17480  11.761   4.481   3.023 -0.0954 -0.3998 -0.2778
  871MOL0     O17481  11.813   4.603   3.036 -0.2660 -0.0217 -0.3155
  871MOL0     C17482  11.934   4.619   3.098 -0.1341  0.6472 -0.0211
  871MOL0     C17483  12.005   4.740   3.056  0.2544 -0.4711 -0.0202
  871MOL0     C17484  12.120   4.772   3.124  0.2244 -0.6553 -0.0715
  871MOL0     C17485  12.159   4.697   3.240  0.2328 -0.1864 -0.4572
  871MOL0     O17486  12.262   4.747   3.309 -0.1524 -0.1524 -0.1772
  871MOL0     C17487  12.231   4.811   3.439  0.4502 -0.1034 -0.6191
  871MOL0     C17488  12.354   4.894   3.484  0.0642 -1.0091 -0.7044
  871MOL0     C17489  12.317   4.967   3.615 -0.2162  0.1025  0.9644
  871MOL0     C17490  12.354   4.885   3.735  0.9364 -0.0258  0.0009
  871MOL0     C17491  12.354   4.957   3.867 -0.7056  0.5219 -1.0382
  871MOL0     C17492  12.496   4.959   3.923 -0.0685 -0.3347 -0.1394
  871MOL0     C17493  12.597   5.045   3.853 -0.0183 -0.7080  0.7971
  871MOL0     C17494  12.710   5.094   3.944 -0.3858  0.1948 -0.5472
  871MOL0    Cl17495  12.839   5.170   3.852 -0.2311  0.0627 -0.3323
  871MOL0     C17496  12.084   4.588   3.278 -0.1782  0.0218  0.8839
  871MOL0     C17497  11.971   4.545   3.210  0.3728 -0.5561 -0.1752
  871MOL0     O17498  11.822   4.372   3.029 -0.0291 -0.4083 -0.4146
  871MOL0     C17499  11.546   4.625   2.989  0.3773  0.0761  0.3417
  871MOL0     C17500  11.417   4.644   2.945 -0.5278  0.0305  0.9436
  871MOL0     N17501  10.608   4.668   2.920  0.1428 -0.2779 -0.2031
  871MOL0     N17502  10.543   4.703   2.816 -0.3475  0.1020 -0.6008
  871MOL0     C17503  10.579   5.363   1.800 -0.2316 -0.2274 -0.4728
  871MOL0     C17504  10.614   5.334   1.669  0.4104  0.1775  0.4512
  871MOL0     C17505  10.749   5.224   1.275  0.0026 -0.2682 -0.3126
  871MOL0     C17506  10.643   5.211   1.187 -0.9104  1.8574 -0.2538
  871MOL0     C17507  10.660   5.221   1.053 -0.2512  0.5034 -0.8907
  871MOL0     C17508  10.792   5.251   1.000  1.4029  0.6663 -0.4848
  871MOL0     O17509  10.815   5.262   0.871 -0.4079 -1.6808  0.4078
  871MOL0     C17510  10.772   5.394   0.825  0.5163 -0.9102  0.2301
  871MOL0     C17511  10.846   5.440   0.698 -0.0850  0.5755 -0.6459
  871MOL0     C17512  10.842   5.340   0.580 -0.6651  1.2068  1.2127
  871MOL0     C17513  10.929   5.391   0.466  0.7157 -0.1749  1.1848
  871MOL0     C17514  10.980   5.277   0.376  0.5384  0.5014 -0.8363
  871MOL0     C17515  11.001   5.186   0.300 -1.3119 -0.4718  0.1955
  871MOL0     C17516  10.893   5.286   1.084 -0.2003  0.4985  0.2510
  871MOL0     C17517  10.874   5.272   1.227 -0.5220  1.1455  0.0434
  871MOL0     H17518  10.461   5.036   1.623 -0.5475  1.9113 -1.6159
  871MOL0     H17519  10.442   5.066   1.874  2.4189 -0.3767  0.6822
  871MOL0     H17520  10.359   5.253   2.171 -2.4792 -1.0478 -1.5227
  871MOL0     H17521  10.357   5.133   2.042  1.0425  0.7211 -2.7732
  871MOL0     H17522  10.600   5.094   2.078 -0.7177  2.4510  0.0755
  871MOL0     H17523  10.597   5.204   2.215 -1.5566  1.4689 -0.2790
  871MOL0     H17524  10.444   5.069   2.340  1.3276 -0.2097  1.5768
  871MOL0     H17525  10.419   4.970   2.188  2.3359  1.3490 -2.6569
  871MOL0     H17526  10.671   4.904   2.230 -1.9601  1.2750 -2.8010
  871MOL0     H17527  10.663   4.996   2.372 -0.6412 -0.5288  0.4305
  871MOL0     H17528  10.460   4.856   2.458  0.4153  1.9134 -1.2050
  871MOL0     H17529  10.468   4.763   2.309 -2.1370  1.3968 -0.5747
  871MOL0     H17530  10.712   4.723   2.381  0.4968 -0.8913 -0.1809
  871MOL0     H17531  10.662   4.785   2.542 -2.7455  2.9620 -0.0120
  871MOL0     H17532  10.533   4.539   2.408  1.6947 -1.3656 -0.3450
  871MOL0     H17533  10.657   4.519   2.520  0.5432  0.8795  0.7144
  871MOL0     H17534  10.401   4.506   2.589 -0.1137  0.1752 -1.3050
  871MOL0     H17535  10.395   4.676   2.588 -2.1312 -1.4086  0.1292
  871MOL0     H17536  10.583   4.383   2.760 -3.7508 -1.1044  1.8167
  871MOL0     H17537  10.734   4.501   3.090  1.0664 -1.1380  0.7045
  871MOL0     H17538  10.649   4.369   3.001 -0.4040  0.9186 -1.0721
  871MOL0     H17539  10.852   4.329   2.855 -0.3454  1.7265 -2.7590
  871MOL0     H17540  10.886   4.337   3.034 -2.2700 -1.5889  0.4160
  871MOL0     H17541  10.936   4.578   3.017 -1.4316  0.9300 -0.4180
  871MOL0     H17542  10.920   4.572   2.845 -3.6558 -1.3099 -0.1215
  871MOL0     H17543  11.128   4.400   2.835 -0.9142  0.3205 -0.8850
  871MOL0     H17544  11.133   4.403   3.011  1.2561  2.0357  1.0920
  871MOL0     H17545  11.339   4.311   2.928 -0.4441 -0.7907 -0.0554
  871MOL0     H17546  11.668   4.233   2.905 -0.5519 -1.5219  0.2184
  871MOL0     H17547  11.609   4.218   3.068 -0.9488 -0.3278  0.9219
  871MOL0     H17548  11.500   4.173   2.937 -0.1208 -0.4978  3.4593
  871MOL0     H17549  11.968   4.806   2.978 -0.6984  0.5894  1.2787
  871MOL0     H17550  12.179   4.848   3.074  1.0906 -1.8509 -0.9173
  871MOL0     H17551  12.141   4.872   3.428  1.0552  1.1699  1.1004
  871MOL0     H17552  12.212   4.737   3.518  2.6355  1.8343  1.9213
  871MOL0     H17553  12.445   4.835   3.494  1.3826  1.1268  0.7121
  871MOL0     H17554  12.374   4.957   3.397  0.8167  1.5279  1.1950
  871MOL0     H17555  12.212   4.999   3.613 -0.5073 -0.8199  1.0898
  871MOL0     H17556  12.373   5.061   3.607 -0.6632  0.2037 -2.3196
  871MOL0     H17557  12.299   4.790   3.737  2.6903 -1.1224 -1.2704
  871MOL0     H17558  12.452   4.846   3.709  0.4838 -1.5626  0.5197
  871MOL0     H17559  12.289   4.890   3.924 -0.4926  1.7417  0.7447
  871MOL0     H17560  12.314   5.059   3.873  0.8620  1.0944  1.5702
  871MOL0     H17561  12.492   4.983   4.029  3.0516 -3.0632  0.7527
  871MOL0     H17562  12.536   4.857   3.928  0.6488  0.0024  3.0255
  871MOL0     H17563  12.545   5.130   3.807 -3.1176 -2.1603  1.3428
  871MOL0     H17564  12.649   4.992   3.773 -1.6503 -1.9712  0.5140
  871MOL0     H17565  12.751   5.017   4.009 -3.9086  0.1917  2.0085
  871MOL0     H17566  12.650   5.154   4.014  0.5269  1.6463 -0.9683
  871MOL0     H17567  12.127   4.530   3.359  0.9077  0.0430  0.3358
  871MOL0     H17568  11.910   4.470   3.259  1.0779 -2.2244 -1.7426
  871MOL0     H17569  11.596   4.719   3.009 -0.4076  1.8057 -4.5086
  871MOL0     H17570  11.371   4.742   2.944  1.0086  0.8735 -2.4518
  871MOL0     H17571  10.629   5.449   1.843  2.7765 -2.1513  0.1977
  871MOL0     H17572  10.687   5.396   1.618  1.6186  0.2291  2.1313
  871MOL0     H17573  10.552   5.174   1.233 -0.9126 -0.3306 -1.8980
  871MOL0     H17574  10.589   5.180   0.982 -1.6891 -2.4229  1.9775
  871MOL0     H17575  10.666   5.392   0.799  0.2598 -0.0136  1.1453
  871MOL0     H17576  10.795   5.473   0.897  0.7747 -2.7366  2.2857
  871MOL0     H17577  10.950   5.465   0.722 -0.2662  0.2346  0.5912
  871MOL0     H17578  10.790   5.530   0.672 -2.5272  0.0831  2.3433
  871MOL0     H17579  10.739   5.337   0.542 -0.3585 -2.5872  0.2500
  871MOL0     H17580  10.877   5.239   0.603 -0.2152  1.4476  1.5958
  871MOL0     H17581  11.022   5.436   0.499  2.3169 -3.0194  0.8600
  871MOL0     H17582  10.874   5.467   0.410  0.4112 -2.0398 -1.2337
  871MOL0     H17583  11.036   5.116   0.227  1.6050 -1.9070  2.7631
  871MOL0     H17584  10.991   5.322   1.057  1.0259 -3.4326 -1.3145
  871MOL0     H17585  10.953   5.294   1.299 -2.8476 -1.0899  3.5930
  872MOL0     O17586   2.334  11.154   1.872 -0.3522  0.9667 -1.5286
  872MOL0     C17587   2.244  11.115   1.943 -0.3409 -0.6404 -0.5525
  872MOL0     O17588   2.186  10.993   1.951  0.7739 -0.0997 -0.0448
  872MOL0     C17589   2.232  10.877   1.882  0.8265 -0.3241  0.1596
  872MOL0     C17590   2.356  10.868   1.833  0.1126 -0.2193 -1.1085
  872MOL0     C17591   2.401  10.747   1.767 -0.7091  0.0246  0.6949
  872MOL0     C17592   2.320  10.633   1.777 -0.6555  0.3758 -0.1152
  872MOL0     O17593   2.358  10.508   1.739  0.1052 -0.4636  0.3328
  872MOL0     C17594   2.495  10.475   1.733  0.7179  0.9265 -0.1577
  872MOL0     C17595   2.496  10.341   1.661 -0.6101 -0.2927 -0.2107
  872MOL0     C17596   2.635  10.285   1.670 -1.0746  1.2089  0.2749
  872MOL0     C17597   2.660  10.149   1.604  0.1924 -0.1297 -0.2071
  872MOL0     C17598   2.601  10.040   1.701  0.1531  0.9578 -1.0833
  872MOL0     C17599   2.623   9.900   1.642 -0.1893 -0.4930 -0.8278
  872MOL0     C17600   2.575   9.892   1.496  0.1522  0.8328 -0.3152
  872MOL0     C17601   2.603   9.747   1.433 -0.4568 -0.5587 -0.5612
  872MOL0     N17602   2.584   9.630   1.522 -0.0549  0.3695 -0.1650
  872MOL0     C17603   2.471   9.602   1.581  0.0069  0.2546  0.7723
  872MOL0     C17604   2.488   9.485   1.648 -0.1911  0.4664 -1.5210
  872MOL0     C17605   2.391   9.422   1.740 -1.1406 -0.7218 -0.2575
  872MOL0     C17606   2.285   9.348   1.660  0.4137 -0.0876  0.5478
  872MOL0     C17607   2.179   9.309   1.764  0.2062 -0.9212  1.0073
  872MOL0     C17608   2.028   9.321   1.726  0.5330  0.0164 -0.2278
  872MOL0     O17609   2.008   9.258   1.599  0.6717  0.1979 -0.6388
  872MOL0     C17610   1.992   9.129   1.587 -0.3444  0.6124  0.5305
  872MOL0     C17611   2.012   9.023   1.685 -0.3038  0.2681  0.6032
  872MOL0     C17612   1.996   8.887   1.654 -0.4664 -0.7849  1.0660
  872MOL0     C17613   2.024   8.788   1.766  0.3719 -0.4831  0.0491
  872MOL0     C17614   1.957   8.855   1.524 -0.1922  0.5941  0.6371
  872MOL0     C17615   1.918   8.722   1.482 -0.1670 -0.0519 -1.3856
  872MOL0     O17616   1.914   8.708   1.355 -0.2179 -0.7640  0.6897
  872MOL0     C17617   1.881   8.582   1.311  1.5110 -0.6353 -0.0743
  872MOL0     C17618   1.986   8.506   1.261  0.2827  0.8467 -0.3332
  872MOL0     C17619   1.969   8.375   1.214  0.2584  0.0694 -1.3954
  872MOL0     C17620   1.839   8.333   1.204  0.4358  0.9142  0.2582
  872MOL0     O17621   1.826   8.200   1.164 -0.1113  0.4232 -0.7520
  872MOL0     C17622   1.704   8.135   1.151  0.1338  1.1523 -0.2235
  872MOL0     C17623   1.718   7.979   1.150  0.4062 -0.4800  0.1035
  872MOL0     C17624   1.580   7.908   1.170  0.5291 -0.1625  0.2105
  872MOL0     C17625   1.508   7.890   1.041 -0.0273  0.4128 -0.1026
  872MOL0     C17626   1.362   7.854   1.044 -0.0670  0.4832  0.8324
  872MOL0     C17627   1.292   7.846   0.905 -0.0611 -0.3242 -0.6119
  872MOL0     C17628   1.334   7.719   0.840 -0.0862 -0.9385 -0.5756
  872MOL0     C17629   1.234   7.610   0.860  0.0267  0.1194 -0.8472
  872MOL0    Cl17630   1.310   7.450   0.836  0.0249 -0.4915 -0.6458
  872MOL0     C17631   1.727   8.418   1.232 -0.3015  0.0690  0.5981
  872MOL0     C17632   1.748   8.547   1.290 -0.0266  0.6704  0.5737
  872MOL0     O17633   1.869   8.648   1.568  0.5679 -0.0138  0.2559
  872MOL0     C17634   1.962   8.956   1.425  1.2555  0.2525 -0.5207
  872MOL0     C17635   1.983   9.085   1.452  0.0699 -0.3512 -0.7256
  872MOL0     N17636   2.622   9.437   1.632 -0.2755  0.2818  0.6334
  872MOL0     N17637   2.671   9.530   1.554  0.1963 -0.7739 -0.3171
  872MOL0     C17638   2.197  10.646   1.842  0.7282  0.0036  0.5076
  872MOL0     C17639   2.149  10.766   1.881  0.7292 -0.5370  1.3380
  872MOL0     C17640   2.167  11.216   2.016  0.1738 -0.6221  1.0376
  872MOL0     C17641   2.167  11.355   1.973  0.6271  0.9328  0.5984
  872MOL0     C17642   2.079  11.447   2.031  0.4664 -0.0080  0.7650
  872MOL0     C17643   1.988  11.403   2.134 -0.5824 -0.1270  0.7894
  872MOL0     O17644   1.912  11.502   2.187  0.1036  0.1856 -0.3968
  872MOL0     C17645   1.787  11.475   2.253 -0.1914 -0.1449 -0.2486
  872MOL0     C17646   1.781  11.445   2.397  0.0650  0.7056 -1.8543
  872MOL0     C17647   1.631  11.433   2.445  0.4260 -0.0081 -0.2581
  872MOL0     C17648   1.619  11.409   2.589 -0.1322  0.2829 -0.2730
  872MOL0     C17649   1.647  11.525   2.679  0.0510  0.2070 -0.6034
  872MOL0     C17650   1.669  11.620   2.761 -0.4461 -0.4588  0.3347
  872MOL0     C17651   1.987  11.267   2.172 -0.2143  0.3524 -0.0577
  872MOL0     C17652   2.083  11.178   2.126  0.2237 -0.8658 -0.3211
  872MOL0     H17653   2.432  10.946   1.835  1.0407 -1.1179  0.1616
  872MOL0     H17654   2.499  10.750   1.721  0.1274 -0.6222  2.3483
  872MOL0     H17655   2.555  10.546   1.675  3.6863 -0.2307  1.2456
  872MOL0     H17656   2.537  10.462   1.834  4.0141  1.6274 -1.3016
  872MOL0     H17657   2.421  10.281   1.714 -1.9064 -0.0034 -1.6343
  872MOL0     H17658   2.463  10.338   1.556 -0.0468 -2.6574 -0.3961
  872MOL0     H17659   2.710  10.349   1.624 -0.2971 -0.6031 -1.1293
  872MOL0     H17660   2.668  10.275   1.774  1.5676 -0.9259 -0.6642
  872MOL0     H17661   2.598  10.148   1.514  1.2187 -3.0612 -1.0019
  872MOL0     H17662   2.764  10.135   1.573  0.2154  1.4705 -0.9207
  872MOL0     H17663   2.653  10.045   1.797 -1.9898  0.3451  0.1862
  872MOL0     H17664   2.496  10.062   1.722  0.7042  1.6666  1.1860
  872MOL0     H17665   2.730   9.876   1.644  0.3693  1.2350  4.0009
  872MOL0     H17666   2.579   9.825   1.708  2.0990  0.1811  1.6120
  872MOL0     H17667   2.466   9.903   1.494 -0.0985 -1.1188  0.6019
  872MOL0     H17668   2.626   9.963   1.429  2.2439 -0.3348 -0.0395
  872MOL0     H17669   2.709   9.752   1.405 -0.5788  2.1913 -0.7876
  872MOL0     H17670   2.534   9.722   1.351 -1.5765 -0.3811  0.2966
  872MOL0     H17671   2.377   9.656   1.586 -0.1984 -0.1209  1.0070
  872MOL0     H17672   2.436   9.352   1.811 -0.0775  1.4341  1.3187
  872MOL0     H17673   2.342   9.497   1.803 -1.3798 -0.0939 -1.1791
  872MOL0     H17674   2.335   9.272   1.600 -0.0562  0.6003 -0.7377
  872MOL0     H17675   2.233   9.405   1.583 -0.6732 -4.4294 -2.2965
  872MOL0     H17676   2.185   9.358   1.862 -0.4652 -3.8835  2.6682
  872MOL0     H17677   2.208   9.210   1.800  2.9466  0.3239  2.5280
  872MOL0     H17678   1.991   9.424   1.727  2.9000  0.9444  1.6708
  872MOL0     H17679   1.961   9.274   1.798  2.0087 -1.3045  0.3548
  872MOL0     H17680   2.035   9.051   1.787  4.1194  0.6644 -0.3166
  872MOL0     H17681   2.087   8.818   1.850 -1.2896  0.1357  1.1134
  872MOL0     H17682   1.924   8.767   1.804  0.5993  3.2654  3.3753
  872MOL0     H17683   2.074   8.702   1.721  3.0542  0.8982  0.1845
  872MOL0     H17684   2.085   8.544   1.279  0.0932  1.9069 -1.4554
  872MOL0     H17685   2.046   8.308   1.177  1.5355  1.4821 -1.4177
  872MOL0     H17686   1.637   8.169   1.231  1.1179 -1.9187  2.1038
  872MOL0     H17687   1.652   8.164   1.059 -0.0763  1.3679 -0.0406
  872MOL0     H17688   1.768   7.964   1.053  0.6235  2.2897 -0.2991
  872MOL0     H17689   1.790   7.949   1.226 -0.6500  0.0861  1.3585
  872MOL0     H17690   1.513   7.964   1.236 -1.4534 -1.5910 -0.4826
  872MOL0     H17691   1.600   7.810   1.212  0.8578  0.0913  0.6485
  872MOL0     H17692   1.506   7.989   0.995 -0.8258 -0.7985 -2.9177
  872MOL0     H17693   1.569   7.826   0.976  1.1491  1.0204  0.3761
  872MOL0     H17694   1.332   7.941   1.102 -0.0690 -0.8196  2.9008
  872MOL0     H17695   1.351   7.761   1.102  2.0717  1.2864  2.6664
  872MOL0     H17696   1.185   7.860   0.922  0.7039  3.7652  2.3155
  872MOL0     H17697   1.317   7.931   0.841 -0.6074 -2.3466 -3.7347
  872MOL0     H17698   1.427   7.688   0.889 -1.0320 -0.5417  1.5960
  872MOL0     H17699   1.342   7.739   0.733 -3.3936  0.2940 -0.6879
  872MOL0     H17700   1.147   7.616   0.794 -2.6098  1.9452  2.4259
  872MOL0     H17701   1.195   7.624   0.962  0.4347  2.0963 -0.9263
  872MOL0     H17702   1.623   8.387   1.228 -1.3493  2.6212  3.4164
  872MOL0     H17703   1.675   8.620   1.325  0.1401  1.3945 -0.5243
  872MOL0     H17704   1.955   8.927   1.321 -3.4089 -1.5625  0.0638
  872MOL0     H17705   1.975   9.151   1.367 -1.6833 -2.9416 -2.7663
  872MOL0     H17706   2.133  10.559   1.849 -0.7722  1.1202  1.2679
  872MOL0     H17707   2.047  10.777   1.918  0.8897 -3.5296  3.0691
  872MOL0     H17708   2.238  11.399   1.905  1.5014  0.8142  1.4083
  872MOL0     H17709   2.092  11.551   2.004 -1.0622 -0.4987 -2.3306
  872MOL0     H17710   1.746  11.576   2.258  1.3267  0.4856 -0.0409
  872MOL0     H17711   1.717  11.408   2.200 -2.8139  1.4634  0.9486
  872MOL0     H17712   1.829  11.524   2.455  1.8351 -2.6442  1.6992
  872MOL0     H17713   1.847  11.361   2.419  2.3555  2.6792 -0.7226
  872MOL0     H17714   1.580  11.353   2.390  0.5917  0.4854 -1.1472
  872MOL0     H17715   1.588  11.531   2.426  1.1790  0.2453 -0.6994
  872MOL0     H17716   1.679  11.324   2.624 -0.5659 -0.1292 -0.5184
  872MOL0     H17717   1.516  11.388   2.618  0.8491 -3.9615  0.8843
  872MOL0     H17718   1.684  11.695   2.836  0.4217 -1.1504  0.8751
  872MOL0     H17719   1.930  11.216   2.249 -0.1447  1.0346  0.4605
  872MOL0     H17720   2.071  11.077   2.162 -1.1301 -0.8182 -0.6112
  873MOL0     O17721   1.107   8.604   2.779  0.0066 -0.3798 -0.8005
  873MOL0     C17722   1.038   8.681   2.845 -0.4707 -0.6624  0.0579
  873MOL0     O17723   0.902   8.666   2.880  0.5983 -0.6018  0.1779
  873MOL0     C17724   0.836   8.559   2.825 -0.9291  0.3081  0.7950
  873MOL0     C17725   0.766   8.571   2.704  0.0625  0.3417  0.1882
  873MOL0     C17726   0.708   8.457   2.649  0.1263  1.2829  0.4553
  873MOL0     C17727   0.711   8.325   2.711  1.0566  0.5965 -0.3763
  873MOL0     O17728   0.640   8.219   2.650 -0.0571  0.7660  0.6159
  873MOL0     C17729   0.640   8.202   2.511  0.3797  0.0542  0.9429
  873MOL0     C17730   0.507   8.250   2.449  0.8494  0.9257 -0.4032
  873MOL0     C17731   0.518   8.293   2.307 -0.3329  0.4278  0.2344
  873MOL0     C17732   0.391   8.309   2.230  0.7042 -0.0679 -0.1200
  873MOL0     C17733   0.413   8.303   2.072 -0.3074  0.7611 -0.3472
  873MOL0     C17734   0.301   8.226   2.004  0.4884  0.0409 -0.5215
  873MOL0     C17735   0.302   8.067   2.032  0.5674  0.4346 -0.3675
  873MOL0     C17736   0.409   7.988   1.967 -0.2619  0.1704 -0.8888
  873MOL0     N17737   0.434   8.009   1.826 -0.1746 -0.2129 -0.5872
  873MOL0     C17738   0.342   7.982   1.730  0.2894 -0.0494  0.0563
  873MOL0     C17739   0.387   8.023   1.616  0.1112 -0.6551  0.6045
  873MOL0     C17740   0.322   7.990   1.487 -0.0137 -0.3381  0.1515
  873MOL0     C17741   0.392   7.889   1.412  0.4073  0.8003  0.5355
  873MOL0     C17742   0.347   7.887   1.269  0.2113 -0.2734 -0.0594
  873MOL0     C17743   0.413   7.785   1.179  0.3409  0.0232  0.3465
  873MOL0     O17744   0.357   7.791   1.045  0.7842 -0.6289 -0.1240
  873MOL0     C17745   0.238   7.720   1.030 -0.1659  0.2584 -0.8397
  873MOL0     C17746   0.194   7.705   0.899  0.1670  0.1364  0.5800
  873MOL0     C17747   0.084   7.625   0.864 -0.1455 -0.3207  0.0261
  873MOL0     C17748   0.076   7.587   0.717  0.3558  0.2023 -0.0172
  873MOL0     C17749  -0.001   7.569   0.965  0.6957 -0.1457  0.9921
  873MOL0     C17750  -0.127   7.489   0.939  0.4507  0.9541  0.9784
  873MOL0     O17751  -0.151   7.405   1.045 -0.1143  1.4712 -0.2258
  873MOL0     C17752  -0.276   7.345   1.056 -0.6011 -0.7182  0.5239
  873MOL0     C17753  -0.345   7.381   1.173  0.0450  0.4145 -0.7493
  873MOL0     C17754  -0.470   7.326   1.194 -0.3202 -1.7438  0.1260
  873MOL0     C17755  -0.528   7.237   1.107  0.1866  0.2631  0.6977
  873MOL0     O17756  -0.658   7.192   1.134 -0.3605 -0.3348  0.0851
  873MOL0     C17757  -0.689   7.054   1.093 -0.3551  0.6881 -0.5799
  873MOL0     C17758  -0.823   6.996   1.147  0.1773 -0.4930  0.9543
  873MOL0     C17759  -0.847   7.024   1.300  0.7713  0.9433 -0.5237
  873MOL0     C17760  -0.742   6.922   1.377  0.5577  0.1120 -0.8126
  873MOL0     C17761  -0.750   6.940   1.527 -0.0445  0.6677  0.2760
  873MOL0     C17762  -0.895   6.957   1.578  0.5618  0.6579  0.0810
  873MOL0     C17763  -0.907   6.967   1.730 -0.8508  0.0349 -1.4727
  873MOL0     C17764  -1.042   7.003   1.778  0.4057  0.5071  0.3863
  873MOL0    Cl17765  -1.163   6.898   1.722 -0.0166  0.4826  0.1808
  873MOL0     C17766  -0.463   7.203   0.984 -0.2952 -0.3562  0.2115
  873MOL0     C17767  -0.331   7.249   0.968  0.0596 -0.5002 -0.6811
  873MOL0     O17768  -0.208   7.520   0.849  0.5499  0.8572  0.0938
  873MOL0     C17769   0.046   7.578   1.099 -0.0611 -1.1534 -0.5215
  873MOL0     C17770   0.166   7.657   1.135  0.0178 -0.1777  0.1736
  873MOL0     N17771   0.510   8.077   1.642  0.0564  0.4436  0.9987
  873MOL0     N17772   0.538   8.073   1.773  0.6363  0.1968 -0.1341
  873MOL0     C17773   0.773   8.322   2.840  0.1232  0.7545  0.9556
  873MOL0     C17774   0.844   8.438   2.887  1.4731  0.4478 -0.8634
  873MOL0     C17775   1.109   8.788   2.911 -0.1242 -0.9438  0.6269
  873MOL0     C17776   1.050   8.886   2.987  0.0266 -0.9848 -0.4102
  873MOL0     C17777   1.120   8.994   3.032  0.0275 -0.3142 -0.1248
  873MOL0     C17778   1.254   9.009   3.007  0.1799  0.7951 -0.6610
  873MOL0     O17779   1.309   9.118   3.055  0.1430  0.3345  0.7671
  873MOL0     C17780   1.450   9.122   3.082  0.4669 -0.0787  0.2380
  873MOL0     C17781   1.511   9.183   2.947 -0.3689 -0.7128  0.2068
  873MOL0     C17782   1.661   9.193   2.948 -0.1308 -0.7839 -0.1511
  873MOL0     C17783   1.709   9.236   2.804 -1.2550 -0.0794  0.5188
  873MOL0     C17784   1.856   9.229   2.778 -1.1163  0.5892  0.7887
  873MOL0     C17785   1.975   9.229   2.752 -0.0106  0.5748  0.3404
  873MOL0     C17786   1.325   8.906   2.951 -0.1674 -0.0755 -0.7435
  873MOL0     C17787   1.250   8.793   2.900 -0.2476 -0.9598 -0.0803
  873MOL0     H17788   0.771   8.665   2.651  0.9815  0.5206  0.5607
  873MOL0     H17789   0.665   8.477   2.552  0.2451 -0.0854  0.1007
  873MOL0     H17790   0.726   8.260   2.478 -0.5470  0.3069 -1.1653
  873MOL0     H17791   0.657   8.104   2.464  3.3632  2.0677 -2.7029
  873MOL0     H17792   0.445   8.161   2.459  1.0271  0.6041 -2.0307
  873MOL0     H17793   0.472   8.333   2.512  3.3737  0.7165  1.4233
  873MOL0     H17794   0.572   8.386   2.288 -3.6536  1.8067 -3.8774
  873MOL0     H17795   0.570   8.206   2.266  2.9209 -0.0537  4.6944
  873MOL0     H17796   0.325   8.226   2.254  0.9300 -1.1861 -2.9447
  873MOL0     H17797   0.350   8.406   2.259  0.0387  0.4011 -2.3944
  873MOL0     H17798   0.430   8.400   2.025 -0.2194 -0.0858 -2.1945
  873MOL0     H17799   0.506   8.246   2.065  0.6693  2.1142  1.2103
  873MOL0     H17800   0.207   8.269   2.038  0.1482 -1.2599  0.2441
  873MOL0     H17801   0.312   8.240   1.896  0.6984  0.1525 -0.4865
  873MOL0     H17802   0.319   8.045   2.138  1.1486  1.3678 -0.2478
  873MOL0     H17803   0.199   8.049   2.001  0.0483  1.8264  0.4167
  873MOL0     H17804   0.389   7.881   1.981 -1.7082  0.6870  1.5650
  873MOL0     H17805   0.503   8.008   2.020 -0.7213 -2.1213  0.9869
  873MOL0     H17806   0.247   7.934   1.749  0.6898 -1.1112 -0.5896
  873MOL0     H17807   0.213   7.984   1.493 -0.3918  2.5959 -1.6166
  873MOL0     H17808   0.321   8.085   1.432 -2.6259 -0.4580 -0.1238
  873MOL0     H17809   0.371   7.797   1.467  0.5914  1.4055  1.6657
  873MOL0     H17810   0.500   7.906   1.414  0.4025  0.8666  0.2502
  873MOL0     H17811   0.357   7.985   1.221  0.3463 -0.1255  0.2629
  873MOL0     H17812   0.238   7.872   1.271 -0.4257  3.3609 -0.4126
  873MOL0     H17813   0.409   7.684   1.219  0.8834 -0.4569 -0.7825
  873MOL0     H17814   0.520   7.808   1.183  1.3289 -4.0338  3.4631
  873MOL0     H17815   0.253   7.757   0.825  1.8488 -0.7388  1.2639
  873MOL0     H17816   0.165   7.590   0.653  1.1478 -0.9612  1.0014
  873MOL0     H17817   0.043   7.483   0.717 -0.9168  0.5645 -1.5861
  873MOL0     H17818  -0.012   7.637   0.676 -2.5066 -2.4233  2.4630
  873MOL0     H17819  -0.299   7.451   1.242  1.2798 -0.1816 -0.9406
  873MOL0     H17820  -0.535   7.361   1.273 -1.9464  2.1224 -2.6072
  873MOL0     H17821  -0.684   7.038   0.985  0.5503 -3.9203 -0.1001
  873MOL0     H17822  -0.604   6.997   1.133 -1.0238 -0.2200 -0.4008
  873MOL0     H17823  -0.910   7.035   1.095 -0.5047 -1.8092  1.0828
  873MOL0     H17824  -0.829   6.890   1.121 -0.0246 -0.1942 -0.2581
  873MOL0     H17825  -0.945   6.980   1.321  0.8878  0.4412 -0.9944
  873MOL0     H17826  -0.858   7.130   1.323 -0.6285  1.0362 -1.4817
  873MOL0     H17827  -0.763   6.815   1.367  1.1521 -0.1903  0.8924
  873MOL0     H17828  -0.639   6.924   1.341  0.7571 -1.5579 -0.4370
  873MOL0     H17829  -0.703   7.038   1.541 -2.5121  1.6710  2.2252
  873MOL0     H17830  -0.695   6.867   1.588  0.3954 -1.1953 -2.2147
  873MOL0     H17831  -0.945   7.044   1.534  0.8750  0.3568 -0.9009
  873MOL0     H17832  -0.950   6.868   1.546  1.0467 -0.6059  2.4950
  873MOL0     H17833  -0.847   7.056   1.753 -0.7431 -0.3456 -0.2251
  873MOL0     H17834  -0.868   6.885   1.791  0.5181  3.3815  2.6649
  873MOL0     H17835  -1.064   7.106   1.748  3.7250  1.4204  0.7091
  873MOL0     H17836  -1.051   7.004   1.887 -2.3497  2.1351  0.2299
  873MOL0     H17837  -0.516   7.134   0.919 -1.5242 -1.3187  2.1176
  873MOL0     H17838  -0.280   7.235   0.873  0.1525 -1.8699 -0.4402
  873MOL0     H17839  -0.013   7.535   1.179 -2.8629  0.4759 -1.5717
  873MOL0     H17840   0.193   7.671   1.239 -1.9810 -2.3401  1.0704
  873MOL0     H17841   0.770   8.235   2.906 -1.8485 -0.0525 -0.1295
  873MOL0     H17842   0.911   8.420   2.970  0.1806  0.4977  0.2339
  873MOL0     H17843   0.942   8.899   2.988 -0.1501 -1.8899 -2.4212
  873MOL0     H17844   1.062   9.072   3.081 -0.5905  0.1930 -1.6152
  873MOL0     H17845   1.467   9.200   3.157  1.8833  1.5842 -1.7162
  873MOL0     H17846   1.491   9.030   3.125  1.5952 -0.7011 -2.0260
  873MOL0     H17847   1.459   9.276   2.927 -1.9823 -0.7779  3.3952
  873MOL0     H17848   1.471   9.126   2.863 -2.7810  0.8227  0.2315
  873MOL0     H17849   1.699   9.096   2.982  0.7847 -1.1779 -2.1289
  873MOL0     H17850   1.706   9.263   3.018  1.8800 -0.2810 -1.8311
  873MOL0     H17851   1.671   9.337   2.782  0.2310  0.5272  0.6718
  873MOL0     H17852   1.673   9.157   2.738  0.4919  1.6485 -2.7007
  873MOL0     H17853   2.080   9.241   2.731  1.0224  1.0876  4.8293
  873MOL0     H17854   1.433   8.904   2.943 -0.0366  0.2242  0.6357
  873MOL0     H17855   1.311   8.712   2.860  0.6860  0.3374 -1.3600
  874MOL0     O17856   1.645   1.465   0.833 -0.5267  0.3995 -1.1352
  874MOL0     C17857   1.596   1.439   0.947 -0.9787 -1.5521 -0.3679
  874MOL0     O17858   1.603   1.329   1.018  0.8798 -1.0505 -0.0442
  874MOL0     C17859   1.669   1.223   0.966  0.4249  0.0014  1.1600
  874MOL0     C17860   1.808   1.220   0.998 -0.7966 -0.0393 -0.6393
  874MOL0     C17861   1.887   1.121   0.937 -0.5665  0.5019 -0.2127
  874MOL0     C17862   1.832   1.028   0.839 -0.1046 -1.1777  0.3315
  874MOL0     O17863   1.909   0.938   0.768  0.7256  0.3663 -0.4084
  874MOL0     C17864   1.992   0.866   0.863  0.5834 -0.4137 -0.0003
  874MOL0     C17865   2.039   0.731   0.805 -0.1365  0.3465 -0.8858
  874MOL0     C17866   2.122   0.744   0.680 -0.2275 -0.8076  0.3548
  874MOL0     C17867   2.200   0.612   0.640  0.1486 -0.7845 -0.1356
  874MOL0     C17868   2.096   0.503   0.588  0.0032  1.4478 -0.1447
  874MOL0     C17869   2.159   0.371   0.548  0.3957  0.7301  0.1278
  874MOL0     C17870   2.286   0.387   0.456  0.2395 -0.8619  0.8086
  874MOL0     C17871   2.261   0.441   0.312  0.2514 -0.4260 -0.2483
  874MOL0     N17872   2.264   0.591   0.303  0.6820  0.3528 -0.6648
  874MOL0     C17873   2.373   0.672   0.296 -0.0555 -0.1682 -0.1918
  874MOL0     C17874   2.327   0.786   0.237  0.2959  0.6689 -0.6371
  874MOL0     C17875   2.380   0.922   0.208  0.5607 -0.9526  0.3096
  874MOL0     C17876   2.308   1.011   0.313  1.2221  1.1143  0.7863
  874MOL0     C17877   2.379   1.017   0.457 -0.5748 -0.1064 -0.5002
  874MOL0     C17878   2.297   1.090   0.561  0.5016  0.1927  0.9647
  874MOL0     O17879   2.388   1.120   0.670  0.1931  0.7671  0.5777
  874MOL0     C17880   2.334   1.138   0.796 -0.6614  0.1228 -1.3301
  874MOL0     C17881   2.255   1.252   0.818 -0.2643 -0.2682  0.4060
  874MOL0     C17882   2.210   1.290   0.941 -0.2256 -0.9023 -0.9382
  874MOL0     C17883   2.157   1.434   0.966 -0.8801 -0.3303  0.7071
  874MOL0     C17884   2.233   1.200   1.047 -0.4886  0.1866 -0.2458
  874MOL0     C17885   2.191   1.232   1.189  0.0543 -0.1664 -0.4029
  874MOL0     O17886   2.276   1.199   1.291  0.2341  0.7014 -0.3373
  874MOL0     C17887   2.215   1.214   1.416 -0.3811  0.0224  0.2312
  874MOL0     C17888   2.109   1.141   1.460  0.2034 -0.1912  0.1738
  874MOL0     C17889   2.054   1.168   1.583 -0.2977  0.0943 -0.2127
  874MOL0     C17890   2.110   1.258   1.671  0.4182 -1.0758  0.3006
  874MOL0     O17891   2.066   1.291   1.801 -0.4418  0.0736 -0.0987
  874MOL0     C17892   1.941   1.264   1.854  0.1644 -0.3866  0.3119
  874MOL0     C17893   1.897   1.361   1.968  0.4011  0.4241  0.0699
  874MOL0     C17894   1.989   1.329   2.097  0.2363  0.4448  0.4339
  874MOL0     C17895   1.928   1.231   2.192  0.2729 -0.0476 -0.9163
  874MOL0     C17896   2.016   1.131   2.254 -0.0072  0.2176 -0.9132
  874MOL0     C17897   1.955   1.002   2.299  0.0775  0.0178  0.0701
  874MOL0     C17898   2.039   0.913   2.379 -0.7127 -0.5183  0.5553
  874MOL0     C17899   2.174   0.863   2.321  0.9784 -0.2501 -0.6454
  874MOL0    Cl17900   2.154   0.793   2.156 -0.1810 -0.1726 -0.4017
  874MOL0     C17901   2.217   1.338   1.626 -0.3400  0.1991 -0.6172
  874MOL0     C17902   2.269   1.318   1.500  0.4460  0.3629  0.2505
  874MOL0     O17903   2.078   1.276   1.198  0.4742 -0.2765  0.6576
  874MOL0     C17904   2.297   1.082   1.026 -0.1284  0.4486 -0.8730
  874MOL0     C17905   2.358   1.049   0.908 -1.3275  0.8155  0.0920
  874MOL0     N17906   2.195   0.765   0.201  0.2161  0.0001  0.6794
  874MOL0     N17907   2.158   0.651   0.249  0.0956 -0.4220 -0.6286
  874MOL0     C17908   1.696   1.034   0.817  0.4057  0.2416 -0.2497
  874MOL0     C17909   1.618   1.122   0.880  0.6822 -0.6557 -0.8662
  874MOL0     C17910   1.514   1.545   1.005 -0.0023  0.1384 -0.3456
  874MOL0     C17911   1.448   1.638   0.922 -0.4326  0.7271  0.1564
  874MOL0     C17912   1.374   1.746   0.981 -0.1191  0.0341 -0.0677
  874MOL0     C17913   1.365   1.770   1.115  0.0409 -0.1092  0.4398
  874MOL0     O17914   1.283   1.874   1.159  1.1564 -0.4150 -0.1077
  874MOL0     C17915   1.225   1.872   1.289 -0.5161 -0.9735  0.0948
  874MOL0     C17916   1.101   1.784   1.284 -0.3320  0.1256 -0.2218
  874MOL0     C17917   1.053   1.774   1.427 -0.1878 -0.0437  0.1358
  874MOL0     C17918   0.922   1.684   1.429  0.3939 -0.7525 -0.1185
  874MOL0     C17919   0.810   1.750   1.362 -0.4341 -1.0240 -0.7918
  874MOL0     C17920   0.732   1.804   1.298  0.5358 -0.0756  0.6834
  874MOL0     C17921   1.414   1.668   1.194 -0.9595 -0.3700 -0.1707
  874MOL0     C17922   1.485   1.556   1.140 -0.7369 -0.2007 -0.5377
  874MOL0     H17923   1.864   1.294   1.054  0.6526 -2.1603  0.8410
  874MOL0     H17924   1.994   1.134   0.951  0.3288 -4.0761 -1.1122
  874MOL0     H17925   2.069   0.940   0.884 -0.8749  0.7712  1.3767
  874MOL0     H17926   1.933   0.833   0.949  0.1645 -0.7988 -0.4223
  874MOL0     H17927   2.076   0.668   0.886  2.5487 -0.2542 -2.4836
  874MOL0     H17928   1.950   0.674   0.776  1.2427 -0.6310 -3.5322
  874MOL0     H17929   2.073   0.762   0.584  1.1723  2.7746  0.1251
  874MOL0     H17930   2.201   0.819   0.689  0.8519 -1.8453 -0.1890
  874MOL0     H17931   2.271   0.640   0.562  0.6386 -1.1988  0.1606
  874MOL0     H17932   2.259   0.567   0.720 -0.5850 -0.9460  0.3187
  874MOL0     H17933   2.015   0.485   0.660 -0.0006 -0.7442 -0.6201
  874MOL0     H17934   2.059   0.550   0.497 -0.6259 -1.9728 -1.8111
  874MOL0     H17935   2.207   0.321   0.632  3.7479  2.0003 -0.8981
  874MOL0     H17936   2.086   0.307   0.496 -2.0607  2.0712  1.7276
  874MOL0     H17937   2.366   0.444   0.504 -0.6489  0.8269  0.3441
  874MOL0     H17938   2.318   0.282   0.450 -1.6900 -1.4611  0.1820
  874MOL0     H17939   2.167   0.404   0.269  1.0807 -2.2413 -0.5754
  874MOL0     H17940   2.346   0.404   0.255  2.0652  1.5800  1.0118
  874MOL0     H17941   2.466   0.655   0.348  0.3076  3.0019  0.3520
  874MOL0     H17942   2.488   0.932   0.223  0.3669  2.5363  0.1260
  874MOL0     H17943   2.354   0.949   0.105 -1.9925  1.7476  1.5089
  874MOL0     H17944   2.203   0.988   0.328  1.1447  1.0622  0.1807
  874MOL0     H17945   2.295   1.112   0.273 -2.2963  1.0544  1.5028
  874MOL0     H17946   2.470   1.073   0.435 -1.6637  2.1494  0.4473
  874MOL0     H17947   2.393   0.919   0.503 -0.0776  0.9141  1.5966
  874MOL0     H17948   2.210   1.031   0.588 -0.2025  0.9212  0.3430
  874MOL0     H17949   2.262   1.189   0.530  0.4433  0.6411  2.3890
  874MOL0     H17950   2.246   1.319   0.733 -0.6743 -0.3524  0.3766
  874MOL0     H17951   2.209   1.502   0.897 -0.6492 -1.3384 -0.1400
  874MOL0     H17952   2.051   1.437   0.939 -0.8772 -1.2122  0.5532
  874MOL0     H17953   2.180   1.463   1.069 -0.1051 -2.2966  1.1448
  874MOL0     H17954   2.057   1.066   1.400  0.4031 -1.7761  1.9071
  874MOL0     H17955   1.963   1.112   1.607 -0.7341  2.0870  3.4558
  874MOL0     H17956   1.856   1.273   1.785  0.1510  1.8094  0.5317
  874MOL0     H17957   1.933   1.159   1.883  1.8949 -0.4924  0.4902
  874MOL0     H17958   1.918   1.462   1.933 -2.4820  0.4279 -2.0626
  874MOL0     H17959   1.789   1.362   1.991  1.1253  1.2677  4.3405
  874MOL0     H17960   2.016   1.424   2.146  0.8111  0.7473 -0.4524
  874MOL0     H17961   2.083   1.294   2.054  0.2508 -1.1558  1.6670
  874MOL0     H17962   1.881   1.293   2.269  3.1261 -2.6147  3.3759
  874MOL0     H17963   1.839   1.190   2.143 -1.7281  0.2814  2.1569
  874MOL0     H17964   2.057   1.176   2.345  2.8006 -1.9100 -0.9891
  874MOL0     H17965   2.099   1.106   2.187  0.4958  2.4011 -1.1830
  874MOL0     H17966   1.880   1.025   2.376  1.3939 -0.0881  1.4344
  874MOL0     H17967   1.909   0.947   2.217  0.6344 -1.7241  0.8792
  874MOL0     H17968   1.976   0.826   2.399  0.9736 -2.1139 -0.6924
  874MOL0     H17969   2.063   0.960   2.475 -0.8955 -3.1085  1.9407
  874MOL0     H17970   2.213   0.784   2.386  2.1565  0.8772  0.0433
  874MOL0     H17971   2.247   0.944   2.320  1.2339 -0.2719  2.8867
  874MOL0     H17972   2.259   1.407   1.699  1.1971 -1.3054 -0.0109
  874MOL0     H17973   2.336   1.387   1.450  1.0353  1.2707  2.1672
  874MOL0     H17974   2.304   1.010   1.107 -1.8072  0.5000 -0.6542
  874MOL0     H17975   2.422   0.964   0.890 -1.8445  0.8897 -2.4790
  874MOL0     H17976   1.657   0.956   0.752  3.2047 -3.1945  1.7927
  874MOL0     H17977   1.511   1.122   0.864  0.2863 -1.4178  1.4755
  874MOL0     H17978   1.452   1.644   0.813 -2.5870  1.1719  0.0541
  874MOL0     H17979   1.328   1.814   0.910  1.3542  3.0365  1.6588
  874MOL0     H17980   1.307   1.844   1.356  2.0311  1.2721 -1.8755
  874MOL0     H17981   1.189   1.974   1.298 -0.5179 -0.8316 -1.3508
  874MOL0     H17982   1.128   1.682   1.256 -2.4929 -0.6325  0.2811
  874MOL0     H17983   1.029   1.832   1.218 -2.2704  0.6099  2.0796
  874MOL0     H17984   1.047   1.876   1.465  7.2171  0.4428  1.4137
  874MOL0     H17985   1.131   1.726   1.486 -0.5249  0.1612  0.7503
  874MOL0     H17986   0.891   1.684   1.534  3.7933 -0.0788  0.9960
  874MOL0     H17987   0.948   1.590   1.382  1.7848 -1.0315  1.1512
  874MOL0     H17988   0.655   1.851   1.240 -0.0180 -1.8058 -0.0413
  874MOL0     H17989   1.410   1.678   1.302  1.2275  2.7756 -0.2463
  874MOL0     H17990   1.531   1.487   1.211 -1.0769  1.0603  0.9618
  875MOL0     O17991   7.920   4.768   4.410  0.2401 -0.3550 -0.1994
  875MOL0     C17992   7.817   4.720   4.368 -0.0040  0.1635  0.0980
  875MOL0     O17993   7.695   4.783   4.345  0.6626 -0.6585  0.2529
  875MOL0     C17994   7.678   4.909   4.390 -0.1870 -0.1059  0.6065
  875MOL0     C17995   7.698   4.948   4.523  0.4166  0.3906 -0.1688
  875MOL0     C17996   7.658   5.073   4.567 -0.3321 -0.0656  0.3443
  875MOL0     C17997   7.602   5.167   4.483  0.2922  0.2229 -0.5983
  875MOL0     O17998   7.551   5.298   4.503  0.1374 -0.0383  0.1140
  875MOL0     C17999   7.596   5.375   4.620 -1.1683  0.3661  0.0827
  875MOL0     C18000   7.592   5.523   4.593 -0.0147 -1.1039  0.5377
  875MOL0     C18001   7.452   5.586   4.583 -0.6482 -0.0359  0.1465
  875MOL0     C18002   7.447   5.734   4.553  0.0103  0.0392 -0.2659
  875MOL0     C18003   7.305   5.780   4.517  0.1560  0.3291  0.1322
  875MOL0     C18004   7.301   5.924   4.462  0.9062  0.1793  0.6821
  875MOL0     C18005   7.160   5.994   4.491 -0.5396  1.2269 -0.7610
  875MOL0     C18006   7.066   5.943   4.392 -0.8891  1.3254 -0.4614
  875MOL0     N18007   6.998   5.816   4.425 -0.3593  0.9801 -0.7165
  875MOL0     C18008   6.990   5.700   4.349  0.8186  0.4933  0.8183
  875MOL0     C18009   6.939   5.604   4.429 -0.1241  0.8716 -0.0019
  875MOL0     C18010   6.891   5.463   4.401  0.1413  1.4385  0.1405
  875MOL0     C18011   6.999   5.352   4.395  0.0856 -1.1737 -0.4437
  875MOL0     C18012   7.088   5.362   4.517  0.9232  0.0850 -0.0397
  875MOL0     C18013   7.154   5.229   4.535 -0.5525  0.3363 -0.5593
  875MOL0     O18014   7.213   5.178   4.416  0.0173  0.5865 -0.6248
  875MOL0     C18015   7.262   5.047   4.422  0.1463 -0.1952 -0.8003
  875MOL0     C18016   7.288   4.983   4.545  0.2969  0.0281  0.4624
  875MOL0     C18017   7.321   4.851   4.557  0.4327  0.5865 -0.8152
  875MOL0     C18018   7.364   4.803   4.697  1.1966 -0.4666  0.4012
  875MOL0     C18019   7.323   4.768   4.438  0.0522  0.8792  0.3978
  875MOL0     C18020   7.368   4.619   4.432  0.0245 -0.4948  0.4246
  875MOL0     O18021   7.376   4.551   4.543 -0.6304  0.2665 -0.1587
  875MOL0     C18022   7.443   4.427   4.549  0.2081 -0.6235 -0.4850
  875MOL0     C18023   7.380   4.305   4.527 -0.1358 -0.5212 -0.1679
  875MOL0     C18024   7.443   4.180   4.561 -0.3307 -1.0389  0.2205
  875MOL0     C18025   7.566   4.186   4.630  0.7246 -0.8934  0.9050
  875MOL0     O18026   7.631   4.065   4.656 -0.1293 -0.2498  0.0965
  875MOL0     C18027   7.579   3.974   4.753  0.0132 -0.1272 -0.1474
  875MOL0     C18028   7.631   4.018   4.889  0.0501  0.5646  0.1102
  875MOL0     C18029   7.786   3.999   4.904  0.4012 -0.5492 -0.6083
  875MOL0     C18030   7.842   3.861   4.871  1.0978  0.6676  1.1462
  875MOL0     C18031   7.978   3.828   4.943 -0.3366 -0.6104  0.5552
  875MOL0     C18032   8.054   3.693   4.899  0.1419 -0.6082  0.1393
  875MOL0     C18033   8.160   3.640   5.000  0.4076 -0.4442 -0.4425
  875MOL0     C18034   8.286   3.721   4.996 -1.1632 -0.1604  1.2537
  875MOL0    Cl18035   8.393   3.667   5.135 -0.0990  0.2715 -0.1766
  875MOL0     C18036   7.626   4.307   4.651 -0.3376  0.6625 -0.2382
  875MOL0     C18037   7.574   4.420   4.601  0.1336 -0.4601 -0.7026
  875MOL0     O18038   7.378   4.571   4.321  0.6079  1.1045  0.7420
  875MOL0     C18039   7.310   4.833   4.314 -0.1461 -0.6231 -0.2943
  875MOL0     C18040   7.276   4.971   4.303 -0.1149 -0.2085 -0.4993
  875MOL0     N18041   6.891   5.676   4.534  0.6596  0.6618  0.1149
  875MOL0     N18042   6.929   5.802   4.542 -1.0667 -0.1504 -0.2668
  875MOL0     C18043   7.581   5.123   4.349  0.5648  0.3390 -0.0384
  875MOL0     C18044   7.627   4.997   4.299 -0.4542  0.0277 -0.2070
  875MOL0     C18045   7.830   4.572   4.342  0.2688 -0.5307 -0.2233
  875MOL0     C18046   7.716   4.496   4.318 -0.9357 -0.0158  0.1052
  875MOL0     C18047   7.728   4.360   4.306 -0.1197  0.3858 -0.4152
  875MOL0     C18048   7.861   4.297   4.319  0.0664 -0.1233 -0.6642
  875MOL0     O18049   7.876   4.162   4.293  0.7052  0.1382  0.4911
  875MOL0     C18050   7.788   4.087   4.201 -0.6380  0.0277 -0.5015
  875MOL0     C18051   7.672   4.028   4.268  0.4746  0.6935  0.2480
  875MOL0     C18052   7.706   3.905   4.352  0.6905  0.6724  0.4801
  875MOL0     C18053   7.589   3.829   4.422 -0.5338  0.0839  0.7857
  875MOL0     C18054   7.502   3.745   4.342  0.1139 -0.0848  0.6309
  875MOL0     C18055   7.411   3.679   4.308  0.3268  0.4826 -0.2286
  875MOL0     C18056   7.979   4.367   4.352  0.7078  0.5065  0.9779
  875MOL0     C18057   7.956   4.502   4.358 -0.4651  0.9544  1.3379
  875MOL0     H18058   7.748   4.888   4.598  1.2061  0.7088 -0.4323
  875MOL0     H18059   7.678   5.100   4.670 -0.7734 -2.5113  1.1282
  875MOL0     H18060   7.548   5.349   4.715  0.9767  1.5490  1.5909
  875MOL0     H18061   7.703   5.353   4.635 -0.9461 -2.2232 -3.8448
  875MOL0     H18062   7.635   5.580   4.676 -3.4926  1.7945  0.6395
  875MOL0     H18063   7.634   5.552   4.496 -0.4993  4.4252  1.6532
  875MOL0     H18064   7.413   5.535   4.494  1.8795 -1.2777 -0.3447
  875MOL0     H18065   7.396   5.561   4.674 -0.6309 -0.0707  0.1477
  875MOL0     H18066   7.493   5.784   4.639 -2.3944 -3.0585  3.1129
  875MOL0     H18067   7.507   5.740   4.462  0.8130 -2.2893  0.0483
  875MOL0     H18068   7.270   5.707   4.443 -2.1760 -0.2056  1.6810
  875MOL0     H18069   7.237   5.770   4.601 -1.9044 -1.0219 -1.5817
  875MOL0     H18070   7.381   5.993   4.492  1.3252  1.5123 -3.0059
  875MOL0     H18071   7.318   5.912   4.355 -0.7214  1.2666  0.2695
  875MOL0     H18072   7.116   5.979   4.590 -3.2646 -2.4763 -2.3041
  875MOL0     H18073   7.181   6.101   4.487  0.0409  1.1023 -1.2200
  875MOL0     H18074   7.120   5.925   4.298  1.1101 -3.6995  1.3078
  875MOL0     H18075   6.994   6.024   4.378  0.6382  2.8887  0.3927
  875MOL0     H18076   7.014   5.674   4.247 -4.4714 -0.1028 -0.5851
  875MOL0     H18077   6.814   5.433   4.473 -1.4084  2.1016 -1.1707
  875MOL0     H18078   6.847   5.453   4.301 -1.2129 -0.2635  0.8461
  875MOL0     H18079   7.060   5.358   4.305  0.0728  2.4437 -0.3438
  875MOL0     H18080   6.952   5.253   4.389  2.2400 -2.5807  2.9051
  875MOL0     H18081   7.029   5.379   4.608 -1.0346 -0.7511 -1.0888
  875MOL0     H18082   7.156   5.447   4.503 -0.7345  1.3988 -0.4021
  875MOL0     H18083   7.082   5.158   4.577  1.2776 -1.8786 -0.9333
  875MOL0     H18084   7.223   5.228   4.619 -2.9037 -1.1272  1.5091
  875MOL0     H18085   7.287   5.033   4.641 -3.3211  3.0496 -0.8756
  875MOL0     H18086   7.293   4.728   4.733  2.1028 -0.1250  3.0836
  875MOL0     H18087   7.460   4.757   4.669  0.4434  0.0917 -3.8052
  875MOL0     H18088   7.380   4.888   4.764  0.3461  0.7876 -0.9203
  875MOL0     H18089   7.285   4.316   4.476  0.7216 -0.1420 -1.7688
  875MOL0     H18090   7.392   4.093   4.521  0.2698 -0.8278 -1.0406
  875MOL0     H18091   7.469   3.973   4.758 -0.0136  1.4014  0.0488
  875MOL0     H18092   7.612   3.870   4.747 -1.3141 -0.6481  0.8716
  875MOL0     H18093   7.593   4.119   4.903 -1.9928 -0.0164 -0.8563
  875MOL0     H18094   7.598   3.951   4.969  1.6156 -2.1241 -1.3353
  875MOL0     H18095   7.812   4.018   5.008 -1.3461 -3.3046  0.4404
  875MOL0     H18096   7.837   4.075   4.843 -1.3279  0.8134 -0.4200
  875MOL0     H18097   7.784   3.768   4.881  0.9794  0.6545  0.3997
  875MOL0     H18098   7.854   3.857   4.763 -1.1272  1.3454  0.8309
  875MOL0     H18099   7.963   3.835   5.051 -2.7489 -2.3495  0.4395
  875MOL0     H18100   8.054   3.905   4.932  1.4451 -2.3739 -0.0052
  875MOL0     H18101   7.977   3.617   4.889  1.9099 -2.4930  0.1351
  875MOL0     H18102   8.108   3.708   4.806  1.0183 -0.0218  0.7214
  875MOL0     H18103   8.185   3.535   4.986  2.2741 -0.0343 -0.4372
  875MOL0     H18104   8.117   3.660   5.099  2.0005  0.8111  0.0445
  875MOL0     H18105   8.258   3.824   5.018 -2.4913 -0.5592  1.5569
  875MOL0     H18106   8.341   3.709   4.902 -0.7448 -1.3948  1.6282
  875MOL0     H18107   7.727   4.315   4.692  1.4535  4.8444 -4.6310
  875MOL0     H18108   7.646   4.500   4.613 -1.6918  1.1875 -0.2146
  875MOL0     H18109   7.314   4.780   4.220 -0.4206  2.9427 -2.5199
  875MOL0     H18110   7.249   5.018   4.209 -0.7861  5.3937  2.0867
  875MOL0     H18111   7.546   5.189   4.271  1.9164 -0.1829 -1.1211
  875MOL0     H18112   7.603   4.969   4.197 -4.7535 -0.7688  0.8310
  875MOL0     H18113   7.615   4.536   4.323  0.0216  2.6089  0.2188
  875MOL0     H18114   7.643   4.296   4.287 -0.1307  1.0416 -2.9362
  875MOL0     H18115   7.750   4.155   4.124  2.6241 -1.5512 -3.8624
  875MOL0     H18116   7.838   4.011   4.141  0.9522  0.2183  0.5309
  875MOL0     H18117   7.604   3.984   4.194  1.7513 -1.2426  0.1607
  875MOL0     H18118   7.628   4.104   4.333 -2.0662 -0.3277 -0.1583
  875MOL0     H18119   7.757   3.939   4.442  0.4987  3.9069 -0.5330
  875MOL0     H18120   7.778   3.837   4.305  2.0921  1.5224  1.3339
  875MOL0     H18121   7.528   3.902   4.475  0.3528 -0.4221  2.5861
  875MOL0     H18122   7.654   3.774   4.491  0.1694 -0.0141  0.0559
  875MOL0     H18123   7.323   3.637   4.264 -0.1111  0.1012  0.9686
  875MOL0     H18124   8.081   4.332   4.344  0.6844  0.7934 -1.3566
  875MOL0     H18125   8.044   4.565   4.372  0.6789  0.2803 -1.8477
  876MOL0     O18126  11.151   0.571   7.798 -0.4743  0.2074 -0.1608
  876MOL0     C18127  11.089   0.671   7.827 -0.3894 -0.9447 -0.4078
  876MOL0     O18128  10.987   0.674   7.916 -0.0517  0.1755 -1.3969
  876MOL0     C18129  10.976   0.566   8.005 -0.6920 -1.4279  0.2374
  876MOL0     C18130  10.975   0.425   7.969  1.0269  0.3342 -0.6866
  876MOL0     C18131  10.940   0.333   8.078 -0.0174 -0.1158  0.3732
  876MOL0     C18132  10.932   0.375   8.212 -0.9988 -0.0168 -0.1070
  876MOL0     O18133  10.895   0.288   8.317  1.2508 -0.0177 -0.7204
  876MOL0     C18134  10.769   0.290   8.375 -0.1060 -0.6068 -1.1137
  876MOL0     C18135  10.790   0.273   8.528  0.3480 -0.2288 -0.1050
  876MOL0     C18136  10.677   0.339   8.610 -1.3425  0.3652  0.0931
  876MOL0     C18137  10.549   0.268   8.591 -0.9963  0.8173  0.7346
  876MOL0     C18138  10.435   0.356   8.636  1.1093  0.2495  1.4567
  876MOL0     C18139  10.362   0.411   8.517 -0.8562  0.6059  0.3718
  876MOL0     C18140  10.228   0.466   8.559 -0.2926 -0.3637  0.0490
  876MOL0     C18141  10.240   0.599   8.638  0.3749 -0.2625 -0.4914
  876MOL0     N18142  10.311   0.707   8.580  0.3674  0.0061  0.4581
  876MOL0     C18143  10.450   0.722   8.581 -0.9406 -0.6932  0.1785
  876MOL0     C18144  10.481   0.816   8.485  1.6686  0.2557  0.3618
  876MOL0     C18145  10.613   0.875   8.431  1.0075  0.6661  0.0463
  876MOL0     C18146  10.703   0.920   8.538 -0.4544 -0.0658 -1.0026
  876MOL0     C18147  10.648   1.040   8.633 -0.1971 -0.7619  0.2429
  876MOL0     C18148  10.611   1.166   8.547  0.0745 -0.2149 -1.0409
  876MOL0     O18149  10.731   1.223   8.483 -0.3381  0.4687  0.0816
  876MOL0     C18150  10.815   1.307   8.553 -0.3391  0.1851 -0.0878
  876MOL0     C18151  10.777   1.372   8.670  0.9212 -0.7097  0.6026
  876MOL0     C18152  10.868   1.465   8.729  1.1626 -0.3545  0.3291
  876MOL0     C18153  10.821   1.530   8.855 -0.1588  0.1244  0.2574
  876MOL0     C18154  11.000   1.485   8.678  0.3626 -0.3711  0.1541
  876MOL0     C18155  11.109   1.568   8.746  0.3740  1.2162  1.4211
  876MOL0     O18156  11.222   1.584   8.662  0.6631  0.5455  0.4777
  876MOL0     C18157  11.310   1.683   8.681  0.5859 -0.8101 -0.3316
  876MOL0     C18158  11.389   1.699   8.796  1.1596 -0.0903  0.2327
  876MOL0     C18159  11.468   1.808   8.819 -0.2493  0.3223  0.6932
  876MOL0     C18160  11.489   1.903   8.713 -0.2365  0.6572  0.2982
  876MOL0     O18161  11.580   2.011   8.717 -0.6259 -0.1809  0.5620
  876MOL0     C18162  11.636   2.047   8.844 -0.4882  0.5914 -1.3598
  876MOL0     C18163  11.723   2.173   8.844  0.3306 -0.4715 -0.0105
  876MOL0     C18164  11.857   2.136   8.776  0.2121 -0.0691  0.7545
  876MOL0     C18165  11.943   2.263   8.761 -0.2604  0.2217  0.5558
  876MOL0     C18166  12.084   2.228   8.716 -1.1948 -0.1660  0.1634
  876MOL0     C18167  12.169   2.351   8.717  0.6562 -0.1978 -0.0457
  876MOL0     C18168  12.317   2.326   8.676 -0.0486  0.7052 -0.1542
  876MOL0     C18169  12.394   2.457   8.636  0.5508  0.4074 -0.8825
  876MOL0    Cl18170  12.315   2.529   8.484 -0.2533  0.4599  0.2232
  876MOL0     C18171  11.418   1.883   8.592 -0.5529 -0.1143  0.0798
  876MOL0     C18172  11.327   1.778   8.579 -0.6285  0.8207  0.4523
  876MOL0     O18173  11.090   1.609   8.858 -0.1455 -0.4021 -0.1186
  876MOL0     C18174  11.023   1.437   8.552  0.6724 -0.5229 -0.0650
  876MOL0     C18175  10.931   1.346   8.497 -0.5441 -1.1028  0.9461
  876MOL0     N18176  10.358   0.860   8.428 -0.0043  0.3322  0.2885
  876MOL0     N18177  10.263   0.792   8.489 -0.3947  0.1178  0.4875
  876MOL0     C18178  10.934   0.510   8.237  0.0072 -0.2168 -0.4086
  876MOL0     C18179  10.947   0.602   8.138 -0.6430  0.0160 -0.2416
  876MOL0     C18180  11.109   0.787   7.741  1.0343 -0.6753 -0.2649
  876MOL0     C18181  11.231   0.817   7.683 -0.8175 -0.8814 -0.1559
  876MOL0     C18182  11.239   0.903   7.571 -1.2169  0.1281 -0.7764
  876MOL0     C18183  11.131   0.984   7.529 -0.2489  0.4971 -0.2827
  876MOL0     O18184  11.135   1.073   7.431  0.2240 -0.2022 -0.2033
  876MOL0     C18185  11.250   1.086   7.350  0.2497 -0.1490  0.1857
  876MOL0     C18186  11.216   1.192   7.247 -0.4565 -0.6294  0.2451
  876MOL0     C18187  11.203   1.335   7.309  1.0263 -0.2872  0.1031
  876MOL0     C18188  11.188   1.455   7.197 -0.3202  0.1382 -0.4066
  876MOL0     C18189  11.048   1.478   7.168  0.5596  0.6731  0.2941
  876MOL0     C18190  10.940   1.507   7.136  0.3249 -0.3331 -0.1932
  876MOL0     C18191  11.011   0.966   7.601 -1.0046 -0.2770  0.5867
  876MOL0     C18192  10.998   0.868   7.699 -0.7703  0.2625 -0.1597
  876MOL0     H18193  10.996   0.398   7.866  1.9906  1.5894 -0.8495
  876MOL0     H18194  10.934   0.227   8.054  3.4609 -0.0046 -1.6556
  876MOL0     H18195  10.712   0.383   8.359  0.7512  0.1146 -0.0659
  876MOL0     H18196  10.723   0.193   8.354  1.8274 -2.1498  1.3633
  876MOL0     H18197  10.806   0.166   8.548 -0.4240 -0.6942 -1.7575
  876MOL0     H18198  10.882   0.322   8.562  1.1892 -1.2820 -0.7697
  876MOL0     H18199  10.697   0.346   8.717 -1.2174 -0.8831  0.1662
  876MOL0     H18200  10.665   0.441   8.570 -3.0442  0.5474  0.9790
  876MOL0     H18201  10.542   0.235   8.487  2.1901 -2.6483  1.3754
  876MOL0     H18202  10.556   0.181   8.657  1.5113  0.9803  0.7693
  876MOL0     H18203  10.374   0.302   8.709 -0.2234  2.0334  1.7176
  876MOL0     H18204  10.471   0.442   8.693  0.4446  1.1497  0.5463
  876MOL0     H18205  10.418   0.483   8.457 -0.3018  0.7686  1.0653
  876MOL0     H18206  10.346   0.331   8.445  1.7452  0.4017 -0.0726
  876MOL0     H18207  10.175   0.492   8.466 -1.2661  1.2969  1.0199
  876MOL0     H18208  10.171   0.394   8.619  0.3544 -2.1327 -1.3612
  876MOL0     H18209  10.279   0.580   8.738 -2.4571 -1.8594  0.4224
  876MOL0     H18210  10.138   0.638   8.652 -0.6393 -1.6776 -3.1965
  876MOL0     H18211  10.512   0.681   8.659 -0.8435 -2.7333 -0.9110
  876MOL0     H18212  10.661   0.803   8.364  1.6432  0.2564  0.9342
  876MOL0     H18213  10.588   0.952   8.357 -0.8555  0.3080  0.2366
  876MOL0     H18214  10.792   0.959   8.488 -1.9028  1.7491 -2.2896
  876MOL0     H18215  10.730   0.822   8.579 -5.5687 -1.6471 -0.7145
  876MOL0     H18216  10.723   1.060   8.710  2.0982 -4.0055 -0.9024
  876MOL0     H18217  10.555   1.022   8.688  0.3667  1.3818  2.0662
  876MOL0     H18218  10.562   1.235   8.616 -0.9513 -2.0219  0.0967
  876MOL0     H18219  10.540   1.144   8.467  0.2092  1.1243 -1.5583
  876MOL0     H18220  10.684   1.362   8.724  0.4721  1.8291  0.4392
  876MOL0     H18221  10.713   1.520   8.865 -0.2195  1.3458  0.9957
  876MOL0     H18222  10.863   1.481   8.944 -3.7539 -2.1895  0.8832
  876MOL0     H18223  10.841   1.637   8.848 -1.5742  0.2891 -5.4301
  876MOL0     H18224  11.381   1.622   8.871 -1.0427  0.2073  0.3752
  876MOL0     H18225  11.520   1.802   8.914 -2.5623 -0.1458  2.0265
  876MOL0     H18226  11.552   2.051   8.914  1.1172  2.0422  0.5983
  876MOL0     H18227  11.692   1.960   8.879 -1.7627 -0.1795 -1.1642
  876MOL0     H18228  11.665   2.237   8.776  0.2187 -0.3372  0.2112
  876MOL0     H18229  11.745   2.203   8.947  1.9972  2.0558 -0.9920
  876MOL0     H18230  11.838   2.081   8.684  0.5470  0.6935  0.2104
  876MOL0     H18231  11.910   2.063   8.838  2.6019  0.8390 -0.0671
  876MOL0     H18232  11.908   2.337   8.688 -0.1034  0.2632  0.5222
  876MOL0     H18233  11.943   2.313   8.859  0.3365 -0.5121  0.9339
  876MOL0     H18234  12.089   2.173   8.621  0.1697  1.3315 -0.6760
  876MOL0     H18235  12.127   2.156   8.785 -2.7680 -1.8156 -0.4788
  876MOL0     H18236  12.118   2.421   8.650 -0.5413  1.0463  2.0601
  876MOL0     H18237  12.174   2.394   8.817 -1.4173  1.9652 -0.7819
  876MOL0     H18238  12.311   2.253   8.595 -2.4593 -1.0766  1.4802
  876MOL0     H18239  12.378   2.278   8.754  4.0718  3.3667 -1.4125
  876MOL0     H18240  12.499   2.439   8.611  0.9460 -1.1116  1.5534
  876MOL0     H18241  12.391   2.526   8.721 -0.9982 -1.6215  0.8073
  876MOL0     H18242  11.413   1.952   8.509  2.9303  1.9877  1.3973
  876MOL0     H18243  11.262   1.768   8.492 -0.3935  3.7319 -0.1636
  876MOL0     H18244  11.108   1.460   8.489  0.3322 -0.9894 -0.7088
  876MOL0     H18245  10.951   1.311   8.396 -0.3764  1.1666  0.1305
  876MOL0     H18246  10.937   0.555   8.335  0.8704  0.8779 -0.9130
  876MOL0     H18247  10.925   0.703   8.172  0.6248  0.2273 -0.0208
  876MOL0     H18248  11.310   0.749   7.713 -2.1423 -1.7823  1.5162
  876MOL0     H18249  11.327   0.895   7.508 -0.9965  3.3517 -1.0718
  876MOL0     H18250  11.338   1.124   7.403  0.6058 -0.4004 -0.2262
  876MOL0     H18251  11.255   0.988   7.302  3.7462  0.7104 -1.5393
  876MOL0     H18252  11.113   1.175   7.216 -1.3040 -1.1346  3.0216
  876MOL0     H18253  11.286   1.195   7.163 -2.9168  1.0867 -1.9050
  876MOL0     H18254  11.283   1.367   7.377 -0.6614  2.8778  0.8341
  876MOL0     H18255  11.107   1.338   7.363 -1.1771  0.1578 -3.4938
  876MOL0     H18256  11.228   1.442   7.096 -0.9343  0.9254 -0.7670
  876MOL0     H18257  11.232   1.547   7.236 -0.6492 -0.2274  0.8829
  876MOL0     H18258  10.841   1.529   7.102 -0.7726  1.6110  3.7469
  876MOL0     H18259  10.917   1.012   7.572 -1.5509 -2.7586 -2.1712
  876MOL0     H18260  10.896   0.857   7.734 -0.7365  1.3556  0.3237
  877MOL0     O18261   9.041   2.900   1.952  0.2865  0.8162 -0.1238
  877MOL0     C18262   8.958   2.955   2.022  0.7439  0.2325 -0.3942
  877MOL0     O18263   8.823   2.915   2.034 -0.7548 -0.3308  0.4125
  877MOL0     C18264   8.761   2.826   1.945  0.2265  0.8074  1.1624
  877MOL0     C18265   8.757   2.858   1.801  0.0832 -0.6857 -0.2913
  877MOL0     C18266   8.720   2.758   1.710  0.5661 -0.1828 -0.3044
  877MOL0     C18267   8.673   2.635   1.761  0.6640  1.0577 -0.0901
  877MOL0     O18268   8.619   2.538   1.681  0.3937  0.3029 -1.1389
  877MOL0     C18269   8.621   2.540   1.540  0.0018 -0.8866  0.1749
  877MOL0     C18270   8.651   2.402   1.488 -0.2939 -0.2725  0.4221
  877MOL0     C18271   8.670   2.397   1.335 -0.7871  0.4686  1.0638
  877MOL0     C18272   8.736   2.269   1.302  0.0566  0.3214  0.4410
  877MOL0     C18273   8.749   2.238   1.150 -0.8163  0.1837  0.8105
  877MOL0     C18274   8.825   2.337   1.075  0.4081  0.3057  0.2322
  877MOL0     C18275   8.840   2.301   0.927  1.0670 -0.6683  0.2308
  877MOL0     C18276   8.918   2.169   0.906  0.0550  0.5001  0.6649
  877MOL0     N18277   8.950   2.163   0.762 -0.9231  0.5974 -0.4163
  877MOL0     C18278   9.063   2.210   0.688 -1.2256 -0.1321 -0.1327
  877MOL0     C18279   9.034   2.176   0.557 -1.2002 -0.7218 -0.0481
  877MOL0     C18280   9.121   2.197   0.432 -1.1361 -0.9564  0.3258
  877MOL0     C18281   9.247   2.297   0.446  0.6173  0.2828 -0.8714
  877MOL0     C18282   9.330   2.276   0.323  0.1824 -0.1162 -0.1274
  877MOL0     C18283   9.461   2.360   0.334 -0.1104 -1.3247  0.1046
  877MOL0     O18284   9.488   2.459   0.239 -0.4228 -0.1898  0.0516
  877MOL0     C18285   9.452   2.586   0.266 -0.0865 -0.1478  1.2293
  877MOL0     C18286   9.368   2.632   0.369 -0.6619  0.2054  0.5313
  877MOL0     C18287   9.343   2.767   0.389 -0.5204  0.0755  0.2514
  877MOL0     C18288   9.258   2.785   0.511 -0.2628 -0.5805  0.7107
  877MOL0     C18289   9.385   2.861   0.283 -0.5836 -0.1496 -0.4031
  877MOL0     C18290   9.346   3.006   0.274  1.0861 -1.2051  0.3072
  877MOL0     O18291   9.379   3.074   0.165  0.5171  0.6368  0.1481
  877MOL0     C18292   9.369   3.205   0.148 -0.0677 -0.1780  0.0501
  877MOL0     C18293   9.489   3.276   0.134  0.5411 -0.0398  0.0569
  877MOL0     C18294   9.485   3.417   0.145 -0.7713  0.3145 -0.6856
  877MOL0     C18295   9.366   3.490   0.146  0.3798  0.4448 -0.7690
  877MOL0     O18296   9.381   3.624   0.148 -0.6894 -0.0412  0.4843
  877MOL0     C18297   9.313   3.696   0.044 -0.6850 -0.4874  0.5601
  877MOL0     C18298   9.382   3.702  -0.092 -0.3623  0.4930 -0.8240
  877MOL0     C18299   9.532   3.727  -0.094  0.1923 -0.0011  0.3682
  877MOL0     C18300   9.570   3.859  -0.028 -0.0949  1.3913  0.0080
  877MOL0     C18301   9.713   3.884  -0.064 -0.1269 -0.0915  0.1753
  877MOL0     C18302   9.748   4.026  -0.026 -1.1410  0.7526  0.6939
  877MOL0     C18303   9.859   4.072  -0.125 -0.8812  0.1404 -0.2122
  877MOL0     C18304   9.928   4.196  -0.071 -0.2635 -0.2720  0.5733
  877MOL0    Cl18305  10.067   4.241  -0.166 -0.4802  0.1592  0.2101
  877MOL0     C18306   9.252   3.410   0.140 -0.8144  0.7825  0.6150
  877MOL0     C18307   9.253   3.274   0.145 -0.1982 -0.0816  0.3729
  877MOL0     O18308   9.290   3.062   0.380 -0.1456  0.1477  0.4142
  877MOL0     C18309   9.461   2.816   0.180 -0.1040 -0.1487 -0.4674
  877MOL0     C18310   9.497   2.687   0.176 -0.6760  0.5819 -1.1192
  877MOL0     N18311   8.902   2.141   0.549  0.5989  0.5264 -0.2366
  877MOL0     N18312   8.855   2.124   0.665  0.6807  0.2170 -1.0082
  877MOL0     C18313   8.676   2.604   1.894 -0.6689  0.2262  0.4819
  877MOL0     C18314   8.722   2.700   1.981  0.8987  0.3080 -0.4773
  877MOL0     C18315   9.008   3.045   2.129  0.2484 -1.0187  0.5304
  877MOL0     C18316   8.921   3.105   2.211  0.0968 -0.5816 -0.6253
  877MOL0     C18317   8.972   3.188   2.319 -0.6189 -0.1130 -0.0382
  877MOL0     C18318   9.106   3.213   2.333 -0.6295 -0.1217 -0.1147
  877MOL0     O18319   9.161   3.272   2.444  0.2155  0.1723 -0.6505
  877MOL0     C18320   9.097   3.260   2.572  0.9234 -0.2004  0.5434
  877MOL0     C18321   9.212   3.231   2.672 -0.3696 -0.1280  0.4241
  877MOL0     C18322   9.159   3.175   2.808 -0.6213  0.1565 -0.9217
  877MOL0     C18323   9.054   3.263   2.879  0.5570 -0.1778 -0.4241
  877MOL0     C18324   9.113   3.399   2.904 -0.4003  0.5453 -1.4749
  877MOL0     C18325   9.143   3.517   2.914  0.9815 -0.1638 -1.0189
  877MOL0     C18326   9.196   3.153   2.241 -0.3567  0.1571 -0.5154
  877MOL0     C18327   9.144   3.077   2.137 -0.3008 -0.3250 -0.2639
  877MOL0     H18328   8.782   2.961   1.778 -0.4605 -0.7961 -1.4238
  877MOL0     H18329   8.701   2.783   1.606 -1.8747  0.1989  0.1641
  877MOL0     H18330   8.521   2.575   1.511  0.2307  5.0423  4.6592
  877MOL0     H18331   8.704   2.602   1.506 -1.4393  1.8247  1.3187
  877MOL0     H18332   8.735   2.349   1.533 -1.1721 -2.4952 -0.4067
  877MOL0     H18333   8.563   2.341   1.510  1.3791 -2.3047  1.9562
  877MOL0     H18334   8.576   2.394   1.278  0.5336  1.8909 -1.3789
  877MOL0     H18335   8.734   2.476   1.294  0.4134 -0.7642  0.4868
  877MOL0     H18336   8.836   2.276   1.347  2.2082  0.4810 -3.8475
  877MOL0     H18337   8.679   2.188   1.349 -0.4918  0.6258  0.3087
  877MOL0     H18338   8.799   2.141   1.142 -3.0029 -0.9475 -0.0411
  877MOL0     H18339   8.651   2.225   1.103  0.4883  0.7609 -2.3278
  877MOL0     H18340   8.766   2.429   1.070 -1.2847 -0.7908 -0.9005
  877MOL0     H18341   8.925   2.360   1.113  1.2654 -2.0811 -0.4387
  877MOL0     H18342   8.736   2.299   0.892  0.8496 -0.4029  0.8537
  877MOL0     H18343   8.875   2.391   0.876 -2.4580  0.7987  0.1183
  877MOL0     H18344   8.859   2.087   0.949  0.8802 -0.2348  0.4283
  877MOL0     H18345   9.003   2.161   0.973  0.0831 -1.0523  0.4954
  877MOL0     H18346   9.159   2.253   0.717 -1.0543 -1.0106  0.6769
  877MOL0     H18347   9.161   2.097   0.412  0.8899 -0.1310 -0.0034
  877MOL0     H18348   9.072   2.215   0.336  0.7388 -0.7133 -0.6319
  877MOL0     H18349   9.301   2.272   0.537  2.2935 -0.5535 -2.0466
  877MOL0     H18350   9.206   2.397   0.461  1.3932  0.2014  2.4778
  877MOL0     H18351   9.268   2.318   0.244  2.2005  0.3302 -1.5502
  877MOL0     H18352   9.355   2.170   0.314 -1.0738 -0.6059  1.5672
  877MOL0     H18353   9.541   2.288   0.352 -0.0885 -0.3941  4.9566
  877MOL0     H18354   9.467   2.408   0.432 -0.8171  2.1202 -1.3838
  877MOL0     H18355   9.332   2.563   0.445  1.6032  0.2003  1.7009
  877MOL0     H18356   9.323   2.812   0.594  0.4843 -2.5984  0.8403
  877MOL0     H18357   9.183   2.863   0.499  0.9230  0.5166  0.2380
  877MOL0     H18358   9.212   2.690   0.541 -0.4812 -1.2579 -1.5629
  877MOL0     H18359   9.586   3.228   0.132  1.9616  2.6591 -1.9281
  877MOL0     H18360   9.568   3.484   0.122 -0.1666 -0.1637  0.0449
  877MOL0     H18361   9.219   3.649   0.017  0.4993 -0.4998 -4.8075
  877MOL0     H18362   9.281   3.792   0.087  2.0583  0.4031  0.8338
  877MOL0     H18363   9.364   3.598  -0.122 -0.4296 -0.2704  1.5788
  877MOL0     H18364   9.337   3.768  -0.166  2.2754  2.3733 -0.8967
  877MOL0     H18365   9.572   3.722  -0.196 -0.8248 -2.6591  0.0284
  877MOL0     H18366   9.581   3.644  -0.043  2.8790  1.6804  0.7368
  877MOL0     H18367   9.510   3.949  -0.045  1.2406  2.0780 -1.2036
  877MOL0     H18368   9.572   3.842   0.080  4.3741  2.1489  0.2316
  877MOL0     H18369   9.721   3.880  -0.173 -1.6109 -1.1939  0.0854
  877MOL0     H18370   9.788   3.814  -0.025 -0.9099 -0.9653  0.1380
  877MOL0     H18371   9.663   4.095  -0.028 -2.4872 -0.8471 -0.2385
  877MOL0     H18372   9.790   4.019   0.075  2.3194  1.4586 -0.5647
  877MOL0     H18373   9.826   4.094  -0.226  0.5983  1.6904 -0.3961
  877MOL0     H18374   9.938   3.996  -0.125  0.0635  1.0850  0.1425
  877MOL0     H18375   9.974   4.185   0.028 -1.2682 -3.0473  0.8126
  877MOL0     H18376   9.851   4.273  -0.077 -0.1275 -0.2494 -1.2557
  877MOL0     H18377   9.154   3.453   0.121 -0.0755  1.9316 -0.8311
  877MOL0     H18378   9.161   3.221   0.166  0.5283 -0.6261  2.4238
  877MOL0     H18379   9.501   2.880   0.102 -1.7333 -0.3952 -1.5521
  877MOL0     H18380   9.562   2.642   0.101  1.6453 -2.1913  2.2172
  877MOL0     H18381   8.637   2.511   1.934 -2.3552  0.9879  0.6978
  877MOL0     H18382   8.737   2.668   2.083  2.4272 -1.3095 -1.1626
  877MOL0     H18383   8.816   3.079   2.214 -0.6765  2.1921 -0.7910
  877MOL0     H18384   8.905   3.234   2.391  2.3557  2.1641  1.5193
  877MOL0     H18385   9.045   3.348   2.609  1.3055 -0.3135  1.3625
  877MOL0     H18386   9.028   3.175   2.570  2.1375 -1.2595 -1.9472
  877MOL0     H18387   9.268   3.323   2.692  0.5261 -1.0251  2.3370
  877MOL0     H18388   9.292   3.173   2.624 -0.2438  1.2099 -1.0453
  877MOL0     H18389   9.243   3.159   2.876 -0.3605 -1.9394 -1.6443
  877MOL0     H18390   9.120   3.074   2.789 -1.8527  0.0262  1.8300
  877MOL0     H18391   9.025   3.207   2.968 -0.9568 -0.5976 -1.1563
  877MOL0     H18392   8.971   3.261   2.808  1.5089 -2.9790 -1.6089
  877MOL0     H18393   9.154   3.622   2.935  0.8027 -0.2989 -0.2516
  877MOL0     H18394   9.301   3.176   2.253 -0.7801  1.8044  0.3179
  877MOL0     H18395   9.216   3.042   2.064 -0.2942 -0.9488  0.0283
  878MOL0     O18396  10.237   0.702   3.446 -0.3168 -0.7885 -0.5966
  878MOL0     C18397  10.143   0.746   3.510 -0.5051 -0.2908 -0.4143
  878MOL0     O18398  10.043   0.827   3.467  0.0328  0.4877  0.0843
  878MOL0     C18399   9.992   0.823   3.339  0.1449 -0.7739  0.1324
  878MOL0     C18400   9.961   0.943   3.283  0.0026 -0.5595  0.0575
  878MOL0     C18401   9.898   0.954   3.159  1.1857  0.2212 -0.2102
  878MOL0     C18402   9.877   0.839   3.083  0.0125 -0.3722  0.5992
  878MOL0     O18403   9.812   0.852   2.962 -0.3299 -0.2630 -0.3183
  878MOL0     C18404   9.837   0.750   2.862  0.5720 -0.4369 -0.2743
  878MOL0     C18405   9.943   0.787   2.757 -0.0475  0.3165  0.3977
  878MOL0     C18406   9.975   0.660   2.668  0.7793 -0.0058 -1.0131
  878MOL0     C18407  10.110   0.663   2.621 -0.8207  0.1438  0.7341
  878MOL0     C18408  10.225   0.621   2.718 -0.5095  0.1337  0.0273
  878MOL0     C18409  10.348   0.677   2.649 -0.4969 -1.3543  0.2481
  878MOL0     C18410  10.399   0.616   2.510  0.1311  0.5742  0.4252
  878MOL0     C18411  10.398   0.461   2.501 -0.9218 -0.3246  0.1622
  878MOL0     N18412  10.446   0.420   2.361  1.1486 -0.7643 -0.2929
  878MOL0     C18413  10.559   0.465   2.295  0.1849  0.2625  0.2039
  878MOL0     C18414  10.563   0.390   2.187 -0.5874  0.3003 -0.3417
  878MOL0     C18415  10.687   0.400   2.096 -0.5622  0.0233 -0.1949
  878MOL0     C18416  10.657   0.482   1.960  1.1501  0.0354  0.3212
  878MOL0     C18417  10.640   0.625   1.993 -0.3869  0.5261 -0.1135
  878MOL0     C18418  10.659   0.712   1.868  0.7459  0.1377  0.2807
  878MOL0     O18419  10.796   0.716   1.832  0.0232  0.7827 -0.0621
  878MOL0     C18420  10.844   0.826   1.761  1.6469 -0.4752 -0.3884
  878MOL0     C18421  10.975   0.838   1.751 -0.7740  0.0730  0.3927
  878MOL0     C18422  11.040   0.932   1.662  0.2405 -0.2151 -0.6265
  878MOL0     C18423  11.182   0.953   1.674  0.0800  0.1884 -0.7061
  878MOL0     C18424  10.962   1.013   1.577 -0.2796  0.7276  0.4518
  878MOL0     C18425  11.008   1.111   1.478 -0.5757  0.3022 -0.9675
  878MOL0     O18426  10.914   1.158   1.398  0.0541  0.5071  0.6597
  878MOL0     C18427  10.940   1.221   1.274 -1.0518 -0.4984 -0.1481
  878MOL0     C18428  10.849   1.193   1.167  0.3054  0.7790 -0.0305
  878MOL0     C18429  10.863   1.261   1.048 -0.4353  0.4208  0.2292
  878MOL0     C18430  10.959   1.365   1.035  0.6558  0.7105  1.1142
  878MOL0     O18431  10.941   1.426   0.910 -0.9731  0.4204 -0.5887
  878MOL0     C18432  11.020   1.541   0.871 -0.8622  1.0858  0.2869
  878MOL0     C18433  10.985   1.575   0.723  0.2539 -0.1250 -0.0326
  878MOL0     C18434  11.036   1.719   0.676 -0.5718  0.7340 -0.2319
  878MOL0     C18435  11.190   1.719   0.642  0.5040  0.5220  0.0170
  878MOL0     C18436  11.246   1.858   0.625  0.1454 -0.2589  0.4426
  878MOL0     C18437  11.200   1.915   0.485 -0.4116  0.0065 -0.0803
  878MOL0     C18438  11.218   2.061   0.459  0.4187 -0.5880  0.6012
  878MOL0     C18439  11.355   2.111   0.441 -0.2402  0.1040  0.1366
  878MOL0    Cl18440  11.415   2.039   0.282 -0.0980 -0.2630  0.0186
  878MOL0     C18441  11.044   1.396   1.137  0.0147 -0.7067  0.4599
  878MOL0     C18442  11.038   1.322   1.255  0.6909 -0.4586 -0.5016
  878MOL0     O18443  11.125   1.156   1.483 -0.2581  0.5497  0.3310
  878MOL0     C18444  10.825   0.986   1.585  0.1605 -0.9426  0.0992
  878MOL0     C18445  10.763   0.887   1.666 -0.1772 -1.3511 -0.1756
  878MOL0     N18446  10.448   0.319   2.172 -0.8741  0.2554 -0.1942
  878MOL0     N18447  10.371   0.350   2.266 -0.1846 -0.7088 -0.6546
  878MOL0     C18448   9.916   0.718   3.140  0.1457  0.4591  1.1170
  878MOL0     C18449   9.973   0.709   3.270 -0.5271  0.2475 -0.4180
  878MOL0     C18450  10.159   0.745   3.651 -0.6204  0.7087  0.2525
  878MOL0     C18451  10.093   0.833   3.736 -0.8011 -0.0994 -0.2067
  878MOL0     C18452  10.111   0.826   3.877 -0.3578  0.2129  0.3274
  878MOL0     C18453  10.198   0.731   3.937 -0.9914  0.1338 -0.0627
  878MOL0     O18454  10.215   0.730   4.074 -0.6350  0.2392 -0.7372
  878MOL0     C18455  10.300   0.634   4.136  0.7235 -0.3946  0.4249
  878MOL0     C18456  10.294   0.641   4.278 -0.9306 -0.0253 -0.6906
  878MOL0     C18457  10.180   0.544   4.326 -1.3132 -0.9097  0.5752
  878MOL0     C18458  10.167   0.555   4.469  0.6549 -0.0403 -0.5781
  878MOL0     C18459  10.035   0.518   4.512  0.1786 -0.0435  0.3103
  878MOL0     C18460   9.926   0.499   4.563  0.1716  0.0155 -0.0197
  878MOL0     C18461  10.262   0.652   3.856 -0.3439 -0.2487  0.8720
  878MOL0     C18462  10.246   0.658   3.712 -1.0353  0.1461  0.2959
  878MOL0     H18463   9.976   1.035   3.339  0.5525 -0.1778 -0.6921
  878MOL0     H18464   9.874   1.054   3.124  3.2194  1.4123  1.5637
  878MOL0     H18465   9.859   0.650   2.902  2.0171  0.3255  0.9060
  878MOL0     H18466   9.739   0.720   2.822  0.4917  0.3509 -0.6968
  878MOL0     H18467   9.919   0.877   2.700  2.0710  0.3993 -0.4260
  878MOL0     H18468  10.029   0.809   2.821 -1.6596  4.0937  1.5814
  878MOL0     H18469   9.964   0.566   2.723 -0.6009 -0.3070 -1.7552
  878MOL0     H18470   9.908   0.654   2.582  1.0023 -0.7428 -1.1385
  878MOL0     H18471  10.116   0.607   2.527  5.3704  2.4887 -0.8020
  878MOL0     H18472  10.115   0.771   2.602 -2.2046  0.6282  2.7975
  878MOL0     H18473  10.216   0.676   2.812 -2.9187  0.4270 -0.3078
  878MOL0     H18474  10.225   0.513   2.738 -0.7614 -0.3158 -2.1349
  878MOL0     H18475  10.337   0.786   2.647 -1.7272 -1.4655 -1.6004
  878MOL0     H18476  10.423   0.656   2.725  0.1131  3.2240  1.1915
  878MOL0     H18477  10.336   0.657   2.431 -0.1007 -1.9234 -0.7724
  878MOL0     H18478  10.495   0.659   2.480  0.3910  0.2787  0.8135
  878MOL0     H18479  10.293   0.432   2.514 -0.9708  0.2918  1.2143
  878MOL0     H18480  10.465   0.412   2.572 -1.9760 -1.3161  0.5012
  878MOL0     H18481  10.635   0.534   2.329 -0.5239  0.4188  1.5192
  878MOL0     H18482  10.769   0.456   2.141  0.9065 -1.2690 -1.1658
  878MOL0     H18483  10.724   0.300   2.074  0.8435 -0.1169  2.4710
  878MOL0     H18484  10.569   0.433   1.916  2.2614 -1.6930 -0.1095
  878MOL0     H18485  10.733   0.464   1.884 -1.2262 -0.7626 -2.0476
  878MOL0     H18486  10.718   0.650   2.065  0.6947 -3.1597  0.2040
  878MOL0     H18487  10.543   0.637   2.041 -1.2487  0.5013 -1.7781
  878MOL0     H18488  10.620   0.814   1.871 -2.5905 -1.0139  0.2459
  878MOL0     H18489  10.596   0.675   1.787 -0.9805  1.7199  0.8242
  878MOL0     H18490  11.041   0.783   1.818 -2.5668 -4.2100 -1.0416
  878MOL0     H18491  11.233   0.935   1.579  0.5593  0.2414 -0.4647
  878MOL0     H18492  11.212   1.053   1.708  0.6627 -0.2710  0.1713
  878MOL0     H18493  11.217   0.876   1.744 -0.1414 -1.2211 -2.0952
  878MOL0     H18494  10.780   1.111   1.182 -0.3084  1.2278 -0.3647
  878MOL0     H18495  10.791   1.241   0.969 -1.5766 -1.7419  1.7269
  878MOL0     H18496  10.992   1.631   0.928  1.1375  0.5887  2.1822
  878MOL0     H18497  11.128   1.524   0.869 -0.8819  0.0550 -4.4234
  878MOL0     H18498  11.042   1.505   0.662  0.0972  0.5078 -0.9220
  878MOL0     H18499  10.881   1.559   0.695  0.7743  0.5718 -2.6403
  878MOL0     H18500  11.014   1.796   0.751 -3.1586 -0.4145  0.2945
  878MOL0     H18501  10.976   1.745   0.589  2.1308  5.7906 -0.9853
  878MOL0     H18502  11.247   1.661   0.716 -1.5244 -1.5909  0.0559
  878MOL0     H18503  11.199   1.672   0.543  0.6928  1.4281 -0.4076
  878MOL0     H18504  11.354   1.870   0.613 -0.3722  2.8479 -2.4274
  878MOL0     H18505  11.205   1.931   0.696 -2.6964  0.2780 -1.5889
  878MOL0     H18506  11.246   1.869   0.397 -0.2252  3.0549 -1.7353
  878MOL0     H18507  11.095   1.886   0.469 -1.6063  2.5457  2.3274
  878MOL0     H18508  11.167   2.104   0.546 -2.6277 -0.2835 -1.1790
  878MOL0     H18509  11.160   2.101   0.375  0.6351 -1.3989  0.0512
  878MOL0     H18510  11.410   2.076   0.529 -1.1650  0.7958  1.0140
  878MOL0     H18511  11.349   2.220   0.434  2.3371  0.3034  0.3095
  878MOL0     H18512  11.097   1.490   1.122  0.6562 -0.8242  1.8573
  878MOL0     H18513  11.086   1.350   1.347 -1.8946  1.2559  0.4461
  878MOL0     H18514  10.755   1.029   1.513  2.5019  2.1908 -0.5319
  878MOL0     H18515  10.655   0.885   1.665 -0.2318  0.2241 -1.8205
  878MOL0     H18516   9.899   0.617   3.105  0.4156  0.8812 -0.2903
  878MOL0     H18517   9.992   0.618   3.327 -1.4429 -0.8237 -1.7435
  878MOL0     H18518  10.028   0.905   3.688  0.7729 -0.6602 -3.4143
  878MOL0     H18519  10.043   0.890   3.932  0.0040  1.8176 -0.9938
  878MOL0     H18520  10.277   0.532   4.104  2.2465  0.1321 -2.7322
  878MOL0     H18521  10.406   0.648   4.111  0.8669 -1.6198  0.2726
  878MOL0     H18522  10.265   0.742   4.309 -3.7353 -1.6689  2.7698
  878MOL0     H18523  10.388   0.607   4.323 -2.7135 -2.1595  1.7568
  878MOL0     H18524  10.210   0.443   4.297 -0.5461 -0.6483  0.4430
  878MOL0     H18525  10.092   0.563   4.264 -1.8027  2.7546  2.0773
  878MOL0     H18526  10.173   0.659   4.502 -1.1486  0.0149 -0.3377
  878MOL0     H18527  10.233   0.496   4.534 -2.3254 -1.2534  1.5936
  878MOL0     H18528   9.835   0.466   4.610  1.5333 -1.3457  1.7887
  878MOL0     H18529  10.327   0.575   3.895  1.3436  1.7095  2.1540
  878MOL0     H18530  10.292   0.574   3.660 -3.4971  0.3867 -2.5282
  879MOL0     O18531   9.764  10.510   9.959  0.0930  0.0478 -0.1471
  879MOL0     C18532   9.758  10.388   9.982  1.2150 -0.4697 -0.3505
  879MOL0     O18533   9.820  10.298   9.895  0.1361  0.0768 -0.5248
  879MOL0     C18534   9.875  10.360   9.787 -0.5706  0.5208 -0.1006
  879MOL0     C18535  10.016  10.368   9.768 -0.4481  0.4115 -0.0162
  879MOL0     C18536  10.068  10.433   9.659  0.9884  0.0513  0.2962
  879MOL0     C18537   9.983  10.463   9.551  0.4247 -0.3835 -0.0938
  879MOL0     O18538  10.050  10.499   9.441  0.6868  0.0281  0.1646
  879MOL0     C18539   9.986  10.553   9.328  0.4831 -0.6904 -0.6673
  879MOL0     C18540  10.078  10.548   9.211  0.1371  0.9252  0.3182
  879MOL0     C18541  10.169  10.671   9.230 -0.0222 -0.6232  1.0655
  879MOL0     C18542  10.260  10.689   9.105 -0.2680 -0.7486  0.2892
  879MOL0     C18543  10.360  10.800   9.133  0.0419  0.2966 -0.6564
  879MOL0     C18544  10.299  10.936   9.140 -0.3156 -0.4756 -0.5340
  879MOL0     C18545  10.396  11.048   9.174  1.0864 -0.4772 -0.2006
  879MOL0     C18546  10.414  11.062   9.325  0.2139 -0.3276 -0.1903
  879MOL0     N18547  10.548  11.065   9.375  0.0692  0.2110  0.4963
  879MOL0     C18548  10.617  10.949   9.411 -0.1393  0.7445 -0.5861
  879MOL0     C18549  10.745  10.996   9.453  0.2444  1.7378 -0.2561
  879MOL0     C18550  10.850  10.916   9.522 -0.2871 -0.5430  0.2043
  879MOL0     C18551  10.976  10.905   9.436  0.0854  1.7768  0.5054
  879MOL0     C18552  11.071  11.014   9.475 -0.2683  0.1435  0.7133
  879MOL0     C18553  11.177  10.957   9.564 -0.9285 -0.5006 -0.1807
  879MOL0     O18554  11.256  10.866   9.492  0.3644  0.0665  0.2764
  879MOL0     C18555  11.317  10.919   9.383  0.0267 -0.2851  1.2588
  879MOL0     C18556  11.275  10.870   9.255  0.1648 -0.5396 -0.7290
  879MOL0     C18557  11.322  10.917   9.128 -0.0841  0.2552  0.2174
  879MOL0     C18558  11.266  10.864   9.002  0.6039  0.3454 -1.1568
  879MOL0     C18559  11.418  11.021   9.129  0.0447 -0.8313  0.5620
  879MOL0     C18560  11.489  11.055   9.001 -0.0527 -0.7464  0.3392
  879MOL0     O18561  11.449  11.016   8.876 -0.9094  0.3877 -0.0118
  879MOL0     C18562  11.532  11.053   8.768  0.7472 -0.3236 -0.1882
  879MOL0     C18563  11.643  10.968   8.735  0.1405  0.5669 -0.2442
  879MOL0     C18564  11.706  10.976   8.617 -0.1097  0.4342 -0.0486
  879MOL0     C18565  11.681  11.074   8.525  0.7376 -0.7547  0.8913
  879MOL0     O18566  11.751  11.071   8.406 -0.2624 -0.3424  1.1312
  879MOL0     C18567  11.823  11.190   8.365 -0.7856  0.3697 -0.9340
  879MOL0     C18568  11.877  11.140   8.227 -0.4267  0.2312 -0.7771
  879MOL0     C18569  11.770  11.116   8.120  0.3884  0.2579  0.3608
  879MOL0     C18570  11.830  11.042   7.997  1.5472  0.0742  0.3000
  879MOL0     C18571  11.709  10.995   7.902  0.6506  0.8186  0.1099
  879MOL0     C18572  11.712  10.850   7.852  0.1148  0.5988  0.4837
  879MOL0     C18573  11.571  10.806   7.796  1.0296 -0.3572  0.2274
  879MOL0     C18574  11.576  10.676   7.718 -0.2098 -0.3444 -0.7752
  879MOL0    Cl18575  11.660  10.681   7.554 -0.3178  0.1457 -0.2048
  879MOL0     C18576  11.574  11.165   8.555 -0.0955 -0.1139  0.1223
  879MOL0     C18577  11.500  11.152   8.676  0.4270 -0.0809  0.5855
  879MOL0     O18578  11.590  11.123   9.025 -0.3606  1.0160  0.3702
  879MOL0     C18579  11.452  11.071   9.251 -0.5541  0.1418  0.0728
  879MOL0     C18580  11.404  11.029   9.375 -0.0804  0.0187 -0.0437
  879MOL0     N18581  10.746  11.132   9.452  0.2948 -0.1082 -0.3779
  879MOL0     N18582  10.632  11.176   9.402 -0.6032 -0.8063  1.0163
  879MOL0     C18583   9.840  10.452   9.561  1.0052  1.7490 -0.4217
  879MOL0     C18584   9.790  10.400   9.678  0.4300  0.9487  1.6297
  879MOL0     C18585   9.696  10.339  10.108 -0.1364 -0.1816  0.6321
  879MOL0     C18586   9.622  10.436  10.179  0.4323  0.5837  0.2086
  879MOL0     C18587   9.545  10.400  10.291  0.5619  1.0283  0.6353
  879MOL0     C18588   9.543  10.264  10.337 -0.2005  0.0500 -0.5295
  879MOL0     O18589   9.469  10.240  10.449 -0.4915 -0.4124 -0.2469
  879MOL0     C18590   9.537  10.244  10.581  0.1911  0.9022 -0.2449
  879MOL0     C18591   9.507  10.355  10.680  0.3227  0.5455  0.7854
  879MOL0     C18592   9.595  10.374  10.802  0.7582  0.1226 -0.6516
  879MOL0     C18593   9.718  10.448  10.763  0.4310  0.4620 -0.0551
  879MOL0     C18594   9.707  10.590  10.791 -0.3915  0.7314 -0.4745
  879MOL0     C18595   9.735  10.704  10.806 -0.4206  0.1538  0.0762
  879MOL0     C18596   9.613  10.171  10.265  0.5219  0.0038 -1.1078
  879MOL0     C18597   9.688  10.199  10.146  0.5260  0.3722  0.6677
  879MOL0     H18598  10.068  10.328   9.854 -3.1134  1.6620  2.3511
  879MOL0     H18599  10.174  10.448   9.639  1.0921 -1.7589 -0.7323
  879MOL0     H18600   9.897  10.493   9.308  0.6989 -1.3497  0.3305
  879MOL0     H18601   9.956  10.657   9.346  0.2992 -0.6863 -0.9866
  879MOL0     H18602  10.129  10.451   9.203  1.0553  1.3150  1.1266
  879MOL0     H18603  10.027  10.558   9.115  1.7048 -2.6339 -1.0477
  879MOL0     H18604  10.096  10.753   9.231 -1.1648 -1.2011 -4.2369
  879MOL0     H18605  10.221  10.685   9.325  0.6982 -0.7029  0.6932
  879MOL0     H18606  10.331  10.608   9.087  1.1958  0.6000 -0.2612
  879MOL0     H18607  10.200  10.693   9.014 -5.3100  0.1063  3.2211
  879MOL0     H18608  10.405  10.778   9.230 -3.0317 -0.0580  0.7797
  879MOL0     H18609  10.440  10.817   9.060  1.8322 -0.1840  1.1114
  879MOL0     H18610  10.257  10.947   9.040  1.1740  0.8068 -1.0588
  879MOL0     H18611  10.220  10.943   9.216  1.4129 -1.2838  1.4542
  879MOL0     H18612  10.494  11.035   9.127  0.9538  3.1377 -1.8393
  879MOL0     H18613  10.361  11.146   9.140  0.6182 -0.2294  0.9361
  879MOL0     H18614  10.362  10.977   9.371 -2.3095  2.8612  3.4644
  879MOL0     H18615  10.365  11.154   9.359  0.9575  0.5112 -1.2976
  879MOL0     H18616  10.581  10.847   9.408 -2.1594  1.2614  2.1626
  879MOL0     H18617  10.872  10.948   9.624  0.3883 -0.7163  0.1155
  879MOL0     H18618  10.813  10.813   9.534  0.5860 -0.7241  1.5704
  879MOL0     H18619  10.943  10.917   9.333  4.0052 -1.1651 -1.3419
  879MOL0     H18620  11.015  10.803   9.440  2.0919  2.5242  2.4055
  879MOL0     H18621  11.010  11.095   9.516 -3.2066 -0.3538 -2.1890
  879MOL0     H18622  11.106  11.066   9.385 -1.0528  1.5721  1.2066
  879MOL0     H18623  11.133  10.892   9.640 -0.7754  0.0536  0.3931
  879MOL0     H18624  11.227  11.042   9.611 -1.3310 -1.7051  2.6236
  879MOL0     H18625  11.198  10.794   9.260  2.5585 -3.0545  0.2724
  879MOL0     H18626  11.225  10.940   8.935 -1.6865  1.1002  0.9293
  879MOL0     H18627  11.337  10.798   8.952  2.0450 -0.2695  1.5234
  879MOL0     H18628  11.176  10.806   9.027  1.1719 -0.4803 -1.0007
  879MOL0     H18629  11.670  10.881   8.794 -0.7558  0.0400 -0.5774
  879MOL0     H18630  11.783  10.903   8.597 -1.6390 -1.3641  0.3303
  879MOL0     H18631  11.763  11.281   8.352 -0.5257  1.0122  1.7354
  879MOL0     H18632  11.906  11.211   8.432 -0.1686 -0.8199 -1.2967
  879MOL0     H18633  11.948  11.215   8.192 -0.8898  0.1225 -2.0109
  879MOL0     H18634  11.930  11.045   8.239 -0.5752  0.1626 -0.6514
  879MOL0     H18635  11.730  11.214   8.091  0.5798  0.1850 -0.1483
  879MOL0     H18636  11.684  11.065   8.164 -0.1638  1.7369  1.0673
  879MOL0     H18637  11.900  11.105   7.941  0.4868 -1.2511 -2.7221
  879MOL0     H18638  11.880  10.953   8.037  1.1198  0.1540  1.0484
  879MOL0     H18639  11.717  11.070   7.822  3.6162  1.4024  0.8199
  879MOL0     H18640  11.618  11.000   7.963  1.8038 -1.3219  2.1678
  879MOL0     H18641  11.782  10.842   7.768  0.0158  0.9541  0.3673
  879MOL0     H18642  11.756  10.773   7.917 -0.0338 -0.1714 -0.2981
  879MOL0     H18643  11.524  10.878   7.728  0.8179 -1.0777 -0.4026
  879MOL0     H18644  11.508  10.794   7.884 -3.6976  0.0218 -2.7481
  879MOL0     H18645  11.468  10.658   7.713 -0.9612  3.1881  0.0192
  879MOL0     H18646  11.608  10.598   7.788 -3.3428 -0.1646  1.0512
  879MOL0     H18647  11.542  11.248   8.492 -5.2298 -1.2932  0.7104
  879MOL0     H18648  11.417  11.220   8.691 -1.1528 -1.9668  0.8876
  879MOL0     H18649  11.519  11.156   9.244  1.4748 -1.0380  2.9113
  879MOL0     H18650  11.453  11.068   9.464  0.6974  1.2956 -0.9935
  879MOL0     H18651   9.775  10.479   9.478  0.6070  2.0556 -0.0129
  879MOL0     H18652   9.681  10.390   9.677  0.2104  2.0218 -2.3905
  879MOL0     H18653   9.646  10.541  10.168  1.9900  0.5124  2.2172
  879MOL0     H18654   9.483  10.477  10.338 -1.8928  0.1951 -1.0460
  879MOL0     H18655   9.515  10.147  10.626 -0.8710 -0.4332 -3.3512
  879MOL0     H18656   9.643  10.244  10.554  0.4758  1.4091  0.8113
  879MOL0     H18657   9.412  10.326  10.725  0.6986 -1.7289  0.2453
  879MOL0     H18658   9.498  10.437  10.608  0.5946 -3.3753 -4.2579
  879MOL0     H18659   9.625  10.274  10.836  1.6315 -0.1371 -2.1028
  879MOL0     H18660   9.538  10.427  10.879 -0.5023 -3.5141  1.1488
  879MOL0     H18661   9.761  10.421  10.666  0.5116 -0.7103  0.2915
  879MOL0     H18662   9.795  10.409  10.830  1.0375 -2.8313 -2.4354
  879MOL0     H18663   9.756  10.807  10.827 -0.8819  0.3807 -0.5450
  879MOL0     H18664   9.608  10.072  10.309 -1.5846  0.2627 -0.6932
  879MOL0     H18665   9.732  10.115  10.093 -1.7524 -0.4769 -0.0031
  880MOL0     O18666  11.364   6.583   0.586  0.8555  0.1287 -0.4967
  880MOL0     C18667  11.288   6.663   0.544  0.5222 -0.5078  0.9621
  880MOL0     O18668  11.183   6.632   0.462 -0.5561 -0.5204 -0.3444
  880MOL0     C18669  11.173   6.501   0.434 -0.5286  0.6042  0.4854
  880MOL0     C18670  11.256   6.452   0.330 -1.0807  0.7523 -0.0859
  880MOL0     C18671  11.235   6.322   0.296 -1.1096  1.2270  0.1256
  880MOL0     C18672  11.135   6.249   0.341 -0.6637 -0.4535  0.0130
  880MOL0     O18673  11.111   6.122   0.288  0.7243  0.3766  0.0026
  880MOL0     C18674  11.014   6.134   0.180 -0.7123  0.1569 -0.8847
  880MOL0     C18675  11.032   6.027   0.064  0.8144 -0.2331 -0.5856
  880MOL0     C18676  11.043   5.881   0.111 -0.9703  0.8035 -0.4826
  880MOL0     C18677  10.902   5.841   0.160 -1.0311 -0.2697  0.4090
  880MOL0     C18678  10.898   5.700   0.224 -0.1605 -0.2857  0.2184
  880MOL0     C18679  10.754   5.644   0.226  1.3615  0.4341  0.8562
  880MOL0     C18680  10.674   5.675   0.358  0.9664 -0.0411  0.4654
  880MOL0     C18681  10.544   5.598   0.363  0.0507 -0.2511 -1.1146
  880MOL0     N18682  10.433   5.641   0.454 -0.5036  0.0098 -0.7481
  880MOL0     C18683  10.309   5.693   0.421  0.2423  0.8840 -0.3301
  880MOL0     C18684  10.248   5.727   0.538  0.4101  0.1546 -0.3388
  880MOL0     C18685  10.122   5.808   0.560  0.3622  0.5049  0.3826
  880MOL0     C18686  10.004   5.722   0.539  0.1183  0.3719 -0.8259
  880MOL0     C18687   9.894   5.791   0.612 -0.1242  1.1237  0.7427
  880MOL0     C18688   9.784   5.686   0.654 -0.7533 -0.4186 -0.1330
  880MOL0     O18689   9.740   5.614   0.531 -0.1631  1.1084  0.2703
  880MOL0     C18690   9.676   5.490   0.561 -0.1529 -0.7919 -0.4010
  880MOL0     C18691   9.543   5.488   0.578  0.3004  0.9179  0.8056
  880MOL0     C18692   9.481   5.373   0.612 -0.7337 -0.7263 -0.1349
  880MOL0     C18693   9.337   5.378   0.611  0.3425  0.9833  0.4669
  880MOL0     C18694   9.560   5.256   0.653  1.0340 -0.3987 -0.6835
  880MOL0     C18695   9.510   5.120   0.711  0.0234  0.5880  0.2343
  880MOL0     O18696   9.613   5.041   0.753  1.0625 -0.1879 -0.8541
  880MOL0     C18697   9.589   4.908   0.788 -0.3137 -0.2906  0.6753
  880MOL0     C18698   9.681   4.816   0.735  0.1652  0.6615 -0.7660
  880MOL0     C18699   9.675   4.685   0.770  0.0521  0.4242 -0.0166
  880MOL0     C18700   9.571   4.631   0.848 -0.2540  0.4799  0.1179
  880MOL0     O18701   9.594   4.504   0.894  0.8758 -0.1562 -0.4050
  880MOL0     C18702   9.603   4.499   1.045  1.9753  0.1707 -0.0647
  880MOL0     C18703   9.632   4.358   1.085  0.9114 -1.6760 -0.0610
  880MOL0     C18704   9.507   4.264   1.066 -0.9438 -0.3992 -0.2310
  880MOL0     C18705   9.530   4.125   1.125  0.9108  0.1221 -0.1742
  880MOL0     C18706   9.635   4.046   1.038 -0.5914  0.0218 -0.5397
  880MOL0     C18707   9.593   4.022   0.891  0.1489  0.2669 -0.3072
  880MOL0     C18708   9.462   3.950   0.877  1.1064  0.3571  0.6072
  880MOL0     C18709   9.411   3.958   0.730  0.7616 -0.3951 -0.3855
  880MOL0    Cl18710   9.340   4.123   0.701  0.4257 -0.1742  0.2137
  880MOL0     C18711   9.475   4.720   0.895  0.8449  0.7943  0.6495
  880MOL0     C18712   9.482   4.859   0.863 -0.0182  0.6013  0.1216
  880MOL0     O18713   9.390   5.097   0.714 -0.1769  0.5034 -0.4098
  880MOL0     C18714   9.697   5.267   0.640  0.0579  0.1653 -0.8079
  880MOL0     C18715   9.754   5.383   0.594  0.1381  0.9822 -0.8858
  880MOL0     N18716  10.326   5.666   0.636 -0.1625 -0.9813  0.7013
  880MOL0     N18717  10.434   5.624   0.589 -0.3362 -0.5161 -0.6855
  880MOL0     C18718  11.052   6.296   0.446 -0.4707  0.3545  0.6113
  880MOL0     C18719  11.075   6.421   0.492  0.0421 -1.6641  0.9706
  880MOL0     C18720  11.304   6.811   0.577 -0.0329 -0.4877  0.5152
  880MOL0     C18721  11.429   6.859   0.621  0.0565 -0.4237 -0.5228
  880MOL0     C18722  11.448   6.989   0.665  0.5884  0.5520 -0.5341
  880MOL0     C18723  11.342   7.073   0.660  1.1878 -0.5793 -0.6752
  880MOL0     O18724  11.359   7.213   0.680 -0.8009 -0.1236  0.3525
  880MOL0     C18725  11.362   7.287   0.553 -0.9892  0.2420 -0.4621
  880MOL0     C18726  11.475   7.247   0.463 -0.5333  0.7276  0.5309
  880MOL0     C18727  11.614   7.296   0.515  0.5183 -1.0938  0.1482
  880MOL0     C18728  11.729   7.233   0.434  0.0542  1.0072 -0.0803
  880MOL0     C18729  11.762   7.099   0.478 -0.3062  0.9616  0.1042
  880MOL0     C18730  11.808   6.991   0.507  0.1914  0.1502 -0.1386
  880MOL0     C18731  11.222   7.030   0.615  0.2531  1.1025  0.1374
  880MOL0     C18732  11.202   6.895   0.581 -1.1018  0.2491  0.3167
  880MOL0     H18733  11.330   6.516   0.281 -0.6538  0.7884  0.5914
  880MOL0     H18734  11.282   6.276   0.210 -1.2969  0.8763  0.2119
  880MOL0     H18735  10.917   6.139   0.231 -0.5481 -0.6874 -0.4766
  880MOL0     H18736  11.024   6.237   0.143 -1.1843  1.0791  1.3460
  880MOL0     H18737  10.948   6.038  -0.005 -2.8487  2.7425  3.6740
  880MOL0     H18738  11.128   6.044   0.015  1.6728 -1.8346  0.4330
  880MOL0     H18739  11.076   5.826   0.022 -0.5064  0.3119 -0.0183
  880MOL0     H18740  11.116   5.865   0.191 -2.4006 -0.4969  0.6642
  880MOL0     H18741  10.859   5.907   0.236 -2.3655 -3.1153  2.3284
  880MOL0     H18742  10.841   5.838   0.069  0.4987 -0.8257 -0.6332
  880MOL0     H18743  10.946   5.627   0.159 -2.7553 -1.3325 -0.6693
  880MOL0     H18744  10.948   5.696   0.321  2.8687 -4.8205 -1.2317
  880MOL0     H18745  10.695   5.658   0.135  1.8368  2.8342  0.8540
  880MOL0     H18746  10.762   5.535   0.232 -4.0649 -0.3811 -1.0556
  880MOL0     H18747  10.730   5.665   0.451 -4.3773 -0.5616  4.0738
  880MOL0     H18748  10.642   5.779   0.353  0.2002 -0.0971  2.8844
  880MOL0     H18749  10.580   5.498   0.388 -1.1473 -0.8170 -1.5936
  880MOL0     H18750  10.497   5.599   0.264 -3.0068 -2.3657  0.1631
  880MOL0     H18751  10.288   5.722   0.319 -0.6801 -0.7290 -0.6403
  880MOL0     H18752  10.127   5.844   0.664 -2.1354 -1.1272  1.1486
  880MOL0     H18753  10.110   5.886   0.484  0.8606  0.4138  0.2025
  880MOL0     H18754  10.025   5.623   0.579  5.0209  0.9849 -1.2927
  880MOL0     H18755   9.983   5.710   0.432 -0.4996 -3.0705 -0.4108
  880MOL0     H18756   9.852   5.864   0.542 -1.1792 -1.7187 -1.7778
  880MOL0     H18757   9.934   5.833   0.705  0.3414 -1.1077  1.6081
  880MOL0     H18758   9.705   5.743   0.704  0.3850  2.8715 -1.7561
  880MOL0     H18759   9.822   5.611   0.723  1.6103  0.4114 -0.4673
  880MOL0     H18760   9.488   5.576   0.548 -2.8611 -0.7379  1.3708
  880MOL0     H18761   9.283   5.330   0.693  0.9290 -2.1602 -0.8773
  880MOL0     H18762   9.302   5.482   0.601  3.2374  2.1561  1.5713
  880MOL0     H18763   9.296   5.322   0.526  2.8592  0.6008 -0.5722
  880MOL0     H18764   9.766   4.853   0.677  1.6437 -1.5864 -0.1345
  880MOL0     H18765   9.763   4.625   0.752 -0.6316 -1.1557  1.6013
  880MOL0     H18766   9.678   4.570   1.080  1.8692 -1.1315  3.1777
  880MOL0     H18767   9.504   4.525   1.083  0.7554  0.9637 -3.4111
  880MOL0     H18768   9.712   4.343   1.011 -0.9870  2.8333 -3.4924
  880MOL0     H18769   9.650   4.349   1.193 -0.8286  1.3566  0.5916
  880MOL0     H18770   9.484   4.272   0.959 -1.4983 -0.7818 -0.1421
  880MOL0     H18771   9.429   4.305   1.130  0.1339 -1.5105  1.9159
  880MOL0     H18772   9.571   4.143   1.225 -1.8522  0.8125  0.9151
  880MOL0     H18773   9.431   4.080   1.132  0.0024  0.7991 -5.0258
  880MOL0     H18774   9.638   3.944   1.077  0.4974 -0.6542 -2.2869
  880MOL0     H18775   9.736   4.088   1.044  0.1964 -1.9341  0.8971
  880MOL0     H18776   9.596   4.111   0.829 -2.2020  0.3148 -0.4353
  880MOL0     H18777   9.671   3.961   0.843 -0.7279 -2.6986  1.7267
  880MOL0     H18778   9.386   3.989   0.947 -0.8421 -0.9261 -0.6892
  880MOL0     H18779   9.477   3.844   0.895  0.0570  0.5106  2.8125
  880MOL0     H18780   9.349   3.869   0.718  1.1439 -0.7598  0.2921
  880MOL0     H18781   9.492   3.949   0.656 -0.4284 -2.1131 -1.5566
  880MOL0     H18782   9.392   4.692   0.960  0.2309  2.3232  0.5522
  880MOL0     H18783   9.396   4.919   0.893  0.4143  1.3671 -0.1435
  880MOL0     H18784   9.765   5.186   0.665  1.9919  1.3503 -1.9391
  880MOL0     H18785   9.863   5.389   0.592  0.2157  4.1175  2.1776
  880MOL0     H18786  10.977   6.225   0.480 -1.2685  0.2114 -1.3517
  880MOL0     H18787  11.004   6.469   0.559  1.1360  2.1967 -0.3724
  880MOL0     H18788  11.501   6.784   0.652  3.2101  3.1302  1.7944
  880MOL0     H18789  11.544   7.014   0.709 -1.3651  2.5620  3.0938
  880MOL0     H18790  11.262   7.276   0.509 -0.2551  0.9315 -2.4095
  880MOL0     H18791  11.366   7.393   0.578  3.0748  0.6097 -1.9296
  880MOL0     H18792  11.445   7.297   0.369  3.0935  2.0246 -0.0807
  880MOL0     H18793  11.466   7.139   0.452 -0.2088  0.7325  0.2008
  880MOL0     H18794  11.606   7.285   0.623 -5.2601  1.8510  0.3999
  880MOL0     H18795  11.637   7.403   0.507 -0.0531 -1.0325 -0.7979
  880MOL0     H18796  11.816   7.299   0.433 -0.4258  1.7091  1.2696
  880MOL0     H18797  11.683   7.238   0.334  1.8871  1.8322 -0.9371
  880MOL0     H18798  11.837   6.904   0.561 -0.2569  2.3335  4.0800
  880MOL0     H18799  11.138   7.099   0.621 -0.8693 -0.1646 -0.3193
  880MOL0     H18800  11.108   6.866   0.534 -1.5692  0.1033  1.3270
  881MOL0     O18801  10.036   6.211  10.643  0.4892  0.3356 -0.0394
  881MOL0     C18802   9.933   6.278  10.625 -0.5572 -0.6475 -0.1084
  881MOL0     O18803   9.814   6.221  10.613 -0.2919 -0.6835 -0.6462
  881MOL0     C18804   9.794   6.099  10.670 -0.2260 -0.2653 -0.4371
  881MOL0     C18805   9.840   6.067  10.795 -0.5347  0.0593 -0.7711
  881MOL0     C18806   9.848   5.937  10.842  0.4783  0.2397 -0.1561
  881MOL0     C18807   9.795   5.829  10.770 -0.3223 -0.8007  0.3180
  881MOL0     O18808   9.821   5.699  10.791 -0.5395  0.3003 -0.9469
  881MOL0     C18809   9.875   5.653  10.917 -0.2587 -0.7765 -1.3237
  881MOL0     C18810   9.946   5.520  10.915 -0.3380  0.4119  0.1855
  881MOL0     C18811   9.855   5.405  10.883  0.5847 -0.4347 -0.4615
  881MOL0     C18812   9.825   5.383  10.733  0.6286  0.7385 -0.2074
  881MOL0     C18813   9.745   5.251  10.694  1.1554 -0.2328 -0.2900
  881MOL0     C18814   9.599   5.245  10.732  0.7421 -0.2380  0.1028
  881MOL0     C18815   9.515   5.322  10.629 -0.1832 -0.0720 -0.2623
  881MOL0     C18816   9.363   5.304  10.663 -0.1928 -0.4161  0.7350
  881MOL0     N18817   9.318   5.413  10.746  0.0874 -0.5108 -0.0001
  881MOL0     C18818   9.361   5.454  10.874 -0.2472  0.4377  1.1632
  881MOL0     C18819   9.364   5.585  10.875  1.3387 -0.0221 -0.3335
  881MOL0     C18820   9.441   5.671  10.972 -0.1864 -1.0763 -0.7012
  881MOL0     C18821   9.437   5.829  10.945  0.0619  0.7636 -0.0728
  881MOL0     C18822   9.535   5.902  11.032 -0.1248 -0.7433 -0.2015
  881MOL0     C18823   9.543   6.044  10.987  0.0525 -0.7829  0.3716
  881MOL0     O18824   9.427   6.100  11.048  0.2029  0.0196 -0.0227
  881MOL0     C18825   9.432   6.243  11.046  0.4835  0.7137 -0.2474
  881MOL0     C18826   9.508   6.327  10.958  1.2823  0.1015 -0.5799
  881MOL0     C18827   9.481   6.468  10.942  0.0450  0.0988  0.1238
  881MOL0     C18828   9.555   6.563  10.848  0.3476  0.8835 -0.4120
  881MOL0     C18829   9.373   6.526  11.030 -0.5740 -0.2836 -0.1450
  881MOL0     C18830   9.327   6.666  11.036  0.0516 -1.3459 -0.2142
  881MOL0     O18831   9.416   6.758  11.069  0.7605 -0.4154 -0.0806
  881MOL0     C18832   9.374   6.896  11.057  0.4421 -0.4234 -0.5509
  881MOL0     C18833   9.362   6.950  10.931 -0.4321  0.1109 -0.6388
  881MOL0     C18834   9.325   7.084  10.918  1.0540  0.2979  0.0416
  881MOL0     C18835   9.316   7.160  11.038 -0.3708 -1.0167  0.0947
  881MOL0     O18836   9.297   7.299  11.023  0.2941 -0.8104  0.0088
  881MOL0     C18837   9.404   7.372  11.075 -0.2784 -1.0384  0.6227
  881MOL0     C18838   9.439   7.487  10.973 -0.8357 -0.2294  0.6618
  881MOL0     C18839   9.529   7.426  10.858 -0.1461  0.7506  0.5683
  881MOL0     C18840   9.673   7.405  10.906 -0.0391 -0.6475  0.6231
  881MOL0     C18841   9.753   7.332  10.793  0.0722 -0.6086 -0.6820
  881MOL0     C18842   9.794   7.192  10.830  0.3837  0.9930 -0.5964
  881MOL0     C18843   9.818   7.115  10.693 -0.3605 -0.3869  0.1723
  881MOL0     C18844   9.844   6.970  10.694 -0.3223 -0.0606 -0.0880
  881MOL0    Cl18845   9.682   6.880  10.740 -0.3466  0.1688  0.0589
  881MOL0     C18846   9.324   7.107  11.167 -0.4181 -1.1543 -0.4479
  881MOL0     C18847   9.371   6.976  11.174  0.3169  0.1752 -0.4337
  881MOL0     O18848   9.206   6.682  11.031  0.5231 -0.0632 -0.4725
  881MOL0     C18849   9.308   6.439  11.114  0.1381  0.4297 -0.0252
  881MOL0     C18850   9.336   6.305  11.124  0.0125 -0.7186  0.3963
  881MOL0     N18851   9.289   5.636  10.762 -0.1443  0.1952  0.5014
  881MOL0     N18852   9.267   5.536  10.691 -0.3785 -0.1056  0.2553
  881MOL0     C18853   9.736   5.866  10.644  1.1290 -0.6327  0.6249
  881MOL0     C18854   9.731   5.999  10.596  0.4375 -0.1719 -0.2564
  881MOL0     C18855   9.944   6.422  10.570  0.0828  0.4189  0.2721
  881MOL0     C18856  10.064   6.485  10.539 -0.0631 -0.3775  0.8236
  881MOL0     C18857  10.055   6.615  10.484 -0.0401 -0.7284 -0.1680
  881MOL0     C18858   9.937   6.673  10.449  0.8658  0.3571  0.5768
  881MOL0     O18859   9.923   6.799  10.399 -0.4423  0.2823 -0.3284
  881MOL0     C18860  10.033   6.889  10.393 -0.1958  0.4402 -0.5673
  881MOL0     C18861   9.980   7.030  10.351 -0.4408 -0.0956 -0.1542
  881MOL0     C18862  10.071   7.150  10.393 -0.1644 -0.0836 -1.0374
  881MOL0     C18863  10.206   7.136  10.321  0.0820  0.6591  0.4839
  881MOL0     C18864  10.204   7.174  10.179 -0.1172  0.4135  0.3915
  881MOL0     C18865  10.190   7.180  10.061 -0.9835  0.0560 -0.0709
  881MOL0     C18866   9.814   6.608  10.474  0.7288  0.2409 -0.1031
  881MOL0     C18867   9.823   6.482  10.532 -0.3634 -0.2723  0.2117
  881MOL0     H18868   9.876   6.141  10.866  0.6419 -0.7491 -0.4982
  881MOL0     H18869   9.886   5.929  10.943 -1.6386  3.5518  1.0928
  881MOL0     H18870   9.944   5.722  10.966 -0.6406 -2.1196  1.2734
  881MOL0     H18871   9.786   5.650  10.980  0.8255  2.2028  0.5122
  881MOL0     H18872  10.035   5.530  10.853 -0.4093  3.1392  0.3951
  881MOL0     H18873   9.985   5.509  11.016  0.4248 -1.7756 -0.2949
  881MOL0     H18874   9.906   5.317  10.922  2.6845  0.6590 -0.6093
  881MOL0     H18875   9.761   5.410  10.939  1.7591 -0.8579  1.6596
  881MOL0     H18876   9.779   5.473  10.692 -3.2493 -0.7183  0.5522
  881MOL0     H18877   9.920   5.375  10.679 -0.0821 -2.0991 -1.2268
  881MOL0     H18878   9.762   5.224  10.589  0.6867  0.2881 -0.5055
  881MOL0     H18879   9.798   5.175  10.752  1.2381  1.0983  1.4606
  881MOL0     H18880   9.559   5.144  10.750 -0.7049  0.3163  0.1404
  881MOL0     H18881   9.578   5.287  10.831  0.1653 -2.2479  0.8985
  881MOL0     H18882   9.545   5.425  10.647 -2.7511  0.4072  2.1119
  881MOL0     H18883   9.529   5.293  10.525 -2.3604 -0.6895 -0.4416
  881MOL0     H18884   9.329   5.220  10.724  0.6693 -0.7725  0.7416
  881MOL0     H18885   9.313   5.302  10.566  3.3649  0.3371 -1.3181
  881MOL0     H18886   9.428   5.398  10.939  1.1999  0.9120  0.1463
  881MOL0     H18887   9.393   5.660  11.070 -2.8285  1.3541 -1.6094
  881MOL0     H18888   9.547   5.644  10.975  0.1243  0.0363  2.2650
  881MOL0     H18889   9.334   5.866  10.957  0.1243  0.5196  1.4479
  881MOL0     H18890   9.458   5.845  10.839 -3.3155  3.1267 -0.5759
  881MOL0     H18891   9.634   5.858  11.024  0.1769  0.1533 -1.8089
  881MOL0     H18892   9.509   5.891  11.138 -2.6194 -1.4341 -0.8041
  881MOL0     H18893   9.548   6.046  10.878 -2.2469  1.5523  0.2230
  881MOL0     H18894   9.642   6.080  11.017  0.0794 -2.6888  2.8336
  881MOL0     H18895   9.589   6.288  10.896  0.9605 -0.8765 -0.3938
  881MOL0     H18896   9.574   6.658  10.898  0.3501  1.8912 -2.2713
  881MOL0     H18897   9.645   6.510  10.816  0.3533 -1.8231  3.4245
  881MOL0     H18898   9.493   6.574  10.759 -0.7978 -2.5415 -0.1833
  881MOL0     H18899   9.383   6.897  10.839 -1.6879 -3.0410  0.7210
  881MOL0     H18900   9.309   7.132  10.822  0.8353 -2.7066 -1.5719
  881MOL0     H18901   9.363   7.431  11.158  0.4085  1.4974 -0.7422
  881MOL0     H18902   9.487   7.304  11.094 -1.9543 -2.6648  2.6781
  881MOL0     H18903   9.342   7.521  10.935 -1.3396 -0.3529  1.7995
  881MOL0     H18904   9.495   7.564  11.026  1.5151  0.2454 -2.2242
  881MOL0     H18905   9.528   7.485  10.765  1.5162  1.4581  0.9676
  881MOL0     H18906   9.486   7.326  10.842 -1.1197  1.5296 -2.5680
  881MOL0     H18907   9.718   7.503  10.924 -2.9022  1.0247 -0.6363
  881MOL0     H18908   9.675   7.358  11.005 -1.1916 -0.6852  0.6403
  881MOL0     H18909   9.846   7.381  10.764 -0.1351  0.3737  0.2079
  881MOL0     H18910   9.694   7.337  10.701 -1.2330 -0.9291  0.1026
  881MOL0     H18911   9.892   7.190  10.879  0.8717  0.0332 -1.5719
  881MOL0     H18912   9.719   7.144  10.894  0.1723  3.4414  1.1458
  881MOL0     H18913   9.899   7.165  10.639 -0.7753 -1.6368 -1.6824
  881MOL0     H18914   9.722   7.127  10.640  0.1511 -1.2780 -1.0043
  881MOL0     H18915   9.917   6.943  10.772 -0.3232 -1.5557 -0.5672
  881MOL0     H18916   9.882   6.943  10.595 -1.6969  2.7275 -1.4691
  881MOL0     H18917   9.319   7.176  11.251  0.0291  0.4115 -1.6490
  881MOL0     H18918   9.392   6.926  11.268  1.0073 -0.4473 -0.9115
  881MOL0     H18919   9.254   6.490  11.193 -1.1662  2.9553 -2.3798
  881MOL0     H18920   9.276   6.243  11.189 -0.5751  0.4619  1.0156
  881MOL0     H18921   9.706   5.784  10.580  0.1806  0.8431 -0.9015
  881MOL0     H18922   9.706   6.025  10.493  0.7453  3.3761  0.4379
  881MOL0     H18923  10.163   6.463  10.577  0.6237 -0.1352 -0.7844
  881MOL0     H18924  10.145   6.662  10.446 -0.2829 -0.7169 -0.7298
  881MOL0     H18925  10.075   6.896  10.494 -0.1496 -3.4897 -0.1462
  881MOL0     H18926  10.101   6.853  10.315  1.5210  1.3719  0.4468
  881MOL0     H18927   9.884   7.047  10.399  0.6569 -0.1202  2.1892
  881MOL0     H18928   9.964   7.040  10.243 -0.4969  1.8363 -0.0063
  881MOL0     H18929  10.096   7.138  10.499  2.6331  0.2716 -1.5556
  881MOL0     H18930  10.025   7.249  10.385  1.5644  1.1884  2.3870
  881MOL0     H18931  10.240   7.032  10.321 -1.2084  0.1410 -2.3480
  881MOL0     H18932  10.280   7.201  10.369  1.8165 -2.2858  2.0623
  881MOL0     H18933  10.164   7.180   9.957 -0.6854 -1.7942 -0.1838
  881MOL0     H18934   9.716   6.652  10.456 -0.5972 -1.6746  1.8506
  881MOL0     H18935   9.736   6.429  10.569  0.2876 -1.9185 -0.5122
  882MOL0     O18936   3.311   8.559  10.212  0.0708 -0.6542 -0.0966
  882MOL0     C18937   3.352   8.452  10.154  0.5301  0.3439  0.5416
  882MOL0     O18938   3.301   8.327  10.168  0.5735 -0.9389  0.0566
  882MOL0     C18939   3.189   8.287  10.244 -0.1822 -0.0702 -0.4464
  882MOL0     C18940   3.159   8.150  10.254 -0.1963  0.1732 -0.0185
  882MOL0     C18941   3.056   8.096  10.341  0.2337 -0.0799  1.0721
  882MOL0     C18942   2.963   8.186  10.393  0.2580 -0.1271 -0.0618
  882MOL0     O18943   2.865   8.133  10.465  1.0829  0.4285 -0.9398
  882MOL0     C18944   2.762   8.213  10.520  0.4933  0.2998 -0.6918
  882MOL0     C18945   2.817   8.264  10.652 -0.1009 -0.2920 -0.1424
  882MOL0     C18946   2.834   8.152  10.759  0.1634 -0.7394 -0.2284
  882MOL0     C18947   2.704   8.080  10.794  0.7834  0.4336  0.1967
  882MOL0     C18948   2.710   8.023  10.928  0.8219 -0.0347  0.3945
  882MOL0     C18949   2.587   7.941  10.948  0.3751 -0.1358 -0.1731
  882MOL0     C18950   2.597   7.851  11.071 -0.4300  1.2253 -0.2900
  882MOL0     C18951   2.668   7.907  11.194  0.7880 -0.0805 -0.5936
  882MOL0     N18952   2.672   7.829  11.315  0.7237  0.8832 -0.6323
  882MOL0     C18953   2.559   7.813  11.389 -0.7690  1.2875  0.5987
  882MOL0     C18954   2.596   7.727  11.483  0.3561  0.8520  0.2887
  882MOL0     C18955   2.512   7.678  11.602 -0.3297 -0.1139  0.5967
  882MOL0     C18956   2.360   7.722  11.599 -0.6599 -0.7342  0.1197
  882MOL0     C18957   2.294   7.679  11.724 -0.1507  0.4482  0.6007
  882MOL0     C18958   2.333   7.740  11.855  0.5064  0.2126  0.5026
  882MOL0     O18959   2.371   7.869  11.837 -0.0423 -0.6336 -0.6417
  882MOL0     C18960   2.395   7.950  11.957 -0.3414  0.2577  0.2495
  882MOL0     C18961   2.449   7.896  12.076 -0.6917  0.2128 -0.1736
  882MOL0     C18962   2.462   7.964  12.197  0.8956  0.6657  0.0732
  882MOL0     C18963   2.525   7.883  12.317  0.4750 -0.1740 -0.2783
  882MOL0     C18964   2.419   8.098  12.202 -0.5692 -0.9548  0.6428
  882MOL0     C18965   2.430   8.173  12.329 -0.1625 -0.2267  0.7812
  882MOL0     O18966   2.455   8.308  12.311  0.3343 -0.0564 -0.0110
  882MOL0     C18967   2.504   8.386  12.416 -0.5393 -0.5868  0.5349
  882MOL0     C18968   2.599   8.336  12.503 -0.0524 -0.6874  0.0556
  882MOL0     C18969   2.645   8.425  12.606 -0.0593 -0.0661 -0.8051
  882MOL0     C18970   2.598   8.558  12.610 -0.0155 -0.7260  0.2860
  882MOL0     O18971   2.643   8.663  12.687 -0.2472 -0.0761  0.0640
  882MOL0     C18972   2.674   8.634  12.821  0.6949  0.2789 -0.0126
  882MOL0     C18973   2.819   8.668  12.852  1.0550 -0.0613 -0.7472
  882MOL0     C18974   2.844   8.819  12.846 -0.1348  0.4662 -0.5114
  882MOL0     C18975   2.986   8.869  12.838 -0.4075 -0.3220 -0.3893
  882MOL0     C18976   3.054   8.888  12.984 -0.1465 -0.1112  0.1839
  882MOL0     C18977   3.009   9.018  13.067  0.2980 -0.0792  1.0001
  882MOL0     C18978   3.002   9.147  12.993  0.0625  0.8786 -1.6528
  882MOL0     C18979   3.016   9.268  13.097  0.0492 -0.3051 -0.1306
  882MOL0    Cl18980   3.194   9.313  13.114  0.4343  0.4064 -0.4147
  882MOL0     C18981   2.489   8.598  12.529 -0.6634  0.2103  0.0880
  882MOL0     C18982   2.445   8.515  12.428 -0.6570  1.3691  0.4821
  882MOL0     O18983   2.407   8.113  12.432 -0.1402  0.1373  0.2742
  882MOL0     C18984   2.391   8.159  12.076  0.4939  0.0508 -0.2587
  882MOL0     C18985   2.365   8.084  11.960  0.6485 -0.8690  0.0702
  882MOL0     N18986   2.728   7.688  11.452 -0.3223  0.3099  0.2869
  882MOL0     N18987   2.777   7.754  11.357  0.9348  0.1698 -0.3295
  882MOL0     C18988   2.982   8.322  10.368 -0.1997  0.0623  0.8970
  882MOL0     C18989   3.100   8.370  10.304  0.8694 -0.2827 -0.2610
  882MOL0     C18990   3.463   8.484  10.063 -0.6488 -0.0226 -0.1618
  882MOL0     C18991   3.505   8.612  10.037  0.6264 -0.3020  1.4568
  882MOL0     C18992   3.608   8.652   9.943  0.0856  0.5102 -0.7649
  882MOL0     C18993   3.674   8.555   9.867 -0.5989 -0.3112 -0.5877
  882MOL0     O18994   3.773   8.601   9.786  0.1940  0.7359  0.2747
  882MOL0     C18995   3.876   8.505   9.743 -0.1385  0.4007  0.0085
  882MOL0     C18996   3.969   8.449   9.856 -0.5190 -0.0876 -0.2942
  882MOL0     C18997   4.037   8.550   9.946  0.1912 -0.4837  0.4875
  882MOL0     C18998   4.128   8.496  10.055  0.4774 -0.6324  0.6422
  882MOL0     C18999   4.057   8.454  10.182  0.4111 -0.1097 -0.1190
  882MOL0     C19000   4.004   8.423  10.287  0.5033  0.6204  0.2210
  882MOL0     C19001   3.639   8.418   9.889  0.2393  0.3220 -0.2360
  882MOL0     C19002   3.538   8.389   9.986  0.5787  1.2456  0.4914
  882MOL0     H19003   3.232   8.087  10.204  0.1295  1.0707 -0.6955
  882MOL0     H19004   3.041   7.990  10.362 -2.7227 -0.0008 -0.2263
  882MOL0     H19005   2.746   8.305  10.463  1.7610  0.9910  0.0267
  882MOL0     H19006   2.676   8.145  10.523  0.1696  0.7169 -0.3468
  882MOL0     H19007   2.906   8.324  10.634 -1.1767  1.7539  0.9570
  882MOL0     H19008   2.755   8.339  10.703 -3.1341 -1.9707 -1.0830
  882MOL0     H19009   2.908   8.081  10.720 -0.7429 -0.1869 -3.2310
  882MOL0     H19010   2.872   8.201  10.849 -0.0738  1.2768 -1.1656
  882MOL0     H19011   2.616   8.144  10.789 -1.3968 -2.3615  0.4552
  882MOL0     H19012   2.692   8.003  10.717  1.2213  0.7890 -0.2340
  882MOL0     H19013   2.795   7.955  10.939  0.9766 -0.4877 -2.6183
  882MOL0     H19014   2.711   8.103  11.003  0.2397 -0.0491  0.4223
  882MOL0     H19015   2.505   8.012  10.965 -0.7337 -1.0645 -1.4312
  882MOL0     H19016   2.570   7.871  10.866 -1.1829 -0.0247  0.0242
  882MOL0     H19017   2.498   7.820  11.106  0.0406  0.7992  0.7251
  882MOL0     H19018   2.633   7.750  11.047 -5.7609 -1.3332  0.9641
  882MOL0     H19019   2.614   7.999  11.221  1.2960 -0.4223  1.8306
  882MOL0     H19020   2.771   7.933  11.169  0.6521 -0.5779 -1.7445
  882MOL0     H19021   2.459   7.856  11.381 -0.6963  1.4122  0.3619
  882MOL0     H19022   2.513   7.568  11.602  0.7688 -0.1429  2.7806
  882MOL0     H19023   2.571   7.701  11.691  1.7616 -3.0186  0.1074
  882MOL0     H19024   2.300   7.684  11.516  0.0053  0.1421 -0.8018
  882MOL0     H19025   2.359   7.832  11.603  1.5380 -0.6835  4.1701
  882MOL0     H19026   2.326   7.575  11.734 -0.7745  0.4539  3.3363
  882MOL0     H19027   2.187   7.660  11.716  0.0324 -0.4946  0.2094
  882MOL0     H19028   2.409   7.674  11.899 -0.4158 -1.6997 -0.6173
  882MOL0     H19029   2.244   7.743  11.917 -0.3693 -0.3301 -0.6847
  882MOL0     H19030   2.486   7.795  12.078  1.4794  0.9718  1.4864
  882MOL0     H19031   2.606   7.947  12.355 -1.5584  3.2793 -1.3359
  882MOL0     H19032   2.451   7.868  12.396  0.5021  1.0455  0.0006
  882MOL0     H19033   2.567   7.785  12.295  1.0291 -0.4777  1.8704
  882MOL0     H19034   2.638   8.237  12.486  1.5726 -0.1182  0.2860
  882MOL0     H19035   2.706   8.383  12.685  0.5881  2.4113  0.0955
  882MOL0     H19036   2.620   8.699  12.890  1.2574 -0.1429  0.8547
  882MOL0     H19037   2.634   8.538  12.853 -1.3629  0.5103 -1.6464
  882MOL0     H19038   2.841   8.629  12.952 -0.4105  1.2892  0.1633
  882MOL0     H19039   2.894   8.616  12.792  1.9868 -2.8053  2.5174
  882MOL0     H19040   2.792   8.885  12.916 -0.7592 -0.0193 -0.5081
  882MOL0     H19041   2.798   8.848  12.751 -0.8700 -2.0731 -0.9951
  882MOL0     H19042   3.042   8.803  12.772 -2.6149 -1.1293 -1.5756
  882MOL0     H19043   2.983   8.963  12.782  1.1438 -1.3291 -2.2999
  882MOL0     H19044   3.160   8.890  12.957 -0.6670 -0.8806 -2.1644
  882MOL0     H19045   3.042   8.795  13.040 -0.5456 -0.5050 -0.5368
  882MOL0     H19046   2.910   8.985  13.101  1.9859 -4.0215  2.7144
  882MOL0     H19047   3.074   9.027  13.155  0.1843  0.5980  1.0222
  882MOL0     H19048   2.913   9.155  12.930 -0.9894  0.0710 -0.3262
  882MOL0     H19049   3.092   9.153  12.931  2.2008 -1.0941  1.0022
  882MOL0     H19050   2.964   9.231  13.186 -2.2006  1.8807 -0.4009
  882MOL0     H19051   2.965   9.357  13.059  2.4135  0.9449 -0.5585
  882MOL0     H19052   2.463   8.703  12.539  1.3847  0.8268 -0.6183
  882MOL0     H19053   2.373   8.549  12.356  2.1463 -0.5070 -3.6159
  882MOL0     H19054   2.358   8.262  12.065 -2.5372 -1.0674 -3.5011
  882MOL0     H19055   2.333   8.132  11.868  1.4200  0.5369  0.5152
  882MOL0     H19056   2.919   8.404  10.402  0.6651  0.3036  1.9859
  882MOL0     H19057   3.108   8.478  10.295 -1.5769  0.0390  0.7580
  882MOL0     H19058   3.451   8.692  10.087 -1.4985  0.0309 -1.0918
  882MOL0     H19059   3.650   8.752   9.950  1.8731 -0.2114 -0.7245
  882MOL0     H19060   3.824   8.427   9.688 -1.2037  2.0282 -1.4122
  882MOL0     H19061   3.935   8.560   9.668 -0.6057  0.2514 -0.4683
  882MOL0     H19062   4.053   8.398   9.809 -0.4843  0.3035 -0.6632
  882MOL0     H19063   3.907   8.381   9.916 -2.3282  0.7129 -1.1610
  882MOL0     H19064   3.958   8.592  10.009  0.7744  2.0069 -0.3016
  882MOL0     H19065   4.097   8.616   9.883  1.8408 -3.0979 -0.8558
  882MOL0     H19066   4.201   8.566  10.096  0.9080 -1.6069  1.6021
  882MOL0     H19067   4.192   8.413  10.023 -1.8116 -2.9372  1.6499
  882MOL0     H19068   3.981   8.412  10.391 -0.0943 -0.6430 -0.0296
  882MOL0     H19069   3.664   8.337   9.821 -3.7638 -3.5856  2.3765
  882MOL0     H19070   3.516   8.283   9.994 -0.0178  0.7628 -4.6074
  883MOL0     O19071   1.661   1.808   9.979 -0.2129 -0.1378 -0.4379
  883MOL0     C19072   1.625   1.761   9.871 -0.6899 -0.2882 -0.3587
  883MOL0     O19073   1.505   1.705   9.846 -0.4545 -0.3876 -0.3876
  883MOL0     C19074   1.418   1.703   9.953 -1.1492  0.0276 -0.7676
  883MOL0     C19075   1.392   1.589  10.025  0.1952  0.0357  1.1597
  883MOL0     C19076   1.306   1.596  10.141  0.7815 -0.4137  0.8589
  883MOL0     C19077   1.233   1.717  10.176  0.3580 -0.0960 -0.1207
  883MOL0     O19078   1.128   1.723  10.265 -0.7736 -0.1686  0.1016
  883MOL0     C19079   1.151   1.672  10.390 -1.0572  0.3828 -0.1349
  883MOL0     C19080   1.231   1.768  10.478 -0.3423 -0.3791  0.6427
  883MOL0     C19081   1.191   1.919  10.461  0.5527  0.5581  0.2606
  883MOL0     C19082   1.037   1.952  10.458 -0.0507  0.0700  0.2447
  883MOL0     C19083   0.968   1.950  10.590 -0.6889 -0.5721  0.0363
  883MOL0     C19084   1.016   2.043  10.706 -0.8865 -0.2161  0.8600
  883MOL0     C19085   0.948   2.012  10.839 -0.5554  0.0725 -0.1186
  883MOL0     C19086   1.023   2.092  10.947  0.6259  0.1091  0.0823
  883MOL0     N19087   0.946   2.071  11.074 -0.3789  0.0378  0.2900
  883MOL0     C19088   1.015   2.091  11.193  0.7147  0.3596 -0.0847
  883MOL0     C19089   0.911   2.071  11.285  0.3241  1.1391  0.1059
  883MOL0     C19090   0.938   2.069  11.432 -0.4151  0.3207 -0.5415
  883MOL0     C19091   0.826   2.050  11.528  0.0662  0.6157  0.1290
  883MOL0     C19092   0.795   1.909  11.565  0.0390 -0.2161  0.4753
  883MOL0     C19093   0.658   1.915  11.634  0.4687 -0.0574  0.4449
  883MOL0     O19094   0.623   1.783  11.677  0.0576  0.5011 -0.2153
  883MOL0     C19095   0.493   1.750  11.662  0.3926  0.4530  0.3867
  883MOL0     C19096   0.461   1.625  11.605  0.2851  0.0129 -0.4181
  883MOL0     C19097   0.327   1.577  11.598 -1.3004 -0.2448  0.4416
  883MOL0     C19098   0.310   1.440  11.519 -0.7802 -0.5752  0.4571
  883MOL0     C19099   0.225   1.650  11.665 -0.5873  0.3765  0.7356
  883MOL0     C19100   0.083   1.596  11.668  0.8110 -0.8806  0.5686
  883MOL0     O19101   0.020   1.618  11.789  0.6206 -0.9344  0.4585
  883MOL0     C19102  -0.103   1.557  11.795  0.2651 -0.5789  0.0783
  883MOL0     C19103  -0.109   1.419  11.817  0.2185 -0.7425 -0.0778
  883MOL0     C19104  -0.222   1.347  11.847 -0.6054 -0.1751 -0.2924
  883MOL0     C19105  -0.343   1.420  11.859  0.1129  0.3790  0.1444
  883MOL0     O19106  -0.466   1.369  11.899 -0.6244 -0.6145  0.1694
  883MOL0     C19107  -0.512   1.240  11.855  0.1286  0.7637  0.2517
  883MOL0     C19108  -0.662   1.217  11.877 -0.1218 -0.1471 -0.6395
  883MOL0     C19109  -0.710   1.110  11.781  0.7444 -0.1959 -0.6183
  883MOL0     C19110  -0.646   0.979  11.786  0.3499 -0.3770 -0.2255
  883MOL0     C19111  -0.680   0.910  11.652  0.0977  0.1227  0.0774
  883MOL0     C19112  -0.630   0.768  11.651  0.7627  0.6457 -0.7905
  883MOL0     C19113  -0.687   0.689  11.529  0.0306  0.1196  0.1268
  883MOL0     C19114  -0.590   0.575  11.487  0.3148  0.8133  0.2670
  883MOL0    Cl19115  -0.583   0.462  11.609 -0.4371  0.3334  0.1330
  883MOL0     C19116  -0.342   1.552  11.835  0.0156 -0.2396  0.0817
  883MOL0     C19117  -0.230   1.628  11.802 -1.1454 -0.2336 -0.4081
  883MOL0     O19118   0.028   1.555  11.563 -0.5063 -0.4239  0.4285
  883MOL0     C19119   0.263   1.774  11.723  0.7907 -0.3835 -0.0517
  883MOL0     C19120   0.398   1.820  11.727  0.5601 -0.2379  0.5391
  883MOL0     N19121   0.794   2.025  11.221 -1.1886  0.7909  0.4315
  883MOL0     N19122   0.822   2.032  11.097 -0.0108  0.1267  0.1906
  883MOL0     C19123   1.276   1.831  10.109  0.5400  0.7639  0.8632
  883MOL0     C19124   1.364   1.826  10.000 -0.4532 -0.6062 -0.2896
  883MOL0     C19125   1.720   1.762   9.763  0.3441  1.0267  0.4767
  883MOL0     C19126   1.852   1.790   9.784 -0.5503 -0.3806  0.2329
  883MOL0     C19127   1.946   1.797   9.679  0.4530 -0.2059 -0.2492
  883MOL0     C19128   1.915   1.763   9.556 -0.4860  0.5023  0.4134
  883MOL0     O19129   2.004   1.759   9.450 -0.3433 -0.7095  0.5636
  883MOL0     C19130   2.136   1.808   9.477 -0.1579  0.1902 -0.3437
  883MOL0     C19131   2.212   1.837   9.340  0.0542  0.4928  0.0018
  883MOL0     C19132   2.332   1.932   9.374  0.1791  0.9516  0.1565
  883MOL0     C19133   2.432   1.877   9.474 -0.4878  0.5299 -0.3401
  883MOL0     C19134   2.502   1.762   9.423 -0.4849 -0.4920  0.5393
  883MOL0     C19135   2.559   1.656   9.393  0.0078 -0.4526  0.8304
  883MOL0     C19136   1.788   1.708   9.533 -0.7368 -0.1402 -0.3705
  883MOL0     C19137   1.694   1.711   9.638  0.2267  0.0016 -0.2456
  883MOL0     H19138   1.438   1.502   9.980 -0.0773 -0.5040  1.9041
  883MOL0     H19139   1.277   1.494  10.165  1.5107 -0.5775  1.0756
  883MOL0     H19140   1.056   1.654  10.441 -1.5164  1.6057 -0.5222
  883MOL0     H19141   1.219   1.586  10.392 -0.1243  1.0584 -1.1994
  883MOL0     H19142   1.216   1.734  10.581 -4.2933 -1.3795 -0.1319
  883MOL0     H19143   1.340   1.764  10.465 -0.4178 -0.0153 -0.1856
  883MOL0     H19144   1.242   1.963  10.547 -0.7808 -0.8489  1.8420
  883MOL0     H19145   1.233   1.961  10.370 -2.5236 -3.3360 -3.3520
  883MOL0     H19146   1.033   2.053  10.415 -1.4110 -0.6513 -1.4217
  883MOL0     H19147   0.992   1.884  10.386  0.4968  3.5835 -3.8122
  883MOL0     H19148   0.860   1.965  10.585 -0.7378 -0.6950  0.6382
  883MOL0     H19149   0.992   1.854  10.637  0.3924  1.7443  4.8621
  883MOL0     H19150   1.124   2.028  10.713 -0.8862 -1.6460 -1.1464
  883MOL0     H19151   0.988   2.145  10.678 -1.6098 -0.9233 -1.2527
  883MOL0     H19152   0.841   2.029  10.823 -0.8320 -0.7527  0.7480
  883MOL0     H19153   0.972   1.908  10.865  0.6565  0.2747 -0.3695
  883MOL0     H19154   1.023   2.199  10.927  3.9216 -0.0397 -1.3920
  883MOL0     H19155   1.130   2.070  10.954  0.3656 -0.7235  2.7118
  883MOL0     H19156   1.119   2.105  11.219  0.6574  1.3824 -0.3950
  883MOL0     H19157   1.012   1.988  11.438  0.4062  0.6647 -3.8624
  883MOL0     H19158   0.984   2.161  11.469  1.0481 -1.2229  1.7742
  883MOL0     H19159   0.736   2.098  11.487 -2.5382 -1.7564  2.6595
  883MOL0     H19160   0.863   2.088  11.623  0.3020 -0.6680  0.5576
  883MOL0     H19161   0.874   1.862  11.626  0.2375 -3.0384 -1.7213
  883MOL0     H19162   0.779   1.843  11.479  0.3953 -1.3767  1.2715
  883MOL0     H19163   0.585   1.944  11.557 -0.1254 -2.7642 -0.0889
  883MOL0     H19164   0.657   1.992  11.712  1.3684  1.5424 -1.0368
  883MOL0     H19165   0.537   1.569  11.553 -1.7172 -0.3203 -3.2339
  883MOL0     H19166   0.382   1.428  11.437 -0.9710  0.5731  0.0948
  883MOL0     H19167   0.323   1.357  11.589 -1.0397 -1.6943 -0.7771
  883MOL0     H19168   0.213   1.437  11.469  1.2040 -0.9847 -3.7859
  883MOL0     H19169  -0.010   1.376  11.830  1.0588 -0.4158 -4.0593
  883MOL0     H19170  -0.211   1.244  11.877 -2.5582 -1.4099 -3.3425
  883MOL0     H19171  -0.480   1.210  11.755  0.1825  2.5580 -0.2972
  883MOL0     H19172  -0.459   1.190  11.936  1.1377 -0.9738 -1.4114
  883MOL0     H19173  -0.689   1.199  11.981 -3.2116 -3.0212 -1.7455
  883MOL0     H19174  -0.719   1.309  11.860  2.1667  1.6481  0.8250
  883MOL0     H19175  -0.696   1.158  11.684  0.8936  1.1159  0.0295
  883MOL0     H19176  -0.818   1.107  11.795  0.9636  1.4320  2.2415
  883MOL0     H19177  -0.538   0.993  11.786  0.6121 -2.0042  1.8492
  883MOL0     H19178  -0.682   0.918  11.869 -0.5234 -1.5054 -1.3893
  883MOL0     H19179  -0.635   0.976  11.577 -0.6143 -1.3925 -1.7735
  883MOL0     H19180  -0.788   0.900  11.636  0.0972 -2.9660  1.3200
  883MOL0     H19181  -0.521   0.778  11.646  0.9061 -0.3548 -0.0710
  883MOL0     H19182  -0.667   0.715  11.740 -3.0312  1.8617 -1.4702
  883MOL0     H19183  -0.706   0.760  11.448 -2.2710 -0.2270  0.2783
  883MOL0     H19184  -0.792   0.664  11.548 -0.5613  1.9765 -0.5284
  883MOL0     H19185  -0.485   0.600  11.466  0.4386  0.5302  0.5212
  883MOL0     H19186  -0.626   0.539  11.391  4.1956  1.8304 -1.7975
  883MOL0     H19187  -0.436   1.605  11.851 -0.5014 -1.3476  0.8869
  883MOL0     H19188  -0.243   1.732  11.777 -2.8331 -0.4976 -0.7306
  883MOL0     H19189   0.182   1.826  11.773  0.5877 -0.7587  0.0098
  883MOL0     H19190   0.423   1.912  11.777 -0.8792  1.5288 -1.7702
  883MOL0     H19191   1.241   1.924  10.153  3.2253  1.1692  2.3533
  883MOL0     H19192   1.391   1.920   9.952 -1.9010 -1.6103 -3.3011
  883MOL0     H19193   1.901   1.824   9.875  1.6091 -0.4111 -0.8695
  883MOL0     H19194   2.048   1.825   9.706  0.7412 -0.1365 -1.3481
  883MOL0     H19195   2.142   1.896   9.541 -1.5003 -1.3736  2.0907
  883MOL0     H19196   2.185   1.721   9.522 -1.4589 -1.1574 -1.4241
  883MOL0     H19197   2.137   1.890   9.281 -0.7521 -0.2982  0.2875
  883MOL0     H19198   2.250   1.750   9.286 -1.3940  0.2749 -0.7133
  883MOL0     H19199   2.295   2.029   9.409 -0.6597  0.1540  1.5633
  883MOL0     H19200   2.396   1.945   9.286 -0.4753  1.1982 -0.2902
  883MOL0     H19201   2.384   1.829   9.560 -2.0819 -0.4443 -1.7191
  883MOL0     H19202   2.508   1.944   9.514  0.9786 -0.5688 -1.2010
  883MOL0     H19203   2.621   1.572   9.368  1.0820  0.5934 -0.1526
  883MOL0     H19204   1.760   1.682   9.431 -0.0757  2.0356 -1.1476
  883MOL0     H19205   1.590   1.683   9.628 -0.9618  1.7881  4.3353
  884MOL0     O19206   1.874   5.950   5.759 -1.0067 -0.1893  0.4121
  884MOL0     C19207   1.937   5.996   5.665  1.0162  0.1493  0.6036
  884MOL0     O19208   2.071   6.031   5.667  0.0352  0.0808  0.1886
  884MOL0     C19209   2.150   6.024   5.770  0.0322  0.0901 -0.6772
  884MOL0     C19210   2.286   6.021   5.733 -0.7466 -0.4190 -0.1113
  884MOL0     C19211   2.393   6.004   5.830 -0.6098  0.0294  0.8364
  884MOL0     C19212   2.361   5.987   5.967  0.4098 -0.4465  1.1481
  884MOL0     O19213   2.452   5.963   6.056 -0.4569 -0.2327  0.2384
  884MOL0     C19214   2.552   6.067   6.065  0.1750  1.1036 -0.4268
  884MOL0     C19215   2.623   6.051   6.211  0.6768 -0.4524 -0.3047
  884MOL0     C19216   2.525   6.064   6.336  0.2908  0.1233 -0.5080
  884MOL0     C19217   2.466   6.207   6.335  0.5050 -0.0598  0.4731
  884MOL0     C19218   2.400   6.245   6.471 -0.2554 -0.2945 -0.1514
  884MOL0     C19219   2.504   6.308   6.559  0.2693 -0.6662  0.7641
  884MOL0     C19220   2.452   6.394   6.680  0.3162  0.1456  0.1392
  884MOL0     C19221   2.371   6.519   6.655 -0.4310 -0.3946  0.7907
  884MOL0     N19222   2.374   6.601   6.780 -0.2496  0.2011  0.7346
  884MOL0     C19223   2.459   6.708   6.799  0.7762 -0.0105  0.0373
  884MOL0     C19224   2.396   6.774   6.898 -0.2546 -0.1872 -0.1711
  884MOL0     C19225   2.440   6.897   6.960 -0.5089 -0.7909 -1.4867
  884MOL0     C19226   2.520   6.980   6.859 -0.7604 -0.2432 -0.6782
  884MOL0     C19227   2.535   7.138   6.893  0.5967  0.9593 -0.2479
  884MOL0     C19228   2.409   7.220   6.894 -0.9230 -0.0308  0.0860
  884MOL0     O19229   2.418   7.361   6.893  0.7269 -0.4973  0.0644
  884MOL0     C19230   2.318   7.438   6.853 -0.2466 -0.1158  1.6128
  884MOL0     C19231   2.341   7.576   6.884 -0.9400  0.7744 -0.1690
  884MOL0     C19232   2.250   7.671   6.838 -0.6711  0.0651 -0.2597
  884MOL0     C19233   2.279   7.814   6.872 -0.4527  0.6568 -0.2316
  884MOL0     C19234   2.129   7.637   6.781  0.4723 -0.2737  0.8817
  884MOL0     C19235   2.019   7.728   6.745  0.6367  0.1127  0.1667
  884MOL0     O19236   1.937   7.773   6.849 -0.1510 -0.0333  0.7452
  884MOL0     C19237   1.816   7.828   6.811 -0.2312  0.4798  1.9458
  884MOL0     C19238   1.794   7.965   6.828 -0.6787  0.5615  0.3796
  884MOL0     C19239   1.682   8.030   6.765  0.5503 -1.0671 -0.2505
  884MOL0     C19240   1.585   7.950   6.690 -0.3437 -0.1896  0.4948
  884MOL0     O19241   1.483   8.006   6.616 -0.2352 -0.0990  0.1030
  884MOL0     C19242   1.481   8.153   6.594  0.0266  1.8222 -0.1795
  884MOL0     C19243   1.354   8.176   6.506  0.3783 -0.1621 -0.0952
  884MOL0     C19244   1.333   8.322   6.481 -0.4435  0.2924 -0.6448
  884MOL0     C19245   1.241   8.353   6.367 -0.8620  0.0193  0.6121
  884MOL0     C19246   1.272   8.486   6.305  0.6963  0.7924  0.8284
  884MOL0     C19247   1.278   8.595   6.395  0.5379 -0.1082 -0.0171
  884MOL0     C19248   1.390   8.695   6.351 -0.5107  0.5504  0.1701
  884MOL0     C19249   1.429   8.786   6.464  0.4324  0.0894  0.3152
  884MOL0    Cl19250   1.547   8.898   6.401  0.3087  0.1355  0.4571
  884MOL0     C19251   1.608   7.813   6.684 -0.3799 -0.4455 -0.5335
  884MOL0     C19252   1.721   7.752   6.743  0.0868  0.6467 -0.2455
  884MOL0     O19253   2.015   7.758   6.617 -0.1880  0.3951 -0.6801
  884MOL0     C19254   2.107   7.502   6.752 -0.7334  0.5817  0.4097
  884MOL0     C19255   2.195   7.407   6.798 -0.1573  0.6645 -0.2879
  884MOL0     N19256   2.285   6.708   6.944 -0.7462 -0.8334  0.6234
  884MOL0     N19257   2.276   6.600   6.877  0.5357  0.4580 -0.7724
  884MOL0     C19258   2.231   6.004   6.010  0.2360 -0.6803  0.1066
  884MOL0     C19259   2.129   6.026   5.914  0.2119  0.4530  0.2366
  884MOL0     C19260   1.871   6.026   5.539 -0.2797 -0.0345 -0.3299
  884MOL0     C19261   1.953   6.027   5.424  0.5032 -0.2448  0.4127
  884MOL0     C19262   1.889   6.021   5.300 -0.8046 -0.1542 -0.0148
  884MOL0     C19263   1.749   6.028   5.289  0.6500 -0.5581 -0.1840
  884MOL0     O19264   1.692   6.047   5.171 -0.4707  0.2229  0.6947
  884MOL0     C19265   1.766   6.066   5.052 -1.1198  0.1724  0.0055
  884MOL0     C19266   1.674   6.117   4.950  0.2868  1.2407 -0.5405
  884MOL0     C19267   1.617   6.259   4.984 -0.7168  0.5419 -0.1906
  884MOL0     C19268   1.526   6.325   4.870  0.1950  1.0113 -0.7796
  884MOL0     C19269   1.414   6.386   4.932 -0.1452 -0.0676  0.6298
  884MOL0     C19270   1.304   6.430   4.970  0.4375  0.7310 -0.0872
  884MOL0     C19271   1.665   6.034   5.409 -1.2344 -0.3384  1.0097
  884MOL0     C19272   1.733   6.027   5.534  0.5142  0.1888  0.2986
  884MOL0     H19273   2.329   6.026   5.634  2.5664 -1.3358  1.1352
  884MOL0     H19274   2.495   5.990   5.796 -0.8165 -6.1539  1.7385
  884MOL0     H19275   2.626   6.050   5.987 -1.6982 -0.0809 -2.0515
  884MOL0     H19276   2.519   6.171   6.065 -0.9852  0.7497 -0.4763
  884MOL0     H19277   2.654   5.948   6.231 -0.4848 -0.5964  0.9271
  884MOL0     H19278   2.712   6.113   6.220 -0.1889  0.7905  0.0110
  884MOL0     H19279   2.458   5.978   6.332  1.7245 -1.0521 -0.5182
  884MOL0     H19280   2.585   6.052   6.427 -0.0811 -1.6439 -0.4661
  884MOL0     H19281   2.540   6.278   6.295 -0.4840  0.3486 -0.6967
  884MOL0     H19282   2.386   6.199   6.261  1.1697  0.7798 -0.3798
  884MOL0     H19283   2.332   6.328   6.448 -0.4291  0.0807  1.5726
  884MOL0     H19284   2.348   6.162   6.519  0.0509 -0.1121  0.5078
  884MOL0     H19285   2.568   6.226   6.594  2.6133  0.7136 -0.0434
  884MOL0     H19286   2.563   6.381   6.502  1.6734 -2.5428 -0.3137
  884MOL0     H19287   2.392   6.330   6.745 -1.6700  0.7449 -1.0362
  884MOL0     H19288   2.546   6.414   6.732  0.4124  2.2727 -0.7886
  884MOL0     H19289   2.272   6.501   6.613  0.8849 -1.8858 -1.9773
  884MOL0     H19290   2.433   6.569   6.580  0.1329 -0.1763  1.3915
  884MOL0     H19291   2.541   6.748   6.741  0.6515  1.1073  0.6186
  884MOL0     H19292   2.348   6.947   6.992  1.3821  1.7761  0.4171
  884MOL0     H19293   2.481   6.874   7.059 -4.6365 -0.7345  0.4449
  884MOL0     H19294   2.480   6.967   6.758 -0.7935  1.8633 -0.9710
  884MOL0     H19295   2.613   6.922   6.850 -1.2608 -1.9014  3.0265
  884MOL0     H19296   2.609   7.173   6.821  0.1907  1.3572 -0.4777
  884MOL0     H19297   2.576   7.141   6.995  3.7654  3.3834 -1.4131
  884MOL0     H19298   2.343   7.184   6.973 -1.7277 -2.9428 -1.7420
  884MOL0     H19299   2.364   7.191   6.798 -0.3305 -1.7083  0.2951
  884MOL0     H19300   2.428   7.616   6.935 -0.2230  1.1324 -1.5953
  884MOL0     H19301   2.295   7.858   6.773 -1.6667 -1.8115 -1.6084
  884MOL0     H19302   2.198   7.873   6.915 -0.9422  0.5882 -1.0466
  884MOL0     H19303   2.364   7.826   6.940 -2.0490  0.1600  1.9535
  884MOL0     H19304   1.863   8.026   6.886  1.8703 -0.4011 -1.4789
  884MOL0     H19305   1.663   8.136   6.780 -0.1782 -1.3228  0.6841
  884MOL0     H19306   1.468   8.214   6.684 -3.5454  1.1296 -0.0701
  884MOL0     H19307   1.563   8.190   6.532  0.3416 -2.1577 -2.4932
  884MOL0     H19308   1.357   8.117   6.414 -1.4492  0.7786 -0.8076
  884MOL0     H19309   1.261   8.137   6.550  1.5580 -2.9344  0.1351
  884MOL0     H19310   1.431   8.368   6.467  0.3465 -0.9564  0.3875
  884MOL0     H19311   1.282   8.366   6.567 -0.1047  0.9896 -0.7925
  884MOL0     H19312   1.254   8.276   6.290 -0.2204 -2.1355  2.7367
  884MOL0     H19313   1.138   8.341   6.401 -0.9095 -2.5668 -0.2215
  884MOL0     H19314   1.203   8.522   6.227 -0.2949 -1.6903  0.4725
  884MOL0     H19315   1.372   8.485   6.262  0.7671  1.1730  0.9804
  884MOL0     H19316   1.184   8.650   6.389  1.1893  0.9611 -0.8269
  884MOL0     H19317   1.281   8.566   6.500 -0.5250 -2.4578 -0.5798
  884MOL0     H19318   1.349   8.751   6.267 -0.1130 -1.0799 -1.1656
  884MOL0     H19319   1.480   8.641   6.321 -0.6101  1.4282 -1.8542
  884MOL0     H19320   1.474   8.737   6.552  2.9250 -0.6355 -1.2523
  884MOL0     H19321   1.335   8.827   6.501  1.0155 -2.4789  5.6347
  884MOL0     H19322   1.537   7.748   6.635 -0.4819 -1.0058  0.3303
  884MOL0     H19323   1.723   7.643   6.738  1.9647  0.6951 -1.7442
  884MOL0     H19324   2.021   7.459   6.702  2.3648 -3.6752 -1.8837
  884MOL0     H19325   2.156   7.309   6.774  0.7981  0.2954 -0.3704
  884MOL0     H19326   2.195   6.000   6.113 -0.5985  0.7849 -0.0894
  884MOL0     H19327   2.030   6.037   5.955 -0.0509 -2.8170  0.7481
  884MOL0     H19328   2.061   6.041   5.424  0.5174 -0.3220  0.0027
  884MOL0     H19329   1.961   6.043   5.221 -0.8841  1.5332  0.3382
  884MOL0     H19330   1.844   6.139   5.076  1.1760 -2.3119  0.5846
  884MOL0     H19331   1.812   5.969   5.032  0.3715  0.7492  0.4992
  884MOL0     H19332   1.595   6.042   4.948 -0.7635  2.2494 -4.1095
  884MOL0     H19333   1.730   6.113   4.856 -0.7894  0.6610 -1.1755
  884MOL0     H19334   1.701   6.323   5.014 -0.1370 -0.2437 -0.1210
  884MOL0     H19335   1.551   6.247   5.071 -2.9601  1.4220 -1.6677
  884MOL0     H19336   1.495   6.259   4.789 -1.5336 -0.6394  1.1166
  884MOL0     H19337   1.590   6.402   4.826 -0.0164  0.6782 -1.6793
  884MOL0     H19338   1.210   6.465   5.006  0.5118 -0.5275  1.4262
  884MOL0     H19339   1.557   6.026   5.402 -1.1847 -3.0647  2.2200
  884MOL0     H19340   1.673   6.026   5.624 -0.7506  1.0923 -0.5000
  885MOL0     O19341   4.589   2.098   4.747  0.2639 -0.1500  0.0286
  885MOL0     C19342   4.545   2.076   4.629 -0.6874  0.2680 -0.4069
  885MOL0     O19343   4.617   2.090   4.513 -0.2904  1.0210  0.7471
  885MOL0     C19344   4.741   2.133   4.533 -0.1072 -0.0702  0.2824
  885MOL0     C19345   4.850   2.066   4.481 -0.4903 -0.4745 -0.4440
  885MOL0     C19346   4.983   2.118   4.500 -0.4491  0.3496 -0.4295
  885MOL0     C19347   5.014   2.238   4.569  1.1007  0.3522 -0.6968
  885MOL0     O19348   5.142   2.278   4.606  0.5907 -0.3283  0.2045
  885MOL0     C19349   5.253   2.220   4.532  0.2659 -1.0804 -0.6713
  885MOL0     C19350   5.393   2.262   4.602 -0.1641  0.7696 -0.3682
  885MOL0     C19351   5.428   2.411   4.558  0.3677  0.7266 -0.6855
  885MOL0     C19352   5.552   2.467   4.627  0.2942 -0.1984 -0.5420
  885MOL0     C19353   5.569   2.613   4.607  0.7789  1.0416 -0.1698
  885MOL0     C19354   5.624   2.659   4.473  0.7005  0.4080  0.8684
  885MOL0     C19355   5.656   2.808   4.463  0.4400 -0.6119  0.2487
  885MOL0     C19356   5.542   2.911   4.496  0.7125 -0.3724  0.8872
  885MOL0     N19357   5.579   3.022   4.589  0.5619 -0.5217 -0.5962
  885MOL0     C19358   5.652   3.125   4.560 -0.0381 -0.7096 -0.2204
  885MOL0     C19359   5.702   3.176   4.678  0.2834  0.2767 -0.4121
  885MOL0     C19360   5.801   3.288   4.686 -0.4204 -0.3615 -0.3659
  885MOL0     C19361   5.745   3.434   4.673  1.2054 -0.1990  0.2144
  885MOL0     C19362   5.858   3.525   4.608 -0.3675 -0.2614 -0.4566
  885MOL0     C19363   5.956   3.563   4.718 -0.4110 -0.9276 -0.3776
  885MOL0     O19364   6.058   3.455   4.738 -0.8293  0.3870  1.1537
  885MOL0     C19365   6.175   3.493   4.802  0.4497  0.3680  0.1516
  885MOL0     C19366   6.280   3.401   4.799  0.6929  0.5904 -0.1953
  885MOL0     C19367   6.408   3.435   4.852 -0.1068  0.4345 -0.2590
  885MOL0     C19368   6.514   3.334   4.838  0.2419 -0.0325  0.6975
  885MOL0     C19369   6.433   3.551   4.929 -0.0131 -0.0046 -0.3114
  885MOL0     C19370   6.553   3.585   4.995  0.2213 -0.1952 -0.0051
  885MOL0     O19371   6.585   3.717   4.994  0.0571  0.7969 -0.1065
  885MOL0     C19372   6.682   3.768   5.073 -0.0770  0.2341 -0.7431
  885MOL0     C19373   6.643   3.783   5.208  0.5016 -0.7338  0.5683
  885MOL0     C19374   6.739   3.841   5.294 -0.2171 -0.5571 -0.6773
  885MOL0     C19375   6.863   3.884   5.246  0.4096  0.4232 -0.0916
  885MOL0     O19376   6.944   3.951   5.332 -0.2091 -0.4068  0.4923
  885MOL0     C19377   7.063   3.874   5.371  0.6622 -0.2004 -0.8766
  885MOL0     C19378   7.041   3.826   5.511  0.0217  0.0592 -0.1405
  885MOL0     C19379   7.163   3.729   5.537 -0.7368  0.2091  0.1491
  885MOL0     C19380   7.220   3.765   5.672  0.4981 -0.7686  0.1027
  885MOL0     C19381   7.329   3.667   5.706  0.1286  0.4784 -0.2442
  885MOL0     C19382   7.448   3.743   5.772  0.1752 -0.3377  0.4775
  885MOL0     C19383   7.574   3.661   5.755  0.2997 -0.6048  0.9037
  885MOL0     C19384   7.699   3.709   5.839 -0.3524  0.5583  0.2195
  885MOL0    Cl19385   7.686   3.641   6.008  0.3953 -0.1709  0.0843
  885MOL0     C19386   6.899   3.864   5.115 -0.1770 -0.4682  0.2274
  885MOL0     C19387   6.805   3.801   5.025  0.1975 -0.1689 -0.9469
  885MOL0     O19388   6.626   3.503   5.041 -1.0319 -0.1369  0.2560
  885MOL0     C19389   6.323   3.641   4.930 -0.2386 -0.8298  0.2679
  885MOL0     C19390   6.191   3.614   4.865  0.1082 -0.4388 -0.4587
  885MOL0     N19391   5.641   3.110   4.779 -0.1743 -0.2950  0.4966
  885MOL0     N19392   5.573   3.013   4.723  0.2194 -0.2863 -0.6805
  885MOL0     C19393   4.899   2.307   4.615 -0.4293  0.1687 -0.1360
  885MOL0     C19394   4.770   2.257   4.598 -0.3557  0.2426 -0.8106
  885MOL0     C19395   4.414   2.009   4.611  0.1366 -0.0518  0.2968
  885MOL0     C19396   4.318   2.035   4.704 -0.6213 -0.1890  0.2092
  885MOL0     C19397   4.189   1.981   4.693  0.2626 -0.9115  0.1036
  885MOL0     C19398   4.161   1.890   4.594 -0.5634 -0.6165  0.1683
  885MOL0     O19399   4.029   1.862   4.587 -0.2766  0.6101 -0.9273
  885MOL0     C19400   3.969   1.741   4.537  1.3166  0.6725  0.4904
  885MOL0     C19401   3.966   1.623   4.631  0.2954  1.0768 -0.3201
  885MOL0     C19402   3.856   1.532   4.574  0.6033  0.5153  0.2379
  885MOL0     C19403   3.857   1.393   4.635  0.4570 -0.4494  0.2852
  885MOL0     C19404   3.780   1.301   4.552  0.0309  0.5693 -0.3030
  885MOL0     C19405   3.719   1.239   4.468  0.3577 -0.2122 -0.3147
  885MOL0     C19406   4.255   1.859   4.488 -0.6579  0.4723 -0.7433
  885MOL0     C19407   4.386   1.920   4.502 -0.8963  1.2319 -0.3064
  885MOL0     H19408   4.821   1.974   4.431 -0.7828 -2.0834  2.4302
  885MOL0     H19409   5.065   2.061   4.458 -0.1951  2.9310 -3.8502
  885MOL0     H19410   5.233   2.112   4.530 -1.3454 -0.8466  0.7209
  885MOL0     H19411   5.249   2.258   4.430  3.0990 -1.5013 -1.0146
  885MOL0     H19412   5.390   2.251   4.711 -1.8664  0.3223 -0.4376
  885MOL0     H19413   5.469   2.200   4.554 -0.0677  2.3747 -2.4318
  885MOL0     H19414   5.443   2.421   4.450  1.2686 -0.8004 -0.7367
  885MOL0     H19415   5.348   2.483   4.578  1.5512  2.0323 -0.4496
  885MOL0     H19416   5.534   2.452   4.734 -0.1943  0.6886 -0.4889
  885MOL0     H19417   5.643   2.411   4.605  0.0053 -3.2154  4.4606
  885MOL0     H19418   5.477   2.668   4.630 -0.4318 -0.3631 -1.3942
  885MOL0     H19419   5.648   2.629   4.681  0.9963 -0.1633 -0.1296
  885MOL0     H19420   5.703   2.594   4.434 -2.4399 -1.9833 -2.1130
  885MOL0     H19421   5.544   2.641   4.402  1.0695 -0.8166  0.7344
  885MOL0     H19422   5.751   2.831   4.512  1.3812  2.0426 -2.5061
  885MOL0     H19423   5.679   2.825   4.357  0.7671 -1.8680  0.1060
  885MOL0     H19424   5.442   2.873   4.518  1.4684 -4.0438 -1.2156
  885MOL0     H19425   5.521   2.957   4.399  0.2866 -1.1079  0.6239
  885MOL0     H19426   5.658   3.173   4.463  0.2107 -2.8624 -1.3530
  885MOL0     H19427   5.872   3.270   4.768  1.5351 -1.6650 -2.2401
  885MOL0     H19428   5.879   3.282   4.610  0.0938  0.7714  0.0371
  885MOL0     H19429   5.713   3.468   4.772 -3.7657  2.3267 -1.9155
  885MOL0     H19430   5.658   3.430   4.607  0.2318 -0.0487  1.4372
  885MOL0     H19431   5.827   3.609   4.545 -0.5108  0.2864  0.3223
  885MOL0     H19432   5.910   3.468   4.531  0.9575  2.5308 -1.7849
  885MOL0     H19433   5.900   3.591   4.809  1.0295  0.4345  0.1141
  885MOL0     H19434   6.007   3.651   4.679  0.3467 -3.4957 -6.1643
  885MOL0     H19435   6.248   3.303   4.767  4.3804 -0.1085 -2.2045
  885MOL0     H19436   6.615   3.374   4.825  0.4626 -0.6890  0.3331
  885MOL0     H19437   6.516   3.259   4.918  2.9292 -2.8592 -1.7549
  885MOL0     H19438   6.494   3.281   4.745 -2.4964 -0.3474  1.3808
  885MOL0     H19439   6.541   3.766   5.242  0.1479  2.1119  1.1532
  885MOL0     H19440   6.716   3.869   5.397  1.8481 -0.4846 -0.1984
  885MOL0     H19441   7.082   3.789   5.305  0.3194 -2.3757  1.6322
  885MOL0     H19442   7.151   3.938   5.360  1.5655 -1.3930 -0.7855
  885MOL0     H19443   7.043   3.906   5.585  2.2510 -0.9254  0.9814
  885MOL0     H19444   6.954   3.760   5.516 -0.0871  0.2240  0.1831
  885MOL0     H19445   7.247   3.757   5.473 -0.4136  3.0103  1.6077
  885MOL0     H19446   7.144   3.625   5.509 -1.0310  0.1095  0.7154
  885MOL0     H19447   7.260   3.867   5.676 -2.3604  0.4236  2.3506
  885MOL0     H19448   7.154   3.770   5.759 -1.4521  0.0984 -1.3593
  885MOL0     H19449   7.357   3.633   5.606 -1.3288  3.2033 -1.6792
  885MOL0     H19450   7.294   3.583   5.767  0.7848  0.6829  0.4358
  885MOL0     H19451   7.456   3.842   5.726 -0.5131 -1.6969 -2.8888
  885MOL0     H19452   7.435   3.746   5.880 -2.0107 -1.4782  0.3045
  885MOL0     H19453   7.603   3.662   5.650 -0.7292  0.7805  0.6066
  885MOL0     H19454   7.559   3.555   5.781 -1.9143 -0.8134 -1.0197
  885MOL0     H19455   7.708   3.818   5.849  1.2410  0.2853  2.9099
  885MOL0     H19456   7.795   3.681   5.795 -0.8053 -3.9254  1.5338
  885MOL0     H19457   6.996   3.896   5.078 -0.6402 -0.1721 -0.7749
  885MOL0     H19458   6.829   3.807   4.920 -2.2933  1.2431 -1.5228
  885MOL0     H19459   6.324   3.737   4.981 -2.2664 -0.4549 -0.3196
  885MOL0     H19460   6.112   3.688   4.864 -2.2591 -2.6703  2.1283
  885MOL0     H19461   4.913   2.394   4.679  1.0829  0.6260 -1.0255
  885MOL0     H19462   4.691   2.318   4.642 -0.7860 -2.0258  1.8648
  885MOL0     H19463   4.338   2.100   4.789  0.4682  1.0726 -0.9614
  885MOL0     H19464   4.104   1.995   4.758 -1.1237 -0.1550 -1.7670
  885MOL0     H19465   3.869   1.767   4.500  0.1722 -2.4103  1.1440
  885MOL0     H19466   4.023   1.714   4.446  2.5098  0.8237  1.1281
  885MOL0     H19467   3.946   1.636   4.737 -0.1510 -2.1440  0.0978
  885MOL0     H19468   4.059   1.565   4.626  1.4736  2.5247  2.7283
  885MOL0     H19469   3.852   1.522   4.465 -1.6314 -0.2774  0.3353
  885MOL0     H19470   3.764   1.585   4.598  0.1189  0.8776 -2.2159
  885MOL0     H19471   3.826   1.396   4.740 -0.3437 -3.3598  0.2237
  885MOL0     H19472   3.961   1.360   4.643  0.9201  0.2808 -1.9249
  885MOL0     H19473   3.679   1.180   4.388  0.9858  0.1909 -0.9359
  885MOL0     H19474   4.230   1.789   4.409  1.4352 -0.2614 -0.8116
  885MOL0     H19475   4.464   1.896   4.430 -2.0517 -2.0763 -0.6288
  886MOL0     O19476   8.916  11.459   6.005  0.0656  0.8275 -0.5896
  886MOL0     C19477   8.843  11.359   6.010 -0.5778 -0.1141 -0.5139
  886MOL0     O19478   8.775  11.301   5.907  0.2832 -0.1105 -0.5573
  886MOL0     C19479   8.771  11.359   5.783  0.0805  0.0021 -0.6895
  886MOL0     C19480   8.659  11.386   5.711 -0.3507 -0.1664 -0.4962
  886MOL0     C19481   8.674  11.428   5.579  0.0572 -0.1484  0.2856
  886MOL0     C19482   8.797  11.431   5.518  0.5032  0.7996  0.3978
  886MOL0     O19483   8.784  11.461   5.383 -0.6859 -0.2730  0.1768
  886MOL0     C19484   8.906  11.426   5.310  0.6449  0.3183  0.4076
  886MOL0     C19485   8.908  11.280   5.275 -0.0164 -0.0691 -0.8178
  886MOL0     C19486   9.042  11.238   5.201 -0.1523  0.9661 -0.4534
  886MOL0     C19487   9.005  11.227   5.059  0.0070 -0.6865 -0.3226
  886MOL0     C19488   9.120  11.175   4.968  0.8187  0.3651 -0.2444
  886MOL0     C19489   9.164  11.033   5.009 -0.0075 -0.7026  0.1420
  886MOL0     C19490   9.242  10.950   4.895  0.7960 -0.1809 -0.4266
  886MOL0     C19491   9.296  10.827   4.950 -0.6530 -0.7574 -0.5360
  886MOL0     N19492   9.421  10.853   5.028  0.0349 -0.3440  0.2106
  886MOL0     C19493   9.547  10.865   4.973  0.4179 -0.7055  0.2095
  886MOL0     C19494   9.632  10.858   5.074  0.2238  0.6933 -0.4654
  886MOL0     C19495   9.780  10.859   5.048  0.3735 -0.4410  0.7262
  886MOL0     C19496   9.855  10.916   5.177 -0.3027  0.2226  0.9712
  886MOL0     C19497   9.854  11.064   5.205  0.2468  0.1195 -0.4144
  886MOL0     C19498   9.964  11.096   5.311 -0.4888 -0.6595 -0.2321
  886MOL0     O19499   9.982  11.248   5.337 -0.0655 -0.2448 -0.1031
  886MOL0     C19500  10.084  11.290   5.422  0.4412  0.8190 -0.5073
  886MOL0     C19501  10.104  11.424   5.413  0.4074 -0.3646 -0.4320
  886MOL0     C19502  10.204  11.483   5.488 -0.0200  0.1921  0.4275
  886MOL0     C19503  10.211  11.639   5.469 -0.1999  0.7356 -0.5404
  886MOL0     C19504  10.295  11.403   5.565  0.5880 -0.6943  0.2684
  886MOL0     C19505  10.412  11.456   5.630  0.9636 -0.6992 -0.0680
  886MOL0     O19506  10.445  11.387   5.752  0.3694 -0.0902 -0.9136
  886MOL0     C19507  10.576  11.381   5.784 -0.3628 -0.0979  0.3418
  886MOL0     C19508  10.675  11.334   5.698  0.1318 -0.2224  0.0771
  886MOL0     C19509  10.807  11.309   5.751  0.0437 -0.3347 -0.0177
  886MOL0     C19510  10.844  11.338   5.888  0.3946  0.3569  0.2272
  886MOL0     O19511  10.965  11.320   5.940 -0.7408  0.2877 -0.0543
  886MOL0     C19512  11.037  11.187   5.924  1.0483  0.1141 -0.0445
  886MOL0     C19513  10.991  11.085   6.034  0.5457 -0.3400  0.2936
  886MOL0     C19514  11.029  11.134   6.176  0.5489 -0.1162  0.2797
  886MOL0     C19515  10.925  11.088   6.273  0.5302 -0.6777 -0.4349
  886MOL0     C19516  10.972  11.147   6.413 -0.3841 -0.4019  0.4959
  886MOL0     C19517  10.879  11.107   6.530 -0.0660 -0.5504 -0.0192
  886MOL0     C19518  10.916  10.978   6.603  0.1753 -0.4185 -0.2310
  886MOL0     C19519  10.808  10.947   6.715  0.1668 -0.2214 -0.2918
  886MOL0    Cl19520  10.786  11.091   6.822  0.1134 -0.2430 -0.0377
  886MOL0     C19521  10.738  11.389   5.965 -1.0738 -0.5313 -0.4600
  886MOL0     C19522  10.614  11.406   5.906  0.7478 -0.1034 -0.5051
  886MOL0     O19523  10.486  11.540   5.578  0.3684 -0.2396 -0.3303
  886MOL0     C19524  10.272  11.268   5.575  0.4942  0.1962  0.0587
  886MOL0     C19525  10.170  11.208   5.504  0.5425  0.1457  0.3992
  886MOL0     N19526   9.560  10.841   5.188  0.0845  0.8262 -0.3303
  886MOL0     N19527   9.432  10.822   5.160 -0.2121  0.5934  1.2287
  886MOL0     C19528   8.909  11.409   5.590 -0.6714 -0.2108  0.5057
  886MOL0     C19529   8.898  11.363   5.719 -0.5077  0.0885  0.0478
  886MOL0     C19530   8.814  11.309   6.145 -0.5640 -1.0398  1.0568
  886MOL0     C19531   8.707  11.212   6.160 -0.4664 -0.8333  0.6073
  886MOL0     C19532   8.678  11.171   6.289 -0.3261  0.3484  0.9856
  886MOL0     C19533   8.749  11.225   6.398  0.9390 -0.5827 -0.2131
  886MOL0     O19534   8.721  11.186   6.530 -0.1244 -0.7466 -0.1226
  886MOL0     C19535   8.589  11.177   6.586 -0.6698  0.0003 -1.2260
  886MOL0     C19536   8.600  11.223   6.722  0.0435  0.4413 -0.1121
  886MOL0     C19537   8.610  11.373   6.728 -0.3967 -0.1447  0.3156
  886MOL0     C19538   8.665  11.412   6.870 -0.3458 -0.1758  0.3079
  886MOL0     C19539   8.659  11.561   6.880  0.9795 -0.6670 -0.2556
  886MOL0     C19540   8.664  11.679   6.903  0.2029 -0.2943  0.6209
  886MOL0     C19541   8.846  11.321   6.388  0.8919  0.2523  1.4786
  886MOL0     C19542   8.880  11.366   6.254  0.2378 -0.5141 -0.4538
  886MOL0     H19543   8.558  11.376   5.750 -1.3898  1.2393 -2.6341
  886MOL0     H19544   8.584  11.464   5.530 -1.0113 -0.6086  1.8098
  886MOL0     H19545   8.893  11.489   5.221  0.2449 -0.5280 -0.1489
  886MOL0     H19546   9.002  11.448   5.357 -0.0102 -1.7014  2.9137
  886MOL0     H19547   8.904  11.218   5.365 -2.0298  2.4734  0.9865
  886MOL0     H19548   8.814  11.251   5.227 -0.0139 -0.5934 -0.5163
  886MOL0     H19549   9.115  11.317   5.221  1.4648 -1.1054  2.6587
  886MOL0     H19550   9.084  11.149   5.248 -1.5877  1.0749  1.1119
  886MOL0     H19551   8.926  11.154   5.037 -2.1729  1.9192 -1.6733
  886MOL0     H19552   8.988  11.333   5.041  6.2828  0.5442 -1.3449
  886MOL0     H19553   9.073  11.177   4.870 -1.3584 -5.3250  0.3227
  886MOL0     H19554   9.202  11.247   4.967  0.9404  0.2255 -1.5011
  886MOL0     H19555   9.238  11.044   5.089  0.3942 -1.0470 -0.1847
  886MOL0     H19556   9.075  10.978   5.043  0.5041 -1.4461  0.2971
  886MOL0     H19557   9.173  10.931   4.812  0.8302  2.8165 -1.2684
  886MOL0     H19558   9.317  11.007   4.840 -2.3788  1.8066 -3.1042
  886MOL0     H19559   9.314  10.752   4.872 -1.3491 -2.7551  1.1423
  886MOL0     H19560   9.217  10.783   5.012  0.6202 -0.1982  1.5778
  886MOL0     H19561   9.554  10.866   4.864 -1.4438  2.7873 -0.0095
  886MOL0     H19562   9.807  10.754   5.033 -1.0028 -0.8989  1.2860
  886MOL0     H19563   9.808  10.917   4.959 -2.0046 -0.6247 -0.2209
  886MOL0     H19564   9.961  10.901   5.153 -0.3269  1.4695 -0.0425
  886MOL0     H19565   9.828  10.859   5.266 -1.5582 -0.7074  0.0227
  886MOL0     H19566   9.756  11.097   5.240 -0.1870  2.1630 -3.1787
  886MOL0     H19567   9.873  11.129   5.119 -0.7915  1.5218  0.3828
  886MOL0     H19568  10.064  11.055   5.291 -0.7178 -4.2641  4.3635
  886MOL0     H19569   9.939  11.049   5.406  1.4360 -0.4328  0.4347
  886MOL0     H19570  10.042  11.482   5.346 -1.3554 -0.8485  0.6936
  886MOL0     H19571  10.301  11.674   5.418 -0.5700  0.6951 -1.2298
  886MOL0     H19572  10.130  11.682   5.409 -1.1429 -1.9941 -1.3666
  886MOL0     H19573  10.217  11.691   5.566  0.3767  2.5939 -1.5132
  886MOL0     H19574  10.666  11.320   5.591  1.2902  1.2854 -0.2509
  886MOL0     H19575  10.890  11.265   5.697  0.2173  2.8012 -2.6371
  886MOL0     H19576  11.025  11.145   5.824  0.1533 -0.2814  0.2248
  886MOL0     H19577  11.145  11.203   5.936  1.0205 -0.0285  0.4459
  886MOL0     H19578  10.885  11.065   6.016  0.8407 -2.6393  0.7007
  886MOL0     H19579  11.046  10.990   6.033  3.1905  1.0907  0.7150
  886MOL0     H19580  11.028  11.244   6.172  1.2308 -0.1344 -1.9491
  886MOL0     H19581  11.122  11.085   6.204  0.2945  0.7562  2.9144
  886MOL0     H19582  10.819  11.106   6.254  0.3323 -0.2505  0.9791
  886MOL0     H19583  10.914  10.979   6.265  0.4561 -0.5605 -2.4608
  886MOL0     H19584  10.973  11.256   6.399 -0.8728 -0.4924 -0.2725
  886MOL0     H19585  11.077  11.124   6.435  0.8195  0.4729 -3.4614
  886MOL0     H19586  10.890  11.192   6.597  3.7070  0.5881 -1.7882
  886MOL0     H19587  10.777  11.103   6.491 -0.0993 -2.0653  0.1498
  886MOL0     H19588  11.012  10.986   6.655  0.5610 -0.1314 -0.9778
  886MOL0     H19589  10.926  10.895   6.533 -0.3644 -0.5972 -0.0984
  886MOL0     H19590  10.837  10.859   6.774 -1.1773 -0.9888 -0.7134
  886MOL0     H19591  10.717  10.922   6.660 -0.5610  1.7550 -0.0504
  886MOL0     H19592  10.761  11.391   6.071  0.6135 -0.4882 -0.8045
  886MOL0     H19593  10.531  11.445   5.965  1.0024  1.3913 -1.0979
  886MOL0     H19594  10.341  11.205   5.630  1.5303  0.5629 -0.7880
  886MOL0     H19595  10.165  11.100   5.503  1.3990  0.0963 -0.8103
  886MOL0     H19596   9.012  11.399   5.558 -0.3140  1.1372  1.1486
  886MOL0     H19597   8.987  11.329   5.771  0.0054 -0.1652 -0.9706
  886MOL0     H19598   8.653  11.168   6.078 -1.6788  2.4100 -0.4863
  886MOL0     H19599   8.605  11.091   6.295 -0.7814  0.7494  0.8615
  886MOL0     H19600   8.521  11.235   6.523 -1.5608 -0.9003 -1.1330
  886MOL0     H19601   8.560  11.072   6.577  0.2323 -0.7384  2.7381
  886MOL0     H19602   8.682  11.181   6.781  1.3061  1.4588 -1.0882
  886MOL0     H19603   8.508  11.195   6.775  1.0157  0.7239  1.7940
  886MOL0     H19604   8.509  11.415   6.724 -2.3180 -3.8074  3.4141
  886MOL0     H19605   8.666  11.418   6.647 -4.0079 -1.8796 -3.5341
  886MOL0     H19606   8.769  11.380   6.882 -0.8032 -1.0131  2.6118
  886MOL0     H19607   8.596  11.365   6.941 -1.0273 -1.4094 -1.1211
  886MOL0     H19608   8.684  11.784   6.911 -0.5937 -0.0649 -0.1945
  886MOL0     H19609   8.907  11.357   6.471  0.1344  0.8297  1.7960
  886MOL0     H19610   8.960  11.439   6.246  0.3149 -0.7743 -2.8922
  887MOL0     O19611   7.638  11.454   9.023  0.3937 -0.8111 -0.1392
  887MOL0     C19612   7.735  11.524   9.053  0.0652  0.1213  0.8994
  887MOL0     O19613   7.792  11.549   9.168 -0.4668 -0.0100 -0.3068
  887MOL0     C19614   7.724  11.539   9.284  0.3565 -0.8777  0.3751
  887MOL0     C19615   7.788  11.493   9.399 -0.2992 -0.6916  0.1262
  887MOL0     C19616   7.718  11.484   9.522  0.0047 -0.4568  0.1437
  887MOL0     C19617   7.586  11.514   9.535 -0.6216  0.1959 -0.5347
  887MOL0     O19618   7.519  11.523   9.651 -0.0799 -0.4738 -1.7885
  887MOL0     C19619   7.567  11.472   9.777 -0.8204  0.2213 -0.1182
  887MOL0     C19620   7.665  11.559   9.862  0.3204 -0.0164 -0.1624
  887MOL0     C19621   7.716  11.469   9.976 -0.6931  0.1734  0.2023
  887MOL0     C19622   7.823  11.533  10.055 -0.6315 -0.2071 -0.1776
  887MOL0     C19623   7.885  11.436  10.158 -0.2031  0.1639  0.1755
  887MOL0     C19624   7.978  11.511  10.250 -0.0745  0.0935 -0.2982
  887MOL0     C19625   8.042  11.412  10.347 -0.7846  0.0293  0.0164
  887MOL0     C19626   8.144  11.498  10.417 -0.3844  1.1451 -0.5043
  887MOL0     N19627   8.234  11.417  10.507 -0.4435 -1.1679  0.6267
  887MOL0     C19628   8.207  11.355  10.633  0.3722 -0.3447  0.3611
  887MOL0     C19629   8.312  11.295  10.679  0.2784 -0.9627  0.2600
  887MOL0     C19630   8.337  11.249  10.820  0.3144  0.7093 -0.2996
  887MOL0     C19631   8.295  11.358  10.900  0.6308  0.3849 -0.1158
  887MOL0     C19632   8.333  11.331  11.046  0.0867  0.3147  0.7520
  887MOL0     C19633   8.270  11.441  11.144 -0.1196 -0.1026  0.2322
  887MOL0     O19634   8.122  11.457  11.144  0.8357 -0.6689 -0.5188
  887MOL0     C19635   8.081  11.567  11.221 -0.7598  0.1376 -0.5845
  887MOL0     C19636   8.150  11.630  11.327  0.9575  0.0515  0.4491
  887MOL0     C19637   8.111  11.756  11.383  0.3023 -0.2716  0.3814
  887MOL0     C19638   8.221  11.804  11.483 -0.1673 -0.2546 -0.8062
  887MOL0     C19639   8.000  11.826  11.327  0.1816 -1.1341 -0.5555
  887MOL0     C19640   7.964  11.965  11.354 -0.1714  1.3858 -0.7491
  887MOL0     O19641   7.832  11.985  11.341  0.7074 -0.8690 -0.2689
  887MOL0     C19642   7.787  12.119  11.335  0.7100 -0.0651 -0.1353
  887MOL0     C19643   7.827  12.204  11.435  0.3592 -0.1257 -0.5546
  887MOL0     C19644   7.780  12.338  11.436  0.0342  0.0120 -0.1885
  887MOL0     C19645   7.685  12.373  11.343 -0.2766 -0.4614 -0.2295
  887MOL0     O19646   7.614  12.488  11.369 -1.0003  0.3157  0.8651
  887MOL0     C19647   7.618  12.606  11.284 -0.0003  0.1173 -0.2262
  887MOL0     C19648   7.767  12.635  11.244  0.7457 -0.3084  0.7997
  887MOL0     C19649   7.788  12.782  11.207  0.5946  0.6214 -0.6633
  887MOL0     C19650   7.699  12.842  11.096 -0.1711 -0.0975 -0.1556
  887MOL0     C19651   7.707  12.995  11.100 -0.1292 -0.2194  0.9576
  887MOL0     C19652   7.787  13.052  10.986 -0.2034 -0.2829  0.2328
  887MOL0     C19653   7.884  13.170  11.013 -0.2777 -0.2879  0.1886
  887MOL0     C19654   7.813  13.308  11.010  0.2194  0.8473 -0.5546
  887MOL0    Cl19655   7.767  13.339  10.846 -0.3100  0.1672 -0.1270
  887MOL0     C19656   7.647  12.294  11.234 -0.0605  0.1190 -0.4912
  887MOL0     C19657   7.691  12.163  11.235 -0.3941  0.7317  0.7153
  887MOL0     O19658   8.054  12.045  11.385  0.0018  0.0298 -0.5227
  887MOL0     C19659   7.922  11.749  11.235 -0.7853 -0.3049 -0.6414
  887MOL0     C19660   7.962  11.628  11.185 -0.6559  1.0562 -0.1586
  887MOL0     N19661   8.409  11.302  10.582  0.7581  1.6732 -0.2663
  887MOL0     N19662   8.366  11.378  10.480  0.6028  0.9457  0.6115
  887MOL0     C19663   7.521  11.570   9.426  0.1129 -0.6229  0.3742
  887MOL0     C19664   7.590  11.577   9.298  0.1329 -0.9662 -0.4433
  887MOL0     C19665   7.799  11.600   8.942  0.6575 -0.3936 -0.5061
  887MOL0     C19666   7.755  11.592   8.806 -0.4531 -0.8421 -0.1060
  887MOL0     C19667   7.819  11.675   8.719  0.6580 -0.1357  0.4212
  887MOL0     C19668   7.926  11.753   8.758  0.5633  0.8843 -0.0880
  887MOL0     O19669   8.001  11.818   8.663  1.0400 -0.0856  0.3192
  887MOL0     C19670   8.028  11.961   8.664 -0.9519  0.6380 -0.4787
  887MOL0     C19671   7.911  12.048   8.655  0.1601 -0.2271  0.1609
  887MOL0     C19672   7.830  12.053   8.528  0.6178  0.6001  0.6325
  887MOL0     C19673   7.691  11.994   8.539  0.3454  1.2725 -1.0658
  887MOL0     C19674   7.607  12.035   8.660  0.1673  0.6733  1.6561
  887MOL0     C19675   7.517  12.070   8.738  1.0875  0.5148  0.6950
  887MOL0     C19676   7.968  11.761   8.887  0.1869  0.1346  0.2128
  887MOL0     C19677   7.901  11.693   8.982  0.2444 -2.1115  0.0453
  887MOL0     H19678   7.886  11.447   9.407  0.6173  1.0516 -0.4237
  887MOL0     H19679   7.770  11.443   9.608 -2.3858  1.6198  2.7919
  887MOL0     H19680   7.481  11.455   9.842 -1.4594  0.8352 -0.7934
  887MOL0     H19681   7.621  11.380   9.756 -1.5632 -0.8574  2.2973
  887MOL0     H19682   7.739  11.589   9.788 -0.2842 -1.3992 -1.3693
  887MOL0     H19683   7.618  11.645   9.910 -0.4320 -0.6295  0.2159
  887MOL0     H19684   7.639  11.424  10.040 -0.0469 -0.1251  0.7771
  887MOL0     H19685   7.765  11.392   9.915  3.1850  0.7122  2.3128
  887MOL0     H19686   7.909  11.557   9.992 -0.6663 -1.7208 -0.8612
  887MOL0     H19687   7.793  11.628  10.100 -0.6997 -1.2647  2.1537
  887MOL0     H19688   7.803  11.401  10.221  0.3698 -2.1714 -0.2796
  887MOL0     H19689   7.933  11.349  10.111  1.2375  0.7321  0.5419
  887MOL0     H19690   8.055  11.557  10.188 -1.5879  0.0091 -2.3793
  887MOL0     H19691   7.920  11.590  10.300 -1.5865  0.2848 -2.1938
  887MOL0     H19692   7.970  11.364  10.414 -0.2683 -0.5667  0.1532
  887MOL0     H19693   8.097  11.336  10.290 -0.2253 -0.0505  0.6595
  887MOL0     H19694   8.087  11.560  10.486 -0.9194  0.8612 -0.6813
  887MOL0     H19695   8.202  11.558  10.346 -1.4314  2.8326  0.0050
  887MOL0     H19696   8.117  11.381  10.687 -0.4180 -0.7213 -0.7430
  887MOL0     H19697   8.290  11.153  10.842 -2.2592  1.9574  0.1087
  887MOL0     H19698   8.441  11.224  10.841  0.0906 -2.3833 -2.2263
  887MOL0     H19699   8.186  11.369  10.899  0.3334 -1.1879  2.8935
  887MOL0     H19700   8.351  11.448  10.874 -0.1895  0.5365 -1.4660
  887MOL0     H19701   8.442  11.325  11.051  0.3537  1.7849 -1.8058
  887MOL0     H19702   8.301  11.236  11.091 -1.5474  0.0850 -0.8111
  887MOL0     H19703   8.330  11.531  11.130  3.2233 -2.0682  0.6246
  887MOL0     H19704   8.304  11.425  11.247 -1.3745  3.4383  1.3283
  887MOL0     H19705   8.241  11.586  11.367  0.3661 -0.5634  1.1505
  887MOL0     H19706   8.240  11.740  11.570 -4.5585  0.8568  1.2560
  887MOL0     H19707   8.316  11.823  11.433  0.1392 -0.6231 -0.3798
  887MOL0     H19708   8.192  11.900  11.527 -2.9355 -2.1931  2.0614
  887MOL0     H19709   7.888  12.176  11.520 -1.0347 -0.6862  0.2921
  887MOL0     H19710   7.804  12.399  11.522 -1.3970 -0.1348  0.3400
  887MOL0     H19711   7.561  12.588  11.192 -0.6426  0.2052  0.1547
  887MOL0     H19712   7.572  12.695  11.327 -0.9305 -0.6372  0.3659
  887MOL0     H19713   7.821  12.600  11.333 -0.1229 -0.5351  1.2475
  887MOL0     H19714   7.809  12.577  11.161 -2.7447 -0.1336 -1.2961
  887MOL0     H19715   7.884  12.797  11.156 -0.4182  1.4140 -2.4678
  887MOL0     H19716   7.780  12.842  11.298  1.1297 -0.1075 -0.1282
  887MOL0     H19717   7.719  12.803  10.996  0.2841 -1.6241  0.4956
  887MOL0     H19718   7.598  12.806  11.118  1.2295 -2.1969  3.9285
  887MOL0     H19719   7.752  13.019  11.197 -0.5773 -3.5249  2.1010
  887MOL0     H19720   7.617  13.056  11.089  0.5121  0.4479 -0.9993
  887MOL0     H19721   7.845  12.972  10.938 -1.0218 -0.7903  0.0658
  887MOL0     H19722   7.707  13.083  10.918 -0.5194 -2.7596 -0.6340
  887MOL0     H19723   7.950  13.171  10.926 -0.4347 -1.5564  0.0367
  887MOL0     H19724   7.933  13.155  11.110 -2.3881  0.0807  1.3741
  887MOL0     H19725   7.874  13.389  11.049  2.7502 -2.1158  2.1990
  887MOL0     H19726   7.731  13.291  11.080  0.4233 -0.5669 -0.6162
  887MOL0     H19727   7.580  12.328  11.155 -0.8011 -0.7354 -0.2489
  887MOL0     H19728   7.674  12.084  11.163  3.4279 -0.6542  1.0777
  887MOL0     H19729   7.825  11.788  11.207 -0.3699  0.4436 -1.0638
  887MOL0     H19730   7.895  11.588  11.110 -3.4982  1.4838  1.9954
  887MOL0     H19731   7.423  11.617   9.435  1.3330  1.9896  0.9100
  887MOL0     H19732   7.537  11.614   9.211 -0.1784  0.1438  0.2010
  887MOL0     H19733   7.660  11.547   8.777 -0.3009 -1.8183  0.8188
  887MOL0     H19734   7.803  11.684   8.612  1.0003  2.1259  0.5149
  887MOL0     H19735   8.081  11.996   8.753  1.0090  1.5302 -1.9094
  887MOL0     H19736   8.095  11.970   8.577 -0.3231 -1.8467 -0.3140
  887MOL0     H19737   7.954  12.148   8.663 -0.1235 -0.1730  1.0525
  887MOL0     H19738   7.854  12.027   8.746  0.7332 -1.1844  0.3086
  887MOL0     H19739   7.881  11.999   8.447 -0.8540  0.1521 -0.0316
  887MOL0     H19740   7.814  12.158   8.502  0.3027 -0.0862 -2.2184
  887MOL0     H19741   7.694  11.885   8.543 -0.2596  1.2726  2.9118
  887MOL0     H19742   7.622  12.010   8.456 -2.0877 -2.4027  0.0279
  887MOL0     H19743   7.437  12.095   8.803  0.1924 -3.4703  1.3998
  887MOL0     H19744   8.055  11.822   8.911 -1.4281  2.2528  1.1104
  887MOL0     H19745   7.944  11.706   9.081  0.7796 -1.7648 -0.2338
  888MOL0     O19746   6.752   7.094   4.463 -0.3652  0.2598 -0.3224
  888MOL0     C19747   6.711   6.981   4.494 -0.1984 -0.8630  0.0256
  888MOL0     O19748   6.686   6.878   4.405 -0.8367  0.1012  0.0320
  888MOL0     C19749   6.703   6.900   4.272  0.5460 -0.7395  0.0135
  888MOL0     C19750   6.836   6.910   4.217  0.6111  0.3732 -0.1087
  888MOL0     C19751   6.865   6.942   4.084 -0.4665 -0.8214  0.2158
  888MOL0     C19752   6.757   6.972   3.996  0.0842 -0.0947 -0.3210
  888MOL0     O19753   6.784   6.988   3.859  0.5629 -0.3955  0.1157
  888MOL0     C19754   6.879   6.904   3.793  0.0839 -0.2696 -0.5812
  888MOL0     C19755   6.818   6.870   3.651  0.1320 -0.0629 -0.5848
  888MOL0     C19756   6.910   6.769   3.580  0.2848 -0.0247 -0.1702
  888MOL0     C19757   6.861   6.758   3.435 -0.3225 -0.1495  0.4764
  888MOL0     C19758   6.910   6.633   3.361 -0.3272  0.4513 -0.4001
  888MOL0     C19759   6.800   6.525   3.356 -1.0340 -0.0072 -0.3780
  888MOL0     C19760   6.861   6.392   3.307  0.0060  0.2761 -0.4329
  888MOL0     C19761   6.738   6.294   3.314  0.0770 -0.8014  0.1783
  888MOL0     N19762   6.688   6.260   3.174 -0.0289  0.5211 -0.2517
  888MOL0     C19763   6.701   6.329   3.060  0.8902  0.0900 -0.0052
  888MOL0     C19764   6.636   6.251   2.970  0.4724 -0.0815 -0.7195
  888MOL0     C19765   6.620   6.280   2.826  0.4924 -0.1239  0.7832
  888MOL0     C19766   6.490   6.350   2.799 -0.0891 -0.9273  0.0699
  888MOL0     C19767   6.449   6.372   2.651  0.6657  0.0170 -0.0523
  888MOL0     C19768   6.296   6.398   2.648  0.3489  0.0213 -0.3262
  888MOL0     O19769   6.261   6.512   2.722 -0.2863  0.6241 -0.1715
  888MOL0     C19770   6.204   6.615   2.654 -0.6050 -1.4590 -0.2713
  888MOL0     C19771   6.077   6.620   2.592 -0.2176  0.3504 -0.1102
  888MOL0     C19772   6.035   6.752   2.551 -0.4656  0.2634 -0.8058
  888MOL0     C19773   5.890   6.760   2.511 -0.1204 -0.3362  1.1748
  888MOL0     C19774   6.126   6.854   2.533  0.3498 -0.1856  0.3394
  888MOL0     C19775   6.094   6.985   2.455  0.8532  0.1104 -0.1839
  888MOL0     O19776   6.154   7.094   2.501 -1.4208  0.0988  0.0361
  888MOL0     C19777   6.146   7.208   2.418 -0.7885  0.4849 -0.6108
  888MOL0     C19778   6.026   7.276   2.387  0.0563 -0.0456 -0.8504
  888MOL0     C19779   6.024   7.383   2.299 -0.0728  0.5340  1.1876
  888MOL0     C19780   6.145   7.438   2.250  0.7487 -0.1767  0.3081
  888MOL0     O19781   6.141   7.535   2.151 -0.5541  0.0342  0.5791
  888MOL0     C19782   6.253   7.617   2.124  0.4240  0.1016 -0.8048
  888MOL0     C19783   6.214   7.758   2.082  0.0071 -0.6773 -0.2056
  888MOL0     C19784   6.338   7.815   2.005  0.8270  0.3105 -0.1327
  888MOL0     C19785   6.315   7.966   1.972 -0.9539  0.5043 -0.4898
  888MOL0     C19786   6.216   7.995   1.863 -0.5984  0.6826  0.0531
  888MOL0     C19787   6.233   8.145   1.826  0.0386  0.1529 -0.6015
  888MOL0     C19788   6.150   8.173   1.710  1.3310 -0.8823  0.0985
  888MOL0     C19789   6.163   8.318   1.658 -0.7842  0.3786  0.4302
  888MOL0    Cl19790   6.129   8.433   1.778 -0.0674 -0.6108  0.1667
  888MOL0     C19791   6.268   7.379   2.296  0.2394 -0.6516 -0.4144
  888MOL0     C19792   6.262   7.260   2.368  0.8464  0.3504 -0.0957
  888MOL0     O19793   6.028   6.982   2.352  0.0760  0.2662  0.2499
  888MOL0     C19794   6.265   6.839   2.580  0.2543  0.3783  0.1844
  888MOL0     C19795   6.291   6.727   2.653 -0.3019 -0.6177  0.2795
  888MOL0     N19796   6.573   6.153   3.039 -0.2153 -0.4232  0.7251
  888MOL0     N19797   6.615   6.149   3.161  0.8392 -0.5513  0.8836
  888MOL0     C19798   6.629   6.973   4.047  0.5240 -0.0204 -0.2680
  888MOL0     C19799   6.597   6.935   4.177 -0.1292  0.4474  0.2496
  888MOL0     C19800   6.691   6.969   4.648  0.4217  1.5465 -0.1287
  888MOL0     C19801   6.769   7.048   4.734 -0.1421 -0.5437 -0.6260
  888MOL0     C19802   6.774   7.031   4.877  0.1974 -0.2128  0.0944
  888MOL0     C19803   6.704   6.927   4.927 -0.0616  0.5195 -0.4770
  888MOL0     O19804   6.713   6.876   5.055  0.3782  0.6641  0.1314
  888MOL0     C19805   6.794   6.952   5.146 -0.2562 -0.2760  0.0694
  888MOL0     C19806   6.768   6.901   5.290 -0.4202 -1.0338  1.1923
  888MOL0     C19807   6.851   6.768   5.329 -0.3023 -0.4003  1.2693
  888MOL0     C19808   6.858   6.740   5.480  0.2661  1.4500 -0.7116
  888MOL0     C19809   6.732   6.679   5.539 -0.0423 -0.6997 -0.3803
  888MOL0     C19810   6.636   6.641   5.597  0.0607  0.0571 -0.2855
  888MOL0     C19811   6.621   6.848   4.848 -0.5995  0.0304 -0.9422
  888MOL0     C19812   6.613   6.875   4.709  0.3281  0.0947 -0.8060
  888MOL0     H19813   6.925   6.887   4.274  0.5661  2.7351  1.0553
  888MOL0     H19814   6.958   6.934   4.027 -0.7997  3.5226 -1.3042
  888MOL0     H19815   6.974   6.957   3.785  0.9685 -1.5634  0.7789
  888MOL0     H19816   6.907   6.816   3.851  0.4872  0.1691 -0.1082
  888MOL0     H19817   6.719   6.825   3.665  1.6415 -3.1665  1.2844
  888MOL0     H19818   6.794   6.955   3.587 -3.5167 -0.7062 -0.2872
  888MOL0     H19819   7.013   6.801   3.595  0.1634  0.0270  0.6313
  888MOL0     H19820   6.899   6.672   3.630 -1.5022  0.5372  0.6290
  888MOL0     H19821   6.752   6.764   3.427 -0.3387  2.9151  1.8841
  888MOL0     H19822   6.903   6.844   3.381  0.7040 -1.8270 -1.5448
  888MOL0     H19823   6.941   6.654   3.259 -0.1327 -0.4087 -0.5239
  888MOL0     H19824   6.999   6.596   3.412  0.7886  1.8571 -1.2462
  888MOL0     H19825   6.763   6.520   3.459  1.5677  2.9649  0.8233
  888MOL0     H19826   6.714   6.558   3.297 -0.0934  0.3346 -1.5988
  888MOL0     H19827   6.912   6.401   3.211  0.0277  0.5842 -0.3939
  888MOL0     H19828   6.939   6.365   3.378  1.6965  1.1098 -1.9076
  888MOL0     H19829   6.660   6.342   3.373  2.0279  1.1769  1.3112
  888MOL0     H19830   6.761   6.200   3.365 -3.1034 -2.4284 -1.1413
  888MOL0     H19831   6.737   6.430   3.043 -0.5590  0.5798 -0.2708
  888MOL0     H19832   6.700   6.345   2.790 -0.7242  1.3269  0.5666
  888MOL0     H19833   6.624   6.184   2.774 -0.8162 -0.1046  0.6186
  888MOL0     H19834   6.503   6.442   2.856 -1.1198 -1.8452  1.8763
  888MOL0     H19835   6.404   6.302   2.847 -2.9685  1.6893 -2.1329
  888MOL0     H19836   6.464   6.274   2.604 -2.8835 -2.1792  2.8794
  888MOL0     H19837   6.501   6.450   2.594 -0.0991 -0.2790 -1.2033
  888MOL0     H19838   6.248   6.310   2.691 -0.1376  0.4553  0.0356
  888MOL0     H19839   6.268   6.405   2.543  0.4657 -1.7146 -0.5025
  888MOL0     H19840   6.021   6.527   2.600  0.2316 -0.0204 -1.1102
  888MOL0     H19841   5.846   6.848   2.559 -0.4297 -0.0241  0.3354
  888MOL0     H19842   5.875   6.762   2.403  1.2998 -4.0463  0.7604
  888MOL0     H19843   5.858   6.663   2.551  2.6682 -1.1090  1.7651
  888MOL0     H19844   5.930   7.233   2.414 -0.8875  2.5332  0.1800
  888MOL0     H19845   5.927   7.420   2.266 -0.2064 -0.4206  0.4686
  888MOL0     H19846   6.313   7.623   2.216  0.5331 -0.5733 -0.8255
  888MOL0     H19847   6.317   7.567   2.050 -1.3610 -2.6515 -0.6199
  888MOL0     H19848   6.136   7.751   2.006 -2.1886  0.6993  1.7798
  888MOL0     H19849   6.176   7.819   2.165 -0.6497  2.0066 -2.3184
  888MOL0     H19850   6.341   7.767   1.907 -1.4416 -1.1286  0.4105
  888MOL0     H19851   6.429   7.796   2.063 -0.6330 -1.7538  1.6796
  888MOL0     H19852   6.287   8.021   2.062  2.0700  1.5720 -0.0747
  888MOL0     H19853   6.412   8.008   1.941 -1.5887  0.9440 -1.9521
  888MOL0     H19854   6.116   7.968   1.900 -0.4996  0.5119  0.1922
  888MOL0     H19855   6.249   7.929   1.783 -0.5094  0.2311  0.4609
  888MOL0     H19856   6.208   8.209   1.911 -1.1211 -0.7658 -0.2110
  888MOL0     H19857   6.336   8.166   1.798  0.7340  0.4431  1.9282
  888MOL0     H19858   6.044   8.153   1.728  0.8899  2.5214  2.3518
  888MOL0     H19859   6.172   8.098   1.634  0.6508 -1.9864  0.9702
  888MOL0     H19860   6.099   8.349   1.575  1.6694  1.3044 -1.2456
  888MOL0     H19861   6.267   8.333   1.628  0.0469 -1.2560  2.2670
  888MOL0     H19862   6.360   7.435   2.280  0.8752  0.0874  4.2732
  888MOL0     H19863   6.356   7.219   2.402  0.4103 -3.5062 -2.8786
  888MOL0     H19864   6.323   6.931   2.579 -1.4751  1.5280 -0.2730
  888MOL0     H19865   6.386   6.733   2.705  0.3016  0.6736 -0.8841
  888MOL0     H19866   6.544   7.006   3.989  0.6324 -0.6907 -0.8245
  888MOL0     H19867   6.494   6.933   4.212  0.3637 -2.0911  1.8513
  888MOL0     H19868   6.829   7.126   4.688  2.2004 -0.3410  2.4204
  888MOL0     H19869   6.844   7.087   4.938  0.7219  0.9974 -1.5461
  888MOL0     H19870   6.897   6.936   5.113  0.1276  0.6015  0.8162
  888MOL0     H19871   6.777   7.059   5.134 -0.6187 -0.2619  0.6509
  888MOL0     H19872   6.661   6.894   5.314 -0.9558  2.3512  0.3645
  888MOL0     H19873   6.786   6.986   5.357  0.3189 -0.4217  0.2424
  888MOL0     H19874   6.955   6.776   5.297 -1.4433 -1.9115 -3.6735
  888MOL0     H19875   6.802   6.693   5.267  2.3196  1.0462 -2.9660
  888MOL0     H19876   6.894   6.831   5.531  1.7271  0.9763 -0.8496
  888MOL0     H19877   6.941   6.671   5.498 -0.6170  0.4894 -0.2714
  888MOL0     H19878   6.542   6.611   5.640 -0.1346 -1.1831 -1.5041
  888MOL0     H19879   6.569   6.772   4.905  2.8765 -1.0283  1.1382
  888MOL0     H19880   6.557   6.815   4.637 -0.1180  0.0466 -0.4221
  889MOL0     O19881   3.678   7.518   9.903  0.6728  0.3901 -0.0790
  889MOL0     C19882   3.603   7.470   9.815 -0.1767 -0.4335  0.9439
  889MOL0     O19883   3.497   7.381   9.843  0.0374  0.5467  0.2523
  889MOL0     C19884   3.465   7.368   9.980 -0.0720 -0.2008  0.6736
  889MOL0     C19885   3.401   7.479  10.055  0.3622  0.1782  0.1572
  889MOL0     C19886   3.354   7.458  10.187 -0.5648  0.1274  0.4316
  889MOL0     C19887   3.386   7.348  10.255 -0.8783  0.0066  0.2088
  889MOL0     O19888   3.371   7.355  10.391  0.5705 -0.7264  0.8462
  889MOL0     C19889   3.411   7.233  10.455 -0.6585 -0.4809 -0.1776
  889MOL0     C19890   3.346   7.238  10.588 -0.4176 -0.0873 -0.0640
  889MOL0     C19891   3.386   7.347  10.688  0.1409 -0.1132 -0.4912
  889MOL0     C19892   3.303   7.345  10.826  0.3671 -0.5901  0.8097
  889MOL0     C19893   3.178   7.432  10.845  0.5764  0.1458 -0.0970
  889MOL0     C19894   3.115   7.408  10.977 -0.2078  0.1339  0.4778
  889MOL0     C19895   3.018   7.518  11.017  1.1106 -0.4498 -0.7950
  889MOL0     C19896   2.937   7.492  11.140 -0.7849  0.1181  0.1759
  889MOL0     N19897   3.046   7.482  11.251  0.2755  0.3955 -0.1862
  889MOL0     C19898   3.100   7.573  11.337  0.1993 -0.3458  1.4759
  889MOL0     C19899   3.171   7.507  11.422  0.3645  0.6199 -0.2888
  889MOL0     C19900   3.247   7.578  11.532  0.4123  0.3104 -0.3647
  889MOL0     C19901   3.329   7.483  11.611  0.2739  0.6323  0.4146
  889MOL0     C19902   3.260   7.401  11.727  0.3488  0.8550  0.3959
  889MOL0     C19903   3.115   7.355  11.713  0.2481 -0.2225 -1.0058
  889MOL0     O19904   3.021   7.462  11.700 -1.3296  0.4785 -0.9546
  889MOL0     C19905   3.012   7.561  11.798 -0.3451  0.2867  0.9541
  889MOL0     C19906   2.916   7.658  11.772  1.2043 -0.3477 -0.1643
  889MOL0     C19907   2.866   7.746  11.875  0.4003 -0.0858  0.7272
  889MOL0     C19908   2.765   7.864  11.844 -0.4183 -1.1377 -0.0501
  889MOL0     C19909   2.921   7.732  12.010 -0.1505 -0.4916  0.8620
  889MOL0     C19910   2.885   7.817  12.121  0.3977  1.0320  0.1744
  889MOL0     O19911   2.980   7.813  12.224 -0.9427  0.3964 -0.3008
  889MOL0     C19912   2.945   7.856  12.349 -0.8446 -0.0191 -0.4816
  889MOL0     C19913   2.952   7.993  12.388  0.4320  0.4300  0.8426
  889MOL0     C19914   2.956   8.035  12.521  0.5791  0.4091 -0.1631
  889MOL0     C19915   2.932   7.943  12.623 -0.9791 -0.0491  0.2196
  889MOL0     O19916   2.917   7.970  12.755 -0.3639 -0.1090  0.6095
  889MOL0     C19917   2.851   8.092  12.786 -0.1914  0.8276  0.9092
  889MOL0     C19918   2.806   8.097  12.939 -0.5557  0.4682 -0.3784
  889MOL0     C19919   2.778   8.241  12.985 -1.4875  0.0322 -0.0386
  889MOL0     C19920   2.697   8.252  13.123  1.5570  0.1124  0.5177
  889MOL0     C19921   2.550   8.188  13.119 -0.9850 -0.1294 -0.2215
  889MOL0     C19922   2.492   8.203  13.259  0.3105 -0.4344  0.4887
  889MOL0     C19923   2.357   8.140  13.254  0.4792 -0.3269 -0.2593
  889MOL0     C19924   2.270   8.181  13.370  0.2569  0.1261 -0.0914
  889MOL0    Cl19925   2.251   8.359  13.382 -0.0184 -0.4216  0.0596
  889MOL0     C19926   2.930   7.806  12.592  0.7195 -0.1479 -0.2303
  889MOL0     C19927   2.939   7.765  12.455  0.0995  0.2113  0.5640
  889MOL0     O19928   2.776   7.881  12.121 -0.0276  0.5147 -0.3582
  889MOL0     C19929   3.019   7.635  12.027  0.0018  0.5417  0.9510
  889MOL0     C19930   3.054   7.554  11.924 -1.2919 -0.8982 -0.6682
  889MOL0     N19931   3.141   7.369  11.405  0.3781  0.2879 -0.1182
  889MOL0     N19932   3.073   7.358  11.299 -0.6700  0.1875 -0.8498
  889MOL0     C19933   3.468   7.247  10.185  0.5764  0.2909  0.0951
  889MOL0     C19934   3.502   7.252  10.045 -0.0190  0.2968 -1.0059
  889MOL0     C19935   3.618   7.518   9.681  0.1639 -0.1739 -0.0989
  889MOL0     C19936   3.558   7.447   9.573  0.6383  0.2463 -1.3749
  889MOL0     C19937   3.569   7.485   9.443 -0.5393  0.0163 -0.6114
  889MOL0     C19938   3.638   7.601   9.416  0.1610  0.0477  0.5862
  889MOL0     O19939   3.647   7.624   9.287  0.0432  0.0720  0.3008
  889MOL0     C19940   3.778   7.669   9.246  0.5026 -0.7035 -0.6095
  889MOL0     C19941   3.819   7.649   9.099 -0.1920  0.5379 -1.4049
  889MOL0     C19942   3.695   7.643   9.001  0.3181  0.3454  0.5006
  889MOL0     C19943   3.746   7.616   8.859 -0.4499  0.8464  0.9942
  889MOL0     C19944   3.644   7.570   8.762 -1.0937  0.7659  0.1943
  889MOL0     C19945   3.565   7.545   8.683  0.7088  0.2619  0.3670
  889MOL0     C19946   3.710   7.664   9.515  0.0026  0.3357  0.3250
  889MOL0     C19947   3.705   7.621   9.644  0.1238  0.7862 -0.5907
  889MOL0     H19948   3.372   7.562   9.991 -0.6214  1.9658  2.7946
  889MOL0     H19949   3.305   7.534  10.246 -3.3634 -0.7173 -0.6041
  889MOL0     H19950   3.387   7.138  10.406 -3.5294 -0.4738  1.0140
  889MOL0     H19951   3.520   7.244  10.453 -0.8714  2.4781 -1.9005
  889MOL0     H19952   3.242   7.263  10.569 -0.4593  0.3823  0.7289
  889MOL0     H19953   3.348   7.132  10.616  0.9574  0.0594  0.4704
  889MOL0     H19954   3.487   7.329  10.728 -1.2703 -3.0335  2.1614
  889MOL0     H19955   3.381   7.448  10.648 -0.3525 -0.6415 -1.8266
  889MOL0     H19956   3.269   7.243  10.848  0.8320 -0.7290  0.9010
  889MOL0     H19957   3.371   7.369  10.908 -2.6477  0.3193  3.2369
  889MOL0     H19958   3.198   7.536  10.820 -0.8867  0.2560 -0.9144
  889MOL0     H19959   3.099   7.406  10.774  0.6294  2.7078 -1.1982
  889MOL0     H19960   3.071   7.309  10.994 -0.5458  0.4930  1.8436
  889MOL0     H19961   3.194   7.407  11.053  1.0602 -1.3174 -0.7918
  889MOL0     H19962   3.065   7.616  11.023 -1.6615  0.9235 -0.3376
  889MOL0     H19963   2.945   7.539  10.938  1.3342  0.5986 -0.7361
  889MOL0     H19964   2.877   7.403  11.121  0.1710 -0.3129 -0.9552
  889MOL0     H19965   2.861   7.566  11.166 -2.2358 -1.2146 -0.1572
  889MOL0     H19966   3.081   7.680  11.340 -0.7306 -0.4641  0.4498
  889MOL0     H19967   3.309   7.653  11.482  0.5874  0.5486  0.2018
  889MOL0     H19968   3.182   7.630  11.603  2.5093 -2.0226  3.5580
  889MOL0     H19969   3.411   7.545  11.649 -1.8848  2.1161  2.9819
  889MOL0     H19970   3.386   7.418  11.543  2.8877  2.4343  0.7396
  889MOL0     H19971   3.269   7.453  11.823 -2.0152  1.3888  0.4097
  889MOL0     H19972   3.320   7.310  11.734  0.3862  0.5952 -2.1912
  889MOL0     H19973   3.079   7.294  11.796  1.0305 -0.5070 -0.8702
  889MOL0     H19974   3.109   7.289  11.626  1.9777  0.1942 -1.4644
  889MOL0     H19975   2.874   7.650  11.672 -0.1817  0.3561  0.3388
  889MOL0     H19976   2.665   7.844  11.884 -1.9631  2.4593 -1.6167
  889MOL0     H19977   2.808   7.960  11.876 -1.5281 -0.9404  0.9234
  889MOL0     H19978   2.743   7.875  11.737 -1.4834 -0.6513  0.2013
  889MOL0     H19979   2.972   8.071  12.315 -0.9955 -1.0132 -1.1920
  889MOL0     H19980   2.973   8.138  12.550 -0.5343  0.6734 -0.3921
  889MOL0     H19981   2.909   8.183  12.773  1.0726  0.2330  2.1354
  889MOL0     H19982   2.763   8.096  12.721  1.2253  1.9968 -1.0280
  889MOL0     H19983   2.723   8.028  12.955 -0.8417  0.9464  0.2757
  889MOL0     H19984   2.886   8.060  13.003 -1.7287  1.1049  1.5283
  889MOL0     H19985   2.733   8.300  12.905 -0.0201 -2.0092 -2.5489
  889MOL0     H19986   2.874   8.291  13.004 -0.7927 -1.0471 -0.6014
  889MOL0     H19987   2.755   8.224  13.211  1.3086 -0.4462  0.5054
  889MOL0     H19988   2.682   8.359  13.140 -0.3824  0.1020 -0.7582
  889MOL0     H19989   2.575   8.082  13.109 -1.9732 -0.3002 -0.9792
  889MOL0     H19990   2.485   8.226  13.041  0.0507  3.6292  0.5509
  889MOL0     H19991   2.550   8.159  13.341 -1.5015  3.5311  4.3480
  889MOL0     H19992   2.493   8.309  13.288 -2.4360 -0.1350 -0.2777
  889MOL0     H19993   2.364   8.031  13.258 -1.2271 -0.4550  3.0955
  889MOL0     H19994   2.307   8.175  13.163  4.6796  5.5866 -0.8625
  889MOL0     H19995   2.319   8.166  13.467  1.5073  2.9692 -0.1771
  889MOL0     H19996   2.170   8.138  13.368  0.0341  0.3428 -4.8218
  889MOL0     H19997   2.935   7.742  12.679  1.0439  0.9180  0.5534
  889MOL0     H19998   2.938   7.664  12.416  0.2302 -0.9962  3.4885
  889MOL0     H19999   3.073   7.614  12.119  1.3431 -3.2785 -0.5234
  889MOL0     H20000   3.122   7.474  11.952 -0.7085  0.5972  2.6617
  889MOL0     H20001   3.504   7.153  10.225 -0.5241  0.2238  0.9385
  889MOL0     H20002   3.569   7.180   9.998  1.7584  0.7896  0.6397
  889MOL0     H20003   3.492   7.363   9.595  0.0493  1.2801  1.0829
  889MOL0     H20004   3.522   7.444   9.354 -0.3644 -1.6235  0.0227
  889MOL0     H20005   3.795   7.774   9.272  2.1021 -1.4561  1.7387
  889MOL0     H20006   3.857   7.627   9.310 -0.6255 -1.5494  0.2782
  889MOL0     H20007   3.859   7.548   9.090 -0.1347  0.4860 -0.6134
  889MOL0     H20008   3.900   7.719   9.076  0.0477  0.5563 -0.5374
  889MOL0     H20009   3.639   7.736   9.001 -0.8614 -0.2313  3.7300
  889MOL0     H20010   3.612   7.574   9.021 -1.6452  1.9696 -1.6001
  889MOL0     H20011   3.832   7.548   8.866 -1.1575  0.0185  1.7600
  889MOL0     H20012   3.795   7.703   8.815 -0.2554  0.4735  0.4624
  889MOL0     H20013   3.497   7.510   8.609 -1.2969  1.0530  1.7687
  889MOL0     H20014   3.773   7.745   9.479  1.4347 -1.6596 -1.9473
  889MOL0     H20015   3.762   7.676   9.718 -0.9273  0.1865  0.7051
  890MOL0     O20016   3.152   2.512  11.429 -0.1012  0.6713 -0.0069
  890MOL0     C20017   3.250   2.528  11.351  0.0609  0.2941  0.7681
  890MOL0     O20018   3.258   2.627  11.266 -0.3021 -0.1819  0.5753
  890MOL0     C20019   3.172   2.732  11.276  0.5308  0.1915 -0.4820
  890MOL0     C20020   3.098   2.780  11.165  0.9312 -0.2145 -1.2022
  890MOL0     C20021   3.025   2.904  11.162  0.3631 -0.3483 -0.2294
  890MOL0     C20022   3.028   2.986  11.273  0.1325 -0.0297  0.0667
  890MOL0     O20023   2.984   3.109  11.292 -0.0120 -0.1207 -0.1261
  890MOL0     C20024   2.863   3.150  11.230 -0.7044  1.9894 -0.4265
  890MOL0     C20025   2.837   3.294  11.264  1.1571 -0.2006 -0.4624
  890MOL0     C20026   2.838   3.331  11.416  0.0713  0.0904  0.0386
  890MOL0     C20027   2.753   3.249  11.507  0.9247 -0.1716 -0.8746
  890MOL0     C20028   2.824   3.223  11.633 -1.5632  0.5094 -0.3599
  890MOL0     C20029   2.748   3.164  11.749 -0.1789 -0.0239  0.5491
  890MOL0     C20030   2.740   3.010  11.734  0.6243  0.9798  0.5169
  890MOL0     C20031   2.638   2.936  11.824 -0.2959 -1.0973  0.8740
  890MOL0     N20032   2.501   2.937  11.762  0.0557 -0.9297 -0.3492
  890MOL0     C20033   2.397   3.019  11.794 -1.2038 -0.7082 -0.1616
  890MOL0     C20034   2.302   3.002  11.709 -0.2079  0.4789  0.8244
  890MOL0     C20035   2.161   3.062  11.712 -0.5645 -0.1975 -0.4047
  890MOL0     C20036   2.080   3.042  11.846 -0.3725  0.1886  1.0172
  890MOL0     C20037   1.922   3.053  11.832  0.1758 -1.1313 -0.2631
  890MOL0     C20038   1.889   3.200  11.846 -0.7051  1.2488  0.1024
  890MOL0     O20039   1.823   3.222  11.980 -0.3779 -0.8571  0.2735
  890MOL0     C20040   1.815   3.353  12.011 -0.1871 -0.0525 -0.1823
  890MOL0     C20041   1.889   3.398  12.114 -1.3815 -0.1177 -0.3938
  890MOL0     C20042   1.871   3.520  12.179 -0.0165 -0.4903 -0.1669
  890MOL0     C20043   1.967   3.548  12.295 -0.2294 -0.6609  0.4708
  890MOL0     C20044   1.787   3.610  12.125 -0.0181 -0.0467  0.8333
  890MOL0     C20045   1.769   3.759  12.165  0.0049  0.1241  0.5651
  890MOL0     O20046   1.873   3.814  12.238 -0.9366  0.7316  0.1272
  890MOL0     C20047   1.860   3.935  12.300 -1.0647 -0.4953  0.4508
  890MOL0     C20048   1.844   4.054  12.230  0.1840  0.6766 -0.0022
  890MOL0     C20049   1.827   4.177  12.292  0.6323 -0.1499  0.2550
  890MOL0     C20050   1.840   4.186  12.432 -0.7782 -0.2982  0.4629
  890MOL0     O20051   1.828   4.315  12.481  0.4641 -0.2603 -0.3699
  890MOL0     C20052   1.760   4.336  12.604  0.4592 -0.0750 -0.1271
  890MOL0     C20053   1.611   4.358  12.593 -0.0286  0.0664 -0.6735
  890MOL0     C20054   1.553   4.445  12.487  0.0431 -0.3342 -0.4494
  890MOL0     C20055   1.601   4.587  12.511  0.4451 -0.3615  0.1789
  890MOL0     C20056   1.539   4.705  12.435 -0.0399  0.4431 -0.2426
  890MOL0     C20057   1.598   4.706  12.292 -0.2795  0.4275 -0.5127
  890MOL0     C20058   1.562   4.837  12.226  0.6058  0.6289 -0.1309
  890MOL0     C20059   1.614   4.838  12.079  0.6972 -0.1203  0.1251
  890MOL0    Cl20060   1.797   4.874  12.072  0.0818  0.1314 -0.3051
  890MOL0     C20061   1.858   4.068  12.504 -0.6486 -0.5911  0.0744
  890MOL0     C20062   1.875   3.950  12.438 -0.7781  1.9105  1.2730
  890MOL0     O20063   1.664   3.824  12.132  0.4353 -0.5131  0.8329
  890MOL0     C20064   1.702   3.566  12.019  1.3260  0.3750 -0.0053
  890MOL0     C20065   1.718   3.439  11.964 -0.7109  0.9877 -0.6715
  890MOL0     N20066   2.345   2.903  11.618  0.1422  0.2242 -1.6086
  890MOL0     N20067   2.472   2.865  11.657  1.8848  0.6931  0.5733
  890MOL0     C20068   3.093   2.929  11.389 -1.1282 -0.1424  0.4902
  890MOL0     C20069   3.158   2.799  11.392  0.3867 -0.2160 -0.3627
  890MOL0     C20070   3.350   2.421  11.362  0.8743  0.8708  0.6414
  890MOL0     C20071   3.325   2.297  11.421  0.1672  0.4159  0.0942
  890MOL0     C20072   3.419   2.197  11.416  0.5307 -0.1027  0.8218
  890MOL0     C20073   3.535   2.216  11.349  0.2963 -0.0594 -0.0829
  890MOL0     O20074   3.616   2.103  11.350 -0.1581 -0.1613  0.4839
  890MOL0     C20075   3.715   2.096  11.246  0.1852  0.3728  0.0634
  890MOL0     C20076   3.777   1.959  11.243  0.5328  0.5962 -0.5298
  890MOL0     C20077   3.846   1.924  11.379  0.0572 -0.2800  0.0557
  890MOL0     C20078   3.991   1.963  11.386 -0.0779  0.0817  1.1077
  890MOL0     C20079   4.084   1.864  11.333 -0.0601 -0.7685  1.1867
  890MOL0     C20080   4.165   1.780  11.312 -0.8276  0.5047 -0.2510
  890MOL0     C20081   3.573   2.340  11.289  0.6153 -1.1508 -0.5971
  890MOL0     C20082   3.479   2.442  11.311 -0.6296 -0.3958  0.2930
  890MOL0     H20083   3.097   2.717  11.076 -1.8589 -0.1667 -1.2641
  890MOL0     H20084   2.980   2.942  11.071  0.2393  2.7918  1.0338
  890MOL0     H20085   2.850   3.135  11.122  0.7116  1.1857 -0.5141
  890MOL0     H20086   2.790   3.082  11.275  2.6002 -1.4717  0.2653
  890MOL0     H20087   2.908   3.359  11.212  2.2886 -0.1145  1.1260
  890MOL0     H20088   2.738   3.320  11.225  0.4175 -0.5168  1.1031
  890MOL0     H20089   2.941   3.317  11.449 -0.0200 -2.4821 -0.4901
  890MOL0     H20090   2.806   3.435  11.424  0.4088  0.1680  0.3809
  890MOL0     H20091   2.660   3.302  11.531 -0.1206 -1.2931 -2.2989
  890MOL0     H20092   2.731   3.150  11.466 -2.2082  0.7107 -1.6148
  890MOL0     H20093   2.913   3.160  11.625  0.0364  2.8300 -2.6836
  890MOL0     H20094   2.854   3.320  11.673 -0.7213 -0.2218  0.8347
  890MOL0     H20095   2.810   3.186  11.836  3.6652  1.2185 -2.2565
  890MOL0     H20096   2.649   3.211  11.743  0.6695  2.3996  3.3730
  890MOL0     H20097   2.721   2.977  11.632 -0.3278  0.0764  0.9574
  890MOL0     H20098   2.839   2.966  11.748  0.0081  0.2699  3.2225
  890MOL0     H20099   2.631   2.984  11.922 -1.8535  1.8081 -0.5397
  890MOL0     H20100   2.665   2.831  11.839 -2.5477 -1.8464  0.1385
  890MOL0     H20101   2.399   3.091  11.875 -1.0002  0.6005 -1.2967
  890MOL0     H20102   2.160   3.170  11.695  0.3011  0.6816  3.8701
  890MOL0     H20103   2.127   3.007  11.624  2.4142 -2.6290 -0.2127
  890MOL0     H20104   2.105   3.121  11.917 -3.9168  2.1297  0.3612
  890MOL0     H20105   2.116   2.950  11.893 -1.5003 -0.6457  0.3076
  890MOL0     H20106   1.881   2.998  11.918  1.3499  1.1589  1.8982
  890MOL0     H20107   1.883   3.008  11.740 -0.8039  2.4861 -1.7957
  890MOL0     H20108   1.827   3.223  11.758 -1.3670 -2.0977 -0.4542
  890MOL0     H20109   1.969   3.273  11.832  1.1572 -0.6963  0.1255
  890MOL0     H20110   1.961   3.326  12.150 -1.1468 -0.3888 -1.3683
  890MOL0     H20111   1.910   3.588  12.379 -2.0448 -3.7896  0.8908
  890MOL0     H20112   2.012   3.460  12.341  1.1747 -1.4663 -2.2164
  890MOL0     H20113   2.033   3.625  12.253 -1.5024 -0.9436 -2.3364
  890MOL0     H20114   1.835   4.039  12.123  2.1551 -5.3588  0.2696
  890MOL0     H20115   1.829   4.265  12.227 -0.7233 -0.0532  0.3117
  890MOL0     H20116   1.774   4.254  12.675  2.3188 -0.3731 -0.7903
  890MOL0     H20117   1.803   4.424  12.651  0.4650 -1.0419  1.7728
  890MOL0     H20118   1.563   4.261  12.576  4.1167 -2.4877  0.7451
  890MOL0     H20119   1.577   4.386  12.693  1.6860 -0.7216  0.1710
  890MOL0     H20120   1.444   4.442  12.499  0.2966  1.7542  5.7336
  890MOL0     H20121   1.580   4.415  12.385 -1.8048  1.2195 -1.4725
  890MOL0     H20122   1.593   4.615  12.617  0.5720  2.0733 -0.4005
  890MOL0     H20123   1.709   4.592  12.492  1.0641  0.9963  3.2919
  890MOL0     H20124   1.568   4.797  12.487 -0.8899  0.2234  0.6451
  890MOL0     H20125   1.431   4.716  12.427  0.1519  1.4270 -1.8186
  890MOL0     H20126   1.707   4.704  12.292 -0.0476  0.9495 -5.4348
  890MOL0     H20127   1.571   4.613  12.241  1.2091 -0.9715  1.1131
  890MOL0     H20128   1.605   4.926  12.273  0.9350  2.0791 -2.9858
  890MOL0     H20129   1.453   4.850  12.222  0.3319 -1.1359  0.6396
  890MOL0     H20130   1.564   4.911  12.015  2.0477  0.8155  0.1081
  890MOL0     H20131   1.586   4.742  12.035 -0.1590 -0.9508  2.3215
  890MOL0     H20132   1.862   4.086  12.611 -1.3731  1.6077 -0.2150
  890MOL0     H20133   1.883   3.858  12.496  2.7846  1.8842  1.0006
  890MOL0     H20134   1.610   3.614  11.989 -1.4261 -3.3198  1.6942
  890MOL0     H20135   1.644   3.404  11.894 -0.3881 -1.0990 -0.0466
  890MOL0     H20136   3.098   2.986  11.481 -0.3843  0.3698  0.1512
  890MOL0     H20137   3.215   2.767  11.479  0.8336  0.6044 -0.3463
  890MOL0     H20138   3.238   2.272  11.480 -1.1514 -1.1878 -2.3573
  890MOL0     H20139   3.407   2.101  11.464 -0.4470 -0.0641  0.6790
  890MOL0     H20140   3.673   2.116  11.147 -1.3185  2.8902  1.1345
  890MOL0     H20141   3.788   2.175  11.265  0.2399  2.0313 -5.3144
  890MOL0     H20142   3.851   1.948  11.163  1.5730  0.1120  0.4782
  890MOL0     H20143   3.689   1.895  11.230 -1.5706  2.4354  2.9968
  890MOL0     H20144   3.832   1.819  11.407  0.0781  0.0247  1.2580
  890MOL0     H20145   3.789   1.977  11.455  0.8728  1.0307 -0.2132
  890MOL0     H20146   4.019   1.988  11.489  0.4525  1.5780  0.6313
  890MOL0     H20147   4.002   2.056  11.329  0.9831  0.1247  1.3584
  890MOL0     H20148   4.235   1.703  11.288 -0.3112  1.7144 -3.0564
  890MOL0     H20149   3.669   2.372  11.251 -0.2826  0.9068 -1.3056
  890MOL0     H20150   3.513   2.537  11.273 -1.0557 -0.7909 -1.1507
  891MOL0     O20151   5.178   4.356   4.098  0.1523 -0.8879  0.1708
  891MOL0     C20152   5.287   4.376   4.155  0.0662  0.4465  0.4355
  891MOL0     O20153   5.301   4.418   4.288 -0.1135  0.0652 -0.0270
  891MOL0     C20154   5.185   4.414   4.365 -0.5990 -0.4266  0.5203
  891MOL0     C20155   5.124   4.536   4.396  0.1246  1.2615 -0.7817
  891MOL0     C20156   5.020   4.541   4.491  0.8773  0.1649 -0.5119
  891MOL0     C20157   4.978   4.423   4.555  0.6807  0.5333 -0.1017
  891MOL0     O20158   4.868   4.418   4.644 -0.3800  0.4856  0.5976
  891MOL0     C20159   4.783   4.531   4.669 -0.0043 -0.3568 -0.5881
  891MOL0     C20160   4.651   4.481   4.720 -0.5629 -0.5413 -0.7981
  891MOL0     C20161   4.554   4.595   4.684 -1.5142  1.1088  1.0194
  891MOL0     C20162   4.410   4.579   4.741  0.5339 -0.0502  0.3895
  891MOL0     C20163   4.293   4.665   4.698  0.2356  0.0254 -0.9985
  891MOL0     C20164   4.164   4.617   4.767 -0.2952  1.0483 -0.0704
  891MOL0     C20165   4.093   4.493   4.701  1.3426  0.6450  0.6324
  891MOL0     C20166   4.067   4.500   4.551 -0.4185 -0.3979  0.6664
  891MOL0     N20167   3.971   4.600   4.521  0.7363  0.0128 -0.2401
  891MOL0     C20168   3.840   4.578   4.519  0.4739  1.1475  0.4672
  891MOL0     C20169   3.782   4.687   4.466  0.4068  0.3642 -1.0035
  891MOL0     C20170   3.622   4.706   4.459 -0.7157  1.3509 -0.4275
  891MOL0     C20171   3.577   4.724   4.600 -0.0579 -0.2365 -0.1095
  891MOL0     C20172   3.576   4.878   4.627  0.0755  0.7641 -0.1738
  891MOL0     C20173   3.593   4.900   4.771 -0.1628 -0.3352 -0.0465
  891MOL0     O20174   3.471   4.920   4.851  0.3912  0.5716  0.3492
  891MOL0     C20175   3.399   4.805   4.874  0.4819  0.1254 -0.6533
  891MOL0     C20176   3.310   4.758   4.784  0.2316  0.6977  0.2153
  891MOL0     C20177   3.230   4.643   4.807  0.0638  0.1637  0.3346
  891MOL0     C20178   3.107   4.621   4.708 -0.2663  0.4940  0.2373
  891MOL0     C20179   3.249   4.561   4.920 -0.4158 -0.1639  1.1863
  891MOL0     C20180   3.181   4.436   4.946 -0.9952  0.3986 -0.3755
  891MOL0     O20181   3.177   4.351   4.836 -0.3640  0.0032  0.2534
  891MOL0     C20182   3.163   4.214   4.845 -0.3882  1.0595 -1.4621
  891MOL0     C20183   3.282   4.139   4.851 -0.1899  0.9817  0.3179
  891MOL0     C20184   3.263   4.003   4.873  0.3834  0.4156  0.4469
  891MOL0     C20185   3.138   3.940   4.892 -0.5609  0.1260  0.7852
  891MOL0     O20186   3.132   3.805   4.911 -0.3036  0.5963 -0.4077
  891MOL0     C20187   3.218   3.750   5.016 -0.0717  0.6520  0.2714
  891MOL0     C20188   3.138   3.625   5.075  1.0236  0.0046 -0.1831
  891MOL0     C20189   3.198   3.570   5.192 -0.9810  0.1711 -0.6298
  891MOL0     C20190   3.145   3.426   5.206  0.9914 -0.2010 -0.3608
  891MOL0     C20191   3.165   3.374   5.352  0.4847  0.1612 -0.0895
  891MOL0     C20192   3.121   3.230   5.384 -0.1747  0.0012  0.2467
  891MOL0     C20193   3.157   3.197   5.538  0.9797 -0.8985 -0.5575
  891MOL0     C20194   3.193   3.052   5.561 -0.0723 -0.9384 -0.6614
  891MOL0    Cl20195   3.210   3.025   5.732  0.1700  0.2312  0.2561
  891MOL0     C20196   3.025   4.015   4.871 -0.6800  0.1231 -0.6554
  891MOL0     C20197   3.036   4.148   4.861 -0.1584 -0.8007 -0.7818
  891MOL0     O20198   3.148   4.416   5.061  0.0784  0.3920  0.6701
  891MOL0     C20199   3.345   4.613   5.011  0.2079  0.3958 -0.2005
  891MOL0     C20200   3.413   4.738   4.991 -0.3499 -0.2491  0.0779
  891MOL0     N20201   3.883   4.785   4.447 -0.6571  1.4424  0.1303
  891MOL0     N20202   3.987   4.727   4.482 -0.7561 -0.3263  0.6992
  891MOL0     C20203   5.039   4.304   4.515 -0.2172  1.3675  0.2065
  891MOL0     C20204   5.142   4.296   4.419  0.2809 -0.4011 -0.1478
  891MOL0     C20205   5.408   4.342   4.080 -0.1390 -0.0279  0.9967
  891MOL0     C20206   5.406   4.284   3.949 -0.0084 -0.9026 -0.3832
  891MOL0     C20207   5.520   4.248   3.885 -0.0893 -0.4557 -0.4894
  891MOL0     C20208   5.645   4.274   3.937 -0.3227  0.5190 -1.0071
  891MOL0     O20209   5.763   4.232   3.869 -0.3267 -0.8384 -0.4476
  891MOL0     C20210   5.762   4.136   3.766  0.0075  0.3152 -1.6902
  891MOL0     C20211   5.903   4.124   3.726 -0.9615 -0.1636  0.8672
  891MOL0     C20212   5.911   4.035   3.597  0.1088  0.1137  0.0823
  891MOL0     C20213   5.961   3.893   3.629  0.4076  0.1574 -0.2650
  891MOL0     C20214   5.990   3.810   3.507 -0.8986 -0.5059 -0.8504
  891MOL0     C20215   6.006   3.746   3.401 -0.9518 -0.0217  0.1256
  891MOL0     C20216   5.646   4.333   4.064  0.1205 -1.2093 -1.2989
  891MOL0     C20217   5.532   4.367   4.130 -0.6087  0.9584 -0.8026
  891MOL0     H20218   5.165   4.627   4.354  0.9393  1.4655  0.4374
  891MOL0     H20219   4.972   4.637   4.508 -1.2639 -0.6967 -1.4140
  891MOL0     H20220   4.831   4.603   4.736 -0.5407 -0.5182 -0.0335
  891MOL0     H20221   4.767   4.590   4.578  0.6330 -0.7402 -0.9600
  891MOL0     H20222   4.642   4.386   4.666  1.7956 -0.5827 -1.2481
  891MOL0     H20223   4.640   4.473   4.828 -1.4660  1.6202 -0.6988
  891MOL0     H20224   4.603   4.690   4.708  3.7182  0.2160 -3.8511
  891MOL0     H20225   4.543   4.590   4.576  1.0703  0.5366  0.7205
  891MOL0     H20226   4.392   4.474   4.717  1.3236  0.0590 -0.7966
  891MOL0     H20227   4.429   4.585   4.848  6.6630  2.5261 -0.4137
  891MOL0     H20228   4.315   4.763   4.742  0.5630 -0.9307  1.0734
  891MOL0     H20229   4.290   4.680   4.589 -4.6842 -2.8474 -1.5577
  891MOL0     H20230   4.192   4.589   4.869  4.0722 -1.1870 -1.6166
  891MOL0     H20231   4.089   4.696   4.759 -3.5961 -2.0048 -2.3131
  891MOL0     H20232   4.156   4.406   4.721 -0.3091 -0.1801  2.6828
  891MOL0     H20233   3.997   4.469   4.750  1.8692  0.9396  1.8542
  891MOL0     H20234   4.036   4.401   4.515  0.8870 -0.7949  0.6025
  891MOL0     H20235   4.158   4.505   4.492 -0.0187 -0.3856  1.2787
  891MOL0     H20236   3.799   4.479   4.540  2.4377 -0.3296 -2.0307
  891MOL0     H20237   3.595   4.794   4.400 -1.0386  0.6987 -1.2742
  891MOL0     H20238   3.565   4.624   4.415 -0.0944  0.8779 -0.3530
  891MOL0     H20239   3.649   4.678   4.669  1.9004 -0.8574 -2.4428
  891MOL0     H20240   3.480   4.677   4.618  0.1705 -0.7558 -0.2024
  891MOL0     H20241   3.480   4.917   4.594 -2.1757 -1.3925  3.1595
  891MOL0     H20242   3.658   4.921   4.570 -0.0089  0.8175 -0.2544
  891MOL0     H20243   3.651   4.991   4.789 -1.1624  0.5967 -1.2645
  891MOL0     H20244   3.643   4.818   4.822 -2.3410 -1.2132  0.8304
  891MOL0     H20245   3.290   4.808   4.690 -4.5738  0.5098  0.9137
  891MOL0     H20246   3.087   4.714   4.655 -2.6205  0.7431  1.4335
  891MOL0     H20247   3.134   4.553   4.627  0.7228 -0.6252  1.4392
  891MOL0     H20248   3.022   4.592   4.770 -0.7595  1.2248 -0.0832
  891MOL0     H20249   3.379   4.187   4.838  0.0255 -0.1298 -3.0066
  891MOL0     H20250   3.350   3.938   4.874  0.0214 -0.1158 -0.4619
  891MOL0     H20251   3.312   3.707   4.982 -0.9973 -1.0992 -0.1941
  891MOL0     H20252   3.235   3.821   5.098  2.2095  2.8061 -1.9201
  891MOL0     H20253   3.036   3.663   5.077  0.9972 -0.0380 -0.5837
  891MOL0     H20254   3.132   3.545   5.001 -0.4398 -2.2228  2.1808
  891MOL0     H20255   3.178   3.627   5.284  0.4485  4.1664 -2.5605
  891MOL0     H20256   3.307   3.565   5.188 -0.7469 -0.9360  3.0308
  891MOL0     H20257   3.037   3.422   5.188  0.7804 -0.3733  0.8463
  891MOL0     H20258   3.204   3.372   5.131  0.8669 -1.1407  0.1931
  891MOL0     H20259   3.120   3.438   5.427  0.4182  3.5217 -2.7642
  891MOL0     H20260   3.271   3.384   5.376  0.0752 -0.0513  1.9483
  891MOL0     H20261   3.012   3.239   5.378  0.0282  2.5714 -1.4571
  891MOL0     H20262   3.176   3.165   5.316 -3.4043 -0.4274 -2.2104
  891MOL0     H20263   3.073   3.221   5.602  1.1927 -1.2213 -0.1507
  891MOL0     H20264   3.239   3.265   5.563 -0.0655 -0.8066  3.2136
  891MOL0     H20265   3.279   3.043   5.494 -1.0673  0.5922 -2.2407
  891MOL0     H20266   3.117   2.985   5.519 -0.8399 -0.4561 -0.0775
  891MOL0     H20267   2.933   3.959   4.884 -0.3757 -0.0410  0.9712
  891MOL0     H20268   2.953   4.217   4.851 -0.5344 -1.1525 -0.1426
  891MOL0     H20269   3.345   4.552   5.102  2.1318 -1.7687 -1.5541
  891MOL0     H20270   3.490   4.766   5.062  0.9734  0.8594 -1.7123
  891MOL0     H20271   5.009   4.209   4.559  0.4535 -0.1701 -2.4561
  891MOL0     H20272   5.198   4.205   4.402 -1.0815 -2.4009  4.6047
  891MOL0     H20273   5.313   4.279   3.893 -0.7491  1.8626  0.4467
  891MOL0     H20274   5.502   4.212   3.784 -0.3011  2.1628 -1.4437
  891MOL0     H20275   5.738   4.037   3.806  1.7315  0.1132 -1.0775
  891MOL0     H20276   5.693   4.153   3.683 -3.6884 -2.2533  0.5319
  891MOL0     H20277   5.957   4.087   3.813  1.4087  4.7255  1.8020
  891MOL0     H20278   5.938   4.224   3.700 -0.3944 -0.6712 -0.4060
  891MOL0     H20279   5.979   4.092   3.534  0.0105  0.9191  0.6892
  891MOL0     H20280   5.814   4.028   3.547  1.0868  0.9537 -2.0443
  891MOL0     H20281   5.902   3.842   3.705 -0.5734 -1.8314 -2.2451
  891MOL0     H20282   6.057   3.909   3.680  0.8945 -0.5640 -0.9332
  891MOL0     H20283   6.018   3.701   3.305  0.6256 -3.7476  1.8739
  891MOL0     H20284   5.744   4.349   4.108  1.1681 -5.0993 -1.8467
  891MOL0     H20285   5.540   4.405   4.231 -1.7479  4.2347 -1.8086
  892MOL0     O20286   7.383   0.292   5.567 -0.0755 -0.0289  0.0191
  892MOL0     C20287   7.407   0.324   5.453  0.2796 -0.4882  0.9753
  892MOL0     O20288   7.524   0.312   5.379 -0.4533  0.6770 -1.3217
  892MOL0     C20289   7.630   0.269   5.457 -0.9915  0.5920 -0.0016
  892MOL0     C20290   7.674   0.351   5.563  0.0877 -1.6754  0.1057
  892MOL0     C20291   7.777   0.305   5.646 -0.5065 -0.5274  0.6889
  892MOL0     C20292   7.854   0.195   5.622 -0.3550  0.3680 -1.0957
  892MOL0     O20293   7.950   0.153   5.713  0.3692 -0.1899  0.6997
  892MOL0     C20294   8.073   0.083   5.669 -0.8532 -0.7579 -0.2080
  892MOL0     C20295   8.193   0.091   5.775  0.8137 -0.8768  0.3789
  892MOL0     C20296   8.162   0.014   5.907 -0.1140 -0.8453 -0.3871
  892MOL0     C20297   8.060   0.089   6.000 -0.8206 -0.6066 -0.6216
  892MOL0     C20298   8.094   0.231   6.032  0.4169  0.0700  0.1928
  892MOL0     C20299   8.023   0.290   6.156 -0.0713 -0.0634 -0.5039
  892MOL0     C20300   8.100   0.411   6.215  0.1400  0.4793 -0.0798
  892MOL0     C20301   8.233   0.367   6.289  0.4022 -0.3172 -0.9973
  892MOL0     N20302   8.257   0.451   6.410 -0.1069  0.6321  0.0891
  892MOL0     C20303   8.272   0.583   6.416  0.0711 -1.1372 -0.0890
  892MOL0     C20304   8.281   0.611   6.550  0.0437  0.1085  0.2705
  892MOL0     C20305   8.298   0.764   6.586 -0.0480 -0.4396 -0.7671
  892MOL0     C20306   8.440   0.813   6.556  0.3508  0.5291  0.1733
  892MOL0     C20307   8.460   0.845   6.410 -0.2187 -0.0877  0.7812
  892MOL0     C20308   8.591   0.912   6.379 -0.4839 -0.3585  0.1848
  892MOL0     O20309   8.576   1.053   6.389  0.6588  0.3912  0.7333
  892MOL0     C20310   8.649   1.143   6.321  0.0442 -0.9367  0.4676
  892MOL0     C20311   8.575   1.259   6.275 -0.6227 -0.7671 -0.3046
  892MOL0     C20312   8.633   1.343   6.180 -0.0331 -0.1188  0.5804
  892MOL0     C20313   8.555   1.466   6.130 -0.1404  0.8845 -0.3022
  892MOL0     C20314   8.767   1.325   6.129  0.8783 -0.0744  0.1667
  892MOL0     C20315   8.849   1.400   6.035  0.9391  0.6706  0.0963
  892MOL0     O20316   8.929   1.328   5.965 -0.1366  0.1383  0.3849
  892MOL0     C20317   9.039   1.360   5.888  0.5643 -0.4794  1.0926
  892MOL0     C20318   9.060   1.296   5.768  0.9541  0.7075 -0.5330
  892MOL0     C20319   9.181   1.311   5.695 -0.9338 -0.6692 -1.2360
  892MOL0     C20320   9.271   1.414   5.727  0.4091  0.7510 -0.0681
  892MOL0     O20321   9.394   1.438   5.666 -0.5683 -0.3810 -0.2435
  892MOL0     C20322   9.434   1.400   5.534 -0.4147 -0.5453  0.6369
  892MOL0     C20323   9.393   1.493   5.431  0.1371  0.3016  1.0784
  892MOL0     C20324   9.470   1.624   5.424 -0.0367 -1.0212 -0.3693
  892MOL0     C20325   9.604   1.614   5.358 -0.4756 -0.0937 -0.7568
  892MOL0     C20326   9.684   1.746   5.335 -0.0471  0.3914  0.3384
  892MOL0     C20327   9.772   1.729   5.212 -0.2541  0.0224  1.1348
  892MOL0     C20328   9.893   1.653   5.246 -0.3641  0.2232 -0.2290
  892MOL0     C20329   9.974   1.629   5.119 -0.1555 -0.1375 -0.1770
  892MOL0    Cl20330  10.153   1.632   5.169  0.2966 -0.1843 -0.3541
  892MOL0     C20331   9.245   1.481   5.844 -0.0431 -0.6651 -0.0320
  892MOL0     C20332   9.134   1.454   5.923 -0.3059  1.1466 -0.0401
  892MOL0     O20333   8.846   1.524   6.022 -0.3412 -0.3232  0.4719
  892MOL0     C20334   8.841   1.225   6.194 -0.5017 -0.5038 -0.5758
  892MOL0     C20335   8.781   1.124   6.276  0.1427 -0.4695 -0.3169
  892MOL0     N20336   8.268   0.498   6.627  0.0565  0.3787 -0.3766
  892MOL0     N20337   8.249   0.407   6.538 -0.4058  0.1725  0.4760
  892MOL0     C20338   7.832   0.132   5.500 -0.1893 -1.2735  0.0027
  892MOL0     C20339   7.718   0.160   5.419 -0.6317 -0.3100  0.3318
  892MOL0     C20340   7.298   0.393   5.384 -0.6958 -1.0420 -0.2075
  892MOL0     C20341   7.171   0.393   5.453  0.1167 -0.0302  0.7002
  892MOL0     C20342   7.070   0.465   5.395  0.5194  0.0404 -0.4516
  892MOL0     C20343   7.087   0.534   5.281  0.6489  0.6874  0.9251
  892MOL0     O20344   6.970   0.593   5.234  0.8216 -0.5675  0.0040
  892MOL0     C20345   6.934   0.575   5.101  0.2397  0.8200 -0.4739
  892MOL0     C20346   6.851   0.694   5.053  0.4155  0.3877 -0.9314
  892MOL0     C20347   6.819   0.693   4.903 -0.0022  0.0323  0.4854
  892MOL0     C20348   6.730   0.811   4.864 -0.3704  0.3401 -0.3808
  892MOL0     C20349   6.821   0.922   4.820 -0.1428 -0.5499  0.1153
  892MOL0     C20350   6.895   1.007   4.783  0.0963 -1.3744  0.3251
  892MOL0     C20351   7.208   0.528   5.204 -0.2819  0.5361  0.3168
  892MOL0     C20352   7.316   0.451   5.259  0.5598 -0.1300 -0.1225
  892MOL0     H20353   7.617   0.440   5.588  1.0018 -0.7904 -0.8711
  892MOL0     H20354   7.799   0.376   5.725  1.3102 -0.0308 -0.2133
  892MOL0     H20355   8.044  -0.018   5.641 -2.5087 -0.5373  0.5920
  892MOL0     H20356   8.114   0.123   5.576 -1.5821 -2.0213 -1.0976
  892MOL0     H20357   8.270   0.041   5.715  1.2638  0.3688 -0.1278
  892MOL0     H20358   8.232   0.189   5.806  1.2621 -0.9163 -0.0489
  892MOL0     H20359   8.111  -0.077   5.876  1.5944 -1.9104 -0.1974
  892MOL0     H20360   8.252  -0.010   5.965 -0.4664 -2.2662 -0.4017
  892MOL0     H20361   7.959   0.087   5.959 -0.8832 -0.1704 -0.4925
  892MOL0     H20362   8.060   0.037   6.097  3.4918 -0.7310 -0.4681
  892MOL0     H20363   8.201   0.244   6.049  1.0373 -1.7108 -1.9366
  892MOL0     H20364   8.075   0.295   5.946  1.4184  2.3555  1.5731
  892MOL0     H20365   7.926   0.322   6.117 -0.0500 -1.3702 -1.7227
  892MOL0     H20366   8.006   0.210   6.228  1.4538 -1.0904 -1.2157
  892MOL0     H20367   8.127   0.475   6.129  1.5479 -1.4957 -1.1885
  892MOL0     H20368   8.028   0.457   6.283 -1.3140  0.6225 -1.6342
  892MOL0     H20369   8.312   0.364   6.214 -0.2182 -0.0754 -1.6710
  892MOL0     H20370   8.214   0.263   6.317  0.5691 -1.0726 -3.4955
  892MOL0     H20371   8.281   0.649   6.331  0.9177  0.1646  0.9611
  892MOL0     H20372   8.223   0.821   6.531  1.3726  0.2608 -2.0534
  892MOL0     H20373   8.271   0.778   6.691 -4.4448  1.2303 -1.8990
  892MOL0     H20374   8.500   0.729   6.592 -0.2188  0.4446  0.9785
  892MOL0     H20375   8.462   0.891   6.629  0.1713 -0.9033  1.8269
  892MOL0     H20376   8.376   0.909   6.382 -0.4282 -0.0311  1.5052
  892MOL0     H20377   8.452   0.761   6.340 -2.3298 -1.4976  2.5459
  892MOL0     H20378   8.613   0.889   6.275  1.3721  0.2241  0.4193
  892MOL0     H20379   8.678   0.887   6.441 -0.2091 -0.1155 -0.1001
  892MOL0     H20380   8.481   1.282   6.325  0.1740  3.8821 -0.5069
  892MOL0     H20381   8.590   1.502   6.033  0.2410  1.6636  0.1145
  892MOL0     H20382   8.447   1.452   6.141  0.1757 -0.0106  2.8661
  892MOL0     H20383   8.576   1.550   6.197  1.1282  0.6996 -0.4295
  892MOL0     H20384   8.986   1.222   5.738 -0.2353 -0.4866  4.4132
  892MOL0     H20385   9.202   1.254   5.606  0.9190 -0.9982 -0.6371
  892MOL0     H20386   9.543   1.400   5.533 -0.4168 -0.8109  0.4342
  892MOL0     H20387   9.393   1.302   5.509 -0.9449  0.0311 -0.8960
  892MOL0     H20388   9.409   1.448   5.333 -2.8008 -0.6695  0.9641
  892MOL0     H20389   9.284   1.498   5.430  0.1445  1.0218 -1.0312
  892MOL0     H20390   9.471   1.663   5.526  1.5343 -1.4486 -0.1982
  892MOL0     H20391   9.405   1.690   5.367  0.1240 -0.2422  0.3313
  892MOL0     H20392   9.678   1.552   5.409 -1.1425  1.4594  2.3561
  892MOL0     H20393   9.591   1.573   5.258 -1.0724 -1.7283 -0.0540
  892MOL0     H20394   9.741   1.777   5.423 -0.2459 -0.7902  0.8954
  892MOL0     H20395   9.610   1.824   5.312 -1.2508 -0.7044  0.4000
  892MOL0     H20396   9.723   1.680   5.128  0.1066 -3.0404  2.5912
  892MOL0     H20397   9.803   1.829   5.178 -2.9112  0.8679  0.9666
  892MOL0     H20398   9.867   1.557   5.292  3.2217 -0.4380  0.7178
  892MOL0     H20399   9.954   1.707   5.318 -0.4756  1.3961 -0.9850
  892MOL0     H20400   9.960   1.713   5.051 -2.1973  0.3745  0.7942
  892MOL0     H20401   9.958   1.532   5.070 -2.9155  0.3466 -0.3868
  892MOL0     H20402   9.316   1.556   5.875  0.1564 -1.0012  0.3354
  892MOL0     H20403   9.113   1.499   6.019  1.0132  1.2071  0.2310
  892MOL0     H20404   8.949   1.222   6.182 -0.3227  0.5095  0.5537
  892MOL0     H20405   8.845   1.044   6.311  1.0444  0.1267 -0.5736
  892MOL0     H20406   7.904   0.058   5.469  0.4482 -2.7087  4.1677
  892MOL0     H20407   7.698   0.105   5.328  2.3603 -1.0253 -0.0311
  892MOL0     H20408   7.149   0.343   5.547 -2.9254  0.1206  0.1680
  892MOL0     H20409   6.964   0.470   5.415  0.5188  1.7123 -0.7089
  892MOL0     H20410   7.013   0.575   5.025 -1.7968  1.3237 -2.7085
  892MOL0     H20411   6.871   0.486   5.107  4.6482 -2.5885  1.5051
  892MOL0     H20412   6.900   0.788   5.081  1.2242 -1.3904  5.1427
  892MOL0     H20413   6.758   0.702   5.110  1.0893 -0.4712  0.3399
  892MOL0     H20414   6.777   0.599   4.869 -1.2754  1.2184 -1.4280
  892MOL0     H20415   6.915   0.702   4.851 -0.7646 -0.3975 -1.0514
  892MOL0     H20416   6.686   0.845   4.958  3.1428 -0.1108  1.5903
  892MOL0     H20417   6.654   0.789   4.788 -2.5399  0.8039  1.5169
  892MOL0     H20418   6.957   1.087   4.747  1.5346 -2.1711  0.9495
  892MOL0     H20419   7.206   0.571   5.104 -1.9522 -0.7073 -0.2288
  892MOL0     H20420   7.409   0.448   5.203  0.7235  1.5472 -0.0076
  893MOL0     O20421   3.130   4.924   1.150 -0.1751 -0.1182 -0.3187
  893MOL0     C20422   3.205   4.969   1.236  0.1422 -0.0179 -1.1609
  893MOL0     O20423   3.338   4.992   1.220  0.2428 -0.6995 -0.3862
  893MOL0     C20424   3.391   4.997   1.092  1.2073 -0.0388 -0.4894
  893MOL0     C20425   3.400   5.118   1.033 -0.2150  0.0216 -0.3750
  893MOL0     C20426   3.463   5.127   0.908  0.2181 -0.2567  0.2597
  893MOL0     C20427   3.504   5.010   0.840 -0.0950  1.2830 -0.1760
  893MOL0     O20428   3.574   5.033   0.715 -0.0958 -0.2250  0.3732
  893MOL0     C20429   3.629   4.921   0.645  0.3554  0.2887  0.6161
  893MOL0     C20430   3.538   4.833   0.557  0.5719 -0.1666  0.6983
  893MOL0     C20431   3.466   4.921   0.458 -0.8333 -0.0384 -0.7150
  893MOL0     C20432   3.409   4.848   0.343 -0.4279  0.0506 -0.3488
  893MOL0     C20433   3.287   4.932   0.284 -0.8570  0.6919 -0.4646
  893MOL0     C20434   3.350   5.053   0.218  0.7432 -0.3196  0.0705
  893MOL0     C20435   3.246   5.121   0.134 -0.5535  0.3367  0.0364
  893MOL0     C20436   3.267   5.274   0.133 -0.1348 -0.3503  0.7576
  893MOL0     N20437   3.354   5.310   0.013 -0.4458 -0.0614  0.0923
  893MOL0     C20438   3.343   5.429  -0.045  1.0211 -0.4398  0.6420
  893MOL0     C20439   3.437   5.431  -0.146  0.5699 -0.0903 -0.4099
  893MOL0     C20440   3.469   5.547  -0.240  0.1936  0.3819  0.1003
  893MOL0     C20441   3.344   5.641  -0.260 -0.0430  0.7961  0.1219
  893MOL0     C20442   3.362   5.765  -0.351 -0.7100  1.0866 -0.0913
  893MOL0     C20443   3.237   5.845  -0.363  0.4276  1.2920  1.0488
  893MOL0     O20444   3.204   5.936  -0.260  0.0302 -0.4106 -0.0368
  893MOL0     C20445   3.086   6.006  -0.264 -0.2671 -0.7580 -0.5238
  893MOL0     C20446   3.059   6.077  -0.142 -0.1336  0.7291 -0.9599
  893MOL0     C20447   2.936   6.144  -0.122 -1.0644  1.3896  0.4261
  893MOL0     C20448   2.928   6.235  -0.011 -0.0486 -0.1438 -0.5142
  893MOL0     C20449   2.830   6.123  -0.208 -0.6729  0.6879  0.6400
  893MOL0     C20450   2.694   6.165  -0.180  0.0842  0.6473  0.5512
  893MOL0     O20451   2.601   6.072  -0.215  0.7150 -0.3315 -0.5524
  893MOL0     C20452   2.473   6.139  -0.214 -0.2038 -0.5050 -0.2987
  893MOL0     C20453   2.395   6.143  -0.101 -0.7565  0.0311 -0.0161
  893MOL0     C20454   2.263   6.192  -0.110 -0.2960 -0.6628 -0.2645
  893MOL0     C20455   2.217   6.242  -0.234  0.9197  0.2859  1.0978
  893MOL0     O20456   2.090   6.290  -0.257  0.4525 -0.3516 -0.0469
  893MOL0     C20457   2.017   6.239  -0.376  0.4562  0.3889 -0.6066
  893MOL0     C20458   1.878   6.307  -0.405 -0.9122 -0.2041 -0.4368
  893MOL0     C20459   1.779   6.215  -0.485  0.1831 -0.5200  0.4359
  893MOL0     C20460   1.654   6.295  -0.507  0.0228  0.2603  0.6681
  893MOL0     C20461   1.546   6.222  -0.585 -0.7136  0.4351 -0.1811
  893MOL0     C20462   1.401   6.283  -0.598  0.1980 -0.3162  0.4656
  893MOL0     C20463   1.313   6.227  -0.716 -1.0620  0.4793  0.5868
  893MOL0     C20464   1.309   6.079  -0.714 -0.6410 -0.3384 -0.4949
  893MOL0    Cl20465   1.276   6.020  -0.549  0.5534 -0.0298  0.1174
  893MOL0     C20466   2.310   6.260  -0.335  0.6992 -0.2564 -0.7975
  893MOL0     C20467   2.437   6.212  -0.325 -0.1938  0.0404  0.4561
  893MOL0     O20468   2.679   6.277  -0.148 -0.7496  0.5541 -0.9016
  893MOL0     C20469   2.857   6.045  -0.328  0.3907 -0.5956  0.2602
  893MOL0     C20470   2.988   5.999  -0.360 -1.1102 -0.3458 -0.4008
  893MOL0     N20471   3.506   5.314  -0.139  0.4984  0.5343  0.2957
  893MOL0     N20472   3.448   5.239  -0.052 -0.7355  0.9140  0.1684
  893MOL0     C20473   3.487   4.886   0.900  0.8942 -0.1245  0.4749
  893MOL0     C20474   3.426   4.884   1.026  1.0101 -0.6188  0.6344
  893MOL0     C20475   3.154   4.977   1.376 -0.5487  0.1671 -0.8534
  893MOL0     C20476   3.028   4.923   1.408  0.5104  0.4703 -0.1443
  893MOL0     C20477   2.977   4.916   1.544 -0.0939 -0.1331 -0.0872
  893MOL0     C20478   3.062   4.957   1.645  0.2513 -0.2775 -0.7152
  893MOL0     O20479   3.023   4.951   1.781 -0.1169 -0.1662 -0.4066
  893MOL0     C20480   3.000   4.818   1.821  0.3577  0.4798 -0.1320
  893MOL0     C20481   2.993   4.779   1.966 -0.4090 -0.1487 -0.5808
  893MOL0     C20482   2.974   4.630   1.999 -0.2231  0.9036  1.0033
  893MOL0     C20483   2.937   4.599   2.145 -0.1284 -0.6571  0.2324
  893MOL0     C20484   2.868   4.470   2.132  0.0716 -0.4147 -0.2152
  893MOL0     C20485   2.824   4.359   2.125 -0.8380  0.0036 -0.2863
  893MOL0     C20486   3.183   5.026   1.608  0.3671 -0.3285  0.2790
  893MOL0     C20487   3.229   5.035   1.479 -0.2877  0.7777 -0.2078
  893MOL0     H20488   3.363   5.212   1.073  2.2201  0.2934  1.4787
  893MOL0     H20489   3.462   5.219   0.851  0.1482  0.1654  0.9381
  893MOL0     H20490   3.709   4.964   0.583  0.0021  1.4662  0.9587
  893MOL0     H20491   3.679   4.856   0.717  1.0434 -0.6763 -0.7000
  893MOL0     H20492   3.601   4.767   0.496 -1.8028 -2.1818  0.2482
  893MOL0     H20493   3.470   4.781   0.625 -0.6090  0.1673 -0.1920
  893MOL0     H20494   3.390   4.971   0.517  1.9020  2.3167  1.0960
  893MOL0     H20495   3.540   4.988   0.411 -0.3809 -0.0705 -0.0612
  893MOL0     H20496   3.481   4.828   0.264  1.2262  0.8469  0.8840
  893MOL0     H20497   3.373   4.752   0.381 -0.3224  0.6737  1.4246
  893MOL0     H20498   3.244   4.866   0.207  1.3020 -2.1324  0.5508
  893MOL0     H20499   3.203   4.944   0.353 -0.5727 -0.7678  0.1855
  893MOL0     H20500   3.371   5.123   0.300 -1.6007  2.4668 -1.5307
  893MOL0     H20501   3.449   5.036   0.173  0.2090 -0.2943 -1.1465
  893MOL0     H20502   3.264   5.074   0.038  1.0780  2.9314 -1.0441
  893MOL0     H20503   3.143   5.110   0.172 -1.1438  1.0814 -1.2981
  893MOL0     H20504   3.308   5.307   0.229  2.8068 -0.0837 -0.4882
  893MOL0     H20505   3.166   5.314   0.121 -0.7126 -2.0349 -0.4965
  893MOL0     H20506   3.279   5.511  -0.014  0.5773  0.0302 -1.3742
  893MOL0     H20507   3.558   5.598  -0.202 -0.0261 -0.5716  2.0006
  893MOL0     H20508   3.491   5.496  -0.334 -3.5075 -0.3575 -0.4885
  893MOL0     H20509   3.326   5.671  -0.157 -0.0898  2.2449 -0.2879
  893MOL0     H20510   3.257   5.583  -0.292 -1.3693  3.5966 -1.7460
  893MOL0     H20511   3.395   5.728  -0.449 -2.0461 -0.1411 -0.1142
  893MOL0     H20512   3.435   5.841  -0.320  2.1142 -0.0291 -3.3005
  893MOL0     H20513   3.155   5.773  -0.369 -0.4445  2.2272  1.3383
  893MOL0     H20514   3.247   5.898  -0.459 -0.8098  1.7732  1.1607
  893MOL0     H20515   3.135   6.075  -0.064 -0.3325  2.2317 -0.6792
  893MOL0     H20516   3.020   6.220   0.047  0.0140 -1.2253 -0.8621
  893MOL0     H20517   2.916   6.334  -0.055  0.4154  0.7690  1.3352
  893MOL0     H20518   2.831   6.212   0.036 -0.8853 -1.4061 -2.7045
  893MOL0     H20519   2.427   6.103  -0.005 -0.0284 -0.0849 -0.2984
  893MOL0     H20520   2.204   6.194  -0.019 -1.0207  1.0374 -0.7228
  893MOL0     H20521   2.076   6.256  -0.467 -1.9935  0.6850 -2.2548
  893MOL0     H20522   2.007   6.131  -0.359  1.6654  0.2226 -0.8576
  893MOL0     H20523   1.844   6.329  -0.303 -0.3708  2.5024 -0.7750
  893MOL0     H20524   1.902   6.405  -0.447 -0.2421 -0.6894 -1.2129
  893MOL0     H20525   1.751   6.136  -0.414 -0.5762 -0.7626 -0.1239
  893MOL0     H20526   1.825   6.186  -0.580  1.8652  6.1787 -1.3543
  893MOL0     H20527   1.613   6.319  -0.408 -1.0353  0.5493  0.1773
  893MOL0     H20528   1.666   6.390  -0.560 -1.1079 -0.0336 -0.1708
  893MOL0     H20529   1.541   6.121  -0.544  0.9163  0.5559  0.4108
  893MOL0     H20530   1.590   6.206  -0.683  2.9980 -0.3833  1.4416
  893MOL0     H20531   1.338   6.285  -0.510  0.6474  0.5287  0.7849
  893MOL0     H20532   1.404   6.390  -0.623  0.8215 -0.4710 -0.1808
  893MOL0     H20533   1.363   6.256  -0.809  0.3239 -2.5684  0.2605
  893MOL0     H20534   1.212   6.269  -0.724 -0.0927  3.4864  2.7093
  893MOL0     H20535   1.401   6.026  -0.739  0.0217  1.2548 -1.5741
  893MOL0     H20536   1.234   6.049  -0.788  0.2775  1.4387 -2.2336
  893MOL0     H20537   2.288   6.315  -0.426 -2.4928  0.1085  0.0715
  893MOL0     H20538   2.510   6.204  -0.405 -0.9786  1.2499 -0.4276
  893MOL0     H20539   2.784   5.995  -0.391 -0.2801  0.0455  0.5189
  893MOL0     H20540   3.002   5.944  -0.453 -1.6400 -2.8335  0.9132
  893MOL0     H20541   3.507   4.789   0.855 -1.4566  0.0033 -1.0173
  893MOL0     H20542   3.413   4.786   1.072 -2.9369 -1.1627 -1.2306
  893MOL0     H20543   2.976   4.867   1.331 -0.1884  0.3198  0.4251
  893MOL0     H20544   2.876   4.877   1.557 -0.7510  1.0945 -1.3339
  893MOL0     H20545   2.907   4.773   1.786  1.6246 -2.3099 -0.2235
  893MOL0     H20546   3.079   4.758   1.774  0.6366  0.5449  0.2516
  893MOL0     H20547   2.906   4.821   2.018  0.5304  1.2242 -0.0718
  893MOL0     H20548   3.088   4.819   2.002  1.2924 -2.6396 -2.0022
  893MOL0     H20549   3.063   4.571   1.972 -1.6589 -0.1124 -1.9074
  893MOL0     H20550   2.907   4.584   1.926  1.6102  0.2196 -0.3486
  893MOL0     H20551   2.874   4.680   2.184  1.5180  1.5377 -1.4055
  893MOL0     H20552   3.017   4.594   2.219 -0.9870 -0.2853  1.2191
  893MOL0     H20553   2.783   4.260   2.122  3.8081 -2.1683 -2.5514
  893MOL0     H20554   3.241   5.079   1.684 -0.2066  2.9106 -1.3413
  893MOL0     H20555   3.328   5.076   1.465  0.8022 -1.8565 -0.9158
  894MOL0     O20556   5.030   5.214   2.547  0.2036 -0.2868 -0.2862
  894MOL0     C20557   4.931   5.283   2.545  0.0751  0.7291  1.0913
  894MOL0     O20558   4.820   5.283   2.626 -1.3447  0.3884 -0.2322
  894MOL0     C20559   4.807   5.177   2.714  0.1263  0.4951  0.2504
  894MOL0     C20560   4.870   5.195   2.837 -0.6123 -0.4691 -0.1650
  894MOL0     C20561   4.836   5.111   2.944 -0.1531  0.4385  0.2206
  894MOL0     C20562   4.743   5.003   2.927  0.1944  1.0317  0.2078
  894MOL0     O20563   4.681   4.918   3.014 -0.4985  0.7478  0.2388
  894MOL0     C20564   4.746   4.889   3.137  0.7498 -0.3604  0.0838
  894MOL0     C20565   4.846   4.782   3.133  0.1086  0.5771  0.5571
  894MOL0     C20566   4.776   4.652   3.177 -0.4103  0.4977 -0.1800
  894MOL0     C20567   4.759   4.651   3.336  0.1200  0.3650 -0.2394
  894MOL0     C20568   4.685   4.513   3.369 -0.0747  0.6081  0.1979
  894MOL0     C20569   4.687   4.483   3.519 -0.4824  0.2504 -0.2285
  894MOL0     C20570   4.572   4.372   3.550 -0.2918 -0.2058 -0.4114
  894MOL0     C20571   4.554   4.355   3.704 -0.5000 -0.0664  0.0825
  894MOL0     N20572   4.497   4.223   3.737  0.5506 -0.2880 -0.3160
  894MOL0     C20573   4.533   4.105   3.676 -0.2418 -0.5271  0.4476
  894MOL0     C20574   4.451   4.009   3.727 -0.5810 -0.0978  0.0832
  894MOL0     C20575   4.481   3.858   3.710  0.5328 -0.6168 -0.6779
  894MOL0     C20576   4.385   3.796   3.624 -0.7433  0.2166  0.3385
  894MOL0     C20577   4.405   3.818   3.469  0.3180 -0.3803  0.0727
  894MOL0     C20578   4.286   3.793   3.373  0.3090  0.3667 -0.6448
  894MOL0     O20579   4.259   3.651   3.365 -0.0401  0.2913  0.0571
  894MOL0     C20580   4.138   3.622   3.310  0.7140  0.5746 -0.8617
  894MOL0     C20581   4.059   3.532   3.386 -0.4738 -0.1646  0.3970
  894MOL0     C20582   3.928   3.489   3.346 -0.0674 -0.0487 -0.3579
  894MOL0     C20583   3.853   3.390   3.441  0.3585  0.3676 -0.4412
  894MOL0     C20584   3.877   3.540   3.225 -0.4779  0.1741 -1.4901
  894MOL0     C20585   3.745   3.505   3.169 -0.1548  0.5689 -0.0990
  894MOL0     O20586   3.652   3.507   3.261 -0.6908 -0.3981  0.5350
  894MOL0     C20587   3.522   3.464   3.225  0.6684 -0.0348 -0.4641
  894MOL0     C20588   3.411   3.539   3.276  0.1769  0.0656 -0.0035
  894MOL0     C20589   3.279   3.492   3.252 -0.2356  0.6837 -0.0847
  894MOL0     C20590   3.246   3.380   3.179 -0.3436  0.0255  0.5958
  894MOL0     O20591   3.118   3.328   3.165 -0.5598 -0.1189  0.9644
  894MOL0     C20592   3.005   3.409   3.200 -0.1275  0.0309 -0.6066
  894MOL0     C20593   2.929   3.467   3.089 -0.0381 -0.2698  0.1133
  894MOL0     C20594   3.018   3.551   3.000 -0.5666  0.7675  0.1127
  894MOL0     C20595   2.946   3.668   2.931  1.1239  0.4893 -0.9848
  894MOL0     C20596   3.037   3.756   2.846  1.0876  1.0376  0.4617
  894MOL0     C20597   2.963   3.846   2.748  0.4746  0.1105 -0.2880
  894MOL0     C20598   2.880   3.773   2.632 -0.1482 -0.3909  0.3652
  894MOL0     C20599   2.874   3.839   2.497 -0.4576 -0.9333  0.4786
  894MOL0    Cl20600   2.921   4.009   2.517  0.7743 -0.0783 -0.2673
  894MOL0     C20601   3.354   3.319   3.115 -0.1450 -0.1356  0.1753
  894MOL0     C20602   3.492   3.360   3.148 -0.2741  0.3545  0.4694
  894MOL0     O20603   3.736   3.473   3.048 -0.0166  0.0884  0.6429
  894MOL0     C20604   3.959   3.618   3.151  0.0245  0.2714  0.1901
  894MOL0     C20605   4.083   3.663   3.188 -1.1416 -0.5004 -0.6977
  894MOL0     N20606   4.375   4.076   3.814  0.2545 -0.0302 -0.5725
  894MOL0     N20607   4.397   4.202   3.823  0.5814 -0.2093  0.2059
  894MOL0     C20608   4.692   4.982   2.804 -0.1345 -0.4519  0.9764
  894MOL0     C20609   4.715   5.070   2.698 -0.1192 -0.6201  0.0332
  894MOL0     C20610   4.932   5.382   2.439  0.3874  0.9136  0.3000
  894MOL0     C20611   4.816   5.472   2.426  0.0636 -0.1968  0.7307
  894MOL0     C20612   4.822   5.585   2.339 -0.5030  0.2579 -0.2561
  894MOL0     C20613   4.931   5.599   2.252  0.0271  0.0671  0.2560
  894MOL0     O20614   4.930   5.679   2.140 -0.3532 -0.3730  0.4938
  894MOL0     C20615   4.876   5.812   2.148 -0.0098  0.7489 -0.1703
  894MOL0     C20616   4.915   5.895   2.025  0.3334  1.0546 -0.9038
  894MOL0     C20617   5.074   5.873   2.012  0.7221 -0.3917 -0.0437
  894MOL0     C20618   5.165   5.995   2.029  0.4502  0.4365  1.2368
  894MOL0     C20619   5.161   6.041   2.169  0.2006  0.9089 -0.8375
  894MOL0     C20620   5.182   6.079   2.285  1.1042 -0.2009  0.1095
  894MOL0     C20621   5.045   5.515   2.276 -1.0533 -1.3668 -0.4959
  894MOL0     C20622   5.038   5.405   2.352  0.0832 -0.2076  0.5030
  894MOL0     H20623   4.950   5.266   2.856 -0.4349 -1.0295  1.3825
  894MOL0     H20624   4.875   5.139   3.041 -0.2988 -2.7481  1.3171
  894MOL0     H20625   4.794   4.980   3.175  0.1813  0.2419 -0.6317
  894MOL0     H20626   4.663   4.856   3.200  0.8233 -1.8217 -0.5416
  894MOL0     H20627   4.885   4.790   3.031  0.9667  2.8698  1.0120
  894MOL0     H20628   4.931   4.804   3.198  1.2674 -2.0143  0.0783
  894MOL0     H20629   4.680   4.644   3.125 -0.4878 -1.5115  0.2151
  894MOL0     H20630   4.828   4.566   3.133  0.0299  1.6291 -2.0055
  894MOL0     H20631   4.849   4.644   3.399  0.5831  0.6746 -0.8605
  894MOL0     H20632   4.700   4.736   3.372 -1.0013 -0.6080  0.2688
  894MOL0     H20633   4.583   4.531   3.335 -0.3609 -0.8360  0.2206
  894MOL0     H20634   4.722   4.428   3.311  0.2036  0.2906  0.8334
  894MOL0     H20635   4.781   4.444   3.558 -0.2075  3.4384  2.7418
  894MOL0     H20636   4.666   4.575   3.575  0.5162 -0.5711  1.5621
  894MOL0     H20637   4.485   4.406   3.493 -0.3811  0.4966  0.1290
  894MOL0     H20638   4.599   4.273   3.512  2.1648 -0.7241  2.3423
  894MOL0     H20639   4.478   4.430   3.730 -1.7889 -2.0214  2.3773
  894MOL0     H20640   4.642   4.379   3.764  0.8468  0.4723 -2.0284
  894MOL0     H20641   4.612   4.101   3.602 -0.3345  1.0029  0.2324
  894MOL0     H20642   4.580   3.838   3.669  1.5515 -0.4683  1.5502
  894MOL0     H20643   4.470   3.812   3.809 -0.5902 -0.9948 -0.9692
  894MOL0     H20644   4.281   3.822   3.647 -0.1331  4.0763 -0.5293
  894MOL0     H20645   4.408   3.693   3.654 -1.7244 -0.1922 -0.2462
  894MOL0     H20646   4.493   3.764   3.433  0.4913 -0.3296  0.4244
  894MOL0     H20647   4.421   3.926   3.457 -1.3006 -0.2802 -1.6397
  894MOL0     H20648   4.317   3.835   3.277 -0.2164  0.8050 -0.6281
  894MOL0     H20649   4.194   3.843   3.404  0.8298  1.6881 -1.1542
  894MOL0     H20650   4.095   3.498   3.482 -1.6040  2.9206  2.0608
  894MOL0     H20651   3.796   3.448   3.514  2.4528  2.0053 -0.0175
  894MOL0     H20652   3.793   3.317   3.385  0.9201 -0.2035 -0.3020
  894MOL0     H20653   3.931   3.333   3.493 -0.7682 -2.1314 -1.3255
  894MOL0     H20654   3.434   3.624   3.339 -1.4298  2.3276 -2.2995
  894MOL0     H20655   3.202   3.551   3.301 -1.7691 -1.1027 -0.2550
  894MOL0     H20656   2.938   3.344   3.257  1.4193 -0.5148  0.6652
  894MOL0     H20657   3.033   3.483   3.275 -2.0254  1.5789 -1.3169
  894MOL0     H20658   2.901   3.377   3.035 -0.8198 -0.4135  0.7348
  894MOL0     H20659   2.843   3.525   3.122  0.7755  0.9293  0.2117
  894MOL0     H20660   3.055   3.488   2.918 -0.6188  1.7604 -0.6912
  894MOL0     H20661   3.091   3.603   3.062  1.5389 -3.4517  1.5463
  894MOL0     H20662   2.863   3.622   2.877 -0.3176  2.4643 -0.5680
  894MOL0     H20663   2.904   3.733   3.008 -0.0042  0.1658 -1.3010
  894MOL0     H20664   3.095   3.708   2.767 -0.7692  1.8605 -1.5353
  894MOL0     H20665   3.118   3.793   2.908  2.5131 -3.0057  1.2646
  894MOL0     H20666   2.889   3.915   2.791 -1.4026  1.2268 -4.6354
  894MOL0     H20667   3.044   3.914   2.720  0.2602  0.4802 -0.0163
  894MOL0     H20668   2.779   3.783   2.673  0.2261 -1.3923  1.5596
  894MOL0     H20669   2.904   3.667   2.623  2.0238  0.0102  1.0524
  894MOL0     H20670   2.772   3.837   2.458 -2.6360  3.8836  4.6745
  894MOL0     H20671   2.945   3.804   2.422 -0.7840  1.2051 -0.9088
  894MOL0     H20672   3.340   3.235   3.049  2.1705 -0.0277 -0.5462
  894MOL0     H20673   3.574   3.294   3.119  2.7138  2.9334  2.4402
  894MOL0     H20674   3.925   3.651   3.054  0.9114  0.2824 -0.1250
  894MOL0     H20675   4.138   3.724   3.117 -2.7694 -0.0908 -1.6620
  894MOL0     H20676   4.623   4.898   2.801 -0.9726  0.2511 -0.1697
  894MOL0     H20677   4.654   5.054   2.610 -2.7196 -3.6871  2.1711
  894MOL0     H20678   4.725   5.450   2.481  0.3270 -2.0162  0.5028
  894MOL0     H20679   4.751   5.666   2.350  2.2346  2.8994 -0.5604
  894MOL0     H20680   4.768   5.799   2.139  0.4703 -3.3288 -1.8581
  894MOL0     H20681   4.913   5.857   2.241  2.3312 -1.7983  0.2539
  894MOL0     H20682   4.904   6.000   2.055  0.7053  0.9978 -0.5582
  894MOL0     H20683   4.857   5.870   1.936  0.4612  3.9965 -1.9414
  894MOL0     H20684   5.080   5.832   1.911 -2.8908 -3.2294  0.6918
  894MOL0     H20685   5.117   5.797   2.078 -0.4399 -0.0262  1.1799
  894MOL0     H20686   5.136   6.081   1.969  0.0353  2.5861  4.2979
  894MOL0     H20687   5.265   5.970   1.993  0.1896 -0.3114  1.0115
  894MOL0     H20688   5.206   6.124   2.379  0.4587 -0.0824  0.2227
  894MOL0     H20689   5.130   5.530   2.210  0.4194 -1.9758  1.1791
  894MOL0     H20690   5.128   5.345   2.348  1.5438  1.8984 -1.8591
  895MOL0     O20691   3.120   6.638   8.226  0.6145  0.7375  0.7480
  895MOL0     C20692   3.205   6.611   8.144  0.3268  0.2108 -0.1749
  895MOL0     O20693   3.336   6.582   8.160  0.4744 -0.2903  0.8521
  895MOL0     C20694   3.380   6.548   8.287  0.6015  0.2914  0.4453
  895MOL0     C20695   3.356   6.416   8.348  0.6484 -0.5015 -0.3162
  895MOL0     C20696   3.407   6.389   8.476 -0.2226 -0.2502  0.1208
  895MOL0     C20697   3.463   6.490   8.550  0.5555 -0.0092  0.5635
  895MOL0     O20698   3.491   6.464   8.684 -0.0042 -0.4864  0.6248
  895MOL0     C20699   3.576   6.561   8.751  0.4546  0.1307 -0.0802
  895MOL0     C20700   3.632   6.507   8.876 -0.6363  0.0810 -0.3554
  895MOL0     C20701   3.769   6.575   8.918  0.4695 -0.5481 -0.3207
  895MOL0     C20702   3.832   6.539   9.053  0.5765  0.5106 -0.3097
  895MOL0     C20703   3.832   6.380   9.068 -0.8050 -0.4576  0.6376
  895MOL0     C20704   3.887   6.327   9.202 -0.4560  0.1327 -0.8525
  895MOL0     C20705   3.900   6.170   9.210 -0.0823  0.5194 -0.1432
  895MOL0     C20706   3.975   6.118   9.341  0.3127  0.3204 -0.4962
  895MOL0     N20707   4.112   6.159   9.335 -0.7709 -0.9624  0.6003
  895MOL0     C20708   4.185   6.233   9.429 -0.0923  0.6858 -0.2427
  895MOL0     C20709   4.316   6.211   9.387 -0.3512  0.8327  0.5956
  895MOL0     C20710   4.444   6.249   9.452 -0.1696  1.0619 -0.6565
  895MOL0     C20711   4.477   6.397   9.441  0.6544 -0.7558  0.0891
  895MOL0     C20712   4.627   6.412   9.412 -0.1795 -0.1318  0.1075
  895MOL0     C20713   4.676   6.414   9.264 -0.4753  0.8240 -0.0849
  895MOL0     O20714   4.591   6.325   9.194  0.1603 -0.0320 -0.2469
  895MOL0     C20715   4.615   6.303   9.067 -0.2517 -1.1677 -0.0893
  895MOL0     C20716   4.736   6.329   8.994  1.0262  0.3403 -0.2881
  895MOL0     C20717   4.764   6.315   8.853 -0.0652 -0.1058 -1.1890
  895MOL0     C20718   4.909   6.333   8.804 -0.3697 -0.0578 -0.3252
  895MOL0     C20719   4.646   6.275   8.781  0.5086  0.0097  0.1837
  895MOL0     C20720   4.655   6.250   8.640  0.5366  0.1669  0.1164
  895MOL0     O20721   4.572   6.152   8.600 -0.4841  0.2491 -0.0892
  895MOL0     C20722   4.561   6.115   8.467 -0.4455  0.3536 -0.8036
  895MOL0     C20723   4.546   5.975   8.452  0.1515 -0.0666 -0.2557
  895MOL0     C20724   4.528   5.928   8.323 -0.7014 -0.3795  0.4040
  895MOL0     C20725   4.530   6.011   8.215  0.2446 -0.6387  0.1893
  895MOL0     O20726   4.527   5.978   8.088  0.3150  0.1396 -0.1016
  895MOL0     C20727   4.594   5.851   8.065 -0.4083  0.1925 -0.3989
  895MOL0     C20728   4.598   5.834   7.920  0.0362  0.8015  0.0846
  895MOL0     C20729   4.681   5.714   7.879 -0.9563  0.0044  0.0064
  895MOL0     C20730   4.740   5.725   7.731 -0.8113 -0.3319 -0.3112
  895MOL0     C20731   4.638   5.701   7.621 -0.4144 -0.2931 -0.0979
  895MOL0     C20732   4.640   5.562   7.551 -0.4189  0.0509 -0.2701
  895MOL0     C20733   4.608   5.449   7.650  0.5302  0.0578 -0.1883
  895MOL0     C20734   4.568   5.328   7.559  1.0417 -0.2730  0.5721
  895MOL0    Cl20735   4.385   5.330   7.508 -0.1386  0.0685  0.3151
  895MOL0     C20736   4.541   6.150   8.232 -0.8553  0.2232  0.6787
  895MOL0     C20737   4.556   6.199   8.353 -1.0462  0.1669 -1.4807
  895MOL0     O20738   4.730   6.314   8.570 -0.0129 -0.3295 -0.0590
  895MOL0     C20739   4.517   6.261   8.848 -0.4346 -0.3418 -0.2715
  895MOL0     C20740   4.512   6.270   8.984  0.8080 -0.2105 -0.3001
  895MOL0     N20741   4.312   6.130   9.278  0.4850 -0.3614  0.1252
  895MOL0     N20742   4.191   6.105   9.245  0.6897  0.2806  0.1055
  895MOL0     C20743   3.469   6.625   8.495 -0.9146  0.6800  0.2086
  895MOL0     C20744   3.442   6.654   8.362  0.0209  0.9786 -0.5282
  895MOL0     C20745   3.149   6.629   8.015  0.6114  0.0432 -0.2186
  895MOL0     C20746   3.039   6.707   7.992  0.6880  0.3971 -0.2952
  895MOL0     C20747   2.985   6.730   7.862  0.5186 -0.0134 -1.0645
  895MOL0     C20748   3.048   6.658   7.758 -0.0850 -0.1101 -0.5677
  895MOL0     O20749   3.010   6.661   7.627 -0.0987 -0.4927  0.0250
  895MOL0     C20750   2.879   6.675   7.595 -0.3022 -0.0755  0.1994
  895MOL0     C20751   2.856   6.815   7.530 -1.1195 -0.4751 -0.1594
  895MOL0     C20752   2.972   6.924   7.523  0.2462 -0.0141  0.5252
  895MOL0     C20753   2.956   7.023   7.413 -1.2861  0.0644  0.1119
  895MOL0     C20754   2.833   7.099   7.404 -0.9981 -0.6203 -0.2405
  895MOL0     C20755   2.722   7.151   7.401 -0.0523 -0.2727 -0.9073
  895MOL0     C20756   3.147   6.575   7.782 -0.0567 -0.3677  0.4541
  895MOL0     C20757   3.202   6.560   7.907 -0.5110  0.6188  0.1686
  895MOL0     H20758   3.302   6.343   8.289 -0.0049 -0.3391  0.0662
  895MOL0     H20759   3.393   6.289   8.514 -0.8428  0.5337  2.0996
  895MOL0     H20760   3.650   6.595   8.679 -2.9667 -0.4763 -4.3022
  895MOL0     H20761   3.511   6.644   8.780 -1.3530 -1.1160 -0.3816
  895MOL0     H20762   3.562   6.520   8.959  0.5191 -0.0960  0.6741
  895MOL0     H20763   3.659   6.401   8.866  0.8643  0.6452 -3.0684
  895MOL0     H20764   3.850   6.558   8.847  0.0931  2.2397 -1.5651
  895MOL0     H20765   3.737   6.680   8.923  0.1209 -0.6443 -0.5129
  895MOL0     H20766   3.935   6.576   9.053  0.7943 -0.0419  0.9551
  895MOL0     H20767   3.766   6.579   9.130 -0.3085 -0.7542 -0.3685
  895MOL0     H20768   3.730   6.342   9.082 -2.8791  3.7732 -1.3786
  895MOL0     H20769   3.888   6.335   8.985  2.8712 -0.7394  3.0557
  895MOL0     H20770   3.988   6.370   9.196 -0.6525  0.6585 -0.3672
  895MOL0     H20771   3.834   6.366   9.289 -2.2491 -0.6300 -1.5472
  895MOL0     H20772   3.800   6.128   9.221 -0.1947  0.4246 -1.3275
  895MOL0     H20773   3.949   6.129   9.121  2.7262  2.5530  0.3167
  895MOL0     H20774   3.959   6.010   9.352  1.4714  0.3226  1.6353
  895MOL0     H20775   3.918   6.159   9.425  0.0636  0.3189 -0.6642
  895MOL0     H20776   4.154   6.296   9.511 -0.1640  3.8091 -2.5000
  895MOL0     H20777   4.428   6.219   9.556 -3.8825  2.4017 -0.7250
  895MOL0     H20778   4.516   6.179   9.408 -1.7176  0.0424 -1.6239
  895MOL0     H20779   4.459   6.436   9.541 -1.0125 -1.0361 -0.0782
  895MOL0     H20780   4.419   6.454   9.367 -0.4611 -1.5988  0.2949
  895MOL0     H20781   4.682   6.337   9.469  0.5794  0.2586 -0.0955
  895MOL0     H20782   4.668   6.506   9.452  1.9428  0.3209 -2.8058
  895MOL0     H20783   4.780   6.380   9.257 -0.2088  1.6925 -0.5365
  895MOL0     H20784   4.676   6.509   9.209 -0.9907  0.0323 -1.5221
  895MOL0     H20785   4.820   6.366   9.052  1.9592  0.3915 -1.6251
  895MOL0     H20786   4.915   6.287   8.705 -2.1274  0.2379 -0.6021
  895MOL0     H20787   4.942   6.437   8.811  4.6711 -1.3236 -1.6054
  895MOL0     H20788   4.978   6.272   8.863 -0.4282  1.4917  1.4125
  895MOL0     H20789   4.544   5.924   8.548 -2.7558 -0.0226 -0.1941
  895MOL0     H20790   4.524   5.820   8.313  2.0471 -0.5062 -0.2072
  895MOL0     H20791   4.694   5.860   8.106 -0.9382 -3.8982  2.3242
  895MOL0     H20792   4.533   5.770   8.107 -2.1216  1.9483  0.7306
  895MOL0     H20793   4.497   5.830   7.877  0.7459  0.4432 -1.6373
  895MOL0     H20794   4.643   5.925   7.880 -1.0333  1.4361  0.2715
  895MOL0     H20795   4.629   5.619   7.894  1.7284 -1.4387  0.9173
  895MOL0     H20796   4.769   5.722   7.944  0.2634  3.6939 -1.8350
  895MOL0     H20797   4.783   5.825   7.726  0.8003 -0.8177  2.1103
  895MOL0     H20798   4.822   5.654   7.722 -1.7614 -1.4232 -0.6613
  895MOL0     H20799   4.662   5.775   7.545 -1.1737  2.0470  1.8407
  895MOL0     H20800   4.538   5.728   7.656 -1.8023 -0.9685 -3.2246
  895MOL0     H20801   4.559   5.556   7.478 -0.4614 -3.9226 -0.1141
  895MOL0     H20802   4.729   5.531   7.495  0.9706  0.4834  1.5989
  895MOL0     H20803   4.513   5.459   7.703 -0.4916 -1.5036 -1.6171
  895MOL0     H20804   4.682   5.425   7.727  1.3518 -3.1533 -1.7880
  895MOL0     H20805   4.580   5.235   7.614  1.4858 -1.5267 -1.5610
  895MOL0     H20806   4.623   5.318   7.465 -2.7641 -1.1196 -1.7534
  895MOL0     H20807   4.530   6.208   8.141  1.6929  0.2357  0.2940
  895MOL0     H20808   4.588   6.300   8.377  2.1436 -0.3735 -3.0484
  895MOL0     H20809   4.427   6.258   8.788 -0.7293  3.3221 -0.2248
  895MOL0     H20810   4.421   6.251   9.040 -1.6004  0.4617 -3.6520
  895MOL0     H20811   3.502   6.699   8.568  1.7242  0.1177 -0.2991
  895MOL0     H20812   3.462   6.753   8.322 -1.1259  0.7166 -1.8352
  895MOL0     H20813   2.981   6.738   8.078 -1.5589 -3.1140 -0.3261
  895MOL0     H20814   2.903   6.801   7.854  1.8589  2.1590  2.3495
  895MOL0     H20815   2.860   6.605   7.514 -2.3700  2.3231 -1.5701
  895MOL0     H20816   2.812   6.646   7.676  2.5283 -1.8814  2.0515
  895MOL0     H20817   2.768   6.859   7.577 -1.6322 -2.6679  1.0889
  895MOL0     H20818   2.834   6.783   7.428  3.6470 -4.4930 -0.3055
  895MOL0     H20819   3.068   6.879   7.497  1.9072  0.9457  4.3495
  895MOL0     H20820   2.974   6.970   7.622 -2.9880 -1.7112  1.5094
  895MOL0     H20821   2.981   6.977   7.317 -3.4812  4.1985 -2.7660
  895MOL0     H20822   3.032   7.100   7.434  0.0274 -1.1863  0.0888
  895MOL0     H20823   2.623   7.190   7.390  0.2648  0.3777 -1.5748
  895MOL0     H20824   3.183   6.514   7.699  1.0240  0.9492 -0.0679
  895MOL0     H20825   3.283   6.488   7.925 -0.6032  0.5571  0.3422
  896MOL0     O20826  11.169  11.022   2.125  0.2685 -0.0167  0.4333
  896MOL0     C20827  11.185  11.144   2.109  0.3462  0.3551  0.9034
  896MOL0     O20828  11.304  11.215   2.065 -0.4875 -0.6387  0.1403
  896MOL0     C20829  11.391  11.166   1.979 -0.2800 -1.2574 -0.0514
  896MOL0     C20830  11.375  11.058   1.898 -0.8678  0.6621  0.8942
  896MOL0     C20831  11.493  11.018   1.841  0.3366 -0.1006 -0.3480
  896MOL0     C20832  11.617  11.084   1.830 -0.5988 -1.1571 -0.4085
  896MOL0     O20833  11.712  11.042   1.751  0.5843  0.1671  0.2541
  896MOL0     C20834  11.844  11.096   1.761 -0.9733 -0.3929 -0.8932
  896MOL0     C20835  11.929  11.033   1.651  0.0113  0.3560 -0.2759
  896MOL0     C20836  12.079  11.047   1.687 -0.5068 -0.1764 -0.1128
  896MOL0     C20837  12.172  10.994   1.579 -1.4326  0.4605  0.5501
  896MOL0     C20838  12.185  11.081   1.449  0.2181 -0.3921 -0.6741
  896MOL0     C20839  12.298  11.178   1.468 -0.9794 -0.2453 -0.5643
  896MOL0     C20840  12.337  11.255   1.336 -0.2958  0.0524  0.7699
  896MOL0     C20841  12.397  11.169   1.218  0.4057  0.9390 -0.2209
  896MOL0     N20842  12.478  11.243   1.115 -1.1437 -0.3402 -0.8155
  896MOL0     C20843  12.608  11.302   1.123  0.5694 -0.4121  0.9798
  896MOL0     C20844  12.626  11.341   0.990 -0.0710 -0.5585  0.3890
  896MOL0     C20845  12.755  11.398   0.942 -0.8027  0.1729 -0.5439
  896MOL0     C20846  12.732  11.531   0.885 -0.1685  0.2144  0.4781
  896MOL0     C20847  12.858  11.595   0.834  0.9110 -0.4771  0.3136
  896MOL0     C20848  12.965  11.641   0.932 -0.5265  0.8432  0.1201
  896MOL0     O20849  12.909  11.750   1.012  0.0633  0.5951  1.1116
  896MOL0     C20850  13.010  11.841   1.043  0.3960 -0.3227  0.2252
  896MOL0     C20851  13.024  11.952   0.969  0.3439 -0.4289 -0.7363
  896MOL0     C20852  13.120  12.049   1.004  0.0956  0.4603 -1.0321
  896MOL0     C20853  13.124  12.177   0.918 -0.5629  0.6253  1.1680
  896MOL0     C20854  13.216  12.021   1.113 -0.7458 -0.4471 -0.8014
  896MOL0     C20855  13.337  12.096   1.128  0.4969 -0.2107 -0.4346
  896MOL0     O20856  13.368  12.117   1.262 -0.6603 -0.8120  0.6239
  896MOL0     C20857  13.499  12.166   1.287 -0.2638 -0.7083  0.1410
  896MOL0     C20858  13.590  12.074   1.328  0.1909  1.0377  1.1003
  896MOL0     C20859  13.719  12.110   1.355 -0.0693 -0.2700  0.1077
  896MOL0     C20860  13.757  12.245   1.330 -0.0214  0.5609  0.6204
  896MOL0     O20861  13.876  12.308   1.359 -0.0976  0.1146 -0.8774
  896MOL0     C20862  13.986  12.234   1.405 -0.1501 -1.1745 -0.5760
  896MOL0     C20863  13.956  12.195   1.554 -0.0008 -0.2044  0.4827
  896MOL0     C20864  13.951  12.325   1.633 -0.1184 -0.7752 -0.0838
  896MOL0     C20865  13.965  12.288   1.784 -0.0686 -0.3535  0.1315
  896MOL0     C20866  13.917  12.388   1.888  0.2031 -1.4714  0.4139
  896MOL0     C20867  14.027  12.485   1.940 -0.2434 -0.3105 -0.2778
  896MOL0     C20868  13.980  12.599   2.036  0.8107 -0.7591 -0.2464
  896MOL0     C20869  13.854  12.676   1.980 -0.0005 -0.0967 -0.5601
  896MOL0    Cl20870  13.875  12.844   2.050 -0.4106 -0.7542  0.3605
  896MOL0     C20871  13.660  12.330   1.275  0.3175 -0.4073  0.9733
  896MOL0     C20872  13.529  12.294   1.261 -0.1081  1.5358  0.0471
  896MOL0     O20873  13.404  12.125   1.027 -0.2601 -0.2621 -0.4990
  896MOL0     C20874  13.186  11.909   1.193  0.1004  0.2727  0.0228
  896MOL0     C20875  13.080  11.824   1.157 -0.3098  0.3265  0.3349
  896MOL0     N20876  12.522  11.306   0.905  0.4610  0.3032 -0.4062
  896MOL0     N20877  12.428  11.256   0.985  0.1500 -0.6252 -0.8507
  896MOL0     C20878  11.620  11.210   1.901 -0.3191  1.0955 -0.1843
  896MOL0     C20879  11.511  11.239   1.973  0.6868 -0.6829 -0.2371
  896MOL0     C20880  11.062  11.221   2.139  0.1249  0.5644 -0.5670
  896MOL0     C20881  10.936  11.157   2.161  0.6539 -0.2930  0.6933
  896MOL0     C20882  10.823  11.240   2.153  0.3513  0.2098 -0.3608
  896MOL0     C20883  10.830  11.377   2.143  0.4543 -0.1581  0.5967
  896MOL0     O20884  10.719  11.458   2.148 -0.7846  0.4834  0.2436
  896MOL0     C20885  10.584  11.423   2.143  0.1015  0.4964  0.1653
  896MOL0     C20886  10.517  11.547   2.082 -0.0518  0.1821 -0.3830
  896MOL0     C20887  10.423  11.524   1.959 -1.1497 -0.5429 -0.0794
  896MOL0     C20888  10.285  11.504   1.999  0.9872  0.2763 -0.2491
  896MOL0     C20889  10.192  11.488   1.891 -0.4075 -0.6139  1.0070
  896MOL0     C20890  10.119  11.461   1.799  0.4346 -0.2742  0.4179
  896MOL0     C20891  10.951  11.434   2.135 -0.8840 -0.1946  0.1133
  896MOL0     C20892  11.067  11.355   2.130  0.5286 -0.5970  0.1901
  896MOL0     H20893  11.286  10.996   1.889 -1.9777  2.0273  2.1416
  896MOL0     H20894  11.491  10.931   1.777 -3.2288 -0.7382  0.4416
  896MOL0     H20895  11.855  11.205   1.753  1.2655 -0.3876  1.1709
  896MOL0     H20896  11.882  11.074   1.861 -0.4124  0.3731 -0.9290
  896MOL0     H20897  11.901  10.928   1.646 -1.2552  0.3625  3.4361
  896MOL0     H20898  11.912  11.088   1.558 -0.1927 -1.2600 -1.2216
  896MOL0     H20899  12.113  11.146   1.717  2.6282 -1.4809  1.0580
  896MOL0     H20900  12.090  10.985   1.777 -2.7800 -3.9029 -2.1252
  896MOL0     H20901  12.266  10.966   1.627 -2.3622 -3.6033  0.3803
  896MOL0     H20902  12.134  10.896   1.549 -0.6511  1.2803 -3.8142
  896MOL0     H20903  12.196  11.029   1.353  3.0908 -0.0957 -0.5893
  896MOL0     H20904  12.086  11.128   1.444 -1.5123 -3.2293  2.6570
  896MOL0     H20905  12.282  11.251   1.548  4.1535 -1.5524  2.1107
  896MOL0     H20906  12.385  11.121   1.501  0.9273  0.5006 -3.8423
  896MOL0     H20907  12.255  11.316   1.298  0.7787 -0.2667 -2.3621
  896MOL0     H20908  12.404  11.335   1.368 -3.3566  2.4095  1.8439
  896MOL0     H20909  12.311  11.124   1.168  0.4861 -5.4012  4.2833
  896MOL0     H20910  12.467  11.090   1.247  0.0699  0.8353  0.3082
  896MOL0     H20911  12.671  11.312   1.210  1.3116  4.2638  0.2019
  896MOL0     H20912  12.818  11.403   1.031 -3.0670  0.3913  1.1208
  896MOL0     H20913  12.792  11.329   0.866 -2.6441  0.9055 -2.1881
  896MOL0     H20914  12.683  11.593   0.960  1.2238  1.8223  0.1233
  896MOL0     H20915  12.656  11.524   0.807 -0.8973  2.3390  0.9303
  896MOL0     H20916  12.836  11.690   0.785  1.6100 -0.9317 -0.9338
  896MOL0     H20917  12.899  11.519   0.767  3.0264  0.1494  0.8102
  896MOL0     H20918  13.053  11.680   0.880 -0.3050 -1.5524 -1.4870
  896MOL0     H20919  13.001  11.558   0.993  3.7078  1.7796 -0.7965
  896MOL0     H20920  12.956  11.981   0.889 -0.1016 -0.4641 -0.3768
  896MOL0     H20921  13.203  12.161   0.844 -0.8823  0.2502  0.9028
  896MOL0     H20922  13.029  12.193   0.866  0.3909 -1.9391 -1.6813
  896MOL0     H20923  13.154  12.265   0.975 -0.1891  1.4177 -0.2043
  896MOL0     H20924  13.566  11.979   1.375  1.1122  0.3158  0.1616
  896MOL0     H20925  13.792  12.038   1.391  2.2987  1.0520 -1.7304
  896MOL0     H20926  13.992  12.143   1.345 -3.2447 -1.1437 -1.1311
  896MOL0     H20927  14.082  12.277   1.378 -2.5035  3.7932 -2.1930
  896MOL0     H20928  13.859  12.146   1.565  0.5068 -0.8318  2.7582
  896MOL0     H20929  14.033  12.127   1.592  2.1951  2.5813  1.4048
  896MOL0     H20930  13.855  12.376   1.618 -0.1797 -0.6091  0.8207
  896MOL0     H20931  14.035  12.387   1.602  0.4815 -1.2735  0.5114
  896MOL0     H20932  13.912  12.194   1.802 -0.6621 -0.5403 -2.3016
  896MOL0     H20933  14.070  12.269   1.809  0.1752 -0.8517 -1.1952
  896MOL0     H20934  13.890  12.331   1.977 -0.6502 -2.4967 -0.4787
  896MOL0     H20935  13.834  12.448   1.851 -1.3856 -3.2484  0.9180
  896MOL0     H20936  14.108  12.420   1.974 -2.3014 -1.6156  2.5456
  896MOL0     H20937  14.067  12.545   1.858 -0.2080  1.3871  0.9341
  896MOL0     H20938  14.054  12.680   2.046  2.6575 -2.0485 -2.5478
  896MOL0     H20939  13.963  12.564   2.138  0.4412  1.9697  0.7361
  896MOL0     H20940  13.759  12.633   2.012  0.6383  0.0652  1.7972
  896MOL0     H20941  13.848  12.681   1.871 -2.0479  1.0081 -0.4440
  896MOL0     H20942  13.682  12.432   1.244 -3.1639 -0.3849 -2.1995
  896MOL0     H20943  13.455  12.360   1.218 -1.1479 -1.2556 -2.8576
  896MOL0     H20944  13.251  11.890   1.278 -0.2235 -0.1425  0.1822
  896MOL0     H20945  13.044  11.740   1.217  1.4861  0.1134  1.1761
  896MOL0     H20946  11.705  11.277   1.902  1.7145 -1.3112  0.9964
  896MOL0     H20947  11.507  11.332   2.029 -1.9568 -1.9298  1.8767
  896MOL0     H20948  10.916  11.052   2.177 -3.0981  0.2423  0.3828
  896MOL0     H20949  10.729  11.187   2.169 -1.6850  3.0670 -2.1008
  896MOL0     H20950  10.577  11.339   2.074  0.3774 -1.4333  2.3646
  896MOL0     H20951  10.555  11.395   2.245 -0.1481 -2.1488 -0.5694
  896MOL0     H20952  10.594  11.604   2.029 -2.6746  1.4198 -3.1955
  896MOL0     H20953  10.476  11.609   2.162 -1.9114 -1.7064  0.1881
  896MOL0     H20954  10.466  11.437   1.908  4.9726  1.7175  0.4546
  896MOL0     H20955  10.439  11.610   1.894 -1.5726 -0.0428  0.4592
  896MOL0     H20956  10.247  11.583   2.064 -2.8371 -0.9374 -0.7785
  896MOL0     H20957  10.285  11.415   2.062  0.6030 -0.5180 -1.3468
  896MOL0     H20958  10.058  11.448   1.711  0.5126  2.6689 -0.1959
  896MOL0     H20959  10.958  11.542   2.135  0.1507 -0.2474 -0.7913
  896MOL0     H20960  11.157  11.414   2.112  0.4530 -0.3492  0.6242
  897MOL0     O20961   2.997   6.283   2.912  0.3661  0.2433 -0.0932
  897MOL0     C20962   2.921   6.321   2.831  0.4889 -0.9215  0.6892
  897MOL0     O20963   2.917   6.298   2.696 -0.9429 -1.4785  1.1432
  897MOL0     C20964   3.008   6.226   2.616 -0.3228  0.0992 -0.8574
  897MOL0     C20965   3.011   6.242   2.480 -0.2844 -0.3587  0.3717
  897MOL0     C20966   3.113   6.179   2.409  0.1921 -0.1284  0.1883
  897MOL0     C20967   3.208   6.100   2.466  0.9706 -0.3737  0.6629
  897MOL0     O20968   3.310   6.050   2.397  0.1112  0.2281  0.8138
  897MOL0     C20969   3.282   5.986   2.275 -1.1137  0.3285  0.4084
  897MOL0     C20970   3.395   5.930   2.196  0.9947 -0.3509  1.0474
  897MOL0     C20971   3.484   6.040   2.136 -0.4561 -0.6900  0.2581
  897MOL0     C20972   3.578   5.980   2.032  0.3058  0.0102 -0.6375
  897MOL0     C20973   3.519   5.896   1.916  0.7316  0.0962  0.8362
  897MOL0     C20974   3.628   5.881   1.807  0.4502 -0.1049  0.2810
  897MOL0     C20975   3.576   5.805   1.682 -1.2078 -0.6086 -0.3197
  897MOL0     C20976   3.690   5.769   1.593 -0.5283  0.4258  0.4290
  897MOL0     N20977   3.743   5.875   1.510 -0.6184  0.3072 -0.3923
  897MOL0     C20978   3.841   5.959   1.555  0.0838 -0.6016  1.3678
  897MOL0     C20979   3.861   6.047   1.448 -0.7515 -0.0034 -0.5613
  897MOL0     C20980   3.926   6.185   1.436 -0.6983  0.1909 -0.2116
  897MOL0     C20981   3.882   6.292   1.529 -0.6238 -0.2361 -1.3999
  897MOL0     C20982   3.963   6.419   1.515 -0.7899  0.5851  0.9218
  897MOL0     C20983   3.900   6.534   1.585  0.0118  0.5232  0.0226
  897MOL0     O20984   3.980   6.642   1.544  0.5295 -0.5580 -0.3545
  897MOL0     C20985   3.918   6.755   1.510  0.8480 -0.2627  0.6422
  897MOL0     C20986   3.828   6.836   1.589 -0.3551  0.5612  0.3549
  897MOL0     C20987   3.764   6.948   1.530  0.3644 -0.1040  1.7224
  897MOL0     C20988   3.646   7.001   1.614 -0.2420  0.1001  0.1903
  897MOL0     C20989   3.807   7.000   1.406 -0.6390 -0.0386 -0.3181
  897MOL0     C20990   3.750   7.126   1.342 -0.3986 -0.3720  0.4257
  897MOL0     O20991   3.802   7.169   1.230 -0.2637  0.6952  0.0381
  897MOL0     C20992   3.797   7.292   1.176 -1.0320 -0.3205 -0.3915
  897MOL0     C20993   3.869   7.291   1.051 -0.4565  0.7380  0.0376
  897MOL0     C20994   3.893   7.415   0.984  0.0481  0.5829  0.1915
  897MOL0     C20995   3.829   7.532   1.024 -0.3951  0.2255 -0.7322
  897MOL0     O20996   3.849   7.644   0.946 -0.1221  0.4888  0.3394
  897MOL0     C20997   3.834   7.766   1.013  0.5176  1.0214 -0.2677
  897MOL0     C20998   3.905   7.863   0.923  0.4317  0.1362  0.1327
  897MOL0     C20999   4.055   7.857   0.927  0.5919 -0.9506 -0.4646
  897MOL0     C21000   4.101   7.974   0.828  0.7976  0.3476 -0.2748
  897MOL0     C21001   4.244   7.940   0.802  0.3982 -0.2376 -0.1476
  897MOL0     C21002   4.273   7.839   0.699 -0.4709  0.8087  0.4271
  897MOL0     C21003   4.421   7.827   0.648  0.1707 -0.8314  0.4690
  897MOL0     C21004   4.468   7.688   0.615  0.3631  0.5540  0.2024
  897MOL0    Cl21005   4.416   7.636   0.450 -0.0362  0.1528  0.3526
  897MOL0     C21006   3.760   7.521   1.148  0.1597  0.3261 -0.2193
  897MOL0     C21007   3.744   7.412   1.230 -1.3012 -0.0341  0.4415
  897MOL0     O21008   3.668   7.190   1.409  0.1067  0.8591 -0.3459
  897MOL0     C21009   3.906   6.927   1.333  0.2488  0.4434 -0.4669
  897MOL0     C21010   3.958   6.804   1.387  0.2775  0.6214  0.9382
  897MOL0     N21011   3.782   5.997   1.344  0.0190 -0.2890  0.4718
  897MOL0     N21012   3.709   5.891   1.383  0.2288 -0.0614 -0.3093
  897MOL0     C21013   3.208   6.077   2.598 -0.0406  0.4219 -0.2189
  897MOL0     C21014   3.108   6.137   2.673 -0.4376  0.0517 -0.5643
  897MOL0     C21015   2.825   6.413   2.877 -0.0250 -0.6870 -0.2869
  897MOL0     C21016   2.721   6.453   2.790 -0.1629  0.0341 -0.6673
  897MOL0     C21017   2.609   6.522   2.838 -0.0379 -0.6031 -0.0828
  897MOL0     C21018   2.603   6.571   2.963 -0.6370  0.5573 -0.2785
  897MOL0     O21019   2.499   6.660   3.003  0.2108  0.8536 -0.4933
  897MOL0     C21020   2.388   6.692   2.913 -0.3040 -0.7237 -0.1709
  897MOL0     C21021   2.304   6.792   2.999 -0.9007 -0.4842 -0.5843
  897MOL0     C21022   2.218   6.883   2.910  0.5810 -0.5137 -0.2325
  897MOL0     C21023   2.105   6.948   2.998  0.0557 -0.1301 -0.0782
  897MOL0     C21024   2.018   7.051   2.931  0.1021  1.4550  0.1755
  897MOL0     C21025   1.938   7.126   2.886  0.1943 -0.3144  0.4198
  897MOL0     C21026   2.714   6.540   3.047  0.1767  0.7565  0.5750
  897MOL0     C21027   2.824   6.470   3.004  0.1944 -0.6455 -0.3999
  897MOL0     H21028   2.941   6.312   2.435 -1.7187 -0.5360  2.2085
  897MOL0     H21029   3.128   6.203   2.304 -0.1862 -1.6282 -0.2305
  897MOL0     H21030   3.220   5.896   2.283  0.5482 -0.9359 -0.3667
  897MOL0     H21031   3.231   6.054   2.206  0.7259  2.3288  0.9298
  897MOL0     H21032   3.453   5.852   2.246 -0.3596 -1.3319  1.1330
  897MOL0     H21033   3.343   5.883   2.111  2.1684 -2.9172  1.6434
  897MOL0     H21034   3.417   6.102   2.075 -1.7167 -2.2125  0.0403
  897MOL0     H21035   3.536   6.093   2.217 -0.6006  3.4638 -2.0434
  897MOL0     H21036   3.634   6.067   1.997  3.7696 -1.3738  0.9138
  897MOL0     H21037   3.649   5.917   2.088  2.1343 -0.9374 -3.7589
  897MOL0     H21038   3.486   5.797   1.949 -0.6306  0.0041 -0.6726
  897MOL0     H21039   3.435   5.944   1.865  0.6222  0.1358  1.0536
  897MOL0     H21040   3.664   5.982   1.784  3.1340 -0.3840  2.6820
  897MOL0     H21041   3.708   5.826   1.857 -0.7238 -3.1437 -0.9384
  897MOL0     H21042   3.519   5.717   1.715  0.0830 -1.3303  0.0389
  897MOL0     H21043   3.518   5.869   1.615 -0.4422 -1.5461 -1.9295
  897MOL0     H21044   3.640   5.702   1.523  2.0184  1.2966 -2.4166
  897MOL0     H21045   3.772   5.718   1.645  0.6356 -0.3612 -2.0137
  897MOL0     H21046   3.868   5.968   1.660  3.0606 -2.7751  0.9022
  897MOL0     H21047   4.032   6.158   1.450 -1.7871 -3.0402  3.8324
  897MOL0     H21048   3.924   6.217   1.332 -1.5851 -0.7277 -0.4914
  897MOL0     H21049   3.910   6.253   1.627  0.5198  3.7512  0.0639
  897MOL0     H21050   3.780   6.325   1.506 -0.9677 -0.5878 -0.3991
  897MOL0     H21051   3.974   6.452   1.411 -3.1788  0.3490  0.5272
  897MOL0     H21052   4.060   6.404   1.562  0.4760  1.9055 -1.1186
  897MOL0     H21053   3.903   6.528   1.694 -0.2044 -0.1933 -0.0119
  897MOL0     H21054   3.798   6.540   1.545  0.1010  0.9193 -0.1551
  897MOL0     H21055   3.798   6.799   1.686 -0.5897  0.7446  0.3518
  897MOL0     H21056   3.552   6.989   1.560 -0.1231 -1.1325  0.2213
  897MOL0     H21057   3.639   6.935   1.701  4.9799  1.2485  1.8153
  897MOL0     H21058   3.653   7.107   1.639  1.8292  0.0617 -0.0205
  897MOL0     H21059   3.906   7.192   1.026 -1.9026 -1.1235  4.2819
  897MOL0     H21060   3.945   7.411   0.888 -2.6780 -1.0675 -1.3394
  897MOL0     H21061   3.727   7.785   1.007  0.1738 -0.8722 -0.8111
  897MOL0     H21062   3.868   7.774   1.116 -2.1983  0.2534  0.7772
  897MOL0     H21063   3.862   7.871   0.823  0.0451  0.7978  0.3528
  897MOL0     H21064   3.881   7.961   0.964  1.1990  1.4170 -2.2643
  897MOL0     H21065   4.086   7.757   0.896 -1.3095 -1.1441 -1.9768
  897MOL0     H21066   4.094   7.879   1.027 -1.5011 -1.4343  0.5369
  897MOL0     H21067   4.052   7.965   0.731 -0.7870 -1.5488  0.6221
  897MOL0     H21068   4.081   8.076   0.860  1.2941  0.2105  0.5227
  897MOL0     H21069   4.285   7.912   0.900 -2.5550  0.5273  1.4044
  897MOL0     H21070   4.290   8.035   0.776  0.0983  0.4025  1.5437
  897MOL0     H21071   4.245   7.740   0.737  1.3994 -0.4434 -1.2372
  897MOL0     H21072   4.215   7.866   0.610  2.8067  1.9381 -1.5334
  897MOL0     H21073   4.483   7.886   0.716 -1.5090  0.4932  0.9292
  897MOL0     H21074   4.430   7.896   0.563 -0.7345 -0.3397  0.7561
  897MOL0     H21075   4.420   7.622   0.688  1.0106  0.6176  0.6982
  897MOL0     H21076   4.575   7.664   0.622 -0.1559 -2.6322 -1.1087
  897MOL0     H21077   3.708   7.612   1.178 -3.7386 -1.1949 -1.6786
  897MOL0     H21078   3.697   7.420   1.328  3.9515  3.4662  3.1382
  897MOL0     H21079   3.934   6.957   1.233  0.2766 -1.2777 -1.0016
  897MOL0     H21080   4.033   6.754   1.326  1.1347 -0.3150  2.6739
  897MOL0     H21081   3.276   5.999   2.631 -3.0459 -2.1504  0.4196
  897MOL0     H21082   3.107   6.111   2.778  1.5876  0.6143 -0.3719
  897MOL0     H21083   2.702   6.431   2.685 -1.9152 -1.5617 -0.0757
  897MOL0     H21084   2.528   6.534   2.766 -0.0609  1.4244  0.2233
  897MOL0     H21085   2.414   6.739   2.818 -1.0845 -2.2169 -1.1639
  897MOL0     H21086   2.326   6.606   2.886 -2.0375 -0.2618  2.0748
  897MOL0     H21087   2.371   6.855   3.058  0.5133  1.6907 -4.1820
  897MOL0     H21088   2.239   6.734   3.065 -0.4226 -0.4395 -0.0707
  897MOL0     H21089   2.172   6.818   2.835  0.0345  0.2017 -0.5394
  897MOL0     H21090   2.276   6.951   2.848  1.3354 -0.7805  0.1752
  897MOL0     H21091   2.153   6.991   3.087 -0.4767  0.5542 -0.1129
  897MOL0     H21092   2.038   6.870   3.034  0.5921 -0.9776 -0.8706
  897MOL0     H21093   1.877   7.199   2.836  0.4564 -1.8099 -2.2367
  897MOL0     H21094   2.729   6.588   3.144  0.5671  1.8144  0.0044
  897MOL0     H21095   2.904   6.459   3.077  0.1924  0.1614 -0.2622
  898MOL0     O21096   7.968  11.374   6.223 -0.6155  0.2503  0.1182
  898MOL0     C21097   8.050  11.288   6.189  0.2301  0.6785  1.1706
  898MOL0     O21098   8.180  11.302   6.176 -0.2405 -0.3592  0.3885
  898MOL0     C21099   8.260  11.398   6.249  0.1935 -0.4206  0.6029
  898MOL0     C21100   8.388  11.395   6.205 -0.7159  1.0906 -0.0561
  898MOL0     C21101   8.482  11.484   6.258 -0.3172 -0.0780  0.2396
  898MOL0     C21102   8.447  11.580   6.363  0.7298  0.5078  0.5687
  898MOL0     O21103   8.556  11.650   6.414 -0.3322  0.2449  0.5039
  898MOL0     C21104   8.529  11.764   6.498 -0.4123 -0.1592  0.2437
  898MOL0     C21105   8.661  11.824   6.545  0.4905 -0.1229  0.7638
  898MOL0     C21106   8.627  11.947   6.651 -0.4637  0.3424  0.5338
  898MOL0     C21107   8.743  11.997   6.741  0.1597 -0.0392 -0.3223
  898MOL0     C21108   8.809  12.119   6.687  0.1812 -0.2789 -0.0134
  898MOL0     C21109   8.908  12.080   6.573 -0.6055 -0.0083 -0.0325
  898MOL0     C21110   9.013  12.182   6.525 -0.0992  0.4438 -0.2420
  898MOL0     C21111   8.963  12.301   6.446 -0.3331  0.3662  0.0997
  898MOL0     N21112   9.061  12.350   6.353  1.3002 -1.0714  0.6053
  898MOL0     C21113   9.121  12.278   6.253  0.0767 -0.6785 -0.8836
  898MOL0     C21114   9.191  12.377   6.195  0.4482  0.6528  1.6390
  898MOL0     C21115   9.290  12.357   6.078  0.2068 -0.4534 -0.4442
  898MOL0     C21116   9.371  12.230   6.102 -0.7590  0.5058 -0.5550
  898MOL0     C21117   9.490  12.193   6.005  0.3712 -0.4616  0.4311
  898MOL0     C21118   9.449  12.178   5.865 -0.0015 -0.8271 -0.1655
  898MOL0     O21119   9.554  12.137   5.772  0.6328 -0.1029  0.3655
  898MOL0     C21120   9.516  12.117   5.637  0.9464  0.1306  1.0957
  898MOL0     C21121   9.390  12.123   5.577 -0.1792 -0.8670  0.2139
  898MOL0     C21122   9.375  12.104   5.444  0.0213  0.4195  0.2519
  898MOL0     C21123   9.231  12.103   5.386 -0.4348  0.4742  0.0551
  898MOL0     C21124   9.485  12.075   5.355 -0.3530  0.0504 -0.7256
  898MOL0     C21125   9.481  12.055   5.212  0.3826  0.0336  0.0018
  898MOL0     O21126   9.594  12.012   5.151 -0.3482  0.0994 -0.5117
  898MOL0     C21127   9.582  12.002   5.013 -0.1698 -0.3033  0.1620
  898MOL0     C21128   9.547  11.876   4.956 -0.6786  0.1474  0.3734
  898MOL0     C21129   9.525  11.857   4.823  1.0251 -0.4423  0.6476
  898MOL0     C21130   9.545  11.968   4.737 -0.4521  1.9161 -1.0319
  898MOL0     O21131   9.539  11.953   4.604 -0.3803 -0.6779  0.3024
  898MOL0     C21132   9.546  11.824   4.535  0.1107 -0.2967  0.4653
  898MOL0     C21133   9.543  11.849   4.382 -0.0124  0.2768  0.3280
  898MOL0     C21134   9.419  11.932   4.353  0.3677  0.1581  0.0342
  898MOL0     C21135   9.382  11.918   4.201  0.4094 -0.7225 -0.5384
  898MOL0     C21136   9.302  12.039   4.154  1.1055  0.2973 -0.5279
  898MOL0     C21137   9.251  12.022   4.008  0.0285 -0.4002 -0.4267
  898MOL0     C21138   9.163  12.145   3.980  0.1228  1.2324 -0.1057
  898MOL0     C21139   9.103  12.151   3.831 -0.9417  0.3228 -0.2196
  898MOL0    Cl21140   8.995  12.285   3.808 -0.1447  0.4867 -0.0374
  898MOL0     C21141   9.574  12.085   4.788 -0.1328  0.2693  1.0945
  898MOL0     C21142   9.586  12.112   4.922  1.0089  1.2113 -0.1625
  898MOL0     O21143   9.381  12.070   5.153 -0.3523  0.5853  0.1280
  898MOL0     C21144   9.609  12.057   5.422  0.9148 -0.6335 -0.2536
  898MOL0     C21145   9.629  12.090   5.555  0.1153 -1.0826 -0.2889
  898MOL0     N21146   9.174  12.499   6.243  0.3739 -0.0485 -0.8115
  898MOL0     N21147   9.093  12.488   6.340  0.1637  0.5728  0.0321
  898MOL0     C21148   8.312  11.584   6.398 -0.4084 -0.9807 -0.2094
  898MOL0     C21149   8.227  11.492   6.344  0.7054  1.0376 -0.5359
  898MOL0     C21150   7.998  11.151   6.134  0.2371 -0.0464 -0.5613
  898MOL0     C21151   8.070  11.083   6.035  0.9241 -0.9862  0.5226
  898MOL0     C21152   8.020  10.972   5.975 -0.8453 -0.2104  0.2521
  898MOL0     C21153   7.892  10.930   6.007  0.0289  0.6601 -0.0241
  898MOL0     O21154   7.853  10.815   5.946 -0.2045  0.5647  0.1480
  898MOL0     C21155   7.725  10.804   5.888  0.4838 -0.2917  0.3328
  898MOL0     C21156   7.731  10.686   5.791 -0.7009 -0.0709  0.8876
  898MOL0     C21157   7.854  10.674   5.699  0.2315 -0.4553  0.3596
  898MOL0     C21158   7.837  10.555   5.602  0.2284  0.3795  0.5343
  898MOL0     C21159   7.932  10.573   5.490  0.1774  0.7286  0.2375
  898MOL0     C21160   8.014  10.577   5.398 -0.4043 -0.3037 -0.1148
  898MOL0     C21161   7.823  10.992   6.108  0.2685  0.3816 -0.2819
  898MOL0     C21162   7.874  11.111   6.160  0.6763  0.0751 -0.0645
  898MOL0     H21163   8.419  11.322   6.131 -1.7037  0.6629 -0.0660
  898MOL0     H21164   8.587  11.461   6.247 -0.6133 -1.8541  0.7802
  898MOL0     H21165   8.474  11.841   6.442 -1.8142 -2.9256 -2.4770
  898MOL0     H21166   8.471  11.743   6.588  0.8457 -2.2836  0.6049
  898MOL0     H21167   8.718  11.736   6.576  1.4203 -0.3314 -1.3855
  898MOL0     H21168   8.708  11.868   6.457 -1.4834 -3.3036 -2.1286
  898MOL0     H21169   8.602  12.031   6.585  0.8658  1.0735  0.9101
  898MOL0     H21170   8.537  11.925   6.709 -0.6045  1.4186  0.7466
  898MOL0     H21171   8.701  12.025   6.838 -0.2739  2.5632 -1.1672
  898MOL0     H21172   8.816  11.915   6.742 -1.3879 -1.4552  0.5297
  898MOL0     H21173   8.737  12.190   6.645  2.1288  1.1020 -1.1730
  898MOL0     H21174   8.865  12.166   6.768 -1.4754  1.3057  0.2833
  898MOL0     H21175   8.966  12.005   6.626 -0.1296 -1.1688 -2.0949
  898MOL0     H21176   8.853  12.044   6.486 -0.8604  1.0763 -0.3468
  898MOL0     H21177   9.065  12.214   6.616 -0.3751 -2.3933  1.0283
  898MOL0     H21178   9.085  12.125   6.466 -1.0018 -0.5630 -0.4062
  898MOL0     H21179   8.938  12.384   6.513  0.7488  2.4909 -1.9701
  898MOL0     H21180   8.870  12.272   6.397 -0.4531 -1.7432  1.4535
  898MOL0     H21181   9.101  12.182   6.208 -3.0548  0.4187 -2.1297
  898MOL0     H21182   9.224  12.350   5.991 -0.4891  1.6235 -0.1297
  898MOL0     H21183   9.363  12.439   6.076  0.6666 -0.7597  1.6576
  898MOL0     H21184   9.303  12.144   6.109  0.9770 -0.8256  0.8286
  898MOL0     H21185   9.413  12.239   6.203  0.8313  2.2367 -1.3211
  898MOL0     H21186   9.533  12.098   6.037  1.8520 -0.0816 -0.3603
  898MOL0     H21187   9.563  12.274   6.005 -0.5948  0.4468 -0.7007
  898MOL0     H21188   9.405  12.270   5.825 -1.3953 -1.8554 -1.0987
  898MOL0     H21189   9.372  12.101   5.870 -1.7349  0.7576 -1.1946
  898MOL0     H21190   9.301  12.124   5.639 -2.5103 -0.6781 -2.9208
  898MOL0     H21191   9.217  12.196   5.331  0.0427  0.7936  0.4659
  898MOL0     H21192   9.200  12.024   5.318 -3.2360  2.6167 -1.3499
  898MOL0     H21193   9.163  12.102   5.472  3.1973  2.0114  3.2382
  898MOL0     H21194   9.548  11.790   5.022 -2.3039 -0.3817 -0.2588
  898MOL0     H21195   9.503  11.758   4.783 -0.6076  0.5453 -1.0470
  898MOL0     H21196   9.631  11.761   4.566  1.2094  1.4975  1.2457
  898MOL0     H21197   9.465  11.752   4.548  0.8551 -1.1135  0.7224
  898MOL0     H21198   9.635  11.893   4.343 -0.8833  0.3710 -1.7284
  898MOL0     H21199   9.524  11.753   4.333  1.3140 -0.1521  0.6194
  898MOL0     H21200   9.441  12.035   4.382 -1.4554  0.8053 -0.6972
  898MOL0     H21201   9.327  11.898   4.402  1.9431 -1.3210  2.1268
  898MOL0     H21202   9.474  11.933   4.142  0.0919  0.9008 -0.6703
  898MOL0     H21203   9.330  11.826   4.174  0.8086 -0.5075 -2.1625
  898MOL0     H21204   9.359  12.133   4.155  0.6752  0.5568  0.3512
  898MOL0     H21205   9.215  12.057   4.217  1.2752  3.3194 -0.9761
  898MOL0     H21206   9.334  12.010   3.938 -0.0192 -3.6298 -0.0673
  898MOL0     H21207   9.182  11.937   4.003 -2.1143  1.2528 -0.2982
  898MOL0     H21208   9.209  12.244   3.991 -2.9529  2.8458 -0.5013
  898MOL0     H21209   9.070  12.140   4.038  1.3012  0.7815  1.8127
  898MOL0     H21210   9.058  12.052   3.815 -1.7412  0.3342  1.7625
  898MOL0     H21211   9.184  12.177   3.762  1.4859 -0.3561  2.1824
  898MOL0     H21212   9.577  12.164   4.714 -1.9096 -0.3105  0.3651
  898MOL0     H21213   9.610  12.210   4.961 -0.6014  1.5887 -0.0660
  898MOL0     H21214   9.693  12.003   5.380  1.0237 -1.0900  0.5355
  898MOL0     H21215   9.722  12.082   5.610  0.4255  1.9244 -0.1752
  898MOL0     H21216   8.289  11.649   6.482 -0.0685 -0.0917 -0.7949
  898MOL0     H21217   8.125  11.491   6.381  0.1092  3.7460 -1.8227
  898MOL0     H21218   8.167  11.120   6.004  0.5412 -0.9994 -0.7378
  898MOL0     H21219   8.082  10.925   5.900  1.3661  0.9175  1.2479
  898MOL0     H21220   7.648  10.792   5.965 -0.0705  2.8237  0.3948
  898MOL0     H21221   7.701  10.896   5.834 -0.4718 -2.1089 -2.5565
  898MOL0     H21222   7.638  10.695   5.734 -1.6078  0.3290  2.3863
  898MOL0     H21223   7.716  10.600   5.857  0.2708  0.0143  1.2425
  898MOL0     H21224   7.943  10.677   5.762 -0.3801 -1.6653  1.3317
  898MOL0     H21225   7.867  10.770   5.648  2.0862 -0.3800  0.9214
  898MOL0     H21226   7.733  10.541   5.571  0.7979 -1.0097 -0.8760
  898MOL0     H21227   7.866  10.459   5.646 -0.4483  0.0710  0.3196
  898MOL0     H21228   8.086  10.584   5.319 -0.7975  1.4310 -0.3561
  898MOL0     H21229   7.723  10.951   6.121  0.0719  0.7538 -0.5927
  898MOL0     H21230   7.810  11.157   6.236  0.0387 -0.2410 -0.4035
  899MOL0     O21231   2.134   2.016   9.901  0.6814 -0.0851  0.7300
  899MOL0     C21232   2.245   2.062   9.924 -0.3189  0.0888 -0.9357
  899MOL0     O21233   2.303   2.178   9.875  0.7396  0.5662 -0.2329
  899MOL0     C21234   2.266   2.237   9.759 -0.5188  0.6643 -0.8259
  899MOL0     C21235   2.328   2.362   9.742  0.6004 -0.3584  0.1658
  899MOL0     C21236   2.312   2.429   9.619  0.7832  0.3884  0.0327
  899MOL0     C21237   2.233   2.370   9.520 -0.0975  0.0182  0.1250
  899MOL0     O21238   2.232   2.439   9.405  0.6508  0.7616  0.2552
  899MOL0     C21239   2.157   2.410   9.289  0.3194 -0.4582  0.2087
  899MOL0     C21240   2.021   2.478   9.312 -0.3437  0.3594  0.3077
  899MOL0     C21241   2.019   2.630   9.333 -0.3693  0.7994 -0.2633
  899MOL0     C21242   2.058   2.710   9.206  0.4279 -0.7394  0.0235
  899MOL0     C21243   2.061   2.860   9.222 -0.9107  0.3654  0.7722
  899MOL0     C21244   2.042   2.939   9.088  0.4585 -0.4870  0.0434
  899MOL0     C21245   1.982   3.077   9.120  0.4911 -0.1431  0.3158
  899MOL0     C21246   2.069   3.147   9.224  0.1547  0.2288 -0.0077
  899MOL0     N21247   2.020   3.271   9.263  0.4043 -0.9605 -0.4254
  899MOL0     C21248   1.993   3.377   9.183  1.2510  0.2281  0.4195
  899MOL0     C21249   1.928   3.465   9.262  0.2891 -0.4590  1.1500
  899MOL0     C21250   1.882   3.605   9.238  0.4197  0.4881  1.1121
  899MOL0     C21251   2.012   3.680   9.215 -0.4561 -0.1574  0.3377
  899MOL0     C21252   1.954   3.827   9.222 -0.6677  0.2039  0.0818
  899MOL0     C21253   2.077   3.917   9.206  0.0041 -0.4684  0.5537
  899MOL0     O21254   2.189   3.890   9.300  0.2891  0.6655  0.0609
  899MOL0     C21255   2.306   3.950   9.271  0.5170 -0.6369  0.2930
  899MOL0     C21256   2.419   3.867   9.273  0.2645 -0.3413  0.1550
  899MOL0     C21257   2.550   3.919   9.230 -0.4292  0.2435  0.9275
  899MOL0     C21258   2.663   3.820   9.212 -0.2915 -0.1067  0.0553
  899MOL0     C21259   2.564   4.052   9.187  1.0659  0.3842  0.5874
  899MOL0     C21260   2.685   4.117   9.144 -0.2343 -0.0031 -0.2299
  899MOL0     O21261   2.701   4.154   9.017 -0.3564  0.1113 -0.6101
  899MOL0     C21262   2.812   4.222   8.965  0.0187  0.5035  0.2344
  899MOL0     C21263   2.921   4.270   9.034 -0.5014 -0.0041  0.0850
  899MOL0     C21264   3.033   4.317   8.959 -0.0304  0.4777 -0.6796
  899MOL0     C21265   3.043   4.289   8.828  0.6969 -0.5202  0.6123
  899MOL0     O21266   3.164   4.306   8.760  0.1161  0.3450 -0.0796
  899MOL0     C21267   3.173   4.302   8.618  0.1752 -0.3932  0.1150
  899MOL0     C21268   3.306   4.376   8.570  0.5671  0.1648 -0.5937
  899MOL0     C21269   3.316   4.537   8.568 -0.1646  0.5699  0.3335
  899MOL0     C21270   3.294   4.587   8.718 -0.6243  0.5510  0.0215
  899MOL0     C21271   3.350   4.727   8.719 -0.3544 -0.1707 -0.3562
  899MOL0     C21272   3.315   4.802   8.846  0.9423 -0.4742  0.6023
  899MOL0     C21273   3.362   4.946   8.829  0.1100  0.3756  0.1213
  899MOL0     C21274   3.274   5.040   8.919 -0.6316  0.2381  0.3977
  899MOL0    Cl21275   3.322   5.211   8.898 -0.5724  0.3941  0.0872
  899MOL0     C21276   2.932   4.258   8.764  0.5158  1.4101 -0.4806
  899MOL0     C21277   2.811   4.228   8.830  0.8270 -1.0927 -0.4858
  899MOL0     O21278   2.767   4.119   9.237 -0.2634 -0.8341 -0.7393
  899MOL0     C21279   2.444   4.130   9.178 -0.0014  0.3682  0.0692
  899MOL0     C21280   2.318   4.076   9.214 -1.1262 -0.0596  0.4783
  899MOL0     N21281   1.923   3.414   9.391 -0.6619 -0.0821  0.5314
  899MOL0     N21282   1.985   3.298   9.388  0.7785  0.0996 -0.2820
  899MOL0     C21283   2.150   2.263   9.554 -0.3607 -0.1498 -0.4007
  899MOL0     C21284   2.180   2.189   9.663 -0.9986  0.4385 -0.0372
  899MOL0     C21285   2.332   1.995  10.025 -0.5462  0.4189  0.0012
  899MOL0     C21286   2.277   1.888  10.112 -0.0029 -0.4000 -0.4193
  899MOL0     C21287   2.352   1.829  10.207  0.0267 -0.2695  0.5605
  899MOL0     C21288   2.483   1.871  10.242  0.0588  0.9137  0.2817
  899MOL0     O21289   2.556   1.803  10.336  1.0900 -0.0588 -0.5647
  899MOL0     C21290   2.673   1.873  10.393  0.9929  0.9532  0.8684
  899MOL0     C21291   2.730   1.791  10.499 -0.3412  0.3456 -0.5692
  899MOL0     C21292   2.630   1.758  10.612 -0.0378 -0.6234 -1.1749
  899MOL0     C21293   2.705   1.678  10.725  0.2313 -0.7425  0.2126
  899MOL0     C21294   2.634   1.661  10.847  0.4028 -0.2911  0.2610
  899MOL0     C21295   2.591   1.637  10.959 -0.5298  0.0609  0.5480
  899MOL0     C21296   2.546   1.949  10.140  0.2975 -0.0355 -0.6331
  899MOL0     C21297   2.475   2.011  10.036 -0.1586 -0.0865 -0.1089
  899MOL0     H21298   2.387   2.409   9.820  1.6445  0.8815 -1.3105
  899MOL0     H21299   2.392   2.494   9.586  0.7106 -1.1157 -3.5381
  899MOL0     H21300   2.214   2.455   9.207 -0.6792 -0.3175 -0.4262
  899MOL0     H21301   2.139   2.304   9.268  0.7962 -0.8397  1.6767
  899MOL0     H21302   1.953   2.448   9.231 -0.1171  2.6398 -0.8189
  899MOL0     H21303   1.972   2.438   9.401 -1.1810 -0.9142 -0.6820
  899MOL0     H21304   1.920   2.658   9.372 -0.7106  3.0511 -2.4676
  899MOL0     H21305   2.099   2.661   9.400  2.0983 -1.5575 -1.9207
  899MOL0     H21306   2.153   2.680   9.161  1.9090  0.5924  2.0688
  899MOL0     H21307   1.979   2.689   9.133  0.8523 -1.0527 -0.3528
  899MOL0     H21308   1.981   2.891   9.291  0.7785  0.8928  2.5692
  899MOL0     H21309   2.153   2.891   9.271 -0.8895 -0.3786  1.2141
  899MOL0     H21310   2.138   2.943   9.035 -0.3889 -1.3860 -1.6248
  899MOL0     H21311   1.979   2.877   9.025 -1.7901 -0.4032  2.0687
  899MOL0     H21312   1.994   3.141   9.031  2.8605 -0.6258  0.2103
  899MOL0     H21313   1.874   3.068   9.135  0.5162 -0.9452  0.0689
  899MOL0     H21314   2.173   3.158   9.193 -1.0622  1.5924 -4.2413
  899MOL0     H21315   2.081   3.081   9.310  3.6954 -1.6139 -1.6996
  899MOL0     H21316   2.018   3.383   9.077 -2.9265  1.2738 -0.7021
  899MOL0     H21317   1.829   3.611   9.142 -4.1501 -0.0744  3.3226
  899MOL0     H21318   1.826   3.653   9.320  0.5571 -0.2756  1.6564
  899MOL0     H21319   2.061   3.659   9.120  0.0840 -1.1488  0.8254
  899MOL0     H21320   2.080   3.658   9.297  0.0318 -0.7278 -0.2069
  899MOL0     H21321   1.906   3.856   9.316 -2.1227  2.6570 -1.2979
  899MOL0     H21322   1.875   3.856   9.152 -0.0265  0.4427 -0.5638
  899MOL0     H21323   2.044   4.021   9.212  0.8505 -0.0279 -1.5461
  899MOL0     H21324   2.118   3.914   9.105 -1.1682 -0.3272  0.0641
  899MOL0     H21325   2.403   3.767   9.312 -0.5840  0.4760  2.0359
  899MOL0     H21326   2.730   3.822   9.299 -2.7997 -0.5738  2.1012
  899MOL0     H21327   2.624   3.719   9.192 -1.0556 -0.0327  1.1469
  899MOL0     H21328   2.732   3.844   9.130  1.4347  1.0286  1.7538
  899MOL0     H21329   2.919   4.275   9.142 -3.0437  4.7957  0.1221
  899MOL0     H21330   3.115   4.366   9.009  0.5101 -2.0820  1.1389
  899MOL0     H21331   3.173   4.194   8.602  0.0663 -0.3817  0.0376
  899MOL0     H21332   3.080   4.341   8.574 -0.8282 -3.1397 -0.3535
  899MOL0     H21333   3.381   4.327   8.633  0.0792  1.5285  1.1556
  899MOL0     H21334   3.331   4.361   8.465  1.0805  2.1594 -0.8038
  899MOL0     H21335   3.241   4.575   8.498  0.4063  1.1802  0.0422
  899MOL0     H21336   3.418   4.555   8.533  1.0509  0.6892  3.5606
  899MOL0     H21337   3.185   4.593   8.732 -0.8442  0.2345 -1.4336
  899MOL0     H21338   3.341   4.521   8.792 -0.6556  1.3606  0.7842
  899MOL0     H21339   3.314   4.778   8.628  3.5156 -2.6617 -3.6501
  899MOL0     H21340   3.458   4.728   8.703  0.0864  1.2822  2.1860
  899MOL0     H21341   3.207   4.792   8.856  1.1245 -1.3536  2.0667
  899MOL0     H21342   3.359   4.751   8.932  2.9340  1.5558  0.9109
  899MOL0     H21343   3.342   4.979   8.727  1.8100 -0.7733 -0.6263
  899MOL0     H21344   3.467   4.964   8.856  1.3566 -3.8537 -1.1216
  899MOL0     H21345   3.264   5.007   9.023 -0.3690  0.8707  0.6298
  899MOL0     H21346   3.173   5.027   8.878  0.5113 -2.4539 -1.9049
  899MOL0     H21347   2.926   4.243   8.657 -0.7869 -0.1795 -0.2291
  899MOL0     H21348   2.711   4.208   8.794 -1.9243  0.5046  5.0639
  899MOL0     H21349   2.445   4.227   9.129 -0.9115  0.5974  0.4812
  899MOL0     H21350   2.238   4.148   9.203 -0.4372  0.5981 -0.3784
  899MOL0     H21351   2.067   2.234   9.491 -2.2390  1.1984  1.3195
  899MOL0     H21352   2.131   2.091   9.667 -0.7551  0.2934 -0.5645
  899MOL0     H21353   2.172   1.861  10.104 -0.0012 -0.6749  0.3638
  899MOL0     H21354   2.325   1.746  10.271  0.1706 -1.6188 -1.0434
  899MOL0     H21355   2.747   1.886  10.314 -0.7242 -0.4633 -1.0878
  899MOL0     H21356   2.647   1.970  10.436  0.3438  1.3201 -0.2860
  899MOL0     H21357   2.814   1.845  10.544  0.4702  0.0007 -1.6212
  899MOL0     H21358   2.761   1.694  10.458 -0.4107  0.7337 -1.5669
  899MOL0     H21359   2.559   1.684  10.573 -0.4177 -0.5047 -0.7151
  899MOL0     H21360   2.582   1.845  10.657  0.5501 -2.4212  3.5573
  899MOL0     H21361   2.799   1.729  10.747 -1.5215  2.3021  1.3231
  899MOL0     H21362   2.723   1.575  10.694  2.8565 -0.8991  1.9585
  899MOL0     H21363   2.548   1.627  11.057 -0.1523 -2.1587  0.5320
  899MOL0     H21364   2.654   1.952  10.141  0.3210 -0.6420 -0.7705
  899MOL0     H21365   2.525   2.052   9.949 -3.4452 -1.1386 -2.7017
  900MOL0     O21366   0.115   1.957   7.710  1.4744  0.1023  0.1620
  900MOL0     C21367   0.054   1.902   7.805 -0.5774 -0.5124 -0.2422
  900MOL0     O21368   0.042   1.956   7.927 -0.3979 -0.0014 -0.8278
  900MOL0     C21369   0.105   2.074   7.940 -1.2269 -0.8954  0.9984
  900MOL0     C21370   0.239   2.086   7.995 -0.3442 -0.2959 -0.0839
  900MOL0     C21371   0.308   2.210   7.991  0.0818 -0.0906 -0.2604
  900MOL0     C21372   0.247   2.331   7.945 -0.0784  0.9008  0.5288
  900MOL0     O21373   0.322   2.443   7.960  0.3377 -0.2084 -0.5749
  900MOL0     C21374   0.300   2.529   7.841 -1.5216  0.3328 -0.3220
  900MOL0     C21375   0.402   2.630   7.830  0.5273 -0.9816  0.6643
  900MOL0     C21376   0.523   2.585   7.753 -0.7252  0.2821 -0.0066
  900MOL0     C21377   0.603   2.704   7.695  0.0431 -0.1745  0.2537
  900MOL0     C21378   0.761   2.674   7.701 -0.2639 -0.0886 -0.2686
  900MOL0     C21379   0.845   2.793   7.668  0.6356  0.2051 -0.2067
  900MOL0     C21380   0.794   2.938   7.708 -1.1307  1.0461  0.3993
  900MOL0     C21381   0.787   2.958   7.860 -0.3492  0.0988 -0.6807
  900MOL0     N21382   0.766   3.097   7.891 -0.3109  0.1537  0.1370
  900MOL0     C21383   0.656   3.162   7.842 -0.0038  0.1671 -0.1924
  900MOL0     C21384   0.674   3.296   7.856 -0.6322 -0.2036 -0.1132
  900MOL0     C21385   0.574   3.396   7.815 -0.7654 -0.3774 -0.2672
  900MOL0     C21386   0.531   3.373   7.668  0.0099  0.5434  0.4834
  900MOL0     C21387   0.428   3.471   7.618 -0.2005  0.5099 -0.4724
  900MOL0     C21388   0.353   3.425   7.494 -0.1135 -0.1669  0.4421
  900MOL0     O21389   0.253   3.519   7.455 -0.7941 -0.3787 -0.3571
  900MOL0     C21390   0.288   3.626   7.383  0.3759 -0.5308 -0.3938
  900MOL0     C21391   0.185   3.719   7.355  0.3441  0.1933  0.5789
  900MOL0     C21392   0.213   3.851   7.308 -0.7595  0.2918 -0.0878
  900MOL0     C21393   0.096   3.940   7.296  0.9260 -0.3836  0.5004
  900MOL0     C21394   0.347   3.879   7.276 -0.4016  1.0095  0.3289
  900MOL0     C21395   0.381   4.013   7.226 -0.6534 -0.1434 -1.0858
  900MOL0     O21396   0.284   4.081   7.149  0.7449  0.9564 -0.2572
  900MOL0     C21397   0.306   4.211   7.119 -0.5742 -0.0359  0.6912
  900MOL0     C21398   0.220   4.305   7.175  0.1533 -0.7349  0.2261
  900MOL0     C21399   0.217   4.436   7.135  0.9329 -0.6289  0.0798
  900MOL0     C21400   0.317   4.487   7.046  0.8186  0.5257 -0.3501
  900MOL0     O21401   0.340   4.619   7.007 -0.6752 -0.3616 -0.0208
  900MOL0     C21402   0.273   4.723   7.074 -1.2991 -0.4012 -0.6048
  900MOL0     C21403   0.144   4.769   7.001  0.0014 -1.5779 -0.0181
  900MOL0     C21404   0.078   4.882   7.084  0.2463  0.2165  0.2396
  900MOL0     C21405   0.152   5.015   7.109 -0.8792  0.2030  0.0404
  900MOL0     C21406   0.222   5.070   6.987 -0.2614 -0.9695  0.9140
  900MOL0     C21407   0.126   5.106   6.877 -0.2471  0.9302  0.4087
  900MOL0     C21408   0.195   5.170   6.746 -0.1091 -0.4867 -0.4739
  900MOL0     C21409   0.295   5.285   6.780  0.4391  0.0574 -0.0993
  900MOL0    Cl21410   0.452   5.219   6.831  0.3360 -0.0838 -0.1826
  900MOL0     C21411   0.399   4.393   6.983  1.0324  0.6574  0.2231
  900MOL0     C21412   0.396   4.259   7.016  0.3206  0.1643  0.2217
  900MOL0     O21413   0.482   4.067   7.268 -1.3250  0.0435  0.1429
  900MOL0     C21414   0.455   3.787   7.300  0.0863 -0.2897  0.6788
  900MOL0     C21415   0.419   3.666   7.356 -0.0755 -0.3504 -0.8299
  900MOL0     N21416   0.800   3.313   7.903  0.8947  1.0800 -0.0097
  900MOL0     N21417   0.851   3.195   7.940 -0.4667 -0.5126  0.1230
  900MOL0     C21418   0.121   2.316   7.881 -0.4942 -0.3146  0.5704
  900MOL0     C21419   0.054   2.191   7.881  0.0209 -0.0472 -0.3514
  900MOL0     C21420  -0.005   1.769   7.785  0.7897 -0.2149 -0.4058
  900MOL0     C21421  -0.076   1.694   7.886 -1.6933 -0.1578  0.9529
  900MOL0     C21422  -0.144   1.573   7.852  0.1794  0.6687  0.6977
  900MOL0     C21423  -0.144   1.522   7.717 -0.8298 -0.1286 -0.0010
  900MOL0     O21424  -0.212   1.407   7.673  0.1301 -0.0511 -0.2501
  900MOL0     C21425  -0.339   1.373   7.738  0.2095 -0.5554 -0.7460
  900MOL0     C21426  -0.459   1.483   7.721 -0.3935 -0.0820  0.1839
  900MOL0     C21427  -0.478   1.551   7.581 -0.7082  0.7036  0.4836
  900MOL0     C21428  -0.617   1.628   7.574  0.6747  0.1667  0.6033
  900MOL0     C21429  -0.631   1.736   7.679 -0.1501  0.3310 -0.3279
  900MOL0     C21430  -0.640   1.827   7.757  0.2364 -1.5957 -0.8976
  900MOL0     C21431  -0.082   1.604   7.624 -0.7292 -0.1096  0.1320
  900MOL0     C21432  -0.020   1.723   7.653 -0.8269 -0.2599 -0.0665
  900MOL0     H21433   0.290   1.999   8.034 -1.5313 -0.5613  0.9398
  900MOL0     H21434   0.412   2.208   8.024  0.3763  0.1382 -1.1430
  900MOL0     H21435   0.293   2.468   7.750 -2.4233  0.2764 -0.2289
  900MOL0     H21436   0.199   2.571   7.836 -2.3760 -1.4116  1.2349
  900MOL0     H21437   0.351   2.721   7.796 -0.1788 -1.5402  0.1701
  900MOL0     H21438   0.430   2.661   7.931 -5.1565 -1.0502  2.6166
  900MOL0     H21439   0.579   2.529   7.829  3.0884  1.2985 -1.8311
  900MOL0     H21440   0.506   2.510   7.676 -2.0086 -0.0649  0.5968
  900MOL0     H21441   0.574   2.730   7.593  1.4704  0.0830 -0.0977
  900MOL0     H21442   0.566   2.785   7.759  0.4192 -1.6388  2.4384
  900MOL0     H21443   0.778   2.635   7.801 -0.8726 -2.9634 -1.1888
  900MOL0     H21444   0.791   2.590   7.637  1.8171  0.1565  0.3039
  900MOL0     H21445   0.950   2.783   7.697  1.1655 -1.7230 -2.4421
  900MOL0     H21446   0.848   2.789   7.559 -3.6080 -2.2576 -0.4217
  900MOL0     H21447   0.887   2.980   7.669  0.2895 -1.9502  0.2488
  900MOL0     H21448   0.710   2.979   7.653 -0.8929  1.9172  0.6671
  900MOL0     H21449   0.886   2.931   7.899  0.7357  3.7765 -0.5956
  900MOL0     H21450   0.716   2.893   7.912  0.1888  0.9261  1.1560
  900MOL0     H21451   0.559   3.129   7.806  0.3893 -0.6394 -0.5304
  900MOL0     H21452   0.487   3.388   7.881  0.8972 -1.4483  1.9532
  900MOL0     H21453   0.628   3.490   7.829 -1.6075  0.5400 -2.6447
  900MOL0     H21454   0.505   3.268   7.654  4.0748 -0.5319 -0.4009
  900MOL0     H21455   0.622   3.398   7.612 -0.5355  2.8602  0.5237
  900MOL0     H21456   0.477   3.566   7.594  1.2341  0.0297  0.4148
  900MOL0     H21457   0.356   3.476   7.700  0.6649  0.6960  0.2976
  900MOL0     H21458   0.310   3.327   7.519  0.4342 -1.6201 -3.5956
  900MOL0     H21459   0.421   3.401   7.412 -1.0173  1.5940 -0.8873
  900MOL0     H21460   0.080   3.695   7.371  0.1073 -0.4728 -1.6206
  900MOL0     H21461  -0.001   3.906   7.333 -0.4724  1.1061 -1.5497
  900MOL0     H21462   0.112   4.038   7.343 -0.5404  1.3342 -2.3003
  900MOL0     H21463   0.075   3.982   7.197 -1.5339  1.5356  1.7111
  900MOL0     H21464   0.156   4.264   7.253  1.4758  0.5067  2.0464
  900MOL0     H21465   0.140   4.492   7.186  0.3669  0.3188 -1.7312
  900MOL0     H21466   0.252   4.696   7.179  1.8098 -0.0454  0.2068
  900MOL0     H21467   0.348   4.801   7.092 -1.0620 -0.7459 -0.0359
  900MOL0     H21468   0.161   4.809   6.900  0.7003 -0.9384  0.3462
  900MOL0     H21469   0.083   4.678   6.991 -0.1160 -1.5149  0.1267
  900MOL0     H21470   0.058   4.852   7.188 -0.6223  0.0820  0.0366
  900MOL0     H21471  -0.023   4.906   7.052  1.3704  4.9223 -0.5172
  900MOL0     H21472   0.083   5.089   7.151  0.7697  2.1540 -0.5844
  900MOL0     H21473   0.222   4.991   7.190 -2.3964 -0.3541  1.2591
  900MOL0     H21474   0.300   5.001   6.951  2.6986  2.1091  0.8786
  900MOL0     H21475   0.277   5.157   7.024  1.2546 -1.9798  1.1484
  900MOL0     H21476   0.070   5.026   6.829 -1.3807  2.0477 -0.1710
  900MOL0     H21477   0.044   5.166   6.918 -0.5093 -0.1454  1.5362
  900MOL0     H21478   0.125   5.217   6.676 -1.6032  2.1162  2.4827
  900MOL0     H21479   0.245   5.086   6.698  0.2679 -0.1942 -0.6045
  900MOL0     H21480   0.250   5.349   6.857  2.8191  1.4050  0.2819
  900MOL0     H21481   0.310   5.346   6.691  2.3842 -0.8209 -0.4254
  900MOL0     H21482   0.466   4.423   6.903  1.3039 -0.5264 -0.0075
  900MOL0     H21483   0.459   4.196   6.954  1.4221  0.9571  0.5095
  900MOL0     H21484   0.555   3.815   7.269  0.6799 -2.8526 -0.0070
  900MOL0     H21485   0.508   3.610   7.383 -1.7164 -2.2352  1.0410
  900MOL0     H21486   0.069   2.396   7.830  0.2502 -1.3364 -1.9279
  900MOL0     H21487  -0.046   2.182   7.841 -1.4125 -2.6991  3.3749
  900MOL0     H21488  -0.050   1.726   7.986  0.6472  3.5905 -0.6246
  900MOL0     H21489  -0.194   1.518   7.932  0.6604  0.1266  0.6367
  900MOL0     H21490  -0.381   1.281   7.696 -0.1062 -1.1848  0.8539
  900MOL0     H21491  -0.326   1.351   7.844 -2.5190 -0.3672 -0.3063
  900MOL0     H21492  -0.427   1.561   7.791  2.4761 -2.0137  1.1753
  900MOL0     H21493  -0.546   1.427   7.754  0.4699 -2.3172 -1.1346
  900MOL0     H21494  -0.469   1.476   7.502 -0.8757  1.7380 -0.5486
  900MOL0     H21495  -0.393   1.620   7.570  0.3055 -0.7514 -1.6051
  900MOL0     H21496  -0.697   1.557   7.596 -1.8125  3.6018  4.0548
  900MOL0     H21497  -0.636   1.663   7.472 -1.1254  1.2320  1.2684
  900MOL0     H21498  -0.653   1.902   7.834 -3.5051 -2.0197 -0.9487
  900MOL0     H21499  -0.077   1.574   7.520 -1.9778 -0.7015  0.2199
  900MOL0     H21500   0.017   1.786   7.572  1.0742 -0.9490  0.2097
  901MOL0     O21501   0.187  10.642   7.222 -0.0732 -0.1554  0.1311
  901MOL0     C21502   0.225  10.600   7.109 -0.4647  0.0754  0.3560
  901MOL0     O21503   0.148  10.611   6.991  0.0496  0.1869  0.4507
  901MOL0     C21504   0.044  10.704   7.003 -0.2215 -0.7480  0.5728
  901MOL0     C21505   0.068  10.844   7.010 -0.5883  0.9272 -0.0047
  901MOL0     C21506  -0.032  10.932   7.018  0.5271 -1.0560  0.0025
  901MOL0     C21507  -0.166  10.890   7.023  0.1205  0.4317  0.0583
  901MOL0     O21508  -0.262  10.990   7.040  0.2958 -0.6125 -0.3434
  901MOL0     C21509  -0.387  10.977   6.961 -1.3684 -0.4752  0.7515
  901MOL0     C21510  -0.501  10.966   7.052  0.5513 -0.4706 -0.8850
  901MOL0     C21511  -0.503  11.082   7.146 -0.1240  1.0077 -0.4812
  901MOL0     C21512  -0.603  11.197   7.092  0.1192 -0.6226  0.3762
  901MOL0     C21513  -0.589  11.314   7.185  0.1355 -0.0159  1.2616
  901MOL0     C21514  -0.698  11.421   7.138 -0.4592  0.0994  0.0640
  901MOL0     C21515  -0.694  11.552   7.222  1.3496 -0.0327  0.2263
  901MOL0     C21516  -0.789  11.546   7.351 -0.4487 -0.8302 -0.2390
  901MOL0     N21517  -0.773  11.668   7.436 -0.6304  0.3753 -0.3051
  901MOL0     C21518  -0.800  11.798   7.401 -0.4466 -0.3236  0.5778
  901MOL0     C21519  -0.768  11.863   7.513  0.6018 -0.3393 -0.6138
  901MOL0     C21520  -0.758  12.004   7.528 -0.3003  0.1165 -0.4257
  901MOL0     C21521  -0.868  12.056   7.625  0.3409  0.9101 -0.4617
  901MOL0     C21522  -1.006  12.051   7.563  0.4515  0.5687  0.4039
  901MOL0     C21523  -1.106  12.150   7.635  0.4119 -0.5740 -0.0776
  901MOL0     O21524  -1.094  12.280   7.574  0.1562 -0.5672 -0.6676
  901MOL0     C21525  -1.194  12.374   7.605  0.2717  0.6929  0.0572
  901MOL0     C21526  -1.184  12.499   7.537 -0.6318  0.9100 -0.3282
  901MOL0     C21527  -1.277  12.603   7.559  1.1703  0.3515  0.0520
  901MOL0     C21528  -1.266  12.728   7.486  0.5216  0.0173 -0.2184
  901MOL0     C21529  -1.394  12.583   7.638  0.4287  0.1390  0.4134
  901MOL0     C21530  -1.504  12.683   7.671 -0.2965 -0.3852  0.0233
  901MOL0     O21531  -1.456  12.798   7.721 -0.6127 -0.1917  0.4383
  901MOL0     C21532  -1.547  12.885   7.769  0.9403  0.4870  0.6207
  901MOL0     C21533  -1.576  12.997   7.688 -0.1950  0.7749  0.7857
  901MOL0     C21534  -1.680  13.084   7.725  0.1450  0.4484 -0.8395
  901MOL0     C21535  -1.745  13.073   7.854 -0.7038 -0.3886 -0.5533
  901MOL0     O21536  -1.827  13.172   7.897 -0.3377  0.3224  0.6524
  901MOL0     C21537  -1.964  13.164   7.855  0.2886 -0.5629  0.9698
  901MOL0     C21538  -2.043  13.156   7.989  0.2408  0.4741 -0.0487
  901MOL0     C21539  -2.194  13.183   7.986  0.2101  0.4019  0.3450
  901MOL0     C21540  -2.267  13.080   7.904 -0.1428 -0.0039  1.0415
  901MOL0     C21541  -2.417  13.125   7.887 -0.0939  0.0794  0.8705
  901MOL0     C21542  -2.436  13.237   7.784 -0.2877 -0.6742 -0.4533
  901MOL0     C21543  -2.362  13.199   7.654  0.3383 -0.8249  0.1978
  901MOL0     C21544  -2.378  13.313   7.548  0.4780  0.1669 -0.0826
  901MOL0    Cl21545  -2.337  13.472   7.614 -0.0705  0.3145 -0.2480
  901MOL0     C21546  -1.706  12.968   7.942  0.1687 -0.1743  1.2923
  901MOL0     C21547  -1.610  12.872   7.888 -0.0881 -0.5304 -0.5380
  901MOL0     O21548  -1.628  12.649   7.668 -0.5845 -0.4078 -0.2347
  901MOL0     C21549  -1.406  12.461   7.700 -0.2033  0.6067 -0.1679
  901MOL0     C21550  -1.311  12.359   7.682  0.6524  0.6039 -1.0025
  901MOL0     N21551  -0.729  11.779   7.608  0.3380 -0.2659 -0.4015
  901MOL0     N21552  -0.718  11.661   7.563  1.1397 -0.4338  0.8031
  901MOL0     C21553  -0.195  10.758   7.020 -0.5289 -0.2220 -0.2716
  901MOL0     C21554  -0.087  10.660   7.003  0.8585  0.4188  0.1800
  901MOL0     C21555   0.362  10.542   7.103 -0.2489  0.8736  0.4463
  901MOL0     C21556   0.435  10.522   7.226  0.0523  0.4330 -0.4673
  901MOL0     C21557   0.560  10.449   7.223  0.1965  0.4048 -0.5425
  901MOL0     C21558   0.603  10.390   7.106  1.2517  0.5813  0.6729
  901MOL0     O21559   0.714  10.308   7.094  1.1909 -0.8663  0.1637
  901MOL0     C21560   0.770  10.251   7.209 -0.0023  0.0309  0.6989
  901MOL0     C21561   0.861  10.134   7.157  0.1578 -0.9445  0.7301
  901MOL0     C21562   0.946  10.074   7.280 -1.1603 -0.6514 -0.3931
  901MOL0     C21563   1.101  10.096   7.259  0.4666  0.5045 -0.0078
  901MOL0     C21564   1.172  10.073   7.379 -0.3451  0.0666 -0.3873
  901MOL0     C21565   1.239  10.040   7.475  0.3021 -0.2438 -1.2017
  901MOL0     C21566   0.531  10.414   6.980 -1.3309 -0.0312  0.0042
  901MOL0     C21567   0.410  10.491   6.980 -0.1016 -0.8234  0.4163
  901MOL0     H21568   0.169  10.880   7.022 -0.7193  1.7875 -1.2787
  901MOL0     H21569  -0.018  11.039   7.007 -0.2149 -0.8217  1.1208
  901MOL0     H21570  -0.392  11.063   6.893 -0.5654 -1.8869 -1.1903
  901MOL0     H21571  -0.381  10.890   6.895 -0.2546 -0.6183  1.0136
  901MOL0     H21572  -0.595  10.963   6.995 -1.2217 -1.6171  1.9041
  901MOL0     H21573  -0.487  10.869   7.100 -2.5238 -0.1671  0.8685
  901MOL0     H21574  -0.547  11.055   7.242  2.5377  1.3815  0.9291
  901MOL0     H21575  -0.409  11.134   7.164  0.1847 -0.3717  2.3470
  901MOL0     H21576  -0.568  11.225   6.992 -1.8434  0.3318 -0.0871
  901MOL0     H21577  -0.707  11.164   7.090 -0.2574  0.4340  1.3109
  901MOL0     H21578  -0.617  11.278   7.285  0.2622 -0.5795  1.0995
  901MOL0     H21579  -0.486  11.351   7.182 -0.6295  2.2201 -1.0513
  901MOL0     H21580  -0.665  11.429   7.034  1.7316 -0.9457  0.6253
  901MOL0     H21581  -0.799  11.378   7.146 -1.0013  1.5871  1.9782
  901MOL0     H21582  -0.595  11.576   7.263  0.8522 -1.0355  2.1266
  901MOL0     H21583  -0.722  11.637   7.160 -1.9164 -0.8101  0.4740
  901MOL0     H21584  -0.756  11.457   7.406 -0.5348 -0.0827  1.0677
  901MOL0     H21585  -0.894  11.543   7.322 -1.4674 -1.0325  2.9818
  901MOL0     H21586  -0.835  11.848   7.311 -1.8209 -0.2400  1.1457
  901MOL0     H21587  -0.668  12.029   7.584 -4.0242  2.2152  5.5972
  901MOL0     H21588  -0.752  12.062   7.435  3.3377 -1.9913 -1.7096
  901MOL0     H21589  -0.855  12.164   7.639 -1.8632  0.9280  2.6142
  901MOL0     H21590  -0.873  12.009   7.724 -2.1442 -0.3674 -1.0943
  901MOL0     H21591  -1.036  11.947   7.582  3.7884 -0.3749  1.1479
  901MOL0     H21592  -1.010  12.077   7.457 -5.0492 -1.3185 -0.1868
  901MOL0     H21593  -1.080  12.147   7.741  1.5216 -0.5225 -0.3313
  901MOL0     H21594  -1.210  12.118   7.631 -1.4452  4.6162 -0.0079
  901MOL0     H21595  -1.101  12.506   7.467  0.6108 -0.7575  0.9045
  901MOL0     H21596  -1.257  12.812   7.554  0.8560 -0.2469  0.0661
  901MOL0     H21597  -1.180  12.727   7.419  0.6556  1.4424 -0.0852
  901MOL0     H21598  -1.360  12.750   7.434 -1.7166  2.0735  4.2073
  901MOL0     H21599  -1.530  13.017   7.592 -2.5525  1.6180 -0.2537
  901MOL0     H21600  -1.702  13.172   7.666 -0.9745  0.4219 -0.4728
  901MOL0     H21601  -2.007  13.250   7.802  0.6118 -1.8844 -1.5770
  901MOL0     H21602  -1.983  13.076   7.792 -0.8142  1.3750 -1.5703
  901MOL0     H21603  -2.021  13.057   8.030 -1.5760 -0.6772 -1.6777
  901MOL0     H21604  -2.002  13.230   8.059  0.2944 -1.0377  1.5856
  901MOL0     H21605  -2.213  13.287   7.957  3.6870  1.4185  1.1674
  901MOL0     H21606  -2.215  13.189   8.093 -3.3665 -1.6726 -0.1151
  901MOL0     H21607  -2.220  13.037   7.815  1.8216 -1.6137  2.7403
  901MOL0     H21608  -2.277  12.989   7.966  3.7009 -0.9698  0.4784
  901MOL0     H21609  -2.447  13.162   7.985  0.3484  0.2408  0.9464
  901MOL0     H21610  -2.473  13.034   7.863 -1.9810  0.4109  3.6039
  901MOL0     H21611  -2.544  13.236   7.763 -0.2984  0.5636 -0.5340
  901MOL0     H21612  -2.400  13.328   7.831  0.3524 -2.1129  2.0005
  901MOL0     H21613  -2.413  13.114   7.606  0.8554  0.8828 -3.7919
  901MOL0     H21614  -2.257  13.173   7.668  0.8662 -0.3660 -2.2971
  901MOL0     H21615  -2.476  13.304   7.501  0.0880 -0.9064  0.8780
  901MOL0     H21616  -2.306  13.295   7.468  1.6015  1.3635  0.6236
  901MOL0     H21617  -1.745  12.956   8.042  1.2620 -1.8604  1.5626
  901MOL0     H21618  -1.580  12.786   7.947 -0.5039  0.2963  0.9123
  901MOL0     H21619  -1.499  12.446   7.754 -1.0527  1.7426 -1.2502
  901MOL0     H21620  -1.318  12.259   7.725 -1.2613 -0.8327 -4.2474
  901MOL0     H21621  -0.299  10.729   7.031 -0.4739  0.1907  1.6103
  901MOL0     H21622  -0.111  10.555   6.992 -0.8750  0.8249 -0.0842
  901MOL0     H21623   0.400  10.556   7.323 -2.4086 -0.0978 -1.1039
  901MOL0     H21624   0.607  10.439   7.320 -2.8374 -0.4049  0.9470
  901MOL0     H21625   0.831  10.333   7.247  0.7871 -0.6170  0.8634
  901MOL0     H21626   0.698  10.221   7.285 -1.5334 -0.3455 -0.8413
  901MOL0     H21627   0.934  10.164   7.081  1.1488 -3.2171  0.6995
  901MOL0     H21628   0.791  10.059   7.119 -1.6607  0.7300  0.5793
  901MOL0     H21629   0.927   9.969   7.302 -2.7792  0.2642  3.5013
  901MOL0     H21630   0.912  10.115   7.376 -2.0823 -1.1084 -0.5175
  901MOL0     H21631   1.122  10.199   7.230  1.1915  1.1366  2.4417
  901MOL0     H21632   1.143  10.043   7.173 -1.1920  0.9782 -1.1485
  901MOL0     H21633   1.319  10.011   7.540 -1.4187 -2.8201 -0.0461
  901MOL0     H21634   0.578  10.361   6.898 -3.9664  0.3175 -1.8742
  901MOL0     H21635   0.346  10.492   6.892  0.2895 -1.6911  0.1125
  902MOL0     O21636   7.153   3.400  10.995 -0.1117 -0.0426 -0.9701
  902MOL0     C21637   7.069   3.350  11.065 -0.2178  0.1817  0.4041
  902MOL0     O21638   7.036   3.381  11.189  0.8601  0.3642 -0.2113
  902MOL0     C21639   7.134   3.440  11.270 -0.1020 -0.0376 -0.1055
  902MOL0     C21640   7.091   3.560  11.328 -0.0611 -0.3223  0.2336
  902MOL0     C21641   7.160   3.612  11.437  0.2651 -1.4040 -0.3608
  902MOL0     C21642   7.290   3.563  11.470 -0.6238 -0.1364  0.1698
  902MOL0     O21643   7.358   3.647  11.557 -0.3052 -0.1975  0.2753
  902MOL0     C21644   7.480   3.599  11.603 -0.4588 -0.5036 -1.2083
  902MOL0     C21645   7.520   3.699  11.709  0.2706  1.2109  0.3687
  902MOL0     C21646   7.531   3.844  11.662 -0.3552 -0.8512 -0.0176
  902MOL0     C21647   7.670   3.908  11.661 -0.1909 -0.2518  1.3383
  902MOL0     C21648   7.672   4.063  11.613 -0.2115  0.3064  0.2323
  902MOL0     C21649   7.573   4.151  11.685 -0.3434 -0.0685  0.3972
  902MOL0     C21650   7.618   4.170  11.833  0.9643  0.2003 -0.0990
  902MOL0     C21651   7.521   4.265  11.912  0.8152 -0.1698 -0.3295
  902MOL0     N21652   7.573   4.314  12.038  0.5946 -0.1450 -1.4651
  902MOL0     C21653   7.549   4.258  12.161  0.3409 -0.3341 -0.2812
  902MOL0     C21654   7.652   4.318  12.236  0.0705 -0.0527  0.9745
  902MOL0     C21655   7.687   4.283  12.385 -0.2879  0.4331 -0.1302
  902MOL0     C21656   7.767   4.155  12.392 -0.5011  0.1153  0.6176
  902MOL0     C21657   7.892   4.150  12.294 -0.4658  0.2390 -0.5614
  902MOL0     C21658   7.958   4.016  12.330 -0.8958  0.1274  0.7998
  902MOL0     O21659   8.013   3.995  12.462  0.2916  0.4753  0.3595
  902MOL0     C21660   8.084   3.887  12.500  0.3062 -0.9863  0.7123
  902MOL0     C21661   8.123   3.871  12.638  0.0671  0.2066  1.0158
  902MOL0     C21662   8.194   3.757  12.679  0.3496  1.2247 -0.8260
  902MOL0     C21663   8.204   3.740  12.826  0.9038 -0.2079 -0.2783
  902MOL0     C21664   8.251   3.665  12.587  0.1467  0.1907 -0.3846
  902MOL0     C21665   8.355   3.550  12.610  0.7668 -0.5052 -0.3165
  902MOL0     O21666   8.350   3.448  12.521 -0.0159 -0.5819 -0.4389
  902MOL0     C21667   8.412   3.330  12.552 -0.3300 -0.1082  0.3151
  902MOL0     C21668   8.343   3.220  12.504  0.3027 -0.3004 -0.7499
  902MOL0     C21669   8.398   3.095  12.514 -0.0677 -0.3831  0.4299
  902MOL0     C21670   8.524   3.077  12.576  0.2514 -0.0359  0.8135
  902MOL0     O21671   8.575   2.957  12.590 -0.2904  0.5012 -0.8901
  902MOL0     C21672   8.494   2.863  12.673 -0.5293 -0.1224  0.5283
  902MOL0     C21673   8.442   2.742  12.577 -0.4478  0.6534 -0.1086
  902MOL0     C21674   8.549   2.667  12.481  1.2312 -0.2277 -0.5309
  902MOL0     C21675   8.473   2.559  12.400  0.0420 -0.8511 -0.0323
  902MOL0     C21676   8.506   2.558  12.251 -0.5061 -0.0911 -0.3642
  902MOL0     C21677   8.654   2.513  12.210  0.3157  0.7222  0.7200
  902MOL0     C21678   8.704   2.580  12.085 -0.2462  1.0749 -0.2309
  902MOL0     C21679   8.856   2.567  12.059  0.3138 -0.0233 -0.9519
  902MOL0    Cl21680   8.930   2.692  11.959 -0.2277  0.2895 -0.4397
  902MOL0     C21681   8.590   3.193  12.622  0.4959 -0.2842  0.4420
  902MOL0     C21682   8.540   3.318  12.603  0.4800 -0.7013 -0.6920
  902MOL0     O21683   8.441   3.567  12.696 -0.3560 -0.4293 -0.6246
  902MOL0     C21684   8.205   3.676  12.451  0.7325  0.4786  0.6840
  902MOL0     C21685   8.118   3.783  12.412  0.2294 -0.2564 -0.0625
  902MOL0     N21686   7.721   4.406  12.162 -0.1704  0.1350  0.0575
  902MOL0     N21687   7.661   4.411  12.051 -0.2174  0.9772  0.0782
  902MOL0     C21688   7.341   3.459  11.392 -0.7303  0.8123  0.3970
  902MOL0     C21689   7.259   3.386  11.310 -0.2266 -0.4989 -0.7424
  902MOL0     C21690   6.980   3.252  11.001  0.1885  0.0727 -0.1205
  902MOL0     C21691   6.970   3.228  10.868 -1.2975  0.0781  0.3307
  902MOL0     C21692   6.898   3.122  10.817  0.1562  0.4798  0.5320
  902MOL0     C21693   6.832   3.035  10.908 -0.3726 -0.4370  0.1850
  902MOL0     O21694   6.762   2.920  10.874 -0.3538 -0.5326 -0.3838
  902MOL0     C21695   6.658   2.947  10.775 -0.0440 -0.2740  0.8484
  902MOL0     C21696   6.661   2.863  10.650 -0.2954 -0.3606  0.0983
  902MOL0     C21697   6.800   2.862  10.583  0.0974  0.7840  0.6632
  902MOL0     C21698   6.786   2.794  10.445 -0.0518 -0.2528  0.8559
  902MOL0     C21699   6.744   2.873  10.323 -0.0521 -1.0843 -0.2875
  902MOL0     C21700   6.710   2.944  10.231 -0.3017  0.9496  1.1849
  902MOL0     C21701   6.838   3.059  11.047 -0.2048  0.3716  0.2680
  902MOL0     C21702   6.910   3.167  11.089 -0.4885 -0.2759  0.4055
  902MOL0     H21703   6.993   3.595  11.296  0.9473  1.6955 -0.8146
  902MOL0     H21704   7.128   3.712  11.463 -0.9295 -1.8827  0.1053
  902MOL0     H21705   7.472   3.502  11.654  0.3297  0.8897  1.8391
  902MOL0     H21706   7.550   3.588  11.521  0.7319 -1.1484 -0.1362
  902MOL0     H21707   7.437   3.709  11.780  0.0041  0.0568  0.2397
  902MOL0     H21708   7.610   3.657  11.755 -0.8337 -0.5863  0.9561
  902MOL0     H21709   7.480   3.853  11.566 -1.6198 -0.9162  0.6320
  902MOL0     H21710   7.476   3.886  11.746 -2.1991 -0.0085 -1.5832
  902MOL0     H21711   7.727   3.901  11.754 -1.0791 -3.5500  1.7671
  902MOL0     H21712   7.735   3.854  11.592  2.1322  2.2903  1.3563
  902MOL0     H21713   7.769   4.114  11.619  0.0364 -0.1842  0.4059
  902MOL0     H21714   7.645   4.073  11.508 -2.1816 -0.3969  0.6298
  902MOL0     H21715   7.563   4.249  11.638  0.7627  0.3086  0.9198
  902MOL0     H21716   7.477   4.098  11.687 -1.9910  2.7307  0.9127
  902MOL0     H21717   7.635   4.071  11.877  0.8922 -0.9757 -2.5810
  902MOL0     H21718   7.715   4.221  11.836  0.2128  1.6975 -0.6783
  902MOL0     H21719   7.430   4.208  11.930 -1.5181  2.7399 -2.0275
  902MOL0     H21720   7.501   4.347  11.843  0.8847 -0.0610 -0.2219
  902MOL0     H21721   7.481   4.182  12.195 -2.0243  0.3246 -3.1452
  902MOL0     H21722   7.758   4.361  12.415  2.3888 -2.6037  2.1968
  902MOL0     H21723   7.608   4.274  12.459  3.5995 -4.0882  4.2550
  902MOL0     H21724   7.704   4.068  12.371 -1.2683  1.1047 -1.4522
  902MOL0     H21725   7.811   4.142  12.491 -0.4388 -4.4460  0.1862
  902MOL0     H21726   7.963   4.232  12.307  0.3334 -0.6577  1.0018
  902MOL0     H21727   7.856   4.138  12.191 -1.8317 -3.3486  0.1868
  902MOL0     H21728   8.042   4.011  12.260 -0.4574  0.5075  1.2943
  902MOL0     H21729   7.898   3.926  12.314 -1.0784 -0.2289  3.1513
  902MOL0     H21730   8.086   3.950  12.702 -5.7601 -1.2853 -0.0037
  902MOL0     H21731   8.155   3.827  12.871 -0.3502 -2.0582  2.1747
  902MOL0     H21732   8.141   3.656  12.860  0.2847  0.7217  0.9300
  902MOL0     H21733   8.308   3.727  12.856  0.8834 -0.3538 -0.2662
  902MOL0     H21734   8.247   3.236  12.455 -1.5054 -4.0357  1.1483
  902MOL0     H21735   8.350   3.005  12.477  3.4931 -1.7184 -1.3457
  902MOL0     H21736   8.567   2.830  12.748 -0.1178  0.5892  0.4445
  902MOL0     H21737   8.410   2.916  12.720 -0.9376  0.6681 -1.0237
  902MOL0     H21738   8.405   2.663  12.644  1.1680 -0.5741 -0.5825
  902MOL0     H21739   8.358   2.777  12.517 -0.9223  1.9436  1.2306
  902MOL0     H21740   8.638   2.633  12.535  1.3437  2.1640  0.9452
  902MOL0     H21741   8.583   2.753  12.422 -0.8422  2.3301  1.7756
  902MOL0     H21742   8.507   2.459  12.428 -1.6149 -2.1818 -2.3798
  902MOL0     H21743   8.363   2.556  12.404 -0.2616 -1.8187 -4.4180
  902MOL0     H21744   8.489   2.664  12.229  1.9175  0.9226  2.0321
  902MOL0     H21745   8.435   2.496  12.196 -0.5280  1.2189 -1.8788
  902MOL0     H21746   8.726   2.530  12.291  0.6439  3.4209 -0.0537
  902MOL0     H21747   8.659   2.407  12.181  3.1931  1.5754 -2.5044
  902MOL0     H21748   8.685   2.687  12.102  0.7005  1.0151  1.4153
  902MOL0     H21749   8.653   2.550  11.993 -2.8785  1.3564  1.0447
  902MOL0     H21750   8.868   2.469  12.012 -4.7301 -1.0844 -0.6438
  902MOL0     H21751   8.927   2.551  12.141  0.2115  2.1768 -0.3574
  902MOL0     H21752   8.684   3.175  12.673  2.3930  3.0352 -1.6038
  902MOL0     H21753   8.604   3.400  12.636  1.3457 -0.2709 -3.2295
  902MOL0     H21754   8.231   3.592  12.388 -2.4729 -1.5222  1.7612
  902MOL0     H21755   8.082   3.782  12.310  1.6310 -0.4988 -0.5688
  902MOL0     H21756   7.448   3.442  11.397 -1.1713 -2.1658  1.5717
  902MOL0     H21757   7.311   3.311  11.251 -0.9203  0.1576 -2.2453
  902MOL0     H21758   7.021   3.293  10.797 -0.6713 -2.1898 -1.4226
  902MOL0     H21759   6.892   3.101  10.711 -0.5143 -1.6828  0.9439
  902MOL0     H21760   6.560   2.932  10.820  0.5438 -1.4360  1.7861
  902MOL0     H21761   6.664   3.050  10.740  0.7688 -1.0989 -1.6571
  902MOL0     H21762   6.584   2.898  10.580  0.1011 -1.6706 -1.0430
  902MOL0     H21763   6.638   2.762  10.685 -2.5521 -0.5753 -1.7884
  902MOL0     H21764   6.884   2.812  10.634 -1.2934  0.0042  2.2890
  902MOL0     H21765   6.822   2.968  10.569 -0.6746  1.1203  1.8658
  902MOL0     H21766   6.709   2.717  10.459 -1.2943  1.3554  3.6866
  902MOL0     H21767   6.881   2.745  10.418 -0.6789 -1.0066 -0.0549
  902MOL0     H21768   6.681   3.005  10.149  2.0849  0.0534 -0.4208
  902MOL0     H21769   6.788   3.002  11.125  0.4853  1.4735  1.5603
  902MOL0     H21770   6.899   3.198  11.192  1.7757  0.0649  0.5880
  903MOL0     O21771   6.394   1.948   6.266 -0.1742  0.4490 -0.5287
  903MOL0     C21772   6.396   1.853   6.342 -0.4856 -0.6077  0.4152
  903MOL0     O21773   6.412   1.866   6.475 -0.3154 -0.0391  0.2674
  903MOL0     C21774   6.398   1.997   6.521  0.1653 -0.3107 -0.2577
  903MOL0     C21775   6.293   2.032   6.608 -0.5279  0.5778  0.2987
  903MOL0     C21776   6.271   2.157   6.662 -0.0313 -0.5152 -0.1592
  903MOL0     C21777   6.377   2.253   6.633  0.1723 -0.4621  0.3141
  903MOL0     O21778   6.361   2.371   6.701  0.2586 -0.2058  0.2441
  903MOL0     C21779   6.401   2.499   6.645  0.7007  0.3016 -0.4856
  903MOL0     C21780   6.395   2.597   6.759 -0.0260 -0.4155 -0.1462
  903MOL0     C21781   6.250   2.627   6.815  1.0615  0.1409  0.2198
  903MOL0     C21782   6.247   2.620   6.972 -0.7484 -0.2790  0.9535
  903MOL0     C21783   6.233   2.466   7.025  0.8715 -0.1441 -0.0609
  903MOL0     C21784   6.171   2.464   7.163 -0.4076 -0.3647 -0.2220
  903MOL0     C21785   6.178   2.321   7.216 -0.1335  0.5121  0.6042
  903MOL0     C21786   6.117   2.317   7.359  0.4602 -0.8095 -0.3763
  903MOL0     N21787   6.141   2.189   7.433 -0.1341 -0.7192  0.0626
  903MOL0     C21788   6.259   2.148   7.493 -0.5479  0.4356  0.9256
  903MOL0     C21789   6.226   2.033   7.560  0.1970  0.1380  1.1776
  903MOL0     C21790   6.327   1.940   7.612 -0.2532  0.0950  0.3724
  903MOL0     C21791   6.413   2.005   7.728 -1.0082 -0.0716  1.0225
  903MOL0     C21792   6.338   2.042   7.856  0.0197 -0.9064 -0.6204
  903MOL0     C21793   6.261   1.931   7.936 -0.6362  0.3033  0.0323
  903MOL0     O21794   6.350   1.819   7.954  0.2682 -0.1185  0.1166
  903MOL0     C21795   6.436   1.800   8.052  0.5079 -0.5211 -0.2018
  903MOL0     C21796   6.534   1.696   8.037  0.5636 -0.0401 -0.7823
  903MOL0     C21797   6.607   1.642   8.149 -0.0720 -0.2279 -0.7725
  903MOL0     C21798   6.693   1.516   8.125  0.0646 -1.0074  0.0486
  903MOL0     C21799   6.614   1.719   8.272  0.0171 -0.3437  0.0707
  903MOL0     C21800   6.696   1.678   8.384  0.3571 -0.9513 -0.2879
  903MOL0     O21801   6.816   1.630   8.370  0.1526  0.3203  0.0888
  903MOL0     C21802   6.865   1.536   8.454  0.6865  0.0077 -1.0565
  903MOL0     C21803   6.933   1.569   8.573 -0.4624  0.6739  0.9835
  903MOL0     C21804   7.006   1.463   8.639 -0.3706 -0.4666 -1.0064
  903MOL0     C21805   6.991   1.331   8.603 -0.5725  0.2309 -0.2700
  903MOL0     O21806   7.060   1.231   8.664  0.0205 -1.1332 -0.8122
  903MOL0     C21807   6.974   1.128   8.734 -0.0105 -0.0319 -0.4749
  903MOL0     C21808   7.059   1.038   8.827 -0.7622  0.4424  0.2860
  903MOL0     C21809   7.130   1.117   8.942 -0.2252  0.3448 -0.0358
  903MOL0     C21810   7.202   1.025   9.041 -0.2728 -0.6415  0.5084
  903MOL0     C21811   7.109   0.942   9.123 -0.0933 -1.2212  0.1704
  903MOL0     C21812   7.174   0.840   9.223  0.5296 -0.9280 -0.2120
  903MOL0     C21813   7.075   0.770   9.299 -0.6504 -0.3156 -0.1655
  903MOL0     C21814   7.137   0.666   9.397 -0.4433  1.3598 -0.3976
  903MOL0    Cl21815   7.228   0.720   9.545 -0.0571  0.0862  0.0741
  903MOL0     C21816   6.896   1.296   8.509  0.0838 -0.5373  0.0326
  903MOL0     C21817   6.834   1.395   8.436 -0.5093 -0.8136 -0.2642
  903MOL0     O21818   6.639   1.693   8.495 -0.5431 -0.5753  0.4924
  903MOL0     C21819   6.529   1.834   8.269 -0.2468  0.6476 -0.7653
  903MOL0     C21820   6.446   1.871   8.165 -0.1093  0.6403  0.1847
  903MOL0     N21821   6.090   2.009   7.549  0.0808 -0.1823 -1.0755
  903MOL0     N21822   6.041   2.114   7.485  1.3446 -0.7784  0.7400
  903MOL0     C21823   6.489   2.224   6.555  0.1846 -0.3338  0.5293
  903MOL0     C21824   6.497   2.095   6.508  0.2783 -0.2303 -0.3955
  903MOL0     C21825   6.398   1.712   6.277  0.3020 -0.4852  0.2255
  903MOL0     C21826   6.438   1.594   6.344 -0.9189 -0.3523  0.0042
  903MOL0     C21827   6.467   1.470   6.278 -0.2720 -0.3361 -0.6417
  903MOL0     C21828   6.453   1.465   6.137 -0.4592  0.3902  0.1674
  903MOL0     O21829   6.487   1.343   6.087  0.0647  0.5388  0.4007
  903MOL0     C21830   6.536   1.337   5.956  0.3723 -0.0540  0.3797
  903MOL0     C21831   6.688   1.336   5.959  0.4597 -0.2553 -0.0729
  903MOL0     C21832   6.758   1.465   5.992  0.7589  0.2586 -0.3430
  903MOL0     C21833   6.711   1.582   5.892 -0.1069 -0.7946 -0.2876
  903MOL0     C21834   6.737   1.532   5.754 -0.6344 -0.6581  0.8433
  903MOL0     C21835   6.765   1.489   5.642 -0.4045 -0.0028 -0.8162
  903MOL0     C21836   6.397   1.570   6.068  1.1385  0.3474  0.2900
  903MOL0     C21837   6.368   1.694   6.134  0.2633 -1.0651 -0.6416
  903MOL0     H21838   6.212   1.960   6.616 -1.8721  1.7953 -1.6117
  903MOL0     H21839   6.183   2.177   6.721 -0.7865  1.7202 -1.8844
  903MOL0     H21840   6.504   2.506   6.608  1.8085 -3.8352  1.2263
  903MOL0     H21841   6.338   2.517   6.557  0.3022  1.6249  0.0497
  903MOL0     H21842   6.461   2.565   6.841  3.0771 -0.4703 -2.4837
  903MOL0     H21843   6.435   2.693   6.726  0.8631 -1.7662 -3.3802
  903MOL0     H21844   6.222   2.731   6.797 -1.0545 -0.2596  0.8919
  903MOL0     H21845   6.172   2.560   6.779 -1.3614  2.3048  1.1445
  903MOL0     H21846   6.343   2.657   7.009 -0.3355 -2.5718  2.4082
  903MOL0     H21847   6.164   2.680   7.010 -3.0384 -1.2388 -2.0821
  903MOL0     H21848   6.164   2.407   6.964  2.3820 -1.2511 -0.7273
  903MOL0     H21849   6.326   2.411   7.012  1.3107  0.5395  0.1268
  903MOL0     H21850   6.230   2.521   7.234 -0.2758  0.5871 -1.0754
  903MOL0     H21851   6.070   2.504   7.156 -0.0985  0.6429  0.7917
  903MOL0     H21852   6.124   2.253   7.149 -1.3215  3.2424 -1.3491
  903MOL0     H21853   6.283   2.290   7.213 -0.0030  0.7573  1.8577
  903MOL0     H21854   6.009   2.331   7.366  0.0058 -3.7316  0.0064
  903MOL0     H21855   6.168   2.393   7.418 -0.5668 -0.0845 -0.3922
  903MOL0     H21856   6.355   2.190   7.467 -2.1004  1.7826 -3.3968
  903MOL0     H21857   6.271   1.855   7.652 -0.9091  0.2644 -0.1687
  903MOL0     H21858   6.391   1.896   7.535  0.4649 -3.8541  2.9577
  903MOL0     H21859   6.461   2.093   7.685 -1.9892 -1.0066 -2.2529
  903MOL0     H21860   6.499   1.939   7.741 -0.8603 -0.8474 -2.7167
  903MOL0     H21861   6.264   2.119   7.834  4.1614  3.3217 -1.2737
  903MOL0     H21862   6.396   2.105   7.924  0.1599 -1.9543  0.2660
  903MOL0     H21863   6.182   1.904   7.864 -1.0157  0.4191  0.4039
  903MOL0     H21864   6.205   1.963   8.024  1.9182  1.2009  1.4215
  903MOL0     H21865   6.522   1.641   7.945 -1.4728 -0.7240 -0.1669
  903MOL0     H21866   6.692   1.477   8.023 -0.4404 -0.7511 -0.0484
  903MOL0     H21867   6.800   1.523   8.148  0.0581 -1.3629  0.2017
  903MOL0     H21868   6.650   1.435   8.185 -4.0668  0.9846  0.1279
  903MOL0     H21869   6.962   1.668   8.606 -1.7591  0.6335  2.3659
  903MOL0     H21870   7.073   1.481   8.723 -4.2555 -0.5602  2.4279
  903MOL0     H21871   6.900   1.174   8.801  0.6457 -0.7148  0.7596
  903MOL0     H21872   6.913   1.064   8.669  0.7337 -0.6087 -0.6194
  903MOL0     H21873   6.987   0.961   8.856  0.5540 -1.0664 -0.2804
  903MOL0     H21874   7.133   0.982   8.769 -3.2762 -1.9601 -0.8208
  903MOL0     H21875   7.059   1.184   8.992  1.6442  1.4134  1.3030
  903MOL0     H21876   7.202   1.185   8.894 -3.6753  2.1670 -3.1822
  903MOL0     H21877   7.281   0.967   8.993 -1.8547 -0.6920 -2.2263
  903MOL0     H21878   7.258   1.098   9.100  0.5508  2.2383 -3.4386
  903MOL0     H21879   7.037   0.890   9.060 -2.8279 -1.8453  3.5486
  903MOL0     H21880   7.048   1.013   9.180  2.1864  0.3129  0.8445
  903MOL0     H21881   7.256   0.781   9.182  1.8741  0.3276  0.5704
  903MOL0     H21882   7.236   0.893   9.297  1.2442 -2.5048  0.3639
  903MOL0     H21883   6.998   0.710   9.250 -0.2237 -1.8629  0.9960
  903MOL0     H21884   7.012   0.844   9.351  1.5625  1.5523  0.0203
  903MOL0     H21885   7.203   0.594   9.347 -0.1156 -0.2949  2.2221
  903MOL0     H21886   7.055   0.601   9.428  2.4287 -1.6809  1.5570
  903MOL0     H21887   6.864   1.193   8.499 -2.0075 -0.0349  0.8533
  903MOL0     H21888   6.763   1.376   8.357 -1.1045  1.0926 -0.2451
  903MOL0     H21889   6.529   1.884   8.365  3.0542  0.3742 -0.4994
  903MOL0     H21890   6.384   1.957   8.185 -0.2529  0.3008  1.2590
  903MOL0     H21891   6.567   2.298   6.540 -1.7815  1.2144 -3.7525
  903MOL0     H21892   6.584   2.075   6.447  1.2349 -0.9493  1.1672
  903MOL0     H21893   6.459   1.605   6.450  1.8862 -3.1131 -0.1439
  903MOL0     H21894   6.510   1.390   6.338 -1.7657 -0.5196  0.2408
  903MOL0     H21895   6.510   1.236   5.925 -1.2006  0.7622 -1.1508
  903MOL0     H21896   6.493   1.410   5.887  0.1811  0.2646  0.8223
  903MOL0     H21897   6.724   1.286   5.869 -1.2807  0.9458 -1.5178
  903MOL0     H21898   6.708   1.263   6.038 -2.6745 -0.5288  0.6088
  903MOL0     H21899   6.866   1.450   5.998  0.5574 -0.6506  2.0491
  903MOL0     H21900   6.731   1.494   6.093  0.9949  1.2444 -0.5502
  903MOL0     H21901   6.777   1.662   5.925 -1.4557  0.5471 -0.7057
  903MOL0     H21902   6.604   1.602   5.905  0.2541  1.0766  0.1043
  903MOL0     H21903   6.792   1.424   5.561  0.8824  0.5891 -0.8899
  903MOL0     H21904   6.382   1.564   5.960 -0.3565 -2.4111  0.5548
  903MOL0     H21905   6.334   1.778   6.075  2.2545  0.6534  0.5266
  904MOL0     O21906   3.281   7.664   7.669 -0.2276 -0.5058  0.9230
  904MOL0     C21907   3.265   7.577   7.585  0.1534 -0.9921  0.5736
  904MOL0     O21908   3.322   7.458   7.586 -0.0687  0.2324 -0.2949
  904MOL0     C21909   3.418   7.425   7.682  1.1574 -0.1269 -0.2164
  904MOL0     C21910   3.541   7.374   7.645  0.1145  0.0934 -0.4561
  904MOL0     C21911   3.634   7.334   7.745  0.5002 -0.2047 -0.1027
  904MOL0     C21912   3.610   7.346   7.884 -0.3370 -0.8408  0.3271
  904MOL0     O21913   3.689   7.320   7.989 -0.2223  0.1465  0.0771
  904MOL0     C21914   3.814   7.262   7.965 -0.0689 -0.0123  0.1312
  904MOL0     C21915   3.794   7.110   7.931 -0.7141  0.1051  0.0913
  904MOL0     C21916   3.931   7.026   7.924  1.4397 -0.5968  0.9413
  904MOL0     C21917   4.020   7.018   8.047 -0.2635  0.4278  0.3065
  904MOL0     C21918   4.141   6.938   8.000  0.3628  0.4536 -1.0659
  904MOL0     C21919   4.226   6.911   8.132 -0.3935 -1.1199  0.3847
  904MOL0     C21920   4.342   6.821   8.099 -0.1294 -0.5252 -0.3161
  904MOL0     C21921   4.463   6.886   8.021  0.0064  0.2896 -0.0172
  904MOL0     N21922   4.522   6.997   8.093 -0.1227  1.0212 -0.3830
  904MOL0     C21923   4.601   6.978   8.209  0.1336  0.4644  0.3917
  904MOL0     C21924   4.618   7.104   8.247  0.0112 -0.7681  0.0217
  904MOL0     C21925   4.675   7.153   8.374  0.3986  0.6033  0.4446
  904MOL0     C21926   4.826   7.211   8.347  0.9431  0.4101  0.1482
  904MOL0     C21927   4.817   7.360   8.323 -0.1838  0.0917 -0.0828
  904MOL0     C21928   4.971   7.398   8.312 -0.2162 -0.2215  0.3906
  904MOL0     O21929   4.978   7.539   8.276  0.7993 -0.6969 -0.1757
  904MOL0     C21930   4.997   7.584   8.155 -0.6004 -0.8320 -0.1768
  904MOL0     C21931   5.052   7.705   8.132 -0.9573 -0.4004  0.6909
  904MOL0     C21932   5.073   7.767   8.006 -0.4334 -0.4109 -1.1623
  904MOL0     C21933   5.156   7.894   7.997  1.2930 -0.8033 -1.0123
  904MOL0     C21934   5.032   7.688   7.894  0.0832 -0.3994  0.1524
  904MOL0     C21935   5.059   7.723   7.755 -0.3808  0.8982  0.2380
  904MOL0     O21936   5.065   7.611   7.668  0.3567 -0.7422  0.0589
  904MOL0     C21937   5.140   7.621   7.550 -0.0157  0.1054  0.3830
  904MOL0     C21938   5.086   7.552   7.448 -0.4814 -0.4220  0.8725
  904MOL0     C21939   5.156   7.555   7.326  1.3041  0.9324  0.6633
  904MOL0     C21940   5.276   7.622   7.308 -0.1862 -1.0262 -0.5444
  904MOL0     O21941   5.350   7.621   7.196  0.0907  0.0930  0.1428
  904MOL0     C21942   5.366   7.750   7.134  0.4091  0.6204 -1.2160
  904MOL0     C21943   5.486   7.753   7.048 -0.5634  0.1702  0.7864
  904MOL0     C21944   5.482   7.668   6.917  0.1216 -0.6982 -0.5396
  904MOL0     C21945   5.586   7.706   6.828  0.1966 -0.2058 -0.3044
  904MOL0     C21946   5.591   7.639   6.689  0.8229 -0.0473 -0.3562
  904MOL0     C21947   5.705   7.684   6.603 -0.2788  0.5170  0.1665
  904MOL0     C21948   5.681   7.665   6.451 -0.8078  0.6816  0.4822
  904MOL0     C21949   5.810   7.680   6.363 -0.0702 -0.1765 -0.2771
  904MOL0    Cl21950   5.886   7.843   6.387 -0.2925  0.1770  0.1622
  904MOL0     C21951   5.336   7.676   7.422 -0.0045  0.7161  0.2202
  904MOL0     C21952   5.263   7.682   7.537 -0.4501  0.9226 -0.1922
  904MOL0     O21953   5.059   7.837   7.713  0.2997 -0.6846 -0.3951
  904MOL0     C21954   4.965   7.569   7.920  0.2841  0.1266  0.2121
  904MOL0     C21955   4.954   7.510   8.044  0.1909  0.4517 -0.6739
  904MOL0     N21956   4.572   7.191   8.153 -0.4104  0.0391 -0.3472
  904MOL0     N21957   4.518   7.123   8.064  0.3305  0.7158 -0.1464
  904MOL0     C21958   3.488   7.393   7.916  0.2939 -0.4990  0.6246
  904MOL0     C21959   3.395   7.434   7.822  0.3868 -0.1212 -0.0317
  904MOL0     C21960   3.155   7.585   7.486 -0.9276 -0.0690  0.3832
  904MOL0     C21961   3.101   7.710   7.463  0.8679 -0.7605  0.7172
  904MOL0     C21962   2.993   7.739   7.382  0.3018  0.6071 -0.1075
  904MOL0     C21963   2.956   7.638   7.298  0.1526 -0.6709 -0.8848
  904MOL0     O21964   2.864   7.663   7.203 -0.9402  0.5964 -0.1811
  904MOL0     C21965   2.905   7.624   7.073  0.2544  0.8776  0.0245
  904MOL0     C21966   2.779   7.639   6.993  0.8410 -0.7718  0.5279
  904MOL0     C21967   2.708   7.510   6.986 -0.7605  0.6092  0.2103
  904MOL0     C21968   2.671   7.429   7.110  0.9579  0.0075  0.0055
  904MOL0     C21969   2.595   7.502   7.209  0.1235 -0.0161  0.4542
  904MOL0     C21970   2.537   7.575   7.283  1.2003  0.6235  0.5912
  904MOL0     C21971   3.007   7.505   7.309  0.3994 -0.2012 -0.6981
  904MOL0     C21972   3.100   7.482   7.406  1.0900 -0.2335 -0.4182
  904MOL0     H21973   3.566   7.368   7.539  1.0235  0.5510 -0.2745
  904MOL0     H21974   3.726   7.292   7.705  1.5746  1.1657  0.8096
  904MOL0     H21975   3.862   7.313   7.880 -1.7751  0.2836 -0.6978
  904MOL0     H21976   3.875   7.282   8.053  0.9606 -3.0056  0.1875
  904MOL0     H21977   3.738   7.068   8.015  3.7227  0.1910  3.4791
  904MOL0     H21978   3.735   7.096   7.840 -1.1001 -0.6928  0.4535
  904MOL0     H21979   3.913   6.925   7.885 -0.1442  0.6625 -1.9081
  904MOL0     H21980   3.961   7.074   7.830 -0.9031  0.9911  0.9120
  904MOL0     H21981   4.047   7.120   8.076 -0.0952  1.2075 -2.2934
  904MOL0     H21982   3.960   6.962   8.119 -2.1421  1.8119 -0.1136
  904MOL0     H21983   4.124   6.843   7.950  1.4465 -1.3597  1.7545
  904MOL0     H21984   4.202   6.996   7.930 -0.0776  0.3677 -1.5230
  904MOL0     H21985   4.251   7.006   8.181 -0.5356 -0.4541 -0.7802
  904MOL0     H21986   4.166   6.854   8.204 -1.6418 -3.8054 -2.5546
  904MOL0     H21987   4.377   6.783   8.196  1.0388  2.5927  0.6231
  904MOL0     H21988   4.298   6.737   8.045 -0.0265  1.4428 -3.6973
  904MOL0     H21989   4.411   6.935   7.937 -0.4326  1.3154  0.8333
  904MOL0     H21990   4.526   6.800   7.998  1.2981  0.9723  0.8982
  904MOL0     H21991   4.640   6.889   8.256  0.1101  1.0753  1.6176
  904MOL0     H21992   4.616   7.236   8.416  0.7594  0.1250  1.9509
  904MOL0     H21993   4.671   7.085   8.460  0.2530  0.4770  0.3380
  904MOL0     H21994   4.854   7.146   8.263 -1.0862 -4.9747  3.1309
  904MOL0     H21995   4.876   7.195   8.443  2.6984  2.5895 -0.3386
  904MOL0     H21996   4.757   7.408   8.401  0.2828 -0.8058  0.8390
  904MOL0     H21997   4.758   7.370   8.231 -1.7729  0.8035  0.9518
  904MOL0     H21998   5.028   7.335   8.243  0.5254 -3.6439  3.7954
  904MOL0     H21999   5.006   7.378   8.413  1.7403  0.4894 -0.0952
  904MOL0     H22000   5.068   7.770   8.217  1.0964 -0.0117  0.0527
  904MOL0     H22001   5.231   7.903   8.077 -0.0313  2.5907  0.0420
  904MOL0     H22002   5.202   7.916   7.900  1.3688  1.9769 -0.4206
  904MOL0     H22003   5.081   7.972   8.013  1.8918  0.0029 -2.0472
  904MOL0     H22004   4.992   7.500   7.438 -0.2946 -0.3636 -1.9171
  904MOL0     H22005   5.113   7.509   7.238  2.7637  0.7890 -0.0103
  904MOL0     H22006   5.272   7.759   7.080  0.2859 -0.3655 -1.1899
  904MOL0     H22007   5.370   7.832   7.207 -1.6333  0.9136 -1.3707
  904MOL0     H22008   5.505   7.860   7.036 -0.2910 -0.0270 -0.7336
  904MOL0     H22009   5.570   7.713   7.105  0.4830 -0.0467 -0.8506
  904MOL0     H22010   5.393   7.702   6.862 -0.8528 -0.2664  1.2393
  904MOL0     H22011   5.484   7.561   6.940 -0.3382 -0.9373 -1.5489
  904MOL0     H22012   5.571   7.813   6.812  0.8385  0.2638  1.9044
  904MOL0     H22013   5.684   7.697   6.876 -0.5814 -0.9795  1.2201
  904MOL0     H22014   5.499   7.662   6.634  1.7345  0.6552 -1.6562
  904MOL0     H22015   5.595   7.530   6.697 -3.7199 -0.2321  2.6592
  904MOL0     H22016   5.717   7.793   6.607  1.1453  0.5268 -2.4290
  904MOL0     H22017   5.798   7.638   6.637 -0.5534 -0.7969 -0.7788
  904MOL0     H22018   5.611   7.741   6.415 -0.6889  0.2006 -0.8464
  904MOL0     H22019   5.644   7.563   6.434 -2.4543  1.2107  0.8171
  904MOL0     H22020   5.779   7.663   6.259 -1.1759  1.1523 -0.1896
  904MOL0     H22021   5.879   7.599   6.391  1.4180  1.1945  0.1362
  904MOL0     H22022   5.439   7.711   7.420  0.1470  0.3871  1.5854
  904MOL0     H22023   5.312   7.735   7.619  1.6912 -2.4061  0.9221
  904MOL0     H22024   4.925   7.513   7.837 -0.9319  0.4452  0.5581
  904MOL0     H22025   4.909   7.414   8.068  1.3680  0.3776  1.5085
  904MOL0     H22026   3.476   7.422   8.020  1.2382 -2.5900  1.3779
  904MOL0     H22027   3.314   7.487   7.871 -1.4029 -2.2868 -0.4915
  904MOL0     H22028   3.141   7.793   7.520  0.4186 -1.6165  2.3309
  904MOL0     H22029   2.981   7.844   7.357  3.2237  1.3184  1.0164
  904MOL0     H22030   2.983   7.688   7.030 -0.1606  1.9570  0.8330
  904MOL0     H22031   2.946   7.523   7.066  2.6556  1.5493  2.5770
  904MOL0     H22032   2.817   7.660   6.892  0.7558 -1.7535  0.2819
  904MOL0     H22033   2.715   7.715   7.039  2.2030  0.0828  1.0963
  904MOL0     H22034   2.780   7.442   6.938  2.0327  2.7098  1.1201
  904MOL0     H22035   2.619   7.524   6.925 -0.9148  4.5656  1.1092
  904MOL0     H22036   2.764   7.387   7.151  1.3314  0.6050 -0.2123
  904MOL0     H22037   2.610   7.342   7.084 -2.2642  2.0305  0.3083
  904MOL0     H22038   2.470   7.648   7.324 -3.3226 -0.7724 -3.4423
  904MOL0     H22039   2.986   7.424   7.239  0.8978 -0.6096 -0.3845
  904MOL0     H22040   3.143   7.383   7.410  0.2180 -0.6358 -0.7169
  905MOL0     O22041   6.937   4.278   8.282  0.1993  1.0470  0.5250
  905MOL0     C22042   6.915   4.378   8.345  0.2316 -0.9478  0.9923
  905MOL0     O22043   6.878   4.382   8.476 -0.5133  0.0548  0.3436
  905MOL0     C22044   6.903   4.283   8.570 -0.0602 -0.4583  0.2740
  905MOL0     C22045   6.832   4.299   8.687 -0.8937 -0.0103  0.4880
  905MOL0     C22046   6.848   4.211   8.797 -0.0045 -0.3022  0.3411
  905MOL0     C22047   6.950   4.116   8.783 -0.3486  0.1188  0.1842
  905MOL0     O22048   6.969   4.025   8.880 -0.6070  0.1860 -0.3548
  905MOL0     C22049   7.081   4.044   8.955 -0.6374 -0.5578 -0.2281
  905MOL0     C22050   7.098   3.947   9.061  0.3904  0.3641  0.1807
  905MOL0     C22051   7.113   3.810   9.003  0.4717 -0.0541 -0.9953
  905MOL0     C22052   7.116   3.696   9.107 -0.7945  0.0589  0.6178
  905MOL0     C22053   7.231   3.607   9.097  0.2529  0.3614  0.7140
  905MOL0     C22054   7.219   3.521   8.965 -0.0160 -0.7955  0.1463
  905MOL0     C22055   7.349   3.443   8.926 -0.1359 -0.4704 -0.1631
  905MOL0     C22056   7.394   3.320   9.014  0.0083  0.5680 -0.2640
  905MOL0     N22057   7.315   3.199   8.987 -0.9511 -0.4369  0.8497
  905MOL0     C22058   7.354   3.107   8.889 -0.9127  1.1411  0.4927
  905MOL0     C22059   7.262   3.011   8.911 -0.1330  0.6037  0.2011
  905MOL0     C22060   7.246   2.888   8.837 -0.9973  0.2222  1.1189
  905MOL0     C22061   7.199   2.772   8.932  0.2094 -1.1129 -0.0823
  905MOL0     C22062   7.109   2.684   8.853  0.3172  0.8707  1.3924
  905MOL0     C22063   7.076   2.560   8.929  0.2108  0.3371  0.3881
  905MOL0     O22064   6.995   2.464   8.855  0.3567 -0.1487  0.0808
  905MOL0     C22065   6.874   2.448   8.926 -0.6085 -0.3216 -0.4913
  905MOL0     C22066   6.747   2.495   8.887 -0.3839 -0.9192  0.4682
  905MOL0     C22067   6.624   2.475   8.948 -0.0744 -0.3274 -0.2113
  905MOL0     C22068   6.508   2.550   8.891 -0.4287 -0.1648  0.4993
  905MOL0     C22069   6.623   2.400   9.071  0.1890  0.5288  0.1727
  905MOL0     C22070   6.509   2.380   9.163 -0.2289  0.5462  0.4625
  905MOL0     O22071   6.534   2.323   9.282 -0.4442  0.2950 -0.7824
  905MOL0     C22072   6.435   2.260   9.348 -0.3664  0.4302 -0.1547
  905MOL0     C22073   6.343   2.170   9.284 -0.4354 -1.1243 -0.3023
  905MOL0     C22074   6.244   2.106   9.368  0.6123 -0.4223  0.4874
  905MOL0     C22075   6.238   2.124   9.503 -0.3150 -0.5193 -1.1813
  905MOL0     O22076   6.135   2.065   9.581  0.7362 -0.2935 -0.2065
  905MOL0     C22077   6.065   2.146   9.678 -0.1411  0.7870  0.3129
  905MOL0     C22078   5.919   2.088   9.684 -0.6403  0.5638  0.3224
  905MOL0     C22079   5.900   1.981   9.784  1.5118 -0.4921 -1.3134
  905MOL0     C22080   5.975   1.845   9.747 -0.4375  0.3007  0.3010
  905MOL0     C22081   5.936   1.749   9.844 -0.4791  0.2399 -0.0720
  905MOL0     C22082   5.986   1.605   9.819  0.3612  0.5210 -1.5388
  905MOL0     C22083   5.958   1.508   9.943 -0.6196 -0.5168 -0.0957
  905MOL0     C22084   5.983   1.368   9.903  0.5264  1.2343 -0.4417
  905MOL0    Cl22085   6.162   1.360   9.857 -0.1296  0.2219 -0.1181
  905MOL0     C22086   6.322   2.208   9.558  0.5665  0.1982  0.0104
  905MOL0     C22087   6.422   2.279   9.489 -0.3662 -0.4545  0.8818
  905MOL0     O22088   6.397   2.399   9.125  0.3966 -0.5453  0.3051
  905MOL0     C22089   6.755   2.343   9.114  0.1010  0.2057 -1.0949
  905MOL0     C22090   6.875   2.363   9.043  0.2834 -0.3316 -1.0732
  905MOL0     N22091   7.165   3.052   9.005  0.0438 -0.5601  0.7621
  905MOL0     N22092   7.199   3.167   9.051 -0.4306  0.2498  0.4487
  905MOL0     C22093   7.020   4.103   8.669 -0.6768  0.7512 -0.3706
  905MOL0     C22094   6.991   4.177   8.555 -0.6587  0.5248  0.4047
  905MOL0     C22095   6.903   4.501   8.259 -0.0891  0.3304  0.1528
  905MOL0     C22096   6.916   4.495   8.113 -1.7653  0.3107 -0.3361
  905MOL0     C22097   6.906   4.615   8.048  0.2034 -0.5712  0.1859
  905MOL0     C22098   6.857   4.730   8.095 -0.1850 -0.5755  0.0615
  905MOL0     O22099   6.817   4.824   8.008  0.1113 -0.2239  0.2696
  905MOL0     C22100   6.700   4.893   8.024  0.3215  0.7168 -1.1259
  905MOL0     C22101   6.585   4.835   7.943  0.0541 -0.0685 -0.7998
  905MOL0     C22102   6.455   4.917   7.975 -0.0987  0.2286  0.0106
  905MOL0     C22103   6.324   4.867   7.910 -0.4901 -0.4155  0.2193
  905MOL0     C22104   6.279   4.729   7.936 -0.1309  0.5170 -0.2773
  905MOL0     C22105   6.247   4.610   7.949 -1.3503  1.1146 -0.4930
  905MOL0     C22106   6.833   4.739   8.233 -0.8568  0.2739  0.0973
  905MOL0     C22107   6.857   4.620   8.310  0.2719 -0.0338 -0.6536
  905MOL0     H22108   6.765   4.384   8.680 -0.6375  0.0832 -1.9900
  905MOL0     H22109   6.793   4.239   8.886  0.2908 -0.2608  0.5131
  905MOL0     H22110   7.166   4.060   8.887 -0.2638 -0.6947  0.2037
  905MOL0     H22111   7.071   4.142   9.003  3.7122 -0.9695  1.9720
  905MOL0     H22112   7.183   3.979   9.122  0.9762 -2.6497  1.1353
  905MOL0     H22113   6.995   3.943   9.095 -0.6264 -1.3166 -2.7101
  905MOL0     H22114   7.030   3.772   8.943  0.2548 -4.5139  1.6526
  905MOL0     H22115   7.198   3.800   8.934  0.4900 -1.3569 -0.8215
  905MOL0     H22116   7.108   3.742   9.207 -0.0418  3.4740 -0.7245
  905MOL0     H22117   7.022   3.645   9.086 -1.9833  2.6611 -0.9672
  905MOL0     H22118   7.320   3.670   9.104  2.1964 -2.3021  1.2319
  905MOL0     H22119   7.228   3.538   9.182 -3.7815 -1.0740 -0.3829
  905MOL0     H22120   7.147   3.441   8.984  1.1728 -1.5036  1.9834
  905MOL0     H22121   7.197   3.579   8.874  1.6516  3.6928  2.2855
  905MOL0     H22122   7.329   3.408   8.824 -1.3412 -0.5004  0.0649
  905MOL0     H22123   7.427   3.520   8.923  0.8026 -1.4288 -1.5638
  905MOL0     H22124   7.374   3.347   9.118 -0.4262  2.4171 -0.7835
  905MOL0     H22125   7.500   3.299   9.000 -0.0799  0.3247 -0.5834
  905MOL0     H22126   7.439   3.104   8.822 -2.0548  1.4336 -1.0251
  905MOL0     H22127   7.185   2.906   8.747 -1.5841  2.7727  1.9302
  905MOL0     H22128   7.347   2.870   8.799 -1.0110  0.9538  0.7030
  905MOL0     H22129   7.143   2.811   9.017 -4.3636 -0.0245 -3.2340
  905MOL0     H22130   7.294   2.726   8.963  0.8307  2.0710  3.3903
  905MOL0     H22131   7.149   2.644   8.759 -2.9052  0.6713 -0.0292
  905MOL0     H22132   7.017   2.740   8.831 -0.2985 -0.6504 -0.1486
  905MOL0     H22133   7.023   2.582   9.022 -1.1857  0.0283 -0.3081
  905MOL0     H22134   7.171   2.511   8.955 -0.4647 -1.4839 -0.4337
  905MOL0     H22135   6.741   2.551   8.795  0.8497 -1.2382  0.1660
  905MOL0     H22136   6.434   2.486   8.842 -0.1833 -0.6702  0.7901
  905MOL0     H22137   6.461   2.595   8.979 -3.5056 -1.1755 -0.4932
  905MOL0     H22138   6.541   2.626   8.819  0.3566 -2.3540 -1.5805
  905MOL0     H22139   6.346   2.155   9.177 -2.6631 -3.6864 -0.1187
  905MOL0     H22140   6.169   2.034   9.339 -2.6424  1.6073  3.1617
  905MOL0     H22141   6.122   2.139   9.771  1.8680 -0.8751 -0.9390
  905MOL0     H22142   6.069   2.246   9.633  1.2123  0.7644  0.3251
  905MOL0     H22143   5.851   2.170   9.704  0.3427  1.6515 -0.6361
  905MOL0     H22144   5.891   2.039   9.590  0.4415 -1.1438  0.8310
  905MOL0     H22145   5.795   1.953   9.795  1.6925 -0.2343  2.2504
  905MOL0     H22146   5.929   2.018   9.883  1.3640 -1.9013 -0.7241
  905MOL0     H22147   5.938   1.823   9.646  1.3487 -3.2242  0.2650
  905MOL0     H22148   6.084   1.842   9.741 -0.5197 -1.1926 -1.6600
  905MOL0     H22149   5.827   1.743   9.834 -1.0580  5.3078  0.8481
  905MOL0     H22150   5.961   1.787   9.943 -1.8492  1.6410 -0.2257
  905MOL0     H22151   5.941   1.569   9.726 -1.6021 -4.0709  0.8900
  905MOL0     H22152   6.095   1.604   9.808  0.8901  3.7466  1.5438
  905MOL0     H22153   5.850   1.513   9.961 -1.9506  0.0097 -5.9511
  905MOL0     H22154   6.016   1.523  10.034 -0.5229 -1.2225 -0.0392
  905MOL0     H22155   5.934   1.346   9.808 -0.8407 -2.4588  0.9244
  905MOL0     H22156   5.958   1.289   9.975 -0.3902 -1.6675 -3.6539
  905MOL0     H22157   6.312   2.212   9.666 -3.4583 -2.0450 -0.0533
  905MOL0     H22158   6.486   2.347   9.545 -1.0373 -1.9748  3.7065
  905MOL0     H22159   6.748   2.276   9.198 -0.0032 -2.9646 -3.4545
  905MOL0     H22160   6.957   2.308   9.087 -2.2600 -2.2312  1.6962
  905MOL0     H22161   7.082   4.016   8.650 -0.5755  0.2816  1.8608
  905MOL0     H22162   7.034   4.161   8.457 -0.9796 -1.9870  0.6193
  905MOL0     H22163   6.949   4.406   8.061 -0.2505  1.2479 -1.0578
  905MOL0     H22164   6.919   4.608   7.941 -0.7958  4.3269 -0.4919
  905MOL0     H22165   6.665   4.884   8.127 -0.4976 -2.5286 -1.5845
  905MOL0     H22166   6.707   4.995   7.984 -3.2912  0.6622 -2.2165
  905MOL0     H22167   6.566   4.731   7.969  0.5253  0.1988  0.6672
  905MOL0     H22168   6.609   4.841   7.836 -2.5674 -1.1120 -1.5388
  905MOL0     H22169   6.455   5.020   7.939 -1.7151 -0.3453 -1.7937
  905MOL0     H22170   6.434   4.925   8.082 -1.1588  0.7576 -0.2278
  905MOL0     H22171   6.342   4.881   7.803  1.0678 -0.2667  0.4709
  905MOL0     H22172   6.242   4.939   7.921 -0.8434 -0.9192  0.9086
  905MOL0     H22173   6.203   4.513   7.955 -3.6741  2.1512  0.8225
  905MOL0     H22174   6.816   4.832   8.286  2.2589  1.9136 -1.4858
  905MOL0     H22175   6.826   4.620   8.414 -5.9112 -1.6093 -2.0933
  906MOL0     O22176   2.799   1.359   2.314 -0.1350 -0.3963  0.6946
  906MOL0     C22177   2.693   1.421   2.331  0.1070  0.5388  0.0821
  906MOL0     O22178   2.584   1.389   2.409  0.1421 -0.2427 -0.4118
  906MOL0     C22179   2.548   1.269   2.475 -1.7389  0.3137  0.3278
  906MOL0     C22180   2.638   1.176   2.528 -0.3222 -1.2402  0.2464
  906MOL0     C22181   2.595   1.068   2.594 -0.4854 -0.5941  0.8996
  906MOL0     C22182   2.461   1.039   2.616  1.0975  0.4810 -0.5014
  906MOL0     O22183   2.432   0.926   2.681  0.4730  0.2723 -0.0802
  906MOL0     C22184   2.294   0.894   2.719 -1.0030  1.3132 -0.9749
  906MOL0     C22185   2.273   0.744   2.742 -0.6136  0.5273  0.7851
  906MOL0     C22186   2.123   0.698   2.760 -0.1062 -0.2186  0.5005
  906MOL0     C22187   2.087   0.650   2.906 -0.5461 -0.5875  0.5511
  906MOL0     C22188   1.940   0.651   2.906  0.6672 -0.2129  0.6509
  906MOL0     C22189   1.872   0.613   3.043  0.7448 -0.6064  0.2839
  906MOL0     C22190   1.739   0.527   3.026 -0.4263 -0.2254 -0.7076
  906MOL0     C22191   1.764   0.377   3.005 -0.7847 -0.5324 -0.0289
  906MOL0     N22192   1.841   0.361   2.877 -0.3634 -0.2022  0.6128
  906MOL0     C22193   1.779   0.381   2.749  0.7380  0.6252 -0.5353
  906MOL0     C22194   1.872   0.341   2.660 -0.7403 -0.0376 -0.5954
  906MOL0     C22195   1.840   0.321   2.514 -0.0818 -0.5824  1.2920
  906MOL0     C22196   1.968   0.348   2.435 -1.0308 -0.1742 -0.5973
  906MOL0     C22197   1.949   0.402   2.294 -0.8107 -0.5455  0.0004
  906MOL0     C22198   1.864   0.310   2.193  0.4306 -0.7576 -0.8210
  906MOL0     O22199   1.838   0.378   2.072 -0.3385  0.3585  0.3404
  906MOL0     C22200   1.738   0.324   1.987 -0.4837  0.8510 -0.4463
  906MOL0     C22201   1.686   0.413   1.897 -0.0733  0.7052  0.5472
  906MOL0     C22202   1.590   0.379   1.798 -0.2042 -0.8777  0.5481
  906MOL0     C22203   1.530   0.501   1.719 -0.3485  0.0139 -0.6736
  906MOL0     C22204   1.546   0.246   1.786  0.4136 -0.3752 -0.1447
  906MOL0     C22205   1.447   0.198   1.686  0.8185  0.7486 -1.2051
  906MOL0     O22206   1.370   0.290   1.629 -0.3737 -0.6483  1.0396
  906MOL0     C22207   1.291   0.235   1.537 -0.1989  0.0721 -0.4266
  906MOL0     C22208   1.285   0.252   1.400  0.1474  0.0570 -0.2980
  906MOL0     C22209   1.191   0.182   1.312  0.0066 -0.0195 -0.5680
  906MOL0     C22210   1.080   0.121   1.372  0.2552 -0.4670  0.6595
  906MOL0     O22211   0.972   0.070   1.310  0.9645  0.1402 -0.5340
  906MOL0     C22212   0.951   0.101   1.176 -0.6130 -0.1819 -0.3211
  906MOL0     C22213   0.820   0.059   1.128 -0.7151 -0.1198 -0.6065
  906MOL0     C22214   0.805   0.073   0.979 -0.1612  0.0764 -0.2900
  906MOL0     C22215   0.665   0.038   0.926  0.0239 -0.9628 -0.9486
  906MOL0     C22216   0.547   0.130   0.976  0.9199  0.4894 -0.4470
  906MOL0     C22217   0.408   0.073   0.946  0.3967 -0.0708  0.3257
  906MOL0     C22218   0.373  -0.055   1.024 -0.0069  0.8800  0.2080
  906MOL0     C22219   0.416  -0.054   1.178 -0.3067  0.6302  0.7993
  906MOL0    Cl22220   0.323   0.067   1.274 -0.0520  0.1166 -0.3066
  906MOL0     C22221   1.068   0.110   1.511 -0.5178  0.6444  0.4691
  906MOL0     C22222   1.175   0.169   1.593  0.0623  0.4278  0.2483
  906MOL0     O22223   1.432   0.079   1.687  0.1218 -0.3588 -0.2988
  906MOL0     C22224   1.595   0.156   1.885 -0.9720  0.1476  0.8373
  906MOL0     C22225   1.698   0.191   1.976 -0.9989  0.9444  0.5280
  906MOL0     N22226   2.000   0.319   2.724 -0.8388  0.4783 -0.2833
  906MOL0     N22227   1.967   0.318   2.853  0.7194  0.8303 -0.0554
  906MOL0     C22228   2.367   1.128   2.561  0.4964  0.7531  0.8144
  906MOL0     C22229   2.410   1.242   2.491 -0.7086 -0.4620  0.4215
  906MOL0     C22230   2.685   1.557   2.273 -1.1415 -0.0114  0.1533
  906MOL0     C22231   2.564   1.627   2.271  0.8637  0.8333  1.0935
  906MOL0     C22232   2.555   1.762   2.231  0.3394  0.8518 -0.4336
  906MOL0     C22233   2.672   1.825   2.189 -0.0368  0.1890  1.2728
  906MOL0     O22234   2.667   1.956   2.139  0.0774  0.0990 -0.2549
  906MOL0     C22235   2.597   1.969   2.012 -0.3492 -0.1945 -0.0477
  906MOL0     C22236   2.629   2.108   1.941  0.6487  0.2199 -0.3874
  906MOL0     C22237   2.770   2.093   1.906 -0.8077  0.4764  1.4239
  906MOL0     C22238   2.865   2.160   2.009 -0.7944  0.8911 -0.8020
  906MOL0     C22239   2.860   2.310   1.998 -0.2500  0.1544  0.4468
  906MOL0     C22240   2.852   2.430   1.977 -0.3039 -0.1122 -0.1322
  906MOL0     C22241   2.792   1.749   2.179  0.6295 -0.3974  0.3173
  906MOL0     C22242   2.798   1.622   2.218  0.1039 -0.0200 -0.2341
  906MOL0     H22243   2.738   1.190   2.489 -1.5993  1.6878 -2.4853
  906MOL0     H22244   2.675   1.003   2.626  0.9548  1.5503  1.8931
  906MOL0     H22245   2.261   0.959   2.801  0.5027  2.1135 -0.9806
  906MOL0     H22246   2.235   0.910   2.628  0.0585 -0.2271 -1.9910
  906MOL0     H22247   2.318   0.695   2.655 -3.2360 -1.2011  0.2862
  906MOL0     H22248   2.335   0.701   2.821  2.5778  0.2428 -1.6276
  906MOL0     H22249   2.061   0.784   2.733  3.6161  3.4226  2.4175
  906MOL0     H22250   2.104   0.616   2.690  1.3587  0.9044 -1.3128
  906MOL0     H22251   2.132   0.554   2.933  0.8206 -0.0870  0.1483
  906MOL0     H22252   2.136   0.714   2.980  0.4479 -0.1165 -0.4778
  906MOL0     H22253   1.904   0.754   2.894  1.3884  0.1068  1.1180
  906MOL0     H22254   1.898   0.588   2.828  0.6826  2.0571 -1.3070
  906MOL0     H22255   1.942   0.556   3.104 -2.8144 -3.1419  2.3954
  906MOL0     H22256   1.845   0.709   3.089  0.4196 -0.2904 -0.5474
  906MOL0     H22257   1.682   0.526   3.119  0.7127 -2.0245  0.0327
  906MOL0     H22258   1.674   0.576   2.953 -2.6684  1.1937  2.0402
  906MOL0     H22259   1.672   0.317   3.008  1.0546 -3.5562  0.7708
  906MOL0     H22260   1.838   0.341   3.077  0.4826  0.5013 -0.7741
  906MOL0     H22261   1.674   0.405   2.737  0.6464 -0.0433 -1.1353
  906MOL0     H22262   1.796   0.224   2.488 -0.9986  0.0128  0.5614
  906MOL0     H22263   1.761   0.392   2.484 -2.2690 -2.6261  1.8931
  906MOL0     H22264   2.036   0.264   2.450  0.4276  0.8216 -1.4019
  906MOL0     H22265   2.020   0.427   2.490 -0.4378 -1.5239  0.8419
  906MOL0     H22266   2.047   0.425   2.251 -0.4622 -1.6967  0.1384
  906MOL0     H22267   1.894   0.497   2.302 -0.6093 -0.2984 -1.2156
  906MOL0     H22268   1.766   0.305   2.240  0.7441  1.3569  0.2046
  906MOL0     H22269   1.915   0.216   2.172 -0.4943 -1.2522 -0.8843
  906MOL0     H22270   1.713   0.517   1.909 -0.3117  0.7490  0.7043
  906MOL0     H22271   1.557   0.595   1.769  1.8027 -0.3341 -1.0682
  906MOL0     H22272   1.571   0.501   1.618 -0.6134  2.0589 -0.8333
  906MOL0     H22273   1.421   0.506   1.725 -0.5327  4.2223 -3.2136
  906MOL0     H22274   1.373   0.299   1.357  0.4338  0.3436  0.5903
  906MOL0     H22275   1.208   0.189   1.205  0.5855  1.2326 -0.4104
  906MOL0     H22276   0.967   0.208   1.157  1.8789 -0.6538 -1.2320
  906MOL0     H22277   1.025   0.044   1.120 -3.4022 -2.8678 -1.6135
  906MOL0     H22278   0.807  -0.048   1.147 -0.9482 -0.2742 -1.5419
  906MOL0     H22279   0.745   0.107   1.191 -0.5251 -1.3249  0.5882
  906MOL0     H22280   0.883   0.014   0.931  0.1772 -1.4000  1.9261
  906MOL0     H22281   0.835   0.175   0.955  2.5126 -0.9105 -1.5170
  906MOL0     H22282   0.666   0.050   0.817 -1.1780  0.3145 -0.8377
  906MOL0     H22283   0.639  -0.066   0.948  1.1377 -1.1444 -0.4019
  906MOL0     H22284   0.553   0.229   0.929 -1.5762  0.1655 -1.6302
  906MOL0     H22285   0.550   0.151   1.083 -2.9485 -1.7983  0.2787
  906MOL0     H22286   0.326   0.142   0.969 -0.5220 -1.2552  0.6661
  906MOL0     H22287   0.393   0.054   0.840  0.1991 -1.2202  0.5493
  906MOL0     H22288   0.418  -0.141   0.974 -3.2369 -0.1820 -1.1538
  906MOL0     H22289   0.264  -0.059   1.017  0.0204 -0.7372  0.4669
  906MOL0     H22290   0.522  -0.031   1.190  0.7376 -1.7830 -2.3102
  906MOL0     H22291   0.412  -0.151   1.228  2.4601  0.0143 -0.0227
  906MOL0     H22292   0.979   0.068   1.558  0.2121  0.3764  1.6416
  906MOL0     H22293   1.155   0.160   1.700 -3.5575 -0.6334 -0.3810
  906MOL0     H22294   1.575   0.049   1.879 -2.8978  0.3610  2.4464
  906MOL0     H22295   1.746   0.119   2.041 -0.4065 -0.5357 -1.4384
  906MOL0     H22296   2.259   1.129   2.554  0.5351 -0.1923 -0.1395
  906MOL0     H22297   2.340   1.315   2.454  0.2215 -1.3979 -3.6505
  906MOL0     H22298   2.467   1.583   2.293  0.2877 -0.8005 -3.4568
  906MOL0     H22299   2.465   1.823   2.240 -0.1640 -0.0677  1.3190
  906MOL0     H22300   2.611   1.894   1.933  0.0665  0.7161 -0.8698
  906MOL0     H22301   2.491   1.959   2.037 -0.0700  2.0184  2.4005
  906MOL0     H22302   2.599   2.191   2.006  1.2134 -2.3244  3.4417
  906MOL0     H22303   2.569   2.126   1.851  0.4159 -0.9923 -0.5012
  906MOL0     H22304   2.788   2.135   1.806 -4.3879 -1.1039 -0.0594
  906MOL0     H22305   2.797   1.987   1.903 -0.3702  0.5647 -2.1640
  906MOL0     H22306   2.969   2.128   1.998 -1.8610 -3.2645 -0.2950
  906MOL0     H22307   2.844   2.136   2.114 -0.2470 -1.0964 -1.1193
  906MOL0     H22308   2.843   2.534   1.952 -1.5182  0.0436  0.8513
  906MOL0     H22309   2.888   1.793   2.153  0.1700  1.5293  1.7025
  906MOL0     H22310   2.897   1.578   2.205  1.5951  3.3855 -1.6016
  907MOL0     O22311   8.909   9.538   4.544  0.7606 -0.4828 -0.8661
  907MOL0     C22312   8.896   9.588   4.436 -0.3815  0.8417 -0.1845
  907MOL0     O22313   8.999   9.628   4.368 -0.7687  0.8883 -0.1122
  907MOL0     C22314   9.126   9.629   4.424 -0.5241  0.3817 -0.4623
  907MOL0     C22315   9.209   9.525   4.391  0.0661  0.9489 -0.5520
  907MOL0     C22316   9.327   9.489   4.462  0.5428  0.5046 -0.4130
  907MOL0     C22317   9.364   9.570   4.566  0.3028  0.9858  0.5133
  907MOL0     O22318   9.481   9.557   4.641  0.0739 -0.5435  0.0667
  907MOL0     C22319   9.536   9.433   4.673 -0.2810 -0.2293  0.6728
  907MOL0     C22320   9.629   9.435   4.789 -0.6607  0.6561 -0.8235
  907MOL0     C22321   9.695   9.291   4.815  0.2054  0.4150  0.0865
  907MOL0     C22322   9.813   9.257   4.730  0.2431  0.4824  0.1902
  907MOL0     C22323   9.876   9.126   4.778 -0.0094  0.3853  0.6998
  907MOL0     C22324   9.984   9.074   4.685  0.3312  0.2845  0.1769
  907MOL0     C22325  10.112   9.156   4.693 -0.3288  0.0887  0.2643
  907MOL0     C22326  10.234   9.095   4.631  0.6779 -0.5141 -0.0549
  907MOL0     N22327  10.258   8.965   4.684  0.4194  0.1913 -0.0070
  907MOL0     C22328  10.269   8.937   4.817  0.4297  0.2990  0.2480
  907MOL0     C22329  10.259   8.798   4.831  0.5507  0.3371 -0.3701
  907MOL0     C22330  10.235   8.731   4.964 -0.3105 -0.0290 -0.5636
  907MOL0     C22331  10.368   8.662   4.993 -0.4197 -0.0190  0.3875
  907MOL0     C22332  10.384   8.531   4.920  0.5950 -1.1417 -0.5231
  907MOL0     C22333  10.510   8.463   4.945 -0.9799  0.1701 -0.1394
  907MOL0     O22334  10.520   8.415   5.082  0.1781  0.1231  0.2241
  907MOL0     C22335  10.480   8.284   5.109 -0.7442 -1.1504  0.3373
  907MOL0     C22336  10.491   8.172   5.032  0.5484  0.2908  0.3687
  907MOL0     C22337  10.438   8.045   5.068  0.5462 -0.3783 -0.6188
  907MOL0     C22338  10.443   7.932   4.983  0.1896 -0.2378  0.1254
  907MOL0     C22339  10.383   8.038   5.208 -0.8727  0.0012  0.8200
  907MOL0     C22340  10.315   7.909   5.270 -0.4212  0.3077  0.6879
  907MOL0     O22341  10.303   7.914   5.402 -0.0183 -0.3124 -0.8560
  907MOL0     C22342  10.251   7.809   5.471 -0.5882  0.5427 -0.1091
  907MOL0     C22343  10.317   7.779   5.592 -0.4150  0.3943 -0.7677
  907MOL0     C22344  10.265   7.681   5.683  0.6346  0.8668  0.8742
  907MOL0     C22345  10.145   7.621   5.651  0.1514  0.1666 -0.7903
  907MOL0     O22346  10.095   7.540   5.764 -0.1492 -0.6750  0.0424
  907MOL0     C22347  10.013   7.428   5.735 -0.3355  0.4684  0.4346
  907MOL0     C22348  10.051   7.301   5.811 -1.0238 -0.3527  0.6884
  907MOL0     C22349  10.036   7.308   5.963  0.1873  0.0472 -0.9890
  907MOL0     C22350   9.891   7.269   5.989 -0.1531  0.9487 -0.2321
  907MOL0     C22351   9.857   7.286   6.147  0.4227  0.1816 -0.6879
  907MOL0     C22352   9.723   7.230   6.193  0.4072 -0.4724 -0.2265
  907MOL0     C22353   9.615   7.257   6.085 -0.5091  0.3682 -0.3558
  907MOL0     C22354   9.574   7.398   6.061 -0.1892  0.1324 -0.1850
  907MOL0    Cl22355   9.492   7.466   6.213  0.0846 -0.1317  0.1311
  907MOL0     C22356  10.087   7.636   5.523  0.0218 -0.1128 -0.0515
  907MOL0     C22357  10.141   7.736   5.435  1.0348 -0.5516 -0.9186
  907MOL0     O22358  10.265   7.824   5.198  0.1599 -0.1353 -0.9162
  907MOL0     C22359  10.399   8.149   5.290 -0.0349 -1.3405 -0.7735
  907MOL0     C22360  10.430   8.270   5.239 -0.4154  0.5370 -0.4523
  907MOL0     N22361  10.237   8.746   4.703 -0.6092  0.3607 -0.0672
  907MOL0     N22362  10.244   8.845   4.625 -0.7319 -0.2579  0.1074
  907MOL0     C22363   9.295   9.684   4.591  0.2865  0.2684 -0.4466
  907MOL0     C22364   9.177   9.710   4.524  0.5097 -0.6996 -1.2347
  907MOL0     C22365   8.761   9.626   4.374 -0.5809 -0.0846 -0.1480
  907MOL0     C22366   8.746   9.706   4.261  0.7983 -0.1657 -1.2505
  907MOL0     C22367   8.619   9.740   4.210  0.0181 -1.1652 -0.4438
  907MOL0     C22368   8.504   9.692   4.265 -0.5448  0.2894 -0.2481
  907MOL0     O22369   8.390   9.721   4.198  0.7888 -0.5292  0.5917
  907MOL0     C22370   8.274   9.744   4.274 -0.0344 -0.2012  0.2254
  907MOL0     C22371   8.167   9.814   4.189  0.1178  1.1691 -0.1619
  907MOL0     C22372   8.226   9.960   4.169 -0.1745  0.2430  0.1653
  907MOL0     C22373   8.246  10.045   4.293  0.0234 -0.8882 -1.3615
  907MOL0     C22374   8.149  10.023   4.403 -0.1006 -0.9986  0.4926
  907MOL0     C22375   8.070   9.997   4.496 -0.3571  0.0059  0.6064
  907MOL0     C22376   8.514   9.588   4.368  0.1369 -0.1861 -0.7267
  907MOL0     C22377   8.641   9.565   4.425 -0.4018 -0.4648 -0.6240
  907MOL0     H22378   9.188   9.456   4.309 -1.6973  2.3986 -1.3972
  907MOL0     H22379   9.386   9.400   4.447  0.1334 -0.3036  2.3324
  907MOL0     H22380   9.455   9.369   4.709 -0.3234 -1.0386 -0.7858
  907MOL0     H22381   9.585   9.390   4.586 -0.0617  0.0169  0.6743
  907MOL0     H22382   9.709   9.509   4.784 -0.3415  0.4673  0.8879
  907MOL0     H22383   9.577   9.457   4.882 -1.2100  2.0398 -1.4427
  907MOL0     H22384   9.722   9.288   4.922  0.7385 -1.8639 -0.0564
  907MOL0     H22385   9.607   9.228   4.799 -0.5382  1.7691 -1.4595
  907MOL0     H22386   9.779   9.241   4.627  0.1581  4.1973 -0.5009
  907MOL0     H22387   9.891   9.334   4.716  1.3193 -0.7712 -1.0114
  907MOL0     H22388   9.928   9.149   4.871  1.4987  1.4055 -0.3484
  907MOL0     H22389   9.797   9.051   4.790 -1.3814  1.6591 -0.1092
  907MOL0     H22390   9.997   8.968   4.708 -1.9031 -0.5681 -2.0614
  907MOL0     H22391   9.945   9.079   4.583 -0.5511 -3.5060  0.1792
  907MOL0     H22392  10.097   9.244   4.631  0.0811 -2.0013 -3.0561
  907MOL0     H22393  10.134   9.186   4.796  0.5338 -2.5057  0.9233
  907MOL0     H22394  10.308   9.170   4.659 -0.8154  0.1675  2.4376
  907MOL0     H22395  10.224   9.087   4.523  0.8074  1.8813 -0.2978
  907MOL0     H22396  10.280   9.007   4.900 -2.4611  0.5695  0.5104
  907MOL0     H22397  10.204   8.813   5.029  4.1199  1.9288 -0.5876
  907MOL0     H22398  10.154   8.658   4.958  0.1602 -0.4754 -2.0168
  907MOL0     H22399  10.384   8.654   5.101  0.4599  0.7795  0.3265
  907MOL0     H22400  10.454   8.723   4.967 -0.8758  0.2657 -0.4838
  907MOL0     H22401  10.382   8.542   4.811 -2.3122 -0.9431 -0.5244
  907MOL0     H22402  10.300   8.464   4.942 -0.1171 -0.5872 -1.4676
  907MOL0     H22403  10.600   8.522   4.930 -0.3971 -0.8554 -0.8267
  907MOL0     H22404  10.505   8.389   4.865 -0.1294  1.6501 -1.6286
  907MOL0     H22405  10.526   8.184   4.930 -0.0332 -0.1229  0.1155
  907MOL0     H22406  10.346   7.923   4.932  0.1937  0.6163 -0.0487
  907MOL0     H22407  10.521   7.943   4.908 -1.5547  3.0611 -1.4537
  907MOL0     H22408  10.460   7.843   5.043 -0.3670  0.8606  1.9982
  907MOL0     H22409  10.408   7.830   5.622 -1.0819  0.6946  0.8155
  907MOL0     H22410  10.301   7.648   5.780  3.5410 -2.3694 -1.0357
  907MOL0     H22411   9.909   7.458   5.751  0.4229  2.8779  1.1941
  907MOL0     H22412  10.025   7.390   5.633  1.6824 -3.2246  1.8457
  907MOL0     H22413  10.005   7.214   5.763 -1.0714  0.7956 -1.4685
  907MOL0     H22414  10.159   7.293   5.802 -0.8874 -0.2343  2.0916
  907MOL0     H22415  10.062   7.408   5.999 -1.1725 -0.0570  0.3584
  907MOL0     H22416  10.097   7.230   6.010  0.3694  0.7633 -0.0075
  907MOL0     H22417   9.827   7.325   5.921  2.5922 -1.0998 -5.0488
  907MOL0     H22418   9.884   7.162   5.966 -1.1136  0.3914  2.2865
  907MOL0     H22419   9.863   7.393   6.170  2.0038  1.0666 -4.3594
  907MOL0     H22420   9.929   7.238   6.213  0.8210 -1.6800 -2.3715
  907MOL0     H22421   9.745   7.124   6.207  0.1926 -0.4403  0.3958
  907MOL0     H22422   9.692   7.259   6.294 -0.5657 -1.3875 -0.2539
  907MOL0     H22423   9.523   7.203   6.112 -1.4704  1.6252 -0.9947
  907MOL0     H22424   9.648   7.203   5.995  1.9040 -2.2393  1.9132
  907MOL0     H22425   9.501   7.414   5.980 -0.8376 -1.3604  0.0828
  907MOL0     H22426   9.668   7.451   6.043  0.9829 -1.3925  1.2541
  907MOL0     H22427   9.998   7.578   5.498 -0.3233  0.4145 -0.0516
  907MOL0     H22428  10.082   7.757   5.346 -1.2579  2.6148  1.1487
  907MOL0     H22429  10.358   8.146   5.391  1.2669  1.4301 -0.0710
  907MOL0     H22430  10.413   8.363   5.293  1.3801 -1.5641  4.3202
  907MOL0     H22431   9.332   9.751   4.668 -1.0435 -0.3693  0.8182
  907MOL0     H22432   9.123   9.792   4.569 -0.5647 -2.8322  1.7122
  907MOL0     H22433   8.842   9.741   4.225  1.2117  0.7030  0.5543
  907MOL0     H22434   8.619   9.802   4.121  1.2504 -1.8577 -0.9580
  907MOL0     H22435   8.236   9.649   4.311  0.5125 -0.7294 -0.5305
  907MOL0     H22436   8.289   9.797   4.368 -1.0834 -1.4106  1.1083
  907MOL0     H22437   8.078   9.821   4.251 -0.0860  2.6716 -0.5967
  907MOL0     H22438   8.140   9.757   4.100 -0.7939  1.4280 -0.0541
  907MOL0     H22439   8.162  10.005   4.093 -0.4641 -1.8920 -0.9359
  907MOL0     H22440   8.322   9.940   4.121 -0.4565  0.8399 -0.6522
  907MOL0     H22441   8.242  10.150   4.263 -1.3618  0.3898  2.6789
  907MOL0     H22442   8.338  10.013   4.342 -0.8978 -0.6012  0.6482
  907MOL0     H22443   8.020   9.960   4.583  1.6790 -2.8574  0.7068
  907MOL0     H22444   8.441   9.513   4.398  2.0552 -3.2051 -3.0823
  907MOL0     H22445   8.646   9.489   4.502 -1.0921 -0.2319 -0.3423
  908MOL0     O22446   5.711   9.823   3.735 -0.1239 -0.1590  0.6547
  908MOL0     C22447   5.598   9.868   3.743 -0.0429 -0.0629 -0.5299
  908MOL0     O22448   5.556   9.975   3.681 -0.2399 -0.1862  0.5897
  908MOL0     C22449   5.638  10.072   3.619 -0.3667 -0.9205 -1.3261
  908MOL0     C22450   5.781  10.070   3.613  0.1778  0.3139 -0.5458
  908MOL0     C22451   5.842  10.186   3.557  0.2283 -0.3189 -0.2055
  908MOL0     C22452   5.764  10.279   3.479  0.6476 -0.1037  0.0723
  908MOL0     O22453   5.828  10.391   3.427 -0.9257  0.2567 -0.7815
  908MOL0     C22454   5.941  10.434   3.501  0.6494  1.0956 -0.3259
  908MOL0     C22455   5.956  10.580   3.488  1.0088 -0.1841  0.1046
  908MOL0     C22456   5.980  10.601   3.336 -0.0240 -0.1992  0.6588
  908MOL0     C22457   6.019  10.736   3.307 -0.2056 -0.6824 -0.9599
  908MOL0     C22458   6.002  10.795   3.168 -1.0704 -0.3519  0.0763
  908MOL0     C22459   6.039  10.942   3.146 -0.7246  0.0387 -0.5130
  908MOL0     C22460   5.964  11.042   3.234  0.5474  0.5405  0.6146
  908MOL0     C22461   6.011  11.196   3.221 -0.1907 -0.6555  0.3713
  908MOL0     N22462   5.953  11.271   3.343  0.1360 -0.6126 -0.0588
  908MOL0     C22463   6.010  11.252   3.463  0.3095 -0.4688 -0.0967
  908MOL0     C22464   5.945  11.339   3.543  0.0700  0.4509  0.3179
  908MOL0     C22465   5.981  11.371   3.692  0.3673 -0.4069 -0.6125
  908MOL0     C22466   5.861  11.443   3.760  0.0518 -0.6249 -0.5440
  908MOL0     C22467   5.891  11.467   3.909  0.0714  0.2255 -0.8651
  908MOL0     C22468   6.032  11.528   3.924  1.1027 -1.2145 -0.1604
  908MOL0     O22469   6.034  11.589   4.053  0.3132  0.8169  0.6524
  908MOL0     C22470   6.148  11.652   4.088 -0.5606  0.0770  0.3856
  908MOL0     C22471   6.161  11.708   4.218  0.0161  1.1850 -0.6538
  908MOL0     C22472   6.271  11.775   4.267 -0.2206  0.5079  0.0070
  908MOL0     C22473   6.260  11.821   4.413 -0.0815 -0.9728 -0.5179
  908MOL0     C22474   6.377  11.799   4.176  0.5213  0.0183 -0.0394
  908MOL0     C22475   6.508  11.873   4.218  0.2540 -0.7393 -0.6251
  908MOL0     O22476   6.596  11.923   4.116 -0.1964  0.1992 -0.5750
  908MOL0     C22477   6.703  12.008   4.146 -0.2054  0.3163 -0.0011
  908MOL0     C22478   6.837  12.004   4.101 -0.5707 -0.7936  0.4524
  908MOL0     C22479   6.941  12.088   4.151  0.1681  0.5384  0.3496
  908MOL0     C22480   6.915  12.179   4.247 -0.1854 -0.4618  0.5576
  908MOL0     O22481   7.018  12.256   4.306  0.6799 -0.1964  0.6400
  908MOL0     C22482   6.967  12.347   4.407 -0.3360  0.0487  0.2879
  908MOL0     C22483   6.923  12.482   4.351 -0.0750  0.7964  0.5571
  908MOL0     C22484   7.047  12.582   4.343 -0.1456  0.3148  0.1809
  908MOL0     C22485   7.097  12.631   4.475  0.1665  1.1797  0.8681
  908MOL0     C22486   7.164  12.767   4.456  0.5066 -0.4335  0.8992
  908MOL0     C22487   7.060  12.884   4.439  0.6207  0.2147 -0.1804
  908MOL0     C22488   7.123  13.021   4.418 -0.1262 -0.3098 -0.3134
  908MOL0     C22489   7.020  13.125   4.378 -0.5301  0.1219  0.4530
  908MOL0    Cl22490   6.959  13.119   4.207 -0.3910  0.2878  0.3057
  908MOL0     C22491   6.777  12.195   4.278 -1.0665 -0.8040 -0.9366
  908MOL0     C22492   6.674  12.119   4.219 -1.0545  0.2663 -0.2028
  908MOL0     O22493   6.531  11.881   4.341 -0.1128 -0.0660 -0.2176
  908MOL0     C22494   6.374  11.747   4.047  0.9190 -0.7003  0.6570
  908MOL0     C22495   6.256  11.679   4.002 -0.7344 -0.3302 -0.1419
  908MOL0     N22496   5.851  11.412   3.476 -0.0370 -0.1053 -0.7469
  908MOL0     N22497   5.850  11.370   3.355 -0.6431  0.1533 -0.3895
  908MOL0     C22498   5.634  10.266   3.471 -0.4437 -1.3875  0.1424
  908MOL0     C22499   5.568  10.169   3.541  0.1511  0.7009  0.6803
  908MOL0     C22500   5.513   9.819   3.850  0.0161 -0.7758 -0.6169
  908MOL0     C22501   5.564   9.734   3.949 -1.7074 -0.9773 -0.1810
  908MOL0     C22502   5.481   9.691   4.054  0.0512  0.1408 -0.0434
  908MOL0     C22503   5.344   9.705   4.049 -0.1899 -0.9938 -1.0568
  908MOL0     O22504   5.278   9.648   4.162  0.1686 -0.5380  0.7039
  908MOL0     C22505   5.147   9.665   4.187  0.1125 -0.2188  0.7316
  908MOL0     C22506   5.072   9.573   4.096  0.3978  0.4747 -0.1196
  908MOL0     C22507   4.924   9.608   4.074  0.6928  0.7807 -0.6013
  908MOL0     C22508   4.857   9.472   4.019 -0.5119  0.7072 -0.2082
  908MOL0     C22509   4.720   9.488   3.981 -0.5756  0.0214 -0.7908
  908MOL0     C22510   4.610   9.535   3.971  0.2167 -0.2435 -0.3945
  908MOL0     C22511   5.293   9.786   3.950  0.2267 -0.2924 -0.3028
  908MOL0     C22512   5.377   9.853   3.849  0.4571  0.2107 -0.4688
  908MOL0     H22513   5.844  10.014   3.681 -0.4740  1.5969  1.1925
  908MOL0     H22514   5.950  10.186   3.565  0.1573  0.9682  1.4025
  908MOL0     H22515   5.915  10.418   3.606 -2.3326 -0.9945 -1.2684
  908MOL0     H22516   6.029  10.382   3.462 -0.6515 -1.5864  0.0751
  908MOL0     H22517   5.876  10.643   3.529 -0.1947 -1.6078  0.0331
  908MOL0     H22518   6.047  10.611   3.540  2.5115 -2.9788 -0.6779
  908MOL0     H22519   6.061  10.539   3.297  1.1356  1.0605  1.0265
  908MOL0     H22520   5.887  10.581   3.282 -0.5399  5.5056 -1.2176
  908MOL0     H22521   5.965  10.803   3.375 -0.2544 -2.2814  0.6571
  908MOL0     H22522   6.123  10.737   3.341 -0.2837 -0.1444 -0.7308
  908MOL0     H22523   6.042  10.728   3.091 -1.2044 -1.3150  0.8233
  908MOL0     H22524   5.896  10.805   3.144  0.3086  3.2806 -8.1169
  908MOL0     H22525   6.146  10.952   3.167 -1.2157 -0.7119  3.0101
  908MOL0     H22526   6.029  10.967   3.040  1.6043 -0.5662 -0.9345
  908MOL0     H22527   5.859  11.038   3.204  1.3234  0.0803 -2.4567
  908MOL0     H22528   5.979  11.023   3.340  1.9010  3.0218  0.9418
  908MOL0     H22529   5.974  11.238   3.127  3.1455 -1.4751 -1.4974
  908MOL0     H22530   6.116  11.228   3.220 -1.0021  2.2780  0.7888
  908MOL0     H22531   6.093  11.186   3.485  1.3680  1.3173  1.6298
  908MOL0     H22532   6.021  11.283   3.743 -0.3893 -1.6889 -2.1385
  908MOL0     H22533   6.071  11.433   3.684  0.2559 -0.4772 -4.3775
  908MOL0     H22534   5.770  11.381   3.766 -0.6423  0.4915  1.7925
  908MOL0     H22535   5.854  11.538   3.707  1.8297 -0.7213 -0.9921
  908MOL0     H22536   5.889  11.376   3.969 -3.0740  1.3379  0.9437
  908MOL0     H22537   5.824  11.546   3.944  1.8093  0.6596  1.6907
  908MOL0     H22538   6.045  11.603   3.845 -1.1085 -2.3182 -1.6582
  908MOL0     H22539   6.119  11.461   3.921  3.3887  1.5487 -1.4731
  908MOL0     H22540   6.072  11.697   4.280  1.4496  0.0227  1.3151
  908MOL0     H22541   6.249  11.930   4.417  1.8592 -0.7402  2.5645
  908MOL0     H22542   6.178  11.777   4.470 -0.0233  0.7172  0.9510
  908MOL0     H22543   6.353  11.801   4.468  1.5381 -2.2990 -3.5351
  908MOL0     H22544   6.850  11.923   4.029  0.9704 -0.8306  0.7477
  908MOL0     H22545   7.036  12.054   4.109 -0.6237 -1.3202 -0.0367
  908MOL0     H22546   6.889  12.301   4.469  1.1436 -0.3550  1.9377
  908MOL0     H22547   7.058  12.371   4.463  0.3736  0.2486 -0.9221
  908MOL0     H22548   6.874  12.467   4.255 -0.7424 -1.5406  1.2098
  908MOL0     H22549   6.845  12.522   4.417 -3.9096 -4.0935 -0.4526
  908MOL0     H22550   7.020  12.663   4.274  2.5710  0.8682 -0.3633
  908MOL0     H22551   7.134  12.533   4.299  0.2167 -0.8259  2.0681
  908MOL0     H22552   7.017  12.642   4.549  0.0872  1.4337  0.7470
  908MOL0     H22553   7.153  12.545   4.513 -2.3840 -0.4597  1.1656
  908MOL0     H22554   7.239  12.766   4.376 -2.1099  0.7723 -1.7653
  908MOL0     H22555   7.224  12.775   4.547  2.2254  0.7982 -0.2692
  908MOL0     H22556   6.982  12.882   4.363 -1.6613  3.5187  1.8060
  908MOL0     H22557   7.006  12.885   4.534  0.0343 -2.2856 -0.4317
  908MOL0     H22558   7.219  13.030   4.366  1.6433  1.4903  2.9480
  908MOL0     H22559   7.142  13.048   4.522 -2.4841  0.6580 -0.0838
  908MOL0     H22560   7.070  13.221   4.392 -2.5950  1.4906 -0.9857
  908MOL0     H22561   6.939  13.111   4.451 -0.5161  0.0951  0.4630
  908MOL0     H22562   6.739  12.271   4.344  0.6460  2.3186 -3.2510
  908MOL0     H22563   6.574  12.147   4.251  0.6519  2.8431  3.6035
  908MOL0     H22564   6.459  11.763   3.982  0.8464  1.9039  1.1063
  908MOL0     H22565   6.259  11.634   3.904  1.3529 -0.7486  0.0523
  908MOL0     H22566   5.577  10.336   3.411  1.9429  1.9580  1.4368
  908MOL0     H22567   5.460  10.173   3.531  0.1736 -1.6979 -1.9178
  908MOL0     H22568   5.672   9.728   3.956 -1.3077  1.5639 -2.4929
  908MOL0     H22569   5.518   9.635   4.140 -3.8362  0.2111  1.8978
  908MOL0     H22570   5.128   9.633   4.290  1.7093  0.6141  1.3202
  908MOL0     H22571   5.137   9.770   4.158  3.0227 -0.3070 -0.8721
  908MOL0     H22572   5.077   9.473   4.140 -1.2695 -0.0143 -0.9267
  908MOL0     H22573   5.125   9.560   4.001  1.9600  4.0313  0.1243
  908MOL0     H22574   4.902   9.681   3.996  0.1399  0.8378 -0.3979
  908MOL0     H22575   4.886   9.652   4.166  1.0627  2.4738 -1.2106
  908MOL0     H22576   4.866   9.395   4.096  2.3594 -2.7996 -3.6538
  908MOL0     H22577   4.921   9.438   3.937 -2.2359 -2.2005 -0.4999
  908MOL0     H22578   4.506   9.555   3.986  0.7384  0.4241  3.5052
  908MOL0     H22579   5.187   9.812   3.941 -0.0612  2.6569  6.2722
  908MOL0     H22580   5.332   9.927   3.783 -0.3648  0.7420  0.6465
  909MOL0     O22581  10.615   9.188   9.039 -0.7064  0.0793  0.8092
  909MOL0     C22582  10.583   9.068   9.040  0.6791 -1.0711  0.0518
  909MOL0     O22583  10.454   9.023   9.017  0.1930 -0.1583 -0.3292
  909MOL0     C22584  10.362   9.130   9.004  0.0159  0.3499  0.0789
  909MOL0     C22585  10.290   9.137   8.882  0.5120 -0.1509 -0.2029
  909MOL0     C22586  10.192   9.231   8.862 -0.0493  0.5862 -0.3387
  909MOL0     C22587  10.155   9.313   8.966 -0.1787 -1.0088 -0.4247
  909MOL0     O22588  10.065   9.416   8.946  0.5927  0.2275 -0.4034
  909MOL0     C22589  10.135   9.545   8.921  0.2853  0.3357 -0.3846
  909MOL0     C22590  10.119   9.639   9.048 -0.5079  0.0575 -0.3550
  909MOL0     C22591  10.246   9.715   9.083 -0.1644  0.8048  0.3604
  909MOL0     C22592  10.357   9.619   9.137  0.3299  0.1368 -0.2605
  909MOL0     C22593  10.487   9.696   9.169 -0.1083  0.4844 -0.7980
  909MOL0     C22594  10.582   9.596   9.235  1.7081  0.1387 -0.3956
  909MOL0     C22595  10.723   9.647   9.237 -0.6187  0.0115 -1.1801
  909MOL0     C22596  10.805   9.521   9.273 -0.5817  0.3088  0.5295
  909MOL0     N22597  10.954   9.545   9.280 -0.0266 -0.4614 -0.6460
  909MOL0     C22598  11.018   9.599   9.387  0.3508 -0.2595  0.2540
  909MOL0     C22599  11.149   9.601   9.348  0.5220 -0.0703 -0.0167
  909MOL0     C22600  11.259   9.666   9.432 -0.1077  0.4993  0.0667
  909MOL0     C22601  11.362   9.557   9.464  0.0979 -0.2528  0.2131
  909MOL0     C22602  11.494   9.629   9.499  0.5646  0.4971  0.1113
  909MOL0     C22603  11.615   9.534   9.500  0.7121  0.5413  0.3828
  909MOL0     O22604  11.665   9.495   9.631 -0.0641 -0.0498  0.5492
  909MOL0     C22605  11.787   9.442   9.641 -0.7443  0.1926 -0.3292
  909MOL0     C22606  11.828   9.416   9.768 -0.5849 -0.3184 -0.9835
  909MOL0     C22607  11.956   9.366   9.801  0.1497  0.4506 -0.0548
  909MOL0     C22608  11.974   9.319   9.942 -0.3784 -0.1564 -0.4565
  909MOL0     C22609  12.047   9.349   9.691  0.8679 -0.0651 -0.7658
  909MOL0     C22610  12.185   9.308   9.700  0.2488  1.5941 -0.1179
  909MOL0     O22611  12.232   9.246   9.590 -0.7520 -0.7231 -0.9803
  909MOL0     C22612  12.362   9.207   9.588 -0.3591  0.3525  0.3061
  909MOL0     C22613  12.401   9.081   9.631 -0.6209 -0.1470 -0.3162
  909MOL0     C22614  12.529   9.045   9.630 -0.9180  0.3798  0.2383
  909MOL0     C22615  12.619   9.132   9.566  0.4465  0.6726 -0.1748
  909MOL0     O22616  12.755   9.123   9.559  0.6652  0.2185  0.1387
  909MOL0     C22617  12.818   9.025   9.645  0.4453 -0.5183 -0.8822
  909MOL0     C22618  12.971   9.048   9.626  1.3351  0.0655  0.5212
  909MOL0     C22619  13.019   9.049   9.475  0.4832  0.1911  0.1765
  909MOL0     C22620  13.157   9.119   9.475  0.7995  0.2678 -0.1231
  909MOL0     C22621  13.167   9.263   9.485 -0.5831 -0.2540 -0.6745
  909MOL0     C22622  13.077   9.344   9.397  0.8993  0.3171 -0.1867
  909MOL0     C22623  13.098   9.328   9.249 -1.2123 -0.3501  0.8227
  909MOL0     C22624  13.248   9.346   9.217 -0.8062  0.8221  0.1658
  909MOL0    Cl22625  13.271   9.310   9.046 -0.0207 -0.1716  0.5071
  909MOL0     C22626  12.585   9.260   9.530  0.2613  1.4146  0.4814
  909MOL0     C22627  12.452   9.299   9.541 -0.5955  0.2826 -0.0132
  909MOL0     O22628  12.247   9.310   9.811 -1.1196  0.0287 -0.6626
  909MOL0     C22629  11.994   9.375   9.564  0.0326  0.8411 -1.0322
  909MOL0     C22630  11.866   9.411   9.534 -0.0381  0.6224  0.1236
  909MOL0     N22631  11.156   9.549   9.224 -0.3713  0.1023  0.3842
  909MOL0     N22632  11.037   9.510   9.188  0.3409  0.4795 -0.1950
  909MOL0     C22633  10.224   9.306   9.090  0.2136 -0.4013  0.5298
  909MOL0     C22634  10.329   9.221   9.112 -0.3756  0.1888  0.7541
  909MOL0     C22635  10.683   8.963   9.063  0.8412 -0.4096  0.1208
  909MOL0     C22636  10.651   8.828   9.062 -0.3977 -0.4468 -0.6051
  909MOL0     C22637  10.744   8.726   9.049 -0.7807 -0.1980  0.0646
  909MOL0     C22638  10.880   8.755   9.050 -0.3136 -0.4868 -0.4529
  909MOL0     O22639  10.983   8.670   9.028  0.0083 -0.1859 -0.4175
  909MOL0     C22640  10.943   8.533   9.026  0.5133 -0.4202 -0.2265
  909MOL0     C22641  11.072   8.454   9.013  0.1778 -0.4823  0.3136
  909MOL0     C22642  11.048   8.319   8.962  0.1443  0.3668 -0.0563
  909MOL0     C22643  11.171   8.223   8.937 -0.2301 -0.6975  0.3269
  909MOL0     C22644  11.281   8.280   8.856  0.1959 -0.1248 -0.4044
  909MOL0     C22645  11.377   8.316   8.799  0.1336  0.1168 -0.0397
  909MOL0     C22646  10.909   8.900   9.073  0.5793  1.2122 -0.2810
  909MOL0     C22647  10.814   9.000   9.084  0.6310 -0.4331  0.4669
  909MOL0     H22648  10.303   9.076   8.793  1.6669  1.6336 -1.3258
  909MOL0     H22649  10.138   9.220   8.769 -0.2428  0.4689 -0.2141
  909MOL0     H22650  10.243   9.534   8.907  0.8765  2.6071  1.7582
  909MOL0     H22651  10.092   9.585   8.829  0.8066  0.4775 -0.5711
  909MOL0     H22652  10.033   9.707   9.047  0.9097  2.1412  2.6698
  909MOL0     H22653  10.096   9.575   9.134  2.8970 -0.9226 -0.0240
  909MOL0     H22654  10.293   9.752   8.991  0.4940 -1.0446 -0.0947
  909MOL0     H22655  10.223   9.804   9.141  0.5876  1.4928 -0.3642
  909MOL0     H22656  10.329   9.572   9.232 -0.2637  0.1084 -0.4471
  909MOL0     H22657  10.385   9.554   9.054  5.0473  1.3752  0.0967
  909MOL0     H22658  10.530   9.730   9.074  1.2532 -0.4473 -0.5327
  909MOL0     H22659  10.467   9.775   9.242  0.1233  2.5393 -2.8128
  909MOL0     H22660  10.548   9.563   9.334  1.3621  1.7697  0.0589
  909MOL0     H22661  10.581   9.505   9.174 -3.8217 -0.5755  0.2603
  909MOL0     H22662  10.752   9.679   9.136 -2.1145  2.5102 -0.9141
  909MOL0     H22663  10.755   9.718   9.313  0.5801 -1.3188 -0.3934
  909MOL0     H22664  10.789   9.442   9.198  0.4296 -1.3884  2.0320
  909MOL0     H22665  10.760   9.470   9.358 -4.4909 -2.4010 -2.7270
  909MOL0     H22666  10.964   9.640   9.472 -2.6133 -2.2418 -0.5507
  909MOL0     H22667  11.309   9.735   9.364 -0.6622 -0.5251 -1.4263
  909MOL0     H22668  11.215   9.711   9.522 -0.3024 -0.1912  0.3235
  909MOL0     H22669  11.366   9.483   9.384  0.0852  2.1349 -2.1314
  909MOL0     H22670  11.335   9.510   9.560  1.6267  2.3704  2.0726
  909MOL0     H22671  11.499   9.687   9.591  2.6393  1.8179 -0.7727
  909MOL0     H22672  11.518   9.685   9.408  1.1004 -3.0693 -2.1764
  909MOL0     H22673  11.686   9.608   9.461  2.4900 -0.4790  1.5637
  909MOL0     H22674  11.619   9.452   9.428 -1.0364 -0.3165  1.2027
  909MOL0     H22675  11.753   9.426   9.846  0.2948  2.5421 -0.3963
  909MOL0     H22676  11.921   9.225   9.959  0.6282 -1.3403 -3.3479
  909MOL0     H22677  12.077   9.305   9.976 -0.9124 -0.9096  0.9680
  909MOL0     H22678  11.937   9.403  10.001  2.7104 -0.6933  2.5668
  909MOL0     H22679  12.325   9.015   9.671 -1.8012 -1.7314 -4.6652
  909MOL0     H22680  12.565   8.946   9.657  0.0060  0.3498 -1.0372
  909MOL0     H22681  12.791   9.042   9.750 -0.5346 -1.1008 -1.0248
  909MOL0     H22682  12.797   8.919   9.629  2.9588 -1.6934  2.5798
  909MOL0     H22683  13.009   9.138   9.677 -0.2063  1.3149 -0.4342
  909MOL0     H22684  13.024   8.963   9.668 -1.2843 -2.8386 -1.5933
  909MOL0     H22685  12.953   9.092   9.399  2.1480  1.7158 -0.5061
  909MOL0     H22686  13.046   8.947   9.447  1.6313  0.5381 -0.0470
  909MOL0     H22687  13.225   9.084   9.554  0.7336  4.3794  2.0158
  909MOL0     H22688  13.202   9.101   9.377  2.8164 -1.8164  1.0628
  909MOL0     H22689  13.271   9.296   9.485 -0.4985 -0.1516  2.5475
  909MOL0     H22690  13.135   9.295   9.585 -0.6065 -2.9035  0.2448
  909MOL0     H22691  12.978   9.313   9.431 -0.0235  1.9716 -1.2500
  909MOL0     H22692  13.072   9.452   9.416 -3.8372  0.4654 -1.0654
  909MOL0     H22693  13.041   9.410   9.206 -2.2074 -1.1177  0.6619
  909MOL0     H22694  13.055   9.236   9.209 -2.1941  0.0965  0.8330
  909MOL0     H22695  13.304   9.265   9.264 -2.1455 -0.3049 -0.1425
  909MOL0     H22696  13.286   9.446   9.245  1.2136 -0.4002  2.1967
  909MOL0     H22697  12.652   9.333   9.487  0.2107  0.7926 -0.6870
  909MOL0     H22698  12.415   9.401   9.533  0.6679  0.8085  0.4898
  909MOL0     H22699  12.060   9.360   9.480  0.9860  1.9827 -0.5092
  909MOL0     H22700  11.843   9.416   9.428  3.0738 -0.3372 -0.7104
  909MOL0     H22701  10.192   9.374   9.169  2.6213  0.7122  0.6363
  909MOL0     H22702  10.375   9.195   9.207  0.7084 -0.9875 -0.0568
  909MOL0     H22703  10.545   8.807   9.065 -0.6492  0.7243  2.8624
  909MOL0     H22704  10.708   8.625   9.035 -1.4876  0.2270 -1.4115
  909MOL0     H22705  10.891   8.512   9.120 -0.8480 -1.2078 -1.1106
  909MOL0     H22706  10.875   8.517   8.941 -0.2597  1.5495 -0.0317
  909MOL0     H22707  11.120   8.460   9.111  1.8372  3.8420 -0.5254
  909MOL0     H22708  11.128   8.509   8.936  0.1564 -2.0128 -0.8542
  909MOL0     H22709  10.972   8.316   8.883 -0.2189 -1.2445  0.3307
  909MOL0     H22710  10.994   8.276   9.046 -1.5550  0.7552 -0.9138
  909MOL0     H22711  11.142   8.130   8.886 -0.3100 -0.2366 -0.4705
  909MOL0     H22712  11.205   8.191   9.036  1.2776  1.7707  0.6754
  909MOL0     H22713  11.461   8.366   8.755  0.3649 -1.0261 -0.9699
  909MOL0     H22714  11.014   8.926   9.081  0.7857  0.7731 -1.3599
  909MOL0     H22715  10.848   9.104   9.089 -1.2496  0.1679  4.8302
  910MOL0     O22716   8.198   2.053   7.520 -0.2130  0.0361  0.2944
  910MOL0     C22717   8.322   2.057   7.494  0.4928  0.2074  0.5867
  910MOL0     O22718   8.411   1.956   7.522  0.3392 -0.2340  0.1104
  910MOL0     C22719   8.355   1.843   7.568 -1.4908  0.2593  0.4668
  910MOL0     C22720   8.253   1.771   7.491 -0.5580 -0.1499 -0.5113
  910MOL0     C22721   8.213   1.648   7.520  0.4032  0.5363 -0.8639
  910MOL0     C22722   8.262   1.585   7.633 -0.4886  0.2433  0.2002
  910MOL0     O22723   8.210   1.463   7.664  0.0833  0.1120 -0.1548
  910MOL0     C22724   8.264   1.384   7.773 -0.6932 -0.9411  0.4723
  910MOL0     C22725   8.183   1.267   7.801  0.4946  0.2306 -0.3108
  910MOL0     C22726   8.033   1.306   7.808  0.5048 -0.4771 -0.6933
  910MOL0     C22727   7.939   1.180   7.799  0.0956 -0.0709  0.7715
  910MOL0     C22728   7.790   1.195   7.842  0.0225 -0.7080  0.1294
  910MOL0     C22729   7.706   1.306   7.787 -1.0781 -0.7521  0.8221
  910MOL0     C22730   7.554   1.276   7.792 -0.7494 -1.0512  0.5683
  910MOL0     C22731   7.464   1.389   7.735  0.0778 -0.9635  1.2271
  910MOL0     N22732   7.480   1.402   7.587 -1.1684 -0.2233  0.7571
  910MOL0     C22733   7.440   1.525   7.538 -0.0423  0.3115 -0.8995
  910MOL0     C22734   7.456   1.504   7.404  0.9478 -1.3470  0.3935
  910MOL0     C22735   7.426   1.608   7.300  0.3150  0.4610  0.1196
  910MOL0     C22736   7.544   1.698   7.291 -0.0670 -0.3928  0.2526
  910MOL0     C22737   7.511   1.803   7.185  0.1227 -0.9553  1.0864
  910MOL0     C22738   7.638   1.875   7.152 -0.1107 -0.3808  0.5498
  910MOL0     O22739   7.603   1.978   7.050  0.0563  0.6860 -0.7303
  910MOL0     C22740   7.696   2.035   6.972  0.9784 -0.3996 -0.5967
  910MOL0     C22741   7.695   2.172   6.942  0.9628  0.4000 -0.8972
  910MOL0     C22742   7.786   2.224   6.859 -0.5176 -1.1671 -0.8470
  910MOL0     C22743   7.783   2.375   6.864  0.0904 -0.0677 -1.0448
  910MOL0     C22744   7.876   2.143   6.783 -0.2654  0.1940 -0.1471
  910MOL0     C22745   7.973   2.189   6.679  0.4972  0.4591  0.0621
  910MOL0     O22746   7.965   2.317   6.652  0.3746 -0.2995  0.1971
  910MOL0     C22747   8.052   2.361   6.555  0.7353  0.0339 -0.1207
  910MOL0     C22748   8.034   2.328   6.426  0.8544 -0.3867  0.1598
  910MOL0     C22749   8.124   2.380   6.331 -0.8158 -1.1861  0.4367
  910MOL0     C22750   8.228   2.467   6.376  0.3832  0.2139  1.1308
  910MOL0     O22751   8.307   2.531   6.288 -0.3950 -0.2101  0.2766
  910MOL0     C22752   8.382   2.430   6.208  0.0242 -0.1684 -0.6145
  910MOL0     C22753   8.458   2.512   6.101  0.2793  0.0731  0.1931
  910MOL0     C22754   8.546   2.413   6.021  0.2085  0.8092 -0.3356
  910MOL0     C22755   8.656   2.496   5.948  1.2730  0.1692 -0.1831
  910MOL0     C22756   8.754   2.425   5.853 -0.1425 -0.0963 -0.0255
  910MOL0     C22757   8.861   2.340   5.929  0.4039 -0.1848  0.4986
  910MOL0     C22758   8.985   2.408   5.979  0.8080  0.1093 -1.4484
  910MOL0     C22759   9.085   2.451   5.871  0.0304 -0.5483 -0.0454
  910MOL0    Cl22760   9.214   2.536   5.962  0.4676  0.2338 -0.3280
  910MOL0     C22761   8.233   2.511   6.506  0.2529  0.3756 -0.1862
  910MOL0     C22762   8.139   2.460   6.601 -0.1090 -0.2482  0.4455
  910MOL0     O22763   8.041   2.105   6.618  0.3540  0.4264  0.2667
  910MOL0     C22764   7.869   2.009   6.807  0.7448  0.0867 -0.2205
  910MOL0     C22765   7.784   1.956   6.897 -0.2707  0.3816  0.1383
  910MOL0     N22766   7.495   1.377   7.377 -0.5309 -0.7922 -0.7455
  910MOL0     N22767   7.513   1.315   7.489 -0.2975  0.3711  0.3202
  910MOL0     C22768   8.360   1.650   7.716 -1.2406 -0.5709  0.0816
  910MOL0     C22769   8.412   1.774   7.678  0.3848 -0.5893 -0.4519
  910MOL0     C22770   8.368   2.187   7.444 -0.0327  0.4245  0.1321
  910MOL0     C22771   8.280   2.291   7.413  0.3173 -0.3524  0.6685
  910MOL0     C22772   8.321   2.415   7.388 -1.0089 -1.4482  0.3065
  910MOL0     C22773   8.458   2.441   7.383 -0.1152  0.0538 -0.5962
  910MOL0     O22774   8.517   2.558   7.348  0.6185 -0.1737 -0.2549
  910MOL0     C22775   8.450   2.662   7.278 -0.4621 -0.1735 -0.2691
  910MOL0     C22776   8.549   2.753   7.215  0.2654  0.1537 -0.3965
  910MOL0     C22777   8.464   2.863   7.151  0.1406 -0.0332  0.2571
  910MOL0     C22778   8.531   2.997   7.130  0.7323  0.7965  0.0580
  910MOL0     C22779   8.662   2.991   7.067 -0.7336 -0.3535  0.4401
  910MOL0     C22780   8.765   2.995   7.002 -0.9412  0.4300  0.7430
  910MOL0     C22781   8.557   2.341   7.410 -0.4888  0.9028  0.6162
  910MOL0     C22782   8.508   2.216   7.436  0.0352 -0.3752  0.4214
  910MOL0     H22783   8.201   1.818   7.408 -0.6373  0.0635 -0.3410
  910MOL0     H22784   8.124   1.599   7.481 -0.3880  0.6355  0.7351
  910MOL0     H22785   8.359   1.337   7.746  0.5567  1.9379 -0.4821
  910MOL0     H22786   8.271   1.443   7.864 -1.3360 -0.9882  0.5593
  910MOL0     H22787   8.198   1.214   7.706 -0.7589  0.5902 -0.7287
  910MOL0     H22788   8.218   1.218   7.892  1.1409  3.0317  1.0688
  910MOL0     H22789   8.005   1.352   7.903  0.6619 -1.2933 -0.2436
  910MOL0     H22790   7.992   1.365   7.725 -2.8548  0.4967  1.4778
  910MOL0     H22791   7.946   1.144   7.696 -0.4538  1.4641  0.1604
  910MOL0     H22792   7.983   1.110   7.871  1.1141 -0.6307 -0.3682
  910MOL0     H22793   7.745   1.101   7.811 -0.1679 -0.1913 -1.2197
  910MOL0     H22794   7.773   1.195   7.950 -0.4576 -1.1084  0.0540
  910MOL0     H22795   7.731   1.395   7.845 -4.8576  2.7813 -2.3509
  910MOL0     H22796   7.734   1.319   7.683 -0.6362 -1.1919  0.8819
  910MOL0     H22797   7.526   1.182   7.744 -0.3879 -1.9521  2.0843
  910MOL0     H22798   7.524   1.251   7.894 -0.7378 -2.3427  0.2669
  910MOL0     H22799   7.500   1.482   7.780  3.3788 -1.9459  0.9039
  910MOL0     H22800   7.358   1.370   7.754 -0.6241 -0.6975 -1.9223
  910MOL0     H22801   7.397   1.609   7.590 -4.4578 -1.5376 -1.1862
  910MOL0     H22802   7.428   1.549   7.209 -1.8969 -4.0898  2.6560
  910MOL0     H22803   7.336   1.670   7.309 -0.2434 -0.0365 -1.7642
  910MOL0     H22804   7.629   1.634   7.266  1.0116 -0.1384  2.8807
  910MOL0     H22805   7.564   1.749   7.386 -1.6407  0.4961  0.1342
  910MOL0     H22806   7.439   1.877   7.222  1.1445 -1.1677  3.6355
  910MOL0     H22807   7.472   1.763   7.091 -0.5505 -0.9134  1.3378
  910MOL0     H22808   7.715   1.814   7.104  1.2288  0.9522  0.9226
  910MOL0     H22809   7.680   1.927   7.239  0.8586 -2.5790  1.4815
  910MOL0     H22810   7.622   2.228   6.999  1.6610 -1.4734  2.0737
  910MOL0     H22811   7.786   2.409   6.760 -0.7208  2.2332 -0.3719
  910MOL0     H22812   7.697   2.424   6.910  1.0261  0.5251  0.1312
  910MOL0     H22813   7.866   2.410   6.926 -1.3549 -1.0592  1.6447
  910MOL0     H22814   7.952   2.263   6.397 -0.1559  1.4226 -1.3700
  910MOL0     H22815   8.098   2.361   6.227  2.9495  1.0932 -1.1079
  910MOL0     H22816   8.446   2.376   6.278  0.4522  2.3457  1.0698
  910MOL0     H22817   8.312   2.359   6.162 -1.4119 -0.4285  1.7529
  910MOL0     H22818   8.379   2.551   6.036 -0.1057  1.1598  1.2801
  910MOL0     H22819   8.513   2.595   6.145  3.5474 -0.9753 -1.5724
  910MOL0     H22820   8.485   2.365   5.943  2.1162 -0.2780 -1.2400
  910MOL0     H22821   8.599   2.339   6.081  0.2747  0.7605 -0.4529
  910MOL0     H22822   8.598   2.571   5.893 -2.3748  0.0709  3.0623
  910MOL0     H22823   8.712   2.552   6.023 -0.2519  4.4166 -1.9146
  910MOL0     H22824   8.806   2.493   5.785  0.6897 -2.3542 -1.7869
  910MOL0     H22825   8.704   2.354   5.787  4.9051 -1.5160 -2.8677
  910MOL0     H22826   8.808   2.296   6.015  1.5686  1.6634  2.2417
  910MOL0     H22827   8.910   2.261   5.871  2.1233  0.0123  1.6338
  910MOL0     H22828   9.038   2.341   6.047 -0.8276 -0.4181 -0.6375
  910MOL0     H22829   8.960   2.492   6.044  3.0590 -0.4279  0.2517
  910MOL0     H22830   9.026   2.500   5.793 -1.7655 -2.4548  0.0291
  910MOL0     H22831   9.130   2.362   5.827 -0.2094 -1.0710  0.7719
  910MOL0     H22832   8.305   2.585   6.538 -0.2061  1.2161 -1.0359
  910MOL0     H22833   8.152   2.487   6.705 -1.0442  2.1583  0.0161
  910MOL0     H22834   7.930   1.941   6.748 -0.4934 -1.5135  0.2801
  910MOL0     H22835   7.782   1.848   6.909  2.4328 -0.1831 -3.0350
  910MOL0     H22836   8.393   1.603   7.808  0.8023 -3.8180 -2.1120
  910MOL0     H22837   8.492   1.825   7.730  1.5644 -2.2545 -0.5737
  910MOL0     H22838   8.172   2.290   7.396  0.2584  1.1873  0.8266
  910MOL0     H22839   8.256   2.496   7.357  0.7397 -0.9396 -2.3756
  910MOL0     H22840   8.385   2.616   7.202  1.3836 -1.0317 -1.3925
  910MOL0     H22841   8.377   2.707   7.346 -2.3745 -0.1076 -2.2200
  910MOL0     H22842   8.614   2.707   7.140  1.6474 -0.8179  1.2866
  910MOL0     H22843   8.627   2.790   7.283  1.9879  1.7137 -3.0538
  910MOL0     H22844   8.383   2.889   7.220  0.2600  3.4576 -0.7246
  910MOL0     H22845   8.422   2.824   7.058  2.0460 -1.8854  0.1014
  910MOL0     H22846   8.535   3.043   7.229 -1.6774  1.3654 -0.0400
  910MOL0     H22847   8.462   3.064   7.077 -0.1441  0.0274  0.1877
  910MOL0     H22848   8.853   2.993   6.941 -1.3263  0.7727  0.1716
  910MOL0     H22849   8.663   2.360   7.399 -0.5479  0.5446 -0.8910
  910MOL0     H22850   8.573   2.132   7.458  1.2461 -0.5615 -3.2198
  911MOL0     O22851   8.899   3.364   0.190  0.5146  0.6230 -0.0668
  911MOL0     C22852   8.827   3.381   0.291 -0.2726 -0.1876  0.2868
  911MOL0     O22853   8.746   3.491   0.316 -0.2943  0.7621 -0.4912
  911MOL0     C22854   8.744   3.608   0.235  0.0711  0.0607  0.3722
  911MOL0     C22855   8.828   3.638   0.130 -0.2946 -0.4071  0.2120
  911MOL0     C22856   8.834   3.759   0.067  0.4356 -0.3507  0.1182
  911MOL0     C22857   8.741   3.856   0.103  0.0373  0.0355 -0.3679
  911MOL0     O22858   8.730   3.980   0.043  0.4410 -0.5243 -0.5736
  911MOL0     C22859   8.831   4.036  -0.037 -0.3780  0.2155 -0.2922
  911MOL0     C22860   8.802   4.029  -0.188  0.1483  0.3422  0.4445
  911MOL0     C22861   8.926   4.088  -0.256 -0.5089 -0.1919  0.8013
  911MOL0     C22862   8.963   4.014  -0.380  0.1185 -0.4666  0.0612
  911MOL0     C22863   9.094   3.922  -0.367 -0.0283 -0.8366 -0.3719
  911MOL0     C22864   9.224   4.007  -0.335  0.4662  0.7649  0.1717
  911MOL0     C22865   9.332   3.952  -0.419  0.5154 -0.1650 -0.6713
  911MOL0     C22866   9.466   4.025  -0.386  0.4292  0.9045 -0.7868
  911MOL0     N22867   9.582   3.954  -0.449  0.1306  0.3300  0.1864
  911MOL0     C22868   9.704   4.012  -0.457  0.6528 -0.0856  0.3868
  911MOL0     C22869   9.788   3.907  -0.479 -0.5836  0.0612  1.0483
  911MOL0     C22870   9.939   3.920  -0.497 -1.1065 -0.2559 -0.3808
  911MOL0     C22871   9.968   4.002  -0.629 -0.3206 -0.7984 -1.4645
  911MOL0     C22872  10.116   3.998  -0.662 -0.1345  0.1432 -0.3453
  911MOL0     C22873  10.136   4.088  -0.783 -0.9910  0.0501 -0.1032
  911MOL0     O22874  10.126   4.221  -0.735  0.2042 -0.2431 -0.4726
  911MOL0     C22875  10.091   4.319  -0.825 -0.3528  0.1611  0.8190
  911MOL0     C22876  10.005   4.420  -0.783 -0.0793  0.3614  0.8096
  911MOL0     C22877   9.969   4.526  -0.867  0.5764  0.5625  0.1997
  911MOL0     C22878   9.878   4.631  -0.817  0.2744  0.3150  1.8606
  911MOL0     C22879  10.029   4.530  -1.005 -0.1198  0.0327  0.1660
  911MOL0     C22880  10.022   4.643  -1.110  0.0815 -0.0522 -0.5731
  911MOL0     O22881   9.957   4.748  -1.079  0.4263  0.7447 -0.2787
  911MOL0     C22882   9.945   4.863  -1.160 -0.1402  0.2181  0.0788
  911MOL0     C22883   9.965   4.983  -1.099 -0.2427 -1.1132 -0.4183
  911MOL0     C22884   9.953   5.108  -1.169 -0.7531  0.0341  0.5700
  911MOL0     C22885   9.941   5.102  -1.310  0.4054 -0.1327 -1.0553
  911MOL0     O22886   9.924   5.230  -1.373  0.5527  0.8793 -0.8632
  911MOL0     C22887   9.927   5.227  -1.512 -0.7565  0.5925  0.0074
  911MOL0     C22888   9.907   5.370  -1.555 -0.5480 -0.5274 -0.3312
  911MOL0     C22889  10.034   5.455  -1.554  1.5574  0.1668  0.5264
  911MOL0     C22890  10.009   5.587  -1.623  0.5179 -1.1012  0.1277
  911MOL0     C22891  10.143   5.673  -1.630  0.5066  0.1895  0.3933
  911MOL0     C22892  10.174   5.735  -1.493 -0.2464  0.6658 -0.0242
  911MOL0     C22893  10.316   5.799  -1.512 -0.0811 -0.3582  1.1891
  911MOL0     C22894  10.354   5.885  -1.389  0.1869 -0.0094  0.4860
  911MOL0    Cl22895  10.504   5.981  -1.414  0.3627 -0.1430  0.8120
  911MOL0     C22896   9.919   4.978  -1.372  0.0223  0.4227  0.2914
  911MOL0     C22897   9.912   4.857  -1.296 -0.5247 -0.0310 -0.2883
  911MOL0     O22898  10.076   4.626  -1.221 -0.0647  0.2085  1.0890
  911MOL0     C22899  10.094   4.414  -1.037 -0.7137  0.5737  0.7085
  911MOL0     C22900  10.143   4.326  -0.952  0.0057  0.3148  0.0885
  911MOL0     N22901   9.717   3.783  -0.479  0.5643 -0.4753 -0.5509
  911MOL0     N22902   9.595   3.816  -0.453  1.1743 -0.7344 -0.3034
  911MOL0     C22903   8.651   3.821   0.204  0.3633 -1.1371 -0.5067
  911MOL0     C22904   8.657   3.703   0.276  0.2382  0.3526 -0.4394
  911MOL0     C22905   8.823   3.274   0.391  0.1309 -0.1513 -0.2984
  911MOL0     C22906   8.812   3.308   0.533  0.0668 -0.7159  1.1111
  911MOL0     C22907   8.830   3.201   0.627  0.3680  0.2714  0.1782
  911MOL0     C22908   8.841   3.071   0.591  0.2754  0.0671  0.7822
  911MOL0     O22909   8.850   2.967   0.685  1.0825  0.5069  0.0882
  911MOL0     C22910   8.843   2.991   0.824 -0.6918  0.8119  0.4115
  911MOL0     C22911   8.984   3.012   0.887  0.0675  0.0433  0.5815
  911MOL0     C22912   9.106   2.931   0.830  0.2657  0.9152 -0.4979
  911MOL0     C22913   9.156   2.806   0.914  0.3969 -0.2488 -0.0954
  911MOL0     C22914   9.038   2.711   0.927 -1.1219 -1.5095  0.8062
  911MOL0     C22915   8.933   2.648   0.930  0.5610  0.5505  0.6002
  911MOL0     C22916   8.829   3.036   0.460  0.0855 -0.2115 -0.0372
  911MOL0     C22917   8.826   3.140   0.363  0.0839  0.4257  0.3349
  911MOL0     H22918   8.907   3.569   0.101  0.0387  0.2160 -0.3735
  911MOL0     H22919   8.896   3.790  -0.016  0.7838  1.0031  0.8440
  911MOL0     H22920   8.829   4.145  -0.022 -2.5965  0.0207  1.3945
  911MOL0     H22921   8.929   4.000  -0.006 -0.6917  0.0754  0.5532
  911MOL0     H22922   8.778   3.926  -0.215  1.2872 -0.4672  2.3628
  911MOL0     H22923   8.714   4.089  -0.214 -1.8543 -3.2149 -1.9542
  911MOL0     H22924   8.895   4.185  -0.295  0.5825 -0.2639 -0.3180
  911MOL0     H22925   9.016   4.097  -0.195 -0.9728  1.6072  1.2804
  911MOL0     H22926   8.877   3.951  -0.407  0.6277 -1.3613  0.4618
  911MOL0     H22927   8.978   4.092  -0.455 -2.5805 -0.2044 -0.3034
  911MOL0     H22928   9.087   3.851  -0.284 -1.1059 -0.6900 -0.3285
  911MOL0     H22929   9.106   3.866  -0.460 -1.6388 -0.7298 -0.6700
  911MOL0     H22930   9.215   4.116  -0.346 -0.5225  0.7136  0.3971
  911MOL0     H22931   9.246   4.010  -0.228 -2.3869  1.5277  0.8269
  911MOL0     H22932   9.340   3.843  -0.413 -1.2474 -0.4912 -2.9183
  911MOL0     H22933   9.297   3.963  -0.522 -0.2658 -3.3651 -0.8414
  911MOL0     H22934   9.489   4.015  -0.279  0.6346 -4.0570 -1.0992
  911MOL0     H22935   9.465   4.134  -0.398 -0.9226  1.2687  1.9391
  911MOL0     H22936   9.726   4.118  -0.451 -0.0797  0.5164 -3.9957
  911MOL0     H22937   9.984   3.982  -0.419  0.3157  0.8599 -2.0162
  911MOL0     H22938   9.986   3.821  -0.503 -1.8507 -0.6169 -0.3929
  911MOL0     H22939   9.926   4.099  -0.600 -0.5485 -1.3081  0.0007
  911MOL0     H22940   9.911   3.942  -0.700  0.3449 -2.5897 -0.5360
  911MOL0     H22941  10.153   3.897  -0.684 -1.3043  0.1773 -2.8040
  911MOL0     H22942  10.177   4.032  -0.577 -1.2631  0.1981  0.4591
  911MOL0     H22943  10.058   4.063  -0.855 -2.5917  1.5628  1.0378
  911MOL0     H22944  10.236   4.079  -0.827 -1.6016  1.9477 -2.0451
  911MOL0     H22945   9.985   4.426  -0.676  4.5282 -1.3146  1.9682
  911MOL0     H22946   9.853   4.603  -0.715 -0.2511 -3.3403  0.8591
  911MOL0     H22947   9.933   4.726  -0.809  1.5871 -0.5186  3.2731
  911MOL0     H22948   9.799   4.634  -0.893 -0.0199 -0.6832  2.1216
  911MOL0     H22949   9.981   4.986  -0.992  1.4213  1.1936 -0.6567
  911MOL0     H22950   9.973   5.201  -1.116  0.9983  0.6458 -1.0457
  911MOL0     H22951  10.017   5.185  -1.559 -1.0460 -0.5843  0.4606
  911MOL0     H22952   9.845   5.163  -1.547 -1.0507  0.6154  0.6477
  911MOL0     H22953   9.873   5.369  -1.659  2.5043 -1.3309 -1.4411
  911MOL0     H22954   9.836   5.410  -1.482  0.5180  1.0775 -0.0967
  911MOL0     H22955  10.116   5.403  -1.604  1.5338  1.5121 -0.9813
  911MOL0     H22956  10.066   5.459  -1.449  1.2588 -3.4774  0.8858
  911MOL0     H22957   9.964   5.583  -1.722 -2.6783  3.0012  1.0903
  911MOL0     H22958   9.930   5.638  -1.566 -1.0646  0.4878 -3.1938
  911MOL0     H22959  10.124   5.764  -1.688 -0.0245  0.4891  1.0132
  911MOL0     H22960  10.217   5.605  -1.672 -1.5721 -1.1722 -1.2496
  911MOL0     H22961  10.102   5.810  -1.459  0.1006  0.4422  1.2554
  911MOL0     H22962  10.192   5.658  -1.418 -0.6882  1.3944  0.8541
  911MOL0     H22963  10.308   5.859  -1.604 -1.1084  3.0149  3.2747
  911MOL0     H22964  10.393   5.725  -1.531 -1.0093 -0.7005 -2.0008
  911MOL0     H22965  10.368   5.807  -1.314  0.8863  0.1321  0.5033
  911MOL0     H22966  10.265   5.945  -1.368 -1.4153 -1.9143 -0.4851
  911MOL0     H22967   9.910   4.979  -1.480 -1.8185 -2.1057  0.3440
  911MOL0     H22968   9.902   4.764  -1.352 -0.4058  1.1910 -2.4746
  911MOL0     H22969  10.097   4.395  -1.144  1.5401  3.0011  0.2424
  911MOL0     H22970  10.211   4.250  -0.989  0.6433  0.8684  0.1151
  911MOL0     H22971   8.591   3.911   0.199  3.4831  1.0654 -4.3293
  911MOL0     H22972   8.581   3.687   0.352 -1.9849  4.0151 -1.6122
  911MOL0     H22973   8.798   3.413   0.557 -2.3454 -0.1005 -2.2025
  911MOL0     H22974   8.829   3.226   0.733 -0.4445  0.8561  0.0429
  911MOL0     H22975   8.780   3.074   0.855  0.7698  1.1400  2.7376
  911MOL0     H22976   8.799   2.899   0.864 -0.2806  0.9474  1.1807
  911MOL0     H22977   8.978   2.990   0.994  1.3354 -2.0252  0.2769
  911MOL0     H22978   9.004   3.119   0.879 -4.2264  1.0177  0.4988
  911MOL0     H22979   9.182   3.009   0.837  0.7155  0.4013  0.4949
  911MOL0     H22980   9.094   2.898   0.726  0.4227 -0.0453 -0.2197
  911MOL0     H22981   9.193   2.843   1.010  3.7744  0.4897 -1.5125
  911MOL0     H22982   9.241   2.771   0.854  0.9264  4.0609 -2.2427
  911MOL0     H22983   8.839   2.597   0.925  1.5836 -1.5080  1.2985
  911MOL0     H22984   8.820   2.930   0.442 -2.2692  0.3192 -2.6873
  911MOL0     H22985   8.831   3.113   0.257  0.3002  2.5878 -0.2545
  912MOL0     O22986   5.279   6.540   4.325 -0.4132 -0.0627 -0.3491
  912MOL0     C22987   5.261   6.664   4.308  0.1162  0.1891  0.8215
  912MOL0     O22988   5.197   6.750   4.397  0.2277 -0.3969  0.9228
  912MOL0     C22989   5.181   6.710   4.532 -1.1305  1.2176  0.6122
  912MOL0     C22990   5.203   6.812   4.623  0.2893  0.6860  0.1530
  912MOL0     C22991   5.203   6.777   4.757  0.1578  0.5769  0.2771
  912MOL0     C22992   5.186   6.647   4.801 -0.1496 -0.7873  0.1888
  912MOL0     O22993   5.206   6.597   4.921 -0.9272 -0.8873  0.3248
  912MOL0     C22994   5.116   6.650   5.016 -0.4813  0.8712 -1.1318
  912MOL0     C22995   5.163   6.776   5.094  0.3362  1.6525 -0.4592
  912MOL0     C22996   5.273   6.739   5.199  0.3518 -0.0044  0.7323
  912MOL0     C22997   5.361   6.850   5.248  1.1484  0.4095  0.3177
  912MOL0     C22998   5.327   6.892   5.387  0.3108  0.3886 -0.9960
  912MOL0     C22999   5.373   6.787   5.494  0.4185 -0.3804  0.2212
  912MOL0     C23000   5.310   6.816   5.628 -0.3869  0.4114  1.0537
  912MOL0     C23001   5.370   6.950   5.686 -0.3908 -0.0852  0.0567
  912MOL0     N23002   5.321   6.970   5.830  0.8712  0.1469  1.8671
  912MOL0     C23003   5.354   6.893   5.938 -0.1012  0.5684  0.0895
  912MOL0     C23004   5.290   6.949   6.044 -0.1227 -0.4476 -0.3039
  912MOL0     C23005   5.292   6.891   6.179  0.1859  0.1430 -0.9004
  912MOL0     C23006   5.161   6.921   6.253  0.0923  0.0023 -0.4399
  912MOL0     C23007   5.157   7.068   6.315  0.1057 -0.5983 -0.2353
  912MOL0     C23008   5.248   7.094   6.436 -0.2622 -0.3062 -1.5532
  912MOL0     O23009   5.252   6.986   6.537  0.2750 -1.2585  0.9860
  912MOL0     C23010   5.161   6.988   6.644 -0.0562 -0.6202  0.5493
  912MOL0     C23011   5.168   6.890   6.745  0.4372 -0.5552  0.4261
  912MOL0     C23012   5.096   6.891   6.860 -0.4301 -0.6534  0.0538
  912MOL0     C23013   5.116   6.777   6.964  0.2629  0.6894  0.3961
  912MOL0     C23014   5.001   6.997   6.877  0.2827 -0.1097  0.2755
  912MOL0     C23015   4.921   7.032   7.003 -0.1409  0.2510 -0.6124
  912MOL0     O23016   4.895   7.160   7.035  0.3934 -0.2598 -0.3318
  912MOL0     C23017   4.867   7.186   7.158  0.8450 -1.3836 -0.4024
  912MOL0     C23018   4.963   7.182   7.256 -0.0231  0.8822 -1.8440
  912MOL0     C23019   4.934   7.200   7.390 -0.3231  0.5009 -0.9199
  912MOL0     C23020   4.806   7.235   7.429 -0.5503 -0.3826 -0.0380
  912MOL0     O23021   4.784   7.284   7.554 -0.8901 -0.5923  0.1837
  912MOL0     C23022   4.669   7.237   7.629  1.1047 -0.2889  0.1340
  912MOL0     C23023   4.686   7.246   7.776 -0.7471 -0.3587  0.2363
  912MOL0     C23024   4.787   7.153   7.834  0.1243 -0.6786  0.6472
  912MOL0     C23025   4.756   6.999   7.815  0.3329  0.3677  0.0112
  912MOL0     C23026   4.857   6.901   7.877  0.0401 -0.4910  0.4683
  912MOL0     C23027   4.821   6.755   7.869  0.2038 -0.0709 -0.3468
  912MOL0     C23028   4.924   6.669   7.949 -0.0230 -0.4970  0.4021
  912MOL0     C23029   4.897   6.519   7.954  0.4332  1.0662  1.6990
  912MOL0    Cl23030   5.027   6.458   8.056  0.0271 -0.3921  0.1055
  912MOL0     C23031   4.704   7.250   7.328  0.7684 -0.2258 -0.7965
  912MOL0     C23032   4.735   7.231   7.195  0.6693  0.4931  0.6278
  912MOL0     O23033   4.886   6.936   7.071  0.4937  0.9560  0.2732
  912MOL0     C23034   4.982   7.081   6.769  1.2146 -1.3246  0.6214
  912MOL0     C23035   5.058   7.087   6.653 -0.5916  0.0685  0.6370
  912MOL0     N23036   5.215   7.053   5.994 -0.0720 -0.1500  0.3661
  912MOL0     N23037   5.226   7.056   5.867  0.5428 -0.8793  0.3033
  912MOL0     C23038   5.151   6.548   4.715 -0.9768 -0.6726 -0.8928
  912MOL0     C23039   5.148   6.575   4.576  0.4646 -0.6353 -1.1406
  912MOL0     C23040   5.320   6.722   4.188  0.3138  0.7319  0.8100
  912MOL0     C23041   5.379   6.636   4.087 -0.8960 -0.3167 -0.8876
  912MOL0     C23042   5.433   6.694   3.974  0.5567  1.0501 -0.4539
  912MOL0     C23043   5.422   6.826   3.940 -0.4500  0.5162  0.4129
  912MOL0     O23044   5.460   6.877   3.820 -0.2225 -0.8001 -0.1130
  912MOL0     C23045   5.562   6.828   3.733  0.9432  0.3585  0.0632
  912MOL0     C23046   5.622   6.929   3.634 -1.5861  0.2912  0.7109
  912MOL0     C23047   5.721   6.858   3.532 -0.6727 -0.0273 -0.3286
  912MOL0     C23048   5.861   6.819   3.598 -1.2217  0.5416  0.9616
  912MOL0     C23049   5.984   6.834   3.509  1.0439 -0.5602 -1.0140
  912MOL0     C23050   6.081   6.862   3.441  0.8811 -0.1874 -0.2643
  912MOL0     C23051   5.360   6.905   4.033 -0.2643  0.7986 -0.2139
  912MOL0     C23052   5.320   6.857   4.161 -0.0817  0.2321 -0.4250
  912MOL0     H23053   5.218   6.908   4.575 -2.8812 -0.2555 -3.1873
  912MOL0     H23054   5.227   6.856   4.827  0.4736  1.8736 -1.2225
  912MOL0     H23055   5.025   6.677   4.961 -0.4607  2.1093 -0.5736
  912MOL0     H23056   5.098   6.569   5.087  0.3378  0.0480 -1.8351
  912MOL0     H23057   5.221   6.839   5.026  3.9267 -1.4683 -0.6203
  912MOL0     H23058   5.079   6.836   5.130 -2.0815 -1.9859  0.4760
  912MOL0     H23059   5.225   6.703   5.291  0.6336 -0.1966  0.8038
  912MOL0     H23060   5.335   6.655   5.166 -1.2979 -1.1639  0.4285
  912MOL0     H23061   5.459   6.802   5.250 -0.8082 -4.0846  2.2874
  912MOL0     H23062   5.362   6.936   5.181 -1.5722 -0.8407 -1.5084
  912MOL0     H23063   5.368   6.989   5.417 -2.7012  0.7485  2.5636
  912MOL0     H23064   5.219   6.904   5.396 -0.3174 -4.3200  0.2275
  912MOL0     H23065   5.359   6.682   5.468  3.4698 -1.0258  0.7785
  912MOL0     H23066   5.481   6.806   5.504  0.8086 -0.5528 -2.8114
  912MOL0     H23067   5.204   6.829   5.605 -0.6401  3.3501  3.3010
  912MOL0     H23068   5.313   6.723   5.684 -2.8886 -2.0005 -2.3622
  912MOL0     H23069   5.333   7.034   5.627 -1.8809  0.2196  1.3458
  912MOL0     H23070   5.479   6.953   5.688 -0.3518 -1.0060  2.2144
  912MOL0     H23071   5.416   6.804   5.942 -1.0941 -0.1265  0.3642
  912MOL0     H23072   5.300   6.782   6.167  2.3623  0.3670 -1.9215
  912MOL0     H23073   5.386   6.916   6.227 -0.4287 -0.1956  0.5482
  912MOL0     H23074   5.141   6.845   6.329 -0.1122 -0.1164 -0.6124
  912MOL0     H23075   5.083   6.898   6.180  1.9661 -4.3484 -1.4190
  912MOL0     H23076   5.059   7.099   6.354  2.1118  0.6924  4.4111
  912MOL0     H23077   5.184   7.135   6.233  2.9763  1.2708  2.0785
  912MOL0     H23078   5.222   7.194   6.471  1.8056 -0.2063 -0.1496
  912MOL0     H23079   5.354   7.102   6.410  1.6567  0.5383  4.7201
  912MOL0     H23080   5.245   6.815   6.734  1.5399  0.5356  0.4112
  912MOL0     H23081   5.022   6.722   6.968 -0.1020  1.3757  3.3800
  912MOL0     H23082   5.198   6.712   6.934 -1.5061 -1.4180 -0.1009
  912MOL0     H23083   5.127   6.822   7.063 -2.5061 -0.1962  1.2117
  912MOL0     H23084   5.067   7.166   7.229 -0.2691 -1.2370 -1.7406
  912MOL0     H23085   5.018   7.192   7.458 -0.1047  0.3422 -1.2058
  912MOL0     H23086   4.575   7.286   7.602  0.1824 -1.0432  1.8160
  912MOL0     H23087   4.642   7.134   7.604 -3.5240  0.5925  0.5776
  912MOL0     H23088   4.718   7.348   7.797  0.7791 -0.3301 -1.9309
  912MOL0     H23089   4.594   7.249   7.836 -0.2596 -3.5274  1.3303
  912MOL0     H23090   4.780   7.181   7.939 -2.0390  0.6427  0.2027
  912MOL0     H23091   4.887   7.174   7.794 -0.0808 -4.0547 -2.0458
  912MOL0     H23092   4.659   6.970   7.856  1.4432 -2.1769  1.0925
  912MOL0     H23093   4.738   6.967   7.712 -3.1955 -2.1228  1.2084
  912MOL0     H23094   4.865   6.924   7.984 -1.7999 -1.1917  0.7969
  912MOL0     H23095   4.947   6.914   7.816 -0.2587 -0.4946  0.0267
  912MOL0     H23096   4.724   6.741   7.919  0.4337  0.3881  0.2335
  912MOL0     H23097   4.814   6.725   7.764  0.7955 -3.3371  0.4369
  912MOL0     H23098   4.930   6.705   8.052 -0.5425 -0.5907  0.4682
  912MOL0     H23099   5.020   6.679   7.897  0.6576 -0.4346  1.6116
  912MOL0     H23100   4.909   6.457   7.865 -1.6323 -0.4784  2.4133
  912MOL0     H23101   4.793   6.495   7.978  1.1344 -0.3683  3.5175
  912MOL0     H23102   4.606   7.281   7.364  2.3762  2.6039  1.5748
  912MOL0     H23103   4.674   7.262   7.111  1.9447 -1.3464 -1.0667
  912MOL0     H23104   4.899   7.151   6.767 -0.8283 -3.5877 -2.2035
  912MOL0     H23105   5.047   7.167   6.581 -2.0363 -2.1046 -1.7351
  912MOL0     H23106   5.111   6.454   4.753 -2.1692  0.3479  0.4994
  912MOL0     H23107   5.111   6.512   4.495 -1.8148  1.8208 -2.1661
  912MOL0     H23108   5.393   6.529   4.099 -1.6449 -0.2790  0.5075
  912MOL0     H23109   5.486   6.629   3.905 -0.5724  0.0023 -0.3798
  912MOL0     H23110   5.646   6.777   3.780 -0.3152 -0.3568  1.6560
  912MOL0     H23111   5.510   6.742   3.687 -3.3432  1.6263  2.0327
  912MOL0     H23112   5.670   7.008   3.693 -2.1064  1.4866 -0.4314
  912MOL0     H23113   5.540   6.970   3.574 -1.9059 -2.3700 -0.8503
  912MOL0     H23114   5.740   6.916   3.441  1.0553 -1.5726 -1.0163
  912MOL0     H23115   5.678   6.763   3.497  0.2585 -0.6103  0.0877
  912MOL0     H23116   5.842   6.713   3.618  0.0866 -0.3662 -1.9677
  912MOL0     H23117   5.881   6.870   3.692  0.5226  2.6853 -0.4672
  912MOL0     H23118   6.170   6.899   3.395  0.4237  2.0620  0.5273
  912MOL0     H23119   5.347   7.010   4.011 -0.1277  0.4418 -2.1495
  912MOL0     H23120   5.286   6.928   4.236  4.5525  2.5848 -0.2298
  913MOL0     O23121   6.001  10.013  11.200  0.1441 -0.6459 -0.1092
  913MOL0     C23122   6.105   9.982  11.259  0.5905 -0.2433 -0.1286
  913MOL0     O23123   6.178   9.872  11.245  0.3402 -1.1791  0.1685
  913MOL0     C23124   6.134   9.766  11.171 -0.1186 -0.9904 -0.5372
  913MOL0     C23125   6.033   9.759  11.071  0.4551 -0.0072 -0.2086
  913MOL0     C23126   6.006   9.642  10.992  0.2377 -0.6495  0.4937
  913MOL0     C23127   6.082   9.527  11.020  0.8278 -0.3256  0.0016
  913MOL0     O23128   6.059   9.411  10.944 -0.2410  0.3997 -0.1896
  913MOL0     C23129   6.121   9.288  10.976 -0.1149  0.9707 -0.7313
  913MOL0     C23130   6.070   9.173  10.879  0.2865  0.4725  1.1376
  913MOL0     C23131   5.916   9.184  10.838  0.1390  0.9167 -0.5541
  913MOL0     C23132   5.826   9.153  10.958  0.2628 -0.6175  0.2954
  913MOL0     C23133   5.693   9.197  10.922 -0.2287 -0.4179 -1.1914
  913MOL0     C23134   5.587   9.189  11.024  0.2285 -0.0241 -0.4238
  913MOL0     C23135   5.439   9.188  10.976 -0.6536 -0.3472  0.2976
  913MOL0     C23136   5.355   9.240  11.089 -0.2590 -0.0764  0.0385
  913MOL0     N23137   5.329   9.134  11.190 -0.1407  0.2259  0.1292
  913MOL0     C23138   5.262   9.020  11.180  0.5994 -0.1321 -0.2955
  913MOL0     C23139   5.268   8.957  11.300  0.8214  0.3720  0.1424
  913MOL0     C23140   5.202   8.827  11.346  0.7838  0.2570  0.0004
  913MOL0     C23141   5.057   8.857  11.406  0.3331 -0.9740  0.2174
  913MOL0     C23142   5.066   8.892  11.555  0.9684 -0.3869  0.4635
  913MOL0     C23143   4.926   8.915  11.623  0.1539  0.0821  0.6609
  913MOL0     O23144   4.854   9.026  11.563  0.1526 -0.1962  0.9783
  913MOL0     C23145   4.733   9.046  11.629 -0.5827  0.4088 -0.2416
  913MOL0     C23146   4.690   9.175  11.604 -0.1491 -0.1107 -0.5888
  913MOL0     C23147   4.564   9.223  11.640 -0.1446 -0.1992 -0.5590
  913MOL0     C23148   4.532   9.363  11.607 -0.9079  0.7511 -0.2950
  913MOL0     C23149   4.477   9.131  11.703  0.4917  0.3441  0.2766
  913MOL0     C23150   4.336   9.172  11.748 -0.6091 -0.2940  0.8642
  913MOL0     O23151   4.318   9.295  11.795 -0.8221  0.1508 -0.1283
  913MOL0     C23152   4.194   9.341  11.817  1.0875 -0.4457 -0.0237
  913MOL0     C23153   4.105   9.372  11.708  0.2563 -0.2640  0.1375
  913MOL0     C23154   3.980   9.422  11.730 -0.4252 -0.3882  0.0106
  913MOL0     C23155   3.937   9.451  11.860 -0.3176  0.4510  0.3345
  913MOL0     O23156   3.814   9.505  11.863  0.3029  0.8915 -0.0310
  913MOL0     C23157   3.788   9.624  11.937  0.0277 -0.1659  0.4304
  913MOL0     C23158   3.639   9.667  11.912  0.0663 -0.0093 -0.2318
  913MOL0     C23159   3.617   9.804  11.981 -0.6770  0.1855  0.2131
  913MOL0     C23160   3.460   9.836  11.964 -0.3516  0.2335 -1.0535
  913MOL0     C23161   3.407   9.982  11.985  0.5367 -0.1909  0.5353
  913MOL0     C23162   3.256  10.003  11.981  0.0870 -0.3910 -0.2345
  913MOL0     C23163   3.202  10.129  12.056  0.3729 -0.0671  0.0494
  913MOL0     C23164   3.250  10.255  11.996 -0.2516 -0.5386 -0.0748
  913MOL0    Cl23165   3.145  10.393  12.054 -0.1407 -0.5772 -0.8221
  913MOL0     C23166   4.016   9.424  11.967  0.3375  0.1907 -0.9979
  913MOL0     C23167   4.138   9.359  11.951  0.1017  0.5061  0.6415
  913MOL0     O23168   4.247   9.088  11.747 -0.5463 -0.3172  0.7751
  913MOL0     C23169   4.504   8.990  11.717 -0.6678 -0.0494 -0.3867
  913MOL0     C23170   4.642   8.947  11.686  0.1881 -0.5787 -0.8192
  913MOL0     N23171   5.338   9.046  11.386 -0.1341 -0.0440  0.5498
  913MOL0     N23172   5.387   9.142  11.314  0.2185 -0.7586  0.0253
  913MOL0     C23173   6.193   9.540  11.113  0.6931 -0.4450  0.2357
  913MOL0     C23174   6.218   9.659  11.186 -0.1269  0.2221  0.4004
  913MOL0     C23175   6.169  10.083  11.348 -0.4557  0.4946  0.8621
  913MOL0     C23176   6.126  10.217  11.351  0.5445 -0.7329  0.1251
  913MOL0     C23177   6.219  10.312  11.396  0.0539  1.0161 -0.5659
  913MOL0     C23178   6.333  10.272  11.467  0.0610  0.6991  0.2581
  913MOL0     O23179   6.416  10.378  11.508 -1.2512  0.4812  0.4377
  913MOL0     C23180   6.560  10.358  11.473 -0.3701  0.2134 -0.6378
  913MOL0     C23181   6.653  10.415  11.577 -0.8813  0.0502  0.2678
  913MOL0     C23182   6.804  10.402  11.531  0.7283 -0.6168 -0.1899
  913MOL0     C23183   6.890  10.365  11.655 -0.5587  0.0291 -0.2977
  913MOL0     C23184   7.029  10.388  11.622  1.2573 -1.5167  0.2733
  913MOL0     C23185   7.144  10.423  11.582 -0.5942  0.0650  0.3683
  913MOL0     C23186   6.359  10.133  11.490 -0.0761 -0.4041  0.6421
  913MOL0     C23187   6.282  10.038  11.430 -0.3427  0.2240  0.2020
  913MOL0     H23188   5.973   9.844  11.041  0.0160 -0.4788 -0.6895
  913MOL0     H23189   5.923   9.633  10.922  1.6838  1.4934 -1.6419
  913MOL0     H23190   6.226   9.294  10.946  0.0000 -2.9872 -1.7005
  913MOL0     H23191   6.114   9.260  11.082 -2.3075  0.5484 -0.9374
  913MOL0     H23192   6.127   9.184  10.787  0.3027 -2.4326  0.7155
  913MOL0     H23193   6.108   9.090  10.939  0.3824  1.4321  2.4607
  913MOL0     H23194   5.906   9.285  10.795 -2.2157  1.9092  2.0372
  913MOL0     H23195   5.909   9.108  10.760  1.3506 -1.7832  1.8224
  913MOL0     H23196   5.821   9.046  10.977  1.0294 -0.5664  0.8325
  913MOL0     H23197   5.865   9.213  11.042 -0.2038  0.6516 -0.3632
  913MOL0     H23198   5.683   9.299  10.883  1.5637 -0.5425 -2.0980
  913MOL0     H23199   5.668   9.127  10.842 -3.5945 -1.8632  0.9460
  913MOL0     H23200   5.603   9.093  11.074 -2.4607 -1.2667 -1.7293
  913MOL0     H23201   5.600   9.263  11.104  3.0379 -0.9911  0.1475
  913MOL0     H23202   5.441   9.255  10.889 -1.0718 -1.9524 -0.9822
  913MOL0     H23203   5.419   9.087  10.941  0.5867 -1.7240  3.2036
  913MOL0     H23204   5.263   9.258  11.032 -0.1156 -0.0370 -0.1836
  913MOL0     H23205   5.397   9.333  11.128 -0.3407  0.4757 -1.1611
  913MOL0     H23206   5.209   9.002  11.087 -0.3635  0.0567  0.2072
  913MOL0     H23207   5.180   8.763  11.261 -1.5152  0.5616  0.2965
  913MOL0     H23208   5.252   8.773  11.427 -0.7734  0.9036  1.4527
  913MOL0     H23209   4.989   8.777  11.374 -1.4237  0.9748 -1.2470
  913MOL0     H23210   5.028   8.948  11.354  0.4543 -0.6695  0.6824
  913MOL0     H23211   5.108   8.993  11.567  1.1909 -0.4803  0.4793
  913MOL0     H23212   5.131   8.820  11.604  2.2004 -1.9607 -3.1413
  913MOL0     H23213   4.946   8.945  11.726  2.0016  0.8848  0.1102
  913MOL0     H23214   4.857   8.830  11.624 -2.9892  2.4551  1.8974
  913MOL0     H23215   4.750   9.236  11.538 -3.0709  0.9792 -2.4359
  913MOL0     H23216   4.426   9.383  11.590 -1.0499  0.3556  0.0949
  913MOL0     H23217   4.563   9.422  11.694 -0.6617  1.8837 -1.1305
  913MOL0     H23218   4.585   9.382  11.514 -2.7573  0.7005 -1.4124
  913MOL0     H23219   4.141   9.352  11.608 -1.6201  0.5204 -0.7553
  913MOL0     H23220   3.929   9.442  11.637 -0.6722 -2.6769 -0.4170
  913MOL0     H23221   3.800   9.609  12.044 -0.7818 -1.1036  0.4059
  913MOL0     H23222   3.860   9.701  11.906 -1.7713  1.5758  0.3587
  913MOL0     H23223   3.615   9.674  11.806 -0.0939  0.1242 -0.1865
  913MOL0     H23224   3.571   9.589  11.948 -1.4065  1.8851  1.2471
  913MOL0     H23225   3.672   9.877  11.920 -1.5714  0.7853  0.1097
  913MOL0     H23226   3.657   9.820  12.081  1.0943  0.0037 -0.4110
  913MOL0     H23227   3.433   9.803  11.863  1.0264 -1.1440 -1.0185
  913MOL0     H23228   3.394   9.776  12.026  0.8447  0.3835  0.4197
  913MOL0     H23229   3.464  10.046  11.918 -0.0494 -0.8378 -0.6133
  913MOL0     H23230   3.428  10.017  12.086  3.9097 -2.4529  0.7949
  913MOL0     H23231   3.215   9.998  11.880  1.8712  0.1748 -1.0191
  913MOL0     H23232   3.208   9.931  12.048  0.3654  1.4228  2.0445
  913MOL0     H23233   3.236  10.120  12.160 -0.4887 -1.7635  0.2077
  913MOL0     H23234   3.093  10.126  12.065  0.3447  1.6337  0.7497
  913MOL0     H23235   3.230  10.258  11.888  3.2120 -0.2370 -0.8076
  913MOL0     H23236   3.355  10.285  12.006 -1.4736  3.7993  2.1302
  913MOL0     H23237   3.974   9.453  12.063 -0.6794  2.2828 -2.0052
  913MOL0     H23238   4.205   9.337  12.033 -2.6367 -0.7839  2.6970
  913MOL0     H23239   4.438   8.918  11.765  0.6824 -2.1474 -1.5250
  913MOL0     H23240   4.669   8.842  11.695  2.6274 -0.3629 -3.9581
  913MOL0     H23241   6.267   9.463  11.133 -0.2370 -0.7647  2.8153
  913MOL0     H23242   6.298   9.660  11.259 -1.5451 -1.5483  2.1405
  913MOL0     H23243   6.035  10.243  11.299  1.2887  1.0446 -0.3695
  913MOL0     H23244   6.202  10.415  11.367 -1.7253  1.5503  1.9916
  913MOL0     H23245   6.585  10.253  11.456  0.4733  0.5857 -1.7713
  913MOL0     H23246   6.594  10.400  11.378  1.9631 -1.2307 -0.5272
  913MOL0     H23247   6.632  10.367  11.673 -0.8469 -1.7283 -0.5738
  913MOL0     H23248   6.622  10.518  11.595 -2.1775 -0.2460 -0.1123
  913MOL0     H23249   6.835  10.500  11.494  2.0533 -1.0283 -0.2208
  913MOL0     H23250   6.812  10.332  11.448  2.7491 -3.2565  2.0357
  913MOL0     H23251   6.881  10.262  11.692 -0.5915 -0.2728 -1.1292
  913MOL0     H23252   6.865  10.437  11.734 -0.1038  0.4216 -0.5071
  913MOL0     H23253   7.243  10.447  11.550 -0.4558  0.2425  0.9049
  913MOL0     H23254   6.444  10.097  11.546  1.7270  0.2609 -1.5030
  913MOL0     H23255   6.290   9.931  11.445  0.2224  0.2049 -0.1945
  914MOL0     O23256   0.506   4.567   1.876  0.7139 -0.4125  0.4609
  914MOL0     C23257   0.441   4.539   1.974  0.0274  0.3287  0.2738
  914MOL0     O23258   0.418   4.612   2.081 -0.7991  0.2873  1.0200
  914MOL0     C23259   0.522   4.700   2.118  0.3466 -0.3005 -0.3436
  914MOL0     C23260   0.547   4.820   2.060 -0.4483 -1.4642 -0.0192
  914MOL0     C23261   0.656   4.895   2.107 -0.1970 -0.0931 -0.5873
  914MOL0     C23262   0.754   4.842   2.195  0.4094  0.7913  0.1678
  914MOL0     O23263   0.871   4.900   2.254  0.2458 -0.5083 -0.3064
  914MOL0     C23264   0.885   5.044   2.252 -1.2318  0.9447 -1.0109
  914MOL0     C23265   0.974   5.091   2.362 -0.1002  0.2309 -0.2216
  914MOL0     C23266   0.980   5.244   2.368  0.2426  1.2826 -0.0344
  914MOL0     C23267   1.072   5.289   2.487 -0.9416 -0.3143  0.3567
  914MOL0     C23268   1.125   5.434   2.461 -0.5654  0.1743 -0.1892
  914MOL0     C23269   1.224   5.478   2.569  0.5033 -0.3112 -0.5930
  914MOL0     C23270   1.171   5.448   2.715  0.1090  0.8901 -0.0777
  914MOL0     C23271   1.232   5.540   2.820  0.7544  0.2027 -0.0258
  914MOL0     N23272   1.200   5.677   2.830 -0.4672 -0.7757  0.4530
  914MOL0     C23273   1.085   5.729   2.894  0.0434  0.7154 -0.4536
  914MOL0     C23274   1.072   5.857   2.846  0.3061  0.8389 -0.5348
  914MOL0     C23275   0.967   5.951   2.895 -0.1278  0.3278  0.4160
  914MOL0     C23276   0.909   5.929   3.035 -0.9258 -0.2652  0.6485
  914MOL0     C23277   0.830   6.052   3.086 -0.6234  0.4717 -0.4013
  914MOL0     C23278   0.833   6.060   3.241  0.3803  0.0269  0.3197
  914MOL0     O23279   0.969   6.050   3.279  1.1794 -1.0396  0.0300
  914MOL0     C23280   0.993   6.087   3.407 -0.4094  0.1559 -0.3299
  914MOL0     C23281   1.131   6.083   3.437  0.7800 -0.3472 -0.1935
  914MOL0     C23282   1.181   6.115   3.570  0.1036 -0.0191  0.7924
  914MOL0     C23283   1.334   6.092   3.592 -0.4014 -0.1449 -0.1496
  914MOL0     C23284   1.092   6.164   3.675  0.2915 -0.6857  0.7233
  914MOL0     C23285   1.132   6.217   3.811 -0.1139  0.2804 -0.2068
  914MOL0     O23286   1.264   6.255   3.830  0.7114 -0.7686  0.5419
  914MOL0     C23287   1.305   6.313   3.949  0.9163  0.2608  0.1204
  914MOL0     C23288   1.393   6.416   3.935 -0.1208 -0.5106 -0.3610
  914MOL0     C23289   1.449   6.477   4.039  0.3651  0.1305 -0.2310
  914MOL0     C23290   1.415   6.445   4.170 -0.3255 -0.1556 -0.3675
  914MOL0     O23291   1.473   6.518   4.268 -0.0812 -0.8124 -0.3663
  914MOL0     C23292   1.517   6.452   4.382  0.4049 -0.5938 -0.6021
  914MOL0     C23293   1.410   6.495   4.496  0.0963 -0.2173 -0.6423
  914MOL0     C23294   1.437   6.653   4.510 -0.2883 -0.9925  0.1206
  914MOL0     C23295   1.337   6.706   4.612 -0.1731  0.0526  0.1019
  914MOL0     C23296   1.324   6.854   4.603 -0.7207 -0.2632 -0.1003
  914MOL0     C23297   1.445   6.926   4.663 -0.7763  0.6356  0.4580
  914MOL0     C23298   1.393   7.055   4.719 -0.4937 -0.7671 -0.6928
  914MOL0     C23299   1.501   7.116   4.803  0.7358 -0.0907 -0.4031
  914MOL0    Cl23300   1.449   7.269   4.859  0.1036  0.2752 -0.0252
  914MOL0     C23301   1.334   6.335   4.192 -0.1071 -0.0999  0.2492
  914MOL0     C23302   1.284   6.260   4.079 -0.5310 -0.2992  0.5403
  914MOL0     O23303   1.046   6.226   3.897 -0.1712 -0.2864 -0.8217
  914MOL0     C23304   0.954   6.167   3.637 -0.8902  0.1601  0.1003
  914MOL0     C23305   0.912   6.137   3.510 -0.1938  0.4115 -0.7828
  914MOL0     N23306   1.157   5.881   2.740  0.5778  0.5995 -0.8402
  914MOL0     N23307   1.239   5.779   2.749  0.7484 -0.0059  0.3802
  914MOL0     C23308   0.710   4.712   2.243  0.0955 -1.3913  0.1578
  914MOL0     C23309   0.592   4.655   2.219  0.9692 -0.6490  0.1186
  914MOL0     C23310   0.356   4.414   1.959  0.2571 -0.0006  0.3196
  914MOL0     C23311   0.279   4.365   2.067  0.0205 -0.1436  0.3075
  914MOL0     C23312   0.191   4.253   2.054 -1.1407 -0.0834 -0.3309
  914MOL0     C23313   0.180   4.185   1.933 -0.6465  0.3915 -0.5565
  914MOL0     O23314   0.096   4.076   1.909  0.4898 -1.3436 -0.4118
  914MOL0     C23315   0.165   3.957   1.886  0.7404 -0.0114 -0.7354
  914MOL0     C23316   0.082   3.840   1.930  0.5695 -0.2583 -0.5938
  914MOL0     C23317   0.058   3.839   2.080  0.5399  0.5535  0.1519
  914MOL0     C23318   0.178   3.830   2.171 -0.1038  1.0001 -0.2708
  914MOL0     C23319   0.278   3.941   2.182  0.4678  0.1514  0.5484
  914MOL0     C23320   0.370   4.021   2.193 -0.1063  0.6743 -0.1694
  914MOL0     C23321   0.251   4.236   1.823 -0.2342  0.3248  0.2361
  914MOL0     C23322   0.343   4.346   1.833  0.3242 -1.2154 -1.4670
  914MOL0     H23323   0.458   4.857   2.009 -1.8332 -3.1028  1.0740
  914MOL0     H23324   0.667   4.992   2.060  1.0218 -0.6176 -1.4360
  914MOL0     H23325   0.943   5.075   2.165 -0.4456 -1.3913 -1.3921
  914MOL0     H23326   0.790   5.098   2.259 -1.2401  0.9226 -0.9484
  914MOL0     H23327   0.940   5.049   2.457 -1.5728  2.8153  0.5118
  914MOL0     H23328   1.070   5.046   2.338 -1.1567 -1.8313 -0.8322
  914MOL0     H23329   1.006   5.291   2.273 -1.3036  2.1985 -0.0407
  914MOL0     H23330   0.878   5.273   2.395 -0.7847 -1.3953 -0.6580
  914MOL0     H23331   1.004   5.287   2.573 -2.4562 -0.7746 -0.8213
  914MOL0     H23332   1.162   5.227   2.495 -1.2157 -1.1150 -2.1684
  914MOL0     H23333   1.163   5.445   2.359  0.5112 -3.6562 -0.3638
  914MOL0     H23334   1.045   5.508   2.470 -0.9964 -0.4266  1.3753
  914MOL0     H23335   1.315   5.421   2.550 -0.9077 -2.2226 -2.1082
  914MOL0     H23336   1.244   5.585   2.567 -1.7522  0.2602  1.8333
  914MOL0     H23337   1.063   5.467   2.713 -0.0664 -0.0287  0.0646
  914MOL0     H23338   1.195   5.345   2.743  2.3613  1.7505  1.4938
  914MOL0     H23339   1.341   5.544   2.809  0.6844 -0.1265 -0.9021
  914MOL0     H23340   1.210   5.495   2.918  1.6397  0.1473  0.1552
  914MOL0     H23341   1.026   5.680   2.971 -1.7876 -0.6208 -2.6069
  914MOL0     H23342   1.023   6.044   2.884  2.8583 -1.5617 -1.9168
  914MOL0     H23343   0.884   5.964   2.825  0.6137 -0.2348 -0.5926
  914MOL0     H23344   1.001   5.914   3.092 -0.8584 -0.6617  0.4408
  914MOL0     H23345   0.842   5.843   3.040 -0.4858 -0.5365  2.4947
  914MOL0     H23346   0.724   6.049   3.059 -1.4751 -0.6442  2.6222
  914MOL0     H23347   0.866   6.151   3.057 -3.0321  0.8938 -2.2745
  914MOL0     H23348   0.767   5.987   3.290 -3.3953  0.7057 -3.2148
  914MOL0     H23349   0.784   6.154   3.267  1.1830  0.3765  0.5827
  914MOL0     H23350   1.210   6.043   3.374  1.3601  1.1780 -0.4672
  914MOL0     H23351   1.357   6.087   3.699 -0.0408  0.5791 -0.1900
  914MOL0     H23352   1.388   6.010   3.544 -0.4099  0.4465 -1.1991
  914MOL0     H23353   1.369   6.192   3.567 -0.6924 -0.0752 -0.2826
  914MOL0     H23354   1.408   6.455   3.835 -2.1273 -0.7712 -0.8028
  914MOL0     H23355   1.516   6.562   4.028  1.5697 -0.8933 -1.2049
  914MOL0     H23356   1.510   6.343   4.374  3.2986 -0.8596 -0.4205
  914MOL0     H23357   1.623   6.475   4.395  1.0616 -3.4379 -0.3042
  914MOL0     H23358   1.305   6.487   4.464 -0.2601  4.2394 -1.2152
  914MOL0     H23359   1.443   6.445   4.587  1.3324  1.9296  0.1759
  914MOL0     H23360   1.438   6.709   4.415 -2.2354 -0.9989  0.0569
  914MOL0     H23361   1.538   6.672   4.547 -1.3560  0.0316  2.7818
  914MOL0     H23362   1.235   6.677   4.585 -0.3987  1.5394 -0.7754
  914MOL0     H23363   1.361   6.671   4.713  1.2238 -1.0654 -0.5869
  914MOL0     H23364   1.239   6.885   4.664 -0.4739 -0.9941  0.6417
  914MOL0     H23365   1.309   6.886   4.500 -2.0845  2.0846  0.7409
  914MOL0     H23366   1.494   6.863   4.738 -1.4091 -0.7785 -0.2757
  914MOL0     H23367   1.513   6.941   4.579  2.5537  0.5902  2.9253
  914MOL0     H23368   1.309   7.033   4.786 -1.2083 -0.2341 -1.4002
  914MOL0     H23369   1.364   7.122   4.638  2.0362  0.7630 -0.4283
  914MOL0     H23370   1.602   7.123   4.763  1.9340  1.6258  2.5995
  914MOL0     H23371   1.513   7.052   4.890  1.0383 -1.6986 -1.5865
  914MOL0     H23372   1.295   6.301   4.287 -1.0554 -0.3914 -0.2279
  914MOL0     H23373   1.219   6.174   4.091 -0.0110 -0.4061  3.4665
  914MOL0     H23374   0.874   6.200   3.702 -3.0364 -2.1493 -1.1680
  914MOL0     H23375   0.807   6.140   3.481 -0.7179 -0.6521  0.8611
  914MOL0     H23376   0.776   4.679   2.323 -0.5289  1.5404  2.0409
  914MOL0     H23377   0.584   4.557   2.265 -3.0010  0.3525  1.9836
  914MOL0     H23378   0.283   4.405   2.167 -1.2173 -1.7024  1.0281
  914MOL0     H23379   0.139   4.208   2.139  0.0656 -0.1574  0.3906
  914MOL0     H23380   0.163   3.945   1.777 -1.9330  0.2086 -0.7781
  914MOL0     H23381   0.267   3.973   1.922  1.4449  0.0713 -2.6754
  914MOL0     H23382   0.143   3.755   1.898  3.8687  2.2690 -1.6301
  914MOL0     H23383  -0.017   3.844   1.884  1.6452  0.9457 -2.9725
  914MOL0     H23384  -0.016   3.760   2.098 -0.0919  1.2472  0.6225
  914MOL0     H23385   0.001   3.929   2.104  0.2253  1.1530 -2.5269
  914MOL0     H23386   0.236   3.742   2.140  1.4167 -0.9961  6.5424
  914MOL0     H23387   0.146   3.808   2.273 -3.6693  0.1280 -1.4339
  914MOL0     H23388   0.448   4.093   2.199  0.3872  0.3332 -2.0757
  914MOL0     H23389   0.252   4.182   1.729  0.5762  0.1716  0.3249
  914MOL0     H23390   0.398   4.385   1.748 -2.4782  3.8440 -1.3788
  915MOL0     O23391   4.454   4.560   1.035  0.3414 -0.5818  0.3579
  915MOL0     C23392   4.386   4.612   0.944 -0.0116 -1.4851 -0.9777
  915MOL0     O23393   4.278   4.695   0.966 -0.2150 -0.1924 -0.3530
  915MOL0     C23394   4.273   4.727   1.103 -0.4695  0.6519 -0.2756
  915MOL0     C23395   4.183   4.660   1.184  0.3719  0.5973 -0.6162
  915MOL0     C23396   4.183   4.690   1.324  0.2572  0.1217  0.6853
  915MOL0     C23397   4.256   4.792   1.378  0.1596 -0.2676 -0.0096
  915MOL0     O23398   4.238   4.819   1.511  0.8883 -0.0275 -0.1412
  915MOL0     C23399   4.235   4.961   1.547 -0.3671 -0.4017 -0.0614
  915MOL0     C23400   4.191   4.980   1.699  0.3667 -0.4095 -0.1010
  915MOL0     C23401   4.145   5.124   1.716 -0.1089  0.1675 -0.5948
  915MOL0     C23402   4.082   5.140   1.851  0.0827  0.4903 -0.3479
  915MOL0     C23403   4.197   5.130   1.962  0.6820 -0.6284 -0.5934
  915MOL0     C23404   4.128   5.174   2.092  0.1064  0.1491  0.4535
  915MOL0     C23405   4.219   5.180   2.211 -0.2231  0.7031  0.0203
  915MOL0     C23406   4.239   5.039   2.268  0.0425 -0.1994 -0.2213
  915MOL0     N23407   4.287   5.057   2.399  0.1174  0.1312 -0.0375
  915MOL0     C23408   4.216   5.029   2.514  0.3249  0.0918 -0.6266
  915MOL0     C23409   4.304   5.063   2.616  0.4352 -0.7133 -0.1711
  915MOL0     C23410   4.288   5.058   2.763 -0.3822  0.3767  1.1681
  915MOL0     C23411   4.327   4.911   2.816  0.2518  0.2148 -0.6256
  915MOL0     C23412   4.201   4.824   2.827 -0.2088  0.9489 -1.0808
  915MOL0     C23413   4.232   4.674   2.868  0.1521 -0.1132  0.2785
  915MOL0     O23414   4.277   4.670   2.998 -0.2079 -0.7281  0.4446
  915MOL0     C23415   4.314   4.554   3.056 -0.3741 -0.4088 -0.2761
  915MOL0     C23416   4.230   4.469   3.136 -0.0205 -0.5414 -0.1173
  915MOL0     C23417   4.279   4.346   3.195  0.0822 -0.6970  0.4893
  915MOL0     C23418   4.187   4.273   3.301 -0.2311  0.3180  0.1535
  915MOL0     C23419   4.419   4.311   3.172  0.1564  0.2665  0.8549
  915MOL0     C23420   4.497   4.199   3.241 -0.1676 -0.0155  0.1439
  915MOL0     O23421   4.636   4.205   3.229 -1.3389  0.6356  0.3838
  915MOL0     C23422   4.707   4.092   3.275  0.6269  0.6807  0.1728
  915MOL0     C23423   4.670   3.962   3.251 -0.1153 -1.0454  0.4881
  915MOL0     C23424   4.754   3.856   3.276 -0.0825  0.3338  0.8868
  915MOL0     C23425   4.870   3.868   3.350 -0.3864  0.6323 -0.3695
  915MOL0     O23426   4.936   3.751   3.369 -0.4623 -0.7043 -0.2426
  915MOL0     C23427   5.065   3.762   3.445  1.1688 -0.6180 -0.0588
  915MOL0     C23428   5.108   3.612   3.460  0.0486  0.2708 -0.9071
  915MOL0     C23429   5.230   3.626   3.554 -0.0907  0.0955  0.1427
  915MOL0     C23430   5.284   3.487   3.589 -0.0835 -0.4775 -0.7304
  915MOL0     C23431   5.349   3.478   3.725  0.3800  0.4685 -0.6902
  915MOL0     C23432   5.243   3.474   3.845  0.8186 -0.4882 -0.6501
  915MOL0     C23433   5.296   3.442   3.986 -0.9786  0.5438 -0.3372
  915MOL0     C23434   5.436   3.524   4.006  0.5709  0.1910 -0.3973
  915MOL0    Cl23435   5.504   3.492   4.168  0.3542 -0.2464 -0.3181
  915MOL0     C23436   4.915   4.005   3.377  0.8860  1.1083  0.7790
  915MOL0     C23437   4.832   4.115   3.334  0.0768  0.2984  0.4208
  915MOL0     O23438   4.429   4.114   3.293  0.2830  0.1129 -0.4805
  915MOL0     C23439   4.495   4.392   3.083  0.8487  0.2690  0.1807
  915MOL0     C23440   4.441   4.509   3.025  0.4528 -0.1001 -0.5874
  915MOL0     N23441   4.418   5.108   2.557  0.3230  0.2986  0.6930
  915MOL0     N23442   4.410   5.100   2.430 -0.2932  0.7249  0.2396
  915MOL0     C23443   4.346   4.859   1.294  0.7172  0.9143  0.4158
  915MOL0     C23444   4.355   4.833   1.154 -0.0060  0.1097 -1.0288
  915MOL0     C23445   4.408   4.559   0.808 -0.0511  0.5752  0.2423
  915MOL0     C23446   4.539   4.545   0.761  0.8989  1.4005 -0.9426
  915MOL0     C23447   4.557   4.502   0.628 -0.4314  0.4708 -0.1734
  915MOL0     C23448   4.447   4.506   0.534 -0.2095  1.3616 -0.2085
  915MOL0     O23449   4.462   4.485   0.401 -0.5149 -0.0376 -0.1118
  915MOL0     C23450   4.391   4.585   0.319 -0.3830 -0.5486 -0.0226
  915MOL0     C23451   4.476   4.656   0.215 -0.0751  0.1308 -0.6638
  915MOL0     C23452   4.486   4.595   0.070 -0.5749 -1.1090  1.0296
  915MOL0     C23453   4.528   4.446   0.070  0.3690  0.1164  0.1036
  915MOL0     C23454   4.536   4.386  -0.060  0.0561 -0.1279  0.4888
  915MOL0     C23455   4.542   4.338  -0.168  0.0351 -0.1521  0.6515
  915MOL0     C23456   4.314   4.512   0.587 -0.2764 -0.5763  0.0154
  915MOL0     C23457   4.298   4.548   0.724 -0.3674 -0.4144  0.3656
  915MOL0     H23458   4.124   4.580   1.140  0.3928 -0.2283  0.7761
  915MOL0     H23459   4.112   4.643   1.391  0.2035  1.7516  1.8129
  915MOL0     H23460   4.338   4.997   1.545 -0.2334 -0.6558  1.4857
  915MOL0     H23461   4.171   5.021   1.481  0.5212 -0.0332 -0.6032
  915MOL0     H23462   4.110   4.914   1.729 -0.5286 -0.1093 -1.7504
  915MOL0     H23463   4.272   4.955   1.769  0.2095 -1.9738 -0.4491
  915MOL0     H23464   4.234   5.186   1.705 -0.6519  0.8262 -1.4039
  915MOL0     H23465   4.066   5.148   1.644 -1.9100 -0.5673  1.0368
  915MOL0     H23466   4.038   5.239   1.860 -0.1702  0.3576 -0.1240
  915MOL0     H23467   4.004   5.066   1.873  0.9782 -1.4789 -3.1734
  915MOL0     H23468   4.237   5.028   1.964  3.3550  0.3470 -0.2794
  915MOL0     H23469   4.282   5.197   1.948  1.0131 -0.1505  2.8717
  915MOL0     H23470   4.096   5.277   2.077 -0.0055  0.2937  1.5960
  915MOL0     H23471   4.043   5.108   2.112 -0.4049  1.3882  2.7027
  915MOL0     H23472   4.320   5.207   2.178  0.4455 -2.8912 -1.3570
  915MOL0     H23473   4.185   5.254   2.284  2.2631  0.3402  1.6574
  915MOL0     H23474   4.309   4.989   2.200 -2.6400 -0.1906 -3.1754
  915MOL0     H23475   4.148   4.979   2.282  0.5853 -0.5099  2.8050
  915MOL0     H23476   4.110   5.005   2.519  0.2410  0.5950  0.4336
  915MOL0     H23477   4.360   5.136   2.790  0.4838 -0.2984  0.8506
  915MOL0     H23478   4.182   5.074   2.785 -0.6869  0.3743 -0.2223
  915MOL0     H23479   4.370   4.918   2.916  2.4706 -3.1862 -1.1368
  915MOL0     H23480   4.411   4.866   2.762  0.9497  0.0519  0.5618
  915MOL0     H23481   4.154   4.816   2.729 -1.8417 -0.1945 -0.2491
  915MOL0     H23482   4.140   4.875   2.901  1.2975 -0.4716  1.2780
  915MOL0     H23483   4.306   4.635   2.797  1.0199  0.7980  0.6563
  915MOL0     H23484   4.138   4.619   2.859  1.3919 -2.1060 -1.3814
  915MOL0     H23485   4.133   4.503   3.170 -0.7616 -2.8165  0.1975
  915MOL0     H23486   4.139   4.194   3.243 -2.7291  4.9349 -5.0384
  915MOL0     H23487   4.252   4.232   3.378 -0.9048 -2.8992 -0.8423
  915MOL0     H23488   4.114   4.346   3.339 -3.7477 -1.0136 -3.2956
  915MOL0     H23489   4.571   3.945   3.209 -1.0718  2.3138  1.1303
  915MOL0     H23490   4.714   3.759   3.248 -0.5936  1.4422 -2.7197
  915MOL0     H23491   5.129   3.818   3.376  2.0901  0.7657  1.8332
  915MOL0     H23492   5.050   3.820   3.537 -1.2435  1.2782 -1.5160
  915MOL0     H23493   5.031   3.551   3.508  0.2692  0.2627 -0.5629
  915MOL0     H23494   5.147   3.567   3.369 -2.3981 -1.6946 -1.0953
  915MOL0     H23495   5.212   3.685   3.644 -1.6811 -2.4551  1.6197
  915MOL0     H23496   5.302   3.690   3.502 -1.3086  0.4702 -1.1411
  915MOL0     H23497   5.201   3.416   3.585 -0.7025  0.2622 -1.2583
  915MOL0     H23498   5.360   3.472   3.512  0.1559  0.3441 -0.6581
  915MOL0     H23499   5.414   3.565   3.736 -0.8068  1.2715  0.2388
  915MOL0     H23500   5.411   3.388   3.726  0.5018  0.5289  1.3069
  915MOL0     H23501   5.192   3.570   3.852 -0.0950 -1.1061  2.7691
  915MOL0     H23502   5.161   3.412   3.808 -2.4211  3.3470 -0.4936
  915MOL0     H23503   5.324   3.336   3.988  2.2623  1.2889  2.6284
  915MOL0     H23504   5.229   3.475   4.066  1.4712  1.1220  1.5818
  915MOL0     H23505   5.420   3.626   3.970  0.5896  0.9701  1.6315
  915MOL0     H23506   5.498   3.476   3.929 -3.1971  0.4190 -3.8773
  915MOL0     H23507   5.005   4.031   3.432  1.3579 -2.6854  2.1267
  915MOL0     H23508   4.874   4.214   3.335  0.9867 -0.0512 -0.7838
  915MOL0     H23509   4.595   4.369   3.045 -0.4919 -2.8681 -1.8813
  915MOL0     H23510   4.502   4.573   2.961 -1.0110  2.0991  0.1056
  915MOL0     H23511   4.412   4.937   1.329  2.0018  0.3169 -0.5739
  915MOL0     H23512   4.422   4.882   1.084  0.6117 -0.8360 -1.1228
  915MOL0     H23513   4.630   4.550   0.820  0.7887 -3.1886 -0.0380
  915MOL0     H23514   4.660   4.481   0.599 -0.0445  4.3589 -2.3370
  915MOL0     H23515   4.300   4.538   0.279  0.1579 -0.0885 -1.8980
  915MOL0     H23516   4.361   4.677   0.371  0.5890  0.0863 -0.5594
  915MOL0     H23517   4.580   4.659   0.249 -0.9541 -0.9865  2.4423
  915MOL0     H23518   4.446   4.760   0.202 -1.5872 -0.2304 -0.2939
  915MOL0     H23519   4.565   4.644   0.013 -2.2077  0.3250 -0.1289
  915MOL0     H23520   4.392   4.583   0.015 -0.3536  0.5048  0.2343
  915MOL0     H23521   4.446   4.390   0.116 -2.3203  3.6450  0.0540
  915MOL0     H23522   4.618   4.424   0.129 -0.2263  1.4657  1.5919
  915MOL0     H23523   4.569   4.304  -0.266 -1.1194  0.1952  0.1944
  915MOL0     H23524   4.237   4.511   0.511  0.3035 -0.9121 -0.5750
  915MOL0     H23525   4.200   4.572   0.764 -0.0106 -0.2786  1.1779
  916MOL0     O23526   2.359   1.135   8.398  0.3872 -0.2233 -0.2593
  916MOL0     C23527   2.307   1.040   8.452  1.1432 -0.1131 -0.0634
  916MOL0     O23528   2.182   0.997   8.422 -0.7921 -0.1227 -0.0137
  916MOL0     C23529   2.110   1.073   8.335  1.3242 -0.3753  0.5288
  916MOL0     C23530   2.060   1.201   8.376 -0.6258 -0.3819 -0.6077
  916MOL0     C23531   1.983   1.279   8.297  0.1452 -0.7974  0.3916
  916MOL0     C23532   1.950   1.226   8.169  0.6279  1.1262 -0.2023
  916MOL0     O23533   1.878   1.319   8.096  0.2808  0.3377  0.6936
  916MOL0     C23534   1.837   1.287   7.965 -0.1528  0.0965 -0.8257
  916MOL0     C23535   1.732   1.380   7.920  0.3961 -0.3252  0.3900
  916MOL0     C23536   1.595   1.348   7.968  0.1595 -0.1272  0.3886
  916MOL0     C23537   1.495   1.457   7.928  0.0876 -0.0890  0.0193
  916MOL0     C23538   1.350   1.409   7.976  0.3759  0.4154  0.2976
  916MOL0     C23539   1.249   1.521   7.949  0.1919 -0.3591 -0.9327
  916MOL0     C23540   1.101   1.477   7.972  0.5144 -0.8444 -0.3076
  916MOL0     C23541   1.001   1.595   7.937  0.3498 -0.3353 -0.1929
  916MOL0     N23542   0.863   1.546   7.959  0.5098  0.2597 -0.1181
  916MOL0     C23543   0.760   1.612   8.008  0.5555  0.3544  0.9065
  916MOL0     C23544   0.653   1.522   7.988 -0.2290  0.7604  0.1691
  916MOL0     C23545   0.509   1.558   8.018  0.0448 -1.1635  0.2309
  916MOL0     C23546   0.463   1.698   7.962 -0.1799 -1.0111  0.6636
  916MOL0     C23547   0.513   1.747   7.827 -0.8983 -0.2529  0.5268
  916MOL0     C23548   0.443   1.656   7.721  0.1157  0.7953  0.3631
  916MOL0     O23549   0.524   1.676   7.606 -0.6776  0.2956  0.5125
  916MOL0     C23550   0.472   1.747   7.494 -0.7611  0.7558 -0.8200
  916MOL0     C23551   0.497   1.694   7.375 -0.0647 -0.3400 -0.0288
  916MOL0     C23552   0.477   1.771   7.255 -0.5111  0.0169 -0.2535
  916MOL0     C23553   0.536   1.730   7.122 -0.2195 -0.0391  0.6972
  916MOL0     C23554   0.414   1.895   7.261 -0.1865  0.4126 -0.4642
  916MOL0     C23555   0.394   1.986   7.161 -0.1029  0.2955  0.2692
  916MOL0     O23556   0.279   1.962   7.089 -0.0336 -1.2231  0.4809
  916MOL0     C23557   0.271   2.038   6.976  1.0260  0.2375  0.1084
  916MOL0     C23558   0.137   2.029   6.936  0.4772 -0.0498  0.7604
  916MOL0     C23559   0.105   2.081   6.813  0.3728  0.4222  0.9051
  916MOL0     C23560   0.203   2.117   6.717  0.3419  0.1005 -0.0518
  916MOL0     O23561   0.152   2.167   6.607  0.5836 -0.2852  0.9163
  916MOL0     C23562   0.243   2.239   6.524  0.6051 -0.5658  0.5333
  916MOL0     C23563   0.150   2.291   6.416  0.0964 -0.1901  0.6328
  916MOL0     C23564   0.217   2.384   6.309  0.1029  1.0108  0.0628
  916MOL0     C23565   0.119   2.491   6.253  0.8139  0.5856  0.8675
  916MOL0     C23566   0.195   2.605   6.198 -0.1354  0.2625  0.4495
  916MOL0     C23567   0.246   2.693   6.306 -0.3765  0.4335 -0.6695
  916MOL0     C23568   0.299   2.832   6.245 -0.0096  1.2397 -0.0320
  916MOL0     C23569   0.426   2.873   6.324 -0.6046  0.2837  0.6238
  916MOL0    Cl23570   0.385   2.874   6.497  0.1957 -0.3880  0.2944
  916MOL0     C23571   0.336   2.113   6.756  0.8885 -0.0127 -0.8993
  916MOL0     C23572   0.368   2.067   6.885  0.6804 -0.1598  0.2493
  916MOL0     O23573   0.477   2.075   7.147 -0.2848 -0.2144  1.1483
  916MOL0     C23574   0.389   1.944   7.393  0.9818 -0.0363  0.1289
  916MOL0     C23575   0.417   1.872   7.504 -0.0145 -0.4037 -0.8865
  916MOL0     N23576   0.699   1.417   7.911  0.5259  0.3887 -0.6454
  916MOL0     N23577   0.823   1.429   7.893 -0.2434 -0.4186 -0.5875
  916MOL0     C23578   1.995   1.102   8.121 -0.3009 -1.4340  0.1222
  916MOL0     C23579   2.065   1.023   8.208 -1.2047  0.6353  0.1614
  916MOL0     C23580   2.368   0.989   8.579 -0.9358  0.2386  0.2003
  916MOL0     C23581   2.487   1.036   8.633  0.5195 -0.8456 -0.9452
  916MOL0     C23582   2.549   1.000   8.748 -0.4108  0.3670 -0.0652
  916MOL0     C23583   2.502   0.880   8.809  0.5185 -0.0010 -0.7333
  916MOL0     O23584   2.564   0.823   8.921 -0.0571 -0.0642 -0.2802
  916MOL0     C23585   2.591   0.687   8.894  0.7520 -0.0398 -0.5480
  916MOL0     C23586   2.693   0.623   8.975  0.0711 -0.1850 -0.8176
  916MOL0     C23587   2.638   0.612   9.127 -0.2604 -0.1766 -0.1123
  916MOL0     C23588   2.751   0.572   9.233  0.0834  0.0122  0.3582
  916MOL0     C23589   2.803   0.436   9.213 -0.0360  0.3768  0.3339
  916MOL0     C23590   2.836   0.319   9.194  0.0354 -0.0145  0.5048
  916MOL0     C23591   2.385   0.822   8.749 -0.6184 -0.2312  0.1964
  916MOL0     C23592   2.310   0.877   8.644 -0.4373 -0.6741  0.0586
  916MOL0     H23593   2.095   1.244   8.469 -1.7506 -0.0283 -0.3265
  916MOL0     H23594   1.938   1.375   8.324  2.0579  0.2189  0.1475
  916MOL0     H23595   1.931   1.298   7.910  1.3853  2.0568  1.9503
  916MOL0     H23596   1.800   1.184   7.958 -0.7252  0.1821  0.7107
  916MOL0     H23597   1.766   1.480   7.948  0.1523  0.0021 -0.4480
  916MOL0     H23598   1.733   1.377   7.811 -1.4454  2.2747  0.2021
  916MOL0     H23599   1.559   1.266   7.905 -0.4344  0.3035  0.1522
  916MOL0     H23600   1.588   1.324   8.075 -0.5385  3.5945  1.3452
  916MOL0     H23601   1.513   1.553   7.978 -1.5028 -0.1601  0.7997
  916MOL0     H23602   1.493   1.496   7.826  3.4778 -0.0847 -0.1707
  916MOL0     H23603   1.328   1.322   7.913  2.0940  1.3410 -1.6963
  916MOL0     H23604   1.346   1.379   8.081 -2.8420 -2.5904 -0.4955
  916MOL0     H23605   1.286   1.599   8.016  1.4746 -0.0309 -1.9656
  916MOL0     H23606   1.259   1.554   7.845  2.0744 -1.0701 -1.0112
  916MOL0     H23607   1.082   1.390   7.909 -0.8981 -0.6016 -0.2561
  916MOL0     H23608   1.091   1.454   8.078  2.9679  0.5105  0.3074
  916MOL0     H23609   1.016   1.599   7.829  0.4880 -4.1027 -0.4324
  916MOL0     H23610   1.028   1.692   7.981  1.6838 -0.4395 -0.7407
  916MOL0     H23611   0.765   1.715   8.045  4.1529  0.9410 -0.7802
  916MOL0     H23612   0.447   1.483   7.969 -1.9979  0.7126 -0.2018
  916MOL0     H23613   0.497   1.549   8.126 -1.5600  1.3522  0.3515
  916MOL0     H23614   0.487   1.776   8.036 -5.3898 -0.5031  2.2263
  916MOL0     H23615   0.354   1.705   7.952 -0.0699 -1.5298 -1.2159
  916MOL0     H23616   0.621   1.738   7.838 -1.0161  0.0223  2.1432
  916MOL0     H23617   0.493   1.853   7.807  0.1692 -0.2503 -0.6416
  916MOL0     H23618   0.341   1.693   7.708  0.9311  2.9931 -0.2630
  916MOL0     H23619   0.453   1.550   7.746  1.5787  0.9362  0.4777
  916MOL0     H23620   0.570   1.614   7.388 -0.8637 -0.8115  1.9693
  916MOL0     H23621   0.460   1.721   7.044  1.3909  0.2312 -0.9589
  916MOL0     H23622   0.606   1.803   7.080  3.6026 -3.5533  0.3609
  916MOL0     H23623   0.585   1.635   7.143  1.1918  0.7691  1.1519
  916MOL0     H23624   0.055   1.988   6.995  1.8036 -1.0931  1.9539
  916MOL0     H23625   0.002   2.076   6.777  0.9793 -0.3747 -0.8265
  916MOL0     H23626   0.288   2.327   6.572  3.0794 -1.4799  0.0192
  916MOL0     H23627   0.328   2.183   6.484  2.1051  1.2556  1.0192
  916MOL0     H23628   0.108   2.202   6.369  2.9402 -0.8033 -0.9427
  916MOL0     H23629   0.062   2.337   6.463  0.5228 -1.1099  2.4306
  916MOL0     H23630   0.247   2.319   6.226 -3.4472  2.2703 -2.4310
  916MOL0     H23631   0.302   2.428   6.362  0.6386  0.1240 -0.0443
  916MOL0     H23632   0.042   2.442   6.194 -0.1333 -0.6308  3.0142
  916MOL0     H23633   0.065   2.523   6.342 -3.1659 -3.9246  0.4501
  916MOL0     H23634   0.131   2.662   6.130  0.4457 -0.1474 -0.4530
  916MOL0     H23635   0.283   2.570   6.144 -0.0884  0.4141  0.4302
  916MOL0     H23636   0.176   2.714   6.387  2.0534 -1.2440  2.0770
  916MOL0     H23637   0.324   2.633   6.354  0.3436 -0.0256 -2.3029
  916MOL0     H23638   0.218   2.905   6.247 -0.5122  1.0595 -4.7408
  916MOL0     H23639   0.336   2.815   6.144 -1.7320  3.1643 -1.0375
  916MOL0     H23640   0.452   2.973   6.288 -1.0831  0.8665  1.8307
  916MOL0     H23641   0.511   2.808   6.300 -0.3585  1.9671 -3.9748
  916MOL0     H23642   0.406   2.139   6.678 -0.0198  0.2635 -1.6505
  916MOL0     H23643   0.475   2.066   6.903  1.0914 -3.2964 -1.5625
  916MOL0     H23644   0.345   2.043   7.401 -0.7701 -0.6999 -0.6258
  916MOL0     H23645   0.403   1.919   7.601  0.0601 -1.5500 -0.3042
  916MOL0     H23646   1.972   1.077   8.018 -0.9186  0.2485 -0.1815
  916MOL0     H23647   2.094   0.923   8.178 -1.5433  1.5863 -3.7877
  916MOL0     H23648   2.521   1.126   8.581  3.2711 -0.1252  1.8280
  916MOL0     H23649   2.640   1.046   8.786  0.8594 -0.3238 -2.0902
  916MOL0     H23650   2.502   0.622   8.896  0.2097  0.6926 -0.7141
  916MOL0     H23651   2.631   0.683   8.793  3.0234 -1.3278  0.3268
  916MOL0     H23652   2.793   0.667   8.964 -0.1755  0.1905 -1.6342
  916MOL0     H23653   2.695   0.518   8.944  0.6049  0.0689 -1.6705
  916MOL0     H23654   2.556   0.541   9.130  1.3184 -2.1532 -1.1343
  916MOL0     H23655   2.608   0.709   9.168 -3.0373  0.7430 -3.7935
  916MOL0     H23656   2.708   0.598   9.330  1.6381  0.6085  0.9208
  916MOL0     H23657   2.839   0.634   9.214 -0.2149 -0.3430 -2.6864
  916MOL0     H23658   2.847   0.217   9.163  0.2085  0.2329 -0.2572
  916MOL0     H23659   2.333   0.745   8.804 -3.7254  2.0583  0.7625
  916MOL0     H23660   2.216   0.831   8.616 -1.8185  1.5635  0.8432
  917MOL0     O23661   5.818   5.317   0.518  0.6969  0.5971  0.1206
  917MOL0     C23662   5.933   5.333   0.486  0.8668 -0.1694 -0.8929
  917MOL0     O23663   6.025   5.422   0.547 -0.2601 -0.2086  0.0727
  917MOL0     C23664   5.977   5.502   0.644  0.3525  0.4267  0.0855
  917MOL0     C23665   6.024   5.630   0.639 -0.1284 -0.8423  0.3602
  917MOL0     C23666   6.000   5.727   0.743 -0.8556  0.1316 -0.4396
  917MOL0     C23667   5.922   5.700   0.848  0.0350  0.6225 -0.4140
  917MOL0     O23668   5.915   5.791   0.950  0.0003  0.0293 -0.0282
  917MOL0     C23669   5.810   5.784   1.056  1.0214  0.4599  0.6763
  917MOL0     C23670   5.715   5.884   1.006  0.2457  0.0421  0.7197
  917MOL0     C23671   5.597   5.926   1.091  0.2663 -0.4123  0.0514
  917MOL0     C23672   5.647   6.006   1.209 -0.5045 -0.3605  0.1010
  917MOL0     C23673   5.531   6.088   1.277  0.5750  0.0319  0.2324
  917MOL0     C23674   5.487   6.200   1.186 -0.1013 -0.1130 -0.1186
  917MOL0     C23675   5.397   6.301   1.266  0.2470  0.1727  0.3152
  917MOL0     C23676   5.370   6.423   1.169 -0.1319  1.2429 -0.2940
  917MOL0     N23677   5.285   6.391   1.056 -0.2016 -0.3370  0.0352
  917MOL0     C23678   5.333   6.374   0.925  0.8699  0.5153 -0.7240
  917MOL0     C23679   5.218   6.373   0.855 -0.0951 -0.6530 -0.2266
  917MOL0     C23680   5.209   6.352   0.706  1.2750 -0.0407 -0.7062
  917MOL0     C23681   5.064   6.322   0.663  0.0064  0.8790 -0.3699
  917MOL0     C23682   5.059   6.287   0.514  0.3373  0.1925 -0.0304
  917MOL0     C23683   5.115   6.392   0.417  0.9101  0.6532  0.4040
  917MOL0     O23684   5.250   6.385   0.416  0.0378 -1.2375  0.2872
  917MOL0     C23685   5.311   6.477   0.328  0.0789  0.3319 -0.3893
  917MOL0     C23686   5.452   6.467   0.328  0.4131 -0.5555 -0.8455
  917MOL0     C23687   5.531   6.557   0.264 -1.1907 -0.4526 -0.3329
  917MOL0     C23688   5.683   6.537   0.274  0.1751  0.1466 -0.0269
  917MOL0     C23689   5.465   6.651   0.174  0.6600 -0.4175  0.3385
  917MOL0     C23690   5.541   6.745   0.079 -0.5837 -0.0777  0.3147
  917MOL0     O23691   5.675   6.775   0.111  0.2781 -0.2507 -0.2939
  917MOL0     C23692   5.740   6.863   0.036  0.1146 -0.3803  0.2125
  917MOL0     C23693   5.783   6.986   0.096 -0.3368  1.0816 -0.1258
  917MOL0     C23694   5.847   7.090   0.028 -0.1265 -0.1379  0.5607
  917MOL0     C23695   5.856   7.086  -0.113  0.2416  0.2780  0.3373
  917MOL0     O23696   5.934   7.173  -0.174  0.0651 -0.4604 -0.2301
  917MOL0     C23697   5.895   7.205  -0.315 -1.3973 -0.5654 -0.6207
  917MOL0     C23698   5.972   7.338  -0.355 -0.0690 -0.4816  0.4197
  917MOL0     C23699   5.946   7.462  -0.255 -0.5561  0.4217  0.7551
  917MOL0     C23700   5.984   7.597  -0.322  0.0410  0.2901  0.7078
  917MOL0     C23701   5.927   7.712  -0.245  0.5179  0.0577  0.0508
  917MOL0     C23702   5.953   7.851  -0.305 -1.0301 -0.2895  0.1719
  917MOL0     C23703   5.905   7.958  -0.204  0.1408  0.3980 -0.1405
  917MOL0     C23704   5.914   8.093  -0.264 -0.6551  0.2567 -0.0564
  917MOL0    Cl23705   6.090   8.120  -0.304  0.0294 -0.2791 -0.4436
  917MOL0     C23706   5.813   6.970  -0.181 -0.1268  0.8924  0.8808
  917MOL0     C23707   5.758   6.863  -0.107  0.8605  0.3904  0.3774
  917MOL0     O23708   5.477   6.775  -0.017 -0.4868 -0.0740  0.4684
  917MOL0     C23709   5.321   6.658   0.166 -0.3013  0.2042  0.0345
  917MOL0     C23710   5.243   6.567   0.248 -0.2310 -0.5652  0.6125
  917MOL0     N23711   5.111   6.360   0.942 -0.0817  0.0228  0.2050
  917MOL0     N23712   5.149   6.379   1.062 -0.4448 -0.2197 -0.6900
  917MOL0     C23713   5.878   5.562   0.856  0.3914 -0.1630  0.5467
  917MOL0     C23714   5.908   5.468   0.756  0.6490  0.1932  0.0915
  917MOL0     C23715   5.988   5.269   0.363  0.2324  0.1505 -0.4068
  917MOL0     C23716   5.928   5.156   0.304  0.2589  0.5769 -0.4982
  917MOL0     C23717   5.997   5.081   0.207 -0.4352  0.1268  0.1788
  917MOL0     C23718   6.120   5.131   0.159 -1.4938 -0.1167  0.2835
  917MOL0     O23719   6.191   5.047   0.083 -0.9423 -0.1771  0.2802
  917MOL0     C23720   6.306   4.991   0.148 -0.1503  0.3074 -0.5155
  917MOL0     C23721   6.348   4.854   0.098 -0.1012  0.4955  0.3629
  917MOL0     C23722   6.273   4.738   0.173  0.2353 -0.4353  0.7422
  917MOL0     C23723   6.291   4.609   0.094 -0.0314 -0.2648  0.5651
  917MOL0     C23724   6.412   4.536   0.138 -0.7637  0.1507 -0.4517
  917MOL0     C23725   6.493   4.464   0.187 -0.4143 -0.3634  0.0269
  917MOL0     C23726   6.175   5.245   0.215 -0.2552  0.6229  0.7259
  917MOL0     C23727   6.111   5.313   0.316 -1.0004  0.0608 -0.9850
  917MOL0     H23728   6.079   5.668   0.553 -2.4331  3.2526  0.4140
  917MOL0     H23729   6.033   5.830   0.733  0.6343 -0.4394 -1.8838
  917MOL0     H23730   5.772   5.682   1.067  1.9143  0.3263  3.3470
  917MOL0     H23731   5.868   5.810   1.145  2.9717 -0.2206 -0.3187
  917MOL0     H23732   5.771   5.977   0.988  0.9494 -0.3793  0.6903
  917MOL0     H23733   5.682   5.845   0.910 -4.0352  0.4324  1.8367
  917MOL0     H23734   5.537   5.996   1.032 -2.3461 -0.7756  2.0802
  917MOL0     H23735   5.526   5.849   1.121 -0.7879 -0.1142 -1.5635
  917MOL0     H23736   5.681   5.945   1.293 -2.2143 -1.1819  0.2328
  917MOL0     H23737   5.730   6.070   1.175  1.9043 -2.2542  2.0265
  917MOL0     H23738   5.440   6.036   1.307 -1.6285  3.4976  0.1764
  917MOL0     H23739   5.570   6.132   1.370  2.1988  1.2272 -0.9348
  917MOL0     H23740   5.573   6.250   1.140  1.4023 -2.5129 -0.1290
  917MOL0     H23741   5.411   6.163   1.117  1.3912 -0.5238 -1.6281
  917MOL0     H23742   5.303   6.252   1.292 -0.4541  0.9979 -0.5581
  917MOL0     H23743   5.450   6.345   1.351  0.6847 -0.1618  0.2125
  917MOL0     H23744   5.467   6.464   1.137  1.1362 -2.0720 -1.1091
  917MOL0     H23745   5.317   6.506   1.217 -1.2060  1.2790 -1.4956
  917MOL0     H23746   5.431   6.381   0.880  2.2371 -0.7746  1.8456
  917MOL0     H23747   5.244   6.434   0.643 -0.7965 -1.1241 -3.4796
  917MOL0     H23748   5.275   6.270   0.675 -0.3710 -0.5350 -3.1729
  917MOL0     H23749   5.010   6.416   0.674 -1.4677  0.2250 -1.5978
  917MOL0     H23750   5.009   6.238   0.708 -0.5350  0.6076 -1.5004
  917MOL0     H23751   4.953   6.273   0.493  0.8578 -0.8435 -2.2704
  917MOL0     H23752   5.105   6.192   0.485 -1.3956 -0.9802  0.8737
  917MOL0     H23753   5.065   6.486   0.443  0.2821  0.6116 -0.6120
  917MOL0     H23754   5.085   6.369   0.315  1.3203  0.6829  0.2749
  917MOL0     H23755   5.493   6.391   0.394 -5.9578 -4.5109 -0.6555
  917MOL0     H23756   5.737   6.555   0.180  1.9050 -0.2731  0.8531
  917MOL0     H23757   5.714   6.591   0.364 -1.1265 -0.7125  0.9746
  917MOL0     H23758   5.696   6.430   0.290 -4.4298 -0.5392  0.5333
  917MOL0     H23759   5.756   7.009   0.199 -1.6500 -0.1231 -0.1731
  917MOL0     H23760   5.895   7.174   0.077 -0.0776 -0.3837  0.9456
  917MOL0     H23761   5.929   7.124  -0.380 -2.3299 -2.5022  1.1617
  917MOL0     H23762   5.787   7.221  -0.323 -1.1567  0.5377 -1.8451
  917MOL0     H23763   6.079   7.316  -0.366 -0.1194  0.3672 -2.7973
  917MOL0     H23764   5.932   7.364  -0.454  3.1312  0.0895 -0.8364
  917MOL0     H23765   5.989   7.442  -0.157  0.4701 -2.5906 -0.1976
  917MOL0     H23766   5.837   7.464  -0.243 -1.2859  0.0806 -3.8760
  917MOL0     H23767   6.092   7.602  -0.339 -0.0081 -4.3711 -3.2219
  917MOL0     H23768   5.939   7.597  -0.422  0.8700 -2.2754  0.2715
  917MOL0     H23769   5.967   7.703  -0.143 -0.1536 -0.4521  0.2803
  917MOL0     H23770   5.818   7.703  -0.240  0.1512  3.7404  2.9467
  917MOL0     H23771   6.062   7.845  -0.309 -0.9940  0.7535 -3.5448
  917MOL0     H23772   5.910   7.862  -0.405  2.3421  0.3009 -1.3363
  917MOL0     H23773   5.941   7.945  -0.102  1.5394  2.8094 -0.2537
  917MOL0     H23774   5.798   7.941  -0.187  0.3298  0.8637  1.7294
  917MOL0     H23775   5.884   8.162  -0.185  2.3182 -1.3652  2.6985
  917MOL0     H23776   5.851   8.110  -0.352  0.7566  1.5883 -0.8629
  917MOL0     H23777   5.821   6.950  -0.287 -0.7444 -1.8553  1.2845
  917MOL0     H23778   5.714   6.777  -0.158  0.2607  1.9632 -1.9560
  917MOL0     H23779   5.262   6.719   0.097 -0.2228 -0.5124 -0.6740
  917MOL0     H23780   5.136   6.585   0.247  0.0303  1.7038 -2.9037
  917MOL0     H23781   5.832   5.517   0.944  0.5995 -1.4272  0.0329
  917MOL0     H23782   5.868   5.366   0.760  0.8677  0.0660 -0.7906
  917MOL0     H23783   5.840   5.122   0.358  0.9564  0.1930  0.4355
  917MOL0     H23784   5.957   4.989   0.166  0.7805  0.2144 -1.2594
  917MOL0     H23785   6.398   5.050   0.143  0.5427 -0.7775 -0.9168
  917MOL0     H23786   6.290   4.985   0.256  1.5610  2.9811 -0.0281
  917MOL0     H23787   6.453   4.832   0.117 -0.8243 -1.3606  2.8044
  917MOL0     H23788   6.319   4.851  -0.007  0.8079  2.9530 -0.0220
  917MOL0     H23789   6.167   4.763   0.187  0.6659  2.0021  0.0201
  917MOL0     H23790   6.300   4.742   0.279 -2.3147  0.2300  1.4464
  917MOL0     H23791   6.307   4.642  -0.009  3.4082  1.4891  1.5172
  917MOL0     H23792   6.200   4.549   0.096 -1.1462  1.0770  5.9044
  917MOL0     H23793   6.582   4.413   0.219 -2.1589 -2.2326  2.2091
  917MOL0     H23794   6.272   5.270   0.173  0.0795 -0.5569  0.7489
  917MOL0     H23795   6.170   5.398   0.347 -1.1713 -0.7544  1.8619
  918MOL0     O23796   7.142  11.390   4.059  0.0004  0.5690 -0.0947
  918MOL0     C23797   7.160  11.376   4.179  0.3563  0.7088  1.1072
  918MOL0     O23798   7.175  11.254   4.244  0.1232 -0.3592  0.2280
  918MOL0     C23799   7.138  11.138   4.177  0.7441 -0.2637 -0.4715
  918MOL0     C23800   7.237  11.060   4.119 -0.2783 -0.5482 -0.3796
  918MOL0     C23801   7.203  10.935   4.073 -0.4585 -0.1094 -0.8160
  918MOL0     C23802   7.068  10.890   4.090  0.4256 -0.5625  0.0018
  918MOL0     O23803   7.031  10.763   4.057  0.8034 -0.0274  0.8384
  918MOL0     C23804   7.020  10.751   3.913  0.5656  0.0789  0.0860
  918MOL0     C23805   6.923  10.628   3.873  0.9599  0.0213  0.3621
  918MOL0     C23806   6.780  10.639   3.934  1.0678  0.0723  1.0386
  918MOL0     C23807   6.692  10.719   3.827  0.1576  0.4220  0.3008
  918MOL0     C23808   6.538  10.685   3.832 -0.3117  0.0636  0.0827
  918MOL0     C23809   6.475  10.717   3.697 -0.0299 -0.3394  0.1397
  918MOL0     C23810   6.320  10.709   3.714 -0.2149 -0.2887  0.1323
  918MOL0     C23811   6.259  10.811   3.619  0.4961  1.2000  0.4463
  918MOL0     N23812   6.290  10.952   3.648 -0.1440 -0.5455  1.0835
  918MOL0     C23813   6.294  11.017   3.767 -0.5890 -0.8792  0.4268
  918MOL0     C23814   6.328  11.149   3.741  0.1055 -0.2415 -0.1649
  918MOL0     C23815   6.365  11.267   3.830 -0.1165 -0.8486 -0.6692
  918MOL0     C23816   6.519  11.280   3.831 -0.1560  0.2730  0.8195
  918MOL0     C23817   6.598  11.167   3.883 -0.0228  0.6418  0.2191
  918MOL0     C23818   6.744  11.177   3.848 -0.1352  0.8008  0.0979
  918MOL0     O23819   6.755  11.132   3.713  1.5023 -0.0412  0.1386
  918MOL0     C23820   6.876  11.108   3.654 -1.1802 -1.1382  0.6554
  918MOL0     C23821   7.007  11.129   3.708 -0.2623  0.3822 -0.5257
  918MOL0     C23822   7.123  11.088   3.642 -0.1378  0.2926  0.7336
  918MOL0     C23823   7.257  11.089   3.707 -0.1319 -0.4421  0.0248
  918MOL0     C23824   7.111  11.032   3.510  0.1195 -1.2073  0.2952
  918MOL0     C23825   7.222  10.973   3.420 -0.3915 -0.8583 -0.5688
  918MOL0     O23826   7.175  10.896   3.318  1.0252 -0.2793  0.0743
  918MOL0     C23827   7.258  10.838   3.228 -0.2248 -0.1032 -0.2888
  918MOL0     C23828   7.373  10.768   3.266 -0.0816 -0.4392  0.0902
  918MOL0     C23829   7.447  10.700   3.168 -0.2476  0.1444  0.3227
  918MOL0     C23830   7.421  10.697   3.036  0.8797 -0.3052 -0.0780
  918MOL0     O23831   7.482  10.613   2.942  0.8432  0.8808 -0.7292
  918MOL0     C23832   7.616  10.573   2.950 -0.3945  0.2206 -0.5768
  918MOL0     C23833   7.636  10.429   2.904  0.2112  0.0119 -0.9392
  918MOL0     C23834   7.623  10.405   2.760  0.5731  0.1066 -1.4771
  918MOL0     C23835   7.699  10.275   2.732 -0.4369  0.4376 -0.2212
  918MOL0     C23836   7.675  10.209   2.598 -0.3782  0.3100 -0.4973
  918MOL0     C23837   7.725  10.285   2.477 -0.5812 -0.3941  0.1293
  918MOL0     C23838   7.871  10.335   2.489 -0.2396 -0.7818 -0.1117
  918MOL0     C23839   7.878  10.492   2.477 -0.1150  0.6037 -0.5751
  918MOL0    Cl23840   7.816  10.529   2.317  0.0985  0.1671  0.4886
  918MOL0     C23841   7.307  10.768   3.001 -0.5391 -0.5405  0.4008
  918MOL0     C23842   7.228  10.833   3.092  1.5166 -0.2095 -0.1814
  918MOL0     O23843   7.344  10.997   3.449  0.0895  0.1887  0.0291
  918MOL0     C23844   6.977  11.026   3.446  0.3317  0.2325 -0.5386
  918MOL0     C23845   6.864  11.069   3.524  0.3895  0.1847 -0.2788
  918MOL0     N23846   6.321  11.165   3.598  0.4874 -0.0532 -0.2696
  918MOL0     N23847   6.297  11.050   3.552  0.3426 -0.0348  0.3424
  918MOL0     C23848   6.967  10.976   4.132 -0.3311  0.0391  0.6394
  918MOL0     C23849   6.999  11.113   4.164  0.3054  0.8538  0.8033
  918MOL0     C23850   7.187  11.502   4.248 -0.2433  0.9762 -0.7357
  918MOL0     C23851   7.144  11.628   4.203 -0.0802 -0.5720  0.4071
  918MOL0     C23852   7.173  11.743   4.282  0.2354  0.1870  1.1807
  918MOL0     C23853   7.250  11.733   4.397  0.4135  0.9398  0.5951
  918MOL0     O23854   7.296  11.852   4.442 -0.1270  0.0284  0.5914
  918MOL0     C23855   7.411  11.913   4.381 -0.1422 -0.2582  0.0075
  918MOL0     C23856   7.452  12.031   4.459  0.1774  1.3166 -0.1885
  918MOL0     C23857   7.588  12.091   4.422 -1.1827  0.1032 -0.0704
  918MOL0     C23858   7.602  12.225   4.496 -0.2137  0.3915  0.3605
  918MOL0     C23859   7.513  12.333   4.434  0.6073  0.7824 -0.2407
  918MOL0     C23860   7.422  12.394   4.376 -0.0288  0.3106 -0.3990
  918MOL0     C23861   7.303  11.614   4.440 -0.4872 -0.3204  0.8647
  918MOL0     C23862   7.267  11.494   4.372 -1.2921 -0.1101  0.0548
  918MOL0     H23863   7.330  11.114   4.133  0.4088 -2.2871  2.8871
  918MOL0     H23864   7.276  10.879   4.015  0.4223  2.1750 -2.0153
  918MOL0     H23865   6.974  10.843   3.876  0.2592  0.2208  0.7965
  918MOL0     H23866   7.118  10.735   3.868  2.0546 -0.6367  3.3262
  918MOL0     H23867   6.919  10.626   3.764 -2.3787 -1.9242  0.4033
  918MOL0     H23868   6.975  10.540   3.913 -0.4399  0.0768  2.4300
  918MOL0     H23869   6.745  10.536   3.938 -1.5306  0.6018 -2.5876
  918MOL0     H23870   6.775  10.688   4.032  0.0291  1.9175  0.1150
  918MOL0     H23871   6.708  10.825   3.849 -1.9734  0.7960  0.1832
  918MOL0     H23872   6.727  10.699   3.726 -0.0640  1.8008 -0.0767
  918MOL0     H23873   6.502  10.585   3.857 -0.3043 -0.0205 -0.2304
  918MOL0     H23874   6.498  10.759   3.902 -1.3488  0.7434 -1.1683
  918MOL0     H23875   6.508  10.818   3.668  1.5037 -0.6800  0.5845
  918MOL0     H23876   6.504  10.648   3.618  0.0278 -1.0367  0.7626
  918MOL0     H23877   6.275  10.613   3.688 -0.3640  0.4260 -2.5518
  918MOL0     H23878   6.295  10.736   3.817  1.3444 -4.6456  1.8867
  918MOL0     H23879   6.151  10.797   3.616  0.6702 -0.3604 -2.0123
  918MOL0     H23880   6.296  10.790   3.518 -0.5540  1.2891  0.0286
  918MOL0     H23881   6.279  10.971   3.863 -4.0530 -1.1255 -0.0915
  918MOL0     H23882   6.307  11.348   3.786 -0.1263 -1.4253 -1.7425
  918MOL0     H23883   6.337  11.237   3.932  0.9616  0.0451 -0.0850
  918MOL0     H23884   6.554  11.370   3.882  5.1184 -0.7602 -0.4393
  918MOL0     H23885   6.542  11.287   3.725 -3.3863 -4.0978 -0.4935
  918MOL0     H23886   6.574  11.070   3.840  2.5403  1.1956 -2.8178
  918MOL0     H23887   6.580  11.187   3.989  0.8445 -0.1423  0.5283
  918MOL0     H23888   6.785  11.110   3.925 -1.4433 -1.6327 -1.2072
  918MOL0     H23889   6.778  11.279   3.865 -0.7287  1.5760 -2.8076
  918MOL0     H23890   7.023  11.160   3.811  0.0904 -2.4854  0.3668
  918MOL0     H23891   7.234  11.133   3.804  0.8009  0.6447 -0.2118
  918MOL0     H23892   7.292  10.986   3.712 -1.4240 -0.8794  0.2386
  918MOL0     H23893   7.331  11.154   3.658 -1.6993  1.1967 -0.2988
  918MOL0     H23894   7.399  10.738   3.367  2.6971  2.6024  0.4576
  918MOL0     H23895   7.530  10.639   3.202  0.7658 -0.4772 -2.9447
  918MOL0     H23896   7.677  10.649   2.900 -0.3044  2.0436  2.0741
  918MOL0     H23897   7.657  10.569   3.052  2.6332  0.1727 -1.6940
  918MOL0     H23898   7.729  10.391   2.946 -1.0107 -1.9664  0.1805
  918MOL0     H23899   7.561  10.357   2.939 -1.3053  2.2076  0.5761
  918MOL0     H23900   7.660  10.491   2.703 -1.3079  1.2368 -1.0500
  918MOL0     H23901   7.518  10.392   2.734 -0.3755  1.0380  1.4986
  918MOL0     H23902   7.807  10.290   2.742 -0.5199  0.6653  0.4041
  918MOL0     H23903   7.669  10.203   2.809 -2.1287 -0.1752 -1.4042
  918MOL0     H23904   7.567  10.191   2.591  0.0186 -4.8601  1.8539
  918MOL0     H23905   7.729  10.114   2.606  2.1952  1.6762 -0.4331
  918MOL0     H23906   7.706  10.234   2.382 -0.7597 -0.5864  0.2661
  918MOL0     H23907   7.666  10.376   2.464 -0.8076 -0.4931  0.4605
  918MOL0     H23908   7.920  10.297   2.399  1.6139 -0.3806  0.6815
  918MOL0     H23909   7.928  10.299   2.574  0.8847  0.1337 -0.4488
  918MOL0     H23910   7.984  10.518   2.486  0.7523 -2.1486 -1.7018
  918MOL0     H23911   7.807  10.542   2.544 -0.3606  0.5974 -0.8303
  918MOL0     H23912   7.290  10.787   2.896 -0.0934  4.3308  0.9726
  918MOL0     H23913   7.131  10.866   3.055  0.8310 -2.6756 -0.7746
  918MOL0     H23914   6.934  11.001   3.350 -3.4514  0.7710  0.8489
  918MOL0     H23915   6.770  11.067   3.470  0.2258  1.6879 -0.0944
  918MOL0     H23916   6.864  10.944   4.123 -0.1665  0.1551 -3.4596
  918MOL0     H23917   6.927  11.190   4.190  2.8469  3.1142  1.6674
  918MOL0     H23918   7.113  11.639   4.099  1.0715 -0.2581  0.0782
  918MOL0     H23919   7.146  11.842   4.246  0.6412 -0.2983 -0.5338
  918MOL0     H23920   7.493  11.841   4.387  2.2029  2.3769  2.7921
  918MOL0     H23921   7.391  11.946   4.279 -2.0852 -1.5761 -0.0915
  918MOL0     H23922   7.458  11.996   4.563 -0.9681 -0.3157 -0.6410
  918MOL0     H23923   7.372  12.105   4.461  0.3587  1.5129 -0.1529
  918MOL0     H23924   7.603  12.106   4.315  1.5798 -4.5478 -0.5879
  918MOL0     H23925   7.666  12.030   4.469 -2.6768 -0.9471  1.1260
  918MOL0     H23926   7.702  12.268   4.491 -1.3498  3.3558  1.2099
  918MOL0     H23927   7.592  12.204   4.603 -0.7625 -0.5964  0.1314
  918MOL0     H23928   7.348  12.440   4.314  0.0309  0.9727  0.0134
  918MOL0     H23929   7.385  11.630   4.508 -0.5841  0.8664  0.7177
  918MOL0     H23930   7.316  11.401   4.397 -0.1570  0.1241 -1.1426
  919MOL0     O23931   3.527   4.061   4.200 -0.1805 -0.3324  0.1221
  919MOL0     C23932   3.644   4.049   4.227 -1.9875  0.3676 -0.2163
  919MOL0     O23933   3.743   4.150   4.214 -0.5434  0.6357 -0.0286
  919MOL0     C23934   3.729   4.269   4.156  0.3373  0.0016  0.6476
  919MOL0     C23935   3.663   4.283   4.039 -0.8769 -0.3278  0.6444
  919MOL0     C23936   3.644   4.406   3.975  0.1914  0.2730 -0.3354
  919MOL0     C23937   3.695   4.522   4.029  0.4729 -0.8160 -0.4135
  919MOL0     O23938   3.694   4.649   3.972 -0.1208 -0.1389  0.4626
  919MOL0     C23939   3.766   4.762   4.032 -0.1454 -0.2486  0.4062
  919MOL0     C23940   3.912   4.757   3.998  0.1962 -0.2739 -0.3286
  919MOL0     C23941   3.995   4.867   4.063  0.2951  0.4785 -0.6295
  919MOL0     C23942   4.135   4.859   4.003  0.4183  0.4695 -0.3213
  919MOL0     C23943   4.213   4.985   4.037 -0.6558 -0.4040  0.2666
  919MOL0     C23944   4.353   4.975   3.977 -0.4956  0.0890  0.4678
  919MOL0     C23945   4.429   5.109   3.979  0.6551 -0.1059 -0.1933
  919MOL0     C23946   4.566   5.097   3.908  0.4190  0.5885 -0.0971
  919MOL0     N23947   4.650   5.214   3.921 -1.1401  0.7499  0.2243
  919MOL0     C23948   4.618   5.343   3.895  0.1402  0.2810 -0.9154
  919MOL0     C23949   4.734   5.407   3.916  0.0400 -0.2331 -1.2697
  919MOL0     C23950   4.725   5.557   3.913 -0.2602 -0.5997 -1.1537
  919MOL0     C23951   4.709   5.610   4.064  1.0202  0.0780 -0.1765
  919MOL0     C23952   4.748   5.763   4.057  0.0764 -0.3022  0.3216
  919MOL0     C23953   4.852   5.792   4.176 -0.3261  0.3147  0.2161
  919MOL0     O23954   4.973   5.725   4.131  0.1373  0.3661 -0.3511
  919MOL0     C23955   5.068   5.703   4.231 -0.2510 -0.2809  0.5513
  919MOL0     C23956   5.070   5.779   4.347  0.6706  1.0366  0.6347
  919MOL0     C23957   5.151   5.760   4.453 -0.1665  0.2245 -0.9625
  919MOL0     C23958   5.122   5.850   4.570  0.6304  1.0750  0.0607
  919MOL0     C23959   5.266   5.671   4.431 -0.3278 -0.2154 -0.5550
  919MOL0     C23960   5.377   5.653   4.530  0.0823  0.4781  0.4254
  919MOL0     O23961   5.471   5.573   4.473  0.3331  0.0424  0.2095
  919MOL0     C23962   5.570   5.525   4.566  0.7942 -0.4527  0.1560
  919MOL0     C23963   5.576   5.388   4.605 -1.1160 -1.1180  0.1142
  919MOL0     C23964   5.676   5.346   4.689 -0.8234  0.1006  0.0689
  919MOL0     C23965   5.782   5.432   4.727 -0.4270 -0.2204  0.8223
  919MOL0     O23966   5.888   5.385   4.794 -0.6577  0.1498  0.0235
  919MOL0     C23967   5.987   5.466   4.873  1.0031 -0.0629  0.5858
  919MOL0     C23968   6.033   5.384   4.999 -0.5132 -0.1679 -0.9399
  919MOL0     C23969   6.123   5.266   4.971 -0.0390  0.0048 -0.0943
  919MOL0     C23970   6.097   5.142   5.059  0.0310 -0.0507  0.5866
  919MOL0     C23971   6.185   5.019   5.009  0.0126 -0.2210  0.9970
  919MOL0     C23972   6.191   4.912   5.113 -0.2095 -1.0467 -0.1572
  919MOL0     C23973   6.228   4.776   5.050  0.6444  0.3747  0.2491
  919MOL0     C23974   6.268   4.676   5.161 -1.1792  0.7813 -0.6909
  919MOL0    Cl23975   6.427   4.697   5.238 -0.3928  0.0889  0.2890
  919MOL0     C23976   5.780   5.562   4.682  0.3488 -0.0579  0.5161
  919MOL0     C23977   5.677   5.611   4.596  0.7688 -0.4636 -0.4229
  919MOL0     O23978   5.383   5.715   4.634  0.9806 -0.4854  0.7307
  919MOL0     C23979   5.264   5.593   4.317 -0.3432  0.3787  0.6241
  919MOL0     C23980   5.176   5.612   4.211 -0.8990 -0.2768 -0.5612
  919MOL0     N23981   4.834   5.322   3.955 -0.1685 -0.4510 -0.1974
  919MOL0     N23982   4.780   5.207   3.958  0.3410 -0.4586  0.4580
  919MOL0     C23983   3.770   4.502   4.150 -0.1283  0.5069 -0.5366
  919MOL0     C23984   3.793   4.376   4.204  0.2781 -0.7647  0.3146
  919MOL0     C23985   3.686   3.907   4.253 -0.4765  0.9168  0.6197
  919MOL0     C23986   3.600   3.788   4.250 -0.2363 -0.6614  0.0198
  919MOL0     C23987   3.650   3.665   4.293  0.2756  0.4444 -0.4756
  919MOL0     C23988   3.791   3.654   4.329  0.7610 -0.7569 -0.1800
  919MOL0     O23989   3.833   3.524   4.348 -0.2115  0.3969  0.6816
  919MOL0     C23990   3.916   3.496   4.455  0.3683 -0.0638  0.2410
  919MOL0     C23991   4.069   3.452   4.417  0.3138 -0.3515 -0.8094
  919MOL0     C23992   4.176   3.513   4.511 -0.3562  1.3258  0.2313
  919MOL0     C23993   4.318   3.471   4.472 -0.2293 -0.2436  0.3240
  919MOL0     C23994   4.341   3.327   4.469  0.4640  0.7840 -0.4005
  919MOL0     C23995   4.369   3.202   4.480  0.9830 -0.4659 -0.6194
  919MOL0     C23996   3.870   3.771   4.330  0.9936  0.4332  0.4914
  919MOL0     C23997   3.816   3.892   4.299 -0.1070 -0.2996  0.7651
  919MOL0     H23998   3.608   4.195   4.007 -0.0384 -1.2339  1.6169
  919MOL0     H23999   3.585   4.413   3.884  1.3605 -3.5362 -1.5696
  919MOL0     H24000   3.715   4.851   3.994 -0.0113 -0.8479 -1.2409
  919MOL0     H24001   3.747   4.762   4.140  2.6796 -1.5637  0.9859
  919MOL0     H24002   3.954   4.665   4.039  1.2314 -0.1136 -0.9912
  919MOL0     H24003   3.929   4.752   3.890  2.8578  0.8595 -0.0341
  919MOL0     H24004   3.961   4.969   4.044 -3.2424 -0.5593 -0.4775
  919MOL0     H24005   4.004   4.841   4.169 -0.4298 -2.9847 -1.2850
  919MOL0     H24006   4.186   4.765   4.026  0.9045  1.2137  1.8608
  919MOL0     H24007   4.127   4.853   3.894 -1.5554  0.8273 -0.2351
  919MOL0     H24008   4.155   5.070   4.000 -1.2729 -0.8014  0.3241
  919MOL0     H24009   4.225   4.988   4.145 -1.5789 -3.1350  0.5280
  919MOL0     H24010   4.405   4.907   4.046 -3.6437 -1.3643  1.5827
  919MOL0     H24011   4.349   4.928   3.879 -1.8786  3.5685 -1.3162
  919MOL0     H24012   4.387   5.197   3.930  1.8780 -0.3391 -1.7147
  919MOL0     H24013   4.450   5.122   4.086  1.5434 -0.8534 -0.2645
  919MOL0     H24014   4.540   5.093   3.802  1.5555  2.7956 -0.5257
  919MOL0     H24015   4.616   5.004   3.934  0.2912  1.1130  2.2308
  919MOL0     H24016   4.527   5.393   3.865 -1.5591 -1.8356  0.3219
  919MOL0     H24017   4.823   5.594   3.879  0.0367  2.3924  2.3514
  919MOL0     H24018   4.646   5.602   3.852  0.3053  3.2169  0.6130
  919MOL0     H24019   4.780   5.557   4.129  0.4890  0.0715  0.4047
  919MOL0     H24020   4.609   5.603   4.108  0.9109 -1.3494 -0.5970
  919MOL0     H24021   4.655   5.818   4.076  0.8128  1.2427 -0.4082
  919MOL0     H24022   4.776   5.800   3.958  2.4982  1.7770  1.6741
  919MOL0     H24023   4.822   5.743   4.269  1.8287 -1.2173  0.1838
  919MOL0     H24024   4.865   5.897   4.205 -1.3623  0.5125 -0.0172
  919MOL0     H24025   4.996   5.858   4.349 -0.0057  0.5009 -1.0548
  919MOL0     H24026   5.016   5.878   4.575 -0.4525 -2.6664  2.3397
  919MOL0     H24027   5.145   5.807   4.668 -0.1659  0.2295 -0.1135
  919MOL0     H24028   5.174   5.945   4.555  0.1129  1.2271 -0.8304
  919MOL0     H24029   5.498   5.324   4.565 -1.0644 -2.0088  1.3989
  919MOL0     H24030   5.681   5.248   4.735  0.8118 -2.5566 -4.9870
  919MOL0     H24031   6.075   5.497   4.816  1.4871  0.3742  1.5512
  919MOL0     H24032   5.938   5.554   4.915  1.8430 -0.4466  2.4842
  919MOL0     H24033   6.089   5.460   5.054 -0.8695  2.1697 -3.5460
  919MOL0     H24034   5.945   5.353   5.055  0.0533 -3.1350 -1.4962
  919MOL0     H24035   6.231   5.285   4.971  0.0766 -0.5523 -0.9591
  919MOL0     H24036   6.099   5.238   4.868  2.3435 -2.9278 -0.0211
  919MOL0     H24037   6.139   5.154   5.159  0.5582 -0.4177  0.4149
  919MOL0     H24038   5.989   5.125   5.065 -0.3022  2.1910  1.6289
  919MOL0     H24039   6.280   5.068   4.983 -0.7104 -0.7692 -3.4105
  919MOL0     H24040   6.139   4.974   4.922  3.4615 -1.2439 -0.4838
  919MOL0     H24041   6.259   4.953   5.188 -2.0483  0.0527  0.9810
  919MOL0     H24042   6.092   4.914   5.159 -0.8078 -0.3148 -1.4062
  919MOL0     H24043   6.297   4.786   4.966 -1.8186 -1.0050 -2.0909
  919MOL0     H24044   6.137   4.747   4.997  3.1143 -3.2549 -2.5159
  919MOL0     H24045   6.252   4.575   5.122 -0.8831  0.8576 -1.0164
  919MOL0     H24046   6.199   4.693   5.244  1.9795 -2.8689  3.2441
  919MOL0     H24047   5.859   5.634   4.702  0.4374 -0.0301  0.0565
  919MOL0     H24048   5.674   5.708   4.546 -1.0869  0.2340  0.9169
  919MOL0     H24049   5.331   5.515   4.284 -0.4581  0.6150 -0.1846
  919MOL0     H24050   5.186   5.575   4.110 -2.0634 -1.5282 -0.2412
  919MOL0     H24051   3.805   4.594   4.195 -0.9541  1.2466 -1.3706
  919MOL0     H24052   3.846   4.376   4.299  0.5799  1.3514  0.1970
  919MOL0     H24053   3.502   3.807   4.207  0.9017 -1.1779 -3.0445
  919MOL0     H24054   3.587   3.577   4.294  1.3767 -0.4496 -2.5858
  919MOL0     H24055   3.915   3.573   4.532  2.3287 -1.6695  2.0044
  919MOL0     H24056   3.863   3.410   4.498  0.6228 -0.4385 -0.1837
  919MOL0     H24057   4.083   3.487   4.315 -0.2387  1.7481 -0.2229
  919MOL0     H24058   4.069   3.344   4.432  1.1535 -0.0865  1.6540
  919MOL0     H24059   4.142   3.469   4.606 -0.2314  1.6456  0.4249
  919MOL0     H24060   4.162   3.621   4.508 -6.6962  0.8780 -0.8435
  919MOL0     H24061   4.395   3.517   4.534 -0.3604  0.6024 -0.1298
  919MOL0     H24062   4.349   3.519   4.378 -3.3004 -0.6128 -1.0048
  919MOL0     H24063   4.367   3.097   4.502 -0.5509  0.2980  3.9844
  919MOL0     H24064   3.970   3.763   4.371  1.1656  0.4319  0.0779
  919MOL0     H24065   3.875   3.982   4.309  1.7809 -1.1225 -1.8523
  920MOL0     O24066   8.590   1.063   6.783 -0.0592  0.5358  0.2068
  920MOL0     C24067   8.614   1.161   6.717  0.5431 -0.1436  0.5226
  920MOL0     O24068   8.739   1.207   6.696 -0.0868  0.0625 -0.2200
  920MOL0     C24069   8.849   1.129   6.716 -0.0819  0.6052 -0.7767
  920MOL0     C24070   8.954   1.149   6.626  1.1687 -0.2245 -0.6234
  920MOL0     C24071   9.082   1.086   6.630  0.5093  0.5942 -0.5634
  920MOL0     C24072   9.104   1.000   6.743  0.7272  0.4361  0.1747
  920MOL0     O24073   9.220   0.938   6.760 -0.3730 -0.5909  0.0478
  920MOL0     C24074   9.293   0.891   6.651  1.0422 -0.7826  0.1531
  920MOL0     C24075   9.398   0.810   6.710 -0.7998  0.4240  0.3738
  920MOL0     C24076   9.356   0.660   6.709 -0.1996  0.8501 -0.6400
  920MOL0     C24077   9.477   0.574   6.673  0.0957 -0.1541  0.0426
  920MOL0     C24078   9.456   0.425   6.722  0.0598  0.2723  0.0850
  920MOL0     C24079   9.593   0.374   6.779 -0.3298 -0.1527 -0.0308
  920MOL0     C24080   9.577   0.240   6.852 -0.4506 -0.0222 -0.4268
  920MOL0     C24081   9.535   0.112   6.787 -0.2787 -0.5942 -0.6744
  920MOL0     N24082   9.587   0.005   6.868 -0.0282  0.6894  0.4531
  920MOL0     C24083   9.698  -0.069   6.831 -0.2916 -0.1556  0.0776
  920MOL0     C24084   9.738  -0.133   6.943  0.4826 -0.7876 -1.1193
  920MOL0     C24085   9.852  -0.227   6.952 -0.1464  0.0140  0.7765
  920MOL0     C24086   9.917  -0.228   7.089  0.4389 -1.0026  0.0968
  920MOL0     C24087   9.989  -0.097   7.126 -0.2106  0.7363 -0.0303
  920MOL0     C24088  10.097  -0.057   7.020 -0.0899 -0.2380  0.1999
  920MOL0     O24089  10.027   0.019   6.916  0.2602 -0.0481 -0.3245
  920MOL0     C24090  10.095   0.082   6.813 -0.4141  0.3155  0.2980
  920MOL0     C24091  10.036   0.202   6.772  0.1783 -0.4351  1.2282
  920MOL0     C24092  10.097   0.273   6.670 -0.2829  0.2674  0.2817
  920MOL0     C24093  10.028   0.392   6.615  0.3355 -0.6330  0.2596
  920MOL0     C24094  10.221   0.230   6.619 -0.1651  0.1891  1.4593
  920MOL0     C24095  10.295   0.302   6.514 -0.3209 -0.4713 -0.0904
  920MOL0     O24096  10.291   0.442   6.508 -1.0078 -0.5873 -0.4808
  920MOL0     C24097  10.338   0.511   6.409  0.1479 -1.1288 -0.6059
  920MOL0     C24098  10.433   0.617   6.440  0.1076 -0.7104 -0.4360
  920MOL0     C24099  10.468   0.715   6.348 -0.8052  0.7523  1.0780
  920MOL0     C24100  10.414   0.709   6.218 -0.0629  0.0261  0.0738
  920MOL0     O24101  10.451   0.794   6.118  0.2866  0.3743 -0.0928
  920MOL0     C24102  10.526   0.910   6.131  0.1054 -0.2796  0.7286
  920MOL0     C24103  10.433   1.011   6.188 -0.9024  0.8970 -0.1668
  920MOL0     C24104  10.501   1.143   6.226 -0.5252  0.3815 -0.0526
  920MOL0     C24105  10.627   1.121   6.321  0.0658  0.2286  0.7570
  920MOL0     C24106  10.685   1.268   6.328 -0.0741  0.9489  0.3428
  920MOL0     C24107  10.812   1.266   6.410 -0.4215  0.1440 -0.0928
  920MOL0     C24108  10.798   1.249   6.560 -0.4354  0.9653  0.3043
  920MOL0     C24109  10.938   1.267   6.624  0.2945 -0.4047 -0.8211
  920MOL0    Cl24110  11.011   1.428   6.611 -0.2570  0.4639  0.3433
  920MOL0     C24111  10.341   0.599   6.177 -0.1378  0.6273 -0.0473
  920MOL0     C24112  10.308   0.496   6.273  1.0049  0.9253  0.4986
  920MOL0     O24113  10.357   0.232   6.435  1.1038  0.0842 -0.1175
  920MOL0     C24114  10.279   0.114   6.662  0.1023  0.6925  0.2297
  920MOL0     C24115  10.214   0.037   6.753  0.5936 -0.2109 -0.5471
  920MOL0     N24116   9.653  -0.108   7.045  0.4624 -0.2584 -0.2698
  920MOL0     N24117   9.566  -0.017   6.995  0.1894 -0.2999  0.8028
  920MOL0     C24118   9.005   0.984   6.837  0.0437  0.1840 -0.1843
  920MOL0     C24119   8.874   1.035   6.821 -0.6763 -0.7775 -0.6684
  920MOL0     C24120   8.502   1.253   6.699 -0.1909 -0.4016 -0.8750
  920MOL0     C24121   8.363   1.222   6.715 -0.9384 -0.0041 -0.0875
  920MOL0     C24122   8.268   1.307   6.681  0.9981 -0.4998  0.2968
  920MOL0     C24123   8.297   1.437   6.643 -0.6801  0.3876 -0.7433
  920MOL0     O24124   8.189   1.524   6.630 -0.1169 -0.8480 -0.4515
  920MOL0     C24125   8.196   1.635   6.541 -0.0367 -0.4471  0.1042
  920MOL0     C24126   8.056   1.707   6.536 -0.1188  0.6072 -0.4301
  920MOL0     C24127   7.944   1.605   6.553  0.5223 -1.1401 -0.1208
  920MOL0     C24128   7.896   1.579   6.699  0.3269 -0.4906 -0.1845
  920MOL0     C24129   7.798   1.469   6.714  0.8241 -0.0786 -0.6647
  920MOL0     C24130   7.706   1.388   6.717 -0.4655  0.5841  0.9986
  920MOL0     C24131   8.428   1.478   6.630 -1.1371 -0.1364  0.2280
  920MOL0     C24132   8.528   1.384   6.670  0.5146 -0.1925  0.2899
  920MOL0     H24133   8.934   1.227   6.553  0.1275  1.0532  0.9522
  920MOL0     H24134   9.154   1.110   6.553 -1.8303  2.1110 -2.4138
  920MOL0     H24135   9.224   0.841   6.582  2.7751 -2.0974 -0.7010
  920MOL0     H24136   9.349   0.974   6.606 -1.2634 -0.1708 -1.8255
  920MOL0     H24137   9.481   0.817   6.639  0.5892  1.1630  2.0123
  920MOL0     H24138   9.429   0.852   6.806 -2.2143  3.6377 -0.4241
  920MOL0     H24139   9.322   0.632   6.810  0.3837  1.3035 -0.3120
  920MOL0     H24140   9.275   0.640   6.639 -2.2176  2.8759  0.9496
  920MOL0     H24141   9.487   0.563   6.564  0.0109 -3.3072  0.2547
  920MOL0     H24142   9.574   0.609   6.711  0.8164 -0.9464 -0.9915
  920MOL0     H24143   9.382   0.421   6.802  0.6791 -2.7795  0.6521
  920MOL0     H24144   9.423   0.365   6.637 -1.0635  0.5508  0.3171
  920MOL0     H24145   9.651   0.346   6.691  2.0741 -0.9121  1.7146
  920MOL0     H24146   9.653   0.445   6.836 -0.4991  0.2631 -0.3669
  920MOL0     H24147   9.680   0.230   6.887 -0.2223  0.9428 -0.8105
  920MOL0     H24148   9.521   0.254   6.945 -1.3201 -1.4326 -0.7009
  920MOL0     H24149   9.578   0.101   6.687 -0.5720 -1.4860 -0.7142
  920MOL0     H24150   9.427   0.113   6.769 -0.0833  1.7424 -2.0608
  920MOL0     H24151   9.748  -0.073   6.735  1.2301  1.0111  0.7946
  920MOL0     H24152   9.817  -0.328   6.927  2.6765 -0.4568 -1.7994
  920MOL0     H24153   9.912  -0.191   6.868  0.9064 -2.7040  0.2552
  920MOL0     H24154   9.983  -0.315   7.092  1.2780 -0.3509  1.0900
  920MOL0     H24155   9.846  -0.250   7.170  0.5465 -2.0597 -0.0820
  920MOL0     H24156  10.016  -0.098   7.232 -2.8554 -0.0993  0.7071
  920MOL0     H24157   9.914  -0.018   7.118 -2.4811 -1.4607 -5.2548
  920MOL0     H24158  10.153  -0.141   6.978  3.1945  1.4666  0.8698
  920MOL0     H24159  10.166   0.011   7.071 -1.6198  0.4340  1.4653
  920MOL0     H24160   9.937   0.230   6.809  0.3994 -0.0745  1.5517
  920MOL0     H24161  10.023   0.407   6.507 -0.1198  0.8521  0.4605
  920MOL0     H24162   9.926   0.395   6.652  1.6948  0.1849  4.4355
  920MOL0     H24163  10.073   0.481   6.660 -0.7982 -0.8746  1.9397
  920MOL0     H24164  10.459   0.621   6.545  0.5948 -0.8100 -0.5526
  920MOL0     H24165  10.533   0.794   6.384 -1.3196  0.6510  2.2602
  920MOL0     H24166  10.614   0.885   6.192  0.3784 -0.9370  0.0954
  920MOL0     H24167  10.547   0.933   6.026 -3.2088 -0.1747  0.0069
  920MOL0     H24168  10.341   1.016   6.129 -2.8397 -0.6005  2.5038
  920MOL0     H24169  10.387   0.968   6.278 -1.9374  1.2026 -0.5372
  920MOL0     H24170  10.425   1.197   6.283 -0.3184  0.0677  0.5271
  920MOL0     H24171  10.525   1.199   6.135  1.0405 -2.7479 -1.7553
  920MOL0     H24172  10.579   1.076   6.408  0.2216 -1.8559 -0.1786
  920MOL0     H24173  10.698   1.050   6.276  2.3986  2.0047  1.4009
  920MOL0     H24174  10.618   1.345   6.368 -0.1996  0.6968  0.6226
  920MOL0     H24175  10.714   1.294   6.226  0.8613 -0.3510  0.2484
  920MOL0     H24176  10.877   1.194   6.358 -1.4503  1.9924 -4.3682
  920MOL0     H24177  10.869   1.359   6.399  0.1546  0.0225  1.6016
  920MOL0     H24178  10.768   1.145   6.577 -0.5160  1.0600  0.7330
  920MOL0     H24179  10.728   1.324   6.597  0.5475  1.9215  0.2788
  920MOL0     H24180  11.010   1.209   6.567  1.4472  2.6476 -2.7510
  920MOL0     H24181  10.942   1.249   6.732 -1.8497  1.8139 -0.2606
  920MOL0     H24182  10.312   0.591   6.073 -0.3008 -1.0699  0.0937
  920MOL0     H24183  10.251   0.409   6.242  1.7159  1.7926 -4.0002
  920MOL0     H24184  10.381   0.079   6.649  0.3450  1.3268  0.3640
  920MOL0     H24185  10.268  -0.041   6.804 -2.2081 -0.5307  2.2612
  920MOL0     H24186   9.037   0.913   6.912  2.8401 -1.4380 -2.7049
  920MOL0     H24187   8.806   1.026   6.905 -0.1343  2.9943  0.3803
  920MOL0     H24188   8.321   1.129   6.752 -0.2883  0.8259  3.0658
  920MOL0     H24189   8.167   1.294   6.718  0.8906 -0.1554  0.1219
  920MOL0     H24190   8.268   1.702   6.589  0.8525 -2.0848  1.1180
  920MOL0     H24191   8.243   1.601   6.448  5.1806 -0.1132  2.2828
  920MOL0     H24192   8.034   1.771   6.450 -1.7068  2.6770  1.3763
  920MOL0     H24193   8.041   1.775   6.621  1.3432  3.2322 -2.1165
  920MOL0     H24194   7.959   1.515   6.493 -1.6832 -2.0429  0.5736
  920MOL0     H24195   7.863   1.648   6.492  1.3755 -3.4323 -3.1317
  920MOL0     H24196   7.844   1.665   6.742 -1.0297 -1.2729 -0.2170
  920MOL0     H24197   7.984   1.558   6.760 -0.0802 -0.7569  0.3107
  920MOL0     H24198   7.620   1.325   6.709  0.0960  0.0778 -3.0489
  920MOL0     H24199   8.456   1.574   6.587 -1.3028  0.3628  1.2062
  920MOL0     H24200   8.631   1.408   6.646  0.0850  1.5024 -0.0174
  921MOL0     O24201   0.714  10.624   1.585  0.3675 -0.1685  0.4120
  921MOL0     C24202   0.667  10.538   1.509  0.2372 -0.1091  0.1882
  921MOL0     O24203   0.567  10.459   1.539  1.0328  0.0629  0.3767
  921MOL0     C24204   0.482  10.509   1.639 -0.9231  0.2096 -0.5432
  921MOL0     C24205   0.437  10.417   1.727  0.3646 -0.3384 -0.0964
  921MOL0     C24206   0.339  10.450   1.822 -0.2450  0.5671 -0.4590
  921MOL0     C24207   0.271  10.568   1.818  0.1967 -0.1353 -1.2364
  921MOL0     O24208   0.176  10.593   1.920  0.1989  0.4313  0.0760
  921MOL0     C24209   0.122  10.729   1.949  0.6722  0.4326  1.0087
  921MOL0     C24210   0.045  10.735   2.082 -0.0688  0.9395  0.0727
  921MOL0     C24211  -0.071  10.641   2.086  1.5690  0.1251  0.4455
  921MOL0     C24212  -0.138  10.634   2.221  0.0120 -0.5052 -0.4905
  921MOL0     C24213  -0.260  10.543   2.226 -0.1127  0.1926 -0.0774
  921MOL0     C24214  -0.378  10.597   2.152 -0.7855  0.5993  0.2668
  921MOL0     C24215  -0.492  10.494   2.133  0.2837  0.7248  0.1278
  921MOL0     C24216  -0.605  10.557   2.060  0.1460  0.0390 -0.8817
  921MOL0     N24217  -0.701  10.630   2.145 -0.6477 -0.2955  0.1601
  921MOL0     C24218  -0.679  10.743   2.221  0.4824  0.4774  0.3454
  921MOL0     C24219  -0.807  10.783   2.247  0.7092  0.5688 -0.8842
  921MOL0     C24220  -0.826  10.915   2.334  0.3003  0.3639  0.3401
  921MOL0     C24221  -0.950  10.926   2.425  0.5101  0.3171  0.7784
  921MOL0     C24222  -0.996  11.066   2.462 -0.0819 -0.2605  0.2052
  921MOL0     C24223  -0.929  11.136   2.576 -0.1310  0.2353  0.0276
  921MOL0     O24224  -1.033  11.212   2.650  0.4757  0.9101  0.4068
  921MOL0     C24225  -1.001  11.244   2.779  1.1211  0.2556 -0.4590
  921MOL0     C24226  -1.104  11.285   2.858  0.3501  0.5248 -0.1917
  921MOL0     C24227  -1.078  11.326   2.992 -0.3432 -1.0884  0.2779
  921MOL0     C24228  -1.206  11.353   3.068  0.2198  0.6012 -0.3399
  921MOL0     C24229  -0.943  11.329   3.040  0.1339 -0.0392  0.0119
  921MOL0     C24230  -0.916  11.372   3.175  0.3321  0.2635  0.1534
  921MOL0     O24231  -0.855  11.492   3.204 -0.7721  0.5873  0.1881
  921MOL0     C24232  -0.787  11.510   3.325  1.0336 -0.8672  0.3239
  921MOL0     C24233  -0.859  11.525   3.443  0.8074  0.1189 -0.2795
  921MOL0     C24234  -0.785  11.547   3.565 -0.3454  0.4059  0.0174
  921MOL0     C24235  -0.647  11.525   3.576  0.4143 -0.4001  0.2010
  921MOL0     O24236  -0.577  11.554   3.696  0.7100  0.5988  0.6388
  921MOL0     C24237  -0.626  11.481   3.813  0.3711 -1.2839  0.3495
  921MOL0     C24238  -0.647  11.326   3.805 -0.1533 -0.2814 -0.5974
  921MOL0     C24239  -0.646  11.256   3.939  0.3862 -0.3016 -0.4205
  921MOL0     C24240  -0.687  11.110   3.934 -0.3189 -0.2473 -0.5529
  921MOL0     C24241  -0.730  11.070   4.075 -0.2768  0.7736  0.7101
  921MOL0     C24242  -0.878  11.098   4.111 -0.4122 -0.5306 -0.2354
  921MOL0     C24243  -0.912  11.064   4.253 -0.4390 -0.5327 -0.7331
  921MOL0     C24244  -0.945  10.916   4.249  0.2027 -0.1617  0.9310
  921MOL0    Cl24245  -0.992  10.871   4.409  0.3650  0.2063 -0.4838
  921MOL0     C24246  -0.582  11.499   3.455  0.9402  0.3724  0.2979
  921MOL0     C24247  -0.646  11.493   3.336 -0.5642  0.4385 -0.6519
  921MOL0     O24248  -0.947  11.291   3.259  0.0694  0.7959 -0.3462
  921MOL0     C24249  -0.838  11.287   2.957  0.2597  0.9812 -0.2380
  921MOL0     C24250  -0.869  11.248   2.828  0.2792  0.1673  0.1491
  921MOL0     N24251  -0.898  10.688   2.212 -1.1674  0.0232  0.6070
  921MOL0     N24252  -0.834  10.607   2.133  1.4073 -0.7300  0.1286
  921MOL0     C24253   0.311  10.677   1.736  0.0879  0.3693 -0.2618
  921MOL0     C24254   0.419  10.639   1.647  0.1644  0.1461  0.9773
  921MOL0     C24255   0.743  10.516   1.380  0.3613  0.2382 -0.8586
  921MOL0     C24256   0.859  10.595   1.356  0.9398 -0.8027 -0.0905
  921MOL0     C24257   0.931  10.584   1.242  0.2539 -0.1128 -0.0655
  921MOL0     C24258   0.891  10.497   1.141 -0.1555  0.1666  0.0143
  921MOL0     O24259   0.967  10.487   1.031  0.3976  0.1348 -0.0243
  921MOL0     C24260   0.981  10.364   0.964 -0.2156  0.4820 -0.0428
  921MOL0     C24261   1.130  10.336   0.924 -1.2936  0.3815  0.2847
  921MOL0     C24262   1.206  10.465   0.882 -0.3740 -0.1849  0.0786
  921MOL0     C24263   1.157  10.522   0.746 -0.9232 -0.2395 -0.0668
  921MOL0     C24264   1.266  10.594   0.677 -0.1119  1.0815 -0.5047
  921MOL0     C24265   1.363  10.636   0.619  0.6073  0.0721 -0.1001
  921MOL0     C24266   0.778  10.420   1.155  0.9745  0.8232 -0.4132
  921MOL0     C24267   0.708  10.421   1.281 -0.6305  0.5567 -0.2206
  921MOL0     H24268   0.499  10.329   1.742  0.9157  0.3246  1.7969
  921MOL0     H24269   0.319  10.382   1.904  0.2918  1.2336  0.2363
  921MOL0     H24270   0.206  10.799   1.953  1.7323 -0.7135 -0.0608
  921MOL0     H24271   0.055  10.756   1.867  1.5556  0.3320  0.2360
  921MOL0     H24272   0.120  10.728   2.161  0.4346  1.8990 -0.3158
  921MOL0     H24273   0.005  10.835   2.101 -2.5241 -0.1121  0.9601
  921MOL0     H24274  -0.132  10.692   2.012  0.2876 -1.4177  0.4004
  921MOL0     H24275  -0.044  10.541   2.050 -1.6290  0.0489 -2.1754
  921MOL0     H24276  -0.057  10.598   2.285  1.2337  2.6686 -0.0769
  921MOL0     H24277  -0.159  10.737   2.253  2.2832  0.5682 -2.1461
  921MOL0     H24278  -0.239  10.439   2.198  0.5425  0.7526 -1.8600
  921MOL0     H24279  -0.293  10.527   2.329 -1.6611 -1.3074 -0.7532
  921MOL0     H24280  -0.426  10.679   2.207  0.2464  1.6453 -0.3598
  921MOL0     H24281  -0.341  10.651   2.064  1.3804  1.4029  1.6007
  921MOL0     H24282  -0.445  10.412   2.077 -0.3447  0.1258  0.4514
  921MOL0     H24283  -0.526  10.458   2.231 -3.7413 -0.6626 -1.5774
  921MOL0     H24284  -0.668  10.474   2.027  1.4041 -1.7092  0.8508
  921MOL0     H24285  -0.565  10.622   1.982  0.1334  2.9526  1.3743
  921MOL0     H24286  -0.588  10.786   2.260  0.7111  1.1867 -0.9239
  921MOL0     H24287  -0.745  10.919   2.407 -0.0308 -0.6460  0.7832
  921MOL0     H24288  -0.815  11.003   2.269 -1.8480 -1.0610 -2.1430
  921MOL0     H24289  -0.943  10.867   2.517  0.9222 -3.0624 -1.2476
  921MOL0     H24290  -1.030  10.878   2.367 -0.4369  4.1273 -1.4363
  921MOL0     H24291  -1.105  11.063   2.474 -0.3579 -1.1036 -2.0411
  921MOL0     H24292  -0.986  11.128   2.372 -0.7631 -1.2073 -0.5528
  921MOL0     H24293  -0.865  11.210   2.528 -2.2271  2.3733  0.3555
  921MOL0     H24294  -0.875  11.068   2.643 -0.8278  1.0089  1.4168
  921MOL0     H24295  -1.202  11.265   2.816  0.3993 -2.7780  0.9863
  921MOL0     H24296  -1.199  11.443   3.130 -0.7141  0.9553 -0.7388
  921MOL0     H24297  -1.291  11.363   3.000  0.6121  0.3677 -0.8765
  921MOL0     H24298  -1.221  11.269   3.136 -4.0068  1.6487  0.2847
  921MOL0     H24299  -0.968  11.523   3.440  0.6150  3.3672  0.6962
  921MOL0     H24300  -0.826  11.582   3.659  0.6417 -3.1741  1.9523
  921MOL0     H24301  -0.558  11.500   3.897  0.2248 -2.5388  0.7748
  921MOL0     H24302  -0.719  11.532   3.841  2.5852  4.3916 -1.2291
  921MOL0     H24303  -0.734  11.292   3.748 -1.7882  0.0015  1.5948
  921MOL0     H24304  -0.565  11.297   3.739 -0.2620  0.2783 -0.9927
  921MOL0     H24305  -0.716  11.310   4.003  0.8978  0.5367 -0.5486
  921MOL0     H24306  -0.549  11.259   3.991  1.2945 -4.3888 -1.5051
  921MOL0     H24307  -0.768  11.089   3.863  0.7936  0.6783 -2.1491
  921MOL0     H24308  -0.601  11.046   3.912 -1.6092 -1.6074 -1.8947
  921MOL0     H24309  -0.674  11.118   4.157  0.4022  0.1114  0.6501
  921MOL0     H24310  -0.711  10.963   4.077  2.5291  1.1806  1.3140
  921MOL0     H24311  -0.888  11.205   4.089  5.1485 -0.0608 -1.8180
  921MOL0     H24312  -0.936  11.030   4.048 -0.5594 -0.4459 -0.1911
  921MOL0     H24313  -0.999  11.125   4.282  0.0629  1.0603 -2.3988
  921MOL0     H24314  -0.828  11.088   4.320  0.2403  1.6689 -2.2490
  921MOL0     H24315  -0.858  10.858   4.220  1.5590  1.2894  1.9227
  921MOL0     H24316  -1.025  10.904   4.175  1.8728  0.5574 -1.1056
  921MOL0     H24317  -0.474  11.487   3.454  1.0202  0.9922 -1.1480
  921MOL0     H24318  -0.580  11.471   3.253  0.1412 -2.1723  0.4824
  921MOL0     H24319  -0.734  11.288   2.987  0.1620 -1.3402  0.2968
  921MOL0     H24320  -0.786  11.227   2.761 -0.1555  2.5053 -1.2555
  921MOL0     H24321   0.266  10.775   1.723 -2.0050 -0.7114 -1.6087
  921MOL0     H24322   0.452  10.709   1.572  0.5267  1.3271  2.2069
  921MOL0     H24323   0.890  10.671   1.427 -1.4192  1.2406 -1.1171
  921MOL0     H24324   1.015  10.652   1.229 -0.0280  0.3451  0.4757
  921MOL0     H24325   0.954  10.272   1.017  0.2120 -0.6679 -1.7377
  921MOL0     H24326   0.917  10.372   0.875  1.0171 -0.1103 -1.0087
  921MOL0     H24327   1.137  10.267   0.840  0.0223  0.1527  0.5575
  921MOL0     H24328   1.192  10.287   1.000 -3.4699 -3.2916 -0.0597
  921MOL0     H24329   1.312  10.442   0.873  0.1920  2.0784  0.4360
  921MOL0     H24330   1.210  10.544   0.958 -0.5530  0.9862 -1.1094
  921MOL0     H24331   1.074  10.591   0.764 -1.3661 -0.7152 -0.2536
  921MOL0     H24332   1.113  10.447   0.680  0.4155  0.0136 -1.2914
  921MOL0     H24333   1.446  10.675   0.565 -1.4428  2.6420 -1.6251
  921MOL0     H24334   0.735  10.357   1.078 -0.3553  2.6247 -1.2233
  921MOL0     H24335   0.618  10.360   1.287 -2.6729  3.4086  0.0936
  922MOL0     O24336   5.551   2.149   6.795  0.8499  0.3145 -0.7737
  922MOL0     C24337   5.592   2.107   6.687  0.8626 -0.4338  0.2806
  922MOL0     O24338   5.626   1.978   6.661  0.1431  0.6271 -0.3489
  922MOL0     C24339   5.640   1.885   6.760  0.4220  0.2983  0.6276
  922MOL0     C24340   5.522   1.828   6.824 -0.3515 -0.8727  0.2878
  922MOL0     C24341   5.539   1.701   6.889 -0.0655 -0.2068  0.7586
  922MOL0     C24342   5.658   1.630   6.905  0.1263 -0.3587  0.4709
  922MOL0     O24343   5.653   1.514   6.981  0.0524  0.2125  0.2415
  922MOL0     C24344   5.774   1.436   6.983  0.7543 -0.3404 -0.4291
  922MOL0     C24345   5.745   1.294   7.033 -0.5333  0.8229  0.0153
  922MOL0     C24346   5.855   1.188   7.024  0.3335  0.1083  0.0129
  922MOL0     C24347   5.939   1.189   6.897 -0.7057  0.6500  0.4421
  922MOL0     C24348   6.031   1.062   6.913  0.5250  0.2631 -0.5100
  922MOL0     C24349   6.106   1.039   6.777  0.3913 -0.0443 -0.2748
  922MOL0     C24350   6.258   1.045   6.799 -0.2528  0.6669 -0.0112
  922MOL0     C24351   6.317   0.904   6.845  0.8383 -1.1775  0.2889
  922MOL0     N24352   6.270   0.853   6.971 -0.3560 -0.4530 -0.1474
  922MOL0     C24353   6.175   0.752   6.980 -0.8091 -0.3961 -0.1056
  922MOL0     C24354   6.172   0.714   7.110 -0.3312  0.4764  0.0870
  922MOL0     C24355   6.106   0.614   7.187 -0.0076  0.6591  1.1024
  922MOL0     C24356   6.041   0.494   7.102  0.3392 -0.2772 -0.4424
  922MOL0     C24357   6.123   0.371   7.056 -1.1707  0.9256  0.1298
  922MOL0     C24358   6.261   0.414   6.985  0.0016 -0.2561  0.3379
  922MOL0     O24359   6.316   0.304   6.908  0.0086 -0.0758 -0.3571
  922MOL0     C24360   6.406   0.216   6.964  0.5734  0.3759  0.6155
  922MOL0     C24361   6.445   0.117   6.877  0.0550  0.7984 -0.0423
  922MOL0     C24362   6.555   0.035   6.904 -0.2608  0.7141  0.5617
  922MOL0     C24363   6.610  -0.053   6.785 -0.9219  0.5206 -0.0910
  922MOL0     C24364   6.614   0.041   7.035  0.0926 -0.1790 -1.0310
  922MOL0     C24365   6.733  -0.037   7.078 -0.1177 -0.4895 -0.3962
  922MOL0     O24366   6.822   0.015   7.171  0.0024 -0.5470 -0.2162
  922MOL0     C24367   6.920  -0.077   7.208  0.7962  0.9705  1.1523
  922MOL0     C24368   6.899  -0.165   7.315 -0.1911 -0.3840 -0.2379
  922MOL0     C24369   7.009  -0.245   7.350 -1.4529  0.5278 -0.3650
  922MOL0     C24370   7.127  -0.255   7.281  0.1465  0.3360 -0.7109
  922MOL0     O24371   7.226  -0.326   7.334 -0.6366  0.4325  0.1363
  922MOL0     C24372   7.309  -0.392   7.236 -0.6800 -0.5306  0.3051
  922MOL0     C24373   7.373  -0.518   7.289  0.1749  0.1856 -0.8889
  922MOL0     C24374   7.290  -0.651   7.262 -0.0847  0.3566  0.5932
  922MOL0     C24375   7.153  -0.645   7.329 -1.4336  0.0905 -0.0520
  922MOL0     C24376   7.101  -0.783   7.355 -0.6508  1.4554 -0.2676
  922MOL0     C24377   7.073  -0.874   7.233 -0.1259  0.8640  0.1236
  922MOL0     C24378   7.034  -1.021   7.258  0.7392  0.1229  0.0412
  922MOL0     C24379   7.041  -1.096   7.133  0.0931  0.0080  1.3354
  922MOL0    Cl24380   6.916  -1.036   7.014  0.1568  0.1459 -0.4124
  922MOL0     C24381   7.147  -0.165   7.174 -0.4910  0.3971 -0.6642
  922MOL0     C24382   7.035  -0.077   7.131 -0.9264  0.3710  0.1890
  922MOL0     O24383   6.735  -0.148   7.037 -0.3675 -0.7129  1.4487
  922MOL0     C24384   6.565   0.129   7.133 -0.2035 -1.0508 -0.6458
  922MOL0     C24385   6.453   0.217   7.097  0.3218  0.6366  0.2638
  922MOL0     N24386   6.265   0.794   7.172  0.2225 -0.2216 -0.0125
  922MOL0     N24387   6.318   0.877   7.090 -0.4423 -0.1166 -0.2022
  922MOL0     C24388   5.774   1.692   6.851  0.9661  0.1768 -0.2485
  922MOL0     C24389   5.764   1.820   6.779  0.2118 -0.0251  0.1886
  922MOL0     C24390   5.600   2.194   6.575 -0.0871 -0.5458  0.3739
  922MOL0     C24391   5.639   2.145   6.452 -0.4032 -0.6983  0.4692
  922MOL0     C24392   5.655   2.241   6.342  0.8366 -0.2405  0.6152
  922MOL0     C24393   5.652   2.378   6.352 -0.2631 -0.9625  0.0753
  922MOL0     O24394   5.678   2.460   6.243  0.0450 -0.0914  0.3574
  922MOL0     C24395   5.633   2.595   6.251 -0.0617  0.1221  0.0046
  922MOL0     C24396   5.655   2.658   6.105  0.3727 -0.4241 -0.3902
  922MOL0     C24397   5.801   2.686   6.060 -0.2735 -0.2238  0.0506
  922MOL0     C24398   5.796   2.783   5.950 -0.5157  0.1846  0.4187
  922MOL0     C24399   5.750   2.924   5.978 -0.1672 -0.1414  0.1072
  922MOL0     C24400   5.738   3.045   6.009  0.3845  0.6968  0.4450
  922MOL0     C24401   5.619   2.421   6.484  0.2259 -0.9990  1.1382
  922MOL0     C24402   5.587   2.330   6.589  0.1981 -0.5438  1.2765
  922MOL0     H24403   5.430   1.883   6.809 -1.2035 -2.0427  1.0231
  922MOL0     H24404   5.448   1.659   6.931 -2.3280  4.3457  1.0099
  922MOL0     H24405   5.806   1.428   6.879 -0.3670  1.2673 -0.9565
  922MOL0     H24406   5.849   1.481   7.049 -1.4095 -0.2832  2.1716
  922MOL0     H24407   5.736   1.306   7.142  1.1068 -0.9037  0.3953
  922MOL0     H24408   5.651   1.249   6.999  1.8680 -3.8388 -1.2864
  922MOL0     H24409   5.912   1.205   7.116 -1.2970  0.3663  1.0178
  922MOL0     H24410   5.794   1.097   7.027 -1.0523  0.9506 -1.1586
  922MOL0     H24411   5.879   1.165   6.809  1.4943 -1.6775 -0.5767
  922MOL0     H24412   5.998   1.281   6.892 -1.1029  1.0273  2.1204
  922MOL0     H24413   6.106   1.074   6.991 -1.7627  0.6013  1.7434
  922MOL0     H24414   5.972   0.977   6.948 -1.3723  1.6428 -0.2191
  922MOL0     H24415   6.070   0.946   6.732  0.6442  1.2462 -3.3982
  922MOL0     H24416   6.071   1.111   6.702  0.6930 -1.7774 -2.1906
  922MOL0     H24417   6.309   1.068   6.705  2.0848 -1.4635  0.6383
  922MOL0     H24418   6.288   1.127   6.865 -0.5156 -0.3549  1.4049
  922MOL0     H24419   6.425   0.925   6.851  1.4544 -2.7991 -2.8186
  922MOL0     H24420   6.306   0.826   6.769  2.7792 -1.5866  0.3700
  922MOL0     H24421   6.117   0.716   6.896 -0.5694  0.0818 -0.4827
  922MOL0     H24422   6.176   0.571   7.259  1.4564 -0.0206 -0.6573
  922MOL0     H24423   6.032   0.662   7.251  0.7639 -0.6589  3.0845
  922MOL0     H24424   5.987   0.527   7.013  1.3152 -1.5519 -1.5380
  922MOL0     H24425   5.962   0.465   7.173  1.2282 -0.2488  0.5857
  922MOL0     H24426   6.056   0.318   6.988 -0.1782 -1.0610  0.6158
  922MOL0     H24427   6.149   0.304   7.139  2.9472  1.0131 -0.8922
  922MOL0     H24428   6.329   0.462   7.056 -0.1045  0.0917  0.2030
  922MOL0     H24429   6.219   0.483   6.912  1.5243 -1.0197 -1.3199
  922MOL0     H24430   6.426   0.125   6.770 -1.1900 -1.3009 -0.0243
  922MOL0     H24431   6.560  -0.040   6.688  1.4682  1.0471 -1.3392
  922MOL0     H24432   6.714  -0.023   6.769 -1.2481  2.9425  1.6798
  922MOL0     H24433   6.592  -0.159   6.801 -2.5489 -0.4400 -5.9869
  922MOL0     H24434   6.798  -0.177   7.353  0.2764 -2.6924  0.4405
  922MOL0     H24435   7.001  -0.318   7.430 -0.1355 -0.0059 -0.6917
  922MOL0     H24436   7.258  -0.414   7.142  2.7128  1.9868 -2.3925
  922MOL0     H24437   7.388  -0.318   7.222  1.3683 -2.1835  2.3619
  922MOL0     H24438   7.466  -0.538   7.235  1.5827 -0.0379  1.4882
  922MOL0     H24439   7.396  -0.504   7.395 -0.1777  1.6703 -0.9877
  922MOL0     H24440   7.354  -0.736   7.288 -0.1420  0.3238  0.6298
  922MOL0     H24441   7.276  -0.657   7.154  4.3469  2.4612 -0.3424
  922MOL0     H24442   7.170  -0.594   7.424  0.3304  0.6000 -0.6167
  922MOL0     H24443   7.081  -0.591   7.266 -1.9600 -1.6791 -1.0606
  922MOL0     H24444   7.004  -0.763   7.402  0.1219 -0.3887  2.3413
  922MOL0     H24445   7.170  -0.833   7.423 -0.4370 -0.3610 -1.7586
  922MOL0     H24446   6.986  -0.833   7.181 -1.4944 -1.7261  0.2153
  922MOL0     H24447   7.163  -0.863   7.171  2.2450 -0.2221  3.1250
  922MOL0     H24448   6.931  -1.021   7.296 -0.5400  1.0417 -3.1110
  922MOL0     H24449   7.108  -1.063   7.327 -0.7848 -1.0732  1.0145
  922MOL0     H24450   7.026  -1.204   7.147  0.8511 -0.1575  0.9642
  922MOL0     H24451   7.143  -1.078   7.097 -1.1192  3.3631 -0.8751
  922MOL0     H24452   7.239  -0.174   7.116  0.6829 -2.4322  1.3780
  922MOL0     H24453   7.066  -0.011   7.051 -3.5399  2.6915  0.9283
  922MOL0     H24454   6.606   0.136   7.233  0.0539 -3.1231 -0.5795
  922MOL0     H24455   6.408   0.288   7.165  2.0052  1.5992  0.4169
  922MOL0     H24456   5.874   1.655   6.868  2.1366  3.1986  0.1305
  922MOL0     H24457   5.851   1.864   6.732 -0.4635  1.7026  0.4900
  922MOL0     H24458   5.653   2.040   6.426 -0.8926 -0.4314 -0.9557
  922MOL0     H24459   5.674   2.201   6.242 -0.1970  2.9157 -0.9634
  922MOL0     H24460   5.528   2.591   6.284 -0.2509 -2.5082 -0.7116
  922MOL0     H24461   5.688   2.651   6.327 -0.6824 -0.2539  0.7600
  922MOL0     H24462   5.599   2.752   6.103  0.8380 -0.1145  0.5315
  922MOL0     H24463   5.603   2.599   6.028  0.7224  0.4826 -1.3392
  922MOL0     H24464   5.842   2.590   6.028 -3.9943 -1.4942 -1.5556
  922MOL0     H24465   5.856   2.714   6.150 -1.5031 -2.3642  1.5749
  922MOL0     H24466   5.727   2.745   5.874  0.1208  0.3790 -0.2617
  922MOL0     H24467   5.895   2.776   5.904 -0.6114 -0.0986  0.2528
  922MOL0     H24468   5.749   3.148   6.035  3.5396  0.5843 -0.0695
  922MOL0     H24469   5.629   2.525   6.514  2.2406 -0.9719  0.4893
  922MOL0     H24470   5.561   2.359   6.690  0.8971 -1.3872  1.7144
  923MOL0     O24471   1.315   9.067  11.493 -0.9653  0.0910  0.2770
  923MOL0     C24472   1.210   9.069  11.552 -0.6064 -0.0261  0.2744
  923MOL0     O24473   1.184   9.149  11.655 -0.5055 -0.0647 -0.2836
  923MOL0     C24474   1.287   9.216  11.716  0.6724  0.2431  0.5301
  923MOL0     C24475   1.400   9.156  11.763 -0.8968 -1.1892 -0.0974
  923MOL0     C24476   1.492   9.221  11.835 -0.0673  0.3673 -0.5105
  923MOL0     C24477   1.470   9.355  11.879  1.1560  0.7708  0.1198
  923MOL0     O24478   1.548   9.437  11.950 -0.4326 -0.0423 -1.1282
  923MOL0     C24479   1.641   9.381  12.049  0.1406  0.2531 -0.6150
  923MOL0     C24480   1.575   9.297  12.165 -0.0254  0.4307  0.2780
  923MOL0     C24481   1.508   9.397  12.267  0.0038  0.1798 -0.3709
  923MOL0     C24482   1.623   9.451  12.352 -0.0603  0.1339 -0.2792
  923MOL0     C24483   1.601   9.601  12.401 -1.0427 -0.3102 -0.7042
  923MOL0     C24484   1.483   9.613  12.493  0.0558 -0.7257  0.1873
  923MOL0     C24485   1.503   9.709  12.610  0.1810 -0.2481  0.5827
  923MOL0     C24486   1.589   9.639  12.719  0.9175  0.0669 -0.0539
  923MOL0     N24487   1.609   9.741  12.833  0.2245 -0.3848  0.0463
  923MOL0     C24488   1.517   9.831  12.888  0.7208 -0.1423 -0.0179
  923MOL0     C24489   1.581   9.888  12.994 -0.1377 -0.0676 -0.1928
  923MOL0     C24490   1.524   9.986  13.099 -0.8898 -1.1819  0.4598
  923MOL0     C24491   1.415   9.910  13.178 -0.0848 -0.9341 -0.4742
  923MOL0     C24492   1.469   9.784  13.244  0.4133 -0.1584 -0.2393
  923MOL0     C24493   1.544   9.798  13.372 -0.0311 -0.0887 -0.4364
  923MOL0     O24494   1.643   9.900  13.362  0.1026 -0.4287 -0.7096
  923MOL0     C24495   1.669   9.968  13.482  1.1869 -0.2230  0.7262
  923MOL0     C24496   1.704   9.906  13.604 -0.2658 -0.2376  0.7863
  923MOL0     C24497   1.752   9.991  13.712 -0.3484  0.4803 -0.2039
  923MOL0     C24498   1.792   9.932  13.847  0.5168  0.1091 -0.5032
  923MOL0     C24499   1.768  10.127  13.690 -0.4928  0.0659 -0.7521
  923MOL0     C24500   1.852  10.225  13.767  0.3165  1.2720  0.0808
  923MOL0     O24501   1.929  10.307  13.694  0.4472  0.1585 -0.1739
  923MOL0     C24502   2.019  10.386  13.766 -0.1189  0.3609  0.4594
  923MOL0     C24503   2.071  10.501  13.705 -0.3558 -0.3111  0.5946
  923MOL0     C24504   2.151  10.587  13.777  0.1817 -0.7373  0.5505
  923MOL0     C24505   2.195  10.569  13.904 -0.8530 -0.2134 -0.4521
  923MOL0     O24506   2.280  10.666  13.947 -0.3399  0.4461  0.7196
  923MOL0     C24507   2.311  10.671  14.084  0.4145 -0.0554 -0.4877
  923MOL0     C24508   2.349  10.812  14.131  0.6716  0.0851  0.6425
  923MOL0     C24509   2.270  10.933  14.075 -1.2877 -0.6623 -0.4188
  923MOL0     C24510   2.374  11.036  14.029 -1.0341  0.4546 -0.8328
  923MOL0     C24511   2.301  11.171  13.998  0.6827  1.1639 -0.7632
  923MOL0     C24512   2.399  11.285  13.990  0.4494  0.3718  0.0718
  923MOL0     C24513   2.351  11.395  13.901  0.4656 -1.0752  0.3128
  923MOL0     C24514   2.228  11.487  13.940  0.0840  0.3489  0.2116
  923MOL0    Cl24515   2.242  11.544  14.108 -0.1801 -0.6892  0.4457
  923MOL0     C24516   2.154  10.452  13.964 -0.2317  1.0790  0.1635
  923MOL0     C24517   2.076  10.357  13.893 -0.1578  0.7972 -0.2761
  923MOL0     O24518   1.829  10.230  13.891 -0.0113  0.4071  0.2673
  923MOL0     C24519   1.714  10.179  13.577  0.9141 -0.0986  0.5854
  923MOL0     C24520   1.677  10.104  13.469 -0.0019 -0.7284 -0.3668
  923MOL0     N24521   1.712   9.836  13.003 -0.6221  0.0560 -0.4806
  923MOL0     N24522   1.728   9.765  12.896 -0.0142  0.6935  1.4482
  923MOL0     C24523   1.349   9.409  11.842 -0.3725 -0.2347  0.8585
  923MOL0     C24524   1.257   9.343  11.768 -0.3622  0.0256  0.2714
  923MOL0     C24525   1.088   8.998  11.500  0.2567 -0.2982  0.9660
  923MOL0     C24526   1.093   8.910  11.390  0.4025  0.1370 -0.3129
  923MOL0     C24527   0.983   8.832  11.341 -0.7089 -0.3334 -0.2983
  923MOL0     C24528   0.855   8.848  11.404  0.2737 -0.6205 -0.3309
  923MOL0     O24529   0.749   8.769  11.386  0.0863 -0.5555 -0.7195
  923MOL0     C24530   0.745   8.681  11.275  0.7285  0.5575 -0.4655
  923MOL0     C24531   0.603   8.621  11.267  0.2376  0.7834 -0.8546
  923MOL0     C24532   0.518   8.711  11.174 -0.0870 -0.2771 -0.0082
  923MOL0     C24533   0.380   8.715  11.222 -0.3086 -0.2268  0.3415
  923MOL0     C24534   0.272   8.780  11.147 -0.9580  0.9624 -0.3046
  923MOL0     C24535   0.188   8.850  11.096 -0.1743  0.5656 -1.0030
  923MOL0     C24536   0.845   8.932  11.514  0.4203 -0.2640  1.3359
  923MOL0     C24537   0.954   9.007  11.552  0.4305  0.2992  1.7594
  923MOL0     H24538   1.419   9.055  11.728  0.8045 -0.6402 -0.8940
  923MOL0     H24539   1.582   9.170  11.867  1.2856  3.3141  0.7285
  923MOL0     H24540   1.720   9.320  12.004 -1.1821 -3.6293  1.8474
  923MOL0     H24541   1.693   9.469  12.088  0.4088  0.0454 -0.5093
  923MOL0     H24542   1.496   9.229  12.130  0.1353  0.2394  0.2855
  923MOL0     H24543   1.647   9.226  12.206  2.1052  0.9177 -2.2972
  923MOL0     H24544   1.450   9.476  12.217 -1.1714 -0.6584 -0.3710
  923MOL0     H24545   1.433   9.339  12.322 -0.8104 -0.3174 -1.9515
  923MOL0     H24546   1.641   9.384  12.437  1.4352  0.7392 -0.0908
  923MOL0     H24547   1.716   9.453  12.294 -0.4819 -0.8829 -1.0260
  923MOL0     H24548   1.690   9.643  12.448 -1.2254 -0.3658 -0.3028
  923MOL0     H24549   1.578   9.674  12.322 -0.7302 -0.4042 -0.8824
  923MOL0     H24550   1.399   9.647  12.431 -1.3554 -2.5317  0.9820
  923MOL0     H24551   1.451   9.514  12.528 -4.8610  0.8874  1.0465
  923MOL0     H24552   1.556   9.802  12.588  3.2712 -0.9098  4.1971
  923MOL0     H24553   1.405   9.724  12.654 -0.1594  1.2910 -0.6243
  923MOL0     H24554   1.688   9.611  12.682  1.5544  3.1391 -1.0148
  923MOL0     H24555   1.549   9.551  12.769  0.9164 -0.5041 -1.0232
  923MOL0     H24556   1.415   9.845  12.853  1.2840  0.8058 -1.3723
  923MOL0     H24557   1.604  10.035  13.156  0.7185 -0.6054 -2.1132
  923MOL0     H24558   1.480  10.069  13.043  0.7786 -1.0024 -0.6606
  923MOL0     H24559   1.336   9.877  13.110  0.4093  0.7804 -1.9383
  923MOL0     H24560   1.371   9.976  13.253 -1.0194 -3.0578  0.9565
  923MOL0     H24561   1.529   9.724  13.175  1.1861 -0.4580  0.6623
  923MOL0     H24562   1.388   9.716  13.273 -0.4416  1.7805  2.3317
  923MOL0     H24563   1.585   9.702  13.405  0.3162  0.7511  1.7466
  923MOL0     H24564   1.470   9.822  13.448  0.4501 -2.1454  0.7673
  923MOL0     H24565   1.712   9.798  13.604  2.3097 -0.1362 -0.4070
  923MOL0     H24566   1.787   9.999  13.933  1.1877 -0.5652  0.0826
  923MOL0     H24567   1.727   9.850  13.881  0.2113  1.2139  1.7815
  923MOL0     H24568   1.895   9.896  13.848  0.5701 -0.1074  3.4149
  923MOL0     H24569   2.040  10.529  13.605  2.6769 -0.7960 -0.5944
  923MOL0     H24570   2.183  10.677  13.725  0.5859 -0.9455  0.4342
  923MOL0     H24571   2.225  10.646  14.148  0.0556 -0.9167 -1.2894
  923MOL0     H24572   2.383  10.592  14.105 -0.9728 -2.0181 -2.7228
  923MOL0     H24573   2.338  10.823  14.239  4.0128  1.7590  0.9549
  923MOL0     H24574   2.455  10.823  14.106  0.3588 -0.9073 -1.3228
  923MOL0     H24575   2.200  10.978  14.146  0.2619  4.1352 -1.6032
  923MOL0     H24576   2.213  10.913  13.984  1.8651 -1.7652 -2.3129
  923MOL0     H24577   2.456  11.051  14.099 -1.8764 -0.8145  0.4782
  923MOL0     H24578   2.426  10.987  13.946  0.6368  0.4818  0.1599
  923MOL0     H24579   2.241  11.201  14.084  2.7919  4.1865 -0.1826
  923MOL0     H24580   2.233  11.150  13.915  1.9519 -1.9229 -1.1325
  923MOL0     H24581   2.415  11.331  14.088  0.7267 -2.1801  1.3113
  923MOL0     H24582   2.497  11.250  13.957  0.8064  1.6730 -0.2885
  923MOL0     H24583   2.335  11.351  13.801 -0.5517  4.0072 -2.0848
  923MOL0     H24584   2.432  11.468  13.896 -1.4571  1.1768  0.7560
  923MOL0     H24585   2.140  11.426  13.918  0.1709 -0.6100  2.2857
  923MOL0     H24586   2.233  11.573  13.872  4.6953  0.9407  0.9844
  923MOL0     H24587   2.181  10.428  14.066  1.1008 -1.8258 -0.7607
  923MOL0     H24588   2.052  10.269  13.952  1.7826  0.7834  0.5631
  923MOL0     H24589   1.713  10.286  13.559 -3.4613 -0.0350  0.0919
  923MOL0     H24590   1.677  10.149  13.370  3.4915 -0.2722 -0.3071
  923MOL0     H24591   1.311   9.506  11.873 -2.8015 -0.4144 -1.2010
  923MOL0     H24592   1.166   9.392  11.736  1.5867  3.7493 -0.1878
  923MOL0     H24593   1.193   8.904  11.349  2.5956 -0.0546  4.3831
  923MOL0     H24594   1.012   8.755  11.270  1.2899  1.7337 -1.8906
  923MOL0     H24595   0.757   8.742  11.185  0.2547 -0.3379 -1.1496
  923MOL0     H24596   0.819   8.601  11.266 -2.3079 -2.4754 -0.0702
  923MOL0     H24597   0.558   8.611  11.366  0.5598  2.0433 -0.5727
  923MOL0     H24598   0.609   8.522  11.220  1.2490  1.3734 -2.0397
  923MOL0     H24599   0.532   8.680  11.070 -2.8628 -1.4187 -0.1437
  923MOL0     H24600   0.547   8.816  11.181 -0.8365 -0.1200  0.9158
  923MOL0     H24601   0.391   8.741  11.328 -0.9340 -5.5648  2.0142
  923MOL0     H24602   0.347   8.610  11.223 -1.6032  0.1441 -0.8552
  923MOL0     H24603   0.106   8.895  11.044 -2.4125 -3.2086 -1.0958
  923MOL0     H24604   0.751   8.926  11.568 -1.5090  0.0604 -1.7646
  923MOL0     H24605   0.922   9.069  11.634  0.1139  0.2865  1.6476
  924MOL0     O24606   8.169   2.335   6.989  0.3047  0.2264  0.3152
  924MOL0     C24607   8.095   2.391   7.071  1.2152  1.4586  0.3735
  924MOL0     O24608   8.075   2.523   7.091  0.3510  0.6487  0.0398
  924MOL0     C24609   8.134   2.612   7.000 -0.3148  0.1355 -1.3665
  924MOL0     C24610   8.266   2.609   6.962  0.3645 -0.5450 -0.5419
  924MOL0     C24611   8.312   2.689   6.862 -0.6342 -0.3272 -0.7130
  924MOL0     C24612   8.242   2.800   6.807 -0.4639 -0.0941 -0.3496
  924MOL0     O24613   8.287   2.905   6.729 -0.1573 -0.0516  0.0413
  924MOL0     C24614   8.415   2.887   6.665  0.2504  0.7182  0.5727
  924MOL0     C24615   8.521   2.914   6.757 -0.7607 -0.3947  0.1117
  924MOL0     C24616   8.646   2.849   6.704  0.1351  0.2617  0.8000
  924MOL0     C24617   8.683   2.713   6.761  0.1124 -0.1724  0.3124
  924MOL0     C24618   8.829   2.702   6.725  0.9925  0.0791 -0.2408
  924MOL0     C24619   8.888   2.565   6.710  0.2882  0.5174  0.3308
  924MOL0     C24620   8.829   2.464   6.614  0.5472  0.0325  0.3183
  924MOL0     C24621   8.817   2.515   6.470 -0.9072 -0.9344 -0.3527
  924MOL0     N24622   8.956   2.554   6.430 -0.0282  0.4784 -0.2102
  924MOL0     C24623   9.009   2.681   6.415 -0.1076  0.8172  0.4731
  924MOL0     C24624   9.140   2.656   6.393  0.1580 -0.1101  1.0550
  924MOL0     C24625   9.254   2.737   6.350 -0.0107  0.9538  0.1350
  924MOL0     C24626   9.229   2.862   6.277 -0.7603 -0.7554 -0.2160
  924MOL0     C24627   9.349   2.955   6.239  0.5233  0.4145 -0.1244
  924MOL0     C24628   9.299   3.093   6.198 -0.3230 -0.0174 -0.2168
  924MOL0     O24629   9.217   3.159   6.292  0.0172 -0.2801 -0.2025
  924MOL0     C24630   9.158   3.271   6.241  0.5731 -0.0426  0.4298
  924MOL0     C24631   9.050   3.322   6.315  0.9341 -0.4208  0.5893
  924MOL0     C24632   8.975   3.435   6.268 -0.5326  0.7325 -0.7456
  924MOL0     C24633   8.849   3.470   6.352  0.2272  0.3177  0.6050
  924MOL0     C24634   9.020   3.511   6.160 -0.0528 -0.6274  0.6149
  924MOL0     C24635   8.977   3.652   6.128  0.1920  0.0302 -0.3241
  924MOL0     O24636   9.010   3.698   6.003  0.2946 -0.0417 -0.6197
  924MOL0     C24637   8.962   3.815   5.960 -0.1089  0.1896 -0.7516
  924MOL0     C24638   9.041   3.897   5.869 -0.2775  0.0583  1.0198
  924MOL0     C24639   8.997   4.020   5.814 -0.7513 -0.5591 -0.3201
  924MOL0     C24640   8.869   4.069   5.844  0.7066  0.3606  0.0048
  924MOL0     O24641   8.807   4.181   5.784 -0.6896 -0.3858 -0.2039
  924MOL0     C24642   8.879   4.243   5.679  0.9440 -0.6307  0.9540
  924MOL0     C24643   8.766   4.306   5.588 -0.6094  0.2691  0.8853
  924MOL0     C24644   8.819   4.368   5.454  0.4741 -0.0642  0.5452
  924MOL0     C24645   8.758   4.511   5.439  0.6758  0.1624 -0.1109
  924MOL0     C24646   8.614   4.517   5.391 -0.2251 -0.1929  0.3216
  924MOL0     C24647   8.562   4.665   5.381 -0.4716  0.1639  0.0392
  924MOL0     C24648   8.505   4.699   5.239  0.9599 -0.3047  0.0696
  924MOL0     C24649   8.368   4.668   5.205  0.6108  0.6930  0.5790
  924MOL0    Cl24650   8.366   4.512   5.100 -0.7561  0.2680 -0.0898
  924MOL0     C24651   8.798   3.996   5.943  0.0906 -0.5798 -0.3405
  924MOL0     C24652   8.836   3.867   5.981  0.4714 -0.5004 -0.7712
  924MOL0     O24653   8.918   3.711   6.209 -0.0671 -0.7231  1.4563
  924MOL0     C24654   9.124   3.462   6.082  0.0502  0.8912  0.7584
  924MOL0     C24655   9.188   3.343   6.122 -0.2202 -0.2188  1.0610
  924MOL0     N24656   9.162   2.520   6.397  0.2892  0.0348  0.5926
  924MOL0     N24657   9.057   2.459   6.419  0.1001 -0.1369  0.5313
  924MOL0     C24658   8.112   2.817   6.859  0.0627 -0.7549  0.2610
  924MOL0     C24659   8.060   2.719   6.951  0.0984 -0.0208 -0.3568
  924MOL0     C24660   8.027   2.299   7.166  0.3892 -0.5038 -0.1705
  924MOL0     C24661   8.030   2.163   7.155 -0.2893 -0.4363  0.2651
  924MOL0     C24662   7.963   2.079   7.241 -0.6962 -0.2141  0.2978
  924MOL0     C24663   7.874   2.132   7.343 -0.9773 -0.3368 -0.3136
  924MOL0     O24664   7.792   2.065   7.427 -1.5367 -0.0540  0.2074
  924MOL0     C24665   7.847   1.940   7.463 -0.0596 -1.3204  0.4828
  924MOL0     C24666   7.790   1.897   7.591 -0.4463 -0.0955  0.6253
  924MOL0     C24667   7.882   1.782   7.641 -0.8689  0.0604 -0.0903
  924MOL0     C24668   7.878   1.746   7.791  0.1825  0.1935 -0.3665
  924MOL0     C24669   7.742   1.709   7.832  0.3559 -0.7713 -0.1303
  924MOL0     C24670   7.634   1.687   7.881  0.0090 -0.1069  0.0296
  924MOL0     C24671   7.867   2.267   7.355  0.9008 -0.1980  0.1643
  924MOL0     C24672   7.946   2.346   7.273 -0.4656 -0.1142 -0.7993
  924MOL0     H24673   8.333   2.533   7.002 -0.9769 -1.8249 -0.6708
  924MOL0     H24674   8.416   2.670   6.836 -0.8784 -0.3013 -1.7557
  924MOL0     H24675   8.426   2.783   6.630  1.6670  1.2700 -0.7375
  924MOL0     H24676   8.415   2.955   6.580 -2.9697  1.8428  1.3190
  924MOL0     H24677   8.532   3.023   6.756 -0.4723 -0.4153 -1.8214
  924MOL0     H24678   8.508   2.875   6.859 -2.4942 -2.6705 -0.8945
  924MOL0     H24679   8.643   2.855   6.595 -4.5174  2.7043  0.8065
  924MOL0     H24680   8.730   2.915   6.729  1.9751 -1.7795  0.3568
  924MOL0     H24681   8.681   2.715   6.871 -1.6140  0.5755  0.2871
  924MOL0     H24682   8.609   2.640   6.728 -0.8345  0.7341  0.3838
  924MOL0     H24683   8.854   2.746   6.628  2.8606  0.5334  0.4107
  924MOL0     H24684   8.884   2.753   6.805  2.5231 -4.9591  2.3681
  924MOL0     H24685   8.995   2.577   6.688  0.1942 -2.4906 -2.5404
  924MOL0     H24686   8.902   2.521   6.809  1.3530 -1.6531 -0.6893
  924MOL0     H24687   8.885   2.372   6.630  0.7389  0.6054  4.0206
  924MOL0     H24688   8.726   2.454   6.648 -0.7026  1.9635 -2.5169
  924MOL0     H24689   8.763   2.611   6.468  0.1506 -0.2830  0.8694
  924MOL0     H24690   8.770   2.441   6.405  1.1205 -0.0240 -3.0500
  924MOL0     H24691   8.951   2.772   6.425 -1.2155  0.4475 -1.8894
  924MOL0     H24692   9.321   2.761   6.433  0.6178  2.6999 -0.8452
  924MOL0     H24693   9.322   2.669   6.298 -1.2818 -2.4484  2.5149
  924MOL0     H24694   9.164   2.916   6.347 -0.1063 -1.3687  0.9080
  924MOL0     H24695   9.169   2.840   6.188 -2.5937  1.1056  0.4840
  924MOL0     H24696   9.415   2.913   6.163  1.5486  2.2372 -0.2912
  924MOL0     H24697   9.411   2.965   6.329 -0.9570 -0.9269  1.1311
  924MOL0     H24698   9.249   3.079   6.102  1.6080 -0.5690 -1.1860
  924MOL0     H24699   9.386   3.158   6.182 -0.8002  1.6573  3.1473
  924MOL0     H24700   9.020   3.256   6.395 -0.0215 -0.0215  0.5680
  924MOL0     H24701   8.775   3.524   6.294  1.2592 -1.8592 -3.0736
  924MOL0     H24702   8.804   3.377   6.388 -0.1405  0.1225 -0.3215
  924MOL0     H24703   8.883   3.527   6.439 -0.5709  1.3858  0.2250
  924MOL0     H24704   9.142   3.869   5.840 -0.4028 -0.7450  1.3323
  924MOL0     H24705   9.068   4.059   5.741 -0.0005 -1.4310 -0.0718
  924MOL0     H24706   8.936   4.329   5.716  0.5476 -0.3301  0.8766
  924MOL0     H24707   8.950   4.183   5.622  4.5801  3.9525 -0.0201
  924MOL0     H24708   8.697   4.223   5.567  2.9624 -2.7134 -0.0268
  924MOL0     H24709   8.721   4.387   5.647  3.0231  1.5837  2.1091
  924MOL0     H24710   8.799   4.296   5.374  0.4759  2.0252 -1.4036
  924MOL0     H24711   8.927   4.385   5.457  0.2780  1.6650 -0.6949
  924MOL0     H24712   8.783   4.563   5.532  0.8055 -1.4336  0.7842
  924MOL0     H24713   8.819   4.564   5.364  1.5995 -0.4504  0.1972
  924MOL0     H24714   8.539   4.469   5.455 -1.9687  0.2207 -1.2820
  924MOL0     H24715   8.602   4.465   5.295  0.3384  1.5372 -0.7274
  924MOL0     H24716   8.492   4.696   5.459 -0.0687 -1.1894  0.9662
  924MOL0     H24717   8.651   4.727   5.394 -0.7051  1.0371 -2.0646
  924MOL0     H24718   8.564   4.661   5.156 -1.5630  0.6509 -2.3066
  924MOL0     H24719   8.504   4.809   5.245 -3.1601 -0.1798  0.0724
  924MOL0     H24720   8.324   4.752   5.152 -0.8019 -1.1459 -1.3412
  924MOL0     H24721   8.306   4.652   5.293  0.2578  2.4572  0.6791
  924MOL0     H24722   8.711   4.039   5.992  0.1298 -4.3780  3.6373
  924MOL0     H24723   8.760   3.815   6.038  1.5987 -1.0363  0.2802
  924MOL0     H24724   9.159   3.517   5.995 -6.1163 -1.5514 -4.1213
  924MOL0     H24725   9.257   3.311   6.045  0.5347 -0.8586  1.9892
  924MOL0     H24726   8.043   2.894   6.824 -1.7436 -2.3351  0.1900
  924MOL0     H24727   7.959   2.725   6.991 -1.0783 -2.1270 -2.7854
  924MOL0     H24728   8.095   2.117   7.081  2.3309  0.5758  1.8075
  924MOL0     H24729   7.987   1.973   7.243 -0.8143 -0.3335  4.3307
  924MOL0     H24730   7.817   1.872   7.382 -1.4036  1.1324 -1.1954
  924MOL0     H24731   7.954   1.953   7.482 -0.2159 -3.0599  3.1496
  924MOL0     H24732   7.688   1.860   7.579  0.0813 -1.9408  1.4293
  924MOL0     H24733   7.783   1.975   7.667 -0.1713  0.2833  0.2653
  924MOL0     H24734   7.989   1.798   7.630 -1.0182  0.6307 -0.8207
  924MOL0     H24735   7.839   1.706   7.575 -3.8522  2.7073 -1.4943
  924MOL0     H24736   7.910   1.835   7.846  3.8729 -0.5035 -1.1363
  924MOL0     H24737   7.957   1.674   7.816  2.9165  2.9618 -0.5587
  924MOL0     H24738   7.541   1.685   7.935 -0.2501  3.2038 -0.0732
  924MOL0     H24739   7.795   2.315   7.420  0.6581  2.0740 -1.6709
  924MOL0     H24740   7.938   2.453   7.291 -0.6385 -0.3073  0.3562
  925MOL0     O24741  10.816  11.281   1.819 -0.3361 -0.2486 -0.1302
  925MOL0     C24742  10.840  11.170   1.773 -0.2685 -0.3502  0.6367
  925MOL0     O24743  10.763  11.060   1.805  0.1830  0.7184  0.2909
  925MOL0     C24744  10.639  11.062   1.861  0.7608 -0.0989 -0.4839
  925MOL0     C24745  10.621  10.969   1.959  0.0938  1.2612  0.4083
  925MOL0     C24746  10.510  10.971   2.042  0.1872  0.2029 -1.0094
  925MOL0     C24747  10.413  11.073   2.027  0.8296  0.4227  0.3609
  925MOL0     O24748  10.317  11.099   2.126  0.2998 -0.2131 -0.4760
  925MOL0     C24749  10.179  11.118   2.087 -0.0755 -0.9681  0.4132
  925MOL0     C24750  10.086  11.138   2.207 -0.7139  0.1525 -0.2367
  925MOL0     C24751  10.088  11.036   2.322  0.0597 -0.4804 -0.0841
  925MOL0     C24752  10.029  10.904   2.270  0.9283 -0.6761 -0.4489
  925MOL0     C24753  10.034  10.784   2.372 -0.6606 -0.0240  0.0940
  925MOL0     C24754   9.934  10.670   2.339  0.6580 -1.0966 -0.9958
  925MOL0     C24755   9.787  10.706   2.347  0.2863 -0.1100  0.0012
  925MOL0     C24756   9.746  10.775   2.480  1.2608  0.2334 -1.4545
  925MOL0     N24757   9.748  10.667   2.591  0.5823 -0.0109  1.1285
  925MOL0     C24758   9.678  10.549   2.597 -0.4188 -0.5166  0.7138
  925MOL0     C24759   9.717  10.484   2.710  0.5101 -0.1192 -0.9194
  925MOL0     C24760   9.654  10.357   2.757 -0.0870  0.5875 -0.0151
  925MOL0     C24761   9.727  10.229   2.716  0.3610 -0.0616 -0.3105
  925MOL0     C24762   9.679  10.107   2.781 -0.1208  0.3538 -0.2234
  925MOL0     C24763   9.767   9.980   2.759  0.1896  0.2990 -0.6422
  925MOL0     O24764   9.908  10.002   2.766 -0.3424 -0.1845  0.3578
  925MOL0     C24765   9.985   9.919   2.689  0.5728 -1.3293  0.1391
  925MOL0     C24766  10.106   9.876   2.748 -0.2796 -0.1782  0.7247
  925MOL0     C24767  10.202   9.794   2.677  0.3042  0.2109  0.6754
  925MOL0     C24768  10.334   9.761   2.752  0.4772  1.0207  0.2482
  925MOL0     C24769  10.180   9.760   2.543  0.1020  0.4055 -0.5653
  925MOL0     C24770  10.267   9.664   2.465 -0.6762 -0.9142 -0.0859
  925MOL0     O24771  10.373   9.614   2.525 -0.2822  0.5591 -0.3600
  925MOL0     C24772  10.473   9.551   2.458 -0.7155  0.3560 -0.7266
  925MOL0     C24773  10.510   9.559   2.319 -1.2357  0.5252  1.1141
  925MOL0     C24774  10.640   9.506   2.277  0.3140 -0.7727 -0.2281
  925MOL0     C24775  10.720   9.457   2.368 -0.3128  0.2315 -0.8742
  925MOL0     O24776  10.851   9.421   2.333 -0.6967 -0.2447  0.7890
  925MOL0     C24777  10.956   9.417   2.427 -0.4260  0.5422 -0.0538
  925MOL0     C24778  11.081   9.424   2.359 -0.2604 -0.0680 -0.1346
  925MOL0     C24779  11.104   9.314   2.251 -0.4850  0.7393  0.2915
  925MOL0     C24780  11.150   9.179   2.315 -0.6133  0.1336 -0.2523
  925MOL0     C24781  11.109   9.047   2.239  0.0206  0.4130  0.3157
  925MOL0     C24782  11.134   8.913   2.313  0.2444 -0.2251 -0.1647
  925MOL0     C24783  11.037   8.867   2.424 -0.8058 -0.7172 -0.5118
  925MOL0     C24784  11.041   8.719   2.450  0.2273 -0.8127  0.8373
  925MOL0    Cl24785  11.214   8.665   2.454  0.0166 -0.9113  0.2114
  925MOL0     C24786  10.682   9.452   2.504  0.6705 -0.2011  0.6685
  925MOL0     C24787  10.557   9.497   2.541  0.6786 -0.2461  0.4181
  925MOL0     O24788  10.236   9.646   2.351 -0.1372 -0.0176 -0.0618
  925MOL0     C24789  10.055   9.802   2.486 -0.9432  0.8364 -0.0502
  925MOL0     C24790   9.971   9.892   2.550 -0.2621  0.2425 -0.3922
  925MOL0     N24791   9.795  10.574   2.781 -0.2552  0.5757  0.8276
  925MOL0     N24792   9.819  10.676   2.710  0.2764  0.3754  0.3691
  925MOL0     C24793  10.428  11.164   1.919 -0.3020  0.4724 -0.1368
  925MOL0     C24794  10.546  11.161   1.848  0.1265 -0.4443 -0.5299
  925MOL0     C24795  10.968  11.159   1.711 -0.5768 -0.2563  0.4163
  925MOL0     C24796  11.002  11.060   1.616  0.7865 -0.4304  1.3076
  925MOL0     C24797  11.119  11.072   1.536 -0.4195 -0.3400 -0.3469
  925MOL0     C24798  11.224  11.164   1.569  1.0529  0.4150  0.4469
  925MOL0     O24799  11.350  11.158   1.519 -0.0013  0.6002  0.5633
  925MOL0     C24800  11.422  11.287   1.510  0.1993 -0.1916 -0.1070
  925MOL0     C24801  11.529  11.303   1.395  0.3343  0.1533 -0.4655
  925MOL0     C24802  11.462  11.292   1.247 -0.2896 -0.3777 -0.8338
  925MOL0     C24803  11.579  11.296   1.158  0.5371 -0.0975  0.3604
  925MOL0     C24804  11.529  11.276   1.017  0.7277  0.2259 -1.5250
  925MOL0     C24805  11.496  11.267   0.904  0.5503  1.0485  0.5842
  925MOL0     C24806  11.198  11.244   1.683  0.6842 -0.0338  0.3152
  925MOL0     C24807  11.074  11.243   1.754 -0.2916 -0.9772 -0.7610
  925MOL0     H24808  10.685  10.881   1.967 -1.0377  0.3501 -0.1957
  925MOL0     H24809  10.504  10.903   2.127 -1.7102  0.8501 -0.5799
  925MOL0     H24810  10.155  11.191   2.010 -2.5720 -0.6667  1.3937
  925MOL0     H24811  10.153  11.028   2.029  1.1922 -0.1282 -1.5522
  925MOL0     H24812  10.116  11.233   2.253  0.8126 -0.3142 -0.2096
  925MOL0     H24813   9.988  11.164   2.166  1.3314  1.7726 -4.8235
  925MOL0     H24814  10.190  11.011   2.354 -0.5767 -0.3158  2.2908
  925MOL0     H24815  10.032  11.076   2.407 -1.0318  1.7494 -1.7614
  925MOL0     H24816   9.925  10.916   2.239  0.9982 -1.7543 -1.1469
  925MOL0     H24817  10.077  10.871   2.178  1.3672 -1.4114  0.0302
  925MOL0     H24818  10.135  10.743   2.381 -0.0675  1.0283 -1.4608
  925MOL0     H24819  10.018  10.836   2.467  2.6759  0.8520  0.2965
  925MOL0     H24820   9.961  10.643   2.237  2.9991  1.4707 -1.1804
  925MOL0     H24821   9.941  10.597   2.420 -2.0473 -1.2051 -0.7654
  925MOL0     H24822   9.761  10.782   2.274 -0.0438 -0.6690 -0.4706
  925MOL0     H24823   9.718  10.624   2.324 -0.1981 -0.0468  1.1671
  925MOL0     H24824   9.646  10.817   2.488  0.2796 -2.2239  0.2346
  925MOL0     H24825   9.805  10.860   2.516 -0.2762  0.5929  0.3844
  925MOL0     H24826   9.606  10.503   2.530  1.4116 -1.6361 -0.5768
  925MOL0     H24827   9.621  10.340   2.860  0.1099 -3.3613 -0.4389
  925MOL0     H24828   9.567  10.358   2.691  2.6199  1.3413 -3.9746
  925MOL0     H24829   9.826  10.243   2.761  0.8691  0.2199 -1.4803
  925MOL0     H24830   9.725  10.231   2.607  0.5208  0.5507 -0.3077
  925MOL0     H24831   9.587  10.070   2.735 -2.5384  2.5873  2.4363
  925MOL0     H24832   9.662  10.114   2.888  2.4847  0.4060  0.2484
  925MOL0     H24833   9.731   9.924   2.672  0.5581 -3.7021  1.5688
  925MOL0     H24834   9.736   9.904   2.831 -3.4310  1.6256 -0.5893
  925MOL0     H24835  10.110   9.915   2.848 -0.2174 -3.1274  1.9891
  925MOL0     H24836  10.330   9.655   2.778 -0.3875  1.1289  0.5911
  925MOL0     H24837  10.419   9.777   2.685  1.1114 -2.4877  0.0501
  925MOL0     H24838  10.337   9.831   2.836 -1.1354  0.5769  0.7069
  925MOL0     H24839  10.442   9.595   2.243  0.5620 -0.9380 -1.3166
  925MOL0     H24840  10.664   9.517   2.171 -2.7842  2.2290 -0.8302
  925MOL0     H24841  10.951   9.500   2.499 -3.0527  0.1385  0.3462
  925MOL0     H24842  10.959   9.320   2.478  0.8039 -1.5934 -3.8213
  925MOL0     H24843  11.083   9.527   2.323 -1.0123 -1.0260 -3.2032
  925MOL0     H24844  11.162   9.411   2.432 -0.7005  3.6672  1.2251
  925MOL0     H24845  11.186   9.341   2.184 -0.1161 -1.8388 -0.3844
  925MOL0     H24846  11.018   9.295   2.187 -0.2807  0.1441  0.1867
  925MOL0     H24847  11.258   9.184   2.330 -0.7468 -0.8618  1.1857
  925MOL0     H24848  11.108   9.167   2.415  0.1165 -3.3305 -0.2412
  925MOL0     H24849  11.150   9.048   2.138 -1.1576 -2.7463 -0.3146
  925MOL0     H24850  11.002   9.071   2.229  0.1902  1.4987  0.9154
  925MOL0     H24851  11.129   8.844   2.228 -0.6447  0.0791 -0.3764
  925MOL0     H24852  11.230   8.921   2.365 -0.5001  5.6502  1.0122
  925MOL0     H24853  10.943   8.902   2.381  0.9897 -0.0608 -4.3911
  925MOL0     H24854  11.054   8.927   2.514 -2.4409 -0.3049 -0.4421
  925MOL0     H24855  10.983   8.658   2.380 -1.4225  1.1322  0.4257
  925MOL0     H24856  10.994   8.704   2.548  0.0921  1.4594  1.1800
  925MOL0     H24857  10.736   9.420   2.592 -1.7875  2.7089  3.4656
  925MOL0     H24858  10.543   9.514   2.648  0.8208  0.3171  0.3525
  925MOL0     H24859  10.018   9.781   2.385 -0.7542 -1.3148  0.2708
  925MOL0     H24860   9.891   9.934   2.490 -0.6243 -0.4776 -0.4319
  925MOL0     H24861  10.353  11.242   1.906  0.2561  0.9085 -0.8249
  925MOL0     H24862  10.542  11.243   1.777  1.2986  0.5834  0.5394
  925MOL0     H24863  10.931  10.980   1.598  0.4991 -0.5580  2.8667
  925MOL0     H24864  11.124  10.998   1.457  3.5206  0.3043 -0.8993
  925MOL0     H24865  11.351  11.366   1.486  2.1839  1.7918  0.2422
  925MOL0     H24866  11.464  11.304   1.610 -1.1461  0.6729  0.3373
  925MOL0     H24867  11.605  11.225   1.406 -2.2648 -2.4346  0.0948
  925MOL0     H24868  11.576  11.402   1.395 -0.4151  0.5478 -2.2939
  925MOL0     H24869  11.385  11.369   1.236 -0.9638 -1.1832 -1.9681
  925MOL0     H24870  11.414  11.194   1.236 -4.0479  1.0220  1.2054
  925MOL0     H24871  11.636  11.207   1.187  2.5645  0.1777 -2.3870
  925MOL0     H24872  11.645  11.383   1.162  1.1804 -0.6256  2.1341
  925MOL0     H24873  11.475  11.257   0.799  3.4914 -1.6769  0.1051
  925MOL0     H24874  11.277  11.315   1.706 -1.4929  3.3001 -1.6055
  925MOL0     H24875  11.051  11.320   1.827  0.7190 -1.0424 -0.3489
  926MOL0     O24876   0.228   8.512   6.689 -0.6360 -0.3916 -0.6027
  926MOL0     C24877   0.277   8.604   6.632  0.9132 -1.5994 -0.4008
  926MOL0     O24878   0.373   8.680   6.682  1.0724 -0.4027  0.3000
  926MOL0     C24879   0.414   8.664   6.813 -0.4076  0.0084  0.3182
  926MOL0     C24880   0.443   8.543   6.869 -0.2155  0.0965 -0.4915
  926MOL0     C24881   0.489   8.551   7.008  0.2530 -0.0844  0.8424
  926MOL0     C24882   0.488   8.667   7.080 -0.6654 -0.5545  0.1245
  926MOL0     O24883   0.534   8.648   7.205  0.6119  0.3095 -0.1182
  926MOL0     C24884   0.552   8.754   7.309 -0.7448 -0.1272  0.1747
  926MOL0     C24885   0.664   8.858   7.285  0.5196  1.1550  0.0699
  926MOL0     C24886   0.670   8.956   7.397 -0.2725 -0.4526 -0.1609
  926MOL0     C24887   0.791   9.062   7.388 -0.2363 -0.6468  0.3092
  926MOL0     C24888   0.756   9.195   7.459  0.3036 -0.1276 -0.7585
  926MOL0     C24889   0.867   9.311   7.445 -0.2937  0.8153  0.8642
  926MOL0     C24890   0.819   9.445   7.506  0.8216  0.0822 -0.6374
  926MOL0     C24891   0.695   9.504   7.430 -0.1442  0.3505  0.6464
  926MOL0     N24892   0.681   9.656   7.432  0.1518  0.2238 -0.1305
  926MOL0     C24893   0.671   9.717   7.557 -0.0494 -1.1647  0.0747
  926MOL0     C24894   0.670   9.848   7.535 -0.0960  0.1173  0.3530
  926MOL0     C24895   0.640   9.955   7.638 -0.3343  0.1469  0.0056
  926MOL0     C24896   0.686  10.093   7.592 -0.2874 -0.3477  0.3390
  926MOL0     C24897   0.667  10.209   7.694 -0.0270 -0.5133  0.2826
  926MOL0     C24898   0.713  10.333   7.614 -0.0392 -0.5733 -0.1651
  926MOL0     O24899   0.856  10.337   7.642  0.7262 -0.6850 -0.2640
  926MOL0     C24900   0.922  10.403   7.539  0.5834 -0.0655  0.0046
  926MOL0     C24901   0.872  10.511   7.458  0.4520  0.5220  0.2611
  926MOL0     C24902   0.945  10.555   7.348  0.0828 -0.6771 -0.6484
  926MOL0     C24903   0.873  10.662   7.255 -0.1518  0.8483  0.2126
  926MOL0     C24904   1.068  10.497   7.316  0.2901  0.1726 -0.3129
  926MOL0     C24905   1.164  10.524   7.202  0.0823  0.7521 -0.4051
  926MOL0     O24906   1.266  10.434   7.186 -0.6884 -0.3218  0.0603
  926MOL0     C24907   1.363  10.482   7.096 -0.1181  0.8389  0.2003
  926MOL0     C24908   1.480  10.538   7.148 -1.1496  0.8044 -0.2264
  926MOL0     C24909   1.580  10.563   7.049 -0.2143 -0.4742 -1.1668
  926MOL0     C24910   1.578  10.535   6.911  0.2622 -0.5182 -0.0440
  926MOL0     O24911   1.692  10.529   6.830  0.4693 -0.8935  0.1363
  926MOL0     C24912   1.768  10.654   6.828 -0.5708  0.6729 -0.2755
  926MOL0     C24913   1.770  10.711   6.692 -0.4245  0.8497  0.6159
  926MOL0     C24914   1.813  10.857   6.690 -1.1014  0.2232  0.4904
  926MOL0     C24915   1.841  10.897   6.544  0.0688  1.0435  0.0623
  926MOL0     C24916   1.887  11.044   6.540 -0.1026 -0.5243  0.1512
  926MOL0     C24917   1.804  11.149   6.624  0.0910 -0.4121  0.3937
  926MOL0     C24918   1.826  11.289   6.573 -0.4906  0.6706 -0.7221
  926MOL0     C24919   1.709  11.384   6.620 -0.6074  0.3814  0.2670
  926MOL0    Cl24920   1.741  11.546   6.579  0.0256 -0.4307 -0.2462
  926MOL0     C24921   1.453  10.495   6.867 -0.4282 -0.9736 -0.4488
  926MOL0     C24922   1.346  10.475   6.953  0.3772  0.4000 -0.4974
  926MOL0     O24923   1.132  10.610   7.133 -0.0778  0.6245  0.8001
  926MOL0     C24924   1.110  10.394   7.404 -1.6153 -1.0630 -1.1296
  926MOL0     C24925   1.045  10.350   7.518 -0.0933  0.3398  0.1643
  926MOL0     N24926   0.704   9.865   7.398 -0.9004 -0.3272 -0.8303
  926MOL0     N24927   0.698   9.752   7.340  0.1653  0.1811  0.2000
  926MOL0     C24928   0.476   8.791   7.013  0.3898 -0.0744  0.2663
  926MOL0     C24929   0.433   8.789   6.881 -0.5227  0.3896  1.0704
  926MOL0     C24930   0.228   8.627   6.491 -0.2440  0.6198 -1.0427
  926MOL0     C24931   0.109   8.574   6.445  0.2788  0.2257  1.0984
  926MOL0     C24932   0.078   8.570   6.311 -0.5796  0.8610  0.5404
  926MOL0     C24933   0.161   8.638   6.213 -0.0866  0.1522  0.3321
  926MOL0     O24934   0.151   8.648   6.072 -0.4150 -0.3325 -0.4772
  926MOL0     C24935   0.054   8.557   6.016 -0.5332  0.1940 -0.6827
  926MOL0     C24936   0.078   8.548   5.863 -0.6741 -0.6569 -0.8641
  926MOL0     C24937   0.026   8.672   5.790 -0.2381  0.2940  0.4505
  926MOL0     C24938  -0.023   8.640   5.649 -1.5758 -0.0035  0.7184
  926MOL0     C24939   0.081   8.579   5.568 -0.1620  0.4091  0.0243
  926MOL0     C24940   0.179   8.559   5.493 -0.3928  0.7573 -0.1650
  926MOL0     C24941   0.282   8.691   6.262 -0.3967 -0.2482 -0.5770
  926MOL0     C24942   0.317   8.672   6.396 -0.8882 -0.3221 -0.9308
  926MOL0     H24943   0.422   8.449   6.819 -0.7171  0.6182 -1.2897
  926MOL0     H24944   0.504   8.457   7.060 -1.9889  0.9468  3.6598
  926MOL0     H24945   0.456   8.804   7.325  1.0491  3.8963 -0.4320
  926MOL0     H24946   0.588   8.714   7.404  0.2083  0.4677  0.0786
  926MOL0     H24947   0.761   8.810   7.270  1.0670  2.3861 -0.5083
  926MOL0     H24948   0.644   8.916   7.194 -1.5181 -1.0964 -1.0431
  926MOL0     H24949   0.574   9.008   7.389  1.3061  2.5698 -0.7700
  926MOL0     H24950   0.671   8.907   7.495  1.9210  1.2356  0.7649
  926MOL0     H24951   0.879   9.016   7.433  1.7138  0.1407 -2.4567
  926MOL0     H24952   0.805   9.089   7.283 -1.0950  0.2238  0.4035
  926MOL0     H24953   0.670   9.231   7.401 -0.3572  1.2452  0.9897
  926MOL0     H24954   0.728   9.182   7.563 -0.8994  2.8446 -0.6043
  926MOL0     H24955   0.963   9.279   7.486 -0.5344 -0.9805  0.0939
  926MOL0     H24956   0.882   9.317   7.337 -0.0611  1.1768  0.9128
  926MOL0     H24957   0.789   9.412   7.606  1.8293 -0.7136 -0.5860
  926MOL0     H24958   0.890   9.529   7.508 -0.8152  1.5275  0.5788
  926MOL0     H24959   0.602   9.465   7.475  0.8158 -2.5060  0.3935
  926MOL0     H24960   0.695   9.461   7.329 -0.8649 -1.4804  1.3762
  926MOL0     H24961   0.669   9.675   7.657  2.5768 -1.6197 -0.0002
  926MOL0     H24962   0.532   9.950   7.654  0.1108  1.3643  4.8407
  926MOL0     H24963   0.695   9.929   7.728  1.0689  2.2671 -0.1617
  926MOL0     H24964   0.634  10.123   7.501  0.4747  0.5300  0.1824
  926MOL0     H24965   0.791  10.075   7.565 -0.7648 -3.4631  0.1685
  926MOL0     H24966   0.717  10.186   7.789 -1.0509 -1.1899  0.6746
  926MOL0     H24967   0.559  10.217   7.704 -0.0660  3.7416 -1.4268
  926MOL0     H24968   0.659  10.413   7.666 -0.8593 -1.8513  1.0030
  926MOL0     H24969   0.690  10.326   7.508  4.1025  0.6495 -1.3329
  926MOL0     H24970   0.772  10.552   7.476  0.8063 -0.0517  4.7355
  926MOL0     H24971   0.780  10.700   7.300 -3.0472 -0.0922 -4.2932
  926MOL0     H24972   0.939  10.745   7.229 -1.2656  1.2857 -1.3524
  926MOL0     H24973   0.842  10.618   7.160  4.3574 -1.6145 -0.3995
  926MOL0     H24974   1.485  10.561   7.254 -1.2204 -1.0095  0.2031
  926MOL0     H24975   1.678  10.603   7.069  0.2809 -0.0015 -4.0409
  926MOL0     H24976   1.737  10.736   6.893 -0.0105 -0.6313  1.7594
  926MOL0     H24977   1.867  10.640   6.873 -0.6798  1.4137  0.2140
  926MOL0     H24978   1.843  10.657   6.630  0.1203  0.6658  1.3990
  926MOL0     H24979   1.674  10.693   6.644 -0.5039 -1.6985  1.5505
  926MOL0     H24980   1.904  10.869   6.750 -1.5095 -1.6869  1.6160
  926MOL0     H24981   1.728  10.918   6.723 -2.6404  1.1043 -4.3011
  926MOL0     H24982   1.914  10.829   6.500 -2.1625 -0.5226 -1.4269
  926MOL0     H24983   1.755  10.890   6.477  0.5794  1.8954 -0.7010
  926MOL0     H24984   1.870  11.076   6.436  0.1594  0.7709  0.4832
  926MOL0     H24985   1.991  11.065   6.566  0.1463  0.7300 -1.6387
  926MOL0     H24986   1.703  11.118   6.596  1.1746 -2.4654 -1.6555
  926MOL0     H24987   1.810  11.152   6.733 -2.6991  2.2906  0.6063
  926MOL0     H24988   1.839  11.288   6.465 -1.0136  1.8371 -0.8133
  926MOL0     H24989   1.920  11.319   6.620  0.0556 -3.5991  1.4623
  926MOL0     H24990   1.686  11.363   6.725  0.3492  0.0414  0.4180
  926MOL0     H24991   1.625  11.360   6.554 -0.2550 -0.1132 -0.0074
  926MOL0     H24992   1.436  10.474   6.762  1.8066  4.2751 -2.1634
  926MOL0     H24993   1.248  10.443   6.920 -1.1281 -0.0959  3.8113
  926MOL0     H24994   1.212  10.359   7.396 -0.2367  2.5551 -1.3989
  926MOL0     H24995   1.088  10.270   7.577 -0.2844 -1.0833 -1.5306
  926MOL0     H24996   0.482   8.890   7.057  0.9314  0.2299 -0.4777
  926MOL0     H24997   0.421   8.873   6.814  2.1937  0.0036 -0.0458
  926MOL0     H24998   0.036   8.521   6.506  0.4207  2.4106  3.3404
  926MOL0     H24999  -0.009   8.514   6.278  0.6640  0.4774 -2.3928
  926MOL0     H25000   0.067   8.454   6.051 -1.0042  0.4042  0.1161
  926MOL0     H25001  -0.047   8.590   6.041  0.2269  1.5919  0.6954
  926MOL0     H25002   0.025   8.458   5.830 -3.5549  0.6062  0.0197
  926MOL0     H25003   0.186   8.537   5.849  0.2222  2.5512  2.1590
  926MOL0     H25004   0.102   8.749   5.773 -1.3677  0.7040 -4.0738
  926MOL0     H25005  -0.043   8.724   5.858  2.2262  0.9774  2.5538
  926MOL0     H25006  -0.039   8.728   5.587 -1.5846 -0.6083 -0.1590
  926MOL0     H25007  -0.106   8.569   5.644  0.6309 -2.6955 -2.2441
  926MOL0     H25008   0.275   8.547   5.447 -1.2057  4.2166 -3.1852
  926MOL0     H25009   0.359   8.725   6.193 -0.0323  4.6006  1.8112
  926MOL0     H25010   0.413   8.709   6.430 -1.0295 -1.9170  1.4087
  927MOL0     O25011   4.051   1.560   6.129 -0.8582 -0.0763  0.0639
  927MOL0     C25012   3.972   1.612   6.206 -0.1421  0.2636  0.3622
  927MOL0     O25013   4.003   1.687   6.315 -1.0710 -0.0724  0.1508
  927MOL0     C25014   4.126   1.752   6.316 -0.3891 -0.2460  0.4588
  927MOL0     C25015   4.196   1.802   6.203  0.7419 -1.0007  0.4767
  927MOL0     C25016   4.312   1.878   6.214  0.3916 -0.7329 -0.6563
  927MOL0     C25017   4.370   1.897   6.341 -1.0599 -0.2906  0.7093
  927MOL0     O25018   4.493   1.961   6.361 -0.0190  0.3659 -0.0876
  927MOL0     C25019   4.494   2.105   6.329 -0.3743 -0.2098  0.3317
  927MOL0     C25020   4.631   2.167   6.354 -0.1717  0.1400 -0.0724
  927MOL0     C25021   4.650   2.304   6.283 -0.1235 -0.5106 -0.4538
  927MOL0     C25022   4.563   2.418   6.351  0.3537  0.1639 -0.6169
  927MOL0     C25023   4.598   2.561   6.318 -0.1871 -0.1688  0.1017
  927MOL0     C25024   4.533   2.664   6.405  0.6797 -0.0779 -0.5115
  927MOL0     C25025   4.379   2.666   6.405 -0.3083 -0.1286 -0.5319
  927MOL0     C25026   4.314   2.742   6.284 -0.8356  0.2178 -0.2016
  927MOL0     N25027   4.175   2.702   6.256 -0.1254  0.1144 -0.2042
  927MOL0     C25028   4.065   2.766   6.310  0.9826  0.4700  1.1519
  927MOL0     C25029   3.955   2.719   6.240 -0.0913 -0.0798  0.1228
  927MOL0     C25030   3.815   2.749   6.268  0.0609 -0.4726 -0.5958
  927MOL0     C25031   3.728   2.643   6.335 -0.7680 -0.1745 -0.4200
  927MOL0     C25032   3.717   2.507   6.269  0.6549  0.2989  0.5812
  927MOL0     C25033   3.598   2.519   6.181 -0.0168  0.4117 -0.8853
  927MOL0     O25034   3.590   2.419   6.080 -0.3380 -0.3506 -0.0538
  927MOL0     C25035   3.504   2.443   5.978  0.5396 -0.8140 -0.6132
  927MOL0     C25036   3.411   2.556   5.985 -0.3235  1.2159  0.5666
  927MOL0     C25037   3.324   2.570   5.876 -0.8208  0.2080 -0.9330
  927MOL0     C25038   3.243   2.699   5.875  0.1572 -0.6758  0.5742
  927MOL0     C25039   3.325   2.473   5.775  0.5250  0.0677  0.0885
  927MOL0     C25040   3.230   2.464   5.658  0.0456 -0.0521 -0.8720
  927MOL0     O25041   3.203   2.343   5.607  0.3490  0.3044 -0.6494
  927MOL0     C25042   3.108   2.321   5.514 -0.9556  0.5926 -1.1819
  927MOL0     C25043   3.150   2.320   5.379 -0.4611  0.6419 -0.5946
  927MOL0     C25044   3.068   2.284   5.281  0.3008  0.6687 -0.7340
  927MOL0     C25045   2.927   2.280   5.299  0.4332  0.4221 -0.8782
  927MOL0     O25046   2.845   2.245   5.189  0.4107  0.3318 -0.1299
  927MOL0     C25047   2.702   2.206   5.208 -0.4509 -0.0559  0.1519
  927MOL0     C25048   2.661   2.142   5.078  0.3914  0.3628 -0.5447
  927MOL0     C25049   2.540   2.222   5.022  0.0177 -0.5120  0.3902
  927MOL0     C25050   2.478   2.146   4.911  0.3632 -0.1980  1.0644
  927MOL0     C25051   2.382   2.235   4.822 -0.0875  0.2245  0.2692
  927MOL0     C25052   2.316   2.350   4.899 -0.4501  0.1255 -0.4810
  927MOL0     C25053   2.227   2.439   4.803 -0.9008 -0.1464  0.6648
  927MOL0     C25054   2.303   2.497   4.681  0.0166 -0.3263 -0.1015
  927MOL0    Cl25055   2.449   2.576   4.744  0.1665 -0.1693 -0.3493
  927MOL0     C25056   2.877   2.290   5.438  1.0210 -0.2690 -0.4185
  927MOL0     C25057   2.974   2.297   5.544  0.0318 -0.0997  0.4169
  927MOL0     O25058   3.176   2.570   5.630 -0.2626 -0.6940  0.5341
  927MOL0     C25059   3.417   2.369   5.780  0.0550 -0.7116  0.0861
  927MOL0     C25060   3.515   2.355   5.871  0.9461 -0.5155  0.8731
  927MOL0     N25061   4.008   2.636   6.144 -0.4484  0.3114  0.1060
  927MOL0     N25062   4.132   2.621   6.160  0.0418  0.2334  0.8100
  927MOL0     C25063   4.310   1.839   6.451 -0.4872  0.0042 -0.8728
  927MOL0     C25064   4.194   1.761   6.443 -0.2993 -0.0855  1.6629
  927MOL0     C25065   3.826   1.610   6.163 -0.4323 -0.0124 -0.5714
  927MOL0     C25066   3.731   1.681   6.244  0.1932 -0.1408 -0.1207
  927MOL0     C25067   3.597   1.686   6.204  0.2601 -0.7259  1.1244
  927MOL0     C25068   3.554   1.615   6.097  0.4451  0.7156  0.5555
  927MOL0     O25069   3.417   1.632   6.073  0.1758 -0.2897 -0.1702
  927MOL0     C25070   3.363   1.571   5.962  0.6184  0.9767  0.2706
  927MOL0     C25071   3.227   1.618   5.923  1.1458 -1.5073  0.9169
  927MOL0     C25072   3.192   1.569   5.779 -0.4316  0.6171  0.0557
  927MOL0     C25073   3.044   1.574   5.759  0.6740 -0.6325 -0.1929
  927MOL0     C25074   3.010   1.556   5.618  0.4317  0.8507 -0.8790
  927MOL0     C25075   2.998   1.542   5.495 -0.8967 -1.2619 -0.3595
  927MOL0     C25076   3.636   1.537   6.018 -1.4185  0.6198 -0.7147
  927MOL0     C25077   3.774   1.528   6.059  0.8068 -1.4990 -0.4034
  927MOL0     H25078   4.142   1.782   6.111 -1.4255 -1.6330  1.8001
  927MOL0     H25079   4.357   1.933   6.132  2.8057 -0.2150  0.8889
  927MOL0     H25080   4.479   2.115   6.221 -1.1071  0.6537  0.5011
  927MOL0     H25081   4.414   2.155   6.385 -0.9671 -0.5519 -0.1889
  927MOL0     H25082   4.645   2.174   6.462  1.7046  2.1588 -0.3890
  927MOL0     H25083   4.699   2.097   6.304  0.7930  0.3106  0.9609
  927MOL0     H25084   4.756   2.318   6.305 -0.1671 -0.6583 -0.1477
  927MOL0     H25085   4.632   2.304   6.175 -0.2355  1.0007 -0.4470
  927MOL0     H25086   4.460   2.391   6.324  0.7642 -3.9851  1.1630
  927MOL0     H25087   4.556   2.400   6.459 -1.2223 -0.9995 -0.8710
  927MOL0     H25088   4.705   2.573   6.334 -0.2340  0.4065  0.0086
  927MOL0     H25089   4.579   2.576   6.212  0.9651  0.9382  0.0264
  927MOL0     H25090   4.556   2.640   6.509  0.0472 -0.7407 -0.5169
  927MOL0     H25091   4.574   2.763   6.381  2.2478 -0.9658 -1.7123
  927MOL0     H25092   4.331   2.568   6.397  0.1292 -0.6059  1.7384
  927MOL0     H25093   4.356   2.698   6.508  0.4017 -1.4776  0.0744
  927MOL0     H25094   4.380   2.728   6.197  1.7570  0.4166  1.6232
  927MOL0     H25095   4.320   2.850   6.297  1.6978  0.0349  0.7345
  927MOL0     H25096   4.060   2.839   6.391 -1.4777  0.6462  0.9177
  927MOL0     H25097   3.806   2.835   6.336 -0.4290 -1.5331  0.7148
  927MOL0     H25098   3.763   2.787   6.179 -3.6493  1.7387  2.2458
  927MOL0     H25099   3.632   2.693   6.354  0.7258  4.1328 -2.8845
  927MOL0     H25100   3.772   2.633   6.434 -2.3661  3.5713  0.8721
  927MOL0     H25101   3.702   2.421   6.334  2.9916  0.7086  1.7885
  927MOL0     H25102   3.801   2.484   6.202  0.6282 -1.1737  1.0142
  927MOL0     H25103   3.598   2.620   6.139  2.7307  1.0180  0.3510
  927MOL0     H25104   3.504   2.501   6.233  0.9177 -3.9943 -0.3403
  927MOL0     H25105   3.398   2.629   6.064 -0.3441  1.3973  0.3994
  927MOL0     H25106   3.253   2.756   5.968  0.4476  0.6625 -0.2496
  927MOL0     H25107   3.283   2.764   5.797 -3.5415 -0.0123 -0.9635
  927MOL0     H25108   3.137   2.684   5.852 -0.0536  1.7932 -0.3645
  927MOL0     H25109   3.255   2.335   5.356 -0.2642 -0.0674 -0.1924
  927MOL0     H25110   3.095   2.275   5.176 -1.4052 -1.9910 -1.0688
  927MOL0     H25111   2.690   2.129   5.285 -0.8406 -0.1713 -0.0254
  927MOL0     H25112   2.658   2.303   5.232  4.4640  2.2034  1.4626
  927MOL0     H25113   2.743   2.144   5.006  1.6276 -1.5161  0.7235
  927MOL0     H25114   2.634   2.037   5.088  2.7537 -0.1975  0.5004
  927MOL0     H25115   2.587   2.311   4.978  0.1065 -0.1184  1.2699
  927MOL0     H25116   2.465   2.244   5.098 -1.4611  1.1935 -1.4681
  927MOL0     H25117   2.557   2.120   4.841 -1.5972 -0.9236 -1.0118
  927MOL0     H25118   2.422   2.056   4.939 -0.8818 -0.8184 -2.7887
  927MOL0     H25119   2.307   2.180   4.764 -2.7025  1.5393  2.2584
  927MOL0     H25120   2.437   2.289   4.744 -0.5135  2.7791  1.6425
  927MOL0     H25121   2.254   2.314   4.982 -3.6233  0.8972 -2.3554
  927MOL0     H25122   2.394   2.403   4.955  0.8189  0.6676 -2.6700
  927MOL0     H25123   2.191   2.525   4.859  1.3757  0.8341  0.7120
  927MOL0     H25124   2.143   2.385   4.757  0.5325 -1.0176 -1.0740
  927MOL0     H25125   2.248   2.572   4.624 -0.4152 -0.0316  0.6792
  927MOL0     H25126   2.336   2.418   4.613  2.0054 -1.8146  2.3865
  927MOL0     H25127   2.771   2.301   5.460  0.9287  0.5919 -1.2705
  927MOL0     H25128   2.936   2.311   5.644  0.8517  0.6382  0.6297
  927MOL0     H25129   3.428   2.294   5.703  3.2163 -1.5972  1.2645
  927MOL0     H25130   3.601   2.289   5.862  2.3156  1.4693 -1.9596
  927MOL0     H25131   4.379   1.817   6.531  1.5900 -0.9755 -2.8449
  927MOL0     H25132   4.154   1.725   6.537  0.8859 -0.3519  2.0848
  927MOL0     H25133   3.769   1.736   6.329 -1.5737  1.9671 -0.6191
  927MOL0     H25134   3.525   1.731   6.272  3.4370  1.1454  3.5271
  927MOL0     H25135   3.428   1.579   5.874  1.7155 -0.3958  0.9158
  927MOL0     H25136   3.355   1.466   5.989 -1.2874  1.4602  1.7770
  927MOL0     H25137   3.231   1.727   5.930 -2.0962 -1.0278 -2.1397
  927MOL0     H25138   3.159   1.584   6.002 -0.3728 -0.3305  0.1692
  927MOL0     H25139   3.225   1.467   5.758 -1.8381  0.0670  0.3614
  927MOL0     H25140   3.232   1.636   5.703  1.8594 -1.2566 -0.5242
  927MOL0     H25141   2.993   1.661   5.801  0.4082 -1.1954  0.6763
  927MOL0     H25142   3.003   1.493   5.820  1.0922 -1.0128 -0.4130
  927MOL0     H25143   2.983   1.534   5.389 -2.2400 -1.3301 -0.1705
  927MOL0     H25144   3.607   1.482   5.929 -0.2466  3.8623 -3.3160
  927MOL0     H25145   3.853   1.471   6.011  1.6365 -0.5351 -0.2065
  928MOL0     O25146   6.693  11.282   0.090 -0.3694  0.4903  0.1232
  928MOL0     C25147   6.689  11.216   0.193 -0.0195  0.0650  0.0544
  928MOL0     O25148   6.579  11.197   0.269  0.0482 -0.4926 -0.1645
  928MOL0     C25149   6.456  11.249   0.222 -0.4383 -0.0622 -0.3417
  928MOL0     C25150   6.442  11.387   0.211 -0.3354  0.0488 -0.8028
  928MOL0     C25151   6.324  11.445   0.178  0.0532  0.2343 -0.4062
  928MOL0     C25152   6.200  11.376   0.177 -0.9414 -1.0377 -0.4276
  928MOL0     O25153   6.072  11.438   0.173 -0.3979  0.7448  0.5553
  928MOL0     C25154   6.075  11.576   0.166  0.6092 -0.4092  0.1657
  928MOL0     C25155   5.923  11.614   0.137  0.1571 -0.5322  0.0948
  928MOL0     C25156   5.882  11.758   0.116 -0.9138 -1.4366 -0.4138
  928MOL0     C25157   5.911  11.840   0.244  0.2145  0.4138  1.1047
  928MOL0     C25158   5.878  11.992   0.224 -0.1423 -1.0193 -0.4220
  928MOL0     C25159   5.726  12.015   0.198 -0.4475 -0.2789  0.6057
  928MOL0     C25160   5.665  12.154   0.212 -0.6015  0.1578  0.2961
  928MOL0     C25161   5.707  12.241   0.094 -0.1531 -0.2482  0.7680
  928MOL0     N25162   5.616  12.357   0.088 -0.1934 -0.4508 -0.0209
  928MOL0     C25163   5.614  12.462   0.178 -1.0328  0.5018  0.6537
  928MOL0     C25164   5.519  12.552   0.128 -0.6514 -0.1243 -0.2940
  928MOL0     C25165   5.484  12.691   0.190  0.0524 -1.0866  0.8562
  928MOL0     C25166   5.597  12.789   0.159  0.2755 -0.3642 -0.7554
  928MOL0     C25167   5.575  12.920   0.228 -0.6498 -0.2661 -0.7912
  928MOL0     C25168   5.654  13.045   0.182  0.5795  0.1161 -0.6206
  928MOL0     O25169   5.605  13.073   0.049  0.7046  0.1738 -0.5454
  928MOL0     C25170   5.668  13.172  -0.036 -0.1448  0.8903  0.0071
  928MOL0     C25171   5.614  13.187  -0.164  0.7293 -0.3054 -0.4350
  928MOL0     C25172   5.652  13.289  -0.251  0.3199  0.2640 -0.3458
  928MOL0     C25173   5.562  13.298  -0.377  0.3189  0.7375 -0.6284
  928MOL0     C25174   5.753  13.381  -0.209 -0.3728 -0.0072 -0.4258
  928MOL0     C25175   5.810  13.498  -0.283 -0.1756 -1.3014  0.0801
  928MOL0     O25176   5.733  13.556  -0.378  0.3822 -0.4757 -0.4336
  928MOL0     C25177   5.750  13.672  -0.433  0.7408 -0.3632 -0.1043
  928MOL0     C25178   5.828  13.690  -0.547 -0.8871  0.5714 -0.3355
  928MOL0     C25179   5.863  13.820  -0.596 -0.3881  0.2648 -0.5204
  928MOL0     C25180   5.808  13.937  -0.544  0.0344  0.5591  0.2227
  928MOL0     O25181   5.855  14.059  -0.571  0.4033 -0.1122  0.4950
  928MOL0     C25182   5.913  14.100  -0.695  0.7903  0.1114  0.2462
  928MOL0     C25183   5.874  14.240  -0.714  0.3932  0.4242 -0.5928
  928MOL0     C25184   5.967  14.302  -0.811  0.1477 -0.4716 -0.5793
  928MOL0     C25185   6.116  14.317  -0.769  1.0378 -0.7120  0.1777
  928MOL0     C25186   6.193  14.411  -0.866 -0.5564  0.2626 -0.1911
  928MOL0     C25187   6.154  14.551  -0.848 -0.8420 -1.2411  1.1527
  928MOL0     C25188   6.213  14.639  -0.961  0.2101 -0.0182  0.1930
  928MOL0     C25189   6.170  14.776  -0.974 -0.1402 -0.3226  0.0364
  928MOL0    Cl25190   6.165  14.875  -0.825 -0.0612  0.2945  0.1671
  928MOL0     C25191   5.708  13.920  -0.442  0.6683  0.0137 -0.0499
  928MOL0     C25192   5.680  13.793  -0.385 -0.2199  0.1181  0.2341
  928MOL0     O25193   5.922  13.536  -0.255  0.7613  0.3965  0.3806
  928MOL0     C25194   5.815  13.360  -0.083  0.3093  0.8238 -0.8606
  928MOL0     C25195   5.772  13.258   0.005 -0.1983  0.6469 -0.5654
  928MOL0     N25196   5.470  12.509   0.009  0.3573  0.1394 -0.2678
  928MOL0     N25197   5.528  12.400  -0.015  0.9064  0.8938  0.2919
  928MOL0     C25198   6.216  11.240   0.182 -0.3744  0.2090 -0.0818
  928MOL0     C25199   6.341  11.177   0.208  0.2473  0.0820 -0.2990
  928MOL0     C25200   6.818  11.167   0.262  0.1234 -0.0221 -0.2011
  928MOL0     C25201   6.924  11.144   0.183  0.0540  0.6021  0.3760
  928MOL0     C25202   7.032  11.076   0.230 -0.8561 -0.1722 -1.0467
  928MOL0     C25203   7.036  11.031   0.364  0.2447  0.7945  0.4744
  928MOL0     O25204   7.143  10.957   0.399  1.3795 -0.0507 -0.3621
  928MOL0     C25205   7.107  10.818   0.414 -0.3959  0.3205 -0.2117
  928MOL0     C25206   7.146  10.747   0.288  0.2539 -0.6368  0.7288
  928MOL0     C25207   7.298  10.757   0.259 -0.0200 -0.3442 -0.0523
  928MOL0     C25208   7.386  10.684   0.355 -1.3230 -0.0693 -0.9717
  928MOL0     C25209   7.527  10.676   0.312 -0.2005  0.0034  0.3273
  928MOL0     C25210   7.629  10.677   0.253 -0.5536 -0.5081 -0.8308
  928MOL0     C25211   6.941  11.063   0.461 -0.4504 -0.5349 -0.1055
  928MOL0     C25212   6.834  11.125   0.402  0.1121  0.3581 -0.1069
  928MOL0     H25213   6.536  11.439   0.228 -0.3230 -0.5525  1.2242
  928MOL0     H25214   6.330  11.552   0.164 -0.8149  0.7098  2.2589
  928MOL0     H25215   6.101  11.635   0.254  0.2991  0.0838 -0.0681
  928MOL0     H25216   6.129  11.617   0.080 -2.4623 -0.4797 -1.9510
  928MOL0     H25217   5.900  11.573   0.038 -1.4332 -0.3416  0.3495
  928MOL0     H25218   5.865  11.576   0.222 -0.6034 -0.4750 -0.3835
  928MOL0     H25219   5.953  11.800   0.044 -0.7246 -0.6751  0.1977
  928MOL0     H25220   5.780  11.767   0.079  0.8913  1.7853 -5.7811
  928MOL0     H25221   5.846  11.796   0.321  0.0789  1.0414  1.3589
  928MOL0     H25222   6.018  11.826   0.266  0.7937  2.0524 -0.4275
  928MOL0     H25223   5.896  12.049   0.315  0.8304  1.7640 -2.2481
  928MOL0     H25224   5.933  12.038   0.142 -1.7629  1.6003 -0.1270
  928MOL0     H25225   5.689  11.964   0.109 -1.5764  2.4067 -0.5501
  928MOL0     H25226   5.685  11.965   0.287 -1.1145 -1.3711 -0.2850
  928MOL0     H25227   5.557  12.150   0.224 -0.7925  1.5749 -0.7726
  928MOL0     H25228   5.697  12.204   0.304 -2.0228  0.6354  0.5454
  928MOL0     H25229   5.696  12.174   0.009  0.5058 -1.4939  1.6357
  928MOL0     H25230   5.810  12.275   0.107 -0.8676  1.4832  2.3879
  928MOL0     H25231   5.667  12.470   0.272  3.2441 -0.4805 -1.3950
  928MOL0     H25232   5.389  12.726   0.149 -0.2340 -1.0013  1.5844
  928MOL0     H25233   5.475  12.686   0.299  2.4135  0.8223  1.2227
  928MOL0     H25234   5.597  12.792   0.050 -0.2469  0.4169 -0.7454
  928MOL0     H25235   5.689  12.746   0.200  0.3056  2.7208  2.9947
  928MOL0     H25236   5.593  12.900   0.334 -2.0015 -2.2464 -0.8762
  928MOL0     H25237   5.476  12.966   0.237  1.4782  4.9847 -0.7469
  928MOL0     H25238   5.760  13.016   0.183 -0.2541 -3.4915  0.8795
  928MOL0     H25239   5.646  13.129   0.252 -2.2369 -0.3359 -0.2808
  928MOL0     H25240   5.542  13.109  -0.186 -0.1928 -0.0372  1.4889
  928MOL0     H25241   5.517  13.398  -0.386  1.0700  1.1791  0.3196
  928MOL0     H25242   5.632  13.277  -0.458  2.0350 -1.2615  1.2627
  928MOL0     H25243   5.482  13.224  -0.382 -0.0993  0.7849  2.9261
  928MOL0     H25244   5.861  13.605  -0.605 -0.3715  1.6499 -1.6939
  928MOL0     H25245   5.929  13.821  -0.682 -0.9577 -0.0649 -0.9636
  928MOL0     H25246   6.021  14.089  -0.697  0.7856 -2.3500  4.1694
  928MOL0     H25247   5.880  14.035  -0.778  0.1076 -1.1167  1.4368
  928MOL0     H25248   5.777  14.250  -0.763  1.3562  1.6675 -2.3292
  928MOL0     H25249   5.860  14.293  -0.619  3.6379  1.2636 -0.4834
  928MOL0     H25250   5.932  14.404  -0.832  4.5231  1.3710 -0.0520
  928MOL0     H25251   5.970  14.254  -0.909  0.0775 -0.0724 -0.7806
  928MOL0     H25252   6.128  14.361  -0.670  0.7659 -0.7200  0.2136
  928MOL0     H25253   6.164  14.219  -0.762  1.1281 -0.6060  1.2062
  928MOL0     H25254   6.157  14.378  -0.964 -0.4200  0.2434 -0.2357
  928MOL0     H25255   6.300  14.389  -0.858 -0.5478 -0.3463 -1.7457
  928MOL0     H25256   6.046  14.567  -0.857 -0.8892 -1.6826  0.9454
  928MOL0     H25257   6.196  14.584  -0.752  0.4929 -2.1333  0.9139
  928MOL0     H25258   6.181  14.592  -1.054 -3.5065  2.4827 -0.0007
  928MOL0     H25259   6.322  14.641  -0.954  0.1478  1.3255  1.2748
  928MOL0     H25260   6.067  14.774  -1.012 -0.3519 -0.0113  0.5717
  928MOL0     H25261   6.223  14.816  -1.061 -3.2504  2.3136 -0.8548
  928MOL0     H25262   5.663  14.010  -0.402 -0.6902  1.2896 -3.9620
  928MOL0     H25263   5.603  13.793  -0.308 -1.0888 -0.0778 -0.6220
  928MOL0     H25264   5.888  13.431  -0.046  0.1291 -0.0955  1.4750
  928MOL0     H25265   5.823  13.243   0.099  0.7646  0.0163 -1.1769
  928MOL0     H25266   6.125  11.182   0.169 -0.5579 -0.3571  3.0451
  928MOL0     H25267   6.338  11.070   0.227 -1.1301  0.2993  0.9269
  928MOL0     H25268   6.912  11.158   0.076  1.4676 -1.1153 -0.0584
  928MOL0     H25269   7.112  11.049   0.161  0.0797 -3.0203  0.9496
  928MOL0     H25270   7.165  10.782   0.499 -1.4361 -2.9957 -0.7559
  928MOL0     H25271   7.002  10.789   0.430 -0.1410 -1.2178 -1.0660
  928MOL0     H25272   7.095  10.789   0.201 -1.4422 -1.3029  1.3567
  928MOL0     H25273   7.114  10.643   0.290 -3.2312  0.2890  0.3544
  928MOL0     H25274   7.333  10.861   0.255  0.7516 -0.6010 -0.1491
  928MOL0     H25275   7.317  10.711   0.162  1.6577 -3.5245  1.6269
  928MOL0     H25276   7.339  10.588   0.380 -4.0955  1.6390  0.9194
  928MOL0     H25277   7.394  10.741   0.448 -0.8255  0.1952 -1.1713
  928MOL0     H25278   7.717  10.681   0.192 -3.1732  0.1430 -4.9260
  928MOL0     H25279   6.956  11.037   0.565  1.0325 -0.3814 -0.2627
  928MOL0     H25280   6.755  11.140   0.475  0.9350 -3.9530  1.9627
  929MOL0     O25281   0.065   0.999   7.669 -0.4000  0.3658 -0.6276
  929MOL0     C25282   0.053   1.108   7.730 -0.5517  1.1565  0.1162
  929MOL0     O25283   0.085   1.235   7.678 -0.6286 -0.1375  0.6171
  929MOL0     C25284   0.151   1.258   7.557  0.7625 -0.5617  0.3356
  929MOL0     C25285   0.150   1.168   7.446 -0.1503 -0.5921  1.2627
  929MOL0     C25286   0.185   1.215   7.320 -0.1724 -0.0563 -0.0913
  929MOL0     C25287   0.229   1.340   7.292 -0.6837  0.4528 -1.0325
  929MOL0     O25288   0.244   1.379   7.160 -0.0940 -0.3912 -0.3754
  929MOL0     C25289   0.210   1.514   7.136 -0.3865 -1.4172 -0.0204
  929MOL0     C25290   0.060   1.525   7.133 -0.2608  0.6000 -0.7241
  929MOL0     C25291  -0.002   1.465   7.007  0.2768 -0.0423 -0.2941
  929MOL0     C25292   0.011   1.547   6.879  0.2223  0.3076  0.5924
  929MOL0     C25293  -0.080   1.497   6.761  0.9167  1.1603 -0.7138
  929MOL0     C25294  -0.098   1.589   6.647  0.0202 -0.0302  0.4653
  929MOL0     C25295   0.023   1.583   6.560 -0.5984 -0.1599  1.1736
  929MOL0     C25296  -0.029   1.560   6.413  0.1149  0.6624 -0.6547
  929MOL0     N25297   0.075   1.575   6.312 -0.0802  0.2446  0.0047
  929MOL0     C25298   0.051   1.638   6.194  0.3779 -1.0434 -0.0688
  929MOL0     C25299   0.170   1.648   6.138  0.3226 -0.2688 -0.4135
  929MOL0     C25300   0.223   1.727   6.022 -0.1324  0.6303  0.1560
  929MOL0     C25301   0.283   1.632   5.921 -0.4821  0.2826  0.4783
  929MOL0     C25302   0.365   1.704   5.819  0.4492  0.2527 -1.0338
  929MOL0     C25303   0.403   1.612   5.711 -0.2447 -0.9823  0.3099
  929MOL0     O25304   0.296   1.553   5.645 -0.3520  0.3040 -0.8309
  929MOL0     C25305   0.324   1.482   5.533 -0.2823 -0.4199  0.0431
  929MOL0     C25306   0.427   1.393   5.522  0.9312  0.8587 -0.0059
  929MOL0     C25307   0.457   1.325   5.402 -0.6270 -0.2952  0.2725
  929MOL0     C25308   0.559   1.214   5.402  0.2230 -0.0424 -0.7580
  929MOL0     C25309   0.390   1.368   5.280 -0.6859 -0.1881 -0.1615
  929MOL0     C25310   0.411   1.303   5.142  0.0249  0.0054  0.7569
  929MOL0     O25311   0.424   1.169   5.140  0.4145 -0.3074  0.5284
  929MOL0     C25312   0.431   1.098   5.022  0.1218 -0.4545 -0.0919
  929MOL0     C25313   0.502   0.987   5.034 -0.6361  0.4668 -0.4259
  929MOL0     C25314   0.493   0.893   4.931  0.1017 -0.6133  0.4675
  929MOL0     C25315   0.441   0.924   4.805  0.7778  0.1470 -0.6559
  929MOL0     O25316   0.441   0.826   4.710  0.2067 -0.5535  0.0500
  929MOL0     C25317   0.316   0.808   4.640  0.8967  0.2376 -0.5170
  929MOL0     C25318   0.304   0.673   4.570 -0.1325 -0.9846 -0.5018
  929MOL0     C25319   0.181   0.650   4.483  0.0130 -0.0760 -0.2184
  929MOL0     C25320   0.063   0.595   4.564 -0.4696 -0.4500  0.0825
  929MOL0     C25321  -0.060   0.560   4.483 -0.6583  0.4095 -0.2226
  929MOL0     C25322  -0.028   0.466   4.359 -0.2008  0.2578 -0.2435
  929MOL0     C25323  -0.157   0.401   4.308 -0.5357  0.7473 -1.1405
  929MOL0     C25324  -0.127   0.341   4.172  0.1648 -1.8563  0.1167
  929MOL0    Cl25325  -0.000   0.227   4.198 -0.7655  0.1074  0.0094
  929MOL0     C25326   0.380   1.047   4.787 -0.2226 -0.8459 -0.3893
  929MOL0     C25327   0.371   1.130   4.901 -0.6871 -0.5559  1.6332
  929MOL0     O25328   0.424   1.377   5.045 -0.0702 -0.3622  0.5973
  929MOL0     C25329   0.290   1.468   5.286  0.0277  0.4545 -0.5097
  929MOL0     C25330   0.256   1.521   5.416  0.9738 -0.5999  0.7774
  929MOL0     N25331   0.246   1.557   6.196  0.3615  0.3881  0.3952
  929MOL0     N25332   0.193   1.521   6.312  0.3669 -0.3359  0.2278
  929MOL0     C25333   0.251   1.416   7.404  0.6069  0.5222 -0.4129
  929MOL0     C25334   0.218   1.384   7.536 -0.6411 -0.1987  0.3671
  929MOL0     C25335  -0.001   1.101   7.865 -0.5290  0.0686  0.4905
  929MOL0     C25336  -0.037   0.983   7.929  0.6297 -0.8792 -0.4172
  929MOL0     C25337  -0.083   0.987   8.062 -0.0908  0.6229 -0.2867
  929MOL0     C25338  -0.098   1.104   8.130 -1.1094 -0.4210 -0.6979
  929MOL0     O25339  -0.140   1.116   8.259  0.2729 -0.5565 -0.3307
  929MOL0     C25340  -0.171   0.999   8.331  0.0648  0.5020 -0.7758
  929MOL0     C25341  -0.309   0.945   8.297 -0.2781  0.5410  0.7899
  929MOL0     C25342  -0.421   1.037   8.344  0.3660 -0.9286  0.9775
  929MOL0     C25343  -0.545   1.026   8.259 -0.2977  0.2087  0.2741
  929MOL0     C25344  -0.537   1.077   8.118 -0.5484 -0.8281 -1.0164
  929MOL0     C25345  -0.531   1.123   8.006  0.2430  0.6591 -0.9267
  929MOL0     C25346  -0.074   1.227   8.063 -0.0095  0.4100  0.0216
  929MOL0     C25347  -0.015   1.217   7.938  0.2058 -0.0339 -0.3971
  929MOL0     H25348   0.117   1.065   7.451  1.3036 -1.5478 -3.6791
  929MOL0     H25349   0.183   1.153   7.230  2.0969  1.3179 -1.1877
  929MOL0     H25350   0.243   1.588   7.210  1.1145 -0.2019 -1.8270
  929MOL0     H25351   0.256   1.549   7.044 -1.2392 -1.4703 -0.4825
  929MOL0     H25352   0.016   1.501   7.230  0.3678  1.9416 -0.0752
  929MOL0     H25353   0.036   1.631   7.119  0.7634  0.6285 -2.5971
  929MOL0     H25354   0.045   1.368   6.990  2.2332  0.6668  0.7339
  929MOL0     H25355  -0.109   1.446   7.023  1.0528 -1.3448  5.3731
  929MOL0     H25356  -0.022   1.648   6.903  1.2910  0.7266  0.3560
  929MOL0     H25357   0.116   1.546   6.847  0.1411 -1.5462  0.2468
  929MOL0     H25358  -0.034   1.403   6.727  1.2836  0.9574  0.2993
  929MOL0     H25359  -0.176   1.470   6.807  0.8903 -1.4191 -2.0569
  929MOL0     H25360  -0.188   1.553   6.595  3.0679 -2.7054 -3.5252
  929MOL0     H25361  -0.111   1.684   6.699  0.8534 -0.7609  2.0815
  929MOL0     H25362   0.069   1.682   6.562 -0.2172 -0.3345  1.0612
  929MOL0     H25363   0.098   1.508   6.583 -0.5790 -1.7009 -3.0181
  929MOL0     H25364  -0.106   1.636   6.397 -1.7542 -1.5239 -3.0546
  929MOL0     H25365  -0.060   1.455   6.410  0.4209  0.5628 -0.3358
  929MOL0     H25366  -0.038   1.694   6.167 -0.3269 -3.3880 -3.1896
  929MOL0     H25367   0.134   1.774   5.978 -3.3779 -2.8739  2.2551
  929MOL0     H25368   0.293   1.799   6.065 -1.0131  0.3814  2.1248
  929MOL0     H25369   0.193   1.583   5.885 -1.4837  2.1415  0.3179
  929MOL0     H25370   0.350   1.556   5.961 -1.0525 -1.1264 -1.1237
  929MOL0     H25371   0.457   1.735   5.870  0.9189 -1.2862 -0.8751
  929MOL0     H25372   0.308   1.791   5.786  2.1186  2.1374  0.7221
  929MOL0     H25373   0.471   1.534   5.746  2.4075  1.6060  1.4547
  929MOL0     H25374   0.447   1.679   5.636  0.0543 -1.2177  0.2729
  929MOL0     H25375   0.485   1.371   5.612  0.9471  0.2069 -0.1711
  929MOL0     H25376   0.617   1.212   5.495  3.3170  0.5048 -2.5661
  929MOL0     H25377   0.516   1.114   5.386  1.1832 -1.0029  1.9491
  929MOL0     H25378   0.637   1.238   5.330 -2.2174  0.2442 -3.5004
  929MOL0     H25379   0.555   0.959   5.125  1.9096 -1.9156 -2.4799
  929MOL0     H25380   0.551   0.802   4.942  2.5279  1.1218  3.6178
  929MOL0     H25381   0.226   0.817   4.702  2.0145  0.8563  1.0941
  929MOL0     H25382   0.301   0.883   4.562  0.3382  2.4108  1.5600
  929MOL0     H25383   0.393   0.677   4.507  0.4743 -1.1997  0.3131
  929MOL0     H25384   0.310   0.600   4.652 -0.3537 -0.8717 -0.3847
  929MOL0     H25385   0.219   0.589   4.401  0.9493  1.2843 -0.8341
  929MOL0     H25386   0.150   0.743   4.434  1.5426 -0.6581 -2.4510
  929MOL0     H25387   0.094   0.500   4.609 -1.3817 -1.4550 -1.3302
  929MOL0     H25388   0.037   0.664   4.645  1.2940  0.3025  0.0548
  929MOL0     H25389  -0.106   0.651   4.443 -0.2215  0.5919 -0.3176
  929MOL0     H25390  -0.132   0.514   4.551  0.0611 -0.7038 -0.1835
  929MOL0     H25391   0.038   0.510   4.284  0.3805 -1.9630 -1.1138
  929MOL0     H25392   0.036   0.388   4.401 -3.3559 -2.0008  0.7316
  929MOL0     H25393  -0.230   0.482   4.302  0.5067  1.8211  0.1675
  929MOL0     H25394  -0.198   0.323   4.373 -1.4903 -0.0725 -2.6599
  929MOL0     H25395  -0.083   0.428   4.122  0.1604 -2.0696 -0.2622
  929MOL0     H25396  -0.221   0.305   4.128  0.1923 -0.8913 -0.7826
  929MOL0     H25397   0.344   1.070   4.687  1.8797  1.8065 -0.6310
  929MOL0     H25398   0.303   1.214   4.891  1.5148  1.2108  0.3851
  929MOL0     H25399   0.238   1.521   5.207  0.4850  3.2869  0.9760
  929MOL0     H25400   0.174   1.586   5.441 -1.6921 -2.2136 -2.7965
  929MOL0     H25401   0.296   1.512   7.382 -0.0078  0.3135 -2.8930
  929MOL0     H25402   0.243   1.448   7.620 -1.2563 -0.0421  0.4415
  929MOL0     H25403  -0.036   0.882   7.888  1.0713 -1.1297  0.2100
  929MOL0     H25404  -0.109   0.892   8.107 -0.9852 -0.2400 -2.4991
  929MOL0     H25405  -0.090   0.926   8.321  1.0254  1.6375 -1.5790
  929MOL0     H25406  -0.186   1.046   8.429 -2.0670  2.0721 -1.7797
  929MOL0     H25407  -0.320   0.850   8.349 -1.3252  0.8148  1.0873
  929MOL0     H25408  -0.319   0.915   8.192  1.1319  1.6996  0.2781
  929MOL0     H25409  -0.396   1.143   8.332  0.6931 -1.0957  0.0992
  929MOL0     H25410  -0.454   1.017   8.447  3.5402  2.6298  2.9683
  929MOL0     H25411  -0.626   1.076   8.311  1.4475  2.9721  0.5057
  929MOL0     H25412  -0.580   0.923   8.246 -4.4366  1.1936  2.0477
  929MOL0     H25413  -0.541   1.180   7.916 -0.8530  0.2122 -1.1101
  929MOL0     H25414  -0.101   1.314   8.121 -2.1759  0.0188 -0.3330
  929MOL0     H25415   0.030   1.306   7.894  1.9396 -0.1083  1.1204
  930MOL0     O25416   9.629   9.698   6.152 -0.0898 -0.1929 -0.2251
  930MOL0     C25417   9.706   9.721   6.059  0.2997 -0.4449 -0.2958
  930MOL0     O25418   9.839   9.730   6.062 -0.2289 -0.4276  0.3919
  930MOL0     C25419   9.882   9.741   6.188 -0.3249  0.0363  0.2129
  930MOL0     C25420   9.897   9.864   6.245  0.2076  0.2707 -0.8314
  930MOL0     C25421   9.958   9.875   6.368  0.4131 -0.9639  0.8666
  930MOL0     C25422  10.011   9.767   6.433 -0.5067 -0.6680 -0.2389
  930MOL0     O25423  10.090   9.792   6.552  0.0978  0.4153  0.8231
  930MOL0     C25424  10.188   9.697   6.584  0.3294  0.9148  0.5973
  930MOL0     C25425  10.286   9.760   6.689  0.0759 -0.2805  0.0138
  930MOL0     C25426  10.228   9.811   6.824  0.3924  0.2474  1.6632
  930MOL0     C25427  10.208   9.688   6.922 -0.3649 -0.5972  1.1416
  930MOL0     C25428  10.139   9.721   7.047  0.4618  0.5716 -0.2532
  930MOL0     C25429  10.083   9.596   7.126 -0.9657  0.9651 -0.0368
  930MOL0     C25430  10.204   9.519   7.187 -0.5437  0.7518 -0.7228
  930MOL0     C25431  10.243   9.580   7.327 -0.5874  0.6663  0.5109
  930MOL0     N25432  10.371   9.516   7.372 -0.4978  0.7226  0.6983
  930MOL0     C25433  10.387   9.387   7.415  0.0085 -1.1118 -0.2010
  930MOL0     C25434  10.520   9.372   7.446  0.5802 -0.5135  0.6033
  930MOL0     C25435  10.592   9.259   7.501  0.2797  0.9447  0.0097
  930MOL0     C25436  10.595   9.262   7.653  0.0448  0.7244  0.3841
  930MOL0     C25437  10.715   9.341   7.709  0.1281  0.2172 -0.4764
  930MOL0     C25438  10.694   9.384   7.862  0.4565 -0.4458  0.4501
  930MOL0     O25439  10.637   9.518   7.873  0.7152 -0.0422  0.3656
  930MOL0     C25440  10.500   9.530   7.866 -0.2375  0.0846  0.2463
  930MOL0     C25441  10.431   9.512   7.979  0.0744  0.4345  0.0497
  930MOL0     C25442  10.293   9.507   7.985  0.9760 -0.3675  0.7374
  930MOL0     C25443  10.222   9.452   8.108  0.8734 -0.2649  0.1645
  930MOL0     C25444  10.224   9.543   7.869 -0.7498  0.4674 -0.0230
  930MOL0     C25445  10.071   9.548   7.854 -0.4983 -0.1116 -0.0281
  930MOL0     O25446   9.985   9.543   7.967  0.0812 -0.0476  0.6421
  930MOL0     C25447   9.859   9.514   7.941  0.5059  0.5838 -0.4173
  930MOL0     C25448   9.770   9.614   7.907 -0.3900 -0.4649 -1.1829
  930MOL0     C25449   9.639   9.590   7.863  0.4271  0.4153 -0.1659
  930MOL0     C25450   9.601   9.459   7.846  0.2185  0.7342  0.2392
  930MOL0     O25451   9.478   9.430   7.789 -0.0314  0.3337 -0.1985
  930MOL0     C25452   9.469   9.360   7.664  0.1933  0.3151 -1.1977
  930MOL0     C25453   9.327   9.309   7.662  0.4228  0.0245 -0.4868
  930MOL0     C25454   9.292   9.250   7.536 -0.4515  0.3659  1.1838
  930MOL0     C25455   9.142   9.220   7.525 -0.4416  0.2784  1.2890
  930MOL0     C25456   9.093   9.223   7.384 -0.0127  0.0384 -1.2669
  930MOL0     C25457   8.933   9.262   7.369  0.2056  0.6809 -0.1967
  930MOL0     C25458   8.826   9.171   7.441  0.1167  0.5321  0.2892
  930MOL0     C25459   8.782   9.057   7.347 -0.2792 -0.1729  0.8550
  930MOL0    Cl25460   8.903   8.929   7.310  0.1207  0.1943 -0.3792
  930MOL0     C25461   9.684   9.356   7.888 -0.5015  0.3400 -0.4758
  930MOL0     C25462   9.813   9.378   7.925  0.2053 -0.6094 -0.1191
  930MOL0     O25463  10.032   9.544   7.733 -0.0280  0.0066 -0.1894
  930MOL0     C25464  10.301   9.565   7.748 -1.0686  0.5962 -0.4595
  930MOL0     C25465  10.438   9.569   7.751 -0.0281 -0.0869  0.4301
  930MOL0     N25466  10.582   9.491   7.428 -0.3874 -0.1375  1.1647
  930MOL0     N25467  10.503   9.571   7.372  0.7084 -0.6019  0.5318
  930MOL0     C25468   9.982   9.642   6.379  0.1730  0.9800  0.5615
  930MOL0     C25469   9.914   9.626   6.261 -0.4486 -0.0004 -0.1246
  930MOL0     C25470   9.649   9.782   5.928 -0.4604  0.3382 -0.7168
  930MOL0     C25471   9.512   9.817   5.908  0.0533  0.4673 -0.3679
  930MOL0     C25472   9.465   9.858   5.779  0.8345  0.8266 -0.5921
  930MOL0     C25473   9.550   9.872   5.669  1.0895  0.5685 -0.2996
  930MOL0     O25474   9.508   9.901   5.544 -0.7129  0.2260 -0.0318
  930MOL0     C25475   9.377   9.870   5.498 -0.1420 -0.6911  0.2276
  930MOL0     C25476   9.346   9.719   5.478 -0.0269  0.4179 -0.0710
  930MOL0     C25477   9.407   9.662   5.348  0.2669  0.0482 -0.0157
  930MOL0     C25478   9.555   9.684   5.330  0.4968  0.8786 -0.6426
  930MOL0     C25479   9.599   9.595   5.216  0.2729 -0.6703 -0.0884
  930MOL0     C25480   9.614   9.507   5.134  0.5963 -0.5888  0.5504
  930MOL0     C25481   9.687   9.839   5.694  0.2315 -0.6498 -0.9269
  930MOL0     C25482   9.733   9.796   5.816 -0.6118  0.2910  1.2663
  930MOL0     H25483   9.856   9.947   6.188 -0.2484 -0.2678 -1.2981
  930MOL0     H25484   9.955   9.968   6.423 -1.0135 -0.4759  0.0308
  930MOL0     H25485  10.151   9.604   6.627 -0.0002  1.9615  2.7001
  930MOL0     H25486  10.250   9.672   6.497  2.2279  1.3081  1.7598
  930MOL0     H25487  10.357   9.681   6.715  0.2812 -0.3711 -0.7733
  930MOL0     H25488  10.346   9.836   6.638  0.5199 -0.6880 -0.0769
  930MOL0     H25489  10.301   9.886   6.855  0.1749  0.7535  0.9821
  930MOL0     H25490  10.129   9.845   6.789  0.3348 -0.8482  0.6955
  930MOL0     H25491  10.167   9.602   6.868  0.3237  0.5617 -1.3717
  930MOL0     H25492  10.309   9.656   6.949 -0.1470  1.8969  3.7856
  930MOL0     H25493  10.207   9.781   7.108 -0.4444  0.9035  0.4631
  930MOL0     H25494  10.054   9.788   7.028  1.5493  2.6173  1.5586
  930MOL0     H25495  10.028   9.641   7.209 -2.9053  0.7640 -1.1529
  930MOL0     H25496  10.020   9.532   7.063  0.7190  0.4766 -1.2822
  930MOL0     H25497  10.177   9.413   7.189 -0.4968  0.7155 -1.5170
  930MOL0     H25498  10.288   9.517   7.118  0.0768  1.5078 -0.0139
  930MOL0     H25499  10.161   9.585   7.400 -0.1400  1.7618  0.9633
  930MOL0     H25500  10.266   9.686   7.314  3.8386 -0.3253 -1.5429
  930MOL0     H25501  10.309   9.312   7.413  0.0315 -1.1339 -0.2963
  930MOL0     H25502  10.556   9.163   7.463 -1.3651  2.1640 -1.6426
  930MOL0     H25503  10.698   9.263   7.475  0.8294 -0.4451  1.8191
  930MOL0     H25504  10.602   9.159   7.689  0.2888  0.0813 -1.3941
  930MOL0     H25505  10.500   9.305   7.688 -0.6080 -1.2193  1.1318
  930MOL0     H25506  10.740   9.426   7.645  4.4799 -1.0885 -0.7933
  930MOL0     H25507  10.804   9.278   7.705  1.0869  1.6009 -1.5259
  930MOL0     H25508  10.790   9.377   7.915  1.0367 -1.5974 -0.6837
  930MOL0     H25509  10.635   9.305   7.909 -0.2959 -1.4289 -2.0051
  930MOL0     H25510  10.487   9.485   8.068  3.1768  2.0411 -1.2834
  930MOL0     H25511  10.176   9.527   8.173  2.9137  2.0596 -0.9483
  930MOL0     H25512  10.143   9.382   8.079 -1.1613  1.3092  1.5753
  930MOL0     H25513  10.296   9.393   8.163  3.8377  1.4375 -1.7093
  930MOL0     H25514   9.799   9.719   7.906  1.6427 -0.9772 -0.5326
  930MOL0     H25515   9.575   9.676   7.844  1.2166  0.9237 -0.5903
  930MOL0     H25516   9.482   9.427   7.580 -0.6408  1.7397 -0.2348
  930MOL0     H25517   9.539   9.277   7.651  0.9143  0.6568  0.2061
  930MOL0     H25518   9.329   9.230   7.738  1.3583  1.7921  1.4534
  930MOL0     H25519   9.252   9.384   7.691  2.3124  0.8102  3.0746
  930MOL0     H25520   9.354   9.162   7.517 -0.6021  0.6424 -0.8827
  930MOL0     H25521   9.321   9.319   7.457  2.0261  0.6577  2.2850
  930MOL0     H25522   9.128   9.115   7.552  1.6821 -0.3911  0.0335
  930MOL0     H25523   9.077   9.283   7.586 -2.8217 -0.9939  0.2210
  930MOL0     H25524   9.112   9.134   7.325  1.0673 -1.4541  1.1643
  930MOL0     H25525   9.131   9.309   7.328 -1.1178  0.3692 -1.5381
  930MOL0     H25526   8.917   9.364   7.407 -3.6805  0.8251 -1.7702
  930MOL0     H25527   8.922   9.261   7.260  3.5644 -2.0348 -0.6719
  930MOL0     H25528   8.727   9.215   7.457 -0.8875 -0.6012 -2.2136
  930MOL0     H25529   8.857   9.133   7.538 -2.1448  0.7867  1.1824
  930MOL0     H25530   8.767   9.104   7.250  1.9462 -1.6940 -0.3188
  930MOL0     H25531   8.690   9.021   7.393 -0.9863  0.4905 -0.0104
  930MOL0     H25532   9.661   9.256   7.852 -0.6887  1.0472 -2.4291
  930MOL0     H25533   9.876   9.291   7.937 -0.3256 -0.7822  1.8913
  930MOL0     H25534  10.254   9.587   7.652  0.0070  0.2659 -1.0844
  930MOL0     H25535  10.505   9.592   7.669 -2.9866 -1.1533 -2.5162
  930MOL0     H25536  10.007   9.555   6.438  0.2955  2.1038  2.2185
  930MOL0     H25537   9.881   9.532   6.218  0.0800 -0.1273 -0.2600
  930MOL0     H25538   9.446   9.797   5.992  0.1346 -2.7814 -0.9461
  930MOL0     H25539   9.358   9.867   5.767  0.7755  0.6667 -0.1881
  930MOL0     H25540   9.305   9.925   5.558  1.4305 -0.3577  1.9085
  930MOL0     H25541   9.379   9.918   5.400  2.8111 -0.8508  0.0982
  930MOL0     H25542   9.236   9.714   5.475  0.0280 -0.8375 -2.2687
  930MOL0     H25543   9.383   9.650   5.554  0.9745  0.6985 -0.2949
  930MOL0     H25544   9.356   9.694   5.256  0.7518 -1.4217 -0.8412
  930MOL0     H25545   9.394   9.553   5.351 -0.1301  0.0633 -0.9224
  930MOL0     H25546   9.602   9.651   5.423 -1.9016  0.7286  0.6002
  930MOL0     H25547   9.572   9.792   5.321 -1.0060  1.1367 -0.6425
  930MOL0     H25548   9.628   9.412   5.087  3.7249 -0.9362  1.9014
  930MOL0     H25549   9.756   9.841   5.609 -0.8493  0.0112 -1.8129
  930MOL0     H25550   9.840   9.776   5.824 -0.2335  0.9766 -1.0688
  931MOL0     O25551   8.214   6.220   4.544  0.7233  0.2456  0.1273
  931MOL0     C25552   8.110   6.148   4.567 -0.7758 -0.5761  1.1729
  931MOL0     O25553   8.124   6.017   4.606 -0.6622  1.0197  0.0904
  931MOL0     C25554   8.246   5.981   4.676  0.5815 -0.6654 -0.2867
  931MOL0     C25555   8.378   5.987   4.620  0.2274  1.5503 -0.2488
  931MOL0     C25556   8.482   5.926   4.690 -0.1680 -0.4322 -0.1020
  931MOL0     C25557   8.478   5.893   4.819 -0.2934 -0.2155  0.8299
  931MOL0     O25558   8.591   5.854   4.886  0.0506  0.1838 -0.5279
  931MOL0     C25559   8.586   5.728   4.945 -0.9297  0.6674 -0.5989
  931MOL0     C25560   8.726   5.678   4.935  0.7942  0.1624 -0.0706
  931MOL0     C25561   8.758   5.629   4.793 -0.7514  0.2241  0.2887
  931MOL0     C25562   8.682   5.499   4.760 -0.5678  0.1300  0.4781
  931MOL0     C25563   8.729   5.448   4.620  0.5706  0.1968 -0.4943
  931MOL0     C25564   8.877   5.433   4.591 -0.8049 -0.5916 -0.1178
  931MOL0     C25565   8.904   5.364   4.459 -0.9657 -0.5849 -0.7017
  931MOL0     C25566   8.857   5.222   4.438 -0.3499  0.2615 -0.6891
  931MOL0     N25567   8.709   5.191   4.448  0.1750  0.7423  0.2827
  931MOL0     C25568   8.612   5.211   4.355 -0.2644 -0.5882  0.9286
  931MOL0     C25569   8.504   5.137   4.396  0.6308  0.5174  0.5938
  931MOL0     C25570   8.376   5.126   4.323  0.3308  0.4996 -0.4368
  931MOL0     C25571   8.337   4.989   4.285 -0.0403  0.4243  0.3374
  931MOL0     C25572   8.446   4.927   4.194  0.6501  1.1832 -0.9805
  931MOL0     C25573   8.430   4.779   4.162  0.4828  0.8329  0.3375
  931MOL0     O25574   8.299   4.749   4.109 -0.2338  0.7796  0.3780
  931MOL0     C25575   8.252   4.620   4.092  1.2843  0.1928 -0.5129
  931MOL0     C25576   8.120   4.593   4.045 -0.3995  0.2501 -0.7906
  931MOL0     C25577   8.066   4.468   4.034 -0.4015  0.0985 -1.1158
  931MOL0     C25578   7.924   4.464   3.991 -0.2482  0.6276  0.6436
  931MOL0     C25579   8.140   4.351   4.070 -0.0429  0.4281  0.1946
  931MOL0     C25580   8.105   4.206   4.053  1.8002  0.8929  0.3324
  931MOL0     O25581   8.180   4.106   4.101  0.3389 -0.5301 -0.5277
  931MOL0     C25582   8.174   3.982   4.056 -0.2340  0.0738  0.3674
  931MOL0     C25583   8.200   3.938   3.931 -0.7698  0.2061  0.7668
  931MOL0     C25584   8.183   3.806   3.887 -0.1073 -0.5621 -0.4859
  931MOL0     C25585   8.146   3.706   3.971  0.0373 -0.5889 -0.8209
  931MOL0     O25586   8.122   3.586   3.916 -0.2751 -1.0783 -0.8155
  931MOL0     C25587   8.014   3.509   3.969  0.3212  0.3097 -0.0360
  931MOL0     C25588   7.882   3.563   3.912 -0.0544  0.1442 -0.4424
  931MOL0     C25589   7.753   3.495   3.947  0.4234 -0.4689 -0.5419
  931MOL0     C25590   7.635   3.589   3.933 -0.5343  0.2126  0.0514
  931MOL0     C25591   7.513   3.513   3.967 -0.5377 -0.3022 -0.3887
  931MOL0     C25592   7.391   3.596   3.915 -0.4251 -0.5893  0.1102
  931MOL0     C25593   7.260   3.522   3.896 -1.1056  0.7497 -0.4457
  931MOL0     C25594   7.163   3.596   3.816  0.1863  0.9626  0.5497
  931MOL0    Cl25595   7.009   3.501   3.794  0.1812 -0.0071 -0.9898
  931MOL0     C25596   8.113   3.743   4.106  0.3206  0.2062 -0.5720
  931MOL0     C25597   8.116   3.880   4.142  1.4341  0.2050 -0.6574
  931MOL0     O25598   8.003   4.193   3.990  0.2522  0.8208  0.2595
  931MOL0     C25599   8.268   4.375   4.124 -0.4356  0.6093  0.0428
  931MOL0     C25600   8.323   4.504   4.130  0.1079 -0.2052  0.8693
  931MOL0     N25601   8.555   5.067   4.504  0.1889 -0.2021  0.2620
  931MOL0     N25602   8.670   5.105   4.546  0.2170  0.4083  0.3853
  931MOL0     C25603   8.354   5.891   4.872 -0.0909 -0.4195  0.1558
  931MOL0     C25604   8.234   5.936   4.810  0.6464  0.3103 -0.6096
  931MOL0     C25605   7.978   6.194   4.518  0.5319 -0.7208  1.1029
  931MOL0     C25606   7.874   6.097   4.515 -0.1245  0.0367 -0.2769
  931MOL0     C25607   7.750   6.137   4.456  0.6969  0.6512 -0.0032
  931MOL0     C25608   7.731   6.266   4.403 -0.2723  0.2864  0.9347
  931MOL0     O25609   7.616   6.302   4.338  0.6130  0.2227 -0.2540
  931MOL0     C25610   7.497   6.214   4.333 -0.9066  1.1332  0.0724
  931MOL0     C25611   7.433   6.250   4.204 -0.1694  0.2909 -0.2653
  931MOL0     C25612   7.311   6.177   4.159 -0.2998 -0.5002  0.0295
  931MOL0     C25613   7.183   6.235   4.206  0.5139 -0.0920 -0.4978
  931MOL0     C25614   7.070   6.175   4.126 -0.1738 -0.1951  0.4781
  931MOL0     C25615   6.978   6.131   4.052 -0.9152  0.6064 -0.1266
  931MOL0     C25616   7.842   6.357   4.406  0.8450  0.7076 -0.2932
  931MOL0     C25617   7.958   6.322   4.461  0.5578 -0.0807  0.2013
  931MOL0     H25618   8.399   6.009   4.516  0.8865  2.3623  0.0485
  931MOL0     H25619   8.576   5.922   4.635  0.5786  1.1843  0.9699
  931MOL0     H25620   8.556   5.740   5.049 -0.4331 -1.1473 -0.2147
  931MOL0     H25621   8.518   5.659   4.894 -1.1801  0.6838 -0.2849
  931MOL0     H25622   8.787   5.755   4.984 -0.3682  4.2520 -4.3248
  931MOL0     H25623   8.733   5.594   5.005 -0.2453  0.4121  0.3401
  931MOL0     H25624   8.734   5.709   4.722  0.7748 -0.2880 -0.8466
  931MOL0     H25625   8.866   5.625   4.781 -0.8033  1.9802 -1.2219
  931MOL0     H25626   8.711   5.420   4.831 -1.8435 -0.5271  0.3050
  931MOL0     H25627   8.574   5.516   4.766 -0.7090 -0.8999  1.1256
  931MOL0     H25628   8.675   5.353   4.609 -0.4392  0.6066  0.6990
  931MOL0     H25629   8.685   5.509   4.540 -2.3011 -0.8147  0.1722
  931MOL0     H25630   8.919   5.534   4.591 -1.0139 -0.4940  0.7001
  931MOL0     H25631   8.933   5.375   4.665  0.7129 -1.6262 -2.0087
  931MOL0     H25632   8.861   5.432   4.384  1.1208  2.9602  1.0778
  931MOL0     H25633   9.011   5.358   4.438 -1.4670  0.5332 -4.2882
  931MOL0     H25634   8.898   5.166   4.522 -1.5011  2.1394  1.2182
  931MOL0     H25635   8.904   5.186   4.346  0.7291  2.5627 -1.1151
  931MOL0     H25636   8.610   5.266   4.261 -1.3819  0.7509  1.6926
  931MOL0     H25637   8.295   5.157   4.390 -1.0299 -1.0495 -1.2943
  931MOL0     H25638   8.378   5.197   4.240  1.0654 -1.2042 -1.9347
  931MOL0     H25639   8.240   4.993   4.235 -0.1099 -0.6477  0.3536
  931MOL0     H25640   8.320   4.936   4.379 -0.8371  1.1485  0.6095
  931MOL0     H25641   8.545   4.930   4.241  1.6421  0.6299 -2.9460
  931MOL0     H25642   8.446   4.982   4.099 -1.7087  3.3150  0.1214
  931MOL0     H25643   8.435   4.733   4.261 -1.1914  1.2997  0.6728
  931MOL0     H25644   8.516   4.746   4.104  0.7762 -0.3763  1.4276
  931MOL0     H25645   8.059   4.682   4.034 -1.8634 -0.6208 -0.0908
  931MOL0     H25646   7.870   4.555   4.020  1.6970  1.5970  1.3723
  931MOL0     H25647   7.920   4.440   3.884 -2.0177 -1.0817  1.0343
  931MOL0     H25648   7.873   4.385   4.048  1.9754  0.9116  3.2203
  931MOL0     H25649   8.231   4.010   3.856 -1.5373 -1.0859 -0.8583
  931MOL0     H25650   8.213   3.779   3.787  0.1087  0.7471 -0.7857
  931MOL0     H25651   8.030   3.413   3.920  0.2558 -0.2088  0.9381
  931MOL0     H25652   8.027   3.489   4.076 -0.7404 -0.2542  0.0097
  931MOL0     H25653   7.875   3.664   3.954  0.3112 -0.5651  1.4096
  931MOL0     H25654   7.890   3.579   3.804  1.2371  0.9731 -0.2368
  931MOL0     H25655   7.761   3.456   4.049  1.3435  0.5652 -0.2116
  931MOL0     H25656   7.726   3.418   3.874 -2.7159  0.8267 -0.9138
  931MOL0     H25657   7.638   3.673   4.003 -2.4196 -0.4507  0.9941
  931MOL0     H25658   7.630   3.620   3.828  0.9821 -0.2223 -0.1814
  931MOL0     H25659   7.490   3.497   4.073  0.2816  0.6612 -0.0448
  931MOL0     H25660   7.519   3.410   3.933  0.8490 -1.1171  2.0196
  931MOL0     H25661   7.367   3.676   3.985 -0.3376  1.1674 -1.7742
  931MOL0     H25662   7.419   3.627   3.814  1.7275 -3.1075 -0.1769
  931MOL0     H25663   7.233   3.506   4.001  1.9628  0.6394  0.4349
  931MOL0     H25664   7.275   3.421   3.858  2.8079  0.3341  1.6943
  931MOL0     H25665   7.209   3.615   3.719  0.2507 -0.4451  0.2838
  931MOL0     H25666   7.151   3.691   3.869  2.2571  1.3751  0.3324
  931MOL0     H25667   8.073   3.685   4.188 -0.3631  1.7436  0.2380
  931MOL0     H25668   8.107   3.899   4.249  6.2793  2.5412 -0.3942
  931MOL0     H25669   8.322   4.290   4.165 -4.0306 -1.9094  0.0551
  931MOL0     H25670   8.427   4.512   4.161 -0.3262  0.9914  2.0726
  931MOL0     H25671   8.342   5.865   4.976 -1.4732  1.8016  0.6051
  931MOL0     H25672   8.136   5.939   4.856  0.4017  0.5218 -1.1410
  931MOL0     H25673   7.901   5.999   4.555  3.7864  2.1056  2.8845
  931MOL0     H25674   7.672   6.062   4.467  1.8661 -0.7840 -1.0609
  931MOL0     H25675   7.521   6.108   4.338  0.0463  1.3974  2.1214
  931MOL0     H25676   7.439   6.230   4.425  1.4346 -0.6703  1.9984
  931MOL0     H25677   7.514   6.236   4.133 -1.4631  2.6142 -2.3655
  931MOL0     H25678   7.406   6.354   4.226  1.4122  0.9810 -1.4110
  931MOL0     H25679   7.309   6.072   4.191 -1.0683 -0.5715 -0.2334
  931MOL0     H25680   7.312   6.179   4.049  0.5028 -0.2440  0.0346
  931MOL0     H25681   7.192   6.343   4.189  2.3572  0.4286  3.0046
  931MOL0     H25682   7.161   6.221   4.312 -1.9027 -0.9419 -1.0517
  931MOL0     H25683   6.905   6.079   3.993 -1.8433 -2.2653  3.2095
  931MOL0     H25684   7.828   6.441   4.339 -2.5166 -1.7378 -3.0923
  931MOL0     H25685   8.043   6.388   4.446 -0.7495  2.3615  2.5886
  932MOL0     O25686  10.825   0.358   3.347 -0.2305  0.4703  0.2266
  932MOL0     C25687  10.811   0.371   3.222  0.4999  0.4275 -1.4400
  932MOL0     O25688  10.894   0.306   3.125 -0.5509 -0.6979  0.6659
  932MOL0     C25689  11.019   0.258   3.162  0.4781 -0.9290  0.3002
  932MOL0     C25690  11.076   0.142   3.113 -0.0527  0.2361  0.2872
  932MOL0     C25691  11.217   0.109   3.129 -0.2365  0.2741 -0.7366
  932MOL0     C25692  11.298   0.205   3.196 -0.2267 -0.2948  1.1163
  932MOL0     O25693  11.436   0.191   3.203  0.3163  0.7919 -0.8289
  932MOL0     C25694  11.519   0.304   3.189 -0.1404  0.4767 -0.7762
  932MOL0     C25695  11.643   0.264   3.104  0.7619 -0.4887 -0.5211
  932MOL0     C25696  11.626   0.179   2.985 -0.6684  1.0404 -0.0193
  932MOL0     C25697  11.763   0.136   2.949 -0.6650  0.1336 -0.5573
  932MOL0     C25698  11.746   0.023   2.843 -1.0217 -0.2681 -0.9332
  932MOL0     C25699  11.900  -0.009   2.797  0.4210 -0.2018 -0.5204
  932MOL0     C25700  11.913  -0.126   2.693  0.0925  0.5718  0.3268
  932MOL0     C25701  11.891  -0.265   2.759  0.2129 -0.8659 -0.2876
  932MOL0     N25702  11.811  -0.363   2.684 -0.2651  0.2051 -0.2854
  932MOL0     C25703  11.735  -0.331   2.576 -0.1213  1.2708 -0.4467
  932MOL0     C25704  11.686  -0.452   2.520  0.4840 -0.3074  0.5742
  932MOL0     C25705  11.609  -0.462   2.393 -0.8087 -0.0548  0.9143
  932MOL0     C25706  11.487  -0.375   2.387  0.4906 -0.1167  0.4183
  932MOL0     C25707  11.384  -0.419   2.493 -0.7060 -0.7035  0.1214
  932MOL0     C25708  11.304  -0.549   2.462  0.1199  0.2765 -0.1698
  932MOL0     O25709  11.218  -0.570   2.572  0.6442  1.0540 -0.6221
  932MOL0     C25710  11.122  -0.675   2.579 -0.0606 -0.3966  0.3408
  932MOL0     C25711  11.016  -0.655   2.667  0.3407 -0.4995 -0.1666
  932MOL0     C25712  10.914  -0.750   2.690  0.9926 -0.7103  0.8085
  932MOL0     C25713  10.803  -0.721   2.788  0.3507  0.7760  0.3801
  932MOL0     C25714  10.925  -0.881   2.624 -0.1800 -0.3709 -0.2016
  932MOL0     C25715  10.830  -0.993   2.640 -0.1844 -0.6257  0.9908
  932MOL0     O25716  10.829  -1.086   2.535  0.7862 -0.4042 -0.0051
  932MOL0     C25717  10.732  -1.178   2.523  0.4450 -0.2523 -0.6882
  932MOL0     C25718  10.646  -1.186   2.412 -1.0064 -0.2432 -1.5355
  932MOL0     C25719  10.543  -1.288   2.398 -0.7412 -0.3432  0.0134
  932MOL0     C25720  10.535  -1.395   2.490  0.9823 -0.1467  0.2216
  932MOL0     O25721  10.435  -1.485   2.489  0.9217  0.1919  0.7167
  932MOL0     C25722  10.384  -1.544   2.357  0.0996 -0.2565  0.2333
  932MOL0     C25723  10.508  -1.599   2.276 -0.2188  0.2386 -0.6296
  932MOL0     C25724  10.470  -1.656   2.136 -1.0834  0.3792 -0.4186
  932MOL0     C25725  10.455  -1.540   2.044 -0.4702  0.3527  0.7479
  932MOL0     C25726  10.437  -1.594   1.898  0.1916  0.3397  0.6183
  932MOL0     C25727  10.448  -1.492   1.787 -0.8661 -0.6145  1.0021
  932MOL0     C25728  10.474  -1.548   1.643  0.5620 -0.1477  1.2053
  932MOL0     C25729  10.532  -1.425   1.555  0.0889  1.0622 -0.4123
  932MOL0    Cl25730  10.591  -1.491   1.397  0.3413  0.4294 -0.3527
  932MOL0     C25731  10.622  -1.388   2.603  0.1489  1.0367  1.1928
  932MOL0     C25732  10.718  -1.280   2.622  0.5917 -0.1150  0.3482
  932MOL0     O25733  10.782  -1.003   2.748 -0.3789 -0.1647 -0.2540
  932MOL0     C25734  11.041  -0.902   2.535 -0.1788 -0.9845  0.6818
  932MOL0     C25735  11.145  -0.800   2.523  0.3410  0.0021  0.6836
  932MOL0     N25736  11.749  -0.548   2.588  0.1422 -0.3208 -0.4576
  932MOL0     N25737  11.817  -0.499   2.689 -0.1198 -0.0642 -0.8086
  932MOL0     C25738  11.241   0.314   3.261 -0.3974 -0.2570  0.1380
  932MOL0     C25739  11.104   0.347   3.238  0.2813  0.1086  0.6678
  932MOL0     C25740  10.688   0.443   3.168 -0.7690 -0.2506  0.3331
  932MOL0     C25741  10.644   0.425   3.037  0.1871 -0.5844  0.5839
  932MOL0     C25742  10.520   0.480   2.983  0.2055  0.3668 -0.2271
  932MOL0     C25743  10.453   0.570   3.065  0.4596  0.2915  0.3471
  932MOL0     O25744  10.330   0.634   3.020 -0.0045  0.0223 -1.0620
  932MOL0     C25745  10.255   0.735   3.095  0.6047  0.6001 -0.2535
  932MOL0     C25746  10.308   0.871   3.085  0.4283 -0.5503 -0.1261
  932MOL0     C25747  10.319   0.904   2.935 -0.4909 -0.3766  0.4404
  932MOL0     C25748  10.366   1.043   2.902 -1.1377 -0.8344 -0.4853
  932MOL0     C25749  10.433   1.050   2.775  0.5257  0.5317 -0.2940
  932MOL0     C25750  10.486   1.054   2.669  0.4174  0.0098 -0.0165
  932MOL0     C25751  10.507   0.611   3.193 -0.6479 -0.3226 -0.5332
  932MOL0     C25752  10.620   0.545   3.244 -0.4438 -0.1948 -0.1340
  932MOL0     H25753  11.013   0.072   3.059 -0.5681 -0.7535  2.1051
  932MOL0     H25754  11.259   0.019   3.087  3.0808  1.9502 -1.4320
  932MOL0     H25755  11.466   0.384   3.137  0.3907  1.5393  0.2643
  932MOL0     H25756  11.553   0.330   3.290 -0.1053  0.4891 -0.7915
  932MOL0     H25757  11.697   0.354   3.073 -1.5175  0.8991 -0.7234
  932MOL0     H25758  11.708   0.212   3.174  0.8348  0.7384  0.3397
  932MOL0     H25759  11.580   0.086   3.021  0.5019  1.1199  1.7999
  932MOL0     H25760  11.567   0.233   2.910  1.2489  2.0240 -0.8818
  932MOL0     H25761  11.841   0.210   2.930 -0.8619  0.4923  0.0068
  932MOL0     H25762  11.811   0.077   3.027  2.6094  0.7452 -1.9481
  932MOL0     H25763  11.693  -0.052   2.901 -2.0658  2.5371  2.0252
  932MOL0     H25764  11.680   0.046   2.759 -2.7140 -2.0751 -0.1559
  932MOL0     H25765  11.931   0.086   2.754 -3.9645  2.5092  1.6527
  932MOL0     H25766  11.951  -0.038   2.889 -1.2516 -3.7688 -0.5375
  932MOL0     H25767  11.878  -0.105   2.592  1.3094 -1.6153 -0.6341
  932MOL0     H25768  12.017  -0.141   2.662  0.0898 -0.2065  0.6693
  932MOL0     H25769  11.834  -0.243   2.851 -0.3219 -0.4405 -0.7137
  932MOL0     H25770  11.983  -0.318   2.785  0.6698 -1.2766 -2.5702
  932MOL0     H25771  11.715  -0.227   2.554  1.7937  1.6430 -0.5987
  932MOL0     H25772  11.681  -0.431   2.317 -1.2749  3.8995  1.8722
  932MOL0     H25773  11.584  -0.568   2.379 -2.3688  0.4907 -0.9167
  932MOL0     H25774  11.452  -0.379   2.284 -1.1748 -2.1516  0.9959
  932MOL0     H25775  11.524  -0.274   2.403  2.0495 -0.5568 -0.2052
  932MOL0     H25776  11.311  -0.338   2.499 -0.0490 -0.0668 -0.3520
  932MOL0     H25777  11.436  -0.438   2.588  0.0482  3.5170  0.7382
  932MOL0     H25778  11.357  -0.641   2.437  0.3005  0.1143  0.7972
  932MOL0     H25779  11.238  -0.517   2.380 -1.8444  0.1326  1.2834
  932MOL0     H25780  11.018  -0.566   2.729  1.0007 -0.7501  0.1861
  932MOL0     H25781  10.705  -0.742   2.746 -0.5573  2.4119  1.5732
  932MOL0     H25782  10.828  -0.794   2.866  0.8768 -1.3552 -1.6623
  932MOL0     H25783  10.809  -0.616   2.816  3.6559  0.6708  0.4261
  932MOL0     H25784  10.644  -1.109   2.335 -2.3016  1.7634  0.4032
  932MOL0     H25785  10.468  -1.282   2.320  0.6163  0.5353 -1.2830
  932MOL0     H25786  10.315  -1.628   2.366 -1.5276  0.5147 -3.3211
  932MOL0     H25787  10.317  -1.468   2.316  0.0433  1.3879  3.0782
  932MOL0     H25788  10.585  -1.521   2.281 -2.2557  2.3615  3.6820
  932MOL0     H25789  10.547  -1.674   2.346 -0.3655  2.3324  1.8461
  932MOL0     H25790  10.380  -1.717   2.145 -0.9959  0.3684  0.5011
  932MOL0     H25791  10.561  -1.715   2.118 -0.2280  1.6813 -0.5025
  932MOL0     H25792  10.361  -1.486   2.062 -0.5040  1.8755 -2.9496
  932MOL0     H25793  10.540  -1.472   2.046 -0.9693  0.9674  2.0954
  932MOL0     H25794  10.356  -1.664   1.878  1.9338 -0.5792 -4.9846
  932MOL0     H25795  10.521  -1.662   1.878 -0.9786 -1.0496  0.2312
  932MOL0     H25796  10.360  -1.427   1.786 -0.5285 -0.0967  2.5331
  932MOL0     H25797  10.541  -1.441   1.812  0.7257 -4.0205  2.6489
  932MOL0     H25798  10.392  -1.580   1.578  1.2046  1.0504 -0.2465
  932MOL0     H25799  10.557  -1.619   1.641  2.9677  2.5094 -1.2255
  932MOL0     H25800  10.620  -1.383   1.604  0.3157 -0.2518  0.3779
  932MOL0     H25801  10.470  -1.337   1.538  1.1268  2.2374  1.5418
  932MOL0     H25802  10.613  -1.460   2.683  1.2927 -1.7355 -0.9941
  932MOL0     H25803  10.784  -1.289   2.707 -0.0576 -2.0106  0.6849
  932MOL0     H25804  11.056  -0.995   2.481 -0.4450 -0.8126  0.3123
  932MOL0     H25805  11.237  -0.825   2.471  0.1614 -3.1755  1.6958
  932MOL0     H25806  11.306   0.387   3.308  3.6281 -1.5900 -2.7357
  932MOL0     H25807  11.056   0.438   3.272 -0.1201 -0.2032  0.9401
  932MOL0     H25808  10.702   0.353   2.980 -0.7873  0.0122 -1.2671
  932MOL0     H25809  10.483   0.450   2.886  0.4131 -3.4736  0.7133
  932MOL0     H25810  10.149   0.742   3.069  0.1180  0.6961  1.6321
  932MOL0     H25811  10.257   0.710   3.201 -1.9475  1.2295  0.0065
  932MOL0     H25812  10.406   0.878   3.133  0.0858  2.6270  0.3028
  932MOL0     H25813  10.244   0.941   3.140 -0.5488 -1.6815  0.2114
  932MOL0     H25814  10.230   0.883   2.875  0.8140 -0.4384 -1.6071
  932MOL0     H25815  10.404   0.841   2.905 -2.3108 -2.8367  0.1207
  932MOL0     H25816  10.435   1.091   2.972  0.5340 -1.2989 -1.7603
  932MOL0     H25817  10.279   1.108   2.884  1.0373  2.0007 -1.6912
  932MOL0     H25818  10.524   1.066   2.570 -0.0357  2.3039  0.0357
  932MOL0     H25819  10.459   0.685   3.257 -2.1526  0.1298 -2.1161
  932MOL0     H25820  10.669   0.583   3.333  0.7572  2.7600 -1.8987
  933MOL0     O25821   3.603   5.664   3.537 -0.1258 -0.0123 -0.3170
  933MOL0     C25822   3.570   5.665   3.414 -0.2954  1.4371  0.1448
  933MOL0     O25823   3.465   5.596   3.355  0.0745 -0.5360 -0.3629
  933MOL0     C25824   3.359   5.551   3.427 -1.0746  0.6958 -0.8394
  933MOL0     C25825   3.310   5.588   3.555  0.1809 -0.0087  1.2329
  933MOL0     C25826   3.223   5.501   3.624  0.3199  0.1450  0.4952
  933MOL0     C25827   3.169   5.394   3.561  0.2238  0.6399  0.2929
  933MOL0     O25828   3.085   5.316   3.638 -0.0574 -1.0892 -0.5348
  933MOL0     C25829   2.961   5.376   3.685  0.0116  0.0710  0.5826
  933MOL0     C25830   2.839   5.316   3.614  0.0796 -0.1059 -0.4928
  933MOL0     C25831   2.839   5.366   3.464  0.9049  0.4951 -0.0580
  933MOL0     C25832   2.780   5.248   3.375  0.3461 -0.6034 -0.1427
  933MOL0     C25833   2.764   5.288   3.224 -0.2041 -0.4036 -0.3418
  933MOL0     C25834   2.893   5.269   3.151 -0.3544  0.5664 -0.3503
  933MOL0     C25835   2.889   5.318   3.009 -0.0802  0.1010  0.7897
  933MOL0     C25836   2.882   5.210   2.895 -0.9217  0.3892 -0.1727
  933MOL0     N25837   2.754   5.146   2.921  0.6562  0.0798  0.7565
  933MOL0     C25838   2.746   5.029   2.987 -0.4502 -1.0587  0.5655
  933MOL0     C25839   2.619   5.009   2.997 -0.4035 -1.9259  0.3836
  933MOL0     C25840   2.561   4.893   3.064 -0.6492  0.6986  0.8916
  933MOL0     C25841   2.538   4.777   2.966  0.6025  0.1756  0.4192
  933MOL0     C25842   2.404   4.704   2.990 -0.4879 -0.8653 -0.3935
  933MOL0     C25843   2.418   4.637   3.127 -0.3504  0.0372  0.0187
  933MOL0     O25844   2.321   4.534   3.142 -0.2335  0.0563  0.0037
  933MOL0     C25845   2.210   4.558   3.220  0.1288 -1.0338 -0.8735
  933MOL0     C25846   2.195   4.492   3.336  0.5285  0.6129 -0.5919
  933MOL0     C25847   2.092   4.519   3.434 -0.0882 -0.2810  0.2839
  933MOL0     C25848   2.109   4.435   3.564 -1.0594 -0.2957  0.7187
  933MOL0     C25849   1.988   4.617   3.405 -0.5625  0.8215 -0.0747
  933MOL0     C25850   1.882   4.651   3.502  0.3143 -0.0795  0.6420
  933MOL0     O25851   1.872   4.587   3.622  0.9621  0.0464 -0.4031
  933MOL0     C25852   1.787   4.654   3.716  0.2702  0.7280  0.6574
  933MOL0     C25853   1.846   4.729   3.825  0.3426 -0.6427 -0.5539
  933MOL0     C25854   1.751   4.780   3.921  0.0463  0.5142 -0.0000
  933MOL0     C25855   1.612   4.752   3.917  0.5876 -0.0767  0.3706
  933MOL0     O25856   1.519   4.785   4.013  0.0446  0.4085  0.8683
  933MOL0     C25857   1.543   4.747   4.145  0.6575  0.0878 -0.8168
  933MOL0     C25858   1.421   4.670   4.205 -1.2028 -0.3843  1.2429
  933MOL0     C25859   1.285   4.736   4.189  0.0850  0.1410  0.3547
  933MOL0     C25860   1.177   4.651   4.249  0.3173 -0.6250  0.3952
  933MOL0     C25861   1.047   4.677   4.180  0.4507 -0.7707  0.4362
  933MOL0     C25862   0.925   4.621   4.248  0.1974  0.4446 -0.7065
  933MOL0     C25863   0.803   4.648   4.172 -0.9179 -0.1164  0.5617
  933MOL0     C25864   0.672   4.672   4.254  0.1907  0.3323  0.0106
  933MOL0    Cl25865   0.691   4.838   4.328 -0.0105  0.1272  0.1030
  933MOL0     C25866   1.562   4.702   3.795 -0.0293 -1.7122  0.6340
  933MOL0     C25867   1.648   4.647   3.696 -0.0668 -1.0006 -0.1012
  933MOL0     O25868   1.794   4.730   3.461  0.9917  0.0071  0.5054
  933MOL0     C25869   2.017   4.696   3.294  0.2732 -0.6525 -0.3606
  933MOL0     C25870   2.115   4.663   3.198  0.0166 -0.1351  0.3322
  933MOL0     N25871   2.545   5.107   2.924 -0.4571 -0.2004 -0.6209
  933MOL0     N25872   2.628   5.187   2.869 -0.7649  0.0624  0.5050
  933MOL0     C25873   3.212   5.355   3.432 -0.3792 -0.0192 -0.6145
  933MOL0     C25874   3.302   5.440   3.364  0.6688  0.9699 -1.4985
  933MOL0     C25875   3.656   5.732   3.306  0.3023  0.6911  0.7612
  933MOL0     C25876   3.771   5.796   3.349 -0.4553  0.0875  0.7106
  933MOL0     C25877   3.841   5.882   3.261 -0.4188  0.7801 -0.2760
  933MOL0     C25878   3.806   5.894   3.127  0.4592  0.5058  0.2573
  933MOL0     O25879   3.860   5.980   3.029  0.2579 -0.7514  0.8487
  933MOL0     C25880   3.957   6.069   3.070 -0.7052 -0.6073  0.3167
  933MOL0     C25881   3.998   6.139   2.940  0.0667  1.3433 -1.3681
  933MOL0     C25882   3.894   6.206   2.862 -0.3437 -0.3304  0.3085
  933MOL0     C25883   3.951   6.254   2.727  0.1005  0.9646 -0.3492
  933MOL0     C25884   3.854   6.326   2.638 -0.5299  1.0356 -0.1770
  933MOL0     C25885   3.778   6.369   2.555  0.0385  0.7540 -0.5335
  933MOL0     C25886   3.697   5.822   3.082 -0.5177  1.0635  0.7248
  933MOL0     C25887   3.613   5.747   3.176 -0.5685  0.3941  0.1917
  933MOL0     H25888   3.354   5.680   3.592  2.6822 -0.7608  0.3032
  933MOL0     H25889   3.190   5.525   3.725 -3.9188  0.1734 -0.6927
  933MOL0     H25890   2.937   5.344   3.787  0.5708  0.8935  0.9883
  933MOL0     H25891   2.964   5.486   3.687 -0.1559  0.1063 -0.5957
  933MOL0     H25892   2.848   5.207   3.609  0.0077 -0.0670 -2.0111
  933MOL0     H25893   2.739   5.326   3.657 -1.1866 -4.4265 -1.9340
  933MOL0     H25894   2.782   5.455   3.434 -2.1389 -1.0476  0.7760
  933MOL0     H25895   2.943   5.389   3.436  1.4781 -1.4214  0.3442
  933MOL0     H25896   2.847   5.162   3.387  0.4533 -0.2849  1.8971
  933MOL0     H25897   2.685   5.220   3.421  0.8720  2.3264  3.0949
  933MOL0     H25898   2.682   5.230   3.180 -0.5940 -0.0484 -0.1002
  933MOL0     H25899   2.734   5.393   3.213  1.8597  0.2482 -0.1520
  933MOL0     H25900   2.968   5.329   3.202 -0.2147 -0.4962  0.7425
  933MOL0     H25901   2.922   5.163   3.152 -0.7577  0.4279 -1.7951
  933MOL0     H25902   2.811   5.393   2.993  1.8801  2.6991  2.6418
  933MOL0     H25903   2.982   5.374   2.998 -1.4312  2.5595  1.3121
  933MOL0     H25904   2.959   5.133   2.908 -2.0006 -0.2585  4.5872
  933MOL0     H25905   2.877   5.261   2.799 -3.7937  0.9286  0.1725
  933MOL0     H25906   2.833   4.966   3.006 -0.4013 -2.7933 -4.0477
  933MOL0     H25907   2.631   4.866   3.143 -1.0008  0.6230  1.1781
  933MOL0     H25908   2.468   4.924   3.113 -0.5535  2.2520  0.1478
  933MOL0     H25909   2.624   4.709   2.966  1.0329  0.7012 -0.9331
  933MOL0     H25910   2.540   4.805   2.861  0.8971  0.8959  0.6114
  933MOL0     H25911   2.381   4.639   2.905  3.7441 -0.2162 -2.2766
  933MOL0     H25912   2.324   4.779   2.990  0.7636  0.5112 -0.0918
  933MOL0     H25913   2.404   4.710   3.208  0.4525  1.1047 -0.7827
  933MOL0     H25914   2.515   4.589   3.141 -1.3180 -1.9323  0.3459
  933MOL0     H25915   2.282   4.431   3.361 -0.2760  0.0540  0.9664
  933MOL0     H25916   2.178   4.480   3.637  0.4107 -1.3897  0.0589
  933MOL0     H25917   2.018   4.411   3.619 -1.0456  0.3213  1.0189
  933MOL0     H25918   2.167   4.343   3.550 -0.1944  0.1873  1.0007
  933MOL0     H25919   1.953   4.745   3.813 -0.1039  1.6898 -1.8405
  933MOL0     H25920   1.796   4.839   4.000  0.5551  0.8438 -0.5234
  933MOL0     H25921   1.630   4.681   4.137  1.6909  0.9207  2.2361
  933MOL0     H25922   1.566   4.820   4.222 -1.6778 -0.0408  0.1043
  933MOL0     H25923   1.406   4.572   4.158  1.4987  0.2054 -1.1278
  933MOL0     H25924   1.451   4.648   4.308  0.5916 -0.1397  0.8003
  933MOL0     H25925   1.275   4.734   4.080  2.0064  1.5869  0.0950
  933MOL0     H25926   1.284   4.832   4.241  1.8786 -0.3489  1.4055
  933MOL0     H25927   1.189   4.542   4.248 -3.1425 -1.1273 -0.7127
  933MOL0     H25928   1.155   4.671   4.355 -2.5798  2.0921 -0.5744
  933MOL0     H25929   1.049   4.642   4.076  2.8389  0.5614 -0.0543
  933MOL0     H25930   1.028   4.783   4.159  3.3771 -0.5745 -1.9465
  933MOL0     H25931   0.941   4.514   4.266  0.1798  0.9009  2.5249
  933MOL0     H25932   0.919   4.657   4.351 -2.3035  0.7464 -0.8792
  933MOL0     H25933   0.787   4.553   4.120 -1.5763 -1.2910  2.8072
  933MOL0     H25934   0.802   4.738   4.110  0.9556 -1.2956 -1.3062
  933MOL0     H25935   0.652   4.597   4.332  0.4016  0.8812  0.6061
  933MOL0     H25936   0.594   4.667   4.178 -1.0036 -2.3401  1.2787
  933MOL0     H25937   1.454   4.704   3.785 -0.0607  1.0863  0.6438
  933MOL0     H25938   1.609   4.595   3.609 -0.3496  0.7266 -1.0390
  933MOL0     H25939   1.959   4.784   3.269  2.3855  0.8012 -0.4877
  933MOL0     H25940   2.115   4.707   3.099 -0.0484 -1.6438 -0.3737
  933MOL0     H25941   3.161   5.273   3.382 -1.8885  1.3780 -1.4575
  933MOL0     H25942   3.348   5.404   3.273 -3.8019 -2.9870 -2.5640
  933MOL0     H25943   3.806   5.800   3.451  1.9251  0.9275 -0.0615
  933MOL0     H25944   3.932   5.931   3.295 -1.7013  1.4224  2.4652
  933MOL0     H25945   3.897   6.132   3.136  0.4193  0.7084  0.1448
  933MOL0     H25946   4.045   6.030   3.121 -0.0633  2.0100  1.4096
  933MOL0     H25947   4.036   6.072   2.863 -2.9541  0.9319 -2.6276
  933MOL0     H25948   4.078   6.206   2.974 -1.5908  2.1801  1.2348
  933MOL0     H25949   3.852   6.290   2.918 -0.8646 -0.4421  0.0917
  933MOL0     H25950   3.817   6.133   2.838  1.7527 -1.7446 -2.9389
  933MOL0     H25951   3.992   6.172   2.668 -2.5408 -1.1037  0.5178
  933MOL0     H25952   4.039   6.314   2.754 -0.9241  2.0608  0.6843
  933MOL0     H25953   3.702   6.402   2.487 -1.4878 -2.8140 -0.8027
  933MOL0     H25954   3.693   5.817   2.973  2.7411  1.9170  0.4669
  933MOL0     H25955   3.536   5.680   3.139 -2.4094  2.9244 -0.8617
  934MOL0     O25956   1.624  11.442   4.359 -0.5953 -0.7181 -0.2291
  934MOL0     C25957   1.546  11.545   4.366 -0.3624  0.8917 -0.1537
  934MOL0     O25958   1.594  11.669   4.329 -0.8646  0.1003  0.4572
  934MOL0     C25959   1.705  11.673   4.242  0.6153 -0.4046 -0.7223
  934MOL0     C25960   1.825  11.726   4.276 -0.3370 -0.0679  0.0810
  934MOL0     C25961   1.944  11.710   4.191 -0.0670 -0.4282 -0.2950
  934MOL0     C25962   1.940  11.635   4.079  0.1126  0.1539  0.7143
  934MOL0     O25963   2.042  11.598   3.998  0.6197  0.4330  0.5044
  934MOL0     C25964   2.145  11.690   3.986  0.4531  0.3703  0.4938
  934MOL0     C25965   2.249  11.632   3.899 -0.6360  0.6200  0.1516
  934MOL0     C25966   2.306  11.505   3.960 -0.2739 -0.0770 -1.0117
  934MOL0     C25967   2.416  11.439   3.871  0.2116  0.0699  0.5520
  934MOL0     C25968   2.438  11.290   3.916 -0.7638 -0.4028  0.8731
  934MOL0     C25969   2.504  11.285   4.051 -0.7749  0.1780  0.1172
  934MOL0     C25970   2.652  11.306   4.042 -0.1176  0.6327 -0.1772
  934MOL0     C25971   2.729  11.276   4.170  0.2171  0.4904  0.0394
  934MOL0     N25972   2.860  11.345   4.164  0.5771  0.0837  0.1107
  934MOL0     C25973   2.890  11.468   4.147 -0.1297  0.2816  0.8834
  934MOL0     C25974   3.027  11.469   4.130  0.1173 -1.6097  0.6459
  934MOL0     C25975   3.100  11.582   4.073 -0.2259 -0.4891 -0.5093
  934MOL0     C25976   3.103  11.684   4.189 -0.5995 -0.8966  0.3253
  934MOL0     C25977   3.132  11.819   4.134 -0.5095  0.3262 -0.8782
  934MOL0     C25978   3.124  11.932   4.233  0.4229 -0.6332  0.2660
  934MOL0     O25979   3.216  11.904   4.338 -0.1260  0.6129  0.6095
  934MOL0     C25980   3.352  11.924   4.316 -0.3670  1.1019 -0.3269
  934MOL0     C25981   3.439  11.888   4.424 -0.2151 -0.0616 -1.0871
  934MOL0     C25982   3.577  11.901   4.431 -1.1833 -0.8302  1.4119
  934MOL0     C25983   3.651  11.828   4.543 -1.1393 -0.3577  0.3239
  934MOL0     C25984   3.641  11.971   4.317 -0.2172  0.2330  1.2598
  934MOL0     C25985   3.784  11.995   4.301  0.0569 -0.0738 -0.7091
  934MOL0     O25986   3.859  11.974   4.411 -0.0581  0.4916 -0.0423
  934MOL0     C25987   3.992  11.942   4.387  0.4841 -0.3211 -0.2691
  934MOL0     C25988   4.092  12.040   4.383  0.0528  0.4021 -0.4459
  934MOL0     C25989   4.224  12.000   4.359  0.8576 -0.0252  0.3054
  934MOL0     C25990   4.255  11.861   4.349 -0.8150 -0.4625 -0.5664
  934MOL0     O25991   4.388  11.828   4.321  0.2423  0.1356  0.0543
  934MOL0     C25992   4.437  11.698   4.355 -0.5188 -0.1285 -0.7132
  934MOL0     C25993   4.584  11.698   4.364  1.3176 -0.5018  0.4253
  934MOL0     C25994   4.642  11.712   4.223  0.1955 -0.0219 -0.1557
  934MOL0     C25995   4.795  11.747   4.226  1.0426  0.0146  0.3557
  934MOL0     C25996   4.807  11.894   4.248 -0.1731  0.1460  0.0019
  934MOL0     C25997   4.939  11.940   4.198 -0.4076  0.6751 -0.7035
  934MOL0     C25998   4.963  12.088   4.257 -0.2265  0.8033 -1.0071
  934MOL0     C25999   5.018  12.074   4.403  0.3596 -0.1851 -0.2671
  934MOL0    Cl26000   4.896  12.093   4.528  0.1857  0.1449  0.1811
  934MOL0     C26001   4.155  11.759   4.361 -1.2457  0.0315 -0.5090
  934MOL0     C26002   4.019  11.800   4.377  0.3291 -0.3451 -0.0533
  934MOL0     O26003   3.831  12.030   4.193 -0.0437  0.9365 -0.3437
  934MOL0     C26004   3.557  12.019   4.205 -1.3255 -0.1030 -0.8821
  934MOL0     C26005   3.411  12.002   4.212 -0.5026  0.7064 -0.9161
  934MOL0     N26006   3.077  11.338   4.138  0.1354 -0.1688  0.1628
  934MOL0     N26007   2.968  11.267   4.160 -0.5549 -0.7305  0.3855
  934MOL0     C26008   1.807  11.588   4.038 -0.0776  0.6314  0.5064
  934MOL0     C26009   1.700  11.603   4.120  1.0627 -0.8669 -0.3724
  934MOL0     C26010   1.425  11.527   4.450 -0.3007  0.6851 -1.1411
  934MOL0     C26011   1.396  11.402   4.506  0.6100  0.5264 -0.1944
  934MOL0     C26012   1.276  11.386   4.574 -0.0513  0.3928 -0.1566
  934MOL0     C26013   1.191  11.493   4.607  0.1734 -0.2091 -0.2799
  934MOL0     O26014   1.074  11.467   4.677 -0.0531  0.6691  0.4826
  934MOL0     C26015   1.068  11.522   4.806 -0.0082 -0.8279  0.8604
  934MOL0     C26016   0.933  11.512   4.863  0.2478  0.5074  0.2234
  934MOL0     C26017   0.820  11.575   4.787 -0.2527 -0.6434  0.0553
  934MOL0     C26018   0.700  11.609   4.880  0.2747  0.8755  0.4517
  934MOL0     C26019   0.648  11.481   4.942 -0.1660 -0.0136  0.7626
  934MOL0     C26020   0.606  11.368   4.983 -0.0594 -0.5579 -0.1272
  934MOL0     C26021   1.230  11.619   4.560  0.6291 -0.2426  0.7134
  934MOL0     C26022   1.342  11.634   4.481 -0.1022 -0.4863  0.2962
  934MOL0     H26023   1.831  11.783   4.369 -0.1405 -2.0160  1.3260
  934MOL0     H26024   2.029  11.773   4.215 -1.6933  2.0280 -0.6807
  934MOL0     H26025   2.101  11.782   3.947 -0.7848 -0.5193 -0.2783
  934MOL0     H26026   2.193  11.715   4.081 -0.2780  0.7958  0.7520
  934MOL0     H26027   2.195  11.607   3.807 -3.4964 -0.5141  2.0075
  934MOL0     H26028   2.331  11.700   3.877  0.0795 -0.7764 -1.7912
  934MOL0     H26029   2.344  11.541   4.056 -1.0363  2.2522 -1.5224
  934MOL0     H26030   2.235  11.423   3.972 -0.4699  0.3870  1.5707
  934MOL0     H26031   2.391  11.457   3.766  0.4216  0.0070  0.4922
  934MOL0     H26032   2.505  11.501   3.886 -1.5924  2.6710  1.4993
  934MOL0     H26033   2.342  11.237   3.919 -1.1877  0.3221  4.7128
  934MOL0     H26034   2.516  11.244   3.855 -2.4461  0.3769 -2.0834
  934MOL0     H26035   2.474  11.358   4.128  1.0965  2.2525 -1.0231
  934MOL0     H26036   2.495  11.181   4.083 -1.3809 -0.2053 -1.2122
  934MOL0     H26037   2.708  11.249   3.968 -2.0646 -2.3813  0.4999
  934MOL0     H26038   2.667  11.410   4.011 -0.0463  0.9367  0.8480
  934MOL0     H26039   2.746  11.168   4.177 -1.0494  0.3686  2.8888
  934MOL0     H26040   2.673  11.299   4.261 -1.2901 -0.9253 -0.4701
  934MOL0     H26041   2.818  11.542   4.112 -2.7157 -1.1386  2.8320
  934MOL0     H26042   3.196  11.557   4.027  1.0075 -1.0366  2.1964
  934MOL0     H26043   3.043  11.622   3.988  0.8169  1.2653 -0.4228
  934MOL0     H26044   3.184  11.669   4.261 -1.2301 -0.4355  1.1506
  934MOL0     H26045   3.003  11.697   4.233  0.4998  1.1985  2.4279
  934MOL0     H26046   3.064  11.847   4.053 -0.4409  1.7753 -0.4771
  934MOL0     H26047   3.232  11.815   4.091  1.7421 -3.0584  3.8474
  934MOL0     H26048   3.020  11.928   4.265  0.1976  3.1840  0.4777
  934MOL0     H26049   3.137  12.024   4.176  0.5100 -0.0030  1.2718
  934MOL0     H26050   3.403  11.854   4.520 -0.5468  0.9763 -0.8382
  934MOL0     H26051   3.586  11.762   4.601 -1.5318 -0.9557 -0.7644
  934MOL0     H26052   3.735  11.765   4.512  1.2469  2.3968  0.7769
  934MOL0     H26053   3.700  11.898   4.612  1.7732  0.4775 -2.3741
  934MOL0     H26054   4.073  12.144   4.409 -5.1389 -0.1517 -0.8353
  934MOL0     H26055   4.308  12.068   4.354 -0.4517  1.7764  1.5206
  934MOL0     H26056   4.401  11.675   4.455  0.4197 -1.5865 -0.6887
  934MOL0     H26057   4.403  11.624   4.282  0.8036 -0.8634 -0.6060
  934MOL0     H26058   4.611  11.776   4.435  0.3435  1.3893 -1.1590
  934MOL0     H26059   4.615  11.599   4.398  0.0540 -1.3544 -0.7649
  934MOL0     H26060   4.578  11.786   4.173 -1.8477  0.6082  3.1073
  934MOL0     H26061   4.632  11.623   4.160  0.5562 -0.1616 -0.0151
  934MOL0     H26062   4.847  11.687   4.301  2.1330  1.2013  0.5770
  934MOL0     H26063   4.837  11.723   4.128  0.1646  1.5812 -0.4443
  934MOL0     H26064   4.787  11.918   4.353 -2.2204  0.9540 -0.5234
  934MOL0     H26065   4.737  11.950   4.185 -0.1402  0.5412  0.3110
  934MOL0     H26066   5.001  11.862   4.243 -3.1806 -0.0170  2.3057
  934MOL0     H26067   4.967  11.928   4.093  0.0566 -1.0833 -0.4234
  934MOL0     H26068   4.866  12.136   4.241 -2.4744 -2.6532  1.0278
  934MOL0     H26069   5.039  12.134   4.192  2.7470 -4.7684 -2.1259
  934MOL0     H26070   5.094  12.148   4.430  0.2152 -0.0512 -0.2265
  934MOL0     H26071   5.060  11.973   4.409 -1.6201 -1.2137 -2.2610
  934MOL0     H26072   4.196  11.659   4.366  1.3654  1.0710  0.2240
  934MOL0     H26073   3.943  11.724   4.390  0.4046 -0.3047  0.6506
  934MOL0     H26074   3.605  12.073   4.125  0.7361 -0.3885  0.1032
  934MOL0     H26075   3.343  12.037   4.135 -5.4176 -0.8195  2.1851
  934MOL0     H26076   1.789  11.542   3.941  0.6757  2.9062 -0.8048
  934MOL0     H26077   1.602  11.567   4.091  1.2484 -2.2813  0.6718
  934MOL0     H26078   1.456  11.312   4.498  0.6184  0.5276 -0.1460
  934MOL0     H26079   1.250  11.292   4.623 -0.2155  1.0928  1.1644
  934MOL0     H26080   1.141  11.471   4.869  0.5440 -1.4091 -0.2202
  934MOL0     H26081   1.091  11.629   4.808 -1.2084 -0.5467  3.3044
  934MOL0     H26082   0.942  11.550   4.965  2.7720 -3.6405  1.8050
  934MOL0     H26083   0.912  11.405   4.878 -2.6813  1.1028  0.9938
  934MOL0     H26084   0.800  11.502   4.709  1.8670 -1.7100  0.4405
  934MOL0     H26085   0.847  11.670   4.740 -1.5140 -0.8981 -1.2293
  934MOL0     H26086   0.618  11.655   4.824 -1.5376  0.9622  3.0539
  934MOL0     H26087   0.729  11.677   4.960 -1.2539  1.7658  0.2960
  934MOL0     H26088   0.592  11.270   5.024 -0.8823  0.6805  2.8092
  934MOL0     H26089   1.163  11.703   4.579 -0.5707 -1.2406  1.0348
  934MOL0     H26090   1.364  11.732   4.441  1.5054 -1.4269 -1.3284
  935MOL0     O26091   4.552  10.395   8.466 -0.3678  0.6081 -0.7910
  935MOL0     C26092   4.526  10.498   8.531  0.1094 -0.3655  1.0250
  935MOL0     O26093   4.618  10.574   8.600  0.0242  0.0094  0.2801
  935MOL0     C26094   4.743  10.521   8.622 -0.2553  0.2648  0.2138
  935MOL0     C26095   4.772  10.372   8.638 -0.1160  0.0376 -1.2266
  935MOL0     C26096   4.904  10.339   8.677  0.6837  0.6866  0.0563
  935MOL0     C26097   4.998  10.437   8.701 -0.0455  0.3441 -0.0437
  935MOL0     O26098   5.117  10.383   8.742  0.2508 -0.7405  0.0472
  935MOL0     C26099   5.221  10.476   8.781  0.4899 -0.5115 -0.5071
  935MOL0     C26100   5.355  10.395   8.806  1.4524 -0.5149  0.3407
  935MOL0     C26101   5.396  10.319   8.683  0.6323 -0.8863 -0.9761
  935MOL0     C26102   5.339  10.180   8.667 -0.6205  0.7271  0.5915
  935MOL0     C26103   5.328  10.130   8.519  0.2292  0.2970  0.4054
  935MOL0     C26104   5.267   9.988   8.499  0.0638  0.3048  0.0578
  935MOL0     C26105   5.253   9.925   8.361  0.4085  0.1081 -0.0617
  935MOL0     C26106   5.148   9.817   8.352 -0.0625  0.6577  0.4455
  935MOL0     N26107   5.171   9.753   8.219  0.3386 -0.0483  0.5253
  935MOL0     C26108   5.096   9.799   8.102 -0.5499  0.1004 -0.4805
  935MOL0     C26109   5.147   9.708   8.009 -1.1451 -0.1377 -0.3044
  935MOL0     C26110   5.115   9.713   7.860  0.0834  0.0453  0.3207
  935MOL0     C26111   4.997   9.621   7.821 -0.2778 -0.2167  0.0217
  935MOL0     C26112   4.860   9.674   7.857  1.3065 -0.6516  1.0001
  935MOL0     C26113   4.734   9.607   7.788 -0.0312 -0.4960  0.4162
  935MOL0     O26114   4.751   9.465   7.805  0.3150  0.9441  0.8610
  935MOL0     C26115   4.659   9.378   7.751 -0.0819  0.2006  0.8198
  935MOL0     C26116   4.696   9.244   7.736  1.0816 -0.2059 -0.3925
  935MOL0     C26117   4.597   9.156   7.700 -0.0799  0.1022 -0.1535
  935MOL0     C26118   4.651   9.014   7.706 -0.0552 -0.2290 -0.0183
  935MOL0     C26119   4.467   9.191   7.650  0.8211 -0.1645  0.1329
  935MOL0     C26120   4.359   9.090   7.600  0.5236 -0.0471 -0.0500
  935MOL0     O26121   4.291   9.135   7.487  0.0162 -0.3855 -0.1718
  935MOL0     C26122   4.178   9.058   7.454  0.4820 -0.4279 -0.0277
  935MOL0     C26123   4.056   9.109   7.508  0.3534  0.4304  0.6883
  935MOL0     C26124   3.934   9.037   7.480  0.2795  0.3506  0.5659
  935MOL0     C26125   3.937   8.927   7.386  0.9220 -0.1247  0.2697
  935MOL0     O26126   3.819   8.864   7.366  0.3291  0.2647  0.1319
  935MOL0     C26127   3.809   8.773   7.256 -1.0487  0.1251  0.0770
  935MOL0     C26128   3.814   8.836   7.115 -0.0827  0.8674 -1.8385
  935MOL0     C26129   3.838   8.719   7.020 -0.1266 -0.1749  0.9598
  935MOL0     C26130   3.857   8.778   6.879  1.3891 -1.3335  0.3106
  935MOL0     C26131   3.881   8.670   6.776 -0.4025 -0.3570 -0.5500
  935MOL0     C26132   3.872   8.733   6.637  0.2766 -1.0813  0.1674
  935MOL0     C26133   3.939   8.650   6.523  0.3789 -0.0153  0.0417
  935MOL0     C26134   3.961   8.736   6.398  1.0686 -0.7754 -0.2050
  935MOL0    Cl26135   3.963   8.629   6.257  0.0700 -0.2044 -0.1280
  935MOL0     C26136   4.060   8.886   7.334 -0.6919 -0.6080  0.6139
  935MOL0     C26137   4.180   8.949   7.370 -0.2622  1.2499  1.3011
  935MOL0     O26138   4.373   8.969   7.631  0.3193 -0.2340 -0.1026
  935MOL0     C26139   4.439   9.324   7.654 -0.0242  0.1264 -0.2229
  935MOL0     C26140   4.524   9.412   7.711  0.2517  0.2300 -0.7198
  935MOL0     N26141   5.235   9.622   8.070 -0.1534 -0.9420 -0.4034
  935MOL0     N26142   5.254   9.641   8.194 -0.0462  0.3999  0.5086
  935MOL0     C26143   4.967  10.568   8.697  0.5391  0.0232  0.5771
  935MOL0     C26144   4.845  10.612   8.651  0.0999  0.2699  1.2387
  935MOL0     C26145   4.387  10.539   8.557  0.3001 -0.7442 -0.4851
  935MOL0     C26146   4.280  10.466   8.498  0.0004 -0.5705 -0.3284
  935MOL0     C26147   4.149  10.492   8.530  0.8010 -0.3012  0.7537
  935MOL0     C26148   4.117  10.589   8.631 -0.8187  0.1040  0.2368
  935MOL0     O26149   3.985  10.593   8.658 -0.4126 -0.3661 -0.0865
  935MOL0     C26150   3.942  10.679   8.761 -0.2829 -0.5568 -0.6339
  935MOL0     C26151   3.796  10.655   8.795 -0.5426 -0.4849  0.0584
  935MOL0     C26152   3.695  10.734   8.703 -0.2341  0.5273 -0.4122
  935MOL0     C26153   3.674  10.886   8.750  0.6258 -0.9559  0.6635
  935MOL0     C26154   3.588  10.889   8.868  0.4417  0.0514  0.9134
  935MOL0     C26155   3.525  10.880   8.973  0.3927  0.4571 -0.3591
  935MOL0     C26156   4.217  10.655   8.694 -1.0685 -0.3235 -0.1842
  935MOL0     C26157   4.353  10.637   8.661  0.1702 -0.6898  0.7401
  935MOL0     H26158   4.693  10.298   8.631 -0.6765  0.4279  0.5097
  935MOL0     H26159   4.921  10.234   8.699 -2.2439 -0.2880 -1.7100
  935MOL0     H26160   5.227  10.555   8.705 -0.7354 -0.7321 -0.8577
  935MOL0     H26161   5.195  10.512   8.880  1.6174 -2.2007  0.4502
  935MOL0     H26162   5.441  10.461   8.819  0.1029  1.4393 -0.2275
  935MOL0     H26163   5.341  10.333   8.895  0.2336 -3.8926 -1.9910
  935MOL0     H26164   5.367  10.380   8.597  1.2227  0.2859 -0.3663
  935MOL0     H26165   5.505  10.313   8.694  0.6038  0.2543  0.3057
  935MOL0     H26166   5.397  10.106   8.721  1.0755  2.1815  0.8587
  935MOL0     H26167   5.235  10.177   8.701 -1.2487 -2.0295 -1.2604
  935MOL0     H26168   5.262  10.193   8.459 -0.7069  0.1513  1.2629
  935MOL0     H26169   5.430  10.143   8.482  0.2872 -1.3912 -0.0897
  935MOL0     H26170   5.325   9.925   8.566  1.3703 -0.8464 -2.0494
  935MOL0     H26171   5.164   9.990   8.536  0.4069  0.8710  1.0026
  935MOL0     H26172   5.229  10.010   8.296  3.0098 -0.0590 -1.3927
  935MOL0     H26173   5.352   9.889   8.330 -0.9031 -2.2895 -1.7620
  935MOL0     H26174   5.048   9.854   8.375 -0.2678  0.7447 -0.5147
  935MOL0     H26175   5.171   9.748   8.433  2.3381  2.3336  1.3074
  935MOL0     H26176   5.011   9.866   8.103 -1.5789 -1.1570 -1.2148
  935MOL0     H26177   5.122   9.818   7.832  0.8935  1.0709  3.8245
  935MOL0     H26178   5.198   9.651   7.824 -1.3447 -1.1271 -1.0827
  935MOL0     H26179   5.021   9.524   7.865  0.6888  0.0748  0.1562
  935MOL0     H26180   4.987   9.593   7.716  2.5347 -1.3429 -0.0219
  935MOL0     H26181   4.867   9.780   7.829  0.7175 -0.3318  1.9955
  935MOL0     H26182   4.848   9.671   7.966  1.0021 -1.1296  0.9542
  935MOL0     H26183   4.734   9.645   7.686 -0.2145 -0.2141  0.5206
  935MOL0     H26184   4.642   9.634   7.841  1.0117  1.2092  1.4570
  935MOL0     H26185   4.794   9.211   7.768  0.2414 -1.9784  0.5068
  935MOL0     H26186   4.730   9.005   7.781  1.0778  0.7581 -1.0526
  935MOL0     H26187   4.583   8.936   7.740 -1.4360 -0.5176 -3.0917
  935MOL0     H26188   4.693   8.978   7.611  2.8295 -0.5209  1.2589
  935MOL0     H26189   4.051   9.196   7.573 -0.9915  1.9124 -1.2677
  935MOL0     H26190   3.841   9.060   7.530 -0.6999 -1.2690 -0.4288
  935MOL0     H26191   3.877   8.689   7.266 -0.9904  0.2741  1.0296
  935MOL0     H26192   3.712   8.724   7.266 -0.7059 -0.7139 -0.6117
  935MOL0     H26193   3.714   8.877   7.099 -3.6614 -4.4368  2.9702
  935MOL0     H26194   3.891   8.913   7.114  0.7346  0.2262  1.2593
  935MOL0     H26195   3.767   8.636   7.012  1.1773 -1.3968  1.6928
  935MOL0     H26196   3.930   8.665   7.042 -0.7182 -1.0178  1.4041
  935MOL0     H26197   3.762   8.830   6.866  0.9505 -2.4611 -1.3050
  935MOL0     H26198   3.931   8.858   6.871 -2.2191  2.2258 -0.6106
  935MOL0     H26199   3.803   8.598   6.801  0.5318 -1.2468 -0.1091
  935MOL0     H26200   3.975   8.615   6.785 -1.0474 -2.2876 -3.9377
  935MOL0     H26201   3.771   8.755   6.602 -0.5419  0.6925  3.2307
  935MOL0     H26202   3.918   8.832   6.638  2.1222 -1.8732  1.9943
  935MOL0     H26203   3.870   8.567   6.508  0.9613 -1.0442  2.5683
  935MOL0     H26204   4.035   8.612   6.559  1.6731  3.0168  0.0757
  935MOL0     H26205   4.053   8.794   6.406  0.6970 -0.4242  1.9834
  935MOL0     H26206   3.881   8.810   6.395  2.7100  1.0963  0.3796
  935MOL0     H26207   4.069   8.795   7.275  1.9946  0.2133 -0.4194
  935MOL0     H26208   4.271   8.906   7.330 -1.4870 -0.4326  0.1796
  935MOL0     H26209   4.342   9.357   7.619 -0.4628  1.8335  2.3062
  935MOL0     H26210   4.479   9.510   7.720  0.4859  0.4029 -1.3650
  935MOL0     H26211   5.039  10.643   8.724 -0.5639  0.5593  2.1503
  935MOL0     H26212   4.818  10.717   8.645 -3.8282 -0.6339 -4.6156
  935MOL0     H26213   4.306  10.385   8.431 -0.3503 -0.3777 -0.7035
  935MOL0     H26214   4.063  10.439   8.490 -1.3435  2.2624  1.6664
  935MOL0     H26215   3.994  10.667   8.856  0.1893 -0.9993 -0.9404
  935MOL0     H26216   3.950  10.783   8.727  0.7471 -0.7336 -0.9719
  935MOL0     H26217   3.783  10.675   8.901 -0.4872  2.1071 -0.3630
  935MOL0     H26218   3.769  10.549   8.788 -0.8300 -0.3254 -2.1133
  935MOL0     H26219   3.597  10.685   8.707 -0.2258  0.4788 -0.7704
  935MOL0     H26220   3.713  10.732   8.595  0.7826  2.1180 -0.2945
  935MOL0     H26221   3.617  10.936   8.671 -0.2553  0.4609  2.1320
  935MOL0     H26222   3.766  10.939   8.774  1.4499 -1.3793 -1.3333
  935MOL0     H26223   3.480  10.869   9.069  1.9562  1.3190  0.5014
  935MOL0     H26224   4.194  10.720   8.778 -3.8660 -0.6574 -0.5982
  935MOL0     H26225   4.422  10.667   8.739  2.2769 -0.5196 -1.0807
  936MOL0     O26226   5.050   5.132   5.785 -0.2275  0.0446 -0.0516
  936MOL0     C26227   4.974   5.220   5.830  0.6739 -0.3249  0.0752
  936MOL0     O26228   4.907   5.208   5.948 -0.1206 -0.9384 -0.5246
  936MOL0     C26229   4.915   5.089   6.021 -0.2405  0.0324 -1.0924
  936MOL0     C26230   4.995   5.082   6.142  0.9529  1.1503 -0.7219
  936MOL0     C26231   5.003   4.962   6.212 -0.5981 -0.6740 -0.1967
  936MOL0     C26232   4.928   4.847   6.166 -0.4076 -0.5547  0.4178
  936MOL0     O26233   4.905   4.736   6.233 -0.7179 -0.1462  0.1204
  936MOL0     C26234   5.024   4.691   6.312  0.1948  0.1028 -0.1580
  936MOL0     C26235   4.999   4.571   6.404  0.7011 -0.0917  0.0047
  936MOL0     C26236   4.879   4.584   6.494 -0.2183  0.0348 -0.4724
  936MOL0     C26237   4.834   4.453   6.563 -0.5727  0.5895 -0.4052
  936MOL0     C26238   4.710   4.461   6.663 -0.5697  0.3501  1.3750
  936MOL0     C26239   4.741   4.475   6.811 -0.4754  1.1022 -0.1806
  936MOL0     C26240   4.855   4.565   6.850 -0.3552 -0.4593 -0.5948
  936MOL0     C26241   4.900   4.536   6.998 -0.5811  0.3350  0.7996
  936MOL0     N26242   4.799   4.515   7.101  0.3654  0.5977 -0.7526
  936MOL0     C26243   4.730   4.400   7.146 -0.0257 -0.3440 -0.1824
  936MOL0     C26244   4.652   4.436   7.248  1.2878  0.1514 -0.1745
  936MOL0     C26245   4.564   4.346   7.324  0.1048  1.1892 -0.6247
  936MOL0     C26246   4.420   4.396   7.332 -0.2499  0.1170  0.2607
  936MOL0     C26247   4.365   4.447   7.194 -0.1457 -0.0753 -0.1893
  936MOL0     C26248   4.214   4.478   7.207 -0.8241  0.1470 -0.3324
  936MOL0     O26249   4.126   4.362   7.190  0.0187  0.3579  0.4188
  936MOL0     C26250   4.058   4.300   7.294  0.3807 -1.4619  0.6524
  936MOL0     C26251   3.966   4.204   7.257 -1.2155 -0.8072  0.6930
  936MOL0     C26252   3.894   4.127   7.345 -0.6546  0.2321  0.7372
  936MOL0     C26253   3.811   4.014   7.290 -0.5658 -0.5074  0.5369
  936MOL0     C26254   3.904   4.162   7.487 -0.6653  0.1353  0.4877
  936MOL0     C26255   3.810   4.111   7.589  0.1059 -0.0828  0.8001
  936MOL0     O26256   3.857   4.130   7.713 -0.8955 -0.3326 -0.3363
  936MOL0     C26257   3.797   4.068   7.816  0.2798  0.3030 -0.1862
  936MOL0     C26258   3.656   4.073   7.845 -0.4749 -0.8263 -0.2278
  936MOL0     C26259   3.598   3.982   7.930 -0.5609 -1.6043 -0.1354
  936MOL0     C26260   3.678   3.889   8.007 -0.7378  0.9317  0.2602
  936MOL0     O26261   3.612   3.828   8.113  0.3078  1.0447  0.6681
  936MOL0     C26262   3.674   3.739   8.206  0.6200 -0.3916 -0.0748
  936MOL0     C26263   3.729   3.614   8.137 -0.7269  0.6889  0.3726
  936MOL0     C26264   3.741   3.501   8.244  0.0439  0.4753 -0.6031
  936MOL0     C26265   3.837   3.542   8.362  0.0139 -0.3891  0.2933
  936MOL0     C26266   3.765   3.564   8.495  0.2509 -0.0095 -0.6774
  936MOL0     C26267   3.866   3.547   8.612  0.5704 -0.2863 -1.3261
  936MOL0     C26268   3.787   3.564   8.740 -1.4741  0.0950  0.6529
  936MOL0     C26269   3.793   3.712   8.787  0.3628 -0.2165  0.9506
  936MOL0    Cl26270   3.679   3.821   8.680  0.9352 -0.0556  0.3353
  936MOL0     C26271   3.817   3.886   7.988  0.3903 -0.0147 -0.1081
  936MOL0     C26272   3.869   3.970   7.887 -0.2609  0.4243 -0.6159
  936MOL0     O26273   3.700   4.064   7.558  0.6984 -0.6459  0.3455
  936MOL0     C26274   4.004   4.257   7.528 -0.6068  0.5525 -1.1102
  936MOL0     C26275   4.087   4.318   7.428 -0.0841  0.4687 -0.9455
  936MOL0     N26276   4.664   4.574   7.261  1.2157 -0.5445  0.1939
  936MOL0     N26277   4.754   4.620   7.179 -1.1629 -0.0847 -0.3143
  936MOL0     C26278   4.837   4.859   6.061 -0.0016  1.2142  0.1680
  936MOL0     C26279   4.836   4.976   5.983 -0.0250 -0.4430  0.1269
  936MOL0     C26280   4.976   5.363   5.770  0.0875 -0.1946  0.4673
  936MOL0     C26281   4.907   5.465   5.837  0.5380 -0.0624 -0.3419
  936MOL0     C26282   4.895   5.596   5.791  0.4900 -0.0084 -0.3185
  936MOL0     C26283   4.965   5.633   5.688  0.1203  0.0581  0.2744
  936MOL0     O26284   4.970   5.752   5.624 -0.0584 -0.0537  0.1215
  936MOL0     C26285   4.846   5.832   5.645 -0.1645 -0.0667 -0.1071
  936MOL0     C26286   4.884   5.975   5.621  0.5493 -0.6830 -0.2810
  936MOL0     C26287   4.770   6.058   5.675 -0.3138 -0.5209 -0.4864
  936MOL0     C26288   4.810   6.208   5.654 -0.2647  0.5256  0.3540
  936MOL0     C26289   4.749   6.298   5.754 -0.2391 -0.2463 -0.3939
  936MOL0     C26290   4.692   6.392   5.807 -0.0266  0.0765  1.4861
  936MOL0     C26291   5.054   5.543   5.626 -0.8115 -0.4229 -0.6265
  936MOL0     C26292   5.057   5.404   5.664 -0.0146  0.6873 -0.2326
  936MOL0     H26293   5.060   5.167   6.164  1.4512  1.5094 -3.3125
  936MOL0     H26294   5.060   4.967   6.304 -1.1543  2.3825  0.1039
  936MOL0     H26295   5.103   4.667   6.240  0.1600 -1.4175  0.2836
  936MOL0     H26296   5.069   4.769   6.374 -0.6461 -1.1641  2.1272
  936MOL0     H26297   4.966   4.489   6.340 -0.2796  0.7468 -0.5876
  936MOL0     H26298   5.094   4.535   6.446  1.1265  0.9184 -0.0499
  936MOL0     H26299   4.900   4.665   6.565  2.6457 -1.2132  0.2368
  936MOL0     H26300   4.786   4.617   6.446  1.2474 -0.8802 -4.3403
  936MOL0     H26301   4.817   4.389   6.475  0.5515 -0.0445 -0.1756
  936MOL0     H26302   4.921   4.417   6.619  1.2138  0.5650 -3.0433
  936MOL0     H26303   4.673   4.559   6.633  2.4047  1.4435  1.0094
  936MOL0     H26304   4.636   4.384   6.637  0.9957 -0.2611 -1.7427
  936MOL0     H26305   4.657   4.524   6.862 -0.6867  0.9877 -0.4226
  936MOL0     H26306   4.773   4.383   6.860  3.0444  1.0689 -2.1920
  936MOL0     H26307   4.946   4.562   6.789  0.4416 -0.6976  0.5718
  936MOL0     H26308   4.821   4.669   6.842 -0.2271 -0.4888 -1.6856
  936MOL0     H26309   4.966   4.618   7.029  2.7966 -1.9645  0.2109
  936MOL0     H26310   4.944   4.436   6.995 -0.8647  0.2088  0.8048
  936MOL0     H26311   4.725   4.297   7.109 -1.0686  0.6350 -3.0759
  936MOL0     H26312   4.559   4.250   7.273  1.3206  1.4117 -1.1962
  936MOL0     H26313   4.600   4.331   7.427 -0.4641 -0.6883 -0.6585
  936MOL0     H26314   4.422   4.468   7.414 -2.9262  1.8278 -1.0142
  936MOL0     H26315   4.357   4.311   7.361 -0.5561  0.0296 -0.6227
  936MOL0     H26316   4.386   4.372   7.117 -1.5744 -0.8232  0.1011
  936MOL0     H26317   4.409   4.546   7.181  0.7169 -0.3473  0.5845
  936MOL0     H26318   4.174   4.536   7.123  0.0512  1.2223 -0.0373
  936MOL0     H26319   4.208   4.545   7.293 -0.6571 -0.1607 -0.0788
  936MOL0     H26320   3.965   4.186   7.150 -1.9296 -1.3256  0.7768
  936MOL0     H26321   3.718   4.051   7.247  0.0875  0.7698  0.1692
  936MOL0     H26322   3.856   3.967   7.202 -1.4470 -1.4233  0.5474
  936MOL0     H26323   3.793   3.931   7.359 -1.7895  1.5405  2.8447
  936MOL0     H26324   3.612   4.154   7.789  2.5630  1.0715 -0.1095
  936MOL0     H26325   3.495   4.004   7.956 -0.0902  0.6109  0.0438
  936MOL0     H26326   3.759   3.793   8.250  1.8563 -1.3511 -1.2039
  936MOL0     H26327   3.600   3.709   8.281  2.7643  0.9617  2.8010
  936MOL0     H26328   3.665   3.579   8.056  0.9634 -0.2731 -0.6186
  936MOL0     H26329   3.830   3.619   8.096  1.1054 -2.4587  3.8302
  936MOL0     H26330   3.774   3.405   8.204 -2.9721 -0.6899 -0.5495
  936MOL0     H26331   3.637   3.490   8.276  0.8751 -1.8973  1.5964
  936MOL0     H26332   3.912   3.465   8.384  2.4644  2.2641  2.0064
  936MOL0     H26333   3.895   3.628   8.327 -0.8425 -0.3651 -1.1291
  936MOL0     H26334   3.687   3.487   8.503  0.4811 -0.2235 -0.4407
  936MOL0     H26335   3.720   3.663   8.489  0.0330  0.0089  0.8259
  936MOL0     H26336   3.914   3.449   8.613 -0.2253 -0.6846 -0.3421
  936MOL0     H26337   3.953   3.613   8.607  1.5809 -1.5248 -0.7558
  936MOL0     H26338   3.835   3.508   8.821  1.7252  2.1585  0.3763
  936MOL0     H26339   3.688   3.522   8.724 -1.0680 -0.0203 -2.0004
  936MOL0     H26340   3.893   3.754   8.778 -0.9219  3.3544  1.3890
  936MOL0     H26341   3.751   3.727   8.887 -0.7408 -3.0224  1.0032
  936MOL0     H26342   3.886   3.824   8.043  0.5586  1.0872  0.9501
  936MOL0     H26343   3.971   3.970   7.851 -1.0180 -1.0746 -3.0043
  936MOL0     H26344   4.009   4.285   7.633 -1.4330 -0.8924 -0.6743
  936MOL0     H26345   4.158   4.390   7.465 -2.0459  1.9396  0.1555
  936MOL0     H26346   4.772   4.775   6.040 -0.1827  0.5834  2.9280
  936MOL0     H26347   4.778   4.980   5.891  0.7503  1.0595 -0.3233
  936MOL0     H26348   4.842   5.447   5.922  0.6455 -0.3896 -0.3253
  936MOL0     H26349   4.823   5.659   5.843  2.2602  2.8086 -1.0866
  936MOL0     H26350   4.775   5.794   5.572  1.8810 -1.6819 -1.3335
  936MOL0     H26351   4.797   5.819   5.742 -1.0149  0.9784 -0.3754
  936MOL0     H26352   4.901   5.975   5.513 -0.3121 -0.2059 -0.4307
  936MOL0     H26353   4.973   5.994   5.682 -0.8517  3.2929  0.8979
  936MOL0     H26354   4.761   6.042   5.783 -1.4949 -0.1214 -0.5213
  936MOL0     H26355   4.673   6.050   5.626 -0.3576  0.1528 -0.5155
  936MOL0     H26356   4.787   6.254   5.558 -0.1865  4.1863  1.9351
  936MOL0     H26357   4.918   6.220   5.664 -0.4047  0.4493  2.2439
  936MOL0     H26358   4.626   6.473   5.831 -2.5263 -0.6121 -2.1457
  936MOL0     H26359   5.115   5.591   5.550 -1.1596  2.6559  0.8772
  936MOL0     H26360   5.120   5.329   5.617 -3.9794 -2.2783 -1.3711
  937MOL0     O26361   2.223   0.818  10.336  0.1856 -0.4302 -0.8871
  937MOL0     C26362   2.195   0.702  10.355  0.1804 -0.0921  0.0468
  937MOL0     O26363   2.196   0.639  10.473  0.1879  1.2534  0.0911
  937MOL0     C26364   2.237   0.692  10.597 -0.2675  0.8161 -0.2223
  937MOL0     C26365   2.150   0.683  10.707 -0.2760  0.8624  0.0120
  937MOL0     C26366   2.186   0.740  10.832 -0.7187  0.7827  0.0615
  937MOL0     C26367   2.301   0.819  10.842 -0.9748  0.6452  0.0955
  937MOL0     O26368   2.335   0.898  10.948 -0.6708  0.5269  0.3071
  937MOL0     C26369   2.220   0.962  11.018  0.1026 -0.3636 -0.9035
  937MOL0     C26370   2.190   0.895  11.156  0.3135 -0.5379 -0.0315
  937MOL0     C26371   2.094   0.985  11.235 -0.9245 -0.2121  0.0742
  937MOL0     C26372   1.969   1.041  11.168 -0.5854 -0.2421 -0.8246
  937MOL0     C26373   1.850   0.941  11.152 -0.8179  0.2126 -0.7336
  937MOL0     C26374   1.737   0.987  11.059  0.9510  0.2057  1.6108
  937MOL0     C26375   1.635   0.883  11.011  0.5625 -0.2429 -0.0936
  937MOL0     C26376   1.530   0.929  10.922  0.3716  0.5079  0.3704
  937MOL0     N26377   1.428   0.817  10.910 -0.1896  0.2897  0.2426
  937MOL0     C26378   1.321   0.804  10.988 -0.3983 -0.6654 -0.0690
  937MOL0     C26379   1.269   0.683  10.977 -0.3067  0.5285  0.4720
  937MOL0     C26380   1.137   0.659  11.037 -0.8921 -0.2007 -0.2343
  937MOL0     C26381   1.143   0.562  11.151  0.0108 -0.1425 -0.4412
  937MOL0     C26382   1.148   0.422  11.111  0.0062 -0.0427  0.2728
  937MOL0     C26383   1.173   0.343  11.235 -0.0111 -1.2900  0.5904
  937MOL0     O26384   1.205   0.204  11.215  0.6790 -0.6022  0.0736
  937MOL0     C26385   1.334   0.160  11.220 -0.3633  0.5673 -0.0897
  937MOL0     C26386   1.438   0.240  11.178 -0.5916  0.1858 -0.2940
  937MOL0     C26387   1.572   0.198  11.187 -0.2635 -0.0220  0.0193
  937MOL0     C26388   1.682   0.294  11.126 -0.2083  0.3828 -0.5668
  937MOL0     C26389   1.610   0.064  11.226  0.0872  0.3236 -0.3101
  937MOL0     C26390   1.749   0.006  11.238 -0.0134  0.4468  0.8144
  937MOL0     O26391   1.758  -0.133  11.253 -0.2857  0.5453 -0.1935
  937MOL0     C26392   1.884  -0.187  11.269  0.4918  0.0914 -0.5312
  937MOL0     C26393   1.960  -0.148  11.384  0.4228  0.6358 -0.5447
  937MOL0     C26394   2.092  -0.199  11.397 -0.2469  0.6990 -0.2622
  937MOL0     C26395   2.146  -0.286  11.310  0.5558  0.2020  0.3406
  937MOL0     O26396   2.277  -0.317  11.337 -0.1994  0.2294  0.3021
  937MOL0     C26397   2.383  -0.240  11.268  0.4641 -0.1011  0.4227
  937MOL0     C26398   2.508  -0.319  11.272 -0.2334  0.0305 -0.7552
  937MOL0     C26399   2.524  -0.432  11.169 -0.0406 -0.2998  0.3955
  937MOL0     C26400   2.578  -0.566  11.225  0.3755 -0.9114 -0.1498
  937MOL0     C26401   2.485  -0.641  11.330 -0.6138  0.1273 -0.2266
  937MOL0     C26402   2.353  -0.705  11.262  0.0899  0.0249 -0.8097
  937MOL0     C26403   2.277  -0.789  11.367 -0.0490  0.5929 -0.3809
  937MOL0     C26404   2.236  -0.922  11.323  0.4303  0.4540  0.4801
  937MOL0    Cl26405   2.377  -1.038  11.289  0.2919  0.1125 -0.1222
  937MOL0     C26406   2.068  -0.339  11.203  0.6196  0.0663 -0.2020
  937MOL0     C26407   1.941  -0.287  11.186  0.4022  0.5422  0.6827
  937MOL0     O26408   1.843   0.085  11.240  0.0249 -0.5983 -0.1476
  937MOL0     C26409   1.497  -0.015  11.259 -0.0731 -0.2965  0.5546
  937MOL0     C26410   1.367   0.031  11.262  0.2609 -0.1947 -0.0553
  937MOL0     N26411   1.353   0.612  10.894  0.5023  0.0103 -0.5466
  937MOL0     N26412   1.441   0.699  10.847 -0.4559 -0.5873 -0.5528
  937MOL0     C26413   2.394   0.811  10.737 -1.2617  0.3241  0.2785
  937MOL0     C26414   2.356   0.756  10.617  0.0827 -0.1253  0.5551
  937MOL0     C26415   2.168   0.615  10.228  0.7120 -0.4702 -0.9548
  937MOL0     C26416   2.094   0.657  10.115 -0.3979  0.6643 -0.9439
  937MOL0     C26417   2.075   0.572  10.001  0.6181 -0.3001  0.0670
  937MOL0     C26418   2.107   0.434  10.016  0.9699 -0.4738 -0.5275
  937MOL0     O26419   2.092   0.334   9.921  0.7729  0.3226  0.3546
  937MOL0     C26420   2.086   0.364   9.786  0.2926 -0.5003  1.2411
  937MOL0     C26421   2.061   0.227   9.716 -0.0102  0.1702 -0.4983
  937MOL0     C26422   2.009   0.237   9.577  0.3752  1.2643  0.4556
  937MOL0     C26423   2.106   0.311   9.486 -0.4652 -0.3574  0.5827
  937MOL0     C26424   2.060   0.394   9.372 -0.5845  0.2641 -0.6651
  937MOL0     C26425   2.009   0.419   9.267 -0.1784 -0.3544 -0.3678
  937MOL0     C26426   2.174   0.391  10.130  0.3086 -0.1847 -0.4791
  937MOL0     C26427   2.201   0.478  10.238 -0.7432  0.9555  0.1688
  937MOL0     H26428   2.053   0.635  10.698  0.4130 -0.2360 -2.1457
  937MOL0     H26429   2.122   0.742  10.920  2.3918 -0.6140  2.5614
  937MOL0     H26430   2.251   1.063  11.045 -0.5744 -0.7372  1.4999
  937MOL0     H26431   2.136   0.972  10.948  0.3144  0.1744 -1.0854
  937MOL0     H26432   2.159   0.791  11.147 -1.0619 -0.1106 -0.5124
  937MOL0     H26433   2.281   0.875  11.212 -0.6468 -2.5883  0.8908
  937MOL0     H26434   2.058   0.940  11.328 -0.2281 -0.2977  0.3087
  937MOL0     H26435   2.159   1.067  11.268 -0.4146 -0.4187 -0.4000
  937MOL0     H26436   1.934   1.100  11.253 -0.8254 -0.8194 -0.5193
  937MOL0     H26437   1.988   1.109  11.085  0.6940  0.3427 -0.0773
  937MOL0     H26438   1.887   0.840  11.134  1.1737  0.4428  1.6137
  937MOL0     H26439   1.804   0.935  11.250 -2.8558  3.6811 -1.3149
  937MOL0     H26440   1.685   1.074  11.101 -0.0525  1.0411 -1.1358
  937MOL0     H26441   1.767   1.027  10.962 -4.0639  0.9499  0.0708
  937MOL0     H26442   1.693   0.800  10.969 -0.7041 -0.8817 -0.6436
  937MOL0     H26443   1.587   0.848  11.103  1.8267  0.3125  0.8042
  937MOL0     H26444   1.576   0.946  10.825  2.1372 -0.0362  1.0648
  937MOL0     H26445   1.477   1.020  10.950 -1.0405  0.8105 -2.9273
  937MOL0     H26446   1.293   0.892  11.045 -0.2191 -1.4177  1.2098
  937MOL0     H26447   1.104   0.757  11.073  3.0986  1.6452 -1.0341
  937MOL0     H26448   1.073   0.614  10.960 -0.0016  1.6495 -2.1610
  937MOL0     H26449   1.049   0.570  11.207  1.0947 -1.3378  1.6038
  937MOL0     H26450   1.220   0.591  11.222 -2.7280  2.4478  1.7201
  937MOL0     H26451   1.232   0.412  11.041  0.4558  1.3534  0.6002
  937MOL0     H26452   1.056   0.382  11.067 -1.5506  2.3420  1.1972
  937MOL0     H26453   1.078   0.363  11.286 -0.1345 -1.1980  0.3261
  937MOL0     H26454   1.247   0.393  11.298 -1.5616  1.1283  0.5923
  937MOL0     H26455   1.432   0.340  11.136  0.6541 -0.4852 -2.1870
  937MOL0     H26456   1.621   0.373  11.083 -2.1517 -0.1308  1.0747
  937MOL0     H26457   1.739   0.326  11.214  0.3115  0.1114 -0.7966
  937MOL0     H26458   1.729   0.246  11.040  0.7766  2.7526 -1.4282
  937MOL0     H26459   1.918  -0.070  11.446 -3.5014 -0.3245 -1.7288
  937MOL0     H26460   2.156  -0.173  11.481 -1.7625 -0.2873  1.2657
  937MOL0     H26461   2.356  -0.199  11.171 -2.2387 -0.2582  1.0360
  937MOL0     H26462   2.400  -0.147  11.324  1.3166  0.6719 -1.0666
  937MOL0     H26463   2.593  -0.250  11.273  1.3341 -1.7001  2.7909
  937MOL0     H26464   2.514  -0.368  11.370  0.7779 -1.9370 -1.7535
  937MOL0     H26465   2.605  -0.400  11.103 -2.4814 -0.8231 -3.1596
  937MOL0     H26466   2.437  -0.447  11.105  2.4454 -0.4197 -3.2222
  937MOL0     H26467   2.617  -0.628  11.143  0.7376 -0.9131  0.0186
  937MOL0     H26468   2.670  -0.541  11.280 -0.3593 -0.9855  1.1400
  937MOL0     H26469   2.463  -0.577  11.416  0.1270 -1.3867  1.1629
  937MOL0     H26470   2.546  -0.725  11.367  0.1279  1.1199  0.8858
  937MOL0     H26471   2.287  -0.625  11.228 -0.4791 -1.1805 -2.6865
  937MOL0     H26472   2.376  -0.765  11.174  2.8399  1.6905 -1.3668
  937MOL0     H26473   2.195  -0.728  11.406 -2.4662 -2.1388 -0.8164
  937MOL0     H26474   2.344  -0.813  11.450 -0.2209  0.5458 -0.2547
  937MOL0     H26475   2.180  -0.927  11.228 -0.1723  1.4011  0.7711
  937MOL0     H26476   2.174  -0.974  11.397 -2.1380  1.2543 -0.9544
  937MOL0     H26477   2.120  -0.415  11.145 -0.3020 -0.8442  0.1371
  937MOL0     H26478   1.871  -0.322  11.110  2.0367 -1.2854 -0.0654
  937MOL0     H26479   1.512  -0.115  11.299 -1.7129 -0.8630 -0.1294
  937MOL0     H26480   1.283  -0.032  11.290  1.4677 -0.5579  3.0278
  937MOL0     H26481   2.486   0.867  10.749 -1.6223  1.0068 -0.0801
  937MOL0     H26482   2.428   0.778  10.539 -1.1454  1.1630 -0.2604
  937MOL0     H26483   2.052   0.757  10.109  0.9370  1.3015 -0.0251
  937MOL0     H26484   2.031   0.607   9.908  0.1762 -1.1031 -0.0322
  937MOL0     H26485   2.021   0.445   9.752 -0.6353 -2.3497 -1.7978
  937MOL0     H26486   2.188   0.397   9.765  0.1079  0.8335  2.3004
  937MOL0     H26487   1.971   0.183   9.760 -0.5401  1.5866 -0.1067
  937MOL0     H26488   2.146   0.159   9.726  0.4264  0.3026 -2.7649
  937MOL0     H26489   1.908   0.279   9.576 -0.4558 -0.3969 -3.3820
  937MOL0     H26490   1.996   0.132   9.550 -0.8310  2.1399 -2.8539
  937MOL0     H26491   2.174   0.247   9.429 -2.4537  1.2551 -4.0310
  937MOL0     H26492   2.172   0.380   9.540  1.7452 -2.2974  0.5581
  937MOL0     H26493   1.957   0.444   9.177  2.2663 -1.4235 -2.2007
  937MOL0     H26494   2.203   0.287  10.139 -0.7502 -0.4345  0.2154
  937MOL0     H26495   2.252   0.438  10.325 -1.1965  1.8868  0.8924
  938MOL0     O26496  11.398   3.412  10.997 -0.1718  0.8065  0.4911
  938MOL0     C26497  11.422   3.299  11.031 -0.1965 -0.0360 -0.6661
  938MOL0     O26498  11.456   3.258  11.159  0.2471 -0.2836 -0.1138
  938MOL0     C26499  11.431   3.342  11.265  0.5153 -0.1659  0.6401
  938MOL0     C26500  11.331   3.442  11.264  0.0339 -0.1505  0.2510
  938MOL0     C26501  11.330   3.543  11.369  0.5096 -0.6480  0.0204
  938MOL0     C26502  11.427   3.542  11.471 -0.5303 -0.1020 -1.2471
  938MOL0     O26503  11.416   3.623  11.582 -0.0817  0.5699 -0.8859
  938MOL0     C26504  11.517   3.727  11.587 -0.1949  0.3136  0.6180
  938MOL0     C26505  11.587   3.720  11.729  0.0528 -0.4284 -0.3198
  938MOL0     C26506  11.727   3.773  11.744 -0.1973  0.4138 -0.1873
  938MOL0     C26507  11.771   3.781  11.887  0.1957  0.5627  0.6873
  938MOL0     C26508  11.928   3.794  11.901  0.1161  0.5683  0.9667
  938MOL0     C26509  11.977   3.825  12.039 -0.0736 -0.2686 -0.1628
  938MOL0     C26510  11.896   3.940  12.103  0.1389 -0.2087  0.1890
  938MOL0     C26511  11.984   4.028  12.217 -0.3568  1.1088  0.0121
  938MOL0     N26512  12.010   3.937  12.327  0.0373  0.2454 -0.5718
  938MOL0     C26513  11.907   3.895  12.411  0.6523  0.0105  0.5443
  938MOL0     C26514  11.963   3.848  12.527  1.1513  0.2281 -1.0341
  938MOL0     C26515  11.877   3.797  12.636  0.1199 -0.2959 -0.3073
  938MOL0     C26516  11.967   3.757  12.750 -0.3891  0.2516  0.3014
  938MOL0     C26517  11.901   3.697  12.870 -0.3080 -0.0220  0.3471
  938MOL0     C26518  11.806   3.577  12.857  1.3168 -0.9612 -0.8504
  938MOL0     O26519  11.681   3.604  12.785  0.3580 -0.7287 -0.6016
  938MOL0     C26520  11.573   3.516  12.813  0.0333 -0.5347  0.1177
  938MOL0     C26521  11.443   3.568  12.806 -1.2009  0.9416  0.8850
  938MOL0     C26522  11.331   3.517  12.855  0.5357  0.0481  0.0640
  938MOL0     C26523  11.200   3.580  12.831 -0.1566 -0.0554 -0.0756
  938MOL0     C26524  11.345   3.395  12.929  0.1601 -0.0194  0.1998
  938MOL0     C26525  11.238   3.320  12.995  0.9955 -0.1427 -0.4242
  938MOL0     O26526  11.149   3.389  13.070 -0.4855  0.3300 -0.0385
  938MOL0     C26527  11.069   3.313  13.156 -0.1703  0.2102 -0.1213
  938MOL0     C26528  10.933   3.347  13.153 -0.8631  0.6170  0.2916
  938MOL0     C26529  10.850   3.304  13.257 -0.6003  0.9106  0.2546
  938MOL0     C26530  10.901   3.227  13.359 -0.5811 -0.2302  0.7260
  938MOL0     O26531  10.819   3.185  13.464  0.6292 -0.5141  0.0622
  938MOL0     C26532  10.680   3.175  13.433 -0.4764 -1.3599  1.0813
  938MOL0     C26533  10.605   3.102  13.531  1.0207  1.1844  0.0121
  938MOL0     C26534  10.619   3.164  13.672  0.4621 -0.2552 -0.4891
  938MOL0     C26535  10.550   3.086  13.782  0.5119  0.6229 -1.8841
  938MOL0     C26536  10.553   3.145  13.922  0.0241 -0.8696 -1.4127
  938MOL0     C26537  10.439   3.239  13.941 -0.1926 -0.0490 -0.1665
  938MOL0     C26538  10.446   3.348  14.049  0.3627  0.2549 -0.0151
  938MOL0     C26539  10.467   3.285  14.180 -0.6855  0.1323  0.3096
  938MOL0    Cl26540  10.336   3.186  14.250  0.1055 -0.0791 -0.0632
  938MOL0     C26541  11.030   3.182  13.348 -1.2782  0.0641  0.3426
  938MOL0     C26542  11.121   3.232  13.253  0.4318 -0.4907 -0.7845
  938MOL0     O26543  11.235   3.202  12.968 -0.5271 -0.0913 -0.2036
  938MOL0     C26544  11.469   3.334  12.923 -0.7555  0.1723 -0.0487
  938MOL0     C26545  11.580   3.392  12.870 -0.7826 -0.0318  0.9749
  938MOL0     N26546  12.107   3.864  12.520 -0.5140 -0.4316  0.5924
  938MOL0     N26547  12.126   3.922  12.400  0.1356 -0.5236  0.1156
  938MOL0     C26548  11.522   3.439  11.470  1.0958 -0.1904 -0.4493
  938MOL0     C26549  11.524   3.340  11.377  0.3624 -0.6384  0.0310
  938MOL0     C26550  11.423   3.197  10.927 -0.1909 -0.6582  0.2108
  938MOL0     C26551  11.448   3.064  10.956  0.1709  0.3895 -0.1972
  938MOL0     C26552  11.429   2.959  10.862  0.9077  0.1725 -0.0289
  938MOL0     C26553  11.382   2.990  10.740  1.7234 -0.2789  1.6442
  938MOL0     O26554  11.372   2.895  10.640  0.5805  0.1926  0.0725
  938MOL0     C26555  11.233   2.888  10.583  0.0963 -0.5659 -0.0376
  938MOL0     C26556  11.217   2.749  10.512  0.9332 -0.2666 -0.2948
  938MOL0     C26557  11.063   2.738  10.477  0.0119  0.5948  0.4791
  938MOL0     C26558  11.038   2.603  10.396  0.3392  0.1913 -0.1171
  938MOL0     C26559  10.898   2.544  10.392  0.5571 -0.6876 -0.0543
  938MOL0     C26560  10.786   2.493  10.387 -0.0911  0.1756  0.2441
  938MOL0     C26561  11.345   3.122  10.705  0.6940 -0.3855 -0.2309
  938MOL0     C26562  11.364   3.216  10.800 -0.1648 -0.6060 -0.4985
  938MOL0     H26563  11.258   3.449  11.184 -0.0874  1.3630  0.4626
  938MOL0     H26564  11.245   3.610  11.375  0.1395 -0.8234 -2.2666
  938MOL0     H26565  11.598   3.727  11.514  2.8073  2.1631  3.6916
  938MOL0     H26566  11.484   3.831  11.583  4.1693  1.9274  1.4799
  938MOL0     H26567  11.510   3.763  11.794  0.0848 -2.3878  1.1182
  938MOL0     H26568  11.596   3.618  11.766  0.7784 -1.4235 -3.0216
  938MOL0     H26569  11.796   3.712  11.686  0.9904  2.3868 -0.9438
  938MOL0     H26570  11.735   3.871  11.696 -0.7573  0.6374  0.1545
  938MOL0     H26571  11.715   3.857  11.943 -2.0873 -0.3725 -0.1868
  938MOL0     H26572  11.747   3.686  11.935  3.4849 -2.5732 -3.1328
  938MOL0     H26573  11.981   3.705  11.866 -1.6352 -0.1841  0.1011
  938MOL0     H26574  11.971   3.866  11.832 -0.4146 -0.7206 -0.7801
  938MOL0     H26575  11.965   3.738  12.105  0.1642  0.4650  0.8799
  938MOL0     H26576  12.081   3.851  12.021 -0.3112 -0.1168 -1.4106
  938MOL0     H26577  11.855   4.016  12.035  0.0323 -0.4344 -0.0021
  938MOL0     H26578  11.810   3.893  12.151  1.1781 -4.5545 -1.6341
  938MOL0     H26579  11.932   4.113  12.261  1.5773  1.9466  0.7780
  938MOL0     H26580  12.082   4.051  12.175 -0.3636 -0.8169 -1.2328
  938MOL0     H26581  11.801   3.886  12.390  1.2498 -0.0678 -2.9139
  938MOL0     H26582  11.814   3.882  12.665  3.1057  1.9923 -0.0966
  938MOL0     H26583  11.821   3.713  12.595 -3.3915 -0.2694  3.7113
  938MOL0     H26584  12.033   3.838  12.779  0.1854 -0.2588  0.4445
  938MOL0     H26585  12.027   3.677  12.706 -1.0088 -0.1048  0.0807
  938MOL0     H26586  11.862   3.769  12.942  1.2255  2.3646 -1.0805
  938MOL0     H26587  11.986   3.659  12.927 -2.2037  0.8173  4.0548
  938MOL0     H26588  11.786   3.547  12.960  1.1829  0.3219 -0.4926
  938MOL0     H26589  11.848   3.495  12.798  0.6757 -1.5847 -0.4636
  938MOL0     H26590  11.443   3.669  12.765 -1.1409  0.2163 -0.9852
  938MOL0     H26591  11.164   3.642  12.914 -2.6116 -1.4833  0.0378
  938MOL0     H26592  11.213   3.646  12.744 -0.2641  0.0792  0.0104
  938MOL0     H26593  11.132   3.497  12.808 -2.3306  1.4091  0.7225
  938MOL0     H26594  10.896   3.397  13.064 -1.1430 -1.7679 -1.0171
  938MOL0     H26595  10.749   3.344  13.261 -1.3836 -0.9671 -0.0117
  938MOL0     H26596  10.628   3.271  13.436 -0.3204 -1.2546  4.1484
  938MOL0     H26597  10.655   3.120  13.343 -2.0268 -0.1736  0.7526
  938MOL0     H26598  10.498   3.116  13.519 -0.0809 -1.4274  4.4129
  938MOL0     H26599  10.628   2.996  13.519  0.2679  1.2596 -2.4073
  938MOL0     H26600  10.579   3.266  13.675  1.1673  0.0236 -0.1842
  938MOL0     H26601  10.722   3.180  13.706  0.8018  0.0785 -1.6371
  938MOL0     H26602  10.446   3.063  13.755  0.1600 -4.0876  2.0199
  938MOL0     H26603  10.598   2.988  13.770 -0.5703 -0.0240 -1.1409
  938MOL0     H26604  10.647   3.201  13.933 -0.5461  0.2958 -2.2215
  938MOL0     H26605  10.553   3.078  14.008 -0.5968  1.5344  0.5971
  938MOL0     H26606  10.445   3.295  13.848 -1.9827  0.2996 -0.1163
  938MOL0     H26607  10.347   3.179  13.946  0.5102 -1.0886  0.8424
  938MOL0     H26608  10.359   3.414  14.056  0.5694  0.4640  0.7436
  938MOL0     H26609  10.535   3.408  14.027 -0.0545  1.1562  0.6628
  938MOL0     H26610  10.488   3.366  14.251 -1.9801 -1.6547  2.8696
  938MOL0     H26611  10.563   3.234  14.171  0.3311  1.9404  0.3177
  938MOL0     H26612  11.072   3.111  13.418 -1.0093  0.5188  0.6496
  938MOL0     H26613  11.228   3.217  13.251  0.3789 -1.5029  1.3939
  938MOL0     H26614  11.469   3.243  12.981 -2.0216  1.8366  2.7388
  938MOL0     H26615  11.671   3.335  12.878 -1.0554 -0.9332 -1.5540
  938MOL0     H26616  11.580   3.437  11.562  0.2487  0.2296  0.1127
  938MOL0     H26617  11.596   3.262  11.401  0.1744 -0.5798  0.8281
  938MOL0     H26618  11.486   3.034  11.053 -2.7027 -1.4507  0.4995
  938MOL0     H26619  11.455   2.859  10.894  0.8561  0.6196  1.5338
  938MOL0     H26620  11.164   2.894  10.668  1.3746  1.1364  0.9483
  938MOL0     H26621  11.221   2.968  10.510 -0.1896  0.9511  1.6166
  938MOL0     H26622  11.257   2.665  10.569  3.5162  1.2547  0.3474
  938MOL0     H26623  11.282   2.755  10.424  3.7264  0.0463  1.6216
  938MOL0     H26624  11.022   2.822  10.420  0.4182  0.4330 -0.0668
  938MOL0     H26625  11.013   2.725  10.573 -1.7445  1.9357 -0.1903
  938MOL0     H26626  11.100   2.528  10.445 -4.2746 -3.1276  1.3213
  938MOL0     H26627  11.071   2.620  10.293  1.3875 -1.7696 -0.1493
  938MOL0     H26628  10.693   2.439  10.389  0.6045 -1.0570  0.2079
  938MOL0     H26629  11.324   3.154  10.603 -1.4285  2.8786  1.0448
  938MOL0     H26630  11.329   3.312  10.763 -3.1695 -1.4626 -0.0930
  939MOL0     O26631   6.503   8.939   0.289 -0.0204 -0.0157 -0.8037
  939MOL0     C26632   6.624   8.924   0.265 -0.0440 -0.4060  0.3111
  939MOL0     O26633   6.721   8.950   0.351 -0.8373  0.9271 -0.2277
  939MOL0     C26634   6.697   9.006   0.475 -0.0841  0.1826 -0.0605
  939MOL0     C26635   6.694   8.926   0.590  0.4604 -0.1081 -0.1831
  939MOL0     C26636   6.660   8.979   0.716  0.5217  0.3805 -0.8851
  939MOL0     C26637   6.616   9.113   0.727 -0.0348  0.6808  0.3206
  939MOL0     O26638   6.566   9.177   0.837 -0.8512 -0.3442 -0.0188
  939MOL0     C26639   6.544   9.103   0.955 -0.3080 -0.3095 -0.0409
  939MOL0     C26640   6.530   9.193   1.081 -0.0652 -0.1460 -0.2630
  939MOL0     C26641   6.396   9.264   1.103 -0.3352  0.2901  0.0408
  939MOL0     C26642   6.290   9.183   1.188 -0.7131  0.5313  0.2073
  939MOL0     C26643   6.333   9.157   1.327 -0.7193 -0.1683 -0.9978
  939MOL0     C26644   6.231   9.086   1.420  0.0091 -0.4213  0.5551
  939MOL0     C26645   6.081   9.111   1.393  1.2048  0.5354 -0.0957
  939MOL0     C26646   6.024   9.253   1.409 -0.3521 -0.3144 -0.3858
  939MOL0     N26647   6.004   9.300   1.549  0.4978 -0.0123 -0.2770
  939MOL0     C26648   5.882   9.335   1.596 -0.2005  0.3521  0.3468
  939MOL0     C26649   5.899   9.400   1.704  0.5046 -0.1403 -0.3488
  939MOL0     C26650   5.786   9.470   1.777  0.5340 -0.9606 -0.0132
  939MOL0     C26651   5.729   9.588   1.703  0.0310  0.0101  0.3387
  939MOL0     C26652   5.833   9.704   1.679  0.9811  0.4427  0.1457
  939MOL0     C26653   5.752   9.835   1.634 -0.5716 -0.0142  0.8492
  939MOL0     O26654   5.835   9.945   1.607  0.1720 -0.8266 -0.5100
  939MOL0     C26655   5.805  10.050   1.524  0.7857 -0.1856  0.1715
  939MOL0     C26656   5.904  10.124   1.464  0.3745 -0.5396  0.2928
  939MOL0     C26657   5.876  10.247   1.398  0.9737  0.2243 -0.5769
  939MOL0     C26658   5.987  10.335   1.339 -0.8599  0.3581  0.2384
  939MOL0     C26659   5.732  10.284   1.389  0.6054  0.4468  0.3976
  939MOL0     C26660   5.689  10.407   1.333  0.6441 -0.4540 -0.2050
  939MOL0     O26661   5.730  10.438   1.207 -0.3217 -0.0582  0.9595
  939MOL0     C26662   5.641  10.522   1.135  0.7721  0.1036  0.5808
  939MOL0     C26663   5.524  10.460   1.076 -0.0531 -0.8109 -0.4816
  939MOL0     C26664   5.415  10.525   1.022 -0.2114 -0.8211 -0.3477
  939MOL0     C26665   5.425  10.662   1.014  0.4239 -0.4699 -0.9016
  939MOL0     O26666   5.323  10.728   0.954  1.1687 -0.5426 -0.4818
  939MOL0     C26667   5.346  10.863   0.906  0.6983 -0.1978  0.2832
  939MOL0     C26668   5.219  10.920   0.833 -0.1700 -1.2380  0.6586
  939MOL0     C26669   5.211  10.878   0.686 -0.2999 -0.2832 -1.0993
  939MOL0     C26670   5.080  10.916   0.606  0.4445 -0.3104 -0.8864
  939MOL0     C26671   5.112  10.986   0.470 -0.8104 -0.4100 -0.7770
  939MOL0     C26672   5.144  10.886   0.365 -0.1977 -0.8234 -0.1068
  939MOL0     C26673   5.130  10.954   0.223 -0.6964  0.2718 -0.7495
  939MOL0     C26674   5.090  10.841   0.116  0.6577  0.0462 -0.5237
  939MOL0    Cl26675   5.083  10.939  -0.042 -0.4573 -0.4242 -0.8821
  939MOL0     C26676   5.549  10.729   1.053 -0.9860  0.2498  0.0329
  939MOL0     C26677   5.645  10.659   1.121  0.1100 -0.2045  0.7784
  939MOL0     O26678   5.598  10.460   1.391 -0.3172  0.4447 -0.6547
  939MOL0     C26679   5.635  10.203   1.452 -0.2550  0.3928  0.3990
  939MOL0     C26680   5.678  10.094   1.520  0.6858 -0.2260 -0.0847
  939MOL0     N26681   6.030   9.416   1.729 -0.2426 -0.0768 -0.0007
  939MOL0     N26682   6.099   9.358   1.635  0.0657  0.1095  0.6500
  939MOL0     C26683   6.606   9.185   0.605 -0.0723 -0.0351 -0.1516
  939MOL0     C26684   6.655   9.143   0.481 -0.3237  1.6773  0.2859
  939MOL0     C26685   6.652   8.882   0.131  0.6217  0.2339 -0.0997
  939MOL0     C26686   6.786   8.886   0.071  1.0544 -0.0520 -0.7649
  939MOL0     C26687   6.805   8.853  -0.063 -0.2142  0.1545 -0.8783
  939MOL0     C26688   6.699   8.799  -0.137  0.2191 -0.3260  0.8287
  939MOL0     O26689   6.696   8.785  -0.278 -0.3864 -0.2773 -0.0578
  939MOL0     C26690   6.818   8.738  -0.341 -0.7009  0.8640  0.0146
  939MOL0     C26691   6.782   8.677  -0.474  0.0318  1.0916 -0.3362
  939MOL0     C26692   6.743   8.787  -0.572  0.4152  0.5636  0.1516
  939MOL0     C26693   6.664   8.721  -0.682  0.3078  0.4622  0.3195
  939MOL0     C26694   6.537   8.790  -0.686  0.0579  1.1597 -0.5571
  939MOL0     C26695   6.428   8.842  -0.697 -0.4775 -0.2694 -0.9928
  939MOL0     C26696   6.571   8.794  -0.082 -0.4031  0.4029 -1.0208
  939MOL0     C26697   6.547   8.847   0.048  1.0185  0.1003 -0.1537
  939MOL0     H26698   6.712   8.820   0.573 -4.2293 -1.5479  2.0996
  939MOL0     H26699   6.661   8.918   0.806 -4.6998 -1.6526 -1.8350
  939MOL0     H26700   6.461   9.033   0.939 -0.3084 -0.4479  0.5411
  939MOL0     H26701   6.635   9.049   0.982 -1.7422 -3.8292 -1.6573
  939MOL0     H26702   6.546   9.131   1.170 -0.3630 -0.0277 -0.1269
  939MOL0     H26703   6.607   9.271   1.080 -1.5156  1.4293  2.0290
  939MOL0     H26704   6.424   9.354   1.159 -0.2177  1.2678 -1.5031
  939MOL0     H26705   6.353   9.294   1.007 -2.5225  0.4940  1.0151
  939MOL0     H26706   6.196   9.238   1.198 -1.6748 -1.3708  3.0060
  939MOL0     H26707   6.273   9.093   1.128  3.1046 -1.3398  1.5839
  939MOL0     H26708   6.435   9.118   1.329  0.8825  3.5671 -0.8387
  939MOL0     H26709   6.342   9.255   1.375 -1.5577 -1.0645  1.1123
  939MOL0     H26710   6.257   8.981   1.411 -1.3664 -0.7628  0.2294
  939MOL0     H26711   6.249   9.125   1.521 -0.3354 -2.1069  1.3092
  939MOL0     H26712   6.066   9.091   1.286  3.8605  3.8450 -1.2730
  939MOL0     H26713   6.017   9.034   1.437  0.4045  0.5570 -1.1684
  939MOL0     H26714   5.923   9.256   1.368 -0.5678  3.3605  0.0664
  939MOL0     H26715   6.085   9.328   1.358 -1.9181  1.1054 -0.2411
  939MOL0     H26716   5.784   9.328   1.550  0.1219 -1.6023 -0.1437
  939MOL0     H26717   5.703   9.403   1.801 -1.6685  1.2584 -0.9293
  939MOL0     H26718   5.836   9.514   1.864  1.1461  1.4301 -1.4832
  939MOL0     H26719   5.649   9.638   1.759  3.2393  6.1647  0.2500
  939MOL0     H26720   5.686   9.553   1.609  0.9786 -0.3975  0.0475
  939MOL0     H26721   5.906   9.673   1.603  0.8773  1.9049 -0.5732
  939MOL0     H26722   5.884   9.723   1.774 -1.9916  2.4489  1.4710
  939MOL0     H26723   5.678   9.866   1.708 -1.4511  5.3578 -1.7536
  939MOL0     H26724   5.690   9.810   1.547 -1.3805 -0.0042  1.4145
  939MOL0     H26725   6.009  10.102   1.479  1.0255  2.3196  0.5677
  939MOL0     H26726   6.043  10.396   1.411  0.4668  0.9192 -1.2092
  939MOL0     H26727   6.069  10.276   1.297 -1.0019  1.9128 -2.4109
  939MOL0     H26728   5.948  10.398   1.259  0.4385 -1.5550 -2.0645
  939MOL0     H26729   5.524  10.352   1.085  0.2231 -0.7909 -0.2226
  939MOL0     H26730   5.333  10.469   0.976 -0.2012 -0.4302 -0.8474
  939MOL0     H26731   5.360  10.920   0.998 -4.2831  1.7430  0.1469
  939MOL0     H26732   5.438  10.869   0.847  0.9430  3.7956  0.7345
  939MOL0     H26733   5.126  10.885   0.878 -1.6648  0.5934 -0.8469
  939MOL0     H26734   5.210  11.029   0.841 -2.1619 -1.3132 -0.0919
  939MOL0     H26735   5.202  10.769   0.699  0.1567 -0.2131 -0.0848
  939MOL0     H26736   5.301  10.906   0.630 -1.0672  1.5006 -1.5009
  939MOL0     H26737   5.019  10.826   0.602 -0.1858  0.0040  0.9537
  939MOL0     H26738   5.019  10.988   0.661  0.8538 -0.6773  0.0806
  939MOL0     H26739   5.209  11.037   0.478 -0.1723 -1.1359 -3.0871
  939MOL0     H26740   5.029  11.049   0.436 -2.6691 -1.1532  2.0450
  939MOL0     H26741   5.245  10.850   0.388 -0.5628 -1.3112  0.8111
  939MOL0     H26742   5.084  10.795   0.375  0.5941 -1.3468 -0.0047
  939MOL0     H26743   5.231  10.989   0.197 -0.2098  0.9772  1.7516
  939MOL0     H26744   5.055  11.034   0.218 -3.4950 -2.0331  1.2550
  939MOL0     H26745   4.992  10.799   0.141  0.9157  0.0170  0.4879
  939MOL0     H26746   5.175  10.773   0.107  0.1495 -0.8698  1.2533
  939MOL0     H26747   5.576  10.834   1.043  4.2756 -1.0620 -3.5672
  939MOL0     H26748   5.736  10.708   1.155 -0.2423  0.5678  0.6484
  939MOL0     H26749   5.531  10.234   1.441 -0.2431 -0.0005 -0.9823
  939MOL0     H26750   5.602  10.044   1.580  1.1281  0.0080  0.6686
  939MOL0     H26751   6.581   9.290   0.616 -0.5700 -0.1577 -0.1005
  939MOL0     H26752   6.647   9.208   0.395  0.3389  0.6156 -0.6078
  939MOL0     H26753   6.873   8.934   0.116  1.5528  2.3065 -3.8561
  939MOL0     H26754   6.910   8.863  -0.091  0.1582  0.7379  0.6180
  939MOL0     H26755   6.892   8.814  -0.368 -1.0210  1.6336  1.2274
  939MOL0     H26756   6.853   8.654  -0.279 -8.3714 -3.6832 -0.5685
  939MOL0     H26757   6.703   8.604  -0.456 -0.1824  1.2566 -0.6051
  939MOL0     H26758   6.872   8.625  -0.508  0.3526  1.8261 -0.6279
  939MOL0     H26759   6.825   8.834  -0.626 -1.2475  3.3287 -0.1647
  939MOL0     H26760   6.689   8.863  -0.514 -3.4825 -1.6353 -0.2078
  939MOL0     H26761   6.642   8.616  -0.661 -0.6700  0.3373 -1.1275
  939MOL0     H26762   6.709   8.724  -0.782 -1.2366  2.6889 -0.3894
  939MOL0     H26763   6.338   8.882  -0.738 -0.3825  1.3309  0.2573
  939MOL0     H26764   6.485   8.758  -0.139  0.3883 -0.6463 -1.5946
  939MOL0     H26765   6.443   8.858   0.077  1.4108  3.2719  0.4672
  940MOL0     O26766   2.861   0.662  11.039 -0.3192 -0.0646 -1.1670
  940MOL0     C26767   2.808   0.618  11.142  0.3250 -0.3803 -0.0514
  940MOL0     O26768   2.866   0.587  11.266  0.0642  0.2733  0.0987
  940MOL0     C26769   3.000   0.585  11.276  0.1833 -0.5352 -1.0175
  940MOL0     C26770   3.086   0.686  11.235 -0.7518 -0.3179  0.5185
  940MOL0     C26771   3.226   0.669  11.250  0.9619 -0.8284 -0.1752
  940MOL0     C26772   3.278   0.547  11.312 -0.2189  0.3351 -0.0374
  940MOL0     O26773   3.407   0.509  11.323 -0.2971 -0.5960 -0.4503
  940MOL0     C26774   3.516   0.615  11.310  0.6188 -0.5452  0.0622
  940MOL0     C26775   3.643   0.569  11.245  0.4872  0.8366 -0.9502
  940MOL0     C26776   3.747   0.675  11.223  0.2341  0.6177 -0.0130
  940MOL0     C26777   3.865   0.625  11.135  0.0117 -1.7493  0.2694
  940MOL0     C26778   3.968   0.739  11.134  0.1202  0.5042  0.9400
  940MOL0     C26779   4.098   0.702  11.050 -0.3847 -0.0647 -0.3576
  940MOL0     C26780   4.065   0.657  10.909 -0.8546 -0.2257 -0.1209
  940MOL0     C26781   4.186   0.654  10.823 -0.1022 -0.5501  0.4277
  940MOL0     N26782   4.169   0.594  10.684  0.3954  0.3896  0.0777
  940MOL0     C26783   4.195   0.460  10.653  0.3057 -0.1289 -0.6837
  940MOL0     C26784   4.166   0.444  10.528 -0.4423  0.2373 -0.2109
  940MOL0     C26785   4.165   0.317  10.456 -0.1152  0.2934 -0.8577
  940MOL0     C26786   4.115   0.201  10.540  0.0719 -0.2152  0.1546
  940MOL0     C26787   4.102   0.076  10.449  0.4136  0.0444 -0.0463
  940MOL0     C26788   4.046  -0.047  10.526  0.1282 -0.2081 -0.5473
  940MOL0     O26789   4.014  -0.165  10.445 -0.0957 -0.4532  0.4356
  940MOL0     C26790   3.975  -0.286  10.509 -0.4125  0.1248  0.3260
  940MOL0     C26791   3.932  -0.293  10.638  0.2845 -0.3529 -0.8328
  940MOL0     C26792   3.911  -0.407  10.715  0.4376  0.2062 -0.1743
  940MOL0     C26793   3.876  -0.398  10.864  0.5838 -0.1212  0.5346
  940MOL0     C26794   3.910  -0.534  10.647  0.4965  0.1981  0.2282
  940MOL0     C26795   3.901  -0.671  10.704  0.1512 -1.2478 -0.1508
  940MOL0     O26796   3.953  -0.775  10.627 -0.5008  0.6925 -0.5009
  940MOL0     C26797   3.925  -0.907  10.663 -1.2148 -0.2516 -0.7719
  940MOL0     C26798   3.804  -0.938  10.724 -0.2891 -1.2828  0.2967
  940MOL0     C26799   3.768  -1.070  10.745 -0.2978  0.8678 -0.4152
  940MOL0     C26800   3.852  -1.179  10.707  0.1863  0.8040  0.4949
  940MOL0     O26801   3.831  -1.308  10.733 -0.8002 -0.6607 -0.3334
  940MOL0     C26802   3.696  -1.350  10.751  0.8755  0.6945 -0.3540
  940MOL0     C26803   3.671  -1.491  10.773  0.0800  0.1233  0.1805
  940MOL0     C26804   3.753  -1.554  10.888 -0.6787 -1.1899 -0.0073
  940MOL0     C26805   3.741  -1.705  10.902  0.1326  0.2542  0.4533
  940MOL0     C26806   3.795  -1.794  10.783  0.1437 -0.4385  0.1295
  940MOL0     C26807   3.938  -1.769  10.743  1.0740  0.0772 -0.5260
  940MOL0     C26808   3.994  -1.850  10.632 -0.0121 -0.2435 -0.3191
  940MOL0     C26809   4.131  -1.797  10.600 -0.7702 -0.0125  0.3246
  940MOL0    Cl26810   4.248  -1.788  10.742 -0.2827  0.2367  0.4194
  940MOL0     C26811   3.976  -1.153  10.643  0.5150 -0.2361  0.0536
  940MOL0     C26812   4.011  -1.021  10.628  0.4978  0.8779  0.0511
  940MOL0     O26813   3.867  -0.680  10.814 -0.2128 -0.8387 -0.9879
  940MOL0     C26814   3.937  -0.533  10.516 -1.0152  0.1378  0.6280
  940MOL0     C26815   3.971  -0.414  10.448  0.6243 -1.3229  0.1355
  940MOL0     N26816   4.135   0.566  10.475  0.2995  0.3340 -0.4031
  940MOL0     N26817   4.138   0.655  10.573  0.5550  0.8785 -0.0606
  940MOL0     C26818   3.184   0.455  11.343  0.0301  0.7000 -0.6851
  940MOL0     C26819   3.046   0.471  11.337 -0.3782  0.9100 -0.4315
  940MOL0     C26820   2.666   0.573  11.132 -0.3776 -1.1533  0.1208
  940MOL0     C26821   2.592   0.604  11.008 -0.1809 -0.3780 -0.1007
  940MOL0     C26822   2.462   0.556  10.991 -0.0958  0.4872 -0.5176
  940MOL0     C26823   2.407   0.476  11.099  0.2932  0.4066 -0.3644
  940MOL0     O26824   2.283   0.416  11.096 -0.3956  0.0306 -0.1895
  940MOL0     C26825   2.194   0.411  10.984 -0.1691 -0.0462 -0.3884
  940MOL0     C26826   2.216   0.283  10.899  0.6620  0.1069 -0.6004
  940MOL0     C26827   2.164   0.151  10.973  0.1156 -1.1767  0.7816
  940MOL0     C26828   2.273   0.115  11.074 -0.2067  0.7449 -0.6718
  940MOL0     C26829   2.375   0.030  11.015 -0.0391 -0.3526 -0.6770
  940MOL0     C26830   2.446  -0.053  10.969  0.1663 -0.4855  0.5876
  940MOL0     C26831   2.474   0.458  11.221  0.1938  0.0113 -0.3309
  940MOL0     C26832   2.605   0.502  11.237 -0.2442 -0.4165 -0.9015
  940MOL0     H26833   3.040   0.776  11.195 -0.3711 -0.4201 -0.1639
  940MOL0     H26834   3.286   0.753  11.216 -1.8193  0.6244 -1.7801
  940MOL0     H26835   3.483   0.698  11.247  2.1660  3.0364  3.5331
  940MOL0     H26836   3.545   0.650  11.409  2.1959 -0.2154 -0.4797
  940MOL0     H26837   3.693   0.508  11.321  0.4139  1.4437 -0.3990
  940MOL0     H26838   3.632   0.511  11.153  0.6030  1.5630 -1.4298
  940MOL0     H26839   3.696   0.761  11.180 -1.1719  1.3904  2.9905
  940MOL0     H26840   3.783   0.684  11.326  0.9664 -1.6917 -0.0000
  940MOL0     H26841   3.914   0.535  11.174  2.3398 -1.6463 -2.1096
  940MOL0     H26842   3.828   0.604  11.034 -0.6141  1.6382 -0.3296
  940MOL0     H26843   3.922   0.826  11.085 -0.7446 -0.1559  0.5458
  940MOL0     H26844   4.000   0.752  11.237  0.7767 -3.1527  1.3444
  940MOL0     H26845   4.159   0.793  11.048 -0.0890 -0.2735 -1.1095
  940MOL0     H26846   4.154   0.641  11.121  0.3783 -2.3177 -2.7519
  940MOL0     H26847   4.026   0.555  10.908  0.4645 -0.7601 -0.3014
  940MOL0     H26848   4.000   0.730  10.862  0.7499  1.4496  0.1348
  940MOL0     H26849   4.267   0.606  10.879  0.1009 -2.0508 -1.0678
  940MOL0     H26850   4.216   0.757  10.801  0.3239 -0.9855 -1.1591
  940MOL0     H26851   4.222   0.385  10.727 -1.2687  1.9684  2.1903
  940MOL0     H26852   4.100   0.326  10.368 -1.5857 -1.1944  0.0175
  940MOL0     H26853   4.266   0.293  10.422  0.2403  0.8246 -0.2068
  940MOL0     H26854   4.025   0.209  10.602  1.9828 -4.3519  4.0946
  940MOL0     H26855   4.193   0.173  10.612 -0.1687 -1.7378 -0.1324
  940MOL0     H26856   4.200   0.043  10.412  0.3866 -2.6556  2.0335
  940MOL0     H26857   4.041   0.094  10.360  0.2551  1.1359  0.2754
  940MOL0     H26858   3.949  -0.013  10.564  0.8267  0.3514  0.7607
  940MOL0     H26859   4.107  -0.070  10.613  0.4034 -3.1992 -1.4050
  940MOL0     H26860   3.920  -0.199  10.691 -0.7988  0.7535 -2.9112
  940MOL0     H26861   3.767  -0.397  10.876  0.5006 -0.9988 -0.0426
  940MOL0     H26862   3.923  -0.470  10.932  3.2160  1.6537  0.7729
  940MOL0     H26863   3.912  -0.302  10.902 -0.0246  0.1636  0.4082
  940MOL0     H26864   3.728  -0.865  10.751  0.0204  1.0802 -4.2576
  940MOL0     H26865   3.674  -1.103  10.788  0.8561 -1.7201  0.3047
  940MOL0     H26866   3.661  -1.304  10.844  1.1538 -3.6043  2.1074
  940MOL0     H26867   3.639  -1.317  10.664  0.4210  3.1747  0.7791
  940MOL0     H26868   3.562  -1.492  10.782  0.0359 -1.4516 -0.1243
  940MOL0     H26869   3.706  -1.534  10.678 -1.5246 -0.1758 -0.3015
  940MOL0     H26870   3.720  -1.509  10.982  2.0944  0.2165  0.4040
  940MOL0     H26871   3.856  -1.520  10.898 -1.5764  1.8439 -0.2162
  940MOL0     H26872   3.812  -1.718  10.985  1.1241 -0.8306 -0.5324
  940MOL0     H26873   3.643  -1.741  10.936  0.2423 -0.3556  0.1437
  940MOL0     H26874   3.730  -1.784  10.696 -2.3948 -0.6122  1.8831
  940MOL0     H26875   3.793  -1.898  10.818  2.0676 -0.5045  0.1558
  940MOL0     H26876   3.948  -1.662  10.718 -1.8113  0.4136 -0.6217
  940MOL0     H26877   3.995  -1.784  10.835  1.4172  0.1856 -0.7214
  940MOL0     H26878   3.924  -1.852  10.548 -1.1807  1.6277  0.5379
  940MOL0     H26879   4.003  -1.953  10.667  0.6146  0.5691  2.0726
  940MOL0     H26880   4.127  -1.690  10.579 -0.6004 -0.0451  0.1258
  940MOL0     H26881   4.177  -1.851  10.517 -1.3798 -2.0925  1.2693
  940MOL0     H26882   4.051  -1.224  10.610  2.3787  1.2030  1.0007
  940MOL0     H26883   4.105  -1.018  10.575 -1.0447  2.3411 -2.8307
  940MOL0     H26884   3.938  -0.623  10.455 -2.0124 -0.9345  2.1174
  940MOL0     H26885   4.002  -0.430  10.345  0.0153 -4.3984  0.3240
  940MOL0     H26886   3.219   0.360  11.384 -0.4920  0.7807 -0.0344
  940MOL0     H26887   2.985   0.387  11.367 -1.1992  0.8864 -2.0514
  940MOL0     H26888   2.639   0.661  10.928 -1.3133 -0.1985 -0.6529
  940MOL0     H26889   2.411   0.577  10.897 -1.1640 -0.6282 -0.2169
  940MOL0     H26890   2.094   0.409  11.029 -1.0384  0.6451 -2.1935
  940MOL0     H26891   2.195   0.510  10.936 -1.7500 -0.2672 -0.9336
  940MOL0     H26892   2.322   0.278  10.872  0.3849  0.8279 -1.9330
  940MOL0     H26893   2.146   0.299  10.817  0.1100  1.1862  0.0565
  940MOL0     H26894   2.137   0.074  10.900  0.5448 -1.1411  0.5786
  940MOL0     H26895   2.067   0.182  11.014 -0.5495  0.1799 -1.5909
  940MOL0     H26896   2.242   0.067  11.167  1.1343  0.2697 -0.4488
  940MOL0     H26897   2.325   0.206  11.104  0.1936 -0.1804  1.6389
  940MOL0     H26898   2.502  -0.133  10.926  0.9532 -0.1026  0.8979
  940MOL0     H26899   2.428   0.392  11.293 -0.7164  2.0589  1.0532
  940MOL0     H26900   2.661   0.462  11.321 -1.8761 -0.1757  0.3570
  941MOL0     O26901   4.500   0.474  10.167  0.6176  0.2789  0.1075
  941MOL0     C26902   4.434   0.367  10.169 -0.4631  0.1731 -0.6424
  941MOL0     O26903   4.306   0.361  10.133 -0.1790 -0.2978  0.6710
  941MOL0     C26904   4.255   0.464  10.070 -1.2138  0.1821  0.0464
  941MOL0     C26905   4.159   0.542  10.128  0.2124 -0.4873  0.1402
  941MOL0     C26906   4.100   0.642  10.054 -0.5998  0.6724 -0.1713
  941MOL0     C26907   4.123   0.657   9.920  0.5374 -0.0003  0.6629
  941MOL0     O26908   4.057   0.746   9.845 -0.1764 -0.1589  1.0433
  941MOL0     C26909   4.078   0.887   9.886 -0.4402 -0.6749  0.4388
  941MOL0     C26910   3.998   0.958   9.783  0.2479 -0.9782 -0.6908
  941MOL0     C26911   3.984   1.114   9.815 -0.0495 -0.1902 -0.4187
  941MOL0     C26912   3.850   1.189   9.807  0.6014  0.1952 -0.0126
  941MOL0     C26913   3.868   1.337   9.805  0.6948  0.4122 -0.2551
  941MOL0     C26914   3.743   1.403   9.760  0.3443 -1.4227 -0.0071
  941MOL0     C26915   3.629   1.396   9.863  0.7302  0.3486 -0.6448
  941MOL0     C26916   3.488   1.446   9.811 -0.7679 -0.2661 -0.8137
  941MOL0     N26917   3.444   1.359   9.709 -0.2617  0.7437  0.2726
  941MOL0     C26918   3.387   1.239   9.725  0.4524 -0.5492  1.3673
  941MOL0     C26919   3.367   1.195   9.597  0.0242 -0.2875  0.7120
  941MOL0     C26920   3.306   1.065   9.556  0.5473  0.3930 -0.0467
  941MOL0     C26921   3.208   1.095   9.438 -0.8003 -0.4701 -0.4676
  941MOL0     C26922   3.078   1.149   9.492  0.1210  0.7299 -0.6557
  941MOL0     C26923   2.977   1.158   9.386  0.3757 -0.5723  0.3585
  941MOL0     O26924   2.869   1.241   9.433 -0.5438  0.4727  0.1883
  941MOL0     C26925   2.747   1.238   9.367 -0.5112  0.0737 -1.1697
  941MOL0     C26926   2.708   1.165   9.249  0.8354 -0.0941  0.2920
  941MOL0     C26927   2.584   1.172   9.188 -1.2207  0.0229 -0.0210
  941MOL0     C26928   2.569   1.093   9.055 -0.0309 -0.5787 -0.2618
  941MOL0     C26929   2.499   1.256   9.242  0.3026 -0.1847  0.3400
  941MOL0     C26930   2.376   1.282   9.161  0.1933  0.0420  0.4334
  941MOL0     O26931   2.301   1.169   9.137 -0.6605 -0.0341 -0.5544
  941MOL0     C26932   2.198   1.169   9.043  0.8420  1.5098  0.4037
  941MOL0     C26933   2.221   1.100   8.927  0.1764  0.0712  0.5905
  941MOL0     C26934   2.135   1.087   8.828  0.3341 -1.2672  1.2279
  941MOL0     C26935   2.006   1.132   8.845  0.0996 -0.6514 -0.4769
  941MOL0     O26936   1.914   1.128   8.738 -0.2835 -0.7061 -0.5011
  941MOL0     C26937   1.796   1.217   8.736 -0.9640  0.0462 -1.3013
  941MOL0     C26938   1.732   1.188   8.603 -0.8184 -0.6269 -0.3181
  941MOL0     C26939   1.630   1.296   8.558 -0.1119 -0.0927  0.0424
  941MOL0     C26940   1.551   1.250   8.449  0.3565  0.1401  0.6229
  941MOL0     C26941   1.489   1.360   8.358 -0.1617 -0.2229  0.2235
  941MOL0     C26942   1.402   1.457   8.429  0.9895 -0.7346  0.0315
  941MOL0     C26943   1.331   1.535   8.311  0.2968  0.0400 -0.4394
  941MOL0     C26944   1.215   1.619   8.367 -0.0867  0.2274  1.0666
  941MOL0    Cl26945   1.138   1.683   8.219 -0.1892 -0.2358  0.0998
  941MOL0     C26946   1.971   1.200   8.964 -0.7186  1.1800  0.0073
  941MOL0     C26947   2.066   1.201   9.070 -0.3894  0.4826 -0.1346
  941MOL0     O26948   2.343   1.401   9.128 -1.1228  0.1259 -1.0591
  941MOL0     C26949   2.519   1.321   9.367 -0.4307 -0.3016  0.6422
  941MOL0     C26950   2.652   1.317   9.422  0.0978 -0.9587 -0.2772
  941MOL0     N26951   3.410   1.292   9.511 -1.5465  0.8468 -0.3112
  941MOL0     N26952   3.431   1.391   9.583  0.6499 -1.3921  1.1345
  941MOL0     C26953   4.220   0.571   9.856  0.4344 -0.2185 -0.4499
  941MOL0     C26954   4.288   0.479   9.942  0.3413  0.8144 -0.8218
  941MOL0     C26955   4.483   0.236  10.224 -0.1442 -0.4737  0.7430
  941MOL0     C26956   4.401   0.124  10.232  0.5074 -0.4847 -0.2794
  941MOL0     C26957   4.450   0.004  10.277 -0.1572 -0.2593 -0.9714
  941MOL0     C26958   4.578  -0.009  10.331  0.4618  1.3305  0.0133
  941MOL0     O26959   4.626  -0.123  10.390  0.4247 -0.4606  0.7204
  941MOL0     C26960   4.599  -0.246  10.318 -0.0167  0.2448  0.0964
  941MOL0     C26961   4.633  -0.251  10.170 -0.4655  1.4242  0.9245
  941MOL0     C26962   4.759  -0.342  10.161 -0.2724  0.3548 -0.6733
  941MOL0     C26963   4.812  -0.342  10.014 -0.2152  0.2354  0.0613
  941MOL0     C26964   4.719  -0.411   9.922  0.8265  0.9819 -0.0605
  941MOL0     C26965   4.632  -0.460   9.855  0.8003  0.2897  0.3565
  941MOL0     C26966   4.666   0.095  10.323  0.8587 -0.4704 -0.2397
  941MOL0     C26967   4.615   0.215  10.263  1.4964 -0.2344 -0.7938
  941MOL0     H26968   4.110   0.516  10.221  0.8393  2.3207  1.3407
  941MOL0     H26969   4.014   0.691  10.097 -0.5286  0.3660  0.3318
  941MOL0     H26970   4.045   0.904   9.989 -3.9423 -0.2639 -0.6126
  941MOL0     H26971   4.182   0.921   9.890 -0.7704  0.8702 -2.0306
  941MOL0     H26972   4.056   0.943   9.692  1.0840 -3.4243  0.1607
  941MOL0     H26973   3.898   0.914   9.775  1.3712 -3.4362 -2.4406
  941MOL0     H26974   4.034   1.152   9.904 -2.4522  2.0424  0.0877
  941MOL0     H26975   4.045   1.153   9.732  1.8003  0.7624  1.2942
  941MOL0     H26976   3.812   1.149   9.712  1.9865 -2.8074  0.5905
  941MOL0     H26977   3.777   1.169   9.886  2.9775 -1.0648  2.0160
  941MOL0     H26978   3.890   1.367   9.908  1.1789 -0.1693 -0.1809
  941MOL0     H26979   3.949   1.361   9.736  0.6003 -4.3260 -2.4171
  941MOL0     H26980   3.769   1.507   9.736  1.8529 -1.3045  1.9264
  941MOL0     H26981   3.707   1.377   9.660 -1.9467  2.7842 -0.4963
  941MOL0     H26982   3.609   1.291   9.886 -1.8388  0.5647 -1.5230
  941MOL0     H26983   3.656   1.458   9.949  1.0660  0.3856 -0.7747
  941MOL0     H26984   3.491   1.548   9.772  1.9337  0.4302  0.9513
  941MOL0     H26985   3.407   1.446   9.885 -1.8333  0.5308 -1.9334
  941MOL0     H26986   3.367   1.203   9.825 -0.3078  4.2730  3.2402
  941MOL0     H26987   3.388   1.005   9.515 -0.9131  0.0643 -2.7555
  941MOL0     H26988   3.260   1.004   9.634 -0.4551  2.1021  0.7485
  941MOL0     H26989   3.188   0.995   9.399 -1.0382 -0.5433 -0.1640
  941MOL0     H26990   3.258   1.159   9.365  2.3198 -0.6503  1.3333
  941MOL0     H26991   3.093   1.241   9.549 -0.7732 -0.9192  2.4980
  941MOL0     H26992   3.033   1.088   9.571  0.0762  1.5188 -0.0612
  941MOL0     H26993   2.940   1.066   9.340  1.9835  0.1150 -2.5690
  941MOL0     H26994   3.023   1.215   9.305 -1.5536  1.8026  0.7806
  941MOL0     H26995   2.783   1.097   9.208 -0.5332 -2.4762  1.5199
  941MOL0     H26996   2.517   1.000   9.078 -0.9571 -0.4891 -1.8305
  941MOL0     H26997   2.516   1.151   8.979  1.2322 -0.0927 -0.8112
  941MOL0     H26998   2.666   1.077   9.007 -0.0786  2.3950 -1.5932
  941MOL0     H26999   2.321   1.065   8.904  0.2961 -0.5456  1.9828
  941MOL0     H27000   2.169   1.055   8.730 -0.5522 -1.8663  1.1024
  941MOL0     H27001   1.726   1.186   8.814 -1.8499 -0.0965 -2.1377
  941MOL0     H27002   1.835   1.319   8.743  2.5314 -0.9289 -3.8031
  941MOL0     H27003   1.820   1.198   8.539 -0.4444  0.9733  0.4058
  941MOL0     H27004   1.696   1.085   8.591  1.2952 -2.0240  3.5973
  941MOL0     H27005   1.678   1.391   8.531 -0.1832  0.2580  1.1082
  941MOL0     H27006   1.572   1.332   8.643  3.8130 -0.0659  3.0032
  941MOL0     H27007   1.604   1.173   8.392  1.4873 -0.4992  2.4391
  941MOL0     H27008   1.475   1.190   8.501  0.0494  2.2228  2.7536
  941MOL0     H27009   1.440   1.292   8.287 -0.8876 -0.0891  0.5899
  941MOL0     H27010   1.569   1.408   8.301 -1.2355 -2.4647 -3.5536
  941MOL0     H27011   1.329   1.405   8.493 -0.3220 -0.2337 -1.0073
  941MOL0     H27012   1.464   1.521   8.493 -0.9553 -2.2326  3.7580
  941MOL0     H27013   1.280   1.465   8.244  2.2382 -0.0760 -1.8673
  941MOL0     H27014   1.399   1.599   8.255  0.9164 -1.1405 -1.0791
  941MOL0     H27015   1.264   1.687   8.437  0.3283  2.2863 -1.0679
  941MOL0     H27016   1.146   1.556   8.422 -1.1211  0.3202 -0.0699
  941MOL0     H27017   1.879   1.253   8.981 -0.8663  0.1323  2.8800
  941MOL0     H27018   2.045   1.250   9.165 -0.7743 -0.6885  0.3948
  941MOL0     H27019   2.441   1.387   9.404 -0.6882 -0.2117 -0.0456
  941MOL0     H27020   2.668   1.355   9.522 -0.4423 -0.7085 -0.2822
  941MOL0     H27021   4.252   0.592   9.755  1.7448  2.5195  0.4387
  941MOL0     H27022   4.371   0.424   9.899  1.7409  1.9401  0.3183
  941MOL0     H27023   4.301   0.137  10.193  0.6211  3.5089  0.3467
  941MOL0     H27024   4.371  -0.070  10.282 -0.5369  0.2255  0.8722
  941MOL0     H27025   4.664  -0.313  10.374  0.8948  0.0155 -1.2063
  941MOL0     H27026   4.491  -0.258  10.329 -0.4496  1.6125 -1.9284
  941MOL0     H27027   4.627  -0.154  10.120 -1.8177  1.2056  0.6298
  941MOL0     H27028   4.552  -0.305  10.120  0.8098  1.4351 -1.2681
  941MOL0     H27029   4.730  -0.441  10.196 -1.4523  0.8391 -0.2149
  941MOL0     H27030   4.834  -0.297  10.227 -1.9287 -1.6989  2.9600
  941MOL0     H27031   4.911  -0.387  10.012 -0.3770 -0.2456  1.6452
  941MOL0     H27032   4.844  -0.243   9.983  3.9099 -0.7317  0.7028
  941MOL0     H27033   4.565  -0.499   9.781  0.4436  0.6124  0.5047
  941MOL0     H27034   4.772   0.100  10.348  0.9889  0.3803 -0.8897
  941MOL0     H27035   4.680   0.302  10.259 -0.7810  1.5789 -0.5270
  942MOL0     O27036  11.333   1.228  10.007 -0.2569 -0.2394 -0.1787
  942MOL0     C27037  11.374   1.309  10.091 -0.4308 -0.4742 -0.1886
  942MOL0     O27038  11.442   1.280  10.215 -0.0121 -0.0987  0.6387
  942MOL0     C27039  11.464   1.147  10.240 -0.2282  0.2373  0.6826
  942MOL0     C27040  11.593   1.112  10.264 -0.3914  0.0688  0.6980
  942MOL0     C27041  11.641   0.984  10.259  0.2051  0.0471 -0.3878
  942MOL0     C27042  11.543   0.887  10.246  0.3278 -0.0402  0.8671
  942MOL0     O27043  11.574   0.757  10.250 -0.2734 -0.4628  0.0725
  942MOL0     C27044  11.647   0.722  10.374 -0.2306 -0.2419  0.2072
  942MOL0     C27045  11.669   0.570  10.379 -0.2913  0.0154 -0.7937
  942MOL0     C27046  11.545   0.488  10.376  0.6827  0.7139  0.5749
  942MOL0     C27047  11.442   0.517  10.490  1.0735 -0.2041 -0.7860
  942MOL0     C27048  11.314   0.445  10.482  0.4924  0.0835 -0.0915
  942MOL0     C27049  11.225   0.507  10.363  1.0654 -0.0158 -0.1694
  942MOL0     C27050  11.086   0.429  10.347  0.6364 -1.2385 -0.0637
  942MOL0     C27051  11.015   0.477  10.213  0.3110 -0.2004 -0.0709
  942MOL0     N27052  10.971   0.616  10.242  0.7244 -0.0989 -0.4219
  942MOL0     C27053  10.998   0.736  10.173 -0.7422  0.1121  0.0125
  942MOL0     C27054  10.946   0.832  10.248 -0.2993 -0.2104 -1.0269
  942MOL0     C27055  10.949   0.976  10.220  0.7276  0.5031 -0.2052
  942MOL0     C27056  10.846   1.031  10.122  0.5317 -0.3620  0.5215
  942MOL0     C27057  10.907   1.076   9.984 -0.3243 -0.7475  0.8951
  942MOL0     C27058  10.800   1.107   9.870  0.1044 -0.3995 -0.1192
  942MOL0     O27059  10.863   1.203   9.789 -0.0985 -0.1124 -0.0382
  942MOL0     C27060  10.799   1.238   9.669  0.6735  0.2101  0.2194
  942MOL0     C27061  10.882   1.309   9.577  0.1668  0.4056 -0.5284
  942MOL0     C27062  10.844   1.337   9.443 -0.1702  0.5567 -0.5722
  942MOL0     C27063  10.927   1.416   9.348 -0.2300  0.5444  0.2506
  942MOL0     C27064  10.709   1.280   9.400  0.8850 -0.1639  1.2174
  942MOL0     C27065  10.656   1.290   9.261 -1.0546 -0.8776 -0.4915
  942MOL0     O27066  10.527   1.282   9.250  0.3318  0.7870  0.2095
  942MOL0     C27067  10.470   1.284   9.125  0.0647 -0.9282 -1.5718
  942MOL0     C27068  10.504   1.369   9.022  0.2699 -0.2625 -0.1533
  942MOL0     C27069  10.442   1.367   8.896  0.6179  0.3546  0.5574
  942MOL0     C27070  10.323   1.302   8.877  0.3594 -0.2147  0.1193
  942MOL0     O27071  10.280   1.322   8.751 -0.0870  0.2515  0.7040
  942MOL0     C27072  10.226   1.203   8.687 -0.0814  0.3622  0.2635
  942MOL0     C27073  10.088   1.231   8.619 -0.1493 -0.0034  0.3459
  942MOL0     C27074  10.032   1.141   8.519  0.8486  0.2848 -0.2195
  942MOL0     C27075   9.908   1.190   8.436 -0.1617 -0.4013 -0.5715
  942MOL0     C27076   9.840   1.090   8.334 -0.2462  0.0560  0.0561
  942MOL0     C27077   9.944   1.015   8.251  0.1313  0.6813  0.2106
  942MOL0     C27078   9.870   0.942   8.142  0.4565  0.2836  0.5836
  942MOL0     C27079   9.960   0.920   8.015 -0.1092  0.4872 -0.3362
  942MOL0    Cl27080  10.099   0.808   8.051  0.1236  0.4910  0.6338
  942MOL0     C27081  10.267   1.221   8.977 -1.2641 -0.7190 -1.1221
  942MOL0     C27082  10.338   1.211   9.104 -0.1400 -0.8123 -1.1145
  942MOL0     O27083  10.738   1.304   9.171  0.6234 -0.2201 -0.0608
  942MOL0     C27084  10.627   1.230   9.499 -0.6442  0.8309  0.5658
  942MOL0     C27085  10.664   1.203   9.626  0.1070 -0.2474  0.2763
  942MOL0     N27086  10.874   0.770  10.355  0.6074  0.2669  0.0153
  942MOL0     N27087  10.892   0.644  10.351  0.1544  0.0582  0.3931
  942MOL0     C27088  11.408   0.919  10.230 -0.5911  0.6139 -0.5769
  942MOL0     C27089  11.367   1.049  10.231  0.7904  0.0624  0.5413
  942MOL0     C27090  11.329   1.454  10.074  0.4898  0.3566  0.3925
  942MOL0     C27091  11.331   1.549  10.175 -1.1971  0.9098 -0.0636
  942MOL0     C27092  11.288   1.678  10.147  0.0836 -0.1112  0.2562
  942MOL0     C27093  11.242   1.724  10.029  0.0190  0.0411  0.5851
  942MOL0     O27094  11.185   1.850  10.021 -0.1766 -0.5384 -0.0813
  942MOL0     C27095  11.283   1.955  10.005 -0.6868  0.1888 -0.4352
  942MOL0     C27096  11.203   2.077   9.983  0.1307 -0.4899  0.0374
  942MOL0     C27097  11.119   2.109  10.109 -0.8024 -0.4656 -0.0745
  942MOL0     C27098  11.034   2.235  10.075 -0.0597 -0.2912  0.2462
  942MOL0     C27099  10.957   2.240   9.951  0.2355 -0.5228 -0.3068
  942MOL0     C27100  10.889   2.267   9.858  0.4377 -0.7982 -0.2261
  942MOL0     C27101  11.218   1.618   9.932  0.3117  0.6182 -0.0130
  942MOL0     C27102  11.263   1.485   9.953 -0.1704 -0.0795  0.4651
  942MOL0     H27103  11.667   1.187  10.290  0.5775 -1.1270  1.4820
  942MOL0     H27104  11.739   0.939  10.253 -0.2108 -0.8135 -0.8735
  942MOL0     H27105  11.744   0.771  10.364 -1.9731  3.0294 -4.0102
  942MOL0     H27106  11.589   0.757  10.460  1.5044  2.1678  0.4862
  942MOL0     H27107  11.737   0.546  10.297  1.0256  3.0675 -0.7200
  942MOL0     H27108  11.719   0.547  10.473  0.1073  1.6315 -0.5749
  942MOL0     H27109  11.492   0.519  10.286 -3.0943  2.6018  3.1913
  942MOL0     H27110  11.571   0.382  10.373 -0.8111  0.3485 -1.2049
  942MOL0     H27111  11.494   0.491  10.583 -3.1670  1.4580  2.3878
  942MOL0     H27112  11.422   0.625  10.487  0.0263 -0.3112  1.0544
  942MOL0     H27113  11.330   0.337  10.481 -0.6118 -0.0955  0.3987
  942MOL0     H27114  11.269   0.456  10.581  0.3481 -0.7365 -0.0580
  942MOL0     H27115  11.217   0.614  10.381  0.7671 -0.1772  0.7175
  942MOL0     H27116  11.271   0.498  10.264 -0.5706 -1.2195 -0.8635
  942MOL0     H27117  11.095   0.320  10.334 -4.6491 -2.0419  0.8015
  942MOL0     H27118  11.021   0.449  10.432  1.4305 -0.7500  0.4311
  942MOL0     H27119  10.926   0.420  10.183  1.1510  0.5938 -4.8024
  942MOL0     H27120  11.089   0.470  10.133  2.0113  2.0010  1.2071
  942MOL0     H27121  11.068   0.772  10.098 -0.6151  4.6675  2.0357
  942MOL0     H27122  10.943   1.018  10.321  2.6203  1.5075 -0.4688
  942MOL0     H27123  11.051   1.008  10.201  0.6775  2.8176  2.7553
  942MOL0     H27124  10.791   1.111  10.172  0.2814 -0.4102  0.3286
  942MOL0     H27125  10.776   0.949  10.100  0.7788 -0.6218  0.6955
  942MOL0     H27126  10.984   1.006   9.950  2.2263  1.6297  1.4901
  942MOL0     H27127  10.954   1.170  10.011 -0.2646 -0.2492 -0.8360
  942MOL0     H27128  10.707   1.141   9.917 -0.4364 -2.3188  0.2891
  942MOL0     H27129  10.772   1.011   9.826 -0.3344 -0.9125  1.1997
  942MOL0     H27130  10.986   1.332   9.598 -0.7439  1.9887  2.8831
  942MOL0     H27131  10.868   1.493   9.298  1.3714  2.6880  1.4893
  942MOL0     H27132  11.006   1.484   9.382 -1.6245  3.0775 -1.2532
  942MOL0     H27133  10.966   1.339   9.280 -3.0032 -0.8899  0.1374
  942MOL0     H27134  10.592   1.432   9.027  0.2781 -0.1776 -1.2044
  942MOL0     H27135  10.477   1.427   8.812 -2.5189 -0.9408 -1.8904
  942MOL0     H27136  10.296   1.176   8.608  0.2342  0.3175  0.5578
  942MOL0     H27137  10.223   1.114   8.751  0.5422 -1.1420 -1.6868
  942MOL0     H27138  10.010   1.247   8.694 -1.4998  1.8277 -1.3333
  942MOL0     H27139  10.103   1.325   8.565  0.5879 -0.0166  0.5105
  942MOL0     H27140  10.012   1.041   8.558 -2.0647  0.9342  0.1771
  942MOL0     H27141  10.104   1.112   8.441 -0.2520 -0.8552 -0.8588
  942MOL0     H27142   9.827   1.230   8.498  1.9465 -0.0605  2.1828
  942MOL0     H27143   9.948   1.275   8.379 -0.6904  1.1674  1.2624
  942MOL0     H27144   9.773   1.155   8.278 -0.4899  0.4399  0.7812
  942MOL0     H27145   9.780   1.020   8.393  0.0332 -0.1830  0.0604
  942MOL0     H27146  10.009   1.093   8.209 -2.0018  2.3904 -0.0761
  942MOL0     H27147  10.002   0.947   8.314  1.6046 -0.4336 -2.2165
  942MOL0     H27148   9.782   0.998   8.110  0.2165 -0.0624  0.6360
  942MOL0     H27149   9.829   0.849   8.182  0.9526 -0.8560 -1.4130
  942MOL0     H27150  10.005   1.015   7.983 -2.9205  2.1311  0.2610
  942MOL0     H27151   9.902   0.891   7.927  0.1031  1.6053 -0.8729
  942MOL0     H27152  10.166   1.182   8.967 -1.9164  0.9298 -1.3706
  942MOL0     H27153  10.292   1.164   9.191  0.9453 -0.3315 -0.2454
  942MOL0     H27154  10.539   1.182   9.458  0.6617 -0.6226 -0.6921
  942MOL0     H27155  10.592   1.147   9.686 -3.0044  0.5652 -2.3904
  942MOL0     H27156  11.335   0.839  10.218 -0.4428  0.6537 -1.9562
  942MOL0     H27157  11.266   1.081  10.208  0.1994  0.0281  2.8828
  942MOL0     H27158  11.375   1.520  10.269 -1.1229  0.0054 -0.3688
  942MOL0     H27159  11.313   1.749  10.226  0.1198 -2.4165  2.4743
  942MOL0     H27160  11.354   1.961  10.088  0.9465 -1.7635 -1.5958
  942MOL0     H27161  11.340   1.927   9.916 -2.1851 -1.6406 -0.8796
  942MOL0     H27162  11.127   2.053   9.908  1.7342 -0.9238 -1.5026
  942MOL0     H27163  11.264   2.158   9.943  1.5605 -0.3703  2.2368
  942MOL0     H27164  11.181   2.127  10.198 -0.1248 -0.7237 -0.4900
  942MOL0     H27165  11.052   2.026  10.135 -2.0157  0.4779 -0.1124
  942MOL0     H27166  11.114   2.303  10.046  0.9013 -1.6508 -0.4209
  942MOL0     H27167  10.975   2.267  10.161  1.6639  1.1448  0.9596
  942MOL0     H27168  10.835   2.293   9.769  0.6394  0.1631 -0.0831
  942MOL0     H27169  11.161   1.649   9.845  0.6384  1.5043  0.0779
  942MOL0     H27170  11.234   1.414   9.876  0.9712  1.9676 -1.9904
  943MOL0     O27171   0.657   3.862   8.818 -0.3749 -0.7527 -0.2414
  943MOL0     C27172   0.768   3.816   8.798  0.1802 -0.1600  0.3442
  943MOL0     O27173   0.882   3.890   8.784  0.8175  0.9368 -0.0886
  943MOL0     C27174   0.895   4.022   8.772  0.4857 -0.3228 -0.0009
  943MOL0     C27175   0.791   4.128   8.779 -1.2932 -0.5054  0.3831
  943MOL0     C27176   0.822   4.267   8.781  0.3771 -0.1150  0.1872
  943MOL0     C27177   0.956   4.306   8.752 -0.2240 -0.3182 -0.2815
  943MOL0     O27178   1.012   4.435   8.744  0.7630  0.2218  1.0271
  943MOL0     C27179   0.919   4.546   8.754 -0.3610 -0.0860 -0.3662
  943MOL0     C27180   0.980   4.679   8.719 -0.5790 -0.3377 -0.5551
  943MOL0     C27181   1.082   4.734   8.803 -1.2230  0.4065 -0.1604
  943MOL0     C27182   1.158   4.860   8.740  0.0260 -0.2438 -0.6168
  943MOL0     C27183   1.065   4.976   8.719  0.2245 -0.9180 -0.4139
  943MOL0     C27184   1.131   5.095   8.626 -1.0659 -0.1111 -0.4718
  943MOL0     C27185   1.026   5.211   8.588 -0.0830  0.1343  0.0840
  943MOL0     C27186   1.092   5.326   8.517  0.2391 -0.0062  1.0352
  943MOL0     N27187   1.008   5.448   8.541  0.1392  0.4941 -0.7048
  943MOL0     C27188   0.874   5.454   8.566 -0.3680 -1.0084 -0.0542
  943MOL0     C27189   0.844   5.592   8.559 -0.2278  0.7036 -0.7352
  943MOL0     C27190   0.715   5.673   8.582  0.4539  0.1274 -0.3211
  943MOL0     C27191   0.705   5.754   8.707 -0.7948  0.1183 -0.2575
  943MOL0     C27192   0.565   5.768   8.751 -0.4483 -0.4478  0.9310
  943MOL0     C27193   0.558   5.858   8.863  0.6732 -0.4227  0.1047
  943MOL0     O27194   0.513   5.988   8.819 -0.6109  0.4359  0.0199
  943MOL0     C27195   0.378   6.009   8.812  0.2844 -0.0378 -0.6333
  943MOL0     C27196   0.340   6.081   8.699 -0.0871 -0.8413 -1.1871
  943MOL0     C27197   0.210   6.108   8.660  0.0606  0.2272  0.8530
  943MOL0     C27198   0.185   6.157   8.524 -0.5494  0.0337  0.8928
  943MOL0     C27199   0.104   6.076   8.753  0.2248 -0.2067  0.3674
  943MOL0     C27200  -0.041   6.105   8.741  0.4970 -0.6169  0.8032
  943MOL0     O27201  -0.133   6.061   8.834 -1.6402 -0.7899 -0.5643
  943MOL0     C27202  -0.262   6.105   8.812 -0.3190  0.5528  0.4299
  943MOL0     C27203  -0.296   6.193   8.911 -0.3697 -0.8819  0.5768
  943MOL0     C27204  -0.425   6.249   8.923 -0.0822 -0.4473 -0.8725
  943MOL0     C27205  -0.524   6.204   8.832 -0.9555 -1.1373  0.3256
  943MOL0     O27206  -0.644   6.261   8.843  0.0418  0.4187 -0.1969
  943MOL0     C27207  -0.744   6.250   8.737  0.5676 -0.0790  0.2393
  943MOL0     C27208  -0.882   6.314   8.789 -1.6582 -0.0778 -0.2060
  943MOL0     C27209  -0.866   6.471   8.795  0.6618 -0.2382  0.2442
  943MOL0     C27210  -0.840   6.524   8.657  0.7088 -0.3369  0.2141
  943MOL0     C27211  -0.831   6.679   8.661  0.9161 -0.2752  0.1552
  943MOL0     C27212  -0.793   6.753   8.530 -0.3140 -0.6844 -1.3865
  943MOL0     C27213  -0.901   6.771   8.434 -0.6374 -0.3304  0.3594
  943MOL0     C27214  -0.865   6.810   8.286 -0.5638 -0.1618 -0.3401
  943MOL0    Cl27215  -0.998   6.761   8.171  0.2658  0.0765 -0.0468
  943MOL0     C27216  -0.497   6.114   8.729  0.0037  0.9361  0.1836
  943MOL0     C27217  -0.363   6.075   8.716  0.2903 -0.6059  0.2158
  943MOL0     O27218  -0.077   6.167   8.641  0.0247  0.4696  0.0070
  943MOL0     C27219   0.140   6.022   8.876 -0.0084  0.7682  0.0579
  943MOL0     C27220   0.278   5.978   8.907 -0.1239  0.3489 -0.1109
  943MOL0     N27221   0.962   5.659   8.529 -0.5409  0.6050  0.8784
  943MOL0     N27222   1.056   5.576   8.522 -0.4326  0.5513 -0.0078
  943MOL0     C27223   1.056   4.210   8.750 -0.7498  0.3669 -0.5060
  943MOL0     C27224   1.029   4.074   8.755  0.4310  0.6025  0.0067
  943MOL0     C27225   0.794   3.678   8.831 -0.1473  0.1601 -0.1315
  943MOL0     C27226   0.934   3.640   8.853 -0.0905 -0.4029 -0.3434
  943MOL0     C27227   0.961   3.511   8.897  0.0837  0.4427 -0.5458
  943MOL0     C27228   0.865   3.412   8.920  0.3342  0.3590  0.5572
  943MOL0     O27229   0.896   3.282   8.968 -0.5029  1.1130 -0.0054
  943MOL0     C27230   1.021   3.255   9.032  0.1714  0.1940  0.5638
  943MOL0     C27231   1.013   3.111   9.114  0.1646  0.3538  0.1144
  943MOL0     C27232   1.037   2.995   9.024  0.1582 -1.1676 -0.1425
  943MOL0     C27233   1.027   2.875   9.101 -1.0815  0.1600  0.7145
  943MOL0     C27234   1.012   2.773   8.999 -0.4830  0.6611 -0.6818
  943MOL0     C27235   0.991   2.686   8.924  0.8135 -0.2473  0.6981
  943MOL0     C27236   0.731   3.449   8.885  0.1418 -0.0291  0.1828
  943MOL0     C27237   0.693   3.584   8.854  0.6934 -0.0231 -0.9818
  943MOL0     H27238   0.689   4.092   8.789 -0.5569 -2.9666 -0.2467
  943MOL0     H27239   0.746   4.339   8.808  0.6173  0.5548 -0.8468
  943MOL0     H27240   0.828   4.535   8.696  0.5305 -0.2380 -1.7704
  943MOL0     H27241   0.878   4.544   8.856  1.0741 -1.5585  0.2389
  943MOL0     H27242   1.033   4.647   8.629  1.9700 -2.0787  1.4142
  943MOL0     H27243   0.893   4.741   8.695 -2.4031 -2.6318 -0.1992
  943MOL0     H27244   1.040   4.765   8.899  1.2969  1.2859  0.7216
  943MOL0     H27245   1.156   4.656   8.826 -2.1518 -1.6323 -3.3956
  943MOL0     H27246   1.245   4.879   8.804  0.0786  3.9525 -1.6399
  943MOL0     H27247   1.201   4.831   8.643  3.0724  3.2323 -0.5312
  943MOL0     H27248   0.967   4.945   8.681  2.1484 -3.7192 -3.5882
  943MOL0     H27249   1.046   5.024   8.816  0.3745  0.1388 -0.8967
  943MOL0     H27250   1.219   5.132   8.679  0.0241 -0.6501 -1.8299
  943MOL0     H27251   1.149   5.055   8.526 -0.2666  1.8185 -1.1524
  943MOL0     H27252   0.940   5.171   8.533  0.5738 -0.7450 -0.3333
  943MOL0     H27253   0.998   5.247   8.687  0.9844  0.6168  0.2287
  943MOL0     H27254   1.103   5.312   8.409 -1.5730 -2.2070  1.0547
  943MOL0     H27255   1.195   5.335   8.553 -0.3724 -0.4848  3.0154
  943MOL0     H27256   0.811   5.367   8.584  0.8190 -1.8389  0.2161
  943MOL0     H27257   0.692   5.735   8.495 -0.2069 -0.8846 -0.8978
  943MOL0     H27258   0.634   5.599   8.581  0.9751 -0.4940 -2.4270
  943MOL0     H27259   0.760   5.849   8.696  0.3925 -0.4962  0.1870
  943MOL0     H27260   0.754   5.719   8.799  0.4452  0.1784 -0.8684
  943MOL0     H27261   0.540   5.667   8.784 -2.6752 -0.4167 -0.4094
  943MOL0     H27262   0.506   5.804   8.665  0.5102  3.9108  1.8391
  943MOL0     H27263   0.646   5.865   8.927  0.0941 -2.6172  1.2645
  943MOL0     H27264   0.490   5.818   8.939  0.4209  1.0101  0.6796
  943MOL0     H27265   0.416   6.092   8.622  0.4065 -1.9918 -0.9024
  943MOL0     H27266   0.188   6.265   8.514  1.5469 -0.0906 -0.4808
  943MOL0     H27267   0.260   6.119   8.454 -2.5869 -1.8945 -0.3591
  943MOL0     H27268   0.092   6.128   8.475  0.6832 -0.1185 -1.5405
  943MOL0     H27269  -0.220   6.218   8.985  2.8160 -0.4214 -2.6027
  943MOL0     H27270  -0.470   6.312   8.999 -1.7187 -2.9095  0.3265
  943MOL0     H27271  -0.713   6.280   8.636  0.7942 -0.4461  0.1968
  943MOL0     H27272  -0.777   6.146   8.729 -1.8844  0.1402  4.4513
  943MOL0     H27273  -0.969   6.274   8.735 -0.1022 -3.1386 -0.6840
  943MOL0     H27274  -0.904   6.297   8.894 -3.4207  1.8899 -0.2057
  943MOL0     H27275  -0.788   6.499   8.866 -0.3344 -3.6513  2.9650
  943MOL0     H27276  -0.962   6.519   8.815 -1.1796 -2.0318 -3.3063
  943MOL0     H27277  -0.747   6.493   8.607  0.9305  4.4803 -2.9731
  943MOL0     H27278  -0.917   6.484   8.591 -0.2584  0.4186  0.8677
  943MOL0     H27279  -0.758   6.705   8.738  0.6479  0.6239  0.1068
  943MOL0     H27280  -0.931   6.713   8.690  0.1448 -3.3283  1.5378
  943MOL0     H27281  -0.756   6.853   8.556  1.5847 -1.0637 -2.4823
  943MOL0     H27282  -0.703   6.710   8.485 -0.5297 -1.8711 -0.7227
  943MOL0     H27283  -0.961   6.856   8.470  0.6655  0.7004  0.1991
  943MOL0     H27284  -0.967   6.684   8.440 -1.9776  0.6357  0.1221
  943MOL0     H27285  -0.767   6.766   8.266 -0.1181 -0.0363  1.4154
  943MOL0     H27286  -0.857   6.919   8.279 -1.4008  0.0681  1.7477
  943MOL0     H27287  -0.582   6.093   8.664  0.3747  2.0317 -0.6889
  943MOL0     H27288  -0.357   6.000   8.638 -1.9982  0.3002 -0.9045
  943MOL0     H27289   0.062   5.996   8.947 -1.2644  2.0504 -0.8013
  943MOL0     H27290   0.304   5.932   9.002  1.0773  1.4550  0.1214
  943MOL0     H27291   1.160   4.240   8.743 -0.3611 -0.9851 -0.9166
  943MOL0     H27292   1.107   3.999   8.760 -1.5013 -1.6882 -1.7408
  943MOL0     H27293   1.011   3.713   8.827 -1.3185  0.7726 -0.8066
  943MOL0     H27294   1.057   3.464   8.913  0.3284  1.3940  1.0787
  943MOL0     H27295   1.105   3.260   8.961  0.5149  1.1623  1.0132
  943MOL0     H27296   1.051   3.332   9.105  0.6636  4.1515 -3.4119
  943MOL0     H27297   0.912   3.110   9.156 -0.6706 -2.8948 -1.6550
  943MOL0     H27298   1.083   3.111   9.197 -0.7446  1.7943  0.9267
  943MOL0     H27299   1.137   2.997   8.981 -0.3902 -1.2596 -1.4770
  943MOL0     H27300   0.959   2.989   8.947  1.1179 -3.8900 -1.0356
  943MOL0     H27301   0.945   2.882   9.173 -0.9651 -2.6262  1.2136
  943MOL0     H27302   1.112   2.847   9.165 -2.6797  0.1311  2.9486
  943MOL0     H27303   0.993   2.599   8.861  3.3484  0.1611  0.0775
  943MOL0     H27304   0.653   3.376   8.906  0.1185 -0.9890 -2.8815
  943MOL0     H27305   0.589   3.612   8.848  0.0280 -1.7325  1.2894
  944MOL0     O27306   1.917   6.855  11.259 -0.1853 -0.0029 -0.3251
  944MOL0     C27307   1.982   6.747  11.247  0.2637 -0.6796 -0.2891
  944MOL0     O27308   1.938   6.635  11.191 -0.3212 -0.4037 -0.1819
  944MOL0     C27309   1.824   6.639  11.124  1.1167  0.0348  0.8954
  944MOL0     C27310   1.695   6.587  11.168 -0.6813 -0.4906  0.3049
  944MOL0     C27311   1.576   6.598  11.097  1.1095 -0.4941  0.1851
  944MOL0     C27312   1.577   6.662  10.974 -0.0291  0.8459 -0.2608
  944MOL0     O27313   1.472   6.639  10.886  0.1659  0.3712  0.2409
  944MOL0     C27314   1.452   6.743  10.794  0.1428  0.0344 -0.0783
  944MOL0     C27315   1.293   6.734  10.755 -0.2338 -0.7604  0.1789
  944MOL0     C27316   1.259   6.596  10.692  0.5561 -0.2513  0.8539
  944MOL0     C27317   1.124   6.604  10.626  1.5053  0.3724 -0.5949
  944MOL0     C27318   1.014   6.616  10.728  0.4519  0.1970  0.3306
  944MOL0     C27319   0.876   6.635  10.659  0.5285  0.7554 -0.9866
  944MOL0     C27320   0.881   6.784  10.612 -0.2143 -0.0022 -0.3259
  944MOL0     C27321   0.828   6.802  10.471  0.3055 -0.2600  0.3340
  944MOL0     N27322   0.929   6.757  10.365  0.2742 -0.2113  0.0128
  944MOL0     C27323   1.018   6.843  10.327  0.1680 -0.7384  1.4575
  944MOL0     C27324   1.069   6.791  10.215 -0.3539  0.2817 -0.5992
  944MOL0     C27325   1.189   6.834  10.127  0.2780 -0.0762 -0.2809
  944MOL0     C27326   1.324   6.844  10.207 -0.1276  0.2552  0.0530
  944MOL0     C27327   1.360   6.708  10.265  1.2457 -0.7274  0.9479
  944MOL0     C27328   1.480   6.717  10.343  0.1526  0.5350  0.7720
  944MOL0     O27329   1.497   6.841  10.415 -0.0992  0.7571 -0.1356
  944MOL0     C27330   1.609   6.860  10.489  0.4249  0.3064  1.0880
  944MOL0     C27331   1.711   6.765  10.503 -0.1764  0.3289  0.8729
  944MOL0     C27332   1.832   6.805  10.563  0.3239 -0.4863 -1.0329
  944MOL0     C27333   1.932   6.686  10.582  0.5571 -0.3773  0.1672
  944MOL0     C27334   1.856   6.940  10.617 -0.3774 -0.1965 -0.7921
  944MOL0     C27335   1.980   6.977  10.695  1.0415  0.0394 -0.2559
  944MOL0     O27336   1.975   7.107  10.732 -0.3466  0.3951  0.6361
  944MOL0     C27337   2.091   7.157  10.788  0.6759 -0.3729 -0.3008
  944MOL0     C27338   2.085   7.217  10.909 -0.4170 -0.1422  0.1777
  944MOL0     C27339   2.195   7.287  10.956 -0.1189  0.2789 -0.5588
  944MOL0     C27340   2.312   7.298  10.888 -0.7181  1.1743 -0.3672
  944MOL0     O27341   2.416   7.364  10.939 -0.3553  0.2256  0.5150
  944MOL0     C27342   2.542   7.383  10.872 -1.0015 -0.8961  0.1206
  944MOL0     C27343   2.545   7.506  10.793 -0.4058 -0.6734  0.6451
  944MOL0     C27344   2.680   7.542  10.723 -1.5958  0.9589 -0.2817
  944MOL0     C27345   2.678   7.660  10.627  0.1728 -0.2709 -0.0471
  944MOL0     C27346   2.801   7.749  10.644 -0.4480 -0.3830 -1.1418
  944MOL0     C27347   2.936   7.689  10.615 -0.2606  0.4547 -0.0089
  944MOL0     C27348   3.050   7.777  10.644 -1.4270 -0.9921  0.5205
  944MOL0     C27349   3.159   7.787  10.543 -0.2429  0.3034 -0.4007
  944MOL0    Cl27350   3.223   7.614  10.522  0.5653 -0.3403  0.3786
  944MOL0     C27351   2.318   7.228  10.767  0.0160  0.4437 -0.6662
  944MOL0     C27352   2.211   7.158  10.715  0.0300  0.4230  0.6120
  944MOL0     O27353   2.043   6.887  10.754 -0.1598  0.0314 -0.7143
  944MOL0     C27354   1.753   7.029  10.593 -0.4103  0.0770 -0.1927
  944MOL0     C27355   1.631   6.993  10.526 -0.5285  0.5682 -0.0618
  944MOL0     N27356   1.003   6.670  10.189 -0.2581  0.1958 -0.4738
  944MOL0     N27357   0.927   6.655  10.282 -0.2349  0.5063 -0.6014
  944MOL0     C27358   1.694   6.712  10.929 -0.1320 -0.2022  0.1156
  944MOL0     C27359   1.821   6.704  11.000 -0.0653  1.4804  0.4064
  944MOL0     C27360   2.127   6.757  11.272 -1.1836  0.5349  0.3036
  944MOL0     C27361   2.200   6.636  11.287 -0.2961  0.0227 -0.6659
  944MOL0     C27362   2.331   6.639  11.323 -0.2157 -0.3166  0.3943
  944MOL0     C27363   2.400   6.756  11.336  0.7075  0.2535 -0.0246
  944MOL0     O27364   2.536   6.746  11.366 -0.0958 -0.4996  0.6361
  944MOL0     C27365   2.639   6.670  11.283  0.1281 -0.0084 -0.1315
  944MOL0     C27366   2.591   6.655  11.139 -0.0430  0.4073  0.6987
  944MOL0     C27367   2.685   6.575  11.049 -0.5930  0.4075  0.2860
  944MOL0     C27368   2.673   6.425  11.059  0.1783 -0.9373 -0.2904
  944MOL0     C27369   2.780   6.360  10.995  0.2950 -0.0862  0.1269
  944MOL0     C27370   2.868   6.307  10.935 -0.5062  0.4335 -0.2370
  944MOL0     C27371   2.334   6.879  11.318 -0.6442 -0.4221  0.1111
  944MOL0     C27372   2.194   6.885  11.288  0.0206  0.8122 -0.0468
  944MOL0     H27373   1.700   6.526  11.258  1.2412 -2.0267 -0.7731
  944MOL0     H27374   1.490   6.545  11.137  1.2841 -1.4798 -0.7021
  944MOL0     H27375   1.481   6.840  10.834 -1.1833 -0.2730  1.7195
  944MOL0     H27376   1.498   6.735  10.695 -2.6996  2.9921 -1.8226
  944MOL0     H27377   1.223   6.763  10.833 -1.3745  1.9021 -1.6755
  944MOL0     H27378   1.288   6.800  10.668  3.0565 -1.5502 -0.7664
  944MOL0     H27379   1.331   6.567  10.616 -1.2440 -5.2355  0.6467
  944MOL0     H27380   1.263   6.516  10.767  1.1230  0.1021  1.2002
  944MOL0     H27381   1.115   6.692  10.561 -1.3642 -0.0061 -0.8478
  944MOL0     H27382   1.106   6.521  10.559  1.1738  0.7786 -1.0161
  944MOL0     H27383   0.997   6.522  10.781  0.3297  0.2674  0.4189
  944MOL0     H27384   1.017   6.696  10.804 -0.6016  2.1167 -1.5340
  944MOL0     H27385   0.860   6.553  10.589  0.0238  0.1298 -0.1501
  944MOL0     H27386   0.804   6.620  10.741  0.7953 -2.6928 -1.2311
  944MOL0     H27387   0.820   6.827  10.691  0.9771 -1.9203  1.7752
  944MOL0     H27388   0.979   6.833  10.621 -0.6696  0.8050  0.3873
  944MOL0     H27389   0.798   6.906  10.451  0.5737  0.2394  2.3065
  944MOL0     H27390   0.732   6.751  10.460  1.0950 -1.9402  0.9109
  944MOL0     H27391   1.033   6.944  10.363  0.2339  0.4176 -1.5185
  944MOL0     H27392   1.203   6.768  10.041 -0.7734 -0.1023 -0.4472
  944MOL0     H27393   1.163   6.932  10.088 -0.3950 -0.0879  0.1122
  944MOL0     H27394   1.302   6.918  10.285 -0.1018  0.7159 -0.3738
  944MOL0     H27395   1.398   6.893  10.143 -1.0551  0.7431 -0.6661
  944MOL0     H27396   1.357   6.639  10.180 -3.3533 -1.1074  1.1567
  944MOL0     H27397   1.277   6.673  10.326  0.7080 -1.9332 -0.4217
  944MOL0     H27398   1.572   6.688  10.292 -1.1301 -3.2288  0.3314
  944MOL0     H27399   1.480   6.630  10.409 -0.9963 -1.0090 -1.1547
  944MOL0     H27400   1.707   6.662  10.469 -0.1458 -0.0398  1.9431
  944MOL0     H27401   1.904   6.610  10.509 -0.5738  0.1223  0.0592
  944MOL0     H27402   2.034   6.714  10.556 -0.2623  1.6284 -1.0618
  944MOL0     H27403   1.930   6.634  10.679  0.3805  1.8074  1.3919
  944MOL0     H27404   1.990   7.216  10.962 -1.6137  0.3327 -1.8290
  944MOL0     H27405   2.189   7.318  11.059 -0.9490  1.6449 -0.9943
  944MOL0     H27406   2.619   7.407  10.947 -0.7113  2.4067 -1.0773
  944MOL0     H27407   2.576   7.303  10.805 -1.1798 -0.3901 -0.5854
  944MOL0     H27408   2.455   7.498  10.731  1.5176 -1.6519 -2.2553
  944MOL0     H27409   2.536   7.589  10.863  1.8122  0.1000  0.1011
  944MOL0     H27410   2.734   7.459  10.677 -2.8713 -0.8004  1.2143
  944MOL0     H27411   2.751   7.571  10.800 -0.6415  0.8312 -1.0913
  944MOL0     H27412   2.686   7.626  10.523 -2.4802 -3.5562  0.6457
  944MOL0     H27413   2.582   7.712  10.640 -0.8701 -1.9440 -0.7095
  944MOL0     H27414   2.783   7.777  10.748 -4.6441  0.0802 -1.8219
  944MOL0     H27415   2.785   7.839  10.583 -2.0200 -1.1545 -1.9012
  944MOL0     H27416   2.947   7.588  10.655 -2.1927 -0.4907 -1.6468
  944MOL0     H27417   2.932   7.667  10.508  0.8053 -0.1284  0.0535
  944MOL0     H27418   3.094   7.755  10.742 -1.3775  0.0379  0.7440
  944MOL0     H27419   3.006   7.877  10.648  1.2127  0.3580 -1.2427
  944MOL0     H27420   3.239   7.858  10.566 -0.4966  0.1693  1.0109
  944MOL0     H27421   3.119   7.814  10.445 -2.4719  0.3983  0.4722
  944MOL0     H27422   2.415   7.202  10.725  0.1074  0.5092 -0.4991
  944MOL0     H27423   2.229   7.109  10.620 -3.7140  0.7138 -0.4115
  944MOL0     H27424   1.754   7.134  10.620  0.1934  0.2053 -0.6854
  944MOL0     H27425   1.551   7.066  10.516  0.7490  1.8189 -2.1036
  944MOL0     H27426   1.700   6.736  10.823 -1.5945 -2.3592 -0.5364
  944MOL0     H27427   1.920   6.736  10.966  0.3406 -0.5372 -0.4300
  944MOL0     H27428   2.148   6.541  11.284 -1.1000  0.4677 -1.2257
  944MOL0     H27429   2.382   6.543  11.328 -0.8314 -0.6923 -0.4284
  944MOL0     H27430   2.729   6.732  11.280  1.2876 -1.5998  0.2103
  944MOL0     H27431   2.663   6.575  11.331 -0.2387  0.1238  0.3228
  944MOL0     H27432   2.582   6.756  11.097  1.8413  0.6085  0.7021
  944MOL0     H27433   2.491   6.611  11.135 -0.3900  0.8148  3.1386
  944MOL0     H27434   2.786   6.606  11.075 -0.8903  0.5903  1.2669
  944MOL0     H27435   2.668   6.604  10.945 -1.3816 -1.3620 -0.1034
  944MOL0     H27436   2.572   6.396  11.028 -1.1425 -0.2109  2.9152
  944MOL0     H27437   2.675   6.395  11.164  0.0272 -0.0492 -0.0233
  944MOL0     H27438   2.942   6.263  10.871  1.3767 -0.8250  2.6332
  944MOL0     H27439   2.404   6.962  11.313  0.4172 -1.3634 -1.7531
  944MOL0     H27440   2.149   6.977  11.251 -1.8021 -0.2146 -0.4986
  945MOL0     O27441   6.654   3.391   9.960  0.3128  0.0080 -0.2374
  945MOL0     C27442   6.730   3.490   9.944  0.2552  0.6647  0.2041
  945MOL0     O27443   6.699   3.600   9.881  0.0616  0.5101  0.2071
  945MOL0     C27444   6.602   3.592   9.785 -0.6179  0.3781 -0.5305
  945MOL0     C27445   6.611   3.503   9.678 -0.1626 -0.2595 -0.8655
  945MOL0     C27446   6.503   3.479   9.596 -0.5463 -0.2820 -0.0389
  945MOL0     C27447   6.381   3.550   9.607 -0.7162  0.0347  0.0216
  945MOL0     O27448   6.285   3.520   9.513  0.0526  0.4621  0.0945
  945MOL0     C27449   6.157   3.591   9.513 -0.2493 -0.9416 -0.0906
  945MOL0     C27450   6.042   3.495   9.549  0.5735  0.2161 -0.5742
  945MOL0     C27451   5.903   3.560   9.575  0.3847  0.1473  0.0932
  945MOL0     C27452   5.836   3.602   9.439  0.9160  0.7253  0.1532
  945MOL0     C27453   5.700   3.675   9.452  0.0863  0.6845  0.2350
  945MOL0     C27454   5.644   3.704   9.310  0.3621  0.4548  0.4951
  945MOL0     C27455   5.502   3.768   9.305 -0.2432 -1.2122 -0.5936
  945MOL0     C27456   5.381   3.679   9.286  0.1778 -0.9213  0.4389
  945MOL0     N27457   5.367   3.594   9.409  0.8572  0.3561  0.0126
  945MOL0     C27458   5.353   3.644   9.539 -0.5181  0.0939  0.3826
  945MOL0     C27459   5.278   3.555   9.604  0.2330  0.2804  0.6032
  945MOL0     C27460   5.257   3.553   9.750  0.9319 -0.3196 -1.3983
  945MOL0     C27461   5.105   3.570   9.788  0.2197  0.8742  0.4046
  945MOL0     C27462   5.022   3.444   9.766 -0.0946 -0.2355 -0.3757
  945MOL0     C27463   4.885   3.474   9.841  0.0384 -0.7169 -0.7093
  945MOL0     O27464   4.796   3.361   9.806  0.0593 -0.7174 -0.2980
  945MOL0     C27465   4.699   3.324   9.896 -0.8147  0.3072 -0.2611
  945MOL0     C27466   4.689   3.366  10.023 -1.2736  0.8160  0.5374
  945MOL0     C27467   4.587   3.319  10.114 -0.6534 -0.1479 -0.0001
  945MOL0     C27468   4.564   3.392  10.247 -0.6014  0.0239  0.7376
  945MOL0     C27469   4.528   3.192  10.089 -0.6627 -0.0533 -0.2375
  945MOL0     C27470   4.452   3.120  10.190  0.3176  0.2935 -0.0801
  945MOL0     O27471   4.341   3.048  10.160 -0.4802  0.2626 -0.5461
  945MOL0     C27472   4.241   3.096  10.084  0.6466  0.4360  0.4590
  945MOL0     C27473   4.203   3.238  10.090  0.1866 -0.3415  0.6136
  945MOL0     C27474   4.096   3.284  10.014  0.1537  0.2386  0.3268
  945MOL0     C27475   4.008   3.190   9.963 -0.1212  0.5922 -0.1156
  945MOL0     O27476   3.891   3.241   9.919  0.5439  0.4434  0.2280
  945MOL0     C27477   3.792   3.145   9.863 -0.6185 -0.9812 -0.3858
  945MOL0     C27478   3.826   3.084   9.730 -0.1239  0.4056  0.5240
  945MOL0     C27479   3.752   2.952   9.695  0.7788  0.1424  0.7352
  945MOL0     C27480   3.602   2.987   9.646  0.6952  0.4841 -1.1071
  945MOL0     C27481   3.521   2.866   9.599  0.6667 -0.8099 -0.2452
  945MOL0     C27482   3.559   2.811   9.464  0.9849  0.5445 -0.0997
  945MOL0     C27483   3.464   2.691   9.429 -0.0116 -0.4769  0.5459
  945MOL0     C27484   3.508   2.616   9.299  0.7977  0.8002 -0.3603
  945MOL0    Cl27485   3.666   2.537   9.334 -0.5802  0.0132 -0.1426
  945MOL0     C27486   4.039   3.049   9.972  0.1168 -0.2581  0.6694
  945MOL0     C27487   4.154   3.002  10.036  0.5640  0.9858 -0.0772
  945MOL0     O27488   4.512   3.109  10.291 -0.4612 -0.0286  0.1197
  945MOL0     C27489   4.542   3.142   9.960 -0.4655  0.3870  0.0996
  945MOL0     C27490   4.626   3.204   9.874 -0.5680 -0.4422  0.1484
  945MOL0     N27491   5.242   3.460   9.514 -0.4561 -0.3692 -0.2952
  945MOL0     N27492   5.290   3.484   9.397  0.4614 -0.4193 -1.2544
  945MOL0     C27493   6.371   3.634   9.728 -0.2857 -0.1779  0.7372
  945MOL0     C27494   6.487   3.656   9.812  1.0524  0.2559 -0.4854
  945MOL0     C27495   6.863   3.481  10.019  0.6499  0.6982  0.3740
  945MOL0     C27496   6.910   3.355  10.054 -0.0174 -0.4400  1.3208
  945MOL0     C27497   7.045   3.349  10.086 -0.3385 -0.6713  0.0238
  945MOL0     C27498   7.128   3.459  10.095 -0.3307 -0.4950 -0.0109
  945MOL0     O27499   7.263   3.427  10.108  0.8544 -0.2396  0.7642
  945MOL0     C27500   7.361   3.532  10.119  0.3872 -0.7395  0.9303
  945MOL0     C27501   7.398   3.588   9.979  0.1232 -1.3653 -0.7192
  945MOL0     C27502   7.543   3.589   9.951 -0.0725  0.3907  0.4098
  945MOL0     C27503   7.602   3.682   9.845 -0.8674 -0.5400 -0.4547
  945MOL0     C27504   7.626   3.820   9.910 -0.7166  0.5595 -0.1023
  945MOL0     C27505   7.652   3.918   9.980 -0.3015  0.1691 -0.7695
  945MOL0     C27506   7.071   3.590  10.071  0.6000 -0.4749 -0.0380
  945MOL0     C27507   6.939   3.596  10.034  0.1031 -0.0250  0.4189
  945MOL0     H27508   6.695   3.436   9.661 -0.8628 -0.6343 -3.3182
  945MOL0     H27509   6.508   3.405   9.517  1.1309 -2.0599  1.6108
  945MOL0     H27510   6.160   3.680   9.576 -0.2140  1.0047 -2.6491
  945MOL0     H27511   6.142   3.622   9.409 -0.3051 -2.3906 -0.5402
  945MOL0     H27512   6.028   3.420   9.470 -0.8360  0.8807 -0.9825
  945MOL0     H27513   6.069   3.460   9.649  0.7808  0.4452 -0.5515
  945MOL0     H27514   5.836   3.497   9.634 -1.2425  0.6416 -1.1378
  945MOL0     H27515   5.911   3.651   9.635 -2.2991  0.0748  0.7076
  945MOL0     H27516   5.902   3.666   9.380 -0.5502  1.6690 -0.5205
  945MOL0     H27517   5.815   3.516   9.375  0.2591  0.2887  0.9262
  945MOL0     H27518   5.642   3.600   9.507  1.6067  1.1777  2.6597
  945MOL0     H27519   5.703   3.765   9.513  1.2012  2.2226 -1.9432
  945MOL0     H27520   5.723   3.769   9.270  2.3949 -1.3230  1.4230
  945MOL0     H27521   5.634   3.612   9.252  0.2065  2.0876 -2.2351
  945MOL0     H27522   5.495   3.827   9.397  0.9283  1.0014 -1.8272
  945MOL0     H27523   5.493   3.846   9.228  1.5582  1.8523  2.0651
  945MOL0     H27524   5.388   3.633   9.187 -0.5760  0.0709 -0.0907
  945MOL0     H27525   5.291   3.740   9.277  0.3977 -0.9002 -2.4690
  945MOL0     H27526   5.390   3.738   9.577 -0.8682  0.6625 -0.6531
  945MOL0     H27527   5.303   3.471   9.806 -0.4639 -0.4032 -0.2928
  945MOL0     H27528   5.302   3.645   9.788 -0.1791 -0.1594 -0.4043
  945MOL0     H27529   5.055   3.653   9.736 -1.0612  0.1693  0.4856
  945MOL0     H27530   5.109   3.569   9.897  2.0942  1.7217  0.3849
  945MOL0     H27531   5.069   3.353   9.807  2.4665  2.3166  2.9930
  945MOL0     H27532   5.003   3.428   9.660  1.8566 -2.3002 -0.4987
  945MOL0     H27533   4.844   3.573   9.818 -0.4640 -0.5339  0.8742
  945MOL0     H27534   4.910   3.475   9.947  2.2788 -0.4701 -1.1701
  945MOL0     H27535   4.751   3.449  10.056 -1.0861 -0.4000  3.5824
  945MOL0     H27536   4.584   3.499  10.245  1.0582 -0.2469 -1.1271
  945MOL0     H27537   4.457   3.380  10.261 -0.9734  4.2813  3.1446
  945MOL0     H27538   4.618   3.339  10.326 -1.8562  0.5918  2.0043
  945MOL0     H27539   4.264   3.305  10.150 -3.8598  4.0942  0.3076
  945MOL0     H27540   4.065   3.388  10.007 -0.1367  0.0411 -1.7968
  945MOL0     H27541   3.785   3.064   9.936  1.9929  0.9563  2.2419
  945MOL0     H27542   3.698   3.202   9.865 -0.6465 -0.8765  3.7327
  945MOL0     H27543   3.819   3.150   9.643 -0.3418 -0.8351 -0.4333
  945MOL0     H27544   3.930   3.052   9.735  0.1504  0.9805 -0.9171
  945MOL0     H27545   3.746   2.886   9.782 -0.4648 -3.3823 -1.7856
  945MOL0     H27546   3.805   2.888   9.623 -0.7330  1.0244 -1.2429
  945MOL0     H27547   3.553   3.033   9.732 -3.7786 -3.2058 -1.3057
  945MOL0     H27548   3.597   3.073   9.580 -1.6182  1.2658 -0.0178
  945MOL0     H27549   3.418   2.899   9.578  0.8255 -1.1953 -1.7399
  945MOL0     H27550   3.519   2.784   9.671 -1.0817 -1.9517 -1.5154
  945MOL0     H27551   3.556   2.901   9.402 -2.2958  2.3971  2.4578
  945MOL0     H27552   3.653   2.755   9.454  0.4211 -0.9302  2.1080
  945MOL0     H27553   3.361   2.724   9.413 -1.0273 -3.2571  0.7149
  945MOL0     H27554   3.472   2.620   9.512 -0.1326 -1.1269  0.0134
  945MOL0     H27555   3.512   2.674   9.206 -0.4878  1.7919  0.1825
  945MOL0     H27556   3.431   2.540   9.283 -1.7652  2.6920  2.1540
  945MOL0     H27557   3.976   2.970   9.932  0.8845  0.5700 -2.4149
  945MOL0     H27558   4.175   2.897  10.054 -1.9158  0.4629  0.0871
  945MOL0     H27559   4.476   3.056   9.953  2.5660 -2.3488  2.3096
  945MOL0     H27560   4.638   3.157   9.777  0.8483 -0.4929  0.3198
  945MOL0     H27561   6.279   3.674   9.770 -0.4705  0.7442 -0.4729
  945MOL0     H27562   6.469   3.693   9.912  0.9950 -0.1372 -0.3476
  945MOL0     H27563   6.861   3.258  10.055 -1.3509  0.2191  2.0749
  945MOL0     H27564   7.099   3.260  10.117  1.9941  1.1176  1.3277
  945MOL0     H27565   7.333   3.621  10.175 -0.7613  0.2875 -1.1749
  945MOL0     H27566   7.448   3.484  10.165  1.5576 -0.8351 -1.2742
  945MOL0     H27567   7.362   3.691   9.976  0.7149 -1.1550 -0.7434
  945MOL0     H27568   7.356   3.538   9.892 -0.3377  1.1253 -2.0160
  945MOL0     H27569   7.576   3.493   9.910 -2.0200  0.7796 -2.3096
  945MOL0     H27570   7.591   3.607  10.048 -3.9170  2.8839  2.0853
  945MOL0     H27571   7.523   3.687   9.768 -2.1761 -3.7517  0.5228
  945MOL0     H27572   7.692   3.638   9.803  0.8936 -0.3248  2.8063
  945MOL0     H27573   7.674   4.003  10.040 -1.0706 -0.3588  0.2864
  945MOL0     H27574   7.129   3.678  10.096  0.3568 -0.3050 -0.0795
  945MOL0     H27575   6.887   3.689  10.012 -2.3153 -1.1900  0.8764
  946MOL0     O27576  10.861   3.812   5.296 -0.4094 -0.1323 -0.5149
  946MOL0     C27577  10.968   3.751   5.288 -0.6016 -0.0633 -0.0978
  946MOL0     O27578  11.020   3.654   5.373  0.4239 -0.1992 -0.4777
  946MOL0     C27579  10.966   3.642   5.501 -0.4566 -0.7230  0.0932
  946MOL0     C27580  10.837   3.679   5.541 -0.2392 -1.1261  0.0243
  946MOL0     C27581  10.802   3.673   5.681 -0.9084  0.3367  0.9396
  946MOL0     C27582  10.889   3.617   5.772  0.1413  0.2040  0.4822
  946MOL0     O27583  10.858   3.602   5.901  0.5707  0.8296 -0.0243
  946MOL0     C27584  10.738   3.524   5.915 -0.3988 -0.4452 -0.5145
  946MOL0     C27585  10.698   3.506   6.071 -0.2491 -0.3879 -0.5262
  946MOL0     C27586  10.662   3.633   6.146  0.5379 -0.4272  0.4246
  946MOL0     C27587  10.769   3.737   6.168 -0.4049  0.1016  0.8439
  946MOL0     C27588  10.730   3.844   6.272 -0.4448 -0.8703 -0.5353
  946MOL0     C27589  10.605   3.920   6.225  0.1166 -1.7321  0.3390
  946MOL0     C27590  10.589   4.057   6.293  0.2421 -0.5229 -0.5199
  946MOL0     C27591  10.446   4.100   6.302 -0.5794 -1.4329  0.1686
  946MOL0     N27592  10.384   4.139   6.180  0.0097  0.0828  0.7303
  946MOL0     C27593  10.360   4.075   6.060  0.3384 -0.2663  0.6714
  946MOL0     C27594  10.286   4.164   5.983 -0.3010  1.2230 -0.5580
  946MOL0     C27595  10.213   4.140   5.848  0.6663 -0.8711  0.6841
  946MOL0     C27596  10.058   4.181   5.846  1.0065  0.3613 -0.4236
  946MOL0     C27597  10.002   4.176   5.703 -0.0726 -0.6694 -0.7148
  946MOL0     C27598   9.979   4.048   5.652  0.4800 -0.6560  0.2448
  946MOL0     O27599  10.103   4.006   5.594 -0.4149  0.5566  0.5829
  946MOL0     C27600  10.121   4.034   5.458 -0.0073  0.2032 -0.3829
  946MOL0     C27601  10.225   3.969   5.399 -0.9583 -0.5764 -0.5192
  946MOL0     C27602  10.264   3.996   5.266 -0.6960 -0.0884 -0.6439
  946MOL0     C27603  10.365   3.904   5.202 -0.4083 -0.0809  0.0476
  946MOL0     C27604  10.194   4.096   5.187 -1.1070 -0.0608 -0.3444
  946MOL0     C27605  10.213   4.134   5.041  0.0186  0.2748 -0.0206
  946MOL0     O27606  10.107   4.212   4.983  0.0075  0.6921  0.1385
  946MOL0     C27607  10.123   4.245   4.846 -0.6561  0.4492 -0.1658
  946MOL0     C27608  10.225   4.319   4.789  0.0315 -0.0849 -1.3123
  946MOL0     C27609  10.218   4.348   4.654  0.4373 -1.0227 -0.2811
  946MOL0     C27610  10.123   4.284   4.571  0.7949 -0.3034 -0.5728
  946MOL0     O27611  10.115   4.313   4.433  0.7902  0.9613  0.6867
  946MOL0     C27612  10.146   4.446   4.390  0.4183 -0.0144  1.3374
  946MOL0     C27613  10.077   4.465   4.255  0.0491  0.3308 -0.1020
  946MOL0     C27614  10.116   4.609   4.204  0.3443 -0.3653  0.8921
  946MOL0     C27615  10.082   4.614   4.051  0.3205 -0.2973 -0.3480
  946MOL0     C27616  10.202   4.551   3.968  0.4850 -1.2498 -0.6139
  946MOL0     C27617  10.204   4.615   3.828 -0.3463 -0.1319  0.3626
  946MOL0     C27618  10.291   4.734   3.815  0.6237 -1.1696 -0.3275
  946MOL0     C27619  10.439   4.710   3.823 -0.1639 -0.7373 -1.0200
  946MOL0    Cl27620  10.519   4.866   3.825  0.0415  0.2200  0.2247
  946MOL0     C27621  10.029   4.193   4.622 -0.4483 -0.1269  0.2298
  946MOL0     C27622  10.032   4.177   4.762 -0.8651 -0.3328  0.0845
  946MOL0     O27623  10.312   4.098   4.983  0.2565  0.9788  0.0135
  946MOL0     C27624  10.090   4.169   5.255  0.0822  1.0732 -0.3432
  946MOL0     C27625  10.060   4.142   5.389  0.2568  0.0154 -0.0995
  946MOL0     N27626  10.264   4.273   6.064 -0.1366  0.1011  0.1249
  946MOL0     N27627  10.322   4.260   6.174  0.6978  0.9865 -0.4331
  946MOL0     C27628  11.015   3.578   5.730 -0.2828  0.1727 -0.2321
  946MOL0     C27629  11.049   3.589   5.593  0.2897 -0.2619 -0.1384
  946MOL0     C27630  11.037   3.755   5.158 -0.6484 -0.3104 -0.7757
  946MOL0     C27631  11.045   3.875   5.085 -0.2282  0.4251 -0.5759
  946MOL0     C27632  11.110   3.870   4.963  0.4377 -0.6411  0.5930
  946MOL0     C27633  11.161   3.752   4.908 -0.8236  0.6529 -0.8586
  946MOL0     O27634  11.228   3.764   4.791  0.5642  0.1837  0.1358
  946MOL0     C27635  11.281   3.649   4.729  0.4296 -0.2863  0.1285
  946MOL0     C27636  11.167   3.571   4.665 -0.2374  0.4380 -0.4421
  946MOL0     C27637  11.205   3.431   4.624 -0.4190 -0.4409  0.8050
  946MOL0     C27638  11.086   3.380   4.536 -0.8925 -0.8158 -1.2755
  946MOL0     C27639  10.960   3.377   4.609 -0.1781 -0.2380 -0.5694
  946MOL0     C27640  10.854   3.385   4.669 -0.7531 -0.4287 -0.7961
  946MOL0     C27641  11.158   3.634   4.985 -0.1482  0.2066  0.6154
  946MOL0     C27642  11.103   3.635   5.117  0.9640 -0.1602  0.1874
  946MOL0     H27643  10.753   3.710   5.480  0.4868 -4.1668 -2.8538
  946MOL0     H27644  10.713   3.721   5.722 -1.6476 -0.1463 -0.0695
  946MOL0     H27645  10.651   3.578   5.875  0.5483 -0.3171 -2.5225
  946MOL0     H27646  10.738   3.433   5.855 -3.1372 -2.4988  2.2883
  946MOL0     H27647  10.612   3.438   6.077 -0.6236  0.1443  0.2784
  946MOL0     H27648  10.766   3.446   6.133 -0.6019 -1.0207 -0.7355
  946MOL0     H27649  10.595   3.672   6.068 -0.8609 -2.5263  0.4699
  946MOL0     H27650  10.608   3.617   6.240 -0.4550  0.5595  0.0485
  946MOL0     H27651  10.862   3.690   6.203 -0.8730 -0.1058  1.8358
  946MOL0     H27652  10.788   3.781   6.070 -1.4257  0.8535  0.9685
  946MOL0     H27653  10.708   3.793   6.366  1.1361  1.2061  1.0395
  946MOL0     H27654  10.822   3.902   6.276 -2.2807  2.2216 -0.5259
  946MOL0     H27655  10.597   3.936   6.117 -2.7715  1.1933  0.8377
  946MOL0     H27656  10.508   3.875   6.249 -0.9822  1.7456  3.3355
  946MOL0     H27657  10.636   4.054   6.392 -0.4577 -1.2832 -0.2035
  946MOL0     H27658  10.648   4.134   6.241 -0.9343  0.8431  0.1011
  946MOL0     H27659  10.443   4.186   6.369 -2.6183 -0.6066 -0.8676
  946MOL0     H27660  10.389   4.019   6.348 -0.5656 -1.6520 -0.1922
  946MOL0     H27661  10.389   3.976   6.027  0.8870 -0.2781  1.1682
  946MOL0     H27662  10.263   4.199   5.772 -2.4846  2.4155  0.8803
  946MOL0     H27663  10.234   4.036   5.820  2.3308 -1.6643  4.2162
  946MOL0     H27664  10.062   4.280   5.892 -0.0677 -0.6282  1.9883
  946MOL0     H27665   9.998   4.132   5.924  0.7218  1.0419 -0.2095
  946MOL0     H27666  10.076   4.228   5.642  1.7992  0.1173  2.0554
  946MOL0     H27667   9.910   4.234   5.712  0.8527  1.1488 -2.2726
  946MOL0     H27668   9.896   4.053   5.581  0.7118  3.4747  0.0195
  946MOL0     H27669   9.956   3.980   5.735  2.0616  0.5845  1.7641
  946MOL0     H27670  10.275   3.886   5.449 -0.4203 -0.7116 -1.2676
  946MOL0     H27671  10.311   3.858   5.118 -2.5982 -0.3933  1.5422
  946MOL0     H27672  10.450   3.963   5.168 -0.8662 -0.4392 -1.8117
  946MOL0     H27673  10.389   3.820   5.268 -0.0533 -0.3903 -0.4682
  946MOL0     H27674  10.312   4.349   4.847 -0.0416 -1.1022 -0.6559
  946MOL0     H27675  10.281   4.428   4.617  0.1127  1.6531  4.2942
  946MOL0     H27676  10.100   4.519   4.456  0.2156  1.3369 -0.2462
  946MOL0     H27677  10.253   4.469   4.387  0.0580  1.6454  0.1428
  946MOL0     H27678  10.108   4.386   4.186  3.5793 -0.7570  2.4350
  946MOL0     H27679   9.969   4.475   4.269 -0.1664  0.3307 -1.6326
  946MOL0     H27680  10.224   4.622   4.211  0.6510 -2.1332  0.0124
  946MOL0     H27681  10.057   4.685   4.256 -3.3987 -1.1059 -1.8424
  946MOL0     H27682   9.987   4.575   4.014  0.8470 -0.2347 -1.8318
  946MOL0     H27683  10.089   4.722   4.034  3.4132  0.1321  2.5960
  946MOL0     H27684  10.189   4.442   3.963 -0.5286 -1.2090  0.7076
  946MOL0     H27685  10.294   4.578   4.020 -1.5634  1.8969  1.7423
  946MOL0     H27686  10.246   4.530   3.772 -1.1760  0.5709 -1.4112
  946MOL0     H27687  10.104   4.635   3.789 -0.6680 -2.4996 -0.1792
  946MOL0     H27688  10.260   4.801   3.896 -0.3019 -2.2141  0.2154
  946MOL0     H27689  10.275   4.791   3.723  4.7446  0.4368 -0.2611
  946MOL0     H27690  10.478   4.648   3.741  2.8837  0.0682 -0.3214
  946MOL0     H27691  10.475   4.668   3.918  2.2462  2.8079 -0.1605
  946MOL0     H27692   9.938   4.166   4.570  0.4696 -2.4295 -0.3497
  946MOL0     H27693   9.966   4.105   4.811  0.0356 -1.9397 -0.9842
  946MOL0     H27694  10.038   4.247   5.201  0.4844  0.8595 -1.0550
  946MOL0     H27695   9.987   4.206   5.438 -1.1829 -0.4805 -1.4929
  946MOL0     H27696  11.084   3.534   5.802  0.4281  3.6429  1.4183
  946MOL0     H27697  11.152   3.562   5.572  0.0549 -2.7125  1.5199
  946MOL0     H27698  10.991   3.955   5.135 -0.0571 -0.9472  1.9639
  946MOL0     H27699  11.112   3.959   4.901 -0.0038  0.1107  1.6383
  946MOL0     H27700  11.353   3.685   4.655 -1.0947  2.2372 -0.2477
  946MOL0     H27701  11.332   3.585   4.801  2.0753  1.8749  0.9856
  946MOL0     H27702  11.128   3.627   4.580 -0.6149 -1.6891 -1.7499
  946MOL0     H27703  11.088   3.562   4.741  1.8589 -1.8962  1.6592
  946MOL0     H27704  11.208   3.362   4.708 -0.1816 -2.5686 -0.8561
  946MOL0     H27705  11.298   3.431   4.566  0.2685  2.5443  1.7378
  946MOL0     H27706  11.104   3.273   4.519  1.9226 -0.5995 -0.1233
  946MOL0     H27707  11.092   3.426   4.437  1.2225 -0.2120 -0.9213
  946MOL0     H27708  10.769   3.410   4.728 -1.9036 -3.8478 -0.7778
  946MOL0     H27709  11.191   3.535   4.956  1.9946  0.7104  1.2045
  946MOL0     H27710  11.113   3.545   5.176  1.3110 -0.1605  0.1314
  947MOL0     O27711   6.681   3.296   3.837 -0.0427 -0.2476  0.3083
  947MOL0     C27712   6.632   3.379   3.914  0.8585  0.1814  0.3362
  947MOL0     O27713   6.680   3.414   4.035 -0.6550  0.8567 -0.0945
  947MOL0     C27714   6.795   3.367   4.078 -0.1513 -0.4085 -0.3115
  947MOL0     C27715   6.868   3.447   4.155  0.0155 -0.2094 -0.1907
  947MOL0     C27716   6.988   3.397   4.211 -1.8188 -0.4748 -1.1422
  947MOL0     C27717   7.029   3.267   4.196 -0.0512 -0.5966 -0.0191
  947MOL0     O27718   7.141   3.214   4.267  0.4955  0.0914  1.6212
  947MOL0     C27719   7.239   3.134   4.186 -0.2412  0.0577 -0.1009
  947MOL0     C27720   7.352   3.101   4.285 -0.0338  0.4556  0.0067
  947MOL0     C27721   7.311   3.058   4.423 -0.3106  0.4706  1.0372
  947MOL0     C27722   7.273   2.911   4.432  0.1511  0.0769  0.1002
  947MOL0     C27723   7.227   2.871   4.569 -0.3828 -0.0124 -0.4346
  947MOL0     C27724   7.219   2.716   4.588 -0.7140 -0.1599 -0.1043
  947MOL0     C27725   7.096   2.649   4.525 -0.3775 -0.6348 -1.2881
  947MOL0     C27726   7.067   2.515   4.593 -0.3857 -0.1395 -0.1063
  947MOL0     N27727   7.190   2.444   4.565 -0.2493 -0.2264 -0.1592
  947MOL0     C27728   7.293   2.421   4.662 -0.7970  0.1341 -0.1184
  947MOL0     C27729   7.355   2.311   4.620 -0.7129  0.3082 -0.3395
  947MOL0     C27730   7.466   2.227   4.680  0.0580 -0.1424  0.4129
  947MOL0     C27731   7.555   2.300   4.782 -0.6242  0.4947 -0.7623
  947MOL0     C27732   7.655   2.410   4.730 -0.2174 -0.7004 -1.3462
  947MOL0     C27733   7.733   2.466   4.851  0.1058  0.0931 -0.6484
  947MOL0     O27734   7.841   2.550   4.813 -0.0157 -0.0956  0.9161
  947MOL0     C27735   7.913   2.618   4.906 -0.2192  0.1080 -0.1022
  947MOL0     C27736   7.871   2.677   5.029  0.0428  0.7370  0.9445
  947MOL0     C27737   7.953   2.732   5.124  0.6488 -0.0317  0.2072
  947MOL0     C27738   7.898   2.811   5.240 -0.2321  0.8677  0.4424
  947MOL0     C27739   8.091   2.719   5.104  0.0022 -1.0923 -0.8082
  947MOL0     C27740   8.197   2.770   5.185 -0.3462 -0.4538 -0.6209
  947MOL0     O27741   8.284   2.850   5.127 -0.0132  0.1806  0.6770
  947MOL0     C27742   8.384   2.905   5.198 -0.1394  0.1691  0.1954
  947MOL0     C27743   8.365   3.000   5.303  0.4903  0.3504  1.2301
  947MOL0     C27744   8.467   3.051   5.385 -0.1586 -0.3343  1.2644
  947MOL0     C27745   8.598   3.014   5.358  0.1806 -0.1534  1.2816
  947MOL0     O27746   8.712   3.048   5.422 -0.5788  0.9514 -1.1448
  947MOL0     C27747   8.729   3.179   5.473  0.6995 -0.0229  0.8505
  947MOL0     C27748   8.850   3.195   5.551  0.7718 -0.7314 -0.9964
  947MOL0     C27749   8.865   3.337   5.605  0.3526  0.2491  0.4748
  947MOL0     C27750   8.997   3.353   5.672  1.0056 -0.9471  0.0617
  947MOL0     C27751   9.118   3.376   5.585  0.1571  0.1479 -0.1800
  947MOL0     C27752   9.226   3.466   5.657 -0.1461 -0.8897  1.5583
  947MOL0     C27753   9.196   3.620   5.662  0.9373  0.2036  0.9375
  947MOL0     C27754   9.187   3.678   5.530  0.1812 -0.3502  0.0137
  947MOL0    Cl27755   9.197   3.860   5.565 -0.0198 -0.1144  0.5421
  947MOL0     C27756   8.626   2.917   5.251 -0.1084  0.2157 -0.4076
  947MOL0     C27757   8.517   2.872   5.164  0.0372 -0.9502 -0.9317
  947MOL0     O27758   8.203   2.739   5.298 -0.6232  0.2687 -0.9080
  947MOL0     C27759   8.131   2.667   4.984 -0.8425 -0.1224 -0.4989
  947MOL0     C27760   8.047   2.605   4.891  0.1733 -0.6210 -0.0106
  947MOL0     N27761   7.297   2.283   4.491  0.0121  0.2725  0.3117
  947MOL0     N27762   7.197   2.356   4.463  1.1948  0.4672  0.0825
  947MOL0     C27763   6.955   3.186   4.120  0.1751 -0.1551  0.1933
  947MOL0     C27764   6.841   3.236   4.054 -0.1160  1.3761 -1.7817
  947MOL0     C27765   6.504   3.441   3.880  0.2460 -0.2805 -0.7314
  947MOL0     C27766   6.459   3.451   3.745  0.2202 -0.2686 -1.2582
  947MOL0     C27767   6.334   3.506   3.715 -0.0623  0.7174  0.6095
  947MOL0     C27768   6.240   3.541   3.821 -0.3997 -0.0809  0.7270
  947MOL0     O27769   6.116   3.594   3.804  0.3221 -0.8795 -0.2468
  947MOL0     C27770   6.032   3.525   3.712 -0.6986  1.0584  0.5810
  947MOL0     C27771   6.007   3.378   3.744  0.6100 -0.0269 -1.0651
  947MOL0     C27772   5.881   3.337   3.831 -1.1302 -0.9746  0.8110
  947MOL0     C27773   5.777   3.262   3.754 -0.1071 -0.8886  0.3155
  947MOL0     C27774   5.712   3.326   3.638 -0.2066  0.0022 -1.2137
  947MOL0     C27775   5.641   3.359   3.547  0.3942  1.2379 -0.4816
  947MOL0     C27776   6.290   3.536   3.950 -0.3779  0.6343  0.0515
  947MOL0     C27777   6.412   3.476   3.977  0.0175 -0.7012 -0.4474
  947MOL0     H27778   6.832   3.545   4.182 -1.6555 -0.8614  0.0599
  947MOL0     H27779   7.036   3.469   4.277 -2.1123  0.7621 -2.2419
  947MOL0     H27780   7.190   3.039   4.163 -1.6426  0.0030  2.7103
  947MOL0     H27781   7.285   3.179   4.097  1.1228  0.8261  0.9656
  947MOL0     H27782   7.416   3.030   4.233 -0.9395  0.5599 -1.3044
  947MOL0     H27783   7.410   3.193   4.294  1.5537 -0.5941  1.0432
  947MOL0     H27784   7.389   3.079   4.497  0.7808  1.6384 -0.3818
  947MOL0     H27785   7.225   3.120   4.451 -2.1116  0.2224 -3.1441
  947MOL0     H27786   7.197   2.899   4.354  0.5043  1.2464 -0.4535
  947MOL0     H27787   7.358   2.854   4.394  1.8895  1.1004  2.1917
  947MOL0     H27788   7.291   2.908   4.649 -1.8746  4.1878 -0.9265
  947MOL0     H27789   7.126   2.909   4.588  0.1556  0.9592  0.5952
  947MOL0     H27790   7.311   2.676   4.544  0.7142  1.5570  1.1876
  947MOL0     H27791   7.218   2.687   4.693  0.0197 -1.7652 -0.5114
  947MOL0     H27792   7.011   2.719   4.525 -1.5132 -1.9628 -1.0744
  947MOL0     H27793   7.115   2.632   4.418  2.5414  2.0337 -1.3297
  947MOL0     H27794   6.985   2.460   4.548  1.0093 -0.4958 -2.3625
  947MOL0     H27795   7.051   2.525   4.701  0.5421  3.2453 -0.1619
  947MOL0     H27796   7.294   2.467   4.760 -2.1646 -2.0485  0.9989
  947MOL0     H27797   7.414   2.140   4.719  1.8774 -0.3515  2.5950
  947MOL0     H27798   7.524   2.192   4.594  0.1608 -0.0538  0.4461
  947MOL0     H27799   7.609   2.221   4.835  0.2612 -1.6784 -4.4964
  947MOL0     H27800   7.497   2.348   4.862 -0.4582  0.5468 -0.6720
  947MOL0     H27801   7.605   2.502   4.698 -1.9302 -0.6523  1.1330
  947MOL0     H27802   7.721   2.369   4.653 -1.5697  1.2550 -3.7300
  947MOL0     H27803   7.763   2.379   4.910 -2.3095 -0.1468  0.3409
  947MOL0     H27804   7.681   2.540   4.914  1.0476 -0.0830  0.3634
  947MOL0     H27805   7.765   2.670   5.047 -0.6764  1.1122 -2.4458
  947MOL0     H27806   7.801   2.765   5.262 -0.9823 -0.1394 -3.9761
  947MOL0     H27807   7.966   2.792   5.324 -1.8148 -3.7989  0.9847
  947MOL0     H27808   7.885   2.918   5.219 -1.9933  0.8370  1.2392
  947MOL0     H27809   8.262   3.033   5.316 -0.2308 -0.8294 -0.9212
  947MOL0     H27810   8.451   3.104   5.478 -0.6411 -2.9025  2.7459
  947MOL0     H27811   8.713   3.244   5.387 -1.8662 -0.6180  0.7865
  947MOL0     H27812   8.652   3.198   5.548 -1.1745  1.4207 -1.2920
  947MOL0     H27813   8.842   3.136   5.643 -0.8394 -0.5010 -0.9482
  947MOL0     H27814   8.930   3.155   5.489  1.9123 -1.7658  1.0241
  947MOL0     H27815   8.786   3.359   5.678 -0.0304  2.8898 -0.6298
  947MOL0     H27816   8.852   3.404   5.520 -1.2707  1.2046  1.4290
  947MOL0     H27817   8.995   3.430   5.749  2.1762 -1.8022  0.9915
  947MOL0     H27818   9.020   3.262   5.727  1.0772 -2.6011 -2.5072
  947MOL0     H27819   9.077   3.418   5.493 -0.0980 -0.4676 -0.3573
  947MOL0     H27820   9.163   3.283   5.550  2.1296 -0.0497  2.5816
  947MOL0     H27821   9.233   3.443   5.764 -0.0896 -0.3963  1.6632
  947MOL0     H27822   9.324   3.456   5.609 -0.5187 -1.2810  0.8613
  947MOL0     H27823   9.272   3.666   5.726  0.9628  0.2625  0.8649
  947MOL0     H27824   9.103   3.632   5.719  0.4482  0.9702  0.0073
  947MOL0     H27825   9.087   3.665   5.487 -0.4416  1.0321  0.9540
  947MOL0     H27826   9.273   3.644   5.472 -1.6458 -2.2303 -1.7536
  947MOL0     H27827   8.727   2.889   5.221 -0.0382  0.5112 -0.4465
  947MOL0     H27828   8.526   2.799   5.084 -4.3058 -3.7713  0.7736
  947MOL0     H27829   8.234   2.660   4.950 -0.6263 -1.4954  0.3625
  947MOL0     H27830   8.093   2.554   4.807  2.1467  2.5179 -1.0266
  947MOL0     H27831   6.982   3.091   4.076 -1.1976 -0.9532  0.9958
  947MOL0     H27832   6.795   3.165   3.986  1.1739 -0.6905 -0.5717
  947MOL0     H27833   6.528   3.421   3.667 -1.0722  0.9000 -2.9476
  947MOL0     H27834   6.301   3.507   3.612 -0.4664  3.7029  0.6926
  947MOL0     H27835   5.936   3.577   3.704 -1.9418 -1.3397 -1.6642
  947MOL0     H27836   6.062   3.543   3.609 -2.7671 -0.3132 -0.3342
  947MOL0     H27837   6.100   3.336   3.782  0.4282  0.7508  0.2957
  947MOL0     H27838   5.987   3.339   3.643 -2.0336 -0.7265 -0.3483
  947MOL0     H27839   5.840   3.418   3.892 -0.2857 -2.6010  3.7152
  947MOL0     H27840   5.915   3.270   3.910 -0.0915 -0.0945  1.1399
  947MOL0     H27841   5.693   3.230   3.817 -0.1221 -0.9665  0.2569
  947MOL0     H27842   5.824   3.168   3.725  0.7468 -1.6726  3.8151
  947MOL0     H27843   5.571   3.381   3.470 -1.6176 -2.8469 -0.0956
  947MOL0     H27844   6.226   3.588   4.021 -1.0208  1.9384 -1.4352
  947MOL0     H27845   6.438   3.490   4.081  0.2593  4.9716 -0.9583
  948MOL0     O27846   7.662   5.678   7.447 -0.5051  0.2122  0.4740
  948MOL0     C27847   7.723   5.700   7.548 -1.1605  0.0977  0.1948
  948MOL0     O27848   7.685   5.778   7.650  0.7753 -0.2256  0.4561
  948MOL0     C27849   7.570   5.856   7.639 -0.3208  0.3175  0.6366
  948MOL0     C27850   7.539   5.933   7.520 -1.0432 -0.8238  0.7877
  948MOL0     C27851   7.423   6.020   7.515 -0.6682  0.2659  0.1741
  948MOL0     C27852   7.344   6.032   7.630  1.4711 -1.1396 -0.9678
  948MOL0     O27853   7.237   6.117   7.619  0.0509 -0.0958  0.2630
  948MOL0     C27854   7.170   6.150   7.739 -0.7672  0.7710  0.2576
  948MOL0     C27855   7.089   6.275   7.704  0.2057 -0.0530 -0.9030
  948MOL0     C27856   7.151   6.401   7.767 -0.4197  0.6050 -0.2628
  948MOL0     C27857   7.066   6.519   7.760 -0.0918 -0.0838 -0.0729
  948MOL0     C27858   6.917   6.505   7.800 -0.7940 -0.1388 -0.0090
  948MOL0     C27859   6.893   6.465   7.946  0.2729  0.5855  0.2957
  948MOL0     C27860   6.965   6.554   8.044  0.1134 -0.7918 -0.1662
  948MOL0     C27861   6.890   6.561   8.170 -0.6452  0.0161  0.5984
  948MOL0     N27862   6.882   6.442   8.247  0.1794 -0.0782 -0.0609
  948MOL0     C27863   6.785   6.350   8.246  0.4844 -0.0040 -0.5023
  948MOL0     C27864   6.829   6.250   8.314  1.2812  0.1468 -0.2217
  948MOL0     C27865   6.759   6.121   8.334  0.3497  1.0546 -0.6213
  948MOL0     C27866   6.740   6.058   8.195  0.0389  0.0663 -0.2314
  948MOL0     C27867   6.714   5.906   8.205  0.3245 -0.4008 -0.7518
  948MOL0     C27868   6.830   5.830   8.256  0.7618 -0.3503 -0.2372
  948MOL0     O27869   6.795   5.693   8.229 -0.0308  0.0815 -0.2128
  948MOL0     C27870   6.759   5.594   8.323  1.2618 -0.7166  0.2478
  948MOL0     C27871   6.721   5.478   8.258  0.2325 -0.2221  0.4252
  948MOL0     C27872   6.686   5.361   8.314 -0.7237  0.0148  0.0004
  948MOL0     C27873   6.686   5.245   8.219  0.4507  0.1367 -1.1332
  948MOL0     C27874   6.667   5.367   8.460 -0.3062  0.2434  1.0238
  948MOL0     C27875   6.603   5.265   8.541  0.1801  0.5952 -1.2008
  948MOL0     O27876   6.549   5.150   8.473  0.2090  0.2928  0.8783
  948MOL0     C27877   6.554   5.030   8.544  1.2192 -0.2262 -0.3413
  948MOL0     C27878   6.669   4.949   8.576  0.5990 -0.4686  0.4111
  948MOL0     C27879   6.649   4.831   8.654 -1.4143  0.1572  0.8382
  948MOL0     C27880   6.524   4.780   8.678  0.1297  0.5919  0.1143
  948MOL0     O27881   6.515   4.669   8.769  0.1597  0.4029  0.0863
  948MOL0     C27882   6.395   4.598   8.756 -0.1821 -0.5283  0.5838
  948MOL0     C27883   6.394   4.480   8.843  0.1624 -0.1484 -0.4644
  948MOL0     C27884   6.246   4.432   8.851 -0.7563 -0.4112  0.5939
  948MOL0     C27885   6.250   4.285   8.904 -0.1711 -0.7482 -0.0087
  948MOL0     C27886   6.119   4.229   8.886  0.1709  0.5432 -0.0658
  948MOL0     C27887   6.134   4.085   8.925  0.4635 -0.4185  0.1567
  948MOL0     C27888   5.996   4.015   8.917 -0.4049  0.2011  0.3170
  948MOL0     C27889   6.015   3.867   8.951 -0.4866  0.0424  0.4881
  948MOL0    Cl27890   5.854   3.824   9.011  0.1531  0.1921  0.0513
  948MOL0     C27891   6.417   4.852   8.632  0.8786 -0.9839  1.4210
  948MOL0     C27892   6.429   4.980   8.565  0.4172  0.4074  1.1523
  948MOL0     O27893   6.608   5.278   8.663 -1.1173  0.0959  0.6644
  948MOL0     C27894   6.696   5.490   8.527  0.0501 -0.0235  0.2241
  948MOL0     C27895   6.744   5.602   8.457 -0.5479  0.0862  0.3083
  948MOL0     N27896   6.958   6.264   8.345  0.3147  0.3764 -0.0716
  948MOL0     N27897   6.992   6.379   8.304 -0.0554 -0.0711  0.4024
  948MOL0     C27898   7.358   5.941   7.742  0.0030 -0.8274 -0.2408
  948MOL0     C27899   7.473   5.853   7.741 -0.1256  0.1833 -0.1855
  948MOL0     C27900   7.854   5.641   7.556 -1.7394 -0.0546 -0.0803
  948MOL0     C27901   7.899   5.532   7.477  0.8555 -0.6410  0.2306
  948MOL0     C27902   8.030   5.480   7.483 -0.9236 -0.9874 -0.7085
  948MOL0     C27903   8.132   5.536   7.563 -0.2282 -0.6949 -0.5184
  948MOL0     O27904   8.254   5.485   7.558 -0.7551  0.9310  0.1480
  948MOL0     C27905   8.372   5.567   7.594  0.4625  0.7157  0.1294
  948MOL0     C27906   8.388   5.668   7.471 -0.4037  0.3707  0.5197
  948MOL0     C27907   8.352   5.617   7.332 -0.6479 -0.0265 -0.9529
  948MOL0     C27908   8.408   5.478   7.300  0.1839  0.3474  0.1846
  948MOL0     C27909   8.384   5.453   7.159  0.2801 -0.8181  0.6563
  948MOL0     C27910   8.378   5.409   7.041  0.0546  1.0529 -0.1201
  948MOL0     C27911   8.091   5.650   7.643  0.2897 -0.1494  0.3637
  948MOL0     C27912   7.958   5.695   7.639 -0.5165  0.5842  1.2506
  948MOL0     H27913   7.599   5.925   7.430 -2.2534 -1.4035  0.0138
  948MOL0     H27914   7.399   6.069   7.422  1.4975  0.6192 -0.2394
  948MOL0     H27915   7.107   6.064   7.764 -1.3461  0.8290 -0.9365
  948MOL0     H27916   7.234   6.165   7.826 -2.0619  0.4758  1.3003
  948MOL0     H27917   7.067   6.289   7.598 -0.8586 -0.6539 -0.7789
  948MOL0     H27918   7.000   6.253   7.763  0.6911  0.0156 -0.1219
  948MOL0     H27919   7.189   6.382   7.867  3.3603 -0.2769 -1.6908
  948MOL0     H27920   7.245   6.424   7.717  1.0177 -1.7256  1.1800
  948MOL0     H27921   7.111   6.608   7.805  1.9018 -1.9993  1.9724
  948MOL0     H27922   7.069   6.557   7.658 -0.0639 -1.0956 -0.4659
  948MOL0     H27923   6.872   6.604   7.785  3.4914  1.9239 -0.6332
  948MOL0     H27924   6.873   6.427   7.737 -0.4659 -0.0279 -0.3774
  948MOL0     H27925   6.787   6.473   7.974  0.5617  0.6977  1.4351
  948MOL0     H27926   6.917   6.365   7.984 -1.2372  1.5344  4.3318
  948MOL0     H27927   7.066   6.513   8.058  0.6791  0.2742 -0.9481
  948MOL0     H27928   6.987   6.652   8.000 -0.2310 -1.3502 -1.6447
  948MOL0     H27929   6.786   6.588   8.149 -0.0195  1.8908 -0.3201
  948MOL0     H27930   6.927   6.640   8.236  1.3415 -0.8971  0.6516
  948MOL0     H27931   6.689   6.353   8.194  0.5082  0.2380 -0.5316
  948MOL0     H27932   6.824   6.074   8.408  0.4373  1.9206 -0.1390
  948MOL0     H27933   6.667   6.149   8.385  0.5623 -0.3295  0.6013
  948MOL0     H27934   6.822   6.084   8.127  2.4415 -3.2629  1.1455
  948MOL0     H27935   6.651   6.110   8.158 -0.6007 -0.6275  0.2994
  948MOL0     H27936   6.662   5.869   8.116  1.7325  0.6118 -2.0446
  948MOL0     H27937   6.636   5.909   8.282  1.4165 -1.6270  0.4424
  948MOL0     H27938   6.842   5.853   8.362 -0.4433 -3.4173  0.6700
  948MOL0     H27939   6.918   5.871   8.206  1.0644 -1.1292 -0.3599
  948MOL0     H27940   6.729   5.495   8.151  0.3769 -2.3254  0.0574
  948MOL0     H27941   6.764   5.179   8.257  0.6975  1.4927  0.8421
  948MOL0     H27942   6.583   5.207   8.221 -1.2380  3.9104 -3.9520
  948MOL0     H27943   6.713   5.277   8.118  1.0687  2.7926 -0.1972
  948MOL0     H27944   6.770   4.975   8.545 -0.0376 -0.6733 -2.0423
  948MOL0     H27945   6.725   4.767   8.698  2.1285  1.4075 -2.8073
  948MOL0     H27946   6.312   4.665   8.777 -1.9294 -2.0839 -1.0442
  948MOL0     H27947   6.372   4.572   8.653 -0.3331  0.1712  0.4393
  948MOL0     H27948   6.458   4.407   8.793 -0.6756 -1.6174  0.5737
  948MOL0     H27949   6.438   4.497   8.942 -1.3538 -2.5060  0.6766
  948MOL0     H27950   6.206   4.448   8.751  1.0547 -1.0404 -0.2847
  948MOL0     H27951   6.192   4.496   8.921  0.1005 -1.8365  2.6754
  948MOL0     H27952   6.322   4.222   8.851  1.2949 -0.7348  1.8510
  948MOL0     H27953   6.282   4.283   9.008  2.1730  2.4655 -0.5108
  948MOL0     H27954   6.097   4.240   8.780  1.3992  1.1053 -0.2813
  948MOL0     H27955   6.045   4.281   8.948 -1.5224 -2.3166  0.4613
  948MOL0     H27956   6.219   4.036   8.878  0.5750 -1.6989  1.6292
  948MOL0     H27957   6.163   4.078   9.030  0.4722 -1.4910  0.0916
  948MOL0     H27958   5.934   4.013   8.827 -2.4965  0.7611  1.6704
  948MOL0     H27959   5.919   4.051   8.986 -2.0863 -0.2645 -1.2462
  948MOL0     H27960   6.080   3.845   9.036  1.0251  1.0436 -0.3578
  948MOL0     H27961   6.041   3.804   8.866 -0.5755 -1.6054  1.6245
  948MOL0     H27962   6.317   4.823   8.663  0.3568 -0.9024 -0.0790
  948MOL0     H27963   6.335   5.029   8.541  1.3530  1.5975 -0.2859
  948MOL0     H27964   6.703   5.509   8.633  1.9348  1.2598 -0.0770
  948MOL0     H27965   6.783   5.693   8.502 -0.7090 -0.8408  2.4044
  948MOL0     H27966   7.289   5.928   7.824 -1.7267  0.3304 -1.4483
  948MOL0     H27967   7.480   5.772   7.814  2.3709 -1.1837 -1.7917
  948MOL0     H27968   7.836   5.481   7.405  4.1368 -1.0947 -2.5795
  948MOL0     H27969   8.067   5.393   7.430  3.6688 -0.4790  1.2636
  948MOL0     H27970   8.361   5.599   7.698 -1.1311  1.9265 -0.3783
  948MOL0     H27971   8.455   5.496   7.591  1.6800  2.0282  1.2244
  948MOL0     H27972   8.492   5.698   7.461  0.2250 -2.2116 -2.4681
  948MOL0     H27973   8.322   5.755   7.479 -0.7622  0.0844  0.7076
  948MOL0     H27974   8.391   5.685   7.255  0.7712  0.0882 -0.1824
  948MOL0     H27975   8.243   5.618   7.336 -0.6253 -0.0826  1.9287
  948MOL0     H27976   8.344   5.417   7.365  0.7012  2.6560  3.0776
  948MOL0     H27977   8.514   5.462   7.324  1.4462  1.6111 -3.7189
  948MOL0     H27978   8.372   5.370   6.941  0.3193 -0.2937  0.3702
  948MOL0     H27979   8.167   5.708   7.695 -1.8204  4.2333 -0.9412
  948MOL0     H27980   7.946   5.794   7.681 -1.2496  2.8965 -3.7187
  949MOL0     O27981   0.784   3.805  10.208 -0.0778  0.5154  0.3268
  949MOL0     C27982   0.746   3.865  10.107 -1.0788  0.3300  0.1375
  949MOL0     O27983   0.635   3.928  10.094  0.0673 -0.1168 -0.2711
  949MOL0     C27984   0.551   3.957  10.195  0.4639 -0.2321 -0.6617
  949MOL0     C27985   0.592   3.998  10.323 -0.5660  0.2420 -0.1362
  949MOL0     C27986   0.499   4.033  10.422 -0.4778 -0.0822  0.3836
  949MOL0     C27987   0.365   4.018  10.402 -0.2909 -0.4298 -1.0101
  949MOL0     O27988   0.278   4.047  10.508  0.0076  0.2798 -0.6767
  949MOL0     C27989   0.159   4.116  10.468 -0.4670  0.4821  0.0862
  949MOL0     C27990   0.097   4.192  10.590 -0.1119  0.2109 -0.3989
  949MOL0     C27991  -0.049   4.236  10.557  0.0217  1.4544 -0.7121
  949MOL0     C27992  -0.109   4.345  10.650 -0.9096  1.5604  0.5499
  949MOL0     C27993  -0.209   4.430  10.576  0.0787  0.5850  0.8525
  949MOL0     C27994  -0.276   4.522  10.659  0.1223 -0.4410  0.2479
  949MOL0     C27995  -0.305   4.659  10.588  0.1694 -0.6359 -0.4107
  949MOL0     C27996  -0.439   4.636  10.518 -0.0790  0.0489  1.0781
  949MOL0     N27997  -0.463   4.752  10.433 -0.0992  0.2148  1.1463
  949MOL0     C27998  -0.389   4.789  10.321 -0.0731  0.0847 -0.1377
  949MOL0     C27999  -0.451   4.902  10.286 -0.2033 -0.4380 -0.4508
  949MOL0     C28000  -0.417   4.965  10.159 -0.4301 -0.1765 -0.1492
  949MOL0     C28001  -0.429   4.888  10.029  0.2131 -0.8136 -0.4126
  949MOL0     C28002  -0.583   4.858  10.002  0.7017  0.1234  0.8685
  949MOL0     C28003  -0.603   4.878   9.846  0.5460 -0.1358  0.0089
  949MOL0     O28004  -0.726   4.810   9.813  0.1248  0.2069  0.0980
  949MOL0     C28005  -0.730   4.682   9.778 -0.1596  0.2557 -0.3646
  949MOL0     C28006  -0.840   4.641   9.698 -0.5540 -0.1965 -0.6518
  949MOL0     C28007  -0.846   4.504   9.664  0.5605  0.1333  0.1349
  949MOL0     C28008  -0.947   4.471   9.552  0.1886  0.5555 -0.8991
  949MOL0     C28009  -0.770   4.402   9.727 -1.2073 -0.3511  0.6077
  949MOL0     C28010  -0.794   4.254   9.727 -0.3229 -0.4280 -0.8331
  949MOL0     O28011  -0.687   4.175   9.748 -0.0923 -0.1426 -0.4812
  949MOL0     C28012  -0.716   4.040   9.758 -0.8199  1.0185 -0.7799
  949MOL0     C28013  -0.700   3.960   9.649  0.6992  0.1094  1.4723
  949MOL0     C28014  -0.742   3.829   9.639 -0.0597  0.0340 -0.5385
  949MOL0     C28015  -0.785   3.768   9.763  0.4312  0.4931 -0.2833
  949MOL0     O28016  -0.832   3.637   9.763 -0.3224  0.5623  0.1215
  949MOL0     C28017  -0.722   3.538   9.740 -0.4908  0.0867 -1.1749
  949MOL0     C28018  -0.721   3.493   9.595  0.9354  0.2658  0.0588
  949MOL0     C28019  -0.739   3.346   9.583  0.0928  0.1106 -1.0444
  949MOL0     C28020  -0.786   3.310   9.441  0.8381 -1.0328 -0.3835
  949MOL0     C28021  -0.791   3.161   9.434 -0.4271 -0.1095 -0.6304
  949MOL0     C28022  -0.796   3.119   9.295 -0.8145 -0.7503  0.7373
  949MOL0     C28023  -0.665   3.147   9.218 -0.4990 -0.7258  0.3710
  949MOL0     C28024  -0.658   3.075   9.086  0.0310  0.1130  0.1549
  949MOL0    Cl28025  -0.794   3.102   8.978  0.4956  0.0387 -0.3012
  949MOL0     C28026  -0.791   3.845   9.877  0.0783  0.5279  0.2920
  949MOL0     C28027  -0.760   3.980   9.876  0.0378 -0.4441  0.8521
  949MOL0     O28028  -0.910   4.213   9.715  0.1085  0.6126  0.3450
  949MOL0     C28029  -0.656   4.443   9.794 -0.8320 -0.3819  0.5348
  949MOL0     C28030  -0.635   4.583   9.827  0.0811 -0.2807  0.7311
  949MOL0     N28031  -0.537   4.945  10.381  0.8449 -0.6945 -0.1346
  949MOL0     N28032  -0.540   4.855  10.468  0.6719  0.1800  0.0745
  949MOL0     C28033   0.316   3.980  10.274 -0.9088  0.2281  0.6394
  949MOL0     C28034   0.412   3.950  10.168  0.7366  1.2131  0.2444
  949MOL0     C28035   0.836   3.882   9.992 -0.0257  0.3083 -0.2240
  949MOL0     C28036   0.979   3.852   9.995 -0.4326 -0.2189  0.1289
  949MOL0     C28037   1.063   3.882   9.892  1.0915 -0.7184  0.1395
  949MOL0     C28038   1.004   3.935   9.777  0.0669 -0.1265 -0.0244
  949MOL0     O28039   1.078   3.978   9.675  0.2359 -0.6893  0.3469
  949MOL0     C28040   1.217   3.970   9.653 -0.1392 -0.2679 -0.6525
  949MOL0     C28041   1.272   4.039   9.526  0.8684  0.2782 -0.2731
  949MOL0     C28042   1.423   4.003   9.512  0.5719  0.4972 -1.2525
  949MOL0     C28043   1.498   4.099   9.425 -1.0976  0.2052 -0.8239
  949MOL0     C28044   1.652   4.097   9.437 -0.2182 -0.1697 -0.2866
  949MOL0     C28045   1.779   4.087   9.422  0.1361 -0.8286  0.5253
  949MOL0     C28046   0.865   3.947   9.761 -0.3567 -0.6360  0.5358
  949MOL0     C28047   0.781   3.931   9.866 -0.5139 -0.1075 -0.7377
  949MOL0     H28048   0.699   4.012  10.335 -0.4005 -0.1237 -1.0770
  949MOL0     H28049   0.544   4.086  10.505 -0.0374 -2.2493  1.5978
  949MOL0     H28050   0.180   4.193  10.393  1.1115  0.2775  0.2805
  949MOL0     H28051   0.103   4.037  10.418 -0.1159  0.5291 -0.3869
  949MOL0     H28052   0.088   4.117  10.669 -0.7305  1.2011  0.5086
  949MOL0     H28053   0.153   4.285  10.608 -0.9128  0.1752  2.9998
  949MOL0     H28054  -0.040   4.266  10.452  3.9179 -1.6567 -1.5049
  949MOL0     H28055  -0.119   4.153  10.562  0.1846  0.8622 -4.7270
  949MOL0     H28056  -0.143   4.294  10.740  3.5866 -1.0183  1.0581
  949MOL0     H28057  -0.031   4.411  10.689  0.7806 -0.1881  0.2662
  949MOL0     H28058  -0.152   4.469  10.491 -1.6997  1.3173 -0.0736
  949MOL0     H28059  -0.290   4.367  10.537  0.6520  0.8884 -0.9119
  949MOL0     H28060  -0.366   4.480  10.703 -0.5965 -0.4079 -1.1147
  949MOL0     H28061  -0.198   4.554  10.728  0.2760  2.2374 -0.9966
  949MOL0     H28062  -0.317   4.744  10.656 -1.0925  1.6142 -3.2322
  949MOL0     H28063  -0.223   4.689  10.522  1.2983  0.9146  1.6011
  949MOL0     H28064  -0.516   4.623  10.595 -0.8042  0.1885  0.3887
  949MOL0     H28065  -0.439   4.548  10.454  3.0337  1.7587 -1.5865
  949MOL0     H28066  -0.302   4.737  10.282 -0.6947  1.1065 -3.1406
  949MOL0     H28067  -0.478   5.054  10.141  0.8453 -0.0300 -5.1151
  949MOL0     H28068  -0.318   5.010  10.175 -0.4353  1.2340 -3.2444
  949MOL0     H28069  -0.371   4.796  10.037 -0.3682 -1.2843 -1.4813
  949MOL0     H28070  -0.383   4.940   9.944  0.4382  1.0557  0.7946
  949MOL0     H28071  -0.657   4.910  10.064  0.6814 -0.5221  1.3938
  949MOL0     H28072  -0.593   4.754  10.033  1.4835 -0.1657  0.1978
  949MOL0     H28073  -0.522   4.833   9.787 -2.1672 -1.0333 -3.3148
  949MOL0     H28074  -0.596   4.983   9.816 -0.1420 -0.2012 -0.3980
  949MOL0     H28075  -0.910   4.701   9.641 -2.3670 -1.7375 -0.1570
  949MOL0     H28076  -1.038   4.520   9.589  0.6494  0.8379 -0.1078
  949MOL0     H28077  -0.917   4.518   9.459  3.7490  0.1589 -0.0704
  949MOL0     H28078  -0.957   4.363   9.537  0.7154  0.1453  1.3200
  949MOL0     H28079  -0.664   4.019   9.566  1.7646 -0.2431  1.6772
  949MOL0     H28080  -0.735   3.772   9.547 -1.4381 -3.4562  1.3166
  949MOL0     H28081  -0.618   3.570   9.757 -0.4035  1.5332 -3.8267
  949MOL0     H28082  -0.743   3.464   9.817 -2.5115  1.3538 -0.4490
  949MOL0     H28083  -0.799   3.542   9.535 -0.1154 -2.6193 -1.1177
  949MOL0     H28084  -0.627   3.525   9.548  0.7356 -1.3942 -1.5780
  949MOL0     H28085  -0.811   3.321   9.661  1.8077 -1.9667 -0.0071
  949MOL0     H28086  -0.644   3.297   9.609  0.0696  0.8346  0.4896
  949MOL0     H28087  -0.887   3.346   9.419  0.9617  0.8309  1.7826
  949MOL0     H28088  -0.721   3.349   9.362  1.9280 -0.7159  0.6439
  949MOL0     H28089  -0.874   3.123   9.494  0.1427 -2.8895 -1.4840
  949MOL0     H28090  -0.700   3.118   9.478  0.7214  1.8974 -0.9267
  949MOL0     H28091  -0.803   3.013   9.271  1.0480 -0.9863  1.0888
  949MOL0     H28092  -0.880   3.160   9.237  0.0818  0.3999  0.1968
  949MOL0     H28093  -0.581   3.105   9.274  0.4510  0.2536 -0.2829
  949MOL0     H28094  -0.658   3.254   9.199  1.1876 -0.6665  1.0923
  949MOL0     H28095  -0.646   2.966   9.097 -2.9506 -0.3452 -0.2673
  949MOL0     H28096  -0.561   3.105   9.047  0.4923 -1.0656  0.3516
  949MOL0     H28097  -0.827   3.793   9.965  2.2141 -1.3536  0.1371
  949MOL0     H28098  -0.765   4.055   9.954  3.0078  0.4547  0.3140
  949MOL0     H28099  -0.583   4.381   9.845 -0.2957 -1.9549 -1.9297
  949MOL0     H28100  -0.541   4.611   9.873  0.7846  0.2643 -0.9806
  949MOL0     H28101   0.211   3.984  10.248 -0.7227  3.8741 -0.1218
  949MOL0     H28102   0.382   3.940  10.064 -0.3249  2.0216  0.4595
  949MOL0     H28103   1.020   3.819  10.090  1.7478  1.5563 -0.1310
  949MOL0     H28104   1.171   3.877   9.901  1.6129 -0.3670 -3.8751
  949MOL0     H28105   1.266   4.006   9.744 -1.4042  1.8383 -0.7579
  949MOL0     H28106   1.240   3.864   9.636 -0.7953 -0.4958 -0.1728
  949MOL0     H28107   1.260   4.148   9.536 -1.1379  0.0026  0.9173
  949MOL0     H28108   1.214   4.005   9.440 -1.5437  3.7606 -0.2581
  949MOL0     H28109   1.435   3.910   9.457 -0.4048  0.6277 -1.7061
  949MOL0     H28110   1.465   3.980   9.610 -0.7228  0.6969 -0.6286
  949MOL0     H28111   1.454   4.195   9.454 -1.3375 -0.0364 -0.3651
  949MOL0     H28112   1.471   4.084   9.320 -0.7600 -0.4432 -0.8229
  949MOL0     H28113   1.884   4.089   9.401 -0.2265  1.8421 -1.6556
  949MOL0     H28114   0.826   3.973   9.663  2.2538  2.8897  0.2304
  949MOL0     H28115   0.677   3.946   9.841 -0.3045 -1.2340 -2.4867
  950MOL0     O28116  10.514   4.194   2.185 -0.4398 -0.5136  0.2327
  950MOL0     C28117  10.568   4.177   2.295  1.1316 -0.1437  0.1262
  950MOL0     O28118  10.704   4.161   2.314  0.5455 -0.3000 -0.6455
  950MOL0     C28119  10.784   4.172   2.206 -0.0517 -0.1564 -0.5594
  950MOL0     C28120  10.777   4.070   2.110  0.2580 -0.3708  0.2673
  950MOL0     C28121  10.810   4.091   1.972 -0.4034  1.0584 -0.7733
  950MOL0     C28122  10.864   4.213   1.939  0.4222  0.5423 -0.3393
  950MOL0     O28123  10.913   4.229   1.817 -0.2461 -0.7958  0.5195
  950MOL0     C28124  10.829   4.187   1.705  0.4619  1.4083  0.1642
  950MOL0     C28125  10.681   4.219   1.712  1.0253 -0.1871  1.5192
  950MOL0     C28126  10.617   4.216   1.576  1.0053  0.2881  0.0557
  950MOL0     C28127  10.612   4.340   1.487  0.1218 -0.2767  0.1120
  950MOL0     C28128  10.550   4.313   1.347 -0.0030  0.5772  1.0886
  950MOL0     C28129  10.577   4.419   1.237 -0.2381  0.2423 -0.4675
  950MOL0     C28130  10.513   4.360   1.113  0.8272 -0.4262 -0.1135
  950MOL0     C28131  10.378   4.396   1.087  0.3736 -0.3787  0.5229
  950MOL0     N28132  10.306   4.307   0.991 -0.6033 -1.4050 -0.2521
  950MOL0     C28133  10.252   4.187   1.013 -0.4957 -0.3756 -1.1578
  950MOL0     C28134  10.178   4.151   0.911  0.4920 -0.3514 -0.7981
  950MOL0     C28135  10.118   4.016   0.889  0.6462  0.1364 -0.0591
  950MOL0     C28136  10.194   3.923   0.792  0.4601 -0.4591  0.0010
  950MOL0     C28137  10.103   3.804   0.773  0.1324  0.1755 -0.1096
  950MOL0     C28138  10.164   3.710   0.663 -0.0937 -0.3699  0.0810
  950MOL0     O28139  10.281   3.643   0.703  0.0208  0.1147  0.2659
  950MOL0     C28140  10.273   3.533   0.782 -0.6772  0.2286 -1.3336
  950MOL0     C28141  10.166   3.456   0.806 -0.0633 -0.0778 -0.1645
  950MOL0     C28142  10.174   3.326   0.873  0.3549 -0.4913 -0.1867
  950MOL0     C28143  10.048   3.245   0.891 -0.4975  1.0671 -0.7668
  950MOL0     C28144  10.302   3.283   0.912  0.4106  0.8983  0.1824
  950MOL0     C28145  10.326   3.155   0.989 -0.6884  0.7251  0.3993
  950MOL0     O28146  10.460   3.136   1.028  0.4880 -0.4928  0.0273
  950MOL0     C28147  10.486   3.013   1.074 -1.0487 -0.6034  0.0869
  950MOL0     C28148  10.462   2.984   1.199  0.4615  0.9407 -1.2462
  950MOL0     C28149  10.507   2.862   1.249  0.7061 -0.3507 -0.2092
  950MOL0     C28150  10.587   2.779   1.172 -0.7060  0.0072  0.3085
  950MOL0     O28151  10.646   2.666   1.226 -0.3191  0.4806  0.5215
  950MOL0     C28152  10.568   2.590   1.317 -0.0151 -0.9519 -0.7413
  950MOL0     C28153  10.614   2.442   1.328  0.6537  1.0209  0.3426
  950MOL0     C28154  10.565   2.358   1.203  0.2545  0.7266 -0.3610
  950MOL0     C28155  10.631   2.221   1.204  0.3770  0.2483  0.1440
  950MOL0     C28156  10.622   2.129   1.080  0.1386 -0.6396 -0.1693
  950MOL0     C28157  10.698   2.195   0.966 -0.7146 -0.6211 -0.0477
  950MOL0     C28158  10.687   2.098   0.850  0.4429 -0.6126 -0.5119
  950MOL0     C28159  10.708   2.155   0.720 -0.4168 -0.1094  0.1743
  950MOL0    Cl28160  10.628   2.031   0.613  0.0744 -0.1831 -0.0372
  950MOL0     C28161  10.612   2.820   1.039 -0.4992  0.5785  1.3431
  950MOL0     C28162  10.557   2.935   0.984 -0.0470  0.3336  0.0039
  950MOL0     O28163  10.237   3.070   1.008  0.1023 -0.0110  0.0993
  950MOL0     C28164  10.414   3.364   0.892 -0.1728 -0.5938 -0.8278
  950MOL0     C28165  10.397   3.490   0.835  0.6684 -1.0172 -0.3618
  950MOL0     N28166  10.174   4.259   0.826  0.7601  0.3909  0.2483
  950MOL0     N28167  10.257   4.350   0.873  0.5546 -0.5361 -0.0415
  950MOL0     C28168  10.867   4.318   2.032  0.1708  0.4850  0.1238
  950MOL0     C28169  10.824   4.299   2.162 -0.5514 -0.2808  0.8114
  950MOL0     C28170  10.491   4.163   2.420 -1.0028  0.3255 -0.4532
  950MOL0     C28171  10.365   4.227   2.433  0.1563  0.2457 -0.1589
  950MOL0     C28172  10.290   4.217   2.563 -0.3037  0.2450 -0.2273
  950MOL0     C28173  10.344   4.139   2.668 -0.3485 -0.9612 -0.3129
  950MOL0     O28174  10.272   4.143   2.780 -0.2123  0.7755 -0.5298
  950MOL0     C28175  10.326   4.114   2.917  0.2998 -0.1152  0.4257
  950MOL0     C28176  10.346   4.251   2.983 -0.9547 -0.4727 -0.0682
  950MOL0     C28177  10.240   4.298   3.080 -1.2272  0.3680  0.2214
  950MOL0     C28178  10.090   4.334   3.023 -1.1831 -0.8378 -0.1441
  950MOL0     C28179  10.088   4.456   2.934 -0.7985  0.1778  0.2001
  950MOL0     C28180  10.089   4.551   2.860 -0.2441 -0.6147  0.3294
  950MOL0     C28181  10.461   4.059   2.647  0.4914  0.0658 -0.3706
  950MOL0     C28182  10.534   4.067   2.519  0.1035 -0.9103  0.0553
  950MOL0     H28183  10.742   3.973   2.143  2.0851 -0.7521  1.1736
  950MOL0     H28184  10.799   4.006   1.906 -2.8213  1.8075 -1.4541
  950MOL0     H28185  10.870   4.234   1.615 -0.1523  1.8728  0.1207
  950MOL0     H28186  10.834   4.079   1.690 -2.9312  1.1366  0.2509
  950MOL0     H28187  10.617   4.157   1.776 -1.0711 -1.1929 -1.3135
  950MOL0     H28188  10.671   4.321   1.750  2.1790  1.0135 -1.1360
  950MOL0     H28189  10.668   4.139   1.517 -0.0521 -0.1721 -0.2730
  950MOL0     H28190  10.517   4.174   1.590  1.4893 -0.6123  0.8920
  950MOL0     H28191  10.556   4.422   1.532  1.9393  0.4640  1.1439
  950MOL0     H28192  10.714   4.377   1.472 -0.5782  2.0006  0.5714
  950MOL0     H28193  10.582   4.212   1.319 -1.1929  1.2845 -3.6877
  950MOL0     H28194  10.443   4.310   1.367 -0.2621 -0.3476 -0.2898
  950MOL0     H28195  10.525   4.506   1.278 -1.7978 -1.7797  2.1422
  950MOL0     H28196  10.683   4.445   1.224 -0.2691 -0.9086 -4.5517
  950MOL0     H28197  10.583   4.382   1.031  2.0607 -3.9949 -0.1978
  950MOL0     H28198  10.515   4.250   1.110  1.6908 -0.4220  0.0276
  950MOL0     H28199  10.375   4.500   1.051 -1.4626  0.4406  2.7437
  950MOL0     H28200  10.334   4.406   1.186 -0.2812 -1.2679  0.3288
  950MOL0     H28201  10.276   4.132   1.103  2.4838  1.1752 -0.8764
  950MOL0     H28202  10.114   3.975   0.991  1.2358  0.2920  0.0266
  950MOL0     H28203  10.015   4.026   0.852  0.4504 -0.0528  0.4152
  950MOL0     H28204  10.295   3.914   0.831  0.6905 -0.7527 -0.6583
  950MOL0     H28205  10.188   3.970   0.693 -1.2555 -0.3040  0.1435
  950MOL0     H28206  10.008   3.839   0.733 -2.6205 -0.4696  5.0363
  950MOL0     H28207  10.092   3.740   0.861  0.7878  0.3498  0.1046
  950MOL0     H28208  10.189   3.781   0.583  0.2034  1.0418  1.3856
  950MOL0     H28209  10.100   3.634   0.617 -2.0312  1.1139  0.1907
  950MOL0     H28210  10.073   3.504   0.779  0.5841  3.1390  2.6161
  950MOL0     H28211   9.969   3.300   0.839 -2.1643  1.1093  1.6240
  950MOL0     H28212  10.057   3.146   0.846 -0.4455  0.2498  0.9742
  950MOL0     H28213  10.026   3.224   0.997 -0.5246  2.2470 -0.5223
  950MOL0     H28214  10.406   3.061   1.251 -1.8055  1.8932 -4.7711
  950MOL0     H28215  10.472   2.848   1.351 -0.0632 -0.4107 -0.4759
  950MOL0     H28216  10.576   2.629   1.418  0.4541 -1.4993 -0.5589
  950MOL0     H28217  10.463   2.594   1.286  0.1095 -0.5623 -1.1291
  950MOL0     H28218  10.720   2.430   1.351  0.1391 -0.7701  2.0825
  950MOL0     H28219  10.544   2.408   1.405 -2.9492 -1.5381 -3.5978
  950MOL0     H28220  10.585   2.419   1.114  4.9780  0.0343 -0.0558
  950MOL0     H28221  10.458   2.338   1.215  0.2163  0.7708 -0.6271
  950MOL0     H28222  10.736   2.246   1.216  0.5312 -0.4046  0.2193
  950MOL0     H28223  10.590   2.172   1.293  2.2967 -0.9169  0.4262
  950MOL0     H28224  10.518   2.108   1.052  0.7360 -2.0185 -1.4486
  950MOL0     H28225  10.661   2.031   1.110 -0.0773 -1.0521 -1.2089
  950MOL0     H28226  10.641   2.284   0.940  2.3488  1.2330 -0.9088
  950MOL0     H28227  10.798   2.232   0.989 -1.4106  2.1256 -1.0817
  950MOL0     H28228  10.591   2.047   0.860  0.8697 -0.9876  2.4806
  950MOL0     H28229  10.766   2.023   0.861  1.7675  0.8784  0.6489
  950MOL0     H28230  10.817   2.160   0.714 -0.4379  1.3333  0.7019
  950MOL0     H28231  10.674   2.257   0.698 -0.2283  0.4208  2.1417
  950MOL0     H28232  10.662   2.742   0.982  1.0430 -0.8858  4.4116
  950MOL0     H28233  10.572   2.979   0.886  1.0434  4.2846  1.7376
  950MOL0     H28234  10.509   3.335   0.935 -1.6599 -2.6419  1.3491
  950MOL0     H28235  10.480   3.555   0.809 -0.7279  0.9081 -0.1897
  950MOL0     H28236  10.904   4.414   1.998 -1.5558  0.8678 -0.8342
  950MOL0     H28237  10.813   4.395   2.212  2.3067 -0.5054  2.0309
  950MOL0     H28238  10.328   4.284   2.349 -1.1033  1.5256  1.1952
  950MOL0     H28239  10.206   4.277   2.596 -0.0630 -0.8680  2.6657
  950MOL0     H28240  10.265   4.047   2.979  2.7646 -2.3924  0.5343
  950MOL0     H28241  10.418   4.056   2.917  0.2608 -0.1901  1.0027
  950MOL0     H28242  10.370   4.329   2.909  4.4453  0.1466  1.8575
  950MOL0     H28243  10.442   4.245   3.034 -1.1800 -0.9748  0.3022
  950MOL0     H28244  10.281   4.386   3.130 -1.3694  1.3760 -1.3607
  950MOL0     H28245  10.221   4.212   3.145 -0.1482  0.0026  0.0614
  950MOL0     H28246  10.029   4.336   3.113  0.2623 -3.8751  1.0725
  950MOL0     H28247  10.059   4.260   2.948  2.7589 -2.1793 -0.6807
  950MOL0     H28248  10.079   4.641   2.803  2.1108 -0.4158  0.1583
  950MOL0     H28249  10.508   4.010   2.732  1.4993  0.9899 -0.3753
  950MOL0     H28250  10.639   4.039   2.521  0.9013  1.7548  2.3449
  951MOL0     O28251   8.726   4.979   0.311 -0.2688  0.0667 -0.1104
  951MOL0     C28252   8.706   4.956   0.192  0.0805  0.4238 -1.0581
  951MOL0     O28253   8.718   4.835   0.135  0.4337  0.5815 -0.6159
  951MOL0     C28254   8.734   4.720   0.212 -0.1440 -0.4187  0.6174
  951MOL0     C28255   8.844   4.695   0.300 -0.0320 -0.2744 -0.0586
  951MOL0     C28256   8.849   4.585   0.385 -0.1040  1.2660 -0.0222
  951MOL0     C28257   8.746   4.487   0.371  0.2102 -0.8517 -0.3258
  951MOL0     O28258   8.739   4.366   0.438  0.1740  0.0765  0.8249
  951MOL0     C28259   8.844   4.326   0.525 -0.1818  0.6707 -0.3223
  951MOL0     C28260   8.825   4.176   0.574  0.0865  1.1254  0.3642
  951MOL0     C28261   8.906   4.132   0.695 -0.5389  0.2887  0.3466
  951MOL0     C28262   8.872   4.209   0.820 -0.2319 -0.1238 -0.3692
  951MOL0     C28263   8.963   4.149   0.925 -0.4103  1.0038  0.2791
  951MOL0     C28264   8.963   4.246   1.042 -0.1314 -0.4466 -0.1764
  951MOL0     C28265   9.070   4.196   1.132 -0.5280 -0.1314  0.0871
  951MOL0     C28266   9.092   4.265   1.278  0.1704 -0.1900  0.0527
  951MOL0     N28267   9.204   4.203   1.354 -0.3101 -0.2402  0.6526
  951MOL0     C28268   9.205   4.083   1.424 -1.1879  0.9346 -0.5185
  951MOL0     C28269   9.326   4.046   1.462 -0.0463  0.4959 -1.0568
  951MOL0     C28270   9.367   3.926   1.553  0.2184 -0.1213 -0.1957
  951MOL0     C28271   9.463   3.824   1.487  0.6253 -0.1379  0.3701
  951MOL0     C28272   9.523   3.709   1.575  0.3086 -0.2755 -1.0088
  951MOL0     C28273   9.576   3.773   1.708  0.3392 -0.1586 -0.0764
  951MOL0     O28274   9.667   3.872   1.673 -0.6012 -0.2889 -0.5978
  951MOL0     C28275   9.679   3.982   1.739 -0.1030  0.2593 -0.4732
  951MOL0     C28276   9.630   4.005   1.867  0.1642  0.6041 -0.4436
  951MOL0     C28277   9.663   4.120   1.936  0.1287 -0.5776  0.4023
  951MOL0     C28278   9.614   4.131   2.083 -0.5371  0.1568 -0.2067
  951MOL0     C28279   9.735   4.224   1.877  1.6071  0.0659  0.3386
  951MOL0     C28280   9.756   4.357   1.937 -0.6203  0.3014  1.1901
  951MOL0     O28281   9.736   4.383   2.075  0.2590  0.7828 -0.2337
  951MOL0     C28282   9.706   4.515   2.125 -0.2571  0.1001  0.2537
  951MOL0     C28283   9.591   4.584   2.079 -0.0790 -0.8649  0.2318
  951MOL0     C28284   9.542   4.691   2.145 -0.2700 -0.5811  0.6424
  951MOL0     C28285   9.611   4.754   2.244  0.5821  0.4218 -0.3148
  951MOL0     O28286   9.579   4.881   2.295 -0.4982 -0.6283 -0.3602
  951MOL0     C28287   9.457   4.942   2.252  0.5111  0.1884  0.9169
  951MOL0     C28288   9.439   5.083   2.315 -0.2851  0.0335 -0.7604
  951MOL0     C28289   9.448   5.080   2.471 -0.2970  0.0468 -0.2345
  951MOL0     C28290   9.326   5.144   2.540  0.0713  0.7443  0.6963
  951MOL0     C28291   9.359   5.180   2.687  0.6799 -0.4057  0.3826
  951MOL0     C28292   9.230   5.203   2.778 -0.1237  0.6575 -0.7127
  951MOL0     C28293   9.254   5.273   2.909 -0.2071  0.4908  0.9565
  951MOL0     C28294   9.304   5.419   2.892 -0.1042 -0.3438 -0.8969
  951MOL0    Cl28295   9.315   5.475   3.068 -0.3395  0.2518  0.1275
  951MOL0     C28296   9.733   4.691   2.291  0.2222 -0.2738  0.0405
  951MOL0     C28297   9.784   4.578   2.226  0.4181  0.1380 -0.4074
  951MOL0     O28298   9.765   4.437   1.852 -0.0528 -0.1149 -1.3712
  951MOL0     C28299   9.774   4.203   1.743  0.1906 -0.5070  0.4802
  951MOL0     C28300   9.756   4.081   1.680  0.0910 -0.9834 -0.3552
  951MOL0     N28301   9.408   4.152   1.424  0.6350  0.2178 -0.2573
  951MOL0     N28302   9.338   4.243   1.362  0.1599  0.2710  0.5867
  951MOL0     C28303   8.644   4.508   0.271  0.4706  0.0858 -0.7646
  951MOL0     C28304   8.641   4.627   0.190  0.0445 -0.0111 -1.0767
  951MOL0     C28305   8.694   5.069   0.094 -0.6367 -0.6460 -0.1073
  951MOL0     C28306   8.705   5.211   0.125  1.1308  0.1824  0.0086
  951MOL0     C28307   8.723   5.312   0.027  0.5670 -1.3723  0.6177
  951MOL0     C28308   8.720   5.265  -0.110  0.3805 -0.7657  0.3430
  951MOL0     O28309   8.752   5.355  -0.214  0.3196  1.2368 -0.5584
  951MOL0     C28310   8.651   5.454  -0.261  0.2298 -0.0792 -0.0003
  951MOL0     C28311   8.704   5.551  -0.369  0.0542  0.4346  0.4093
  951MOL0     C28312   8.841   5.597  -0.314  0.3452  0.6412 -0.5510
  951MOL0     C28313   8.903   5.707  -0.408  0.5354  0.2369 -0.3689
  951MOL0     C28314   9.034   5.764  -0.376 -0.4930  0.2515  0.0412
  951MOL0     C28315   9.118   5.842  -0.344  0.6187 -0.9996  0.1495
  951MOL0     C28316   8.686   5.128  -0.143 -1.1789  0.2771 -0.7288
  951MOL0     C28317   8.676   5.032  -0.042  0.1286 -0.1263 -0.2998
  951MOL0     H28318   8.916   4.774   0.316  2.8950 -2.6967 -0.3428
  951MOL0     H28319   8.927   4.557   0.455  0.5755  0.0173 -1.2364
  951MOL0     H28320   8.939   4.346   0.475  1.2747 -2.4765  0.9230
  951MOL0     H28321   8.842   4.394   0.610  0.8550 -2.1699  2.1397
  951MOL0     H28322   8.721   4.154   0.599 -0.0671  1.8368  0.3623
  951MOL0     H28323   8.864   4.114   0.493  1.1423  0.2982  1.4757
  951MOL0     H28324   8.879   4.029   0.720  1.3305 -0.0544  1.0461
  951MOL0     H28325   9.012   4.120   0.675 -1.0203 -0.7887 -1.9625
  951MOL0     H28326   8.903   4.312   0.803  1.0793 -0.8789 -3.1105
  951MOL0     H28327   8.764   4.204   0.837 -0.0541 -2.1082  0.5708
  951MOL0     H28328   8.931   4.047   0.950 -1.9738  0.6271 -2.8317
  951MOL0     H28329   9.066   4.142   0.889 -0.5925  0.5016 -0.1616
  951MOL0     H28330   8.989   4.347   1.008 -1.2059  1.2762  3.5950
  951MOL0     H28331   8.869   4.236   1.095  0.3252 -2.0314  0.3877
  951MOL0     H28332   9.049   4.091   1.154  2.1161 -1.0997 -1.4989
  951MOL0     H28333   9.169   4.199   1.085  0.6858 -3.9302  1.9753
  951MOL0     H28334   9.009   4.253   1.348 -1.8344 -3.3533 -2.5577
  951MOL0     H28335   9.105   4.372   1.257 -1.9020 -0.3530 -2.7498
  951MOL0     H28336   9.114   4.027   1.437 -0.5746 -0.0687 -0.4743
  951MOL0     H28337   9.408   3.951   1.651 -0.8907 -1.7282  0.7286
  951MOL0     H28338   9.274   3.872   1.573  0.4417 -0.6726 -0.6296
  951MOL0     H28339   9.539   3.886   1.439 -1.4936  0.7015 -2.0933
  951MOL0     H28340   9.414   3.788   1.397 -1.3076  3.0398  0.0097
  951MOL0     H28341   9.610   3.666   1.526  0.3433  0.3035 -1.4689
  951MOL0     H28342   9.453   3.629   1.601 -0.4922  1.2243  1.8381
  951MOL0     H28343   9.628   3.699   1.769 -0.2062 -0.8880 -0.4845
  951MOL0     H28344   9.506   3.815   1.780  1.2999  3.2862 -0.9421
  951MOL0     H28345   9.563   3.930   1.908 -1.8657  0.6522 -3.3668
  951MOL0     H28346   9.590   4.034   2.127  2.4556  0.2248  1.8938
  951MOL0     H28347   9.692   4.166   2.151  0.7930 -3.1765  0.1736
  951MOL0     H28348   9.528   4.198   2.089  0.3787  1.2095  2.8529
  951MOL0     H28349   9.528   4.527   2.012 -2.2939  1.4054  0.2829
  951MOL0     H28350   9.442   4.717   2.113 -0.2786 -0.9860  0.3277
  951MOL0     H28351   9.461   4.940   2.142  0.2616 -0.0496  0.9093
  951MOL0     H28352   9.360   4.896   2.273 -0.5458  0.7738 -2.1758
  951MOL0     H28353   9.517   5.150   2.278 -0.9237  0.4592 -1.3572
  951MOL0     H28354   9.346   5.128   2.278  0.4188  2.0342 -0.1775
  951MOL0     H28355   9.542   5.131   2.492 -0.9930  0.1214  3.1858
  951MOL0     H28356   9.457   4.977   2.507  0.7107 -0.2242 -1.1936
  951MOL0     H28357   9.297   5.237   2.490 -0.1036 -0.6411 -1.9167
  951MOL0     H28358   9.236   5.082   2.546  0.5066 -0.0390  7.4731
  951MOL0     H28359   9.432   5.261   2.694 -0.0785  0.5551 -1.8422
  951MOL0     H28360   9.410   5.098   2.738  0.3839 -0.1946  1.0220
  951MOL0     H28361   9.161   5.269   2.725 -0.6111  0.5058 -0.2751
  951MOL0     H28362   9.174   5.110   2.792  0.8641  0.1575 -0.0071
  951MOL0     H28363   9.319   5.205   2.964  0.1991 -0.0106 -0.1170
  951MOL0     H28364   9.157   5.281   2.960  1.0020  0.0277  3.4613
  951MOL0     H28365   9.234   5.473   2.828  1.0640  0.0852 -1.8712
  951MOL0     H28366   9.407   5.415   2.855  1.4243 -1.8025  2.9965
  951MOL0     H28367   9.791   4.737   2.371  1.9585 -1.7572 -0.2881
  951MOL0     H28368   9.867   4.515   2.258 -1.1373 -2.2330 -0.7699
  951MOL0     H28369   9.818   4.286   1.689  0.6241  0.1347  1.7730
  951MOL0     H28370   9.792   4.071   1.578 -0.9474  0.9896 -0.9733
  951MOL0     H28371   8.567   4.433   0.254 -2.0481  2.6803 -1.5165
  951MOL0     H28372   8.567   4.650   0.114 -0.9655 -0.4719 -0.2471
  951MOL0     H28373   8.722   5.240   0.228  1.1327 -3.2584  1.1039
  951MOL0     H28374   8.752   5.413   0.055  1.5337 -0.8702 -1.9711
  951MOL0     H28375   8.575   5.396  -0.314 -1.4180  1.2154  0.8505
  951MOL0     H28376   8.609   5.511  -0.177  1.0557  0.2205  0.2261
  951MOL0     H28377   8.634   5.633  -0.389 -0.9826 -1.2075 -3.9613
  951MOL0     H28378   8.732   5.499  -0.461  1.6839  0.1746  1.0131
  951MOL0     H28379   8.901   5.506  -0.307 -3.1769 -1.7439  1.5188
  951MOL0     H28380   8.825   5.632  -0.211 -4.0263 -0.8004 -0.5535
  951MOL0     H28381   8.829   5.784  -0.431 -0.2143 -1.2809 -3.4990
  951MOL0     H28382   8.917   5.656  -0.503  0.9534 -0.6153  0.1302
  951MOL0     H28383   9.203   5.904  -0.321  1.0088 -2.3829  2.8028
  951MOL0     H28384   8.681   5.099  -0.247  0.7824 -5.4240  0.4408
  951MOL0     H28385   8.665   4.931  -0.080  5.9427  0.1697 -3.9681
  952MOL0     O28386   0.571   5.345   8.505 -0.1519 -0.2325 -0.0819
  952MOL0     C28387   0.504   5.313   8.403  0.1938  0.3757 -0.4361
  952MOL0     O28388   0.550   5.307   8.271 -0.2210 -0.2095 -0.0263
  952MOL0     C28389   0.683   5.336   8.251  0.6863  0.2942  0.3352
  952MOL0     C28390   0.777   5.234   8.267 -0.1690  0.1446 -0.0385
  952MOL0     C28391   0.909   5.256   8.224  0.2780  0.2053  0.5716
  952MOL0     C28392   0.945   5.380   8.178  0.0803 -1.2170  0.1862
  952MOL0     O28393   1.082   5.394   8.159 -0.2041 -0.1044 -0.2926
  952MOL0     C28394   1.130   5.511   8.091  0.0077  0.1489 -0.2435
  952MOL0     C28395   1.246   5.455   8.017  0.1924 -0.4435 -0.0750
  952MOL0     C28396   1.301   5.574   7.927 -0.1303 -0.2825  0.3659
  952MOL0     C28397   1.425   5.549   7.857 -0.9936  0.6659  0.1336
  952MOL0     C28398   1.499   5.677   7.817  0.4084 -0.7628 -0.3334
  952MOL0     C28399   1.572   5.745   7.931  0.4758  0.0165 -0.6181
  952MOL0     C28400   1.656   5.864   7.901 -0.2752 -0.5874  0.9519
  952MOL0     C28401   1.805   5.827   7.889 -0.6426 -0.1102  0.5169
  952MOL0     N28402   1.901   5.937   7.887 -0.6077  0.0122  0.3136
  952MOL0     C28403   1.905   6.024   7.988  0.0220 -0.0992 -0.5706
  952MOL0     C28404   2.029   6.071   7.977  0.1363 -1.0199  0.3588
  952MOL0     C28405   2.076   6.167   8.073 -0.2184 -0.5323 -0.0340
  952MOL0     C28406   2.225   6.176   8.102 -0.8074 -0.5785  0.3159
  952MOL0     C28407   2.247   6.288   8.201 -0.3901  0.4353 -0.8698
  952MOL0     C28408   2.395   6.325   8.249  1.1153  0.4318 -0.3103
  952MOL0     O28409   2.469   6.356   8.128 -0.2787 -0.2467 -0.6488
  952MOL0     C28410   2.502   6.493   8.116 -0.4752 -0.1373  0.3855
  952MOL0     C28411   2.601   6.549   8.194 -0.1102  0.4150  0.1880
  952MOL0     C28412   2.652   6.684   8.168  0.3351 -0.1963  1.7692
  952MOL0     C28413   2.758   6.755   8.263  0.3049  0.0790 -0.5936
  952MOL0     C28414   2.612   6.744   8.042  0.3105 -0.3345  0.2078
  952MOL0     C28415   2.631   6.886   8.003 -0.0144 -0.0609 -0.1171
  952MOL0     O28416   2.750   6.947   8.031  0.8943  1.2694 -0.5696
  952MOL0     C28417   2.752   7.074   7.994 -0.1944 -0.1422  0.6404
  952MOL0     C28418   2.717   7.170   8.083 -0.7763  0.3191 -0.0096
  952MOL0     C28419   2.733   7.302   8.061  0.1379 -0.4079  0.5104
  952MOL0     C28420   2.791   7.354   7.935  0.3669  0.2848 -0.3531
  952MOL0     O28421   2.825   7.484   7.924 -0.7060 -0.1952 -0.4005
  952MOL0     C28422   2.891   7.523   7.801  0.4007 -0.4420  0.9631
  952MOL0     C28423   2.944   7.667   7.802  0.4620  0.0489  0.5015
  952MOL0     C28424   3.049   7.693   7.919  0.0658 -0.2987 -0.3466
  952MOL0     C28425   3.091   7.596   8.027  0.1308  0.5631 -0.6067
  952MOL0     C28426   3.224   7.645   8.103 -0.0451 -0.0161 -1.2764
  952MOL0     C28427   3.196   7.771   8.181 -0.5725 -0.6345 -1.2281
  952MOL0     C28428   3.309   7.831   8.270 -0.3748 -0.7013 -0.4722
  952MOL0     C28429   3.262   7.929   8.371 -0.4365 -0.2164  0.3408
  952MOL0    Cl28430   3.391   7.966   8.489  0.3502  0.0560 -0.0782
  952MOL0     C28431   2.814   7.253   7.842 -0.5446  1.4311  0.2308
  952MOL0     C28432   2.792   7.114   7.869 -0.2727 -0.0203  0.0262
  952MOL0     O28433   2.533   6.935   7.937  0.6705  0.1592 -0.0998
  952MOL0     C28434   2.521   6.667   7.962  0.0439 -0.6096  0.0154
  952MOL0     C28435   2.460   6.548   7.997 -1.4602 -0.1898  0.1649
  952MOL0     N28436   2.092   6.032   7.858 -0.4038 -0.2151  0.1910
  952MOL0     N28437   2.013   5.940   7.810 -0.6342  0.1986 -0.0092
  952MOL0     C28438   0.852   5.486   8.162  0.2916 -0.6300  0.0552
  952MOL0     C28439   0.717   5.466   8.204 -0.8231 -0.3679  0.6285
  952MOL0     C28440   0.362   5.268   8.412 -0.0479  0.1930 -1.2346
  952MOL0     C28441   0.274   5.277   8.300  0.6409 -0.3702 -0.2784
  952MOL0     C28442   0.144   5.224   8.316  0.4891 -0.0280 -0.1502
  952MOL0     C28443   0.102   5.149   8.432 -0.2734 -0.0741  0.5934
  952MOL0     O28444  -0.033   5.109   8.448 -0.4122 -0.7446 -0.6017
  952MOL0     C28445  -0.107   5.172   8.558  0.2225  0.1300  0.9232
  952MOL0     C28446  -0.214   5.255   8.499 -0.5443  0.0711  0.8851
  952MOL0     C28447  -0.306   5.185   8.400  0.0587  0.6471 -0.2630
  952MOL0     C28448  -0.403   5.283   8.321 -0.3884  0.4886 -0.9025
  952MOL0     C28449  -0.355   5.309   8.186 -0.3379 -0.3591 -0.6635
  952MOL0     C28450  -0.337   5.324   8.069  0.3062  0.3780 -0.4784
  952MOL0     C28451   0.192   5.126   8.538  0.4941 -0.9640  0.5362
  952MOL0     C28452   0.317   5.193   8.526 -0.3958 -0.7333 -0.6483
  952MOL0     H28453   0.734   5.139   8.296 -1.6306  0.7986 -0.0024
  952MOL0     H28454   0.981   5.177   8.242 -1.2224 -1.3446  0.0727
  952MOL0     H28455   1.057   5.551   8.019 -0.1761 -1.5732 -1.0682
  952MOL0     H28456   1.179   5.575   8.165  1.8846 -3.5662  2.0268
  952MOL0     H28457   1.332   5.440   8.084  1.0255 -2.0295 -1.4287
  952MOL0     H28458   1.229   5.354   7.978  0.5685 -0.9054  0.9000
  952MOL0     H28459   1.221   5.588   7.854 -0.6132 -0.3006  0.8829
  952MOL0     H28460   1.321   5.657   7.995  1.3614  0.1148 -0.5110
  952MOL0     H28461   1.497   5.492   7.916 -1.6497 -0.6745 -0.3254
  952MOL0     H28462   1.393   5.486   7.774 -2.2303 -2.1145  2.5483
  952MOL0     H28463   1.571   5.658   7.737 -0.2028  0.3992 -1.2031
  952MOL0     H28464   1.431   5.755   7.778 -2.5333 -1.0726  3.5592
  952MOL0     H28465   1.498   5.783   8.003  1.0799 -0.3472  0.2097
  952MOL0     H28466   1.636   5.666   7.971 -0.7930 -1.7579 -1.9589
  952MOL0     H28467   1.625   5.921   7.813  1.8085  1.2382  1.3189
  952MOL0     H28468   1.652   5.932   7.986  2.4697 -0.7668  1.3117
  952MOL0     H28469   1.822   5.769   7.798  0.5705  2.0595 -0.7292
  952MOL0     H28470   1.831   5.761   7.972 -1.3718 -0.7710  0.2352
  952MOL0     H28471   1.829   6.043   8.063  0.1078 -0.5140 -0.3782
  952MOL0     H28472   2.045   6.267   8.043 -0.4606  0.1931  2.4353
  952MOL0     H28473   2.028   6.146   8.170  1.6557 -1.3329  0.7789
  952MOL0     H28474   2.282   6.204   8.013 -2.3573 -1.6219 -1.0661
  952MOL0     H28475   2.265   6.079   8.135  1.2575 -0.9260 -2.7626
  952MOL0     H28476   2.198   6.244   8.288  1.3602 -3.5771 -1.6699
  952MOL0     H28477   2.202   6.380   8.164  0.1321  0.8491 -0.4938
  952MOL0     H28478   2.428   6.238   8.307 -0.6750  1.8650  3.1899
  952MOL0     H28479   2.384   6.406   8.322 -1.6752  1.0264 -1.2698
  952MOL0     H28480   2.635   6.494   8.281  1.0626  1.2500  0.2891
  952MOL0     H28481   2.769   6.863   8.249 -2.1665  0.0962 -3.4403
  952MOL0     H28482   2.720   6.739   8.364  1.3529 -0.2428 -0.2396
  952MOL0     H28483   2.853   6.702   8.260 -0.2421 -1.3888  2.9127
  952MOL0     H28484   2.679   7.144   8.182  0.0062 -3.9370 -0.6107
  952MOL0     H28485   2.711   7.381   8.132 -3.1333 -0.2694 -0.4623
  952MOL0     H28486   2.975   7.454   7.788 -0.7767 -1.5743 -1.4526
  952MOL0     H28487   2.829   7.510   7.711  1.8568 -1.7064  0.0824
  952MOL0     H28488   2.992   7.681   7.705 -0.7154  2.5706  0.1959
  952MOL0     H28489   2.856   7.732   7.810  1.0165  0.6221  2.6399
  952MOL0     H28490   3.018   7.788   7.964 -1.3967  0.6557 -3.1730
  952MOL0     H28491   3.137   7.709   7.855 -3.4848 -0.5610 -5.9315
  952MOL0     H28492   3.010   7.574   8.097  2.2831 -1.0252  1.5808
  952MOL0     H28493   3.117   7.503   7.974 -0.7497  2.2009 -4.2222
  952MOL0     H28494   3.304   7.659   8.031 -0.5148  3.1734 -1.3038
  952MOL0     H28495   3.249   7.573   8.182 -3.9942  1.0377  1.2260
  952MOL0     H28496   3.167   7.858   8.121 -0.3830  0.3928  0.1383
  952MOL0     H28497   3.111   7.751   8.248 -0.9920 -0.8597 -1.8154
  952MOL0     H28498   3.388   7.884   8.217  1.9103 -2.6597  0.7736
  952MOL0     H28499   3.351   7.748   8.328 -0.1119  0.8894  1.7658
  952MOL0     H28500   3.187   7.882   8.436 -1.5495 -1.3091 -1.6172
  952MOL0     H28501   3.217   8.023   8.336  0.1671  0.8425  2.3077
  952MOL0     H28502   2.853   7.270   7.742 -2.7519 -0.0251 -0.9578
  952MOL0     H28503   2.837   7.037   7.807  0.8634  1.0897 -0.5723
  952MOL0     H28504   2.495   6.705   7.864  0.7130 -0.8262 -0.2489
  952MOL0     H28505   2.398   6.505   7.919  1.2366  0.6537 -2.6647
  952MOL0     H28506   0.887   5.586   8.137  2.4733 -0.3117  3.7081
  952MOL0     H28507   0.642   5.540   8.179 -0.3878 -0.3184 -0.5561
  952MOL0     H28508   0.302   5.313   8.202  1.2405  1.3586  0.4916
  952MOL0     H28509   0.091   5.225   8.221  0.8235 -3.1651 -0.5041
  952MOL0     H28510  -0.160   5.088   8.604  2.3282 -1.9415 -0.2375
  952MOL0     H28511  -0.045   5.235   8.623 -1.0893  3.1292 -0.5374
  952MOL0     H28512  -0.153   5.337   8.461  1.4872 -1.4203  0.7267
  952MOL0     H28513  -0.282   5.281   8.580 -2.1148 -2.4742  0.5064
  952MOL0     H28514  -0.368   5.124   8.466  0.5056  1.4972  0.9772
  952MOL0     H28515  -0.258   5.123   8.325  4.5058  2.3166  0.9129
  952MOL0     H28516  -0.418   5.378   8.374 -0.8423 -0.3538  0.5612
  952MOL0     H28517  -0.500   5.234   8.309 -0.4387  0.0926  0.7917
  952MOL0     H28518  -0.324   5.344   7.964  2.9167  2.1410  0.0629
  952MOL0     H28519   0.170   5.067   8.626 -0.8480 -0.6771  0.4145
  952MOL0     H28520   0.389   5.180   8.606 -0.6267  1.0799 -0.0988
  953MOL0     O28521   4.263   5.207   8.793  0.0791  0.3739 -0.2804
  953MOL0     C28522   4.212   5.317   8.818  0.8328  0.8440 -0.6282
  953MOL0     O28523   4.099   5.372   8.754  0.4624  0.0781 -0.1921
  953MOL0     C28524   4.044   5.334   8.635 -0.8397 -0.4994  0.7301
  953MOL0     C28525   4.100   5.239   8.544  0.0662 -0.0308 -0.0027
  953MOL0     C28526   4.048   5.233   8.409  0.5682 -0.8347 -0.3343
  953MOL0     C28527   3.928   5.287   8.378 -0.8866 -0.4756  0.5018
  953MOL0     O28528   3.888   5.263   8.251  0.2475  0.0342 -0.8124
  953MOL0     C28529   3.776   5.330   8.203  0.1955  0.5546 -1.1690
  953MOL0     C28530   3.770   5.311   8.050  0.1697  0.0150 -0.6964
  953MOL0     C28531   3.771   5.159   8.007 -0.8169  0.1985  0.1581
  953MOL0     C28532   3.773   5.142   7.858 -0.0442  1.1368 -0.9207
  953MOL0     C28533   3.902   5.200   7.794 -0.5381  0.3340 -0.8739
  953MOL0     C28534   4.032   5.146   7.850 -0.1126 -0.4074  0.0524
  953MOL0     C28535   4.154   5.207   7.774  0.3194 -0.1934 -1.0839
  953MOL0     C28536   4.282   5.131   7.781 -0.7731 -0.5746 -0.4746
  953MOL0     N28537   4.371   5.181   7.891  0.0486  0.4180  0.1440
  953MOL0     C28538   4.332   5.169   8.027 -0.6631 -0.7363  0.2812
  953MOL0     C28539   4.441   5.222   8.096 -0.9677  0.4973  0.6944
  953MOL0     C28540   4.466   5.234   8.243  0.2416 -0.8003  0.2955
  953MOL0     C28541   4.571   5.125   8.274  0.5654  0.2388  0.2998
  953MOL0     C28542   4.610   5.148   8.420 -0.2962  0.3691  0.1751
  953MOL0     C28543   4.730   5.053   8.456  0.1789 -0.0575  0.1890
  953MOL0     O28544   4.738   4.928   8.384  1.0068 -0.1881  0.1730
  953MOL0     C28545   4.646   4.830   8.422  0.4332  0.0880 -0.7549
  953MOL0     C28546   4.676   4.707   8.355 -0.1024 -0.6496  0.2321
  953MOL0     C28547   4.605   4.591   8.384 -0.5486 -0.4943  0.3505
  953MOL0     C28548   4.640   4.482   8.283  0.7696 -0.2749 -0.5410
  953MOL0     C28549   4.523   4.583   8.496 -0.6926 -0.3985  0.4546
  953MOL0     C28550   4.462   4.456   8.550 -0.0682 -0.6496 -0.2940
  953MOL0     O28551   4.510   4.338   8.505 -0.1686  0.2003  0.4844
  953MOL0     C28552   4.452   4.229   8.553  0.0637  0.1796 -0.4196
  953MOL0     C28553   4.492   4.177   8.679 -0.1661 -0.2336 -0.3256
  953MOL0     C28554   4.441   4.057   8.721 -0.6355 -0.8671 -0.4662
  953MOL0     C28555   4.354   3.979   8.643 -0.4781  0.3256  0.4418
  953MOL0     O28556   4.311   3.844   8.676  0.2802 -0.1942  0.0006
  953MOL0     C28557   4.418   3.749   8.678 -0.6716  1.1485 -0.0718
  953MOL0     C28558   4.421   3.665   8.545 -0.4971  0.5264  0.5052
  953MOL0     C28559   4.317   3.553   8.550 -0.7259  0.5266 -0.5589
  953MOL0     C28560   4.298   3.480   8.419 -0.8904 -0.0316 -0.2096
  953MOL0     C28561   4.419   3.383   8.394 -0.2001 -1.0994 -0.2829
  953MOL0     C28562   4.395   3.296   8.271  0.3716  0.2152 -0.5480
  953MOL0     C28563   4.527   3.258   8.201  1.2960 -0.1882  0.1734
  953MOL0     C28564   4.518   3.155   8.089  0.6987  0.8725 -0.4592
  953MOL0    Cl28565   4.348   3.151   8.016 -0.0395 -0.2658  0.0737
  953MOL0     C28566   4.301   4.042   8.516 -0.1588 -0.0814  0.2370
  953MOL0     C28567   4.359   4.163   8.466 -0.4485  0.7117  0.3331
  953MOL0     O28568   4.377   4.474   8.632 -0.3126 -0.2448 -0.8978
  953MOL0     C28569   4.499   4.701   8.569 -0.0396 -0.1747 -0.9140
  953MOL0     C28570   4.553   4.833   8.527 -0.1689  1.5539 -0.9802
  953MOL0     N28571   4.531   5.259   8.005 -0.4737  0.1617  0.1683
  953MOL0     N28572   4.500   5.226   7.882 -0.0634 -0.2283 -0.5846
  953MOL0     C28573   3.864   5.370   8.474  0.0870  0.1429  0.9341
  953MOL0     C28574   3.925   5.393   8.595 -0.1608  0.1152 -1.0042
  953MOL0     C28575   4.266   5.387   8.933  1.7140  0.3087  1.2697
  953MOL0     C28576   4.390   5.355   8.987  0.4055  0.4579 -0.4053
  953MOL0     C28577   4.436   5.436   9.090 -0.3166  1.0594 -0.9004
  953MOL0     C28578   4.363   5.549   9.141 -0.3168 -0.2238  0.1441
  953MOL0     O28579   4.385   5.630   9.252  0.1949 -0.2213  0.2746
  953MOL0     C28580   4.513   5.604   9.315  0.6984 -0.4461  0.2415
  953MOL0     C28581   4.527   5.708   9.421  0.1771 -0.6589  0.3519
  953MOL0     C28582   4.428   5.702   9.543 -0.5752  1.0232  0.3762
  953MOL0     C28583   4.421   5.559   9.617 -0.5919 -0.2829 -0.8930
  953MOL0     C28584   4.363   5.563   9.752  0.9130  0.4753  0.0512
  953MOL0     C28585   4.311   5.573   9.858  0.9517 -0.3810  0.6234
  953MOL0     C28586   4.236   5.574   9.084  0.7911  0.1286 -0.9591
  953MOL0     C28587   4.182   5.484   8.982 -0.4352 -0.6213 -0.5094
  953MOL0     H28588   4.195   5.191   8.565  1.4879  2.8983  0.7830
  953MOL0     H28589   4.101   5.182   8.329 -0.6137  1.1214 -2.4839
  953MOL0     H28590   3.693   5.282   8.256  0.9560 -2.9645 -2.8615
  953MOL0     H28591   3.778   5.437   8.222  0.9588  0.8115 -2.5606
  953MOL0     H28592   3.690   5.368   8.003 -1.7887 -1.2290  0.9780
  953MOL0     H28593   3.863   5.358   8.018  0.9501  1.8234  3.5053
  953MOL0     H28594   3.851   5.102   8.055 -1.2918  0.6321  1.5083
  953MOL0     H28595   3.679   5.109   8.038  1.0696 -3.3512  0.5219
  953MOL0     H28596   3.771   5.033   7.850  1.8414  0.9283  0.7269
  953MOL0     H28597   3.682   5.184   7.814  0.2170  1.8256 -0.8099
  953MOL0     H28598   3.897   5.190   7.685  2.7882 -0.6314 -1.0409
  953MOL0     H28599   3.894   5.309   7.801 -0.8474  0.1828  2.8686
  953MOL0     H28600   4.043   5.171   7.956 -1.3246  1.1022 -0.1454
  953MOL0     H28601   4.037   5.037   7.846 -0.4131 -0.4506  0.6635
  953MOL0     H28602   4.123   5.205   7.669  0.9003  0.8654 -1.2853
  953MOL0     H28603   4.168   5.314   7.792 -0.8694 -0.0801 -0.7378
  953MOL0     H28604   4.342   5.138   7.690  0.5911 -0.4005  0.4140
  953MOL0     H28605   4.269   5.024   7.802 -0.5890 -0.7882 -1.4098
  953MOL0     H28606   4.242   5.122   8.066 -3.0650  0.6018 -3.1362
  953MOL0     H28607   4.506   5.333   8.265 -0.6145 -0.0873 -1.2125
  953MOL0     H28608   4.365   5.220   8.283 -0.7232  1.2265 -1.2580
  953MOL0     H28609   4.663   5.116   8.214 -0.1050 -0.9904 -0.5882
  953MOL0     H28610   4.518   5.030   8.267  0.4381  0.1712  1.8844
  953MOL0     H28611   4.520   5.118   8.474  0.6129 -2.4744  0.2910
  953MOL0     H28612   4.635   5.253   8.432 -1.3074  0.7564 -0.8386
  953MOL0     H28613   4.732   5.031   8.563  3.6952  3.9648  1.2207
  953MOL0     H28614   4.812   5.123   8.437  0.4768 -0.4617 -0.0300
  953MOL0     H28615   4.754   4.713   8.280  3.1459 -0.7003  3.3761
  953MOL0     H28616   4.689   4.529   8.198  0.8478  2.7299  1.0178
  953MOL0     H28617   4.696   4.409   8.341  0.3381  1.1592  1.8605
  953MOL0     H28618   4.550   4.427   8.252 -0.9257  0.7545  2.1288
  953MOL0     H28619   4.555   4.241   8.740 -0.4105 -0.1673 -0.1470
  953MOL0     H28620   4.458   4.021   8.822 -0.6038 -0.8622 -0.4702
  953MOL0     H28621   4.512   3.804   8.686  0.9110 -1.4024  0.1175
  953MOL0     H28622   4.410   3.692   8.771  0.5255  2.6647  1.0008
  953MOL0     H28623   4.406   3.737   8.464  2.4293  0.2330 -0.4053
  953MOL0     H28624   4.525   3.636   8.533 -0.7844  0.4926 -2.6677
  953MOL0     H28625   4.218   3.593   8.576 -0.3803  1.1990 -0.2578
  953MOL0     H28626   4.347   3.479   8.624 -0.4939  1.0469 -0.1246
  953MOL0     H28627   4.202   3.430   8.432 -1.7708  1.2909 -1.2505
  953MOL0     H28628   4.300   3.557   8.341  2.2874 -1.7548 -2.0526
  953MOL0     H28629   4.426   3.311   8.476 -2.4588 -0.3941  0.5954
  953MOL0     H28630   4.515   3.435   8.387 -0.3968 -0.6316  0.4130
  953MOL0     H28631   4.334   3.213   8.307  0.0063  0.5243 -0.4456
  953MOL0     H28632   4.330   3.348   8.200 -0.8775  0.9648  1.0638
  953MOL0     H28633   4.604   3.223   8.270  0.3661 -2.9521 -0.0696
  953MOL0     H28634   4.573   3.345   8.153  2.5110 -1.3760 -0.9047
  953MOL0     H28635   4.542   3.059   8.134 -1.1268 -0.2910 -1.8140
  953MOL0     H28636   4.587   3.180   8.007 -0.8881 -2.1687 -2.9589
  953MOL0     H28637   4.217   3.999   8.461 -0.4937  0.6455  0.1668
  953MOL0     H28638   4.328   4.221   8.380 -2.7613  1.8755  1.8170
  953MOL0     H28639   4.430   4.710   8.651 -1.4303  3.9000 -2.2727
  953MOL0     H28640   4.521   4.925   8.575 -1.8401  0.6032 -0.1743
  953MOL0     H28641   3.773   5.423   8.448  0.1486 -0.5294 -0.7938
  953MOL0     H28642   3.883   5.464   8.666  3.6234  1.5191  0.0876
  953MOL0     H28643   4.448   5.271   8.951 -1.6705 -0.4457 -1.8465
  953MOL0     H28644   4.533   5.416   9.135 -1.2704 -0.7167  0.4976
  953MOL0     H28645   4.512   5.506   9.364 -3.3277  1.4414  4.7843
  953MOL0     H28646   4.593   5.612   9.241  1.5646 -0.1107  1.1889
  953MOL0     H28647   4.522   5.807   9.376  4.6104  0.3153  1.5314
  953MOL0     H28648   4.627   5.687   9.460 -0.4998 -3.3469  0.8396
  953MOL0     H28649   4.334   5.737   9.500 -0.6340 -2.0422 -2.4215
  953MOL0     H28650   4.457   5.771   9.622  2.3966  1.9540 -1.3687
  953MOL0     H28651   4.525   5.526   9.625 -0.0402  1.7381  1.2580
  953MOL0     H28652   4.373   5.486   9.551  3.5175 -1.1585 -3.2463
  953MOL0     H28653   4.262   5.579   9.953  0.0938  3.5129  0.1290
  953MOL0     H28654   4.186   5.663   9.119  1.9697  0.9361 -1.2457
  953MOL0     H28655   4.077   5.497   8.960 -1.8347 -1.8304  4.2045
  954MOL0     O28656   4.895   3.789   8.334 -0.5487 -0.4858 -0.1018
  954MOL0     C28657   4.790   3.811   8.271  0.4474  0.1474  0.0304
  954MOL0     O28658   4.719   3.934   8.275  0.3912 -0.2548  0.7107
  954MOL0     C28659   4.791   4.033   8.333  0.4218  0.2717  0.1636
  954MOL0     C28660   4.781   4.076   8.462  0.6403  0.9751  0.2825
  954MOL0     C28661   4.864   4.169   8.516  0.0830 -0.4025  0.2501
  954MOL0     C28662   4.939   4.249   8.427  0.5755 -0.3639 -1.0955
  954MOL0     O28663   5.016   4.355   8.469 -0.0041  0.2382 -0.4651
  954MOL0     C28664   4.982   4.432   8.582  0.0113 -0.2236 -0.1825
  954MOL0     C28665   5.031   4.575   8.590 -0.6781  0.1554  0.2486
  954MOL0     C28666   5.012   4.630   8.730 -0.6909  0.5553 -0.1315
  954MOL0     C28667   4.859   4.655   8.770 -0.7578 -0.3341 -0.8746
  954MOL0     C28668   4.865   4.739   8.901  0.3852  0.0101  0.8222
  954MOL0     C28669   4.736   4.733   8.986 -1.2318  0.0950 -0.6955
  954MOL0     C28670   4.638   4.831   8.926  0.2030 -0.2126  0.6079
  954MOL0     C28671   4.514   4.831   9.001  0.1620  0.3313  0.1882
  954MOL0     N28672   4.508   4.921   9.123 -0.1603  0.4237 -0.5776
  954MOL0     C28673   4.409   5.009   9.145 -0.2701 -0.5444 -0.0373
  954MOL0     C28674   4.421   5.041   9.276 -0.7271  0.1232  1.4373
  954MOL0     C28675   4.337   5.132   9.363 -0.3605 -1.2558 -0.2172
  954MOL0     C28676   4.213   5.203   9.293  0.3477  0.3151 -0.5910
  954MOL0     C28677   4.181   5.334   9.372 -0.4714  0.5479  0.1912
  954MOL0     C28678   4.146   5.311   9.520  0.0640  0.1462  0.6385
  954MOL0     O28679   4.068   5.413   9.571 -0.1428 -0.0252 -0.1649
  954MOL0     C28680   4.033   5.424   9.706 -0.3323  0.6668  0.0649
  954MOL0     C28681   3.948   5.521   9.747  0.6167  0.6338 -0.1463
  954MOL0     C28682   3.932   5.548   9.885 -0.0937  0.0445  0.6285
  954MOL0     C28683   3.845   5.657   9.928  0.0956 -0.4453  0.2434
  954MOL0     C28684   3.974   5.456   9.981  0.6104 -0.8981 -0.3455
  954MOL0     C28685   3.940   5.457  10.129  1.0680  0.6571  0.3879
  954MOL0     O28686   3.895   5.340  10.168  0.3267  0.5299 -0.0148
  954MOL0     C28687   3.855   5.335  10.303  0.7081 -0.0983  0.2642
  954MOL0     C28688   3.741   5.395  10.353  0.7821  0.5275 -0.0392
  954MOL0     C28689   3.707   5.387  10.485  0.3663 -0.0135 -0.5837
  954MOL0     C28690   3.787   5.324  10.580 -0.2670 -0.0619 -0.4472
  954MOL0     O28691   3.755   5.330  10.712  0.4905  0.3558 -0.2952
  954MOL0     C28692   3.858   5.348  10.801  0.5696 -0.7615 -0.1379
  954MOL0     C28693   3.801   5.388  10.937  0.2617 -0.0995  0.5058
  954MOL0     C28694   3.910   5.440  11.037  1.4654  0.0912 -0.4005
  954MOL0     C28695   3.873   5.474  11.192  0.1388 -0.0588 -1.2580
  954MOL0     C28696   3.963   5.400  11.292  0.0411  0.1615 -0.2842
  954MOL0     C28697   3.922   5.418  11.435 -0.2254 -0.2975 -0.9852
  954MOL0     C28698   4.011   5.320  11.526  0.4682 -1.1686  0.5352
  954MOL0     C28699   3.987   5.364  11.661 -0.2011 -0.6748  0.1345
  954MOL0    Cl28700   4.025   5.547  11.688 -0.6153  0.4853  0.2195
  954MOL0     C28701   3.900   5.267  10.526  0.9775 -0.3296 -0.5666
  954MOL0     C28702   3.936   5.272  10.391  0.1691  1.3287  0.0707
  954MOL0     O28703   3.969   5.555  10.197 -0.4751  0.2734 -0.2443
  954MOL0     C28704   4.050   5.350   9.926  0.0971  0.2323  0.4929
  954MOL0     C28705   4.087   5.335   9.798 -0.4608  0.0160 -0.5778
  954MOL0     N28706   4.528   4.962   9.326  0.4700  0.1461 -0.1516
  954MOL0     N28707   4.572   4.888   9.237 -0.6982  0.0081  0.2152
  954MOL0     C28708   4.936   4.217   8.288 -0.1510  0.0738 -0.5058
  954MOL0     C28709   4.867   4.108   8.250  0.4419  0.3976 -0.1743
  954MOL0     C28710   4.723   3.707   8.194 -0.4255  0.0036  0.8820
  954MOL0     C28711   4.794   3.627   8.108 -0.2609 -0.5658 -0.1920
  954MOL0     C28712   4.717   3.554   8.023  0.8613  0.6999  1.3118
  954MOL0     C28713   4.579   3.568   7.997 -0.5569  0.0901  0.1081
  954MOL0     O28714   4.516   3.520   7.884  0.0180  0.2430 -0.3947
  954MOL0     C28715   4.383   3.565   7.857  0.2286  0.0649 -0.1101
  954MOL0     C28716   4.279   3.469   7.925 -1.1208  0.3370  0.0790
  954MOL0     C28717   4.132   3.497   7.892 -0.2443  0.6918 -0.4760
  954MOL0     C28718   4.098   3.640   7.926  0.1938  0.8242 -0.2853
  954MOL0     C28719   4.121   3.673   8.065 -0.4221  0.1953  0.5108
  954MOL0     C28720   4.131   3.703   8.185  0.5903 -0.2323 -0.2673
  954MOL0     C28721   4.511   3.647   8.089  0.0575 -0.8446  0.2536
  954MOL0     C28722   4.586   3.718   8.184  0.4416  1.5295  0.0829
  954MOL0     H28723   4.701   4.032   8.520  1.2727 -1.0642 -0.3210
  954MOL0     H28724   4.870   4.179   8.624 -1.6912 -0.2594  0.3769
  954MOL0     H28725   4.873   4.440   8.588  0.0254 -0.1922  0.0252
  954MOL0     H28726   5.012   4.373   8.669 -3.1570  0.9846  1.9190
  954MOL0     H28727   5.131   4.583   8.545 -1.5095 -0.9704 -1.9309
  954MOL0     H28728   4.976   4.642   8.523 -2.1000  0.3830  1.6075
  954MOL0     H28729   5.056   4.561   8.802  0.1178 -1.6241 -2.5384
  954MOL0     H28730   5.053   4.731   8.724  0.8067 -0.0813 -1.3122
  954MOL0     H28731   4.800   4.695   8.687 -1.6933  1.8476  0.7417
  954MOL0     H28732   4.817   4.556   8.791 -0.8446 -1.0416 -3.8612
  954MOL0     H28733   4.949   4.714   8.965  1.3160  0.5930 -0.1381
  954MOL0     H28734   4.874   4.843   8.867 -1.0840 -0.5832 -1.6561
  954MOL0     H28735   4.698   4.633   8.961  0.6625 -0.6548 -0.7497
  954MOL0     H28736   4.756   4.759   9.091  2.2914 -3.3470 -0.2546
  954MOL0     H28737   4.689   4.928   8.928  1.1636 -0.6238 -1.3365
  954MOL0     H28738   4.630   4.820   8.817  2.5391 -0.0315  0.3567
  954MOL0     H28739   4.480   4.732   9.032  0.1822  0.1244 -0.4318
  954MOL0     H28740   4.435   4.859   8.930  2.3041 -0.0366 -2.5489
  954MOL0     H28741   4.353   5.057   9.065  0.2428 -0.9590 -0.6503
  954MOL0     H28742   4.305   5.067   9.445  2.1024 -0.5114  1.4451
  954MOL0     H28743   4.384   5.221   9.405 -0.4941 -1.3467  0.1334
  954MOL0     H28744   4.130   5.131   9.287  0.3808  0.3261 -1.3219
  954MOL0     H28745   4.244   5.224   9.190  0.8820 -2.0641 -0.9889
  954MOL0     H28746   4.100   5.382   9.316 -0.5314  2.5516  1.8732
  954MOL0     H28747   4.267   5.402   9.373  0.2022 -0.1325  4.3139
  954MOL0     H28748   4.238   5.311   9.578  1.0493  1.0865 -0.8662
  954MOL0     H28749   4.110   5.208   9.535  0.6205 -0.3558 -1.2162
  954MOL0     H28750   3.910   5.587   9.670 -2.0443 -0.5863  0.0069
  954MOL0     H28751   3.765   5.611   9.986 -0.1164 -1.6184 -0.9555
  954MOL0     H28752   3.897   5.729   9.992  2.3866 -1.9606  0.2131
  954MOL0     H28753   3.791   5.701   9.844 -0.5000 -1.8724 -0.1531
  954MOL0     H28754   3.684   5.450  10.279 -0.9607 -2.7852 -1.3525
  954MOL0     H28755   3.612   5.430  10.513  0.7540  1.3982 -1.3315
  954MOL0     H28756   3.915   5.254  10.806 -0.2999 -1.2809  0.2169
  954MOL0     H28757   3.931   5.423  10.768  1.1836 -0.9118  0.8421
  954MOL0     H28758   3.732   5.468  10.907  3.8470  2.8829 -0.7169
  954MOL0     H28759   3.741   5.306  10.976 -0.4777  0.0642 -0.2652
  954MOL0     H28760   3.954   5.530  10.992  0.1448  1.4721  0.9180
  954MOL0     H28761   3.985   5.361  11.037 -1.3583 -2.7566 -0.0516
  954MOL0     H28762   3.874   5.580  11.219  1.4456  0.1393 -1.9834
  954MOL0     H28763   3.777   5.425  11.212  0.6863 -1.0650 -1.0286
  954MOL0     H28764   4.065   5.441  11.294 -0.6054  2.0360  3.9569
  954MOL0     H28765   3.957   5.293  11.269 -2.1011  0.3999 -1.0587
  954MOL0     H28766   3.938   5.522  11.465 -4.2489  0.7750 -1.9102
  954MOL0     H28767   3.819   5.389  11.457 -0.0747 -1.1139 -1.3343
  954MOL0     H28768   4.118   5.327  11.504  0.3624  3.0176  0.4791
  954MOL0     H28769   3.981   5.217  11.506  1.7201 -1.2610 -1.0717
  954MOL0     H28770   4.029   5.295  11.735 -1.9983 -1.0902  0.8184
  954MOL0     H28771   3.883   5.336  11.680  0.1444 -1.9168  0.2847
  954MOL0     H28772   3.968   5.224  10.600  2.6689  0.7460 -1.4312
  954MOL0     H28773   4.030   5.231  10.355 -0.7427 -0.5049 -0.3119
  954MOL0     H28774   4.087   5.266   9.985 -1.7487 -0.3479  0.8751
  954MOL0     H28775   4.158   5.259   9.768 -1.8563 -1.3190 -0.5831
  954MOL0     H28776   5.001   4.262   8.214 -0.6728  3.0583  0.7048
  954MOL0     H28777   4.880   4.069   8.150  0.8649 -2.7795  1.0113
  954MOL0     H28778   4.902   3.627   8.117 -0.2704  0.2931 -0.0303
  954MOL0     H28779   4.764   3.492   7.947 -0.8431  1.7012 -0.6888
  954MOL0     H28780   4.370   3.670   7.881 -0.4316  0.8204 -3.2553
  954MOL0     H28781   4.365   3.548   7.750  0.6575  1.7772 -0.4821
  954MOL0     H28782   4.306   3.465   8.031  1.3270  2.0779 -0.4035
  954MOL0     H28783   4.288   3.367   7.886  1.7219  0.3505  0.5062
  954MOL0     H28784   4.090   3.430   7.967  1.1572 -3.2130 -2.8722
  954MOL0     H28785   4.105   3.468   7.791  0.1552 -1.0106 -0.1235
  954MOL0     H28786   3.990   3.660   7.921 -0.2540 -1.2442  0.2519
  954MOL0     H28787   4.154   3.710   7.863  0.1660  1.2278  0.1280
  954MOL0     H28788   4.142   3.714   8.290 -3.0504 -3.0668  0.6280
  954MOL0     H28789   4.406   3.675   8.092  0.1826 -0.2974 -0.2702
  954MOL0     H28790   4.527   3.799   8.227 -1.0327  2.2829 -3.0616
  955MOL0     O28791   5.403   4.563   7.376 -0.0834 -0.3849 -1.0018
  955MOL0     C28792   5.281   4.554   7.351  0.2151  0.0636  0.7642
  955MOL0     O28793   5.188   4.652   7.356  0.3238 -0.5547  0.3461
  955MOL0     C28794   5.218   4.784   7.335  0.1813  0.9095 -1.0986
  955MOL0     C28795   5.239   4.867   7.440  0.0381 -0.3494  0.0185
  955MOL0     C28796   5.304   4.991   7.426 -0.6995  0.1601 -0.1810
  955MOL0     C28797   5.347   5.034   7.299 -0.6039  1.2036 -0.4148
  955MOL0     O28798   5.410   5.159   7.280  0.0928  0.6774  0.7315
  955MOL0     C28799   5.391   5.258   7.380 -0.3333 -0.7254  0.1006
  955MOL0     C28800   5.449   5.383   7.315  0.1277  0.7548 -1.1041
  955MOL0     C28801   5.390   5.502   7.377  0.6689 -0.2798 -0.7377
  955MOL0     C28802   5.459   5.632   7.356  0.0303 -0.5587  0.1734
  955MOL0     C28803   5.372   5.749   7.385  0.1549 -0.4020 -0.2878
  955MOL0     C28804   5.333   5.791   7.537 -0.1109  0.2141  0.3059
  955MOL0     C28805   5.462   5.826   7.620 -0.3748 -0.0567 -0.0672
  955MOL0     C28806   5.421   5.899   7.744  0.7212 -0.1498  1.0049
  955MOL0     N28807   5.537   5.942   7.819  0.4224 -0.5040 -0.5704
  955MOL0     C28808   5.609   5.874   7.917  0.8083 -0.9162 -0.3359
  955MOL0     C28809   5.692   5.959   7.969 -0.6722 -0.6128  0.8622
  955MOL0     C28810   5.798   5.956   8.089  0.8965  0.3023 -0.1177
  955MOL0     C28811   5.775   5.843   8.195 -1.0915 -0.6732  0.5103
  955MOL0     C28812   5.912   5.791   8.235  0.1337  0.0855  0.9251
  955MOL0     C28813   5.898   5.701   8.360 -0.2241 -0.0688 -1.2200
  955MOL0     O28814   5.825   5.577   8.355 -0.3781  0.2548  0.2439
  955MOL0     C28815   5.865   5.481   8.443  0.6447 -0.2903 -0.1598
  955MOL0     C28816   5.878   5.343   8.405 -0.2272  0.2592 -0.1188
  955MOL0     C28817   5.891   5.241   8.494 -0.1100  0.4784 -0.6374
  955MOL0     C28818   5.888   5.109   8.442 -0.5884 -0.3992  0.4809
  955MOL0     C28819   5.910   5.273   8.636  0.7940 -0.0299  0.6166
  955MOL0     C28820   5.922   5.174   8.744 -1.2401 -0.2353 -0.7797
  955MOL0     O28821   5.952   5.042   8.716 -0.1203  0.5063 -0.0021
  955MOL0     C28822   5.958   4.964   8.823  0.1275 -0.2681  0.5430
  955MOL0     C28823   5.838   4.941   8.894  1.1140  0.2912  0.0291
  955MOL0     C28824   5.833   4.862   8.998 -0.1936  0.8367 -0.2597
  955MOL0     C28825   5.945   4.803   9.053 -0.5288 -0.2467  0.2466
  955MOL0     O28826   5.937   4.721   9.162  0.4611  0.4003 -0.6564
  955MOL0     C28827   5.923   4.801   9.285 -0.0830  0.3040 -0.0174
  955MOL0     C28828   6.047   4.883   9.312  0.4528 -0.4703  0.0511
  955MOL0     C28829   6.065   4.926   9.461 -0.5765  0.5135  0.8903
  955MOL0     C28830   6.114   4.815   9.548 -0.2033  0.7792  0.2782
  955MOL0     C28831   6.158   4.877   9.678 -0.4369 -0.0110 -0.2708
  955MOL0     C28832   6.218   4.775   9.774  0.0829  0.6399 -0.1361
  955MOL0     C28833   6.295   4.852   9.884 -0.6435 -0.7892  0.0028
  955MOL0     C28834   6.210   4.946   9.971 -0.7502  0.6265  0.0321
  955MOL0    Cl28835   6.093   4.856  10.072  0.0063  0.1546  0.0970
  955MOL0     C28836   6.080   4.835   9.004  1.4986 -0.7332  0.3644
  955MOL0     C28837   6.080   4.918   8.880 -0.1358  1.2996 -0.5374
  955MOL0     O28838   5.920   5.219   8.859 -0.0660  0.1872 -0.7279
  955MOL0     C28839   5.910   5.412   8.674 -0.2835 -0.4283  1.1332
  955MOL0     C28840   5.889   5.510   8.573 -0.3273  0.4573 -0.0057
  955MOL0     N28841   5.673   6.081   7.903 -0.8551 -0.5515  0.5597
  955MOL0     N28842   5.580   6.076   7.819  0.1577  0.6802 -0.2380
  955MOL0     C28843   5.317   4.943   7.188 -0.5094 -0.5334  0.7717
  955MOL0     C28844   5.250   4.821   7.207 -0.0772  0.5115 -0.1701
  955MOL0     C28845   5.230   4.414   7.318 -0.2320  1.3232 -0.0323
  955MOL0     C28846   5.086   4.387   7.317 -0.9196 -0.0216 -0.2966
  955MOL0     C28847   5.035   4.259   7.294  0.8377  0.2267  0.9671
  955MOL0     C28848   5.124   4.150   7.280 -0.0471  0.3631 -0.6246
  955MOL0     O28849   5.069   4.028   7.260 -0.9350 -0.0827 -0.0287
  955MOL0     C28850   5.139   3.904   7.289 -0.3067 -0.2919 -0.2499
  955MOL0     C28851   5.045   3.848   7.407 -0.2047 -0.7602  0.5291
  955MOL0     C28852   4.897   3.822   7.364  0.4417 -0.3204 -0.2935
  955MOL0     C28853   4.795   3.801   7.481  0.3907  0.3414  0.5551
  955MOL0     C28854   4.675   3.730   7.422 -0.6144 -0.7463 -0.1780
  955MOL0     C28855   4.594   3.672   7.354  0.0807 -0.2143  0.6050
  955MOL0     C28856   5.264   4.174   7.263  0.1540 -0.7445  0.5083
  955MOL0     C28857   5.311   4.303   7.293 -1.6778  0.5960 -0.2845
  955MOL0     H28858   5.203   4.838   7.538 -0.0666 -0.2312  0.0153
  955MOL0     H28859   5.312   5.051   7.516  2.9546 -2.1739  1.2804
  955MOL0     H28860   5.290   5.268   7.421  0.5872 -3.5156  3.4863
  955MOL0     H28861   5.457   5.233   7.463  2.3862  2.0850 -0.9995
  955MOL0     H28862   5.556   5.383   7.340 -0.2579 -0.9664  0.8204
  955MOL0     H28863   5.439   5.382   7.206 -1.6597 -1.2272 -0.9930
  955MOL0     H28864   5.291   5.506   7.331  0.6665  1.5756 -0.6131
  955MOL0     H28865   5.379   5.492   7.485  2.5182  0.3629 -0.4578
  955MOL0     H28866   5.560   5.629   7.397  0.1256 -2.1597 -0.1044
  955MOL0     H28867   5.482   5.640   7.249 -2.7844  0.8851 -0.4339
  955MOL0     H28868   5.418   5.838   7.340  0.4533  0.6294  1.9409
  955MOL0     H28869   5.276   5.736   7.334  1.3225 -0.0235 -2.7571
  955MOL0     H28870   5.278   5.884   7.517 -0.1254  0.1411 -0.0010
  955MOL0     H28871   5.263   5.716   7.576  1.6519 -0.1314  3.0541
  955MOL0     H28872   5.515   5.736   7.653  0.3147  1.9245  5.1825
  955MOL0     H28873   5.523   5.890   7.556  0.3132  0.2583  0.8900
  955MOL0     H28874   5.361   5.836   7.811 -3.9104  1.6647 -1.0604
  955MOL0     H28875   5.363   5.987   7.717 -0.4332 -1.4877 -1.1913
  955MOL0     H28876   5.596   5.769   7.942  0.9275 -0.8620 -0.0426
  955MOL0     H28877   5.893   5.940   8.037  1.0814  1.7246 -0.2599
  955MOL0     H28878   5.803   6.052   8.141  0.7570 -0.9741  2.3966
  955MOL0     H28879   5.721   5.753   8.161 -0.7054 -0.4779 -0.6676
  955MOL0     H28880   5.737   5.899   8.281  0.1436  0.3274  0.4374
  955MOL0     H28881   5.972   5.882   8.239  0.2459  0.2290 -2.0086
  955MOL0     H28882   5.954   5.744   8.146  0.0842  2.8450 -0.6599
  955MOL0     H28883   5.856   5.767   8.436 -1.2122  0.5453 -2.2576
  955MOL0     H28884   5.995   5.675   8.402 -1.3338 -1.0060  0.8915
  955MOL0     H28885   5.855   5.329   8.300  0.7054 -2.3933 -0.0228
  955MOL0     H28886   5.793   5.059   8.462 -0.7816 -0.3066 -0.1529
  955MOL0     H28887   5.903   5.116   8.333  2.4257  2.0301  0.9057
  955MOL0     H28888   5.963   5.045   8.489 -3.5565 -2.8819  2.1977
  955MOL0     H28889   5.746   4.993   8.870 -0.4284 -1.4107  1.8634
  955MOL0     H28890   5.740   4.855   9.053  0.2607  0.8972  0.5435
  955MOL0     H28891   5.853   4.885   9.287  2.5323  2.6623  2.3457
  955MOL0     H28892   5.898   4.743   9.375  2.3166  2.8920  2.5180
  955MOL0     H28893   6.128   4.817   9.281 -0.7742 -1.3196 -1.5067
  955MOL0     H28894   6.048   4.977   9.256 -2.6887 -0.4485 -0.1863
  955MOL0     H28895   5.965   4.960   9.492 -0.1662  4.1106 -1.1726
  955MOL0     H28896   6.129   5.014   9.471  1.0935 -0.6480  0.7994
  955MOL0     H28897   6.025   4.754   9.567 -0.0822  1.7225  5.0828
  955MOL0     H28898   6.198   4.759   9.507  0.2778  1.4633  0.3222
  955MOL0     H28899   6.067   4.910   9.728  1.0252  3.6043  0.2981
  955MOL0     H28900   6.226   4.962   9.667 -0.8897  0.3902 -0.0127
  955MOL0     H28901   6.143   4.716   9.826 -0.5391  1.1533 -0.4366
  955MOL0     H28902   6.282   4.705   9.719 -2.0471  0.2959 -2.3212
  955MOL0     H28903   6.377   4.898   9.828 -0.0935 -2.8928 -1.0403
  955MOL0     H28904   6.336   4.771   9.946 -1.0644 -1.3586 -0.4566
  955MOL0     H28905   6.157   5.026   9.920  0.1814  1.1628 -0.1292
  955MOL0     H28906   6.276   4.988  10.048 -0.3929  0.5941 -0.2506
  955MOL0     H28907   6.173   4.794   9.041  2.9031  1.9881  0.0899
  955MOL0     H28908   6.177   4.934   8.833  0.0157 -0.1854 -0.7803
  955MOL0     H28909   5.936   5.442   8.775 -2.9615  2.0853  1.2146
  955MOL0     H28910   5.917   5.611   8.603  1.0854 -0.0345  0.3729
  955MOL0     H28911   5.361   4.978   7.095  3.0042 -1.7549  1.8416
  955MOL0     H28912   5.241   4.750   7.125 -0.9574  0.6983 -0.2431
  955MOL0     H28913   5.013   4.467   7.327  0.7583  2.0871 -3.2228
  955MOL0     H28914   4.933   4.223   7.297  1.4617 -1.5569  2.5697
  955MOL0     H28915   5.141   3.838   7.202  0.5548 -1.1189  0.3841
  955MOL0     H28916   5.239   3.916   7.330 -0.2190  3.8175 -1.2203
  955MOL0     H28917   5.040   3.919   7.489  0.1695  1.1541 -1.0413
  955MOL0     H28918   5.091   3.753   7.436 -0.2925 -2.3246 -3.6945
  955MOL0     H28919   4.916   3.733   7.303 -1.7651  0.0022 -1.5610
  955MOL0     H28920   4.855   3.899   7.299  0.5807  0.2251  0.2502
  955MOL0     H28921   4.753   3.891   7.527 -2.0484 -0.7622  0.6582
  955MOL0     H28922   4.844   3.738   7.556 -1.9625 -0.1260  1.7911
  955MOL0     H28923   4.511   3.628   7.303 -2.2980  3.2737  1.0965
  955MOL0     H28924   5.334   4.101   7.225  2.5461  1.9636 -0.6260
  955MOL0     H28925   5.416   4.317   7.314 -1.5020  2.4470 -2.0507
  956MOL0     O28926   9.998   0.992   4.436 -0.7533 -0.0896 -0.1882
  956MOL0     C28927  10.101   0.979   4.503 -1.2939  0.6095  0.2908
  956MOL0     O28928  10.220   1.040   4.482 -0.0531  0.5679  0.1343
  956MOL0     C28929  10.232   1.126   4.378 -0.8222  0.1676  0.0854
  956MOL0     C28930  10.295   1.251   4.402  0.4775  0.7902  0.6304
  956MOL0     C28931  10.303   1.342   4.296 -0.2873  0.5629  1.1190
  956MOL0     C28932  10.256   1.319   4.164 -0.5113 -0.2542  0.9171
  956MOL0     O28933  10.254   1.413   4.054  0.4760 -0.1522 -1.0949
  956MOL0     C28934  10.273   1.554   4.082 -0.5219 -0.2494 -0.6003
  956MOL0     C28935  10.245   1.644   3.961  1.2448 -0.0242  0.0994
  956MOL0     C28936  10.125   1.589   3.887 -0.5282  0.3702 -0.4919
  956MOL0     C28937  10.104   1.678   3.764  0.5207  0.1056  0.0631
  956MOL0     C28938   9.979   1.630   3.687  0.8050  0.7267 -0.1629
  956MOL0     C28939   9.966   1.713   3.562 -0.6287 -0.1832  0.0408
  956MOL0     C28940   9.908   1.650   3.440  0.2897 -0.6501  0.5194
  956MOL0     C28941   9.904   1.752   3.318 -0.4946  0.0927 -0.3447
  956MOL0     N28942   9.827   1.875   3.347  0.2211 -0.2357  0.0743
  956MOL0     C28943   9.879   2.007   3.372  0.6012 -0.2296  1.1525
  956MOL0     C28944   9.779   2.074   3.411  0.0419  0.6377  0.3370
  956MOL0     C28945   9.795   2.221   3.454  0.2311 -0.0766 -0.2879
  956MOL0     C28946   9.717   2.267   3.581 -0.2143  1.1425  0.6112
  956MOL0     C28947   9.628   2.387   3.558  0.4082  0.1391  0.7897
  956MOL0     C28948   9.570   2.444   3.692  0.3053  0.3873 -0.3122
  956MOL0     O28949   9.568   2.592   3.714  1.1556 -0.9021 -0.0772
  956MOL0     C28950   9.529   2.644   3.835  1.1050  0.0131 -0.3466
  956MOL0     C28951   9.433   2.574   3.898  0.1589  0.1345  0.0019
  956MOL0     C28952   9.380   2.618   4.026  0.3635 -0.0597  0.3576
  956MOL0     C28953   9.291   2.534   4.110 -0.6876  0.5057  0.2996
  956MOL0     C28954   9.423   2.740   4.077 -0.5623 -0.1645 -0.0027
  956MOL0     C28955   9.375   2.797   4.206 -0.5586  0.2049  0.2604
  956MOL0     O28956   9.461   2.868   4.293  0.0426  0.5144 -0.3022
  956MOL0     C28957   9.428   2.887   4.428 -0.3293  1.0431  0.6270
  956MOL0     C28958   9.528   2.855   4.523  0.3590  0.3405 -0.1607
  956MOL0     C28959   9.491   2.871   4.659  0.6465  0.2821  0.2300
  956MOL0     C28960   9.368   2.922   4.701  1.0192  0.3816 -0.0960
  956MOL0     O28961   9.340   2.919   4.838  0.9075 -0.7875 -0.7773
  956MOL0     C28962   9.206   2.940   4.881  0.9568 -1.0477 -0.9009
  956MOL0     C28963   9.114   2.827   4.832  0.9158  0.5188  0.0648
  956MOL0     C28964   8.965   2.858   4.862  1.0196 -0.1987 -0.7021
  956MOL0     C28965   8.877   2.750   4.804 -0.3342  0.3967  0.7770
  956MOL0     C28966   8.734   2.750   4.859  0.8133  0.7127 -0.3154
  956MOL0     C28967   8.649   2.676   4.766  1.3515  0.2398  1.0281
  956MOL0     C28968   8.502   2.696   4.802 -0.5182  0.5513  0.7757
  956MOL0     C28969   8.412   2.622   4.708 -1.2446  0.0391  0.0072
  956MOL0    Cl28970   8.368   2.718   4.559 -0.4609  0.1713 -0.0216
  956MOL0     C28971   9.279   2.985   4.603 -1.1953  0.1476 -0.3702
  956MOL0     C28972   9.311   2.949   4.468  0.5159 -1.1994 -0.7735
  956MOL0     O28973   9.259   2.773   4.233  0.2206 -0.5993 -0.6816
  956MOL0     C28974   9.511   2.810   4.000 -0.0292 -0.8556 -0.2422
  956MOL0     C28975   9.564   2.760   3.878 -0.1632 -0.0626 -0.4664
  956MOL0     N28976   9.660   1.999   3.407  0.2786  0.6565 -0.0313
  956MOL0     N28977   9.685   1.878   3.359  0.5203 -0.6279 -0.4032
  956MOL0     C28978  10.211   1.190   4.134 -0.5997 -0.1920 -0.5052
  956MOL0     C28979  10.197   1.094   4.246  0.1428  0.0213  0.0944
  956MOL0     C28980  10.086   0.907   4.627  0.7334 -0.0962  0.6759
  956MOL0     C28981   9.974   0.825   4.648 -0.8978 -0.9190 -0.6250
  956MOL0     C28982   9.948   0.771   4.777 -1.0632 -0.0917  0.0041
  956MOL0     C28983  10.039   0.779   4.885 -0.1737  0.6420  0.3823
  956MOL0     O28984   9.999   0.726   5.004  0.2745 -0.1611 -0.1224
  956MOL0     C28985  10.087   0.727   5.110  0.1193 -0.1403 -1.0612
  956MOL0     C28986  10.028   0.644   5.233  0.1761 -0.6871 -0.6624
  956MOL0     C28987  10.079   0.690   5.376 -0.6705 -0.0492  0.0042
  956MOL0     C28988  10.231   0.687   5.413  0.8795  0.2856  0.3964
  956MOL0     C28989  10.298   0.580   5.352  0.4342  0.4104  0.4308
  956MOL0     C28990  10.368   0.488   5.315 -0.5944  0.5573 -0.5478
  956MOL0     C28991  10.159   0.850   4.858 -0.4468  0.1000 -0.5652
  956MOL0     C28992  10.184   0.909   4.733 -0.5871  1.2545  0.5865
  956MOL0     H28993  10.329   1.270   4.503 -0.9768  0.7790  1.1465
  956MOL0     H28994  10.360   1.432   4.315 -0.3271  0.3437  2.3905
  956MOL0     H28995  10.213   1.590   4.167  0.2157 -0.3911 -0.0115
  956MOL0     H28996  10.379   1.561   4.107 -0.8781 -0.8776  1.2458
  956MOL0     H28997  10.225   1.743   4.004  1.6718  0.9597 -1.8334
  956MOL0     H28998  10.328   1.639   3.890  1.3877 -4.1174  0.3433
  956MOL0     H28999  10.129   1.488   3.845 -0.7462 -0.3361  1.1159
  956MOL0     H29000  10.037   1.613   3.947  0.7860  2.5974  0.7074
  956MOL0     H29001  10.102   1.785   3.784  1.4338  0.3258 -0.9765
  956MOL0     H29002  10.190   1.658   3.699 -0.5655  0.3843 -1.5070
  956MOL0     H29003   9.993   1.525   3.660  0.0572  0.4335  0.5688
  956MOL0     H29004   9.889   1.633   3.748  0.8400  0.0842 -0.0745
  956MOL0     H29005   9.913   1.804   3.590  3.5343  2.0197  1.7428
  956MOL0     H29006  10.065   1.746   3.529  0.4736 -3.2996 -0.1398
  956MOL0     H29007   9.969   1.568   3.400  1.0238  0.4889 -0.7488
  956MOL0     H29008   9.807   1.612   3.456 -0.1713  1.0395  1.8388
  956MOL0     H29009   9.865   1.707   3.227  0.7408  1.0244 -1.3772
  956MOL0     H29010  10.005   1.790   3.300 -0.6880  0.9780  0.3167
  956MOL0     H29011   9.980   2.045   3.383  0.5999 -0.2266  1.1568
  956MOL0     H29012   9.899   2.235   3.486 -0.3015 -1.4186  2.3782
  956MOL0     H29013   9.766   2.291   3.375  0.7769  0.5001  0.0137
  956MOL0     H29014   9.788   2.287   3.662 -0.3524 -1.0629  1.3465
  956MOL0     H29015   9.654   2.182   3.608 -0.7343  1.6962  1.1547
  956MOL0     H29016   9.543   2.347   3.503  1.3698  1.5930 -1.9234
  956MOL0     H29017   9.687   2.464   3.508  1.0243  0.3930  1.8727
  956MOL0     H29018   9.615   2.390   3.776 -0.4855 -2.1898 -1.4286
  956MOL0     H29019   9.464   2.414   3.691  0.5999 -0.7294 -1.4239
  956MOL0     H29020   9.402   2.474   3.869 -1.9291  1.0505 -1.1631
  956MOL0     H29021   9.304   2.433   4.071  2.7706  0.6422  0.7431
  956MOL0     H29022   9.339   2.528   4.208 -1.8748 -1.3064  0.8184
  956MOL0     H29023   9.189   2.572   4.113 -1.7703 -2.2425  2.1047
  956MOL0     H29024   9.633   2.837   4.502  1.5284  4.4795  1.1521
  956MOL0     H29025   9.565   2.843   4.733 -0.2337 -1.1045  0.6136
  956MOL0     H29026   9.215   2.947   4.990  3.9884  0.9782 -1.1666
  956MOL0     H29027   9.168   3.035   4.841 -0.2689 -2.6488 -3.8108
  956MOL0     H29028   9.130   2.809   4.725  0.9952 -0.0553  0.1684
  956MOL0     H29029   9.148   2.735   4.882  1.2202 -0.0999 -1.2486
  956MOL0     H29030   8.932   2.957   4.829  0.5174  0.2820  1.0990
  956MOL0     H29031   8.961   2.832   4.968 -0.9965 -1.1278 -0.9657
  956MOL0     H29032   8.889   2.760   4.695 -1.4760 -0.0523  0.5988
  956MOL0     H29033   8.920   2.654   4.833  0.9820  1.1750  1.5010
  956MOL0     H29034   8.701   2.854   4.864  2.1320  1.1154  0.4138
  956MOL0     H29035   8.731   2.700   4.956 -0.4126 -1.5897 -1.4439
  956MOL0     H29036   8.668   2.706   4.663 -1.3492  0.0216  0.3869
  956MOL0     H29037   8.660   2.567   4.773  0.6198  0.1525  0.8950
  956MOL0     H29038   8.482   2.803   4.808  0.6542  1.0068 -1.8367
  956MOL0     H29039   8.493   2.646   4.899  1.5875 -1.9300 -0.1940
  956MOL0     H29040   8.317   2.604   4.759 -0.5443  0.3796  1.4773
  956MOL0     H29041   8.457   2.529   4.672  1.6618  1.0524  0.7660
  956MOL0     H29042   9.185   3.031   4.632 -1.1621 -0.0812  0.1066
  956MOL0     H29043   9.251   2.996   4.391 -1.1714 -2.3723 -0.2301
  956MOL0     H29044   9.546   2.909   4.028  4.5936 -2.3718  0.2101
  956MOL0     H29045   9.641   2.818   3.827 -0.7235  2.6629  1.5179
  956MOL0     H29046  10.173   1.157   4.038  1.9890 -1.7671 -1.1021
  956MOL0     H29047  10.135   1.007   4.223  1.3275 -0.2129 -2.6963
  956MOL0     H29048   9.898   0.810   4.573  0.1304 -0.3593 -1.8097
  956MOL0     H29049   9.850   0.727   4.792 -2.2002  1.7154 -1.5415
  956MOL0     H29050  10.192   0.706   5.088  0.9069  2.8533 -0.6053
  956MOL0     H29051  10.097   0.832   5.137  2.7086 -0.4366 -0.6062
  956MOL0     H29052  10.062   0.541   5.219  1.7764 -0.4107  0.8870
  956MOL0     H29053   9.919   0.651   5.231  0.0774 -0.0563  2.5302
  956MOL0     H29054  10.019   0.628   5.444 -0.1416 -1.8351 -1.1182
  956MOL0     H29055  10.048   0.792   5.404  2.0454  0.2932  2.2637
  956MOL0     H29056  10.239   0.681   5.522 -2.1053 -0.3319  0.6869
  956MOL0     H29057  10.279   0.778   5.375 -2.5788  1.1969 -2.3122
  956MOL0     H29058  10.427   0.406   5.281  0.5262  0.9277  0.4664
  956MOL0     H29059  10.231   0.860   4.939 -1.0218 -0.0629 -0.0224
  956MOL0     H29060  10.280   0.957   4.717  1.1826 -1.3765  2.5824
  957MOL0     O29061   6.112  10.658   0.926  0.0212 -0.1791 -0.0327
  957MOL0     C29062   6.127  10.639   0.801 -0.3402 -0.1074  0.0892
  957MOL0     O29063   6.141  10.519   0.735 -0.0845  0.0059 -0.5392
  957MOL0     C29064   6.173  10.421   0.820 -0.2185  0.6106 -1.2219
  957MOL0     C29065   6.311  10.374   0.812  0.4789  0.2987 -0.0060
  957MOL0     C29066   6.345  10.261   0.882 -0.1746 -0.0148  0.4213
  957MOL0     C29067   6.249  10.187   0.951 -0.1217 -0.1839  0.3738
  957MOL0     O29068   6.304  10.077   1.007  0.0116  1.1162 -0.7326
  957MOL0     C29069   6.234   9.955   1.003  0.0453 -0.6855 -0.2078
  957MOL0     C29070   6.342   9.848   1.008  0.5470  0.0749  0.5893
  957MOL0     C29071   6.360   9.784   0.873 -0.4447 -0.3472 -0.6168
  957MOL0     C29072   6.348   9.875   0.747  0.6893 -0.3455  0.9021
  957MOL0     C29073   6.372   9.798   0.616 -0.2022 -0.5876  0.2362
  957MOL0     C29074   6.275   9.692   0.600 -0.1223  1.4266 -0.1407
  957MOL0     C29075   6.309   9.601   0.474 -0.3440 -0.2866  0.2586
  957MOL0     C29076   6.270   9.454   0.500 -1.2839  0.5119  0.9467
  957MOL0     N29077   6.119   9.449   0.527 -0.6762 -0.2652 -0.4243
  957MOL0     C29078   6.076   9.433   0.655  0.9294  0.5538 -0.1845
  957MOL0     C29079   5.937   9.460   0.645 -0.0295  0.5115 -0.5491
  957MOL0     C29080   5.832   9.447   0.750  0.1895 -0.8659  0.7414
  957MOL0     C29081   5.778   9.304   0.760  0.3723  0.8373  0.3955
  957MOL0     C29082   5.664   9.286   0.665  0.4822  0.3321  0.2278
  957MOL0     C29083   5.623   9.136   0.652  0.2058  1.3154  0.0951
  957MOL0     O29084   5.597   9.077   0.786 -0.3718 -0.6257  0.3034
  957MOL0     C29085   5.587   8.939   0.794  0.0233 -0.7192  0.3936
  957MOL0     C29086   5.576   8.887   0.920  0.7350 -0.8614 -0.0437
  957MOL0     C29087   5.540   8.760   0.960  1.1281  0.3810 -0.0278
  957MOL0     C29088   5.525   8.735   1.107  0.4463 -0.0944  0.3412
  957MOL0     C29089   5.529   8.660   0.857  0.0589  0.1845 -0.3902
  957MOL0     C29090   5.487   8.525   0.880 -0.6219 -0.8986  0.9261
  957MOL0     O29091   5.398   8.508   0.977  0.5217 -0.3197  0.3251
  957MOL0     C29092   5.395   8.390   1.048 -0.3714 -0.6011 -0.1778
  957MOL0     C29093   5.480   8.368   1.158  0.0073  0.0673  0.9720
  957MOL0     C29094   5.485   8.260   1.240 -0.8831  0.1585 -0.0732
  957MOL0     C29095   5.376   8.177   1.229  0.5093  0.7295  0.1512
  957MOL0     O29096   5.348   8.069   1.307 -0.0190  0.4910 -0.1234
  957MOL0     C29097   5.425   8.033   1.422 -0.2537 -1.1013 -0.0690
  957MOL0     C29098   5.376   7.908   1.490  0.5532  1.2458 -0.8054
  957MOL0     C29099   5.455   7.868   1.617  0.0179 -0.8936  0.5151
  957MOL0     C29100   5.369   7.760   1.683 -0.1337  0.2662 -0.0275
  957MOL0     C29101   5.443   7.735   1.814  0.1887  0.0463 -1.0618
  957MOL0     C29102   5.377   7.602   1.870 -0.0063  0.5572  0.2474
  957MOL0     C29103   5.414   7.573   2.014 -0.3833 -0.8901 -0.1908
  957MOL0     C29104   5.347   7.452   2.076  0.1306 -0.0048 -0.1192
  957MOL0    Cl29105   5.383   7.300   2.003 -0.0502  0.0174 -0.3769
  957MOL0     C29106   5.277   8.202   1.126  0.4144  0.0878 -0.1099
  957MOL0     C29107   5.285   8.303   1.035 -1.1827  0.3462  0.4280
  957MOL0     O29108   5.505   8.456   0.786 -0.8392  0.1519 -0.4489
  957MOL0     C29109   5.550   8.710   0.729  0.0672  0.6139 -0.0890
  957MOL0     C29110   5.573   8.842   0.698 -0.8363 -0.8720 -0.0007
  957MOL0     N29111   5.905   9.484   0.516  0.6169  0.9835  0.0332
  957MOL0     N29112   6.014   9.495   0.453 -0.3664 -0.1307 -0.3280
  957MOL0     C29113   6.121  10.240   0.972 -0.2982 -0.5895  0.9696
  957MOL0     C29114   6.078  10.353   0.902 -0.1423 -0.2793 -0.0371
  957MOL0     C29115   6.123  10.768   0.712  0.0851 -1.1722  0.0342
  957MOL0     C29116   6.121  10.903   0.765 -0.4263  0.2388  0.1432
  957MOL0     C29117   6.115  11.009   0.676 -0.3096 -0.0154  0.6220
  957MOL0     C29118   6.113  10.987   0.540  0.3722  0.9343 -0.2609
  957MOL0     O29119   6.079  11.082   0.452 -0.2176 -0.4432 -0.0576
  957MOL0     C29120   6.015  11.199   0.501  0.1630 -0.8136  0.2778
  957MOL0     C29121   6.116  11.323   0.538 -0.1556  0.4414 -0.2382
  957MOL0     C29122   6.036  11.452   0.550  1.5326  0.4224  0.4607
  957MOL0     C29123   6.106  11.556   0.632 -0.3303 -0.4209  0.6696
  957MOL0     C29124   6.231  11.612   0.546  0.8359  1.2410 -0.7821
  957MOL0     C29125   6.339  11.637   0.507 -0.3538 -0.6504 -0.3628
  957MOL0     C29126   6.105  10.859   0.486  0.4045  0.0886 -0.6374
  957MOL0     C29127   6.111  10.754   0.575  0.0363 -1.0772  1.0557
  957MOL0     H29128   6.382  10.433   0.755 -0.8395  2.9195  0.8955
  957MOL0     H29129   6.445  10.218   0.883  0.6196  1.6529  3.3486
  957MOL0     H29130   6.173   9.950   1.093  1.4474  0.0369  0.8050
  957MOL0     H29131   6.163   9.927   0.924 -0.7820 -0.4389  0.4267
  957MOL0     H29132   6.440   9.883   1.043  1.6377 -1.0902 -1.1255
  957MOL0     H29133   6.307   9.767   1.072 -2.5114  0.3776 -0.5193
  957MOL0     H29134   6.459   9.737   0.879  0.3006  1.3733  1.7403
  957MOL0     H29135   6.286   9.704   0.868 -0.2886 -0.4298 -2.2816
  957MOL0     H29136   6.247   9.916   0.739  0.8895 -0.2980 -3.2529
  957MOL0     H29137   6.421   9.956   0.746  1.8332 -1.3517 -0.0576
  957MOL0     H29138   6.358   9.872   0.536  2.2412 -1.6620 -1.2873
  957MOL0     H29139   6.470   9.749   0.611 -0.7026 -1.6315  0.3291
  957MOL0     H29140   6.287   9.616   0.678 -1.7414  0.8338 -0.4325
  957MOL0     H29141   6.173   9.732   0.598 -1.0179 -0.7099 -1.6230
  957MOL0     H29142   6.261   9.646   0.387  2.7906  0.5328 -1.2162
  957MOL0     H29143   6.417   9.602   0.454 -0.2642 -0.9522  0.6088
  957MOL0     H29144   6.313   9.414   0.592 -0.9693 -5.5326 -1.4104
  957MOL0     H29145   6.298   9.375   0.431  2.9182  2.0107  0.6846
  957MOL0     H29146   6.135   9.392   0.736  2.3471  2.4910 -0.1677
  957MOL0     H29147   5.894   9.477   0.835 -1.4647  3.3395  0.6751
  957MOL0     H29148   5.747   9.516   0.744  1.1270  0.1828 -1.4147
  957MOL0     H29149   5.739   9.277   0.859  0.5889 -1.7814 -0.1532
  957MOL0     H29150   5.861   9.238   0.735  0.6362 -0.9230  4.9657
  957MOL0     H29151   5.708   9.323   0.572  3.1620  2.3384  2.1575
  957MOL0     H29152   5.582   9.344   0.709  0.6497 -0.3995  1.5628
  957MOL0     H29153   5.714   9.079   0.631 -0.4917  0.5291 -0.8855
  957MOL0     H29154   5.541   9.115   0.583  0.5681  2.1292 -0.6159
  957MOL0     H29155   5.587   8.971   0.989  0.4272 -0.5797 -0.3377
  957MOL0     H29156   5.420   8.724   1.133  0.5259  1.0538  1.2128
  957MOL0     H29157   5.583   8.647   1.137 -0.1127 -0.6051 -0.0513
  957MOL0     H29158   5.568   8.825   1.153 -2.4466  0.4082  2.2759
  957MOL0     H29159   5.560   8.436   1.186  0.5318 -1.4022  3.4028
  957MOL0     H29160   5.560   8.242   1.316 -1.4879  1.2226  0.8033
  957MOL0     H29161   5.527   8.010   1.390  0.2511 -0.3427  0.9394
  957MOL0     H29162   5.434   8.124   1.482  0.7475  0.6992 -2.7743
  957MOL0     H29163   5.272   7.914   1.526  0.7521  0.6978 -0.1255
  957MOL0     H29164   5.386   7.827   1.418  2.5653  0.8157 -0.0888
  957MOL0     H29165   5.471   7.959   1.675  0.8365 -0.9842  0.4401
  957MOL0     H29166   5.549   7.825   1.583  1.1676  0.6316  1.6603
  957MOL0     H29167   5.264   7.784   1.699 -0.3099 -1.1030  1.0805
  957MOL0     H29168   5.380   7.666   1.627 -1.1168 -0.4429  0.9269
  957MOL0     H29169   5.438   7.818   1.885 -0.7174 -1.8408  1.2672
  957MOL0     H29170   5.551   7.721   1.803  0.1741  0.1952 -1.3856
  957MOL0     H29171   5.268   7.610   1.866 -0.3774 -1.1172  3.5704
  957MOL0     H29172   5.405   7.521   1.802 -0.1669 -1.1104  2.0898
  957MOL0     H29173   5.387   7.667   2.063  0.6136 -0.5379 -0.2817
  957MOL0     H29174   5.521   7.555   2.029  0.9386  4.5774 -0.9433
  957MOL0     H29175   5.239   7.473   2.073 -0.3651 -1.9935  1.5263
  957MOL0     H29176   5.375   7.439   2.181 -0.4752  0.4144  0.1003
  957MOL0     H29177   5.202   8.125   1.108  1.3809 -1.9921  3.7763
  957MOL0     H29178   5.219   8.314   0.949  1.9898 -0.1605 -2.2738
  957MOL0     H29179   5.546   8.657   0.634  0.0695  1.8079 -0.7731
  957MOL0     H29180   5.572   8.865   0.592 -1.3862 -1.6587 -0.1740
  957MOL0     H29181   6.055  10.189   1.042 -2.3050  2.8296  1.8090
  957MOL0     H29182   5.979  10.398   0.896 -0.3286 -0.8360 -2.5360
  957MOL0     H29183   6.112  10.920   0.871  1.6311 -0.9088  0.5649
  957MOL0     H29184   6.123  11.113   0.706 -3.4401  0.4514  0.2431
  957MOL0     H29185   5.946  11.225   0.420 -1.0700 -2.3086  0.7937
  957MOL0     H29186   5.944  11.177   0.582 -0.5886  0.7304  0.0696
  957MOL0     H29187   6.190  11.343   0.460 -1.0730 -1.2445 -1.6115
  957MOL0     H29188   6.167  11.291   0.630  0.3175 -0.4368 -0.7962
  957MOL0     H29189   5.951  11.422   0.611  0.8989  0.4692 -0.3803
  957MOL0     H29190   6.005  11.492   0.453 -1.3818  2.4531  2.0799
  957MOL0     H29191   6.160  11.522   0.720  1.2630 -2.0523 -0.8727
  957MOL0     H29192   6.035  11.638   0.651  0.5381  0.2667  1.0132
  957MOL0     H29193   6.430  11.659   0.454  0.4246 -0.1584  1.1361
  957MOL0     H29194   6.094  10.848   0.379 -0.9469 -0.1737 -0.4914
  957MOL0     H29195   6.110  10.657   0.525 -0.3029 -1.5679  1.9953
  958MOL0     O29196   8.581   9.635  10.650 -0.0697  0.4784 -0.3518
  958MOL0     C29197   8.650   9.727  10.607 -0.0292 -0.5839 -0.6567
  958MOL0     O29198   8.706   9.732  10.483 -1.0138 -0.6533  0.4032
  958MOL0     C29199   8.721   9.611  10.422 -0.0778 -0.0039 -0.5100
  958MOL0     C29200   8.832   9.524  10.444 -0.0682  0.4098 -0.1327
  958MOL0     C29201   8.864   9.418  10.358 -0.3054 -0.9438 -0.0418
  958MOL0     C29202   8.781   9.396  10.242 -0.1597 -0.4822 -0.6181
  958MOL0     O29203   8.804   9.283  10.163  0.5648 -0.8479 -0.6494
  958MOL0     C29204   8.814   9.297  10.025 -0.2514 -0.3416 -0.7399
  958MOL0     C29205   8.906   9.187   9.960  0.4254  0.2087  0.0530
  958MOL0     C29206   9.050   9.195  10.010  0.0681  0.4682  0.7869
  958MOL0     C29207   9.138   9.081   9.956  0.4078  1.2472  0.3231
  958MOL0     C29208   9.270   9.084  10.042  0.2524 -0.8346 -0.4461
  958MOL0     C29209   9.382   8.994   9.998  0.3674 -0.8346  0.8501
  958MOL0     C29210   9.502   8.996  10.091  0.5313  0.7173  1.0358
  958MOL0     C29211   9.593   8.882  10.078 -0.0476  0.2596 -0.4028
  958MOL0     N29212   9.702   8.865  10.175 -0.1135  1.2043  0.4897
  958MOL0     C29213   9.765   8.961  10.249 -0.8342 -0.3732  0.5533
  958MOL0     C29214   9.851   8.887  10.327 -1.2982 -0.4171  0.1951
  958MOL0     C29215   9.946   8.948  10.433 -0.0061  0.0136 -0.9804
  958MOL0     C29216   9.875   9.014  10.542  0.0878 -0.7220  0.5866
  958MOL0     C29217   9.939   9.045  10.676  0.3236  0.0427 -0.7266
  958MOL0     C29218   9.845   9.116  10.774 -0.0431 -0.7473  0.1225
  958MOL0     O29219   9.823   9.256  10.727  0.0717  0.9755 -0.5997
  958MOL0     C29220   9.904   9.359  10.764  0.8293  0.6813  1.1683
  958MOL0     C29221  10.030   9.350  10.822 -0.4829 -0.4783  0.0434
  958MOL0     C29222  10.091   9.473  10.858 -0.7736  0.6111 -0.7935
  958MOL0     C29223  10.229   9.468  10.917 -0.5237  0.0049 -0.6952
  958MOL0     C29224  10.031   9.597  10.826 -1.2878 -0.6638  0.3139
  958MOL0     C29225  10.079   9.735  10.863 -0.4523  1.2337  0.4296
  958MOL0     O29226   9.985   9.838  10.856  0.2541 -0.1365 -0.8132
  958MOL0     C29227  10.026   9.966  10.856  0.5992  0.3446  0.3371
  958MOL0     C29228  10.083  10.029  10.741  0.1194 -0.2558 -1.2590
  958MOL0     C29229  10.138  10.156  10.749 -0.1466  0.0665  0.3501
  958MOL0     C29230  10.137  10.221  10.871  0.3345 -0.2601 -0.5071
  958MOL0     O29231  10.187  10.349  10.874 -0.4395 -0.0608 -1.3433
  958MOL0     C29232  10.103  10.452  10.935  0.2373  0.2741 -0.6669
  958MOL0     C29233  10.124  10.592  10.880  0.0923  0.1294  0.5241
  958MOL0     C29234  10.104  10.599  10.726  0.4375 -0.1981 -0.0902
  958MOL0     C29235  10.070  10.738  10.684 -0.5309  0.2605  0.9301
  958MOL0     C29236  10.047  10.749  10.530  0.0683 -0.1943 -0.1661
  958MOL0     C29237   9.913  10.687  10.479  0.7825  1.1927  0.6102
  958MOL0     C29238   9.905  10.714  10.326  0.5143 -1.6993  0.4499
  958MOL0     C29239   9.860  10.851  10.302  0.2320 -0.4229 -0.0474
  958MOL0    Cl29240   9.838  10.883  10.127 -0.2495 -0.2176  0.4137
  958MOL0     C29241  10.063  10.164  10.978 -0.1270 -0.1834  0.3393
  958MOL0     C29242  10.005  10.038  10.973  0.5511 -0.1291  0.1908
  958MOL0     O29243  10.199   9.754  10.891  0.0430 -0.5593  0.8974
  958MOL0     C29244   9.918   9.593  10.754  0.6054  0.6267  1.0209
  958MOL0     C29245   9.853   9.481  10.710 -1.4934  0.1272  0.2212
  958MOL0     N29246   9.841   8.758  10.295 -0.0271 -0.3467 -0.3481
  958MOL0     N29247   9.755   8.740  10.196 -0.9629  1.5578  0.5679
  958MOL0     C29248   8.673   9.480  10.218  0.2650 -0.4561 -0.3019
  958MOL0     C29249   8.642   9.586  10.310  1.2721  0.6534  0.1038
  958MOL0     C29250   8.678   9.837  10.705 -0.3288  0.1813  0.1600
  958MOL0     C29251   8.741   9.951  10.660  0.2304 -0.2578  0.5417
  958MOL0     C29252   8.776  10.053  10.752  0.4168  0.0083 -1.4428
  958MOL0     C29253   8.747  10.054  10.885 -0.5257  0.2944 -0.2393
  958MOL0     O29254   8.757  10.175  10.946  0.3295  0.1584  0.0462
  958MOL0     C29255   8.730  10.186  11.082  0.0841 -0.1717 -0.8411
  958MOL0     C29256   8.777  10.334  11.125  0.2026 -0.0399  0.6910
  958MOL0     C29257   8.762  10.333  11.277  0.5292 -0.2367 -0.4052
  958MOL0     C29258   8.881  10.416  11.342  0.2062 -0.8321  0.1827
  958MOL0     C29259   8.880  10.413  11.480 -0.1889 -0.4467 -0.5733
  958MOL0     C29260   8.886  10.401  11.602  0.0858 -0.7368 -0.6950
  958MOL0     C29261   8.683   9.935  10.934  0.9953 -0.0345  1.1489
  958MOL0     C29262   8.653   9.832  10.842 -1.4704  1.4080 -0.0867
  958MOL0     H29263   8.898   9.548  10.526 -2.2781 -2.0677  2.5899
  958MOL0     H29264   8.944   9.346  10.376  1.0377  1.1984  3.5445
  958MOL0     H29265   8.714   9.284   9.983 -0.4117  1.3096 -0.9572
  958MOL0     H29266   8.860   9.393   9.998  1.6123 -0.8399  0.4337
  958MOL0     H29267   8.873   9.087   9.988 -3.3100  0.9317 -1.2561
  958MOL0     H29268   8.897   9.197   9.852  3.1691 -0.2348 -0.2848
  958MOL0     H29269   9.099   9.291   9.992  2.9947 -0.5852  2.4429
  958MOL0     H29270   9.044   9.184  10.119 -2.2747  2.6958  0.9906
  958MOL0     H29271   9.091   8.983   9.969  3.4830 -1.3443 -5.0168
  958MOL0     H29272   9.160   9.100   9.851 -0.5583  1.0961  0.0817
  958MOL0     H29273   9.309   9.186  10.035 -3.7305  1.1550  2.2729
  958MOL0     H29274   9.229   9.055  10.139 -1.9203 -1.8386 -1.5812
  958MOL0     H29275   9.341   8.893   9.989  0.6562 -0.7533 -2.5738
  958MOL0     H29276   9.403   9.027   9.896 -0.9101  2.8217  1.6191
  958MOL0     H29277   9.554   9.092  10.084 -0.3309  1.5124  3.9540
  958MOL0     H29278   9.451   8.995  10.188 -1.5041  2.5331  0.0689
  958MOL0     H29279   9.639   8.887   9.979 -1.1631 -0.6327 -0.9877
  958MOL0     H29280   9.536   8.789  10.080 -0.5861  0.3884 -3.9098
  958MOL0     H29281   9.742   9.066  10.265  3.1812  1.4277 -3.4442
  958MOL0     H29282   9.995   8.862  10.479 -1.4463 -1.7990 -2.6327
  958MOL0     H29283  10.016   9.021  10.391  1.4378 -1.0798 -0.5581
  958MOL0     H29284   9.787   8.954  10.567 -0.6895  0.0637 -0.1696
  958MOL0     H29285   9.845   9.106  10.491 -1.9741 -1.3816  0.5128
  958MOL0     H29286  10.033   9.100  10.667  0.5126 -0.3719 -1.3158
  958MOL0     H29287   9.975   8.951  10.720 -1.0085 -0.6319 -1.0411
  958MOL0     H29288   9.873   9.100  10.878  0.6092  1.0987  0.2555
  958MOL0     H29289   9.751   9.060  10.774 -0.1610 -0.5815  1.5368
  958MOL0     H29290  10.066   9.259  10.869  1.4153 -1.0306 -2.2803
  958MOL0     H29291  10.302   9.514  10.850 -1.1975  1.1137 -0.6860
  958MOL0     H29292  10.241   9.538  11.000 -0.2292  1.1184 -1.6490
  958MOL0     H29293  10.257   9.365  10.943  1.3553  0.5233 -0.5444
  958MOL0     H29294  10.085   9.974  10.647  2.2004 -1.5756 -0.5106
  958MOL0     H29295  10.181  10.186  10.654  0.8094 -0.8725  0.4647
  958MOL0     H29296   9.995  10.433  10.929 -0.2375  2.1040  0.9709
  958MOL0     H29297  10.126  10.459  11.042 -1.7534  1.1006 -0.2496
  958MOL0     H29298  10.078  10.672  10.938  0.7410  0.5627  0.4566
  958MOL0     H29299  10.231  10.613  10.888  0.7029 -2.6627  0.6234
  958MOL0     H29300  10.020  10.536  10.694 -1.3888  3.1269 -2.5169
  958MOL0     H29301  10.193  10.563  10.674  1.9336  0.6236  1.7714
  958MOL0     H29302   9.985  10.779  10.738 -3.2274  0.0114 -2.7273
  958MOL0     H29303  10.154  10.806  10.701 -2.3529  3.7890 -2.4487
  958MOL0     H29304  10.135  10.702  10.484  0.4137  1.8523 -1.7369
  958MOL0     H29305  10.061  10.854  10.501 -1.2674  0.4048  1.1751
  958MOL0     H29306   9.922  10.578  10.487  1.0171  1.0064 -1.6336
  958MOL0     H29307   9.828  10.732  10.532 -0.1780 -0.1587  0.2825
  958MOL0     H29308   9.831  10.644  10.284 -1.4302  0.4223  0.1682
  958MOL0     H29309  10.004  10.714  10.281  0.6008  1.9831  0.3425
  958MOL0     H29310   9.942  10.917  10.333  2.2157 -2.9455  0.3819
  958MOL0     H29311   9.770  10.884  10.355  0.9465  1.1818  0.2117
  958MOL0     H29312  10.047  10.213  11.073  0.2492 -4.0923  2.5957
  958MOL0     H29313   9.951   9.988  11.053 -0.5895  0.7557 -0.0078
  958MOL0     H29314   9.859   9.681  10.731 -1.3505 -1.0222 -0.7624
  958MOL0     H29315   9.775   9.480  10.635 -1.0867  0.9935 -0.2353
  958MOL0     H29316   8.602   9.455  10.141 -0.2433 -0.0195  0.0170
  958MOL0     H29317   8.560   9.657  10.303  2.1087  1.5393 -1.1062
  958MOL0     H29318   8.775   9.972  10.559  1.4019  4.6319  1.7270
  958MOL0     H29319   8.821  10.143  10.711 -2.7862  2.0704 -0.7498
  958MOL0     H29320   8.623  10.171  11.096 -0.0155  0.9536 -0.2088
  958MOL0     H29321   8.796  10.122  11.141  1.8738  2.1070 -0.1766
  958MOL0     H29322   8.713  10.410  11.081  1.5808 -0.7227 -2.8188
  958MOL0     H29323   8.881  10.347  11.094  1.2554 -0.2170  3.8030
  958MOL0     H29324   8.756  10.230  11.314  1.1590 -0.6300 -1.3720
  958MOL0     H29325   8.668  10.384  11.301  1.1966  0.2024  1.5063
  958MOL0     H29326   8.885  10.519  11.306  1.2772 -1.6689 -2.3013
  958MOL0     H29327   8.972  10.361  11.318 -0.3284 -2.0147  0.7559
  958MOL0     H29328   8.875  10.381  11.707 -3.8417  0.1623 -0.7711
  958MOL0     H29329   8.651   9.921  11.037  2.2805 -2.3937  1.2943
  958MOL0     H29330   8.607   9.742  10.882 -0.2645  1.6671  2.0041
  959MOL0     O29331   8.413   3.180   9.311 -0.3191 -0.4063 -0.7739
  959MOL0     C29332   8.431   3.161   9.195  1.4636 -0.2097  0.3826
  959MOL0     O29333   8.520   3.226   9.116  0.9319  0.5005  0.7588
  959MOL0     C29334   8.651   3.243   9.143  0.6412 -0.0319 -0.1755
  959MOL0     C29335   8.715   3.174   9.241 -0.3234  0.0729  0.6988
  959MOL0     C29336   8.853   3.200   9.259  0.3291 -0.2795  1.6677
  959MOL0     C29337   8.921   3.288   9.172  0.5244  0.3264 -0.6787
  959MOL0     O29338   9.055   3.306   9.185  0.4439 -0.3157 -0.2059
  959MOL0     C29339   9.139   3.272   9.077 -0.1718  0.0050 -0.4760
  959MOL0     C29340   9.217   3.155   9.127  0.5870 -0.5414  0.1783
  959MOL0     C29341   9.301   3.184   9.252 -0.2891  0.6759 -0.1038
  959MOL0     C29342   9.313   3.050   9.323 -0.0856 -0.8363 -0.8281
  959MOL0     C29343   9.404   3.063   9.452 -0.1014 -0.5532  0.0097
  959MOL0     C29344   9.464   2.926   9.477  0.1815 -0.1153 -0.2600
  959MOL0     C29345   9.529   2.915   9.618  0.4104 -0.7317 -0.4721
  959MOL0     C29346   9.427   2.847   9.703 -0.4340  0.4644 -0.1849
  959MOL0     N29347   9.419   2.701   9.690 -0.6392  0.1048 -0.2933
  959MOL0     C29348   9.507   2.620   9.764 -0.4421 -0.3325 -0.0011
  959MOL0     C29349   9.451   2.498   9.764 -0.5098 -0.1159 -0.9397
  959MOL0     C29350   9.491   2.372   9.847  0.3924 -0.7344  0.6996
  959MOL0     C29351   9.456   2.240   9.781  0.4660  0.4654 -0.4376
  959MOL0     C29352   9.457   2.126   9.885 -0.3050 -0.1559  0.5202
  959MOL0     C29353   9.379   2.003   9.832 -0.1923  0.5435 -1.3432
  959MOL0     O29354   9.359   1.897   9.918  0.5021  0.8091 -0.6581
  959MOL0     C29355   9.287   1.894  10.033  0.2377  0.1478 -0.7791
  959MOL0     C29356   9.190   1.985  10.082  0.1778 -0.8923 -0.4308
  959MOL0     C29357   9.116   1.960  10.201 -0.2659  0.0003  1.2061
  959MOL0     C29358   9.019   2.070  10.250 -0.1127  1.1379 -0.2507
  959MOL0     C29359   9.135   1.853  10.270  0.4352  0.8403  0.3981
  959MOL0     C29360   9.073   1.836  10.399  0.4421 -0.2685 -0.5261
  959MOL0     O29361   9.139   1.872  10.517  0.9888 -0.3050 -0.8710
  959MOL0     C29362   9.118   1.796  10.628  0.1252  0.8645  0.3844
  959MOL0     C29363   9.085   1.658  10.636 -0.2995  0.0860  0.8366
  959MOL0     C29364   9.065   1.607  10.765  0.0198 -1.0021  0.7915
  959MOL0     C29365   9.083   1.674  10.885 -0.4389  0.5486  0.4087
  959MOL0     O29366   9.063   1.608  11.003 -0.3232  0.4224  0.1778
  959MOL0     C29367   8.932   1.578  11.053  0.0331  0.2542 -0.1271
  959MOL0     C29368   8.938   1.572  11.207  0.4743  1.0510  0.1328
  959MOL0     C29369   8.797   1.549  11.273  0.0214  0.1895 -0.2628
  959MOL0     C29370   8.757   1.659  11.371  0.3074  0.4639  1.2017
  959MOL0     C29371   8.635   1.601  11.438 -0.8301 -0.5085 -0.0952
  959MOL0     C29372   8.678   1.501  11.553 -0.1522 -0.1998 -0.3313
  959MOL0     C29373   8.548   1.467  11.641 -0.3517 -0.0003  0.0189
  959MOL0     C29374   8.575   1.373  11.763 -0.3881 -0.5882  1.6103
  959MOL0    Cl29375   8.649   1.227  11.702  0.2271 -0.1269 -0.2404
  959MOL0     C29376   9.116   1.808  10.873 -0.3734 -0.1132  1.1535
  959MOL0     C29377   9.138   1.873  10.750  0.6684  0.2350 -0.3225
  959MOL0     O29378   8.953   1.817  10.386  0.0072 -0.1134  0.0879
  959MOL0     C29379   9.224   1.751  10.225  0.9261  0.0015  0.9444
  959MOL0     C29380   9.293   1.773  10.100  0.3961  0.6470  0.8995
  959MOL0     N29381   9.339   2.506   9.693  0.3281  0.9103  0.7744
  959MOL0     N29382   9.322   2.619   9.643 -0.4201 -0.3077 -0.4053
  959MOL0     C29383   8.848   3.375   9.085 -0.3144  0.3351 -0.4806
  959MOL0     C29384   8.715   3.339   9.068 -0.2778 -0.1152  0.1615
  959MOL0     C29385   8.345   3.058   9.123  0.2331 -0.5195  0.1805
  959MOL0     C29386   8.326   3.046   8.984 -0.3399  0.0191  0.4870
  959MOL0     C29387   8.235   2.960   8.921 -0.4557  0.6350 -0.0357
  959MOL0     C29388   8.162   2.868   8.996 -0.6270  0.1125 -0.1455
  959MOL0     O29389   8.084   2.771   8.953  0.2951  0.3206 -0.3887
  959MOL0     C29390   8.089   2.741   8.814  1.3078  0.9848  0.4037
  959MOL0     C29391   7.997   2.839   8.732 -0.2643  0.6893  0.4932
  959MOL0     C29392   7.863   2.849   8.792  0.2470 -0.3530  0.1042
  959MOL0     C29393   7.779   2.965   8.731  0.0859 -0.7068  0.5432
  959MOL0     C29394   7.721   2.942   8.605  1.5335 -0.1112  0.8263
  959MOL0     C29395   7.665   2.919   8.499  0.3403 -0.7323 -1.4371
  959MOL0     C29396   8.183   2.869   9.132 -0.8953 -0.4767  0.3069
  959MOL0     C29397   8.276   2.958   9.190 -0.3791  0.0023  0.7533
  959MOL0     H29398   8.672   3.101   9.309  1.0390  1.1795  2.8816
  959MOL0     H29399   8.911   3.138   9.327  0.0164 -0.5432  1.6989
  959MOL0     H29400   9.088   3.249   8.983 -2.6516  1.7379  0.3098
  959MOL0     H29401   9.202   3.361   9.071  0.9283 -0.6858  0.3803
  959MOL0     H29402   9.140   3.077   9.137 -1.4924  1.3374 -0.3433
  959MOL0     H29403   9.284   3.127   9.045 -0.3557 -2.4414  0.0088
  959MOL0     H29404   9.404   3.219   9.239 -0.7205  2.4699  0.9393
  959MOL0     H29405   9.259   3.268   9.310  0.4165  2.2614 -1.7865
  959MOL0     H29406   9.213   3.016   9.353 -0.8991  1.4464 -0.7555
  959MOL0     H29407   9.360   2.982   9.251  1.1777 -2.5652  1.4926
  959MOL0     H29408   9.481   3.137   9.427 -1.3173  0.7891  0.1187
  959MOL0     H29409   9.338   3.099   9.531 -1.1645  0.9872 -1.5342
  959MOL0     H29410   9.385   2.851   9.469  1.5521 -1.9414  1.9478
  959MOL0     H29411   9.534   2.902   9.396 -0.2933  0.7601 -0.9446
  959MOL0     H29412   9.627   2.868   9.608  2.1518  1.5474  3.4092
  959MOL0     H29413   9.547   3.014   9.660 -1.9494 -0.3920 -0.1387
  959MOL0     H29414   9.327   2.882   9.679 -2.3385 -4.5881 -0.8282
  959MOL0     H29415   9.457   2.868   9.807 -1.4190 -1.9639  0.6663
  959MOL0     H29416   9.602   2.641   9.813  0.8911 -1.2462 -2.0688
  959MOL0     H29417   9.598   2.367   9.872  0.9321 -1.6147 -1.5192
  959MOL0     H29418   9.430   2.379   9.937 -2.8748 -2.9296 -1.1611
  959MOL0     H29419   9.530   2.217   9.704 -0.5489 -1.4484 -0.9095
  959MOL0     H29420   9.360   2.244   9.729  0.7643 -0.7727 -1.1354
  959MOL0     H29421   9.413   2.153   9.981 -1.8281  2.5854 -0.8278
  959MOL0     H29422   9.562   2.101   9.901 -0.6285 -0.8340  1.6526
  959MOL0     H29423   9.442   1.969   9.750  0.9212 -0.2135 -0.2189
  959MOL0     H29424   9.285   2.045   9.796 -2.0010 -0.6501  1.5550
  959MOL0     H29425   9.161   2.072  10.024  1.3130  1.3353  2.1075
  959MOL0     H29426   9.047   2.171  10.218 -0.3415  2.0336  2.1261
  959MOL0     H29427   8.918   2.053  10.211 -0.9603 -1.2180  2.5725
  959MOL0     H29428   9.006   2.067  10.359 -0.0296 -0.9591 -0.2644
  959MOL0     H29429   9.075   1.590  10.552 -0.2160  1.2068 -0.1067
  959MOL0     H29430   9.046   1.502  10.787  1.8124 -1.1014  2.0860
  959MOL0     H29431   8.859   1.652  11.017 -0.8021 -1.6788 -2.6900
  959MOL0     H29432   8.897   1.481  11.017  0.1381  0.7649 -1.6493
  959MOL0     H29433   9.000   1.488  11.240 -2.3846 -1.5478 -0.6457
  959MOL0     H29434   8.983   1.663  11.248 -0.1077  1.0175  0.8821
  959MOL0     H29435   8.814   1.460  11.335  1.0250  0.9092  0.5229
  959MOL0     H29436   8.724   1.522  11.197 -0.0158 -7.2606  1.5939
  959MOL0     H29437   8.839   1.681  11.439 -0.6132  2.0557  1.8465
  959MOL0     H29438   8.730   1.749  11.315 -0.8605 -1.7649 -2.1730
  959MOL0     H29439   8.561   1.573  11.363 -0.0980  0.1164 -1.0723
  959MOL0     H29440   8.575   1.678  11.487 -0.3394 -0.1901  0.0107
  959MOL0     H29441   8.717   1.410  11.507 -0.9232 -1.7871  1.9654
  959MOL0     H29442   8.748   1.548  11.623 -0.8816  2.6944 -1.4207
  959MOL0     H29443   8.475   1.420  11.576 -0.8269  1.7827 -0.8204
  959MOL0     H29444   8.516   1.564  11.680  0.5056 -0.5548  2.2385
  959MOL0     H29445   8.479   1.355  11.811 -1.4088 -1.0866 -0.4939
  959MOL0     H29446   8.645   1.420  11.833 -0.7896  1.9985  0.3930
  959MOL0     H29447   9.135   1.847  10.972  0.2642  1.8548  0.2916
  959MOL0     H29448   9.171   1.977  10.745  0.8853  0.1054 -1.9252
  959MOL0     H29449   9.235   1.653  10.272 -0.2153  0.5031  2.3218
  959MOL0     H29450   9.355   1.695  10.058 -0.8322 -1.1249  2.2193
  959MOL0     H29451   8.891   3.463   9.040  1.0111 -0.6113 -1.1408
  959MOL0     H29452   8.642   3.390   9.005  1.7429  0.4859 -1.8056
  959MOL0     H29453   8.377   3.125   8.929 -1.5133  2.3084  2.4764
  959MOL0     H29454   8.217   2.988   8.817  0.1913  4.5576  0.7435
  959MOL0     H29455   8.189   2.730   8.770  0.8609 -0.3946 -0.3235
  959MOL0     H29456   8.045   2.642   8.798 -4.4008  3.4420 -1.3565
  959MOL0     H29457   7.984   2.807   8.628 -1.7391  1.3361  0.4451
  959MOL0     H29458   8.041   2.939   8.737 -1.3323  1.1982  0.2581
  959MOL0     H29459   7.873   2.869   8.900 -0.2515 -0.6131  0.2010
  959MOL0     H29460   7.824   2.749   8.775  2.4277 -2.0545  3.7077
  959MOL0     H29461   7.845   3.052   8.720 -2.5534  1.3307 -0.2805
  959MOL0     H29462   7.708   3.010   8.802 -2.2644  0.5877 -2.4229
  959MOL0     H29463   7.621   2.911   8.402 -1.3793  1.3970 -0.8999
  959MOL0     H29464   8.132   2.791   9.189  0.2749 -1.8657 -0.4805
  959MOL0     H29465   8.288   2.962   9.298 -1.5527  2.2963  0.8530
  960MOL0     O29466   5.920   1.790   2.226  0.0782 -0.0798  0.1911
  960MOL0     C29467   5.943   1.805   2.107  1.1673 -1.4436 -0.8082
  960MOL0     O29468   5.902   1.723   2.010 -0.6119 -0.0326  0.1845
  960MOL0     C29469   5.853   1.596   2.045 -0.3935  0.1874  0.3660
  960MOL0     C29470   5.915   1.484   1.996 -0.0103  0.2596  0.2168
  960MOL0     C29471   5.857   1.360   1.995 -0.2327 -0.1917 -0.5628
  960MOL0     C29472   5.736   1.342   2.070  0.2141 -0.1024  0.8389
  960MOL0     O29473   5.673   1.224   2.071 -0.3781  0.5639 -0.5563
  960MOL0     C29474   5.740   1.105   2.033  0.3348  0.4394 -0.4342
  960MOL0     C29475   5.829   1.051   2.133  0.2931  1.1700 -0.4489
  960MOL0     C29476   5.786   1.041   2.271  0.4667 -0.2028 -1.8203
  960MOL0     C29477   5.871   0.947   2.363 -0.4469 -0.0573  0.2388
  960MOL0     C29478   5.801   0.931   2.500 -0.4374  0.7861  0.5550
  960MOL0     C29479   5.866   0.813   2.578  0.5237 -0.1713 -0.8187
  960MOL0     C29480   5.831   0.817   2.732  0.8196 -0.3396  0.1622
  960MOL0     C29481   5.865   0.944   2.811  0.2487  0.1307  0.7078
  960MOL0     N29482   6.006   0.949   2.849  0.5858 -0.7911 -0.8157
  960MOL0     C29483   6.041   0.903   2.974  0.4850 -0.3805 -0.4691
  960MOL0     C29484   6.169   0.950   2.994 -0.6226  0.2414 -0.8722
  960MOL0     C29485   6.265   0.899   3.105 -0.5828  0.6098 -0.5239
  960MOL0     C29486   6.245   0.747   3.143  0.9212  0.2205 -1.0959
  960MOL0     C29487   6.296   0.720   3.291 -0.1632  0.6574  0.1187
  960MOL0     C29488   6.446   0.703   3.292 -0.2430 -0.3588  0.6355
  960MOL0     O29489   6.506   0.640   3.414 -0.8173 -0.0516  0.1924
  960MOL0     C29490   6.631   0.687   3.455  0.1469 -0.2826 -0.2613
  960MOL0     C29491   6.666   0.672   3.596 -0.1954  0.5264  0.7184
  960MOL0     C29492   6.782   0.720   3.648 -0.5169  0.4893  0.0621
  960MOL0     C29493   6.785   0.726   3.804  1.0222 -0.2360 -0.0651
  960MOL0     C29494   6.877   0.797   3.562  0.4386  0.6051 -0.1816
  960MOL0     C29495   7.002   0.868   3.608  0.0850  1.3464 -0.3784
  960MOL0     O29496   7.049   0.954   3.516 -0.5366 -0.1742  0.6217
  960MOL0     C29497   7.157   1.026   3.532  0.4861  0.6932  0.3557
  960MOL0     C29498   7.255   1.014   3.432 -0.2325 -0.2517 -0.1653
  960MOL0     C29499   7.362   1.101   3.423  0.0683 -0.5206  0.0673
  960MOL0     C29500   7.376   1.206   3.517 -0.8687  0.2351  0.1730
  960MOL0     O29501   7.475   1.304   3.523  0.1447 -0.5137  0.5108
  960MOL0     C29502   7.567   1.312   3.416  0.5326  0.3991 -0.3605
  960MOL0     C29503   7.680   1.409   3.417 -1.3147  0.5669  0.4468
  960MOL0     C29504   7.628   1.556   3.427 -0.0587 -0.3403 -0.4712
  960MOL0     C29505   7.732   1.662   3.438  0.3664 -0.6371 -0.2183
  960MOL0     C29506   7.667   1.802   3.431 -0.6922  0.1091 -0.1231
  960MOL0     C29507   7.756   1.900   3.354 -0.2813 -0.4861 -0.2602
  960MOL0     C29508   7.676   2.029   3.325 -0.4520  0.2106  0.4029
  960MOL0     C29509   7.768   2.145   3.267 -0.0040  0.0114  0.5347
  960MOL0    Cl29510   7.650   2.287   3.237  0.3278  0.3497 -0.3253
  960MOL0     C29511   7.280   1.207   3.620  0.4137  1.3419 -0.2094
  960MOL0     C29512   7.170   1.122   3.632 -0.5592 -0.0088 -0.0885
  960MOL0     O29513   7.049   0.841   3.723 -0.4086  0.0711 -0.1625
  960MOL0     C29514   6.843   0.799   3.424 -1.2291 -0.4977 -0.4338
  960MOL0     C29515   6.722   0.749   3.374 -0.2274  0.0091 -0.1467
  960MOL0     N29516   6.199   1.016   2.882  0.1227 -0.8411 -0.0809
  960MOL0     N29517   6.105   1.012   2.791 -0.6474 -0.6077 -0.5390
  960MOL0     C29518   5.680   1.452   2.130  0.0788  0.2343 -0.6120
  960MOL0     C29519   5.738   1.577   2.127 -0.0745 -1.0715 -0.6802
  960MOL0     C29520   6.026   1.927   2.072  0.5296  0.7600  0.0580
  960MOL0     C29521   6.092   2.014   2.162  0.6083 -0.7909 -0.9730
  960MOL0     C29522   6.176   2.102   2.111 -0.4262 -0.5316 -0.6395
  960MOL0     C29523   6.206   2.124   1.971 -0.3682  0.0515 -0.7286
  960MOL0     O29524   6.293   2.220   1.932  0.1901 -0.1429  0.1546
  960MOL0     C29525   6.247   2.330   1.860 -0.0536  0.4818  0.2208
  960MOL0     C29526   6.124   2.399   1.917 -0.0975  1.2828 -0.0090
  960MOL0     C29527   6.117   2.549   1.871 -0.4193 -0.6232  0.3097
  960MOL0     C29528   6.222   2.644   1.938 -0.1212 -0.1867 -0.3861
  960MOL0     C29529   6.219   2.769   1.873  1.0913  1.1738  0.5118
  960MOL0     C29530   6.219   2.877   1.819  0.7560 -0.0524 -0.0109
  960MOL0     C29531   6.133   2.046   1.878 -0.6427 -0.0150  0.1961
  960MOL0     C29532   6.048   1.956   1.933  2.1382 -0.2661  0.3272
  960MOL0     H29533   6.011   1.503   1.948 -0.1347 -1.0772 -0.6197
  960MOL0     H29534   5.914   1.279   1.951 -0.8691 -0.1180 -1.5646
  960MOL0     H29535   5.667   1.031   1.999  2.6605 -1.7998 -0.8257
  960MOL0     H29536   5.784   1.118   1.933 -0.7811  2.6605 -0.7026
  960MOL0     H29537   5.854   0.951   2.097 -0.3044  0.8671 -0.0568
  960MOL0     H29538   5.920   1.111   2.132 -0.2401  2.1571  1.7826
  960MOL0     H29539   5.781   1.136   2.325 -0.3935 -1.5741  0.6686
  960MOL0     H29540   5.680   1.013   2.261  1.0446 -1.8747 -4.4171
  960MOL0     H29541   5.888   0.853   2.308 -0.6225  0.6031 -0.9792
  960MOL0     H29542   5.975   0.983   2.366 -1.5980  3.7259 -0.3189
  960MOL0     H29543   5.812   1.034   2.536  3.3581  1.6739 -2.4715
  960MOL0     H29544   5.694   0.916   2.483 -0.7775  1.3227  2.1128
  960MOL0     H29545   5.822   0.721   2.538 -1.9188  0.3375  0.4705
  960MOL0     H29546   5.973   0.818   2.556  0.5776  1.1623 -0.3773
  960MOL0     H29547   5.724   0.795   2.737  1.3893 -3.7524 -0.4205
  960MOL0     H29548   5.876   0.732   2.782  1.2611 -0.1864  0.0305
  960MOL0     H29549   5.810   0.946   2.906 -0.7807 -0.1995  0.1230
  960MOL0     H29550   5.818   1.026   2.757  0.3170 -0.2689  0.0363
  960MOL0     H29551   5.982   0.849   3.047 -2.6757  2.3837 -0.7224
  960MOL0     H29552   6.365   0.929   3.072 -0.7235 -0.1952 -1.7547
  960MOL0     H29553   6.235   0.951   3.196 -1.5409  1.5372 -1.3493
  960MOL0     H29554   6.298   0.689   3.067  3.8541 -0.3998  1.2506
  960MOL0     H29555   6.140   0.716   3.142  1.7556 -3.0399 -0.5224
  960MOL0     H29556   6.254   0.629   3.335  2.7175  0.6060  3.1263
  960MOL0     H29557   6.271   0.806   3.353 -3.9534 -0.2972  0.1678
  960MOL0     H29558   6.503   0.796   3.279 -3.2339  1.5033  0.0343
  960MOL0     H29559   6.457   0.627   3.215 -0.8841  1.9993 -1.9427
  960MOL0     H29560   6.599   0.624   3.667 -0.7252  0.2583  0.0549
  960MOL0     H29561   6.718   0.657   3.857 -0.5593  0.4712 -1.0723
  960MOL0     H29562   6.883   0.714   3.850  1.6501  4.7727  0.3918
  960MOL0     H29563   6.748   0.825   3.830 -1.1267 -0.6828 -1.1067
  960MOL0     H29564   7.237   0.941   3.353 -0.7114 -1.8090  1.3249
  960MOL0     H29565   7.424   1.097   3.334  0.9624 -5.0287  0.6256
  960MOL0     H29566   7.606   1.210   3.404  3.2335  1.3138  0.1061
  960MOL0     H29567   7.510   1.336   3.326 -1.0019 -0.4565  0.3293
  960MOL0     H29568   7.750   1.401   3.501 -0.5369 -0.3477 -0.2649
  960MOL0     H29569   7.732   1.391   3.322  0.6902 -0.6791  1.7008
  960MOL0     H29570   7.560   1.568   3.513  0.9245  0.4064  0.2206
  960MOL0     H29571   7.578   1.585   3.334 -0.3357 -0.3140 -0.3155
  960MOL0     H29572   7.793   1.656   3.528  0.4290  0.8785 -0.1359
  960MOL0     H29573   7.798   1.641   3.353  0.9279 -0.1541  0.0897
  960MOL0     H29574   7.656   1.830   3.536  0.3224  2.0423 -0.4937
  960MOL0     H29575   7.568   1.798   3.385 -0.2675 -1.0026 -0.9743
  960MOL0     H29576   7.844   1.936   3.406  2.2162 -1.6760 -3.3298
  960MOL0     H29577   7.787   1.848   3.263 -0.6942 -2.4110  0.6418
  960MOL0     H29578   7.639   2.055   3.425 -2.3522 -5.7452  1.6353
  960MOL0     H29579   7.586   2.007   3.267 -0.5641 -1.3325  1.1107
  960MOL0     H29580   7.818   2.124   3.172  1.7206 -1.3060  1.6689
  960MOL0     H29581   7.845   2.169   3.341  0.1254  1.9354 -0.1886
  960MOL0     H29582   7.287   1.282   3.698 -0.6021 -0.3727  1.6487
  960MOL0     H29583   7.108   1.148   3.718  1.9885  0.3709  1.7673
  960MOL0     H29584   6.903   0.848   3.348 -3.2071 -0.6532 -2.2012
  960MOL0     H29585   6.710   0.755   3.267 -2.6424  2.7942  0.1333
  960MOL0     H29586   5.582   1.433   2.173  1.1373  0.1618  1.9222
  960MOL0     H29587   5.696   1.669   2.166  3.4419  0.5045 -0.2615
  960MOL0     H29588   6.069   2.007   2.268  1.3817 -1.6807 -0.8514
  960MOL0     H29589   6.225   2.157   2.191  1.8798  0.9810 -2.9463
  960MOL0     H29590   6.326   2.405   1.869  0.3641 -0.0074  0.7315
  960MOL0     H29591   6.233   2.319   1.752  3.8827  0.9616 -0.4659
  960MOL0     H29592   6.135   2.396   2.026  1.5843  0.9763 -0.1513
  960MOL0     H29593   6.035   2.347   1.880 -0.8214  2.8493 -0.5327
  960MOL0     H29594   6.024   2.589   1.912 -0.0186 -2.3037  3.1924
  960MOL0     H29595   6.115   2.553   1.762 -1.6128 -1.4336  0.2819
  960MOL0     H29596   6.325   2.607   1.930  1.2202  3.4350 -1.5419
  960MOL0     H29597   6.209   2.667   2.044  7.0415  2.0414  0.5035
  960MOL0     H29598   6.204   2.969   1.766  0.2016 -0.0265  0.1860
  960MOL0     H29599   6.139   2.066   1.771 -0.8673  5.3941  0.9228
  960MOL0     H29600   5.995   1.895   1.861  2.0810  1.2100 -0.9242
  961MOL0     O29601  11.183   5.406   0.877 -0.6571  0.9176  0.4087
  961MOL0     C29602  11.229   5.497   0.802  0.1074 -0.3517  0.0372
  961MOL0     O29603  11.245   5.623   0.830  0.3811 -0.7459 -0.5867
  961MOL0     C29604  11.207   5.690   0.937  0.0582 -0.4629 -0.0616
  961MOL0     C29605  11.233   5.827   0.937 -0.1702 -0.2949 -0.2621
  961MOL0     C29606  11.205   5.911   1.043  0.5591 -0.0398 -0.4597
  961MOL0     C29607  11.131   5.864   1.154  0.1122  0.3087 -0.0965
  961MOL0     O29608  11.118   5.939   1.264 -0.2098 -0.7826 -0.3019
  961MOL0     C29609  11.132   5.890   1.401  0.1361  0.6882  0.3227
  961MOL0     C29610  11.209   5.979   1.498 -0.1993 -0.2917  0.2664
  961MOL0     C29611  11.359   5.978   1.453  0.1689 -0.2138  1.4065
  961MOL0     C29612  11.430   6.068   1.548  0.5635  0.4547 -0.1502
  961MOL0     C29613  11.576   6.107   1.522  0.4370 -0.3867 -0.2851
  961MOL0     C29614  11.637   6.192   1.633  0.0878 -0.2719 -0.0828
  961MOL0     C29615  11.776   6.224   1.587  0.1136  0.4374  1.0471
  961MOL0     C29616  11.866   6.233   1.711  1.1477 -0.4319  0.1370
  961MOL0     N29617  12.011   6.255   1.671 -0.5440  0.3562 -0.1390
  961MOL0     C29618  12.068   6.193   1.561  0.2388  0.8132 -0.9412
  961MOL0     C29619  12.183   6.257   1.534 -0.1196 -0.3923 -0.4596
  961MOL0     C29620  12.281   6.223   1.415  1.1207 -0.4837 -0.0321
  961MOL0     C29621  12.428   6.276   1.419 -1.7043  0.1690 -0.8038
  961MOL0     C29622  12.514   6.231   1.541  0.9481  0.4140  0.1885
  961MOL0     C29623  12.657   6.275   1.549  0.3608  0.0331  0.5715
  961MOL0     O29624  12.743   6.249   1.431  0.2879  0.5474 -0.2153
  961MOL0     C29625  12.870   6.299   1.434  0.6468  0.5777  0.0671
  961MOL0     C29626  12.916   6.403   1.511  0.7527 -0.0940  0.8794
  961MOL0     C29627  13.042   6.462   1.485  0.8264 -0.7473 -0.2644
  961MOL0     C29628  13.100   6.568   1.573  0.1868 -0.4651  0.2315
  961MOL0     C29629  13.119   6.417   1.380 -0.3571  0.1391  0.8075
  961MOL0     C29630  13.259   6.452   1.351  0.7533 -0.1209 -0.2131
  961MOL0     O29631  13.287   6.442   1.218 -0.1537 -1.2295  0.2001
  961MOL0     C29632  13.422   6.462   1.178  0.6427 -0.2617  0.2031
  961MOL0     C29633  13.461   6.595   1.137  0.1782  0.1436  0.0767
  961MOL0     C29634  13.598   6.624   1.123  1.2107  0.3974  0.4133
  961MOL0     C29635  13.689   6.523   1.128  1.0839  0.4180 -0.8949
  961MOL0     O29636  13.820   6.540   1.095 -0.6267 -0.1040  0.6586
  961MOL0     C29637  13.890   6.617   1.191 -1.5177  0.3603  0.6322
  961MOL0     C29638  14.009   6.703   1.136 -0.2540 -0.4557  0.6549
  961MOL0     C29639  13.957   6.777   1.006 -0.6983 -0.4087 -0.3392
  961MOL0     C29640  14.041   6.741   0.886 -1.0008 -1.0987  0.3939
  961MOL0     C29641  14.019   6.837   0.762  0.3298  0.0705  1.0778
  961MOL0     C29642  14.100   6.776   0.661 -0.5018  0.1308 -0.1373
  961MOL0     C29643  14.078   6.813   0.519 -0.3531 -0.2740  0.4463
  961MOL0     C29644  14.076   6.959   0.477 -0.2917 -0.8433 -0.6485
  961MOL0    Cl29645  13.916   7.042   0.515 -0.0987 -0.1229  0.4473
  961MOL0     C29646  13.646   6.391   1.163  0.1655  0.5045  0.6739
  961MOL0     C29647  13.510   6.356   1.186  0.6320  0.4910 -0.5367
  961MOL0     O29648  13.334   6.459   1.448 -0.1515 -0.5674 -0.2123
  961MOL0     C29649  13.069   6.322   1.288  0.1532 -1.2056 -0.3696
  961MOL0     C29650  12.948   6.262   1.325  0.0131  0.3816  0.4641
  961MOL0     N29651  12.199   6.359   1.622 -0.5487  0.1184  0.6969
  961MOL0     N29652  12.102   6.351   1.712  0.2854  1.0345  0.0309
  961MOL0     C29653  11.099   5.726   1.146 -0.2995 -0.6889 -0.5625
  961MOL0     C29654  11.134   5.639   1.048 -0.1912 -0.0048  0.6804
  961MOL0     C29655  11.270   5.466   0.663 -0.1321  0.2632 -0.3987
  961MOL0     C29656  11.286   5.326   0.617  0.3300 -0.6186 -0.3186
  961MOL0     C29657  11.322   5.307   0.482 -0.8081  0.1248  0.6712
  961MOL0     C29658  11.344   5.405   0.390 -0.0255 -0.1088 -0.1068
  961MOL0     O29659  11.372   5.360   0.272 -0.0915 -0.4429  0.9986
  961MOL0     C29660  11.421   5.456   0.172  0.7550 -0.0164  0.1595
  961MOL0     C29661  11.305   5.486   0.075  0.5938 -0.2493 -0.7125
  961MOL0     C29662  11.222   5.357   0.020 -0.3015  0.3968 -0.2466
  961MOL0     C29663  11.082   5.396  -0.042  0.2117  0.1045 -0.6931
  961MOL0     C29664  11.087   5.492  -0.157  0.0955  0.5181 -1.0679
  961MOL0     C29665  11.116   5.586  -0.228 -0.0256  0.5649  0.1758
  961MOL0     C29666  11.313   5.537   0.428  0.0182 -0.2617 -0.0059
  961MOL0     C29667  11.277   5.565   0.567 -1.0956 -0.4137  0.2376
  961MOL0     H29668  11.276   5.863   0.845  2.9778 -1.2287  0.7003
  961MOL0     H29669  11.255   6.007   1.050  1.4100 -0.3742 -1.7568
  961MOL0     H29670  11.035   5.880   1.451 -0.0001  0.2447 -0.0180
  961MOL0     H29671  11.175   5.789   1.401  3.2800  1.9076  2.0819
  961MOL0     H29672  11.172   6.082   1.495  1.4144  0.2874 -1.4663
  961MOL0     H29673  11.192   5.936   1.598  0.4140 -3.7823 -0.9973
  961MOL0     H29674  11.414   5.884   1.445 -0.4539 -0.7983  3.3436
  961MOL0     H29675  11.363   6.029   1.356 -2.3968  2.8843  2.7558
  961MOL0     H29676  11.380   6.165   1.558  0.9826  0.7145 -0.5300
  961MOL0     H29677  11.425   6.011   1.641  1.5689 -0.5482 -0.6993
  961MOL0     H29678  11.632   6.013   1.510  0.6768 -0.4266  1.0196
  961MOL0     H29679  11.582   6.170   1.433 -2.5730  0.5303  0.0610
  961MOL0     H29680  11.571   6.276   1.655 -1.3423 -1.5082  0.4901
  961MOL0     H29681  11.640   6.139   1.728  0.3477  0.7468  0.4905
  961MOL0     H29682  11.813   6.159   1.507  1.8384  2.6732 -0.1037
  961MOL0     H29683  11.772   6.323   1.541 -0.0802  0.2046  0.5541
  961MOL0     H29684  11.856   6.137   1.763  2.2250 -0.7463 -0.2193
  961MOL0     H29685  11.828   6.314   1.773  0.9691  0.2707 -0.8738
  961MOL0     H29686  12.027   6.106   1.511 -1.6016  1.4043 -0.5439
  961MOL0     H29687  12.269   6.115   1.400 -0.1958 -0.5733  1.3849
  961MOL0     H29688  12.234   6.272   1.329 -0.3458 -0.2423  0.8625
  961MOL0     H29689  12.427   6.385   1.411  2.3788  0.2725 -2.5026
  961MOL0     H29690  12.479   6.243   1.328 -1.9960  0.3876 -1.0493
  961MOL0     H29691  12.508   6.122   1.543  3.3579  0.2257  0.6946
  961MOL0     H29692  12.473   6.273   1.633  0.1588  0.2963 -0.1065
  961MOL0     H29693  12.714   6.230   1.631  0.7760  0.8911  0.7607
  961MOL0     H29694  12.657   6.382   1.573  2.8904  0.4440 -0.9538
  961MOL0     H29695  12.856   6.431   1.597 -0.1363 -1.2793  0.6642
  961MOL0     H29696  13.026   6.643   1.602  1.1756 -0.6522  3.6068
  961MOL0     H29697  13.142   6.516   1.659 -1.7906 -1.8650  0.4187
  961MOL0     H29698  13.180   6.632   1.533  2.0375 -0.6840  3.2975
  961MOL0     H29699  13.390   6.676   1.124  1.4221  1.4181  0.8766
  961MOL0     H29700  13.629   6.724   1.093  2.8698 -0.4350 -0.8217
  961MOL0     H29701  13.821   6.688   1.239 -1.3474  1.7853 -1.1182
  961MOL0     H29702  13.925   6.545   1.266 -1.3457  0.5349  0.7207
  961MOL0     H29703  14.045   6.771   1.213 -3.2217  3.2538 -0.9138
  961MOL0     H29704  14.093   6.645   1.095 -2.1374 -1.9667 -1.3451
  961MOL0     H29705  13.955   6.882   1.037 -0.3475 -1.2067  2.6498
  961MOL0     H29706  13.852   6.759   0.978 -0.2429 -1.9024 -1.1723
  961MOL0     H29707  14.147   6.735   0.911 -0.5450  0.2479 -1.0265
  961MOL0     H29708  14.007   6.644   0.850  0.1679 -0.9585 -1.2427
  961MOL0     H29709  14.075   6.930   0.774  0.7867  0.3760 -2.3377
  961MOL0     H29710  13.912   6.833   0.738  0.6676 -0.3189 -0.4904
  961MOL0     H29711  14.201   6.809   0.687 -1.9606  4.6954  0.5889
  961MOL0     H29712  14.090   6.667   0.664  2.3065 -0.2549 -1.3895
  961MOL0     H29713  13.992   6.762   0.474  0.4483  1.5576 -3.6393
  961MOL0     H29714  14.161   6.785   0.453 -1.6703  1.5415 -2.1709
  961MOL0     H29715  14.095   6.966   0.370 -0.3171 -0.1354 -0.6102
  961MOL0     H29716  14.152   7.019   0.530 -0.8349 -2.6063  2.3554
  961MOL0     H29717  13.717   6.311   1.183  0.0698  0.3892  0.5535
  961MOL0     H29718  13.481   6.258   1.222  0.5044  1.8630  3.6111
  961MOL0     H29719  13.119   6.284   1.200 -1.9839 -1.9543 -1.3388
  961MOL0     H29720  12.910   6.185   1.259 -0.0417  0.2063  0.7024
  961MOL0     H29721  11.052   5.684   1.234  1.3239  1.9663  1.7372
  961MOL0     H29722  11.107   5.534   1.048  1.9558 -0.6265  2.6031
  961MOL0     H29723  11.280   5.237   0.679 -0.5712 -0.5853 -0.3472
  961MOL0     H29724  11.349   5.204   0.464 -2.7373 -0.6080  1.7410
  961MOL0     H29725  11.461   5.546   0.220 -0.5449  1.8055 -1.9885
  961MOL0     H29726  11.497   5.404   0.112 -2.0216 -2.0022 -1.8825
  961MOL0     H29727  11.346   5.524  -0.019  0.1450 -0.2451 -0.9061
  961MOL0     H29728  11.236   5.557   0.123  2.0647  2.7678 -2.7116
  961MOL0     H29729  11.206   5.291   0.106 -0.1902 -0.1438 -0.6397
  961MOL0     H29730  11.288   5.315  -0.056  0.6656  0.6785  0.4167
  961MOL0     H29731  11.024   5.448   0.035  1.5072  2.5088 -1.2466
  961MOL0     H29732  11.026   5.315  -0.090  0.1461  1.1754 -2.5281
  961MOL0     H29733  11.137   5.666  -0.295 -3.5421  2.6438  1.2426
  961MOL0     H29734  11.305   5.624   0.363  0.8581 -0.3318 -0.2050
  961MOL0     H29735  11.255   5.669   0.590  1.8376  1.6379 -4.7076
  962MOL0     O29736   7.421  10.260   8.047 -0.2042  0.7706  0.2190
  962MOL0     C29737   7.394  10.241   7.930  0.8765 -0.0800 -0.0476
  962MOL0     O29738   7.273  10.235   7.875  0.2187 -0.1384 -0.3416
  962MOL0     C29739   7.172  10.252   7.978  0.1742 -0.5852  0.7585
  962MOL0     C29740   7.101  10.370   7.982 -0.2486 -0.1522  0.5324
  962MOL0     C29741   6.987  10.375   8.074  0.0336 -0.0821  0.4580
  962MOL0     C29742   6.940  10.256   8.140 -0.4189 -0.6742 -0.9498
  962MOL0     O29743   6.834  10.260   8.221 -0.2434 -0.0541  0.1935
  962MOL0     C29744   6.738  10.160   8.190 -0.1264 -0.2596 -0.7049
  962MOL0     C29745   6.651  10.210   8.071 -0.2306  0.2721 -0.4561
  962MOL0     C29746   6.594  10.356   8.081  0.3839  0.4065 -0.5913
  962MOL0     C29747   6.487  10.367   8.181  0.0839  0.0690 -0.4053
  962MOL0     C29748   6.452  10.514   8.209 -0.1056  0.1019 -0.2664
  962MOL0     C29749   6.324  10.525   8.283 -0.0040  0.6253 -0.4834
  962MOL0     C29750   6.297  10.667   8.331  0.1469  0.0010  0.3632
  962MOL0     C29751   6.398  10.730   8.432 -1.0230  0.0911  1.0430
  962MOL0     N29752   6.342  10.789   8.556 -0.3468  0.3497  1.0245
  962MOL0     C29753   6.293  10.905   8.550  1.0169 -0.4313  1.1902
  962MOL0     C29754   6.262  10.934   8.676 -0.3296  0.0830  0.5412
  962MOL0     C29755   6.215  11.070   8.712  0.2643  0.0165  0.3761
  962MOL0     C29756   6.329  11.162   8.690 -0.1629 -0.1488  0.4556
  962MOL0     C29757   6.309  11.281   8.778  0.1247 -0.0585 -0.9311
  962MOL0     C29758   6.207  11.383   8.741 -0.3397 -0.1081  0.3550
  962MOL0     O29759   6.205  11.394   8.596 -0.5483 -0.6323 -0.6481
  962MOL0     C29760   6.078  11.370   8.530 -0.2391 -0.4272 -0.2686
  962MOL0     C29761   6.063  11.273   8.436 -1.3152  0.5171 -0.1884
  962MOL0     C29762   5.947  11.233   8.371 -0.8356 -0.7940  1.1664
  962MOL0     C29763   5.951  11.135   8.256  0.0675  0.6028  0.1228
  962MOL0     C29764   5.829  11.308   8.403  0.3163 -0.2295 -0.3703
  962MOL0     C29765   5.688  11.295   8.348 -0.8124  0.9507 -0.2619
  962MOL0     O29766   5.590  11.386   8.388 -0.9405  0.4764 -0.1743
  962MOL0     C29767   5.473  11.385   8.320 -0.1161  0.4303  0.2179
  962MOL0     C29768   5.466  11.380   8.174 -0.0002  0.5208 -0.0321
  962MOL0     C29769   5.341  11.389   8.112 -0.2603 -0.0404  0.0579
  962MOL0     C29770   5.221  11.383   8.182  0.7791  0.7780  0.7884
  962MOL0     O29771   5.105  11.393   8.102 -0.1080  0.4405  0.2600
  962MOL0     C29772   4.983  11.354   8.168 -0.7626  0.6300 -0.4633
  962MOL0     C29773   4.873  11.362   8.059 -0.9764 -0.6794 -0.8639
  962MOL0     C29774   4.904  11.248   7.955 -0.0496  0.3358 -0.4027
  962MOL0     C29775   4.789  11.233   7.862  0.1769 -0.3529  0.5482
  962MOL0     C29776   4.813  11.123   7.765 -0.2603  0.5238 -0.6867
  962MOL0     C29777   4.795  10.976   7.818 -0.0504 -0.8107 -1.0254
  962MOL0     C29778   4.789  10.874   7.710 -0.5606  0.5655 -0.3143
  962MOL0     C29779   4.929  10.869   7.629  0.9935 -0.2738  0.1397
  962MOL0    Cl29780   4.933  10.778   7.481 -0.1248 -0.3107  0.1106
  962MOL0     C29781   5.229  11.374   8.320  0.2341  1.3698  0.3936
  962MOL0     C29782   5.349  11.377   8.388  0.0506 -0.0700  0.2672
  962MOL0     O29783   5.656  11.189   8.288 -0.0349  0.3734  0.0576
  962MOL0     C29784   5.843  11.398   8.517  0.9835  0.1156 -0.1967
  962MOL0     C29785   5.963  11.424   8.580  0.3076  0.9502 -1.0171
  962MOL0     N29786   6.286  10.829   8.760  0.0880  0.0697  0.7669
  962MOL0     N29787   6.338  10.735   8.687 -0.3871  0.2035 -0.1034
  962MOL0     C29788   7.022  10.137   8.131  0.2229 -0.6486  0.4982
  962MOL0     C29789   7.124  10.133   8.041  0.3937 -0.1481  1.7464
  962MOL0     C29790   7.503  10.234   7.843 -0.4405  0.3582  0.0469
  962MOL0     C29791   7.632  10.181   7.877 -0.5418 -0.2422 -0.1920
  962MOL0     C29792   7.726  10.154   7.781 -0.7087  0.1857 -0.6035
  962MOL0     C29793   7.702  10.170   7.649 -1.9307 -0.5224 -0.1938
  962MOL0     O29794   7.807  10.152   7.564  0.2198  0.1499  0.3407
  962MOL0     C29795   7.795  10.220   7.439  0.3121 -0.2542 -0.3873
  962MOL0     C29796   7.938  10.221   7.377 -0.0932 -0.4191 -0.9655
  962MOL0     C29797   7.976  10.089   7.322  0.3758 -0.1734 -0.5969
  962MOL0     C29798   7.967  10.075   7.172 -0.1233  0.0980  0.7938
  962MOL0     C29799   7.853  10.144   7.107 -0.4031 -0.3241  0.2772
  962MOL0     C29800   7.751  10.195   7.068 -0.7461  0.0647  0.6117
  962MOL0     C29801   7.577  10.216   7.613  0.8425 -0.1959  1.4384
  962MOL0     C29802   7.480  10.254   7.701  0.3548 -0.6860 -0.6513
  962MOL0     H29803   7.121  10.449   7.910 -3.1133 -1.0613 -1.4404
  962MOL0     H29804   6.921  10.460   8.090 -2.1154 -1.3793 -0.9506
  962MOL0     H29805   6.778  10.059   8.174  2.9543  0.3837  1.9092
  962MOL0     H29806   6.671  10.162   8.276  2.0172 -1.9621  1.1589
  962MOL0     H29807   6.701  10.196   7.975  0.2461 -1.5047  0.0241
  962MOL0     H29808   6.568  10.139   8.072 -0.7147  0.8089 -1.5294
  962MOL0     H29809   6.663  10.429   8.123  0.4071 -1.4334  2.8969
  962MOL0     H29810   6.567  10.376   7.977  0.6665 -1.0478 -0.9636
  962MOL0     H29811   6.403  10.303   8.152  0.2154 -0.1831 -0.2342
  962MOL0     H29812   6.524  10.322   8.274  2.8885  1.5077 -0.7023
  962MOL0     H29813   6.534  10.550   8.272 -1.3580  2.4349  0.1619
  962MOL0     H29814   6.447  10.572   8.116  0.1011  1.2100  0.3987
  962MOL0     H29815   6.234  10.497   8.227 -1.9349  0.3047  2.5797
  962MOL0     H29816   6.335  10.480   8.382  0.9929 -0.2124 -0.9442
  962MOL0     H29817   6.286  10.734   8.245  0.2476 -1.1067 -0.5407
  962MOL0     H29818   6.203  10.680   8.384  1.3421  2.4880  2.1003
  962MOL0     H29819   6.457  10.805   8.379 -4.0557  0.6712 -1.8102
  962MOL0     H29820   6.464  10.649   8.466 -0.1052  0.4153  0.0664
  962MOL0     H29821   6.293  10.957   8.455 -0.2436 -3.4261 -0.6066
  962MOL0     H29822   6.126  11.102   8.658  0.6167  0.2423 -0.0757
  962MOL0     H29823   6.194  11.065   8.819 -1.2858 -1.7325  0.0501
  962MOL0     H29824   6.343  11.190   8.585  1.0767 -1.9051  0.1135
  962MOL0     H29825   6.421  11.110   8.720  0.5159 -1.2547 -3.0456
  962MOL0     H29826   6.403  11.334   8.791  0.1447  0.8062 -3.8852
  962MOL0     H29827   6.272  11.250   8.876 -1.3494  2.7713 -0.4725
  962MOL0     H29828   6.250  11.476   8.779  0.0459  0.4660 -1.4101
  962MOL0     H29829   6.108  11.362   8.782 -0.9432  2.0855  0.1558
  962MOL0     H29830   6.161  11.231   8.416 -1.1478 -0.4341  2.2154
  962MOL0     H29831   5.902  11.175   8.168  2.8928  0.9836 -1.3845
  962MOL0     H29832   6.057  11.116   8.238  0.0327 -1.9950  1.9725
  962MOL0     H29833   5.897  11.044   8.287  0.1091  1.2180  2.2059
  962MOL0     H29834   5.558  11.369   8.119  0.4347  0.5381  0.6834
  962MOL0     H29835   5.323  11.404   8.006 -1.0022  0.9233  0.3048
  962MOL0     H29836   4.990  11.254   8.213 -1.1848  1.8125  2.3921
  962MOL0     H29837   4.958  11.424   8.248  0.7139 -1.3412  1.8489
  962MOL0     H29838   4.778  11.348   8.113 -0.8365 -3.2609 -1.1698
  962MOL0     H29839   4.885  11.459   8.009 -1.3196 -2.1088 -3.9052
  962MOL0     H29840   4.918  11.153   8.007 -2.2825  0.0308 -0.2457
  962MOL0     H29841   4.989  11.283   7.897  0.9265 -1.2871 -0.0052
  962MOL0     H29842   4.699  11.223   7.924 -0.7486 -0.2437 -0.7445
  962MOL0     H29843   4.779  11.325   7.805 -1.1481 -0.2776  0.8667
  962MOL0     H29844   4.916  11.144   7.733  0.3325 -0.1262  0.6898
  962MOL0     H29845   4.733  11.137   7.692 -2.0223 -1.6446  0.6832
  962MOL0     H29846   4.874  10.939   7.885  3.0474 -0.9520 -4.4474
  962MOL0     H29847   4.697  10.981   7.866 -1.2204 -1.4953 -3.2452
  962MOL0     H29848   4.709  10.899   7.640 -4.0362 -1.3680  2.5991
  962MOL0     H29849   4.753  10.775   7.742 -1.4958  0.7475 -0.8001
  962MOL0     H29850   5.001  10.819   7.693  0.6908  0.3569  0.9853
  962MOL0     H29851   4.973  10.965   7.600 -0.5838  0.2147 -0.7620
  962MOL0     H29852   5.141  11.391   8.380  1.3198  3.8182  1.4285
  962MOL0     H29853   5.336  11.389   8.495 -0.4843  0.1480  0.1837
  962MOL0     H29854   5.755  11.429   8.572  2.5276  2.5338  1.0631
  962MOL0     H29855   5.959  11.496   8.660 -1.4852 -2.9053  2.7795
  962MOL0     H29856   7.001  10.052   8.196  1.0606  0.8189  2.8305
  962MOL0     H29857   7.189  10.048   8.027 -3.4839 -3.1835  0.2412
  962MOL0     H29858   7.647  10.161   7.982 -2.7093 -1.7106 -0.0935
  962MOL0     H29859   7.826  10.127   7.812  0.0152  3.6819  0.5544
  962MOL0     H29860   7.736  10.172   7.360 -0.0835 -1.5986  0.6811
  962MOL0     H29861   7.750  10.319   7.451 -2.2815 -1.2387 -1.2378
  962MOL0     H29862   8.006  10.262   7.453 -0.9452 -0.2244 -0.2833
  962MOL0     H29863   7.936  10.299   7.301 -1.3052 -0.6736 -1.2184
  962MOL0     H29864   7.919  10.006   7.366  2.3653 -1.0798  0.3905
  962MOL0     H29865   8.080  10.068   7.347  0.8098  1.4937 -0.9002
  962MOL0     H29866   7.973   9.970   7.141 -0.1309  0.3488 -0.0911
  962MOL0     H29867   8.058  10.121   7.133 -0.2586 -2.2463 -2.6569
  962MOL0     H29868   7.660  10.229   7.022  0.6884  1.2359 -1.5407
  962MOL0     H29869   7.561  10.240   7.508  1.8629  2.2413  1.7747
  962MOL0     H29870   7.381  10.287   7.674 -0.5250 -4.1596 -2.2590
  963MOL0     O29871   6.170   1.484   1.782  0.1133 -0.2256 -0.4710
  963MOL0     C29872   6.238   1.521   1.684 -0.0067  0.4466 -0.1472
  963MOL0     O29873   6.219   1.629   1.602 -0.7444  0.2883  0.8759
  963MOL0     C29874   6.095   1.691   1.594  0.2126  0.0384 -0.0004
  963MOL0     C29875   6.106   1.821   1.553 -0.4724  0.2698  0.2101
  963MOL0     C29876   5.997   1.915   1.546 -0.1001  0.4966 -0.4428
  963MOL0     C29877   5.878   1.864   1.596  0.0855  0.3697  0.1269
  963MOL0     O29878   5.771   1.944   1.623 -0.1546 -0.5258 -1.3850
  963MOL0     C29879   5.796   2.089   1.629  0.4916  0.4457  0.1340
  963MOL0     C29880   5.663   2.153   1.663 -0.0607  0.2912 -0.7530
  963MOL0     C29881   5.673   2.299   1.679  1.1096 -0.6306 -1.0755
  963MOL0     C29882   5.537   2.356   1.722 -0.0687 -0.4041 -0.0953
  963MOL0     C29883   5.525   2.505   1.670 -0.3295  0.0705  0.8268
  963MOL0     C29884   5.400   2.579   1.728  0.1737 -0.3863  0.1446
  963MOL0     C29885   5.384   2.723   1.668  0.5495  0.1925 -0.4489
  963MOL0     C29886   5.292   2.811   1.740  0.3759  0.3472 -0.4152
  963MOL0     N29887   5.282   2.942   1.668  0.1435  0.1674  0.9925
  963MOL0     C29888   5.200   2.979   1.563  0.2105  1.1507 -0.2451
  963MOL0     C29889   5.234   3.105   1.540 -0.5087  0.3551 -0.0927
  963MOL0     C29890   5.198   3.191   1.426  0.7719 -0.0567  1.3890
  963MOL0     C29891   5.050   3.205   1.406  0.3641  0.4417 -0.4265
  963MOL0     C29892   5.010   3.299   1.285 -0.9738  1.2423  0.4546
  963MOL0     C29893   5.030   3.447   1.307 -0.6219  0.3880  0.9974
  963MOL0     O29894   4.928   3.525   1.234 -0.4979  0.6640 -0.1297
  963MOL0     C29895   4.950   3.580   1.109 -0.4027  0.5675  0.5409
  963MOL0     C29896   4.853   3.550   1.016  1.0528 -0.5791  0.1628
  963MOL0     C29897   4.856   3.604   0.880 -0.5389  0.0395 -0.1534
  963MOL0     C29898   4.737   3.578   0.799  0.3732  0.1401 -0.0921
  963MOL0     C29899   4.964   3.698   0.856 -0.2254  0.4016  0.2291
  963MOL0     C29900   4.988   3.765   0.721  0.1800 -0.4006  0.3394
  963MOL0     O29901   5.103   3.849   0.709 -0.4758  0.5092 -0.2127
  963MOL0     C29902   5.091   3.939   0.600  0.5225  0.3260 -0.8542
  963MOL0     C29903   5.007   4.048   0.617  1.2006 -0.4172 -0.9690
  963MOL0     C29904   4.975   4.132   0.497 -0.7235  0.0987 -0.9343
  963MOL0     C29905   5.044   4.100   0.377 -0.8887 -0.2228  0.0477
  963MOL0     O29906   5.025   4.173   0.261 -0.1357  0.2203  0.2488
  963MOL0     C29907   4.920   4.269   0.242 -0.3959  0.7204 -0.6814
  963MOL0     C29908   4.932   4.332   0.110  0.2563 -0.9056  0.1232
  963MOL0     C29909   4.980   4.475   0.124  0.5072 -0.0187  0.7547
  963MOL0     C29910   5.131   4.489   0.130  0.4367  1.3946  0.7181
  963MOL0     C29911   5.168   4.632   0.114  0.5583  0.3651 -0.6739
  963MOL0     C29912   5.178   4.672  -0.032 -0.8978  0.0880 -0.1980
  963MOL0     C29913   5.191   4.824  -0.064 -0.6919  1.1710  0.0966
  963MOL0     C29914   5.255   4.842  -0.213  0.7462  0.3024  0.0693
  963MOL0    Cl29915   5.263   5.021  -0.253 -0.2011  0.6850  0.1076
  963MOL0     C29916   5.128   3.982   0.366  0.2748  0.6527 -1.2239
  963MOL0     C29917   5.148   3.897   0.477 -0.0655 -0.3795 -0.3388
  963MOL0     O29918   4.927   3.726   0.623 -0.2715  0.3974 -0.5764
  963MOL0     C29919   5.060   3.721   0.954 -0.7234 -0.6534  0.0119
  963MOL0     C29920   5.054   3.662   1.079  0.8628  0.3405  0.0832
  963MOL0     N29921   5.327   3.146   1.631 -0.3093  0.2008  0.4742
  963MOL0     N29922   5.362   3.048   1.698 -0.1396 -0.6715 -0.6548
  963MOL0     C29923   5.864   1.735   1.639  0.0377  0.4712 -0.0454
  963MOL0     C29924   5.971   1.649   1.637 -0.5553  0.1879 -0.8136
  963MOL0     C29925   6.346   1.441   1.625  0.6032 -0.1149  0.7764
  963MOL0     C29926   6.422   1.350   1.697  0.2096 -0.1583  0.8136
  963MOL0     C29927   6.515   1.269   1.638 -0.6362  0.3066 -0.1520
  963MOL0     C29928   6.570   1.292   1.507 -1.1267  0.0300 -1.4494
  963MOL0     O29929   6.693   1.232   1.485  0.6697 -0.5967  0.5363
  963MOL0     C29930   6.768   1.285   1.372 -0.2204 -0.2365 -0.0105
  963MOL0     C29931   6.811   1.424   1.405 -0.1219 -0.1335 -0.2190
  963MOL0     C29932   6.919   1.440   1.312  1.0096 -0.8271  0.2925
  963MOL0     C29933   6.987   1.573   1.320  0.9629 -0.8500  0.4385
  963MOL0     C29934   6.902   1.678   1.283  0.0646  0.6031  0.3534
  963MOL0     C29935   6.827   1.754   1.234 -0.1872 -1.3744  0.4784
  963MOL0     C29936   6.498   1.382   1.432 -0.0954 -0.4637  0.3411
  963MOL0     C29937   6.387   1.453   1.487 -0.1618  0.0999  0.2311
  963MOL0     H29938   6.205   1.860   1.529 -0.6923  0.7249  0.0269
  963MOL0     H29939   6.006   2.019   1.516 -2.3241  1.1279  0.8812
  963MOL0     H29940   5.877   2.121   1.696  0.6601 -2.2682  1.3534
  963MOL0     H29941   5.832   2.120   1.530 -0.5144 -2.0119 -1.0623
  963MOL0     H29942   5.590   2.139   1.583 -0.5346 -2.2020  0.0141
  963MOL0     H29943   5.628   2.105   1.756  2.1702  3.9129  2.2406
  963MOL0     H29944   5.743   2.336   1.754 -0.4959 -2.6228  1.5864
  963MOL0     H29945   5.691   2.341   1.579 -0.1944 -1.1406 -1.5484
  963MOL0     H29946   5.455   2.294   1.683 -0.2656  0.5452 -1.2590
  963MOL0     H29947   5.520   2.364   1.829 -0.3958  3.5649 -0.2910
  963MOL0     H29948   5.607   2.567   1.707 -0.7252  0.4296  1.1082
  963MOL0     H29949   5.525   2.512   1.561  0.3729  1.0032  0.8764
  963MOL0     H29950   5.312   2.515   1.718 -0.3210  0.5989 -3.0819
  963MOL0     H29951   5.408   2.590   1.837 -2.4005 -0.7715  0.4360
  963MOL0     H29952   5.481   2.772   1.677 -0.1709  1.5853  0.0977
  963MOL0     H29953   5.357   2.721   1.561  0.5192  0.1992 -0.4414
  963MOL0     H29954   5.322   2.830   1.843 -2.0816 -2.2374  0.8975
  963MOL0     H29955   5.195   2.762   1.751  1.0138 -0.6541  1.0671
  963MOL0     H29956   5.123   2.922   1.512  1.5848  0.9995 -2.2496
  963MOL0     H29957   5.242   3.290   1.436  1.5506 -0.0978 -0.9963
  963MOL0     H29958   5.253   3.142   1.345  4.0225  0.7537  2.9515
  963MOL0     H29959   5.013   3.263   1.491  0.8402  1.6640 -1.0245
  963MOL0     H29960   5.001   3.108   1.398 -0.8074  0.9723  0.0406
  963MOL0     H29961   4.903   3.284   1.268 -0.5268 -2.0576  0.0731
  963MOL0     H29962   5.056   3.269   1.190 -1.1425 -0.7686  0.9683
  963MOL0     H29963   5.132   3.474   1.279 -1.4275  7.0257  2.7865
  963MOL0     H29964   5.022   3.469   1.414  2.2409  1.1463  1.1320
  963MOL0     H29965   4.766   3.494   1.047  0.1870  1.0436  0.7792
  963MOL0     H29966   4.657   3.544   0.866  0.7279 -0.4596  0.0381
  963MOL0     H29967   4.714   3.656   0.726  2.2955  0.5339 -0.3186
  963MOL0     H29968   4.749   3.493   0.732  0.0967  0.1828 -0.1970
  963MOL0     H29969   4.960   4.062   0.714  0.4366  0.1736 -1.4102
  963MOL0     H29970   4.909   4.213   0.524 -1.0187 -0.9958  1.9056
  963MOL0     H29971   4.824   4.216   0.247  0.6686 -1.2865 -0.6503
  963MOL0     H29972   4.917   4.342   0.323  0.5309  0.1522 -0.1208
  963MOL0     H29973   4.989   4.273   0.038 -1.1674 -2.3370  0.1268
  963MOL0     H29974   4.828   4.326   0.077  1.0175 -3.2945 -2.2035
  963MOL0     H29975   4.930   4.514   0.213 -3.2479 -0.4410 -0.9902
  963MOL0     H29976   4.939   4.526   0.037 -0.8259 -0.6904  0.9681
  963MOL0     H29977   5.170   4.438   0.219 -0.1140  2.2042  1.4447
  963MOL0     H29978   5.173   4.440   0.042 -4.0662  2.3405 -2.2653
  963MOL0     H29979   5.268   4.647   0.156 -0.2080 -0.6082  1.6412
  963MOL0     H29980   5.101   4.696   0.171  0.6213 -1.3644  1.4865
  963MOL0     H29981   5.258   4.618  -0.085 -2.2008 -0.3686 -1.7936
  963MOL0     H29982   5.083   4.645  -0.078 -2.1106  2.8606  0.4766
  963MOL0     H29983   5.262   4.862   0.010  0.9867 -0.6819 -0.4530
  963MOL0     H29984   5.098   4.880  -0.050 -1.8121  0.3802 -3.2141
  963MOL0     H29985   5.193   4.789  -0.285  1.8130  0.3545 -0.9243
  963MOL0     H29986   5.351   4.790  -0.224  0.4166 -0.2093 -0.4127
  963MOL0     H29987   5.166   3.969   0.265  0.3812  1.1658 -1.2556
  963MOL0     H29988   5.204   3.805   0.467  1.3135  0.6213 -2.6900
  963MOL0     H29989   5.152   3.776   0.939 -0.1258 -1.3759  0.8880
  963MOL0     H29990   5.122   3.692   1.158 -1.0723  1.8770  1.2823
  963MOL0     H29991   5.769   1.698   1.675  0.2503 -0.9416 -0.8638
  963MOL0     H29992   5.960   1.545   1.665  1.9601 -0.2420 -1.1777
  963MOL0     H29993   6.394   1.341   1.802 -1.1732 -0.3800  0.4459
  963MOL0     H29994   6.563   1.205   1.712  2.1923  5.2579  2.9410
  963MOL0     H29995   6.853   1.217   1.362  0.7700  0.9855 -0.2745
  963MOL0     H29996   6.711   1.285   1.279  0.6189 -3.2250 -0.6146
  963MOL0     H29997   6.842   1.430   1.510 -1.5275 -0.1528  0.2203
  963MOL0     H29998   6.733   1.496   1.382  0.9992  0.4339 -2.5163
  963MOL0     H29999   6.880   1.436   1.210 -0.2698  2.1431  0.5522
  963MOL0     H30000   6.995   1.361   1.307  0.0449 -1.7408 -4.1552
  963MOL0     H30001   7.065   1.565   1.244  1.3773  0.5273  0.6947
  963MOL0     H30002   7.035   1.597   1.416 -1.1629 -1.0864  1.6068
  963MOL0     H30003   6.784   1.833   1.177  2.1110  1.5311  2.4531
  963MOL0     H30004   6.534   1.411   1.333 -2.6157  1.5866 -0.0908
  963MOL0     H30005   6.341   1.529   1.425  0.3889  0.6724  0.5089
  964MOL0     O30006  10.342  11.211   3.896  0.4877 -0.6667 -0.3368
  964MOL0     C30007  10.407  11.227   3.800 -0.3816  0.7955 -0.6899
  964MOL0     O30008  10.419  11.339   3.735  0.5029 -0.1415 -0.2469
  964MOL0     C30009  10.332  11.444   3.763  0.1386  0.6973 -0.2349
  964MOL0     C30010  10.253  11.482   3.656 -0.1262 -0.7856  0.3948
  964MOL0     C30011  10.175  11.595   3.665 -0.0351  1.0399  0.7064
  964MOL0     C30012  10.169  11.671   3.776  0.0391  0.3985 -0.7912
  964MOL0     O30013  10.080  11.780   3.776 -1.0280  0.6904 -0.3486
  964MOL0     C30014  10.059  11.835   3.910  0.6912 -0.1322  0.5368
  964MOL0     C30015   9.961  11.953   3.899  0.2609  0.1689 -1.3400
  964MOL0     C30016   9.890  11.989   4.033 -1.0775 -0.0092 -0.3195
  964MOL0     C30017   9.850  12.138   4.051  0.1440  0.2022 -0.7294
  964MOL0     C30018   9.772  12.153   4.181 -0.8231 -0.0208  0.0190
  964MOL0     C30019   9.767  12.302   4.221 -0.0454  0.2386  0.2432
  964MOL0     C30020   9.701  12.309   4.360 -0.5991 -1.1581 -0.0480
  964MOL0     C30021   9.674  12.451   4.418  0.4971 -0.3236  0.2533
  964MOL0     N30022   9.593  12.447   4.539  0.0138  0.6382  0.4108
  964MOL0     C30023   9.458  12.442   4.544 -0.0694 -0.5196  0.3517
  964MOL0     C30024   9.422  12.428   4.669 -1.1389  0.1119 -0.9368
  964MOL0     C30025   9.282  12.441   4.747 -0.5401  0.1300  1.1939
  964MOL0     C30026   9.237  12.314   4.833 -0.5669  0.2292  0.3830
  964MOL0     C30027   9.242  12.190   4.747  0.4333  0.2511  0.6421
  964MOL0     C30028   9.163  12.194   4.615 -0.9138 -0.6819 -0.7762
  964MOL0     O30029   9.035  12.240   4.639 -0.0694 -0.3935 -0.5413
  964MOL0     C30030   8.958  12.277   4.537  0.5168 -0.2450 -0.6037
  964MOL0     C30031   8.825  12.311   4.586 -0.0358 -0.2829 -0.2501
  964MOL0     C30032   8.727  12.356   4.504  0.5031 -0.8503 -0.0892
  964MOL0     C30033   8.595  12.415   4.563 -0.3452 -0.0180 -0.2858
  964MOL0     C30034   8.760  12.373   4.361  0.3074 -0.2760 -0.5242
  964MOL0     C30035   8.673  12.419   4.268  0.3653 -0.2646 -0.2217
  964MOL0     O30036   8.680  12.361   4.144 -0.4310  0.2601 -0.0816
  964MOL0     C30037   8.586  12.405   4.050 -0.9214  0.1377 -0.6678
  964MOL0     C30038   8.638  12.407   3.923  0.2972 -1.0040  0.1104
  964MOL0     C30039   8.554  12.464   3.823  1.5785  0.1099 -0.2724
  964MOL0     C30040   8.428  12.497   3.845 -0.1914 -1.6302  0.2174
  964MOL0     O30041   8.358  12.554   3.744  0.0235  0.2034 -0.1464
  964MOL0     C30042   8.253  12.647   3.771 -0.9779  0.2966 -0.6649
  964MOL0     C30043   8.229  12.719   3.643  0.6608 -0.2713  0.5522
  964MOL0     C30044   8.141  12.846   3.646  0.6290  0.3459  0.4402
  964MOL0     C30045   8.228  12.969   3.622  0.0844 -0.2566 -0.7489
  964MOL0     C30046   8.133  13.090   3.637 -0.6043 -0.1873 -0.0234
  964MOL0     C30047   8.193  13.223   3.585  0.4006  0.2365 -0.2712
  964MOL0     C30048   8.097  13.338   3.611  0.0497  1.3594 -0.8178
  964MOL0     C30049   8.142  13.469   3.552 -0.9355 -0.1792  1.3458
  964MOL0    Cl30050   8.129  13.482   3.375  0.2337  0.3622  0.0015
  964MOL0     C30051   8.374  12.469   3.975  0.2102  0.5937  0.1458
  964MOL0     C30052   8.459  12.436   4.078  0.4202  0.7436 -1.1837
  964MOL0     O30053   8.620  12.527   4.302  0.5793  0.6058  0.4427
  964MOL0     C30054   8.893  12.357   4.324  0.4260  0.0531 -0.4168
  964MOL0     C30055   8.992  12.295   4.410 -1.2465 -0.1892  0.9318
  964MOL0     N30056   9.541  12.415   4.741  1.1756  0.5046  0.1961
  964MOL0     N30057   9.647  12.436   4.665 -0.5505 -0.8775 -0.2404
  964MOL0     C30058  10.258  11.630   3.884  0.2291 -0.0295 -0.3149
  964MOL0     C30059  10.334  11.520   3.880  0.0215  0.0910  0.6134
  964MOL0     C30060  10.481  11.114   3.746  0.4040 -0.3668  0.4660
  964MOL0     C30061  10.562  11.133   3.632 -0.5608  0.6144  0.6465
  964MOL0     C30062  10.634  11.028   3.576 -0.4898 -0.0457 -0.2427
  964MOL0     C30063  10.622  10.902   3.637  0.8747 -0.0557  0.8621
  964MOL0     O30064  10.706  10.813   3.573  0.0887 -0.0710 -0.1169
  964MOL0     C30065  10.716  10.677   3.607  0.9067 -0.0916 -0.4659
  964MOL0     C30066  10.841  10.623   3.549  0.2365 -0.5501  0.0601
  964MOL0     C30067  10.962  10.668   3.637  0.1117  0.1585 -0.2195
  964MOL0     C30068  11.069  10.562   3.624 -0.4899  0.1603  0.8487
  964MOL0     C30069  11.196  10.599   3.675  0.7955  0.4346  0.2552
  964MOL0     C30070  11.285  10.665   3.731  0.0265 -0.5178  0.1805
  964MOL0     C30071  10.550  10.880   3.749 -0.7152 -0.1318  0.1829
  964MOL0     C30072  10.488  10.991   3.808 -0.0879 -0.4026  0.4461
  964MOL0     H30073  10.260  11.428   3.562 -0.1654  1.1161 -0.7444
  964MOL0     H30074  10.126  11.626   3.572 -0.9723 -0.8052  0.5305
  964MOL0     H30075  10.008  11.766   3.978 -0.5071  1.9114  1.8189
  964MOL0     H30076  10.158  11.860   3.948  0.9591  0.5427 -0.5470
  964MOL0     H30077  10.031  12.032   3.869 -0.2582  0.5394 -1.5856
  964MOL0     H30078   9.884  11.933   3.824  0.4037 -0.7675 -1.2554
  964MOL0     H30079   9.806  11.920   4.048 -1.3796  0.4815  0.2556
  964MOL0     H30080   9.958  11.960   4.113  1.0910 -0.6077 -2.2655
  964MOL0     H30081   9.939  12.202   4.056 -0.5939  1.1529  1.3772
  964MOL0     H30082   9.795  12.177   3.965 -5.2166  2.1584  3.0734
  964MOL0     H30083   9.672  12.112   4.166 -1.8972  2.9609 -1.9123
  964MOL0     H30084   9.823  12.091   4.256 -2.3056 -2.0854 -0.5975
  964MOL0     H30085   9.866  12.348   4.230  0.3841 -0.8753  1.5803
  964MOL0     H30086   9.706  12.366   4.156  1.3659 -0.8804 -2.3346
  964MOL0     H30087   9.612  12.247   4.352 -2.6229  1.6380 -0.8129
  964MOL0     H30088   9.775  12.268   4.430  0.1004  0.2804  0.0994
  964MOL0     H30089   9.612  12.506   4.346 -3.0041 -3.0103  0.9140
  964MOL0     H30090   9.766  12.507   4.438 -1.3690  2.5776  1.4669
  964MOL0     H30091   9.395  12.454   4.456  2.3098 -0.9239 -1.4925
  964MOL0     H30092   9.297  12.524   4.816 -1.1842  1.0179  0.2976
  964MOL0     H30093   9.211  12.467   4.668  0.7980 -1.0352 -0.4759
  964MOL0     H30094   9.140  12.326   4.881 -1.9683 -1.2974 -1.8925
  964MOL0     H30095   9.314  12.299   4.910  1.5332  0.6078 -1.5139
  964MOL0     H30096   9.209  12.110   4.815  0.2151  0.1988  0.4780
  964MOL0     H30097   9.341  12.159   4.713 -0.1156  1.8777 -2.9105
  964MOL0     H30098   9.154  12.096   4.568 -2.1453 -1.5225  1.1004
  964MOL0     H30099   9.221  12.264   4.553  2.2151  0.4455  2.9964
  964MOL0     H30100   8.811  12.305   4.693  1.8141  1.7627  0.1684
  964MOL0     H30101   8.614  12.522   4.550 -0.1663 -0.0472 -0.2665
  964MOL0     H30102   8.502  12.385   4.513 -1.8423  2.8211  0.5974
  964MOL0     H30103   8.583  12.396   4.670 -2.8630  0.9117 -0.3295
  964MOL0     H30104   8.741  12.394   3.893 -0.3757  1.0362 -3.8123
  964MOL0     H30105   8.601  12.453   3.726  3.6154  0.9741  0.5766
  964MOL0     H30106   8.166  12.594   3.810 -0.3397 -2.4159 -2.5784
  964MOL0     H30107   8.286  12.709   3.855 -2.0598 -1.7199  1.3665
  964MOL0     H30108   8.318  12.751   3.588 -0.3707  3.1825  0.6657
  964MOL0     H30109   8.187  12.645   3.573  0.5663  0.0952  0.2214
  964MOL0     H30110   8.088  12.853   3.742  0.9351  2.3129  0.4914
  964MOL0     H30111   8.060  12.832   3.573 -1.2746 -0.3918  2.5709
  964MOL0     H30112   8.300  12.961   3.704 -1.1707 -2.0380  0.2343
  964MOL0     H30113   8.271  12.978   3.522  1.3828 -0.7736 -0.2478
  964MOL0     H30114   8.111  13.102   3.744  4.4166  2.7830  0.9821
  964MOL0     H30115   8.036  13.074   3.588 -0.5245  0.0258 -0.2493
  964MOL0     H30116   8.295  13.228   3.621  1.1327 -1.7237 -1.8338
  964MOL0     H30117   8.221  13.216   3.479  2.3915  2.2435  0.0631
  964MOL0     H30118   8.084  13.337   3.720 -1.6177 -2.6419 -0.8933
  964MOL0     H30119   8.003  13.304   3.566  1.0056 -0.1551 -1.7565
  964MOL0     H30120   8.246  13.483   3.581  0.1415 -1.8570 -1.3643
  964MOL0     H30121   8.072  13.542   3.595 -2.5547 -0.8827  0.0185
  964MOL0     H30122   8.267  12.466   3.996  0.5282 -1.2333  1.8245
  964MOL0     H30123   8.423  12.436   4.180  0.8957  0.5056 -1.0132
  964MOL0     H30124   8.926  12.390   4.226  0.5439  3.1634  0.5549
  964MOL0     H30125   9.090  12.285   4.365 -0.6847  2.4372  1.4239
  964MOL0     H30126  10.265  11.689   3.974  0.8048 -2.3049  1.2249
  964MOL0     H30127  10.398  11.489   3.961 -1.2150 -1.1044  1.1769
  964MOL0     H30128  10.572  11.232   3.588  1.6154  0.3101  0.3575
  964MOL0     H30129  10.696  11.056   3.492 -0.7870 -1.9733 -1.1738
  964MOL0     H30130  10.716  10.664   3.716 -1.3176  1.5484 -0.2088
  964MOL0     H30131  10.630  10.627   3.561  1.0885 -0.8747  0.0202
  964MOL0     H30132  10.858  10.663   3.449 -0.2784 -0.2782  0.0816
  964MOL0     H30133  10.834  10.515   3.529  2.4642 -0.9294  0.9425
  964MOL0     H30134  10.936  10.685   3.742  0.7129  0.6984 -0.1526
  964MOL0     H30135  11.002  10.765   3.606  0.2267  0.1862  0.0127
  964MOL0     H30136  11.084  10.529   3.520  1.4139  1.2952  0.7133
  964MOL0     H30137  11.028  10.472   3.671 -1.6196  0.0924 -0.2223
  964MOL0     H30138  11.374  10.719   3.758 -0.6782 -0.0738  1.7442
  964MOL0     H30139  10.539  10.787   3.804  0.5567 -0.8199 -0.6581
  964MOL0     H30140  10.440  10.992   3.906 -0.3282  1.0554  0.3379
  965MOL0     O30141   1.491   0.733   4.625  0.0954 -0.3780  0.3579
  965MOL0     C30142   1.522   0.852   4.638  0.7933  0.1820  0.1811
  965MOL0     O30143   1.446   0.937   4.716 -0.3975  0.2217 -0.1685
  965MOL0     C30144   1.345   0.894   4.798 -0.1578  0.5937 -0.3164
  965MOL0     C30145   1.363   0.794   4.893 -0.8826 -0.8957 -1.0376
  965MOL0     C30146   1.262   0.764   4.987 -0.9547  1.0628 -0.4321
  965MOL0     C30147   1.137   0.822   4.969  0.9978  0.5993  0.4321
  965MOL0     O30148   1.039   0.804   5.055  0.8253  0.6217 -0.6341
  965MOL0     C30149   0.999   0.666   5.059 -0.4019  0.0166  1.1025
  965MOL0     C30150   0.851   0.668   5.077  0.1670  0.6789 -0.4710
  965MOL0     C30151   0.816   0.713   5.226  1.4542 -0.0895 -0.0603
  965MOL0     C30152   0.746   0.607   5.319 -0.0196 -0.2947 -0.8377
  965MOL0     C30153   0.687   0.666   5.451 -0.3839 -0.2931 -0.1638
  965MOL0     C30154   0.802   0.708   5.548  0.1273  0.0161  0.2249
  965MOL0     C30155   0.747   0.800   5.656  0.0324 -0.0638  1.4391
  965MOL0     C30156   0.745   0.956   5.616 -0.1842 -0.2839  0.5826
  965MOL0     N30157   0.672   1.022   5.723  0.5556 -0.7855  0.5262
  965MOL0     C30158   0.550   0.977   5.780 -0.0127 -0.4291  0.1041
  965MOL0     C30159   0.525   1.068   5.874  0.3664  0.9879 -1.4301
  965MOL0     C30160   0.401   1.072   5.951 -0.6403  1.1835  0.0937
  965MOL0     C30161   0.309   1.188   5.919 -0.5928 -0.5895  0.1997
  965MOL0     C30162   0.160   1.202   5.972 -0.7441  0.1960 -0.8433
  965MOL0     C30163   0.154   1.223   6.113  1.1268 -0.0160 -0.0019
  965MOL0     O30164   0.016   1.246   6.144  0.1482  0.5117  0.2660
  965MOL0     C30165  -0.026   1.187   6.262 -0.2142 -0.0403 -0.0521
  965MOL0     C30166  -0.162   1.148   6.271 -0.0571  0.1804 -0.6643
  965MOL0     C30167  -0.213   1.098   6.391  0.4594  0.9149  0.3081
  965MOL0     C30168  -0.354   1.058   6.381  0.2992 -0.1058  0.1949
  965MOL0     C30169  -0.139   1.100   6.512 -0.1430 -0.6231 -0.3705
  965MOL0     C30170  -0.203   1.080   6.641 -0.7964  0.1295  1.0614
  965MOL0     O30171  -0.150   1.156   6.739 -0.2246 -0.5684 -0.8806
  965MOL0     C30172  -0.135   1.101   6.857 -0.1113 -0.8524 -0.5447
  965MOL0     C30173  -0.012   1.098   6.911 -0.4876 -0.2682 -0.5507
  965MOL0     C30174   0.029   1.021   7.007  0.1654 -0.0010 -0.1844
  965MOL0     C30175  -0.061   0.936   7.074  0.5107 -0.0431  0.5989
  965MOL0     O30176  -0.027   0.859   7.182 -0.3503 -0.4049  0.4722
  965MOL0     C30177  -0.074   0.726   7.186  0.1381  0.3284 -0.4653
  965MOL0     C30178   0.028   0.652   7.272 -0.1542  0.1377 -0.4864
  965MOL0     C30179  -0.034   0.638   7.422 -1.3184 -0.5459  0.5408
  965MOL0     C30180   0.063   0.555   7.506  0.0904 -0.3509 -0.2875
  965MOL0     C30181   0.023   0.543   7.643  0.0820  0.2008 -0.2141
  965MOL0     C30182   0.128   0.476   7.725 -0.0220 -0.5451  0.5448
  965MOL0     C30183   0.105   0.482   7.875 -0.5348 -0.3687 -0.5105
  965MOL0     C30184   0.161   0.609   7.940 -0.0777 -0.5802  0.0626
  965MOL0    Cl30185   0.329   0.623   7.895 -0.1800 -0.0938  0.2568
  965MOL0     C30186  -0.202   0.941   7.032 -0.9663  0.3075  0.3892
  965MOL0     C30187  -0.234   1.026   6.919 -0.3777  0.8521 -0.0619
  965MOL0     O30188  -0.268   0.985   6.651 -0.8241 -0.4413 -1.0625
  965MOL0     C30189   0.002   1.142   6.500 -0.3337  0.2046 -0.0687
  965MOL0     C30190   0.057   1.183   6.378  0.0726  0.3604  0.1633
  965MOL0     N30191   0.632   1.160   5.888  0.0192 -0.4029  0.2606
  965MOL0     N30192   0.713   1.134   5.792 -0.1657 -0.5218 -0.4191
  965MOL0     C30193   1.132   0.932   4.878 -0.0047 -0.1448 -0.1937
  965MOL0     C30194   1.231   0.967   4.791  0.2028  0.4869 -0.5035
  965MOL0     C30195   1.626   0.899   4.538 -0.5624  1.0290 -0.2743
  965MOL0     C30196   1.628   1.030   4.499 -0.6865 -0.1221  0.7050
  965MOL0     C30197   1.730   1.095   4.426 -0.2075  0.5704 -0.9510
  965MOL0     C30198   1.836   1.022   4.382 -0.3633  0.3547  0.2485
  965MOL0     O30199   1.929   1.088   4.310 -0.0590 -0.0435 -0.0667
  965MOL0     C30200   2.059   1.032   4.289 -0.6070  0.5878 -0.7780
  965MOL0     C30201   2.106   0.997   4.146 -0.4797  0.0061 -0.3445
  965MOL0     C30202   2.076   1.123   4.053 -0.7012 -0.1551 -1.1741
  965MOL0     C30203   2.122   1.110   3.912 -0.2300  0.3022 -0.2531
  965MOL0     C30204   2.268   1.143   3.892 -1.2844  0.7318  1.0540
  965MOL0     C30205   2.386   1.161   3.855 -0.3196 -0.3511 -0.3650
  965MOL0     C30206   1.838   0.895   4.428 -0.7827  0.5152 -0.5009
  965MOL0     C30207   1.747   0.830   4.513  0.2086  0.8091  0.7069
  965MOL0     H30208   1.460   0.744   4.896 -0.1159  0.5903  0.7971
  965MOL0     H30209   1.293   0.702   5.070 -0.2946  1.7463 -0.1606
  965MOL0     H30210   1.007   0.620   4.960 -1.8498 -1.1390  1.4852
  965MOL0     H30211   1.059   0.606   5.128 -2.3206 -1.3525  1.6747
  965MOL0     H30212   0.793   0.725   5.004 -1.9696  0.4855  0.9937
  965MOL0     H30213   0.815   0.565   5.079  1.0694  0.3187 -1.5581
  965MOL0     H30214   0.906   0.760   5.268 -0.1960  2.6481  0.6353
  965MOL0     H30215   0.745   0.793   5.205  0.1105 -2.0170 -3.7071
  965MOL0     H30216   0.658   0.566   5.269 -0.8214  0.7236 -0.3150
  965MOL0     H30217   0.819   0.534   5.353  0.3248  1.3832  2.5394
  965MOL0     H30218   0.624   0.749   5.419 -1.5759 -1.5530 -1.2038
  965MOL0     H30219   0.619   0.589   5.487 -0.8529 -0.4455 -1.3370
  965MOL0     H30220   0.848   0.617   5.587 -0.5424 -0.5563 -0.3056
  965MOL0     H30221   0.869   0.764   5.481 -3.0422  3.8128 -0.1350
  965MOL0     H30222   0.648   0.764   5.688 -1.8872  1.5320 -2.1434
  965MOL0     H30223   0.810   0.806   5.745  0.0622  1.0429  1.3549
  965MOL0     H30224   0.699   0.975   5.518  1.5793 -1.6141 -0.5706
  965MOL0     H30225   0.848   0.991   5.616 -0.6835  1.6744 -2.9051
  965MOL0     H30226   0.476   0.903   5.752  0.6887 -1.6927  1.4421
  965MOL0     H30227   0.347   0.979   5.930 -1.9758  2.0235 -0.3357
  965MOL0     H30228   0.418   1.073   6.059 -1.1003  4.8300  0.2838
  965MOL0     H30229   0.310   1.190   5.810  0.4978 -0.1651  0.2007
  965MOL0     H30230   0.367   1.272   5.959 -0.5995 -1.2996  1.7645
  965MOL0     H30231   0.109   1.107   5.950  1.0685 -0.6602 -1.5308
  965MOL0     H30232   0.117   1.285   5.915  0.4284  0.2391 -1.6895
  965MOL0     H30233   0.213   1.314   6.129 -0.5241  1.0958  0.0050
  965MOL0     H30234   0.193   1.133   6.162  1.0851  0.0741  0.2011
  965MOL0     H30235  -0.227   1.165   6.186 -0.6704  2.6868  0.1947
  965MOL0     H30236  -0.379   1.020   6.281 -1.3866 -0.7209  0.8070
  965MOL0     H30237  -0.393   0.982   6.449 -2.3175  0.5559 -0.4533
  965MOL0     H30238  -0.419   1.147   6.388  2.1343  1.5733 -2.2635
  965MOL0     H30239   0.061   1.173   6.880  0.9030 -1.2303  0.2840
  965MOL0     H30240   0.131   1.026   7.043  0.8937  0.8204 -2.2387
  965MOL0     H30241  -0.172   0.713   7.235 -0.6362  0.1876 -2.0044
  965MOL0     H30242  -0.068   0.679   7.088 -1.4303 -1.4297  0.2060
  965MOL0     H30243   0.053   0.554   7.230  3.6337 -0.3660  2.4350
  965MOL0     H30244   0.120   0.711   7.271  0.5778 -0.8852  1.5712
  965MOL0     H30245  -0.133   0.592   7.417 -0.8345 -1.5087 -1.0407
  965MOL0     H30246  -0.033   0.739   7.464  2.2929 -0.1674 -0.1434
  965MOL0     H30247   0.073   0.460   7.452 -0.7918 -1.2541  1.0722
  965MOL0     H30248   0.165   0.596   7.508 -0.9502  2.5505 -1.5835
  965MOL0     H30249  -0.068   0.482   7.646  1.3455 -1.9289 -2.0606
  965MOL0     H30250  -0.001   0.640   7.687  1.9422 -0.1294  1.6592
  965MOL0     H30251   0.133   0.372   7.689  4.6956  0.3478 -2.0942
  965MOL0     H30252   0.229   0.508   7.699 -0.0959 -1.9498 -1.8229
  965MOL0     H30253   0.163   0.400   7.917  0.2660 -0.3656 -1.5745
  965MOL0     H30254   0.000   0.464   7.901  0.2967 -2.0270  2.0621
  965MOL0     H30255   0.169   0.593   8.048 -0.2492 -2.0488 -0.1134
  965MOL0     H30256   0.113   0.700   7.904  0.4292 -0.3344 -0.0130
  965MOL0     H30257  -0.274   0.884   7.090  0.4262 -0.7216  1.1754
  965MOL0     H30258  -0.337   1.025   6.886  0.3844 -1.7064 -2.7555
  965MOL0     H30259   0.057   1.142   6.594 -0.8994  2.9623  0.3656
  965MOL0     H30260   0.160   1.217   6.389 -0.1321  0.3878  2.5512
  965MOL0     H30261   1.047   0.999   4.882  0.5067  0.4685  2.0803
  965MOL0     H30262   1.197   1.051   4.731 -2.5020 -1.7227 -2.3057
  965MOL0     H30263   1.545   1.094   4.526  1.2039  2.9664 -0.2300
  965MOL0     H30264   1.724   1.201   4.403  1.9332  0.6380 -1.3670
  965MOL0     H30265   2.120   1.121   4.303 -2.2819  1.9539 -1.6845
  965MOL0     H30266   2.097   0.953   4.354  3.4922 -0.2176 -3.7399
  965MOL0     H30267   2.045   0.914   4.108 -1.3530  0.3641  0.2290
  965MOL0     H30268   2.212   0.969   4.148 -0.2818  0.7293 -0.5728
  965MOL0     H30269   2.111   1.214   4.101  1.2648 -1.8482  0.8603
  965MOL0     H30270   1.967   1.128   4.045 -1.2608 -0.0698  3.7416
  965MOL0     H30271   2.064   1.160   3.834 -0.4191 -1.9546 -1.6436
  965MOL0     H30272   2.116   1.005   3.885  2.5756  0.3692 -1.4673
  965MOL0     H30273   2.489   1.171   3.828 -0.4980  1.1368 -0.5691
  965MOL0     H30274   1.922   0.829   4.404 -0.4361  0.7617  0.0263
  965MOL0     H30275   1.766   0.725   4.534  0.3651  0.7795  0.4269
  966MOL0     O30276  10.067  10.712   7.743 -0.5031 -0.0318 -0.3112
  966MOL0     C30277  10.160  10.684   7.661 -0.6359 -0.1291  0.0379
  966MOL0     O30278  10.215  10.775   7.570 -0.4826  0.2291  0.8298
  966MOL0     C30279  10.145  10.887   7.551  0.1069 -0.4156  0.1472
  966MOL0     C30280  10.154  10.997   7.634  1.0807  0.7184  0.3028
  966MOL0     C30281  10.090  11.123   7.614  0.3997  0.2485 -0.4336
  966MOL0     C30282  10.028  11.139   7.489  0.6911 -0.6608 -0.3562
  966MOL0     O30283   9.964  11.247   7.447  0.2049 -0.0747 -0.0034
  966MOL0     C30284   9.894  11.327   7.550  0.2356  0.3952 -0.6956
  966MOL0     C30285   9.773  11.237   7.613 -0.9091  0.2466  0.4392
  966MOL0     C30286   9.695  11.173   7.493  0.2544 -0.2312 -0.5639
  966MOL0     C30287   9.593  11.073   7.534  0.8386  0.4075 -0.9274
  966MOL0     C30288   9.648  10.937   7.590  0.6149  0.2536  0.1814
  966MOL0     C30289   9.533  10.828   7.605 -0.1702  0.1807  0.4636
  966MOL0     C30290   9.473  10.793   7.462  0.7471  1.4479 -0.3771
  966MOL0     C30291   9.405  10.649   7.480  0.5879 -0.2991 -0.7721
  966MOL0     N30292   9.374  10.586   7.350 -0.1303 -0.1699 -0.0825
  966MOL0     C30293   9.302  10.632   7.248 -0.3397  0.9112  0.5140
  966MOL0     C30294   9.321  10.544   7.149  0.6187  0.1244  0.1027
  966MOL0     C30295   9.252  10.560   7.019  0.4510  0.5473 -0.4878
  966MOL0     C30296   9.312  10.480   6.912  0.4219  0.8675 -0.1568
  966MOL0     C30297   9.215  10.457   6.793 -0.3137 -0.2681  0.9882
  966MOL0     C30298   9.145  10.584   6.742 -0.2615 -0.2925  0.5082
  966MOL0     O30299   9.251  10.683   6.724 -0.0530  0.4480  0.4251
  966MOL0     C30300   9.220  10.817   6.738  0.6827  0.6284 -0.2225
  966MOL0     C30301   9.330  10.894   6.691  0.6174  0.0715  0.3762
  966MOL0     C30302   9.329  11.029   6.682  0.3431  0.0353 -0.4259
  966MOL0     C30303   9.464  11.084   6.649 -0.1358  0.2218  0.1270
  966MOL0     C30304   9.219  11.098   6.738 -0.1499  0.0858 -0.5077
  966MOL0     C30305   9.218  11.237   6.739  0.1430 -0.6624  0.1491
  966MOL0     O30306   9.121  11.289   6.833  0.0181 -0.7472 -0.2448
  966MOL0     C30307   9.111  11.418   6.811 -0.0900  0.2577 -0.1688
  966MOL0     C30308   9.210  11.491   6.876  0.3051 -0.6415  0.6002
  966MOL0     C30309   9.206  11.631   6.889 -0.2287  0.1968  0.5631
  966MOL0     C30310   9.102  11.710   6.829 -0.5448  0.6951 -1.1630
  966MOL0     O30311   9.085  11.851   6.834  0.0069  0.4597  0.5489
  966MOL0     C30312   9.108  11.922   6.957 -0.7871  0.1716  0.0688
  966MOL0     C30313   9.084  11.847   7.081  0.3792 -0.0794  0.2843
  966MOL0     C30314   8.948  11.774   7.082 -0.1439  0.6053 -0.5235
  966MOL0     C30315   8.921  11.730   7.228  0.6354 -0.4350 -0.0383
  966MOL0     C30316   8.778  11.687   7.252  1.0164 -0.4351 -0.4037
  966MOL0     C30317   8.656  11.787   7.245  0.8944 -0.0303  0.1807
  966MOL0     C30318   8.645  11.893   7.349  0.3234  0.2626 -1.4782
  966MOL0     C30319   8.603  11.849   7.489 -0.5328  0.4901 -0.2553
  966MOL0    Cl30320   8.761  11.806   7.585  0.1908  0.3359  0.1796
  966MOL0     C30321   9.009  11.632   6.768 -0.0380  0.2490  0.3241
  966MOL0     C30322   9.015  11.489   6.749  0.2056 -0.8462 -0.1388
  966MOL0     O30323   9.275  11.303   6.649  0.1704 -0.5996  0.4446
  966MOL0     C30324   9.107  11.026   6.801  0.0742  0.3934  0.8383
  966MOL0     C30325   9.108  10.879   6.799  0.3662  0.1678 -0.0413
  966MOL0     N30326   9.406  10.445   7.187 -0.2391 -0.2476  0.2355
  966MOL0     N30327   9.423  10.462   7.314 -0.0953 -0.7416  0.0661
  966MOL0     C30328  10.021  11.031   7.395  0.2849 -0.9905  0.0270
  966MOL0     C30329  10.069  10.900   7.436 -0.0950  0.1822 -0.5194
  966MOL0     C30330  10.206  10.548   7.667  0.5230 -0.1441  0.0138
  966MOL0     C30331  10.193  10.464   7.783  0.6254 -0.7548  0.1012
  966MOL0     C30332  10.226  10.327   7.775  0.3221 -0.1974  0.0825
  966MOL0     C30333  10.286  10.279   7.658  1.5000 -0.5506  0.2656
  966MOL0     O30334  10.328  10.147   7.666 -0.6031  0.2556 -0.0272
  966MOL0     C30335  10.465  10.153   7.721 -0.3836 -0.9677 -0.4397
  966MOL0     C30336  10.571  10.239   7.645 -0.5190  0.1090  0.0095
  966MOL0     C30337  10.708  10.222   7.696  0.4078 -0.0146 -0.2263
  966MOL0     C30338  10.797  10.332   7.627 -0.4246 -0.3795  0.4671
  966MOL0     C30339  10.825  10.311   7.480 -0.1779  0.1038  0.1435
  966MOL0     C30340  10.864  10.274   7.373  0.1617  0.2293 -0.0698
  966MOL0     C30341  10.292  10.362   7.544  0.0907 -0.7288 -0.3471
  966MOL0     C30342  10.252  10.499   7.557 -0.7166  0.2398  0.3406
  966MOL0     H30343  10.215  10.985   7.723 -1.6256 -1.1834  2.0787
  966MOL0     H30344  10.101  11.188   7.701  5.1059 -1.0328  0.2315
  966MOL0     H30345   9.957  11.375   7.626 -2.7147  2.4053  0.6423
  966MOL0     H30346   9.849  11.406   7.490  0.1764  0.3114 -0.7625
  966MOL0     H30347   9.819  11.163   7.678  1.4546  0.6562 -0.6504
  966MOL0     H30348   9.702  11.297   7.671 -1.6636 -0.1020 -0.1112
  966MOL0     H30349   9.643  11.255   7.443 -6.0031 -2.5545  1.2065
  966MOL0     H30350   9.764  11.121   7.425  1.7980  2.0839 -0.8424
  966MOL0     H30351   9.530  11.110   7.616 -0.8418  0.3261 -2.1468
  966MOL0     H30352   9.538  11.047   7.444  2.5829 -2.2897 -1.3668
  966MOL0     H30353   9.734  10.910   7.528  1.2874  2.5359  0.0647
  966MOL0     H30354   9.688  10.937   7.692 -0.9175  0.3762  0.8135
  966MOL0     H30355   9.573  10.745   7.663  1.1179  1.3371  1.2829
  966MOL0     H30356   9.451  10.875   7.661  0.7578 -1.3969  3.3116
  966MOL0     H30357   9.408  10.876   7.432 -2.3933 -0.5057  0.5041
  966MOL0     H30358   9.555  10.779   7.391  0.7511  0.6319 -0.2248
  966MOL0     H30359   9.320  10.666   7.547  1.6084  0.3716  0.3885
  966MOL0     H30360   9.475  10.582   7.531 -0.3053 -0.4739  0.2634
  966MOL0     H30361   9.240  10.721   7.238  2.8903  3.2569 -0.3104
  966MOL0     H30362   9.155  10.511   7.032 -0.8945  2.2839 -3.0675
  966MOL0     H30363   9.230  10.665   6.997 -1.3290  0.0594 -1.2387
  966MOL0     H30364   9.345  10.379   6.941 -1.8646  0.2093  0.3909
  966MOL0     H30365   9.406  10.524   6.877  2.7468 -1.0729  3.0484
  966MOL0     H30366   9.149  10.375   6.821  1.3963 -1.6452  1.1910
  966MOL0     H30367   9.289  10.419   6.721  0.5357  2.6793  0.1752
  966MOL0     H30368   9.066  10.618   6.810 -0.2802  0.8246 -0.0490
  966MOL0     H30369   9.092  10.564   6.648 -0.6554 -0.2908  0.7277
  966MOL0     H30370   9.419  10.840   6.660  1.1551 -1.1053  3.5919
  966MOL0     H30371   9.477  11.116   6.545  3.4843  0.0151  0.3876
  966MOL0     H30372   9.490  11.156   6.728  0.7492  0.5611 -0.4517
  966MOL0     H30373   9.537  11.007   6.674 -0.7656 -0.4705 -0.1459
  966MOL0     H30374   9.288  11.433   6.923  1.9521  0.1391 -1.0599
  966MOL0     H30375   9.283  11.693   6.933 -1.7072  3.3272 -0.9827
  966MOL0     H30376   9.205  11.973   6.964 -0.6714  0.3178 -1.9730
  966MOL0     H30377   9.049  12.014   6.953  0.6680  1.0918 -2.1704
  966MOL0     H30378   9.158  11.773   7.112 -1.7893 -2.9221 -0.8042
  966MOL0     H30379   9.077  11.918   7.164  0.1080 -2.9990  2.9508
  966MOL0     H30380   8.951  11.688   7.014  0.1425  0.7044 -0.6375
  966MOL0     H30381   8.862  11.835   7.053 -1.1341 -0.0911  0.8477
  966MOL0     H30382   8.973  11.635   7.239 -0.9355 -1.0387  3.8191
  966MOL0     H30383   8.964  11.799   7.301  0.8880  2.3370 -2.6012
  966MOL0     H30384   8.773  11.641   7.351  0.6500  2.3728  0.9678
  966MOL0     H30385   8.751  11.607   7.182 -0.5855 -0.0534 -0.2595
  966MOL0     H30386   8.672  11.838   7.150 -0.9360  1.7375  0.7529
  966MOL0     H30387   8.564  11.728   7.246  0.4797  0.6022  0.0951
  966MOL0     H30388   8.559  11.950   7.315 -0.2109  0.8406  0.6849
  966MOL0     H30389   8.738  11.951   7.358  0.3676  0.2959 -2.1114
  966MOL0     H30390   8.545  11.757   7.480 -3.4022  2.3505 -2.5404
  966MOL0     H30391   8.544  11.924   7.542 -2.3233 -1.8965  1.3389
  966MOL0     H30392   8.934  11.691   6.715  0.2295 -0.3193 -0.7131
  966MOL0     H30393   8.929  11.439   6.704 -0.2161  0.8757 -1.3722
  966MOL0     H30394   9.027  11.080   6.851  1.9643  2.7776  1.5038
  966MOL0     H30395   9.032  10.819   6.848  3.7607 -0.4342  5.3339
  966MOL0     H30396   9.976  11.040   7.297  5.5703 -1.0131 -2.7774
  966MOL0     H30397  10.044  10.808   7.385  1.7275 -1.1272  0.8444
  966MOL0     H30398  10.147  10.490   7.877  0.5618  0.6175 -0.2843
  966MOL0     H30399  10.201  10.253   7.850  0.0368  1.0444  1.2469
  966MOL0     H30400  10.457  10.188   7.824 -5.2581 -1.3143 -0.4419
  966MOL0     H30401  10.503  10.051   7.734  0.5901 -0.4904  0.5459
  966MOL0     H30402  10.544  10.345   7.641 -0.2198  0.1513 -1.3441
  966MOL0     H30403  10.579  10.202   7.542 -0.7325 -0.3077  0.1361
  966MOL0     H30404  10.738  10.117   7.686 -3.1870 -1.4541  2.1105
  966MOL0     H30405  10.691  10.239   7.802 -0.3958 -2.6358  0.1212
  966MOL0     H30406  10.894  10.346   7.675 -1.3712 -0.7884  2.5678
  966MOL0     H30407  10.745  10.428   7.637  1.0845  0.3264  1.9567
  966MOL0     H30408  10.906  10.264   7.275  2.2380 -0.5601  0.8404
  966MOL0     H30409  10.338  10.338   7.448  2.0855  0.0481  0.3621
  966MOL0     H30410  10.241  10.559   7.467 -0.5422 -0.5491 -0.2154
  967MOL0     O30411   5.190   8.425   5.163  0.3507  0.2480  0.2040
  967MOL0     C30412   5.174   8.512   5.252 -0.4311  1.0380  1.2847
  967MOL0     O30413   5.066   8.580   5.263 -0.1516  0.1354  0.6608
  967MOL0     C30414   4.949   8.557   5.191 -0.2752 -0.1863 -0.0588
  967MOL0     C30415   4.943   8.560   5.052  0.5742  0.2617 -0.6269
  967MOL0     C30416   4.812   8.565   4.993  0.2813 -0.3503  1.0092
  967MOL0     C30417   4.700   8.529   5.066  0.0240 -0.1441  0.0765
  967MOL0     O30418   4.572   8.528   5.011 -0.2770  0.0910 -0.1947
  967MOL0     C30419   4.480   8.431   5.060  0.5867 -0.1484 -0.9307
  967MOL0     C30420   4.353   8.457   4.989 -0.1318 -0.3406 -0.3094
  967MOL0     C30421   4.368   8.460   4.835  0.5922  0.2675  0.8495
  967MOL0     C30422   4.441   8.334   4.778  0.0647 -0.3498 -0.6507
  967MOL0     C30423   4.406   8.296   4.623  0.3298 -0.6485 -0.2449
  967MOL0     C30424   4.439   8.395   4.514 -0.8118 -0.6668 -0.6619
  967MOL0     C30425   4.587   8.404   4.481  0.2901  0.2832 -0.3811
  967MOL0     C30426   4.679   8.491   4.560 -0.0507 -0.3745 -0.1303
  967MOL0     N30427   4.676   8.633   4.522  0.4115  0.4253  0.4612
  967MOL0     C30428   4.668   8.675   4.387 -0.6940  0.5515 -1.1597
  967MOL0     C30429   4.636   8.802   4.380  0.3501 -0.2150  0.6564
  967MOL0     C30430   4.621   8.879   4.256 -0.0407 -0.1910 -0.7094
  967MOL0     C30431   4.494   8.949   4.220 -0.6375  1.0554 -0.4426
  967MOL0     C30432   4.506   9.010   4.081 -0.8143 -0.3243  0.2826
  967MOL0     C30433   4.389   9.108   4.060  0.1960  0.7337 -0.0225
  967MOL0     O30434   4.277   9.029   4.082  0.8752 -0.5612 -0.1018
  967MOL0     C30435   4.158   9.060   4.017 -0.9319  0.3320  0.4509
  967MOL0     C30436   4.136   9.167   3.938  0.3050 -0.0178  0.9102
  967MOL0     C30437   4.005   9.191   3.885  0.9135 -0.6824 -0.5864
  967MOL0     C30438   3.990   9.320   3.808  2.1411 -0.7947  0.2220
  967MOL0     C30439   3.906   9.104   3.917 -0.1539  0.5635  0.2223
  967MOL0     C30440   3.764   9.129   3.858 -0.6923 -1.1326 -0.4196
  967MOL0     O30441   3.660   9.094   3.934 -0.0680  0.2789 -0.1413
  967MOL0     C30442   3.533   9.114   3.893  0.7917 -0.0484 -0.0649
  967MOL0     C30443   3.458   8.999   3.841  0.1911  0.5383 -0.1218
  967MOL0     C30444   3.338   9.019   3.787  0.6104 -0.5918 -0.0790
  967MOL0     C30445   3.277   9.146   3.789  0.5177 -0.1813  0.1066
  967MOL0     O30446   3.152   9.158   3.739  0.2687 -0.3837 -0.2480
  967MOL0     C30447   3.099   9.084   3.632 -0.0121 -1.0146 -0.3315
  967MOL0     C30448   3.170   9.114   3.492  0.9681  1.3554  0.5317
  967MOL0     C30449   3.183   9.267   3.456 -0.3760  0.7287  1.0264
  967MOL0     C30450   3.054   9.348   3.418 -0.8100 -0.1542 -0.7607
  967MOL0     C30451   2.950   9.277   3.331  0.0846 -0.2349 -0.2461
  967MOL0     C30452   3.011   9.232   3.194  0.0845 -0.4223  0.4604
  967MOL0     C30453   2.903   9.208   3.085 -0.9803 -0.4087  0.1481
  967MOL0     C30454   2.940   9.132   2.962 -0.4805  0.3028 -0.1023
  967MOL0    Cl30455   2.981   8.971   3.016 -0.5587 -0.4474 -0.0973
  967MOL0     C30456   3.340   9.254   3.838 -0.0815 -0.1930  0.0989
  967MOL0     C30457   3.475   9.243   3.884  0.5142 -0.3699  0.7536
  967MOL0     O30458   3.757   9.161   3.738  0.2652  0.2316  0.0460
  967MOL0     C30459   3.930   8.989   3.997  0.8712 -0.7966  1.0846
  967MOL0     C30460   4.051   8.969   4.040  0.3320 -0.2339 -0.4755
  967MOL0     N30461   4.616   8.840   4.513  0.8872 -1.0934  0.3867
  967MOL0     N30462   4.641   8.739   4.593 -0.4994  0.4692 -0.0547
  967MOL0     C30463   4.709   8.532   5.209 -0.1819 -0.0394  0.4658
  967MOL0     C30464   4.831   8.547   5.264 -0.3477  0.0380 -0.2942
  967MOL0     C30465   5.281   8.528   5.341  1.4473  0.1983 -0.6807
  967MOL0     C30466   5.256   8.582   5.468 -0.6056 -0.1722 -0.5887
  967MOL0     C30467   5.363   8.596   5.564 -0.9379 -0.0726 -0.5752
  967MOL0     C30468   5.495   8.565   5.533  0.6179 -0.6423  0.1280
  967MOL0     O30469   5.590   8.573   5.628  0.2401 -0.2397  0.0590
  967MOL0     C30470   5.723   8.611   5.589 -0.3726  0.7105 -1.5869
  967MOL0     C30471   5.807   8.491   5.623  0.2303 -0.8551 -0.2273
  967MOL0     C30472   5.960   8.519   5.597  0.1458  0.0167  0.4048
  967MOL0     C30473   6.035   8.407   5.670  0.3101  0.5023  0.2192
  967MOL0     C30474   6.178   8.408   5.665 -0.3598  0.0463  0.3336
  967MOL0     C30475   6.298   8.415   5.648  0.1731 -0.0039 -0.2315
  967MOL0     C30476   5.515   8.498   5.408 -0.2926 -0.3562 -0.8829
  967MOL0     C30477   5.410   8.480   5.319  0.7923 -0.4989 -0.5241
  967MOL0     H30478   5.036   8.585   5.002  0.2493  0.5550 -1.0881
  967MOL0     H30479   4.798   8.602   4.892 -0.6654 -1.2121  0.7984
  967MOL0     H30480   4.514   8.332   5.027  1.7095  0.4764 -1.7258
  967MOL0     H30481   4.478   8.428   5.169  3.9483  1.4864 -0.6924
  967MOL0     H30482   4.279   8.381   5.017  0.1896  0.5799  3.6401
  967MOL0     H30483   4.318   8.557   5.016 -1.4914 -0.6827 -0.6994
  967MOL0     H30484   4.277   8.464   4.776  2.0527  3.7781 -1.4933
  967MOL0     H30485   4.427   8.546   4.800  1.9837 -1.2340 -0.7067
  967MOL0     H30486   4.549   8.343   4.793  0.1722 -3.0131  0.9194
  967MOL0     H30487   4.408   8.248   4.836  0.2982 -1.2172 -1.7610
  967MOL0     H30488   4.454   8.201   4.600  1.4456 -0.4394  1.1208
  967MOL0     H30489   4.297   8.280   4.620 -0.1595  0.2658  4.5747
  967MOL0     H30490   4.382   8.356   4.430 -4.0553  1.8300  0.1645
  967MOL0     H30491   4.405   8.499   4.517  1.6518  0.2059  1.2229
  967MOL0     H30492   4.625   8.303   4.499 -0.9227 -0.3472 -1.2532
  967MOL0     H30493   4.599   8.427   4.374  1.1051  1.4924 -0.0576
  967MOL0     H30494   4.785   8.465   4.546  0.9579  3.1665 -0.1884
  967MOL0     H30495   4.648   8.485   4.664  0.8497 -1.8162  0.0898
  967MOL0     H30496   4.694   8.621   4.296  3.3790 -0.1682  0.2070
  967MOL0     H30497   4.705   8.948   4.269 -0.4890  0.4143 -0.9996
  967MOL0     H30498   4.649   8.819   4.169  0.7034 -0.1425 -0.5131
  967MOL0     H30499   4.467   9.020   4.298 -4.1677 -1.5678  0.9852
  967MOL0     H30500   4.416   8.872   4.217  1.5502 -1.3271 -0.2350
  967MOL0     H30501   4.515   8.938   3.999 -0.2912 -1.6265  1.4528
  967MOL0     H30502   4.592   9.077   4.082 -0.7212 -0.3273 -2.1581
  967MOL0     H30503   4.393   9.152   3.960  1.8132  0.9069  0.0902
  967MOL0     H30504   4.394   9.199   4.121  0.3754 -0.0032  1.0904
  967MOL0     H30505   4.202   9.250   3.913 -0.6564  0.2891 -0.8272
  967MOL0     H30506   3.922   9.393   3.853  1.8144 -1.2521  0.4840
  967MOL0     H30507   4.088   9.368   3.798  0.8962  1.4971 -2.5751
  967MOL0     H30508   3.968   9.310   3.701 -1.0939 -0.0179  0.7164
  967MOL0     H30509   3.493   8.896   3.847 -0.7599 -0.0146 -2.9174
  967MOL0     H30510   3.284   8.934   3.746 -1.3418  0.7266 -0.3700
  967MOL0     H30511   3.097   8.978   3.660 -1.7864 -1.0219 -0.3560
  967MOL0     H30512   2.994   9.117   3.632  0.1422 -0.4193 -2.0049
  967MOL0     H30513   3.264   9.058   3.495 -0.2825 -0.8399  2.8440
  967MOL0     H30514   3.104   9.074   3.415  0.8089  1.0551  0.8201
  967MOL0     H30515   3.247   9.260   3.367  0.2304 -1.1642  1.5616
  967MOL0     H30516   3.242   9.303   3.541 -1.6516 -2.8271  3.7019
  967MOL0     H30517   2.998   9.369   3.510 -0.7822 -0.6707 -0.6217
  967MOL0     H30518   3.071   9.446   3.374  1.2264  0.0053  0.2467
  967MOL0     H30519   2.858   9.334   3.315 -0.5889 -1.1798  0.1948
  967MOL0     H30520   2.917   9.186   3.382  0.4571  0.3615  1.0824
  967MOL0     H30521   3.078   9.310   3.158  1.7194  0.2536  4.4353
  967MOL0     H30522   3.057   9.133   3.202  2.6269  0.7185  1.0665
  967MOL0     H30523   2.870   9.311   3.065  0.6591 -0.1270 -1.2542
  967MOL0     H30524   2.827   9.147   3.136 -0.6823 -1.0499 -0.1796
  967MOL0     H30525   3.023   9.188   2.918 -0.1817 -0.1425 -0.1128
  967MOL0     H30526   2.861   9.131   2.887  0.9091  1.6596 -1.6523
  967MOL0     H30527   3.298   9.354   3.830  1.8389  0.7353  0.8141
  967MOL0     H30528   3.531   9.330   3.914 -1.4364  1.2058  0.0445
  967MOL0     H30529   3.864   8.906   4.023  2.7255 -2.1721  1.5839
  967MOL0     H30530   4.065   8.886   4.108  1.4063  0.4086  0.1121
  967MOL0     H30531   4.619   8.527   5.269 -0.2564 -1.1617  0.2794
  967MOL0     H30532   4.830   8.557   5.373  0.7811  0.1552 -0.2853
  967MOL0     H30533   5.156   8.607   5.502  0.2453 -0.8245  2.7903
  967MOL0     H30534   5.336   8.628   5.664 -0.3400 -1.5880  0.1040
  967MOL0     H30535   5.727   8.629   5.481  1.5874 -0.6037 -1.7815
  967MOL0     H30536   5.749   8.701   5.645 -2.5552  0.5234 -0.1684
  967MOL0     H30537   5.770   8.401   5.575  0.6930  0.3048 -2.9105
  967MOL0     H30538   5.789   8.467   5.729 -1.7823 -2.3171 -0.8472
  967MOL0     H30539   5.989   8.617   5.634 -0.2622  1.0053 -1.7232
  967MOL0     H30540   5.991   8.510   5.492  4.3264 -1.6742  1.5769
  967MOL0     H30541   6.002   8.311   5.629  1.6576 -0.4413  1.2770
  967MOL0     H30542   6.009   8.413   5.777 -1.8190 -0.7273 -0.1545
  967MOL0     H30543   6.403   8.422   5.627 -0.0845  1.7579 -1.1200
  967MOL0     H30544   5.616   8.467   5.387 -1.0677 -1.2447 -3.8023
  967MOL0     H30545   5.428   8.418   5.232 -2.5037 -0.7524 -1.1729
  968MOL0     O30546   5.453   3.525   7.597 -0.2547  0.6318 -0.1812
  968MOL0     C30547   5.405   3.418   7.636  0.8023 -0.8644 -0.6545
  968MOL0     O30548   5.319   3.405   7.739 -0.0182 -0.5086  0.0722
  968MOL0     C30549   5.323   3.489   7.849 -0.6430 -0.5575 -0.2545
  968MOL0     C30550   5.437   3.576   7.885 -0.3550  0.4502 -0.3558
  968MOL0     C30551   5.426   3.658   7.991 -0.7544  1.2313  0.0038
  968MOL0     C30552   5.320   3.653   8.079  0.0622 -0.1079 -0.4523
  968MOL0     O30553   5.322   3.745   8.183 -0.2566 -0.2506  0.4494
  968MOL0     C30554   5.210   3.752   8.271 -0.5199 -0.4346 -0.2591
  968MOL0     C30555   5.233   3.851   8.387 -0.5576  0.2514  0.2544
  968MOL0     C30556   5.221   4.005   8.359 -0.2094  0.0723  0.1307
  968MOL0     C30557   5.354   4.084   8.384 -0.4565 -0.9612  0.1401
  968MOL0     C30558   5.451   4.070   8.268 -1.1495 -0.5300  0.4955
  968MOL0     C30559   5.592   4.120   8.290 -0.0919  0.0453 -0.0950
  968MOL0     C30560   5.606   4.266   8.327 -0.2319  0.4804 -0.5965
  968MOL0     C30561   5.756   4.317   8.308 -0.0562 -0.6532  1.2551
  968MOL0     N30562   5.785   4.356   8.166 -0.1688  0.2211 -0.2755
  968MOL0     C30563   5.708   4.365   8.046  0.2973  0.1475 -0.0904
  968MOL0     C30564   5.791   4.409   7.953 -0.6255 -0.1347  0.5090
  968MOL0     C30565   5.778   4.458   7.813  0.1209 -0.5736  0.3060
  968MOL0     C30566   5.667   4.372   7.733 -0.1642 -0.3848 -0.1148
  968MOL0     C30567   5.618   4.441   7.603 -0.4015  0.2880 -1.0867
  968MOL0     C30568   5.721   4.468   7.491  0.3429 -0.5638 -1.3606
  968MOL0     O30569   5.825   4.563   7.532  0.7386 -0.7257 -0.6433
  968MOL0     C30570   5.803   4.699   7.555 -0.8591  0.3162  0.0315
  968MOL0     C30571   5.914   4.760   7.612  0.3241 -0.5497 -0.0246
  968MOL0     C30572   5.899   4.896   7.646 -1.0584 -1.1940 -0.0482
  968MOL0     C30573   6.021   4.947   7.701  0.1395  0.4192  0.5292
  968MOL0     C30574   5.774   4.957   7.619  0.3740  0.0303 -0.4678
  968MOL0     C30575   5.742   5.096   7.669 -0.9027 -0.7850  0.7131
  968MOL0     O30576   5.611   5.124   7.674  0.2403  0.0778 -0.2761
  968MOL0     C30577   5.573   5.219   7.761  0.4177 -0.1351 -0.1805
  968MOL0     C30578   5.546   5.190   7.895  0.3766 -0.0673  0.6194
  968MOL0     C30579   5.523   5.289   7.990 -0.5368  0.3641 -0.2162
  968MOL0     C30580   5.524   5.424   7.953  0.1562 -0.1009 -0.0335
  968MOL0     O30581   5.499   5.534   8.038  1.1052 -0.5616 -0.0152
  968MOL0     C30582   5.401   5.513   8.144 -0.2525 -0.2534 -0.0840
  968MOL0     C30583   5.408   5.637   8.230 -0.5675  0.3319 -0.5110
  968MOL0     C30584   5.348   5.763   8.156 -0.5463 -0.6004  0.3943
  968MOL0     C30585   5.378   5.883   8.243 -0.0988  0.5533  0.8002
  968MOL0     C30586   5.337   6.012   8.176 -0.3965 -0.5654 -0.4692
  968MOL0     C30587   5.352   6.142   8.275 -0.2088 -0.3919 -0.0184
  968MOL0     C30588   5.323   6.275   8.205  0.3156 -0.0936 -0.2234
  968MOL0     C30589   5.320   6.397   8.310 -0.7474 -0.6157  0.1200
  968MOL0    Cl30590   5.206   6.364   8.444 -0.0102  0.2563 -0.1294
  968MOL0     C30591   5.543   5.453   7.812 -0.1228 -0.9715 -0.0598
  968MOL0     C30592   5.566   5.356   7.719 -0.8392  0.3615 -0.0969
  968MOL0     O30593   5.836   5.165   7.696  0.4400 -0.1457  0.1258
  968MOL0     C30594   5.670   4.893   7.547 -0.9410 -0.4171  0.0158
  968MOL0     C30595   5.686   4.760   7.527  0.3484  0.2535 -0.2281
  968MOL0     N30596   5.921   4.407   8.012 -0.6259  0.5176  0.3787
  968MOL0     N30597   5.918   4.384   8.139  0.6997  0.2732  0.3854
  968MOL0     C30598   5.220   3.560   8.064  0.4789 -0.4643  0.9092
  968MOL0     C30599   5.223   3.472   7.950  0.4725  0.4017  0.4144
  968MOL0     C30600   5.432   3.299   7.555  1.2667 -0.0816 -0.4239
  968MOL0     C30601   5.546   3.290   7.478 -0.2885  0.3419  0.2339
  968MOL0     C30602   5.575   3.163   7.422  0.4705 -0.3829  0.4551
  968MOL0     C30603   5.489   3.057   7.438  1.2930  0.2813  0.5970
  968MOL0     O30604   5.540   2.940   7.389 -0.5870 -0.5016 -0.1502
  968MOL0     C30605   5.454   2.842   7.328 -0.5423  0.2786  0.2342
  968MOL0     C30606   5.502   2.706   7.379 -0.9716  0.2651 -0.1729
  968MOL0     C30607   5.514   2.606   7.263 -0.5103  0.1027  0.7626
  968MOL0     C30608   5.657   2.602   7.221  0.7935  0.1179  0.9216
  968MOL0     C30609   5.682   2.722   7.138 -0.7680  0.2304  0.9982
  968MOL0     C30610   5.708   2.816   7.064 -0.9795  0.2963 -0.1438
  968MOL0     C30611   5.375   3.068   7.509  0.2231  0.0182  0.5103
  968MOL0     C30612   5.342   3.187   7.573 -0.3092  0.1192 -0.3141
  968MOL0     H30613   5.518   3.581   7.814 -1.3366 -1.8204 -1.7546
  968MOL0     H30614   5.511   3.719   8.019 -1.1553  0.2755  3.8509
  968MOL0     H30615   5.122   3.795   8.222 -0.2487 -1.7132 -1.9270
  968MOL0     H30616   5.199   3.657   8.324 -0.7386  0.4178  1.2757
  968MOL0     H30617   5.144   3.844   8.449 -0.2959  2.3896  0.9599
  968MOL0     H30618   5.326   3.825   8.439 -1.2209 -1.6670  0.5473
  968MOL0     H30619   5.187   4.013   8.255  1.5487 -3.3978 -0.8593
  968MOL0     H30620   5.145   4.052   8.422  0.0940  1.7909 -0.7028
  968MOL0     H30621   5.331   4.190   8.397 -1.4921 -1.0055 -1.0574
  968MOL0     H30622   5.397   4.053   8.479 -3.2355  0.6340  2.0897
  968MOL0     H30623   5.448   3.969   8.227  2.4249  0.7046 -3.6426
  968MOL0     H30624   5.416   4.139   8.190  0.9547  2.3647  1.9021
  968MOL0     H30625   5.647   4.057   8.361  0.6650 -0.5233 -1.1507
  968MOL0     H30626   5.644   4.111   8.193  2.4812 -0.2594  1.2281
  968MOL0     H30627   5.523   4.323   8.283 -1.6930 -1.0813  0.0367
  968MOL0     H30628   5.581   4.268   8.433  1.5094 -3.4397  0.0278
  968MOL0     H30629   5.822   4.235   8.338 -0.0801  0.0270  3.3271
  968MOL0     H30630   5.787   4.397   8.376 -1.0271  1.7676 -0.9573
  968MOL0     H30631   5.602   4.345   8.035  0.2413 -0.5910  1.4947
  968MOL0     H30632   5.748   4.562   7.792 -0.1554 -0.7528 -0.2146
  968MOL0     H30633   5.869   4.434   7.757 -0.7026 -3.1934 -0.0274
  968MOL0     H30634   5.585   4.344   7.801 -4.1249  2.2578 -3.3135
  968MOL0     H30635   5.723   4.286   7.696 -0.7794 -0.5572 -0.6574
  968MOL0     H30636   5.560   4.533   7.617  1.3282  1.3378 -0.6455
  968MOL0     H30637   5.549   4.361   7.574 -0.4543 -0.2631  0.4878
  968MOL0     H30638   5.673   4.506   7.400  0.2157  4.6743  0.5376
  968MOL0     H30639   5.789   4.387   7.466 -2.1998 -2.7588 -1.5947
  968MOL0     H30640   5.999   4.693   7.623  0.6626  0.1368  2.0155
  968MOL0     H30641   6.063   5.012   7.624  0.9027  0.2894  0.8220
  968MOL0     H30642   5.989   4.998   7.792 -2.0016  1.2840 -0.6381
  968MOL0     H30643   6.092   4.868   7.728 -0.6079 -0.8393 -1.0214
  968MOL0     H30644   5.535   5.087   7.926 -0.1859 -0.5513 -1.0466
  968MOL0     H30645   5.493   5.264   8.091 -1.6171 -0.4382 -0.7214
  968MOL0     H30646   5.301   5.480   8.114 -1.4736  0.1363  3.1764
  968MOL0     H30647   5.445   5.440   8.214 -0.2449  1.0706  1.3389
  968MOL0     H30648   5.344   5.617   8.317 -1.8880  1.3752 -1.1889
  968MOL0     H30649   5.509   5.649   8.270 -1.2941  3.0896  0.7486
  968MOL0     H30650   5.243   5.760   8.127 -0.6581 -7.4146  0.0021
  968MOL0     H30651   5.404   5.772   8.062 -2.4939  0.7532 -0.7035
  968MOL0     H30652   5.343   5.865   8.345  1.0826  1.0823  1.3138
  968MOL0     H30653   5.487   5.892   8.250  0.1188 -0.4774 -0.8513
  968MOL0     H30654   5.231   6.003   8.147 -0.7239 -1.7654  1.0030
  968MOL0     H30655   5.400   6.027   8.087 -0.3486 -0.9616 -0.5051
  968MOL0     H30656   5.291   6.128   8.365 -0.7240 -0.0475 -0.3093
  968MOL0     H30657   5.458   6.138   8.303  0.1040  2.5074 -0.4288
  968MOL0     H30658   5.234   6.262   8.143  0.7297 -0.5562 -0.7395
  968MOL0     H30659   5.402   6.291   8.132 -0.6781 -1.0873 -1.5718
  968MOL0     H30660   5.293   6.486   8.254  2.4814  0.0460 -0.5773
  968MOL0     H30661   5.417   6.419   8.355  0.9585 -0.7058 -3.2350
  968MOL0     H30662   5.525   5.557   7.788 -0.4079 -0.1548  3.2254
  968MOL0     H30663   5.573   5.379   7.613 -1.8213  2.8907  0.3245
  968MOL0     H30664   5.583   4.951   7.517 -0.2856 -0.4996 -2.2828
  968MOL0     H30665   5.602   4.700   7.493  0.7412  0.7120 -2.1487
  968MOL0     H30666   5.132   3.538   8.124 -0.1746  0.0967  0.1876
  968MOL0     H30667   5.147   3.395   7.944  1.2146 -0.2833 -4.9230
  968MOL0     H30668   5.618   3.370   7.488 -1.2204  1.2587 -0.1208
  968MOL0     H30669   5.666   3.155   7.363  0.8338  1.2672  0.7468
  968MOL0     H30670   5.349   2.849   7.358 -0.3954 -2.0778  1.5223
  968MOL0     H30671   5.447   2.849   7.219  0.9656  1.6880  0.1888
  968MOL0     H30672   5.435   2.657   7.450 -1.3875 -3.5856 -2.9177
  968MOL0     H30673   5.599   2.723   7.426 -1.0844 -1.1476  0.6491
  968MOL0     H30674   5.436   2.622   7.188 -0.9087  2.5340  1.6237
  968MOL0     H30675   5.503   2.504   7.301  5.8690 -2.6744 -3.1888
  968MOL0     H30676   5.661   2.517   7.152 -2.7082  1.1689 -0.8110
  968MOL0     H30677   5.725   2.594   7.306  1.8293  1.0595  0.2090
  968MOL0     H30678   5.731   2.911   7.021  0.5225 -0.1857 -0.4743
  968MOL0     H30679   5.320   2.976   7.525  1.7189 -1.5332 -2.4144
  968MOL0     H30680   5.253   3.194   7.635  0.2548 -3.0030  1.0323
  969MOL0     O30681   2.926   3.926   0.773  0.1140  0.0976  0.3936
  969MOL0     C30682   3.009   4.016   0.749  0.8337  0.4929  0.0918
  969MOL0     O30683   3.112   4.050   0.833  0.4020 -0.4161 -0.2640
  969MOL0     C30684   3.126   3.983   0.956  0.3273 -0.6988  0.0041
  969MOL0     C30685   3.026   3.991   1.052  1.3975  0.0704 -0.3967
  969MOL0     C30686   3.054   3.934   1.179  0.0332 -0.5379 -0.3468
  969MOL0     C30687   3.165   3.856   1.211 -0.5479 -0.1175 -0.4224
  969MOL0     O30688   3.198   3.802   1.336 -0.0600  0.3288  0.4495
  969MOL0     C30689   3.096   3.816   1.438 -0.0114 -1.2264  0.1312
  969MOL0     C30690   3.139   3.746   1.555 -0.4932  0.3851  0.1740
  969MOL0     C30691   3.234   3.808   1.648 -0.0152  0.1059  0.6717
  969MOL0     C30692   3.239   3.711   1.766 -0.2730 -1.0843 -0.1816
  969MOL0     C30693   3.336   3.765   1.873  1.4028 -0.6318  0.4273
  969MOL0     C30694   3.331   3.674   2.004  1.3626  0.1108 -0.0960
  969MOL0     C30695   3.350   3.524   1.997 -0.1068  0.9461 -0.3740
  969MOL0     C30696   3.491   3.481   1.970 -0.2240 -0.7823  1.3092
  969MOL0     N30697   3.593   3.522   2.066 -0.3709  0.6465  0.8311
  969MOL0     C30698   3.730   3.480   2.064 -0.9138  1.6155 -0.1873
  969MOL0     C30699   3.787   3.549   2.165 -0.0948 -0.2468 -0.6143
  969MOL0     C30700   3.934   3.531   2.207 -0.1368  0.5123 -0.1019
  969MOL0     C30701   4.026   3.498   2.090 -0.7537  0.9311 -1.1460
  969MOL0     C30702   4.182   3.491   2.104 -0.6288 -0.4610  0.3785
  969MOL0     C30703   4.253   3.469   1.978 -0.7071 -0.3479 -0.2352
  969MOL0     O30704   4.206   3.368   1.886 -0.2230 -0.2870  0.5602
  969MOL0     C30705   4.259   3.365   1.759 -0.0582  1.0405  0.3820
  969MOL0     C30706   4.382   3.430   1.720  0.3323  0.4536  0.1672
  969MOL0     C30707   4.422   3.434   1.588  0.2766  0.0627  0.6791
  969MOL0     C30708   4.545   3.518   1.566  0.6961  0.8506 -0.2669
  969MOL0     C30709   4.347   3.370   1.482 -0.3183  0.7190 -0.3212
  969MOL0     C30710   4.392   3.368   1.337 -0.1580 -0.9643 -0.4653
  969MOL0     O30711   4.385   3.255   1.273  0.2421  0.6865  0.0769
  969MOL0     C30712   4.444   3.231   1.146 -1.5524  0.0559  1.3768
  969MOL0     C30713   4.394   3.138   1.051  0.2407  0.3102 -0.6786
  969MOL0     C30714   4.460   3.108   0.936  0.1421 -0.1287 -0.0096
  969MOL0     C30715   4.585   3.161   0.909 -0.7245 -0.2116  0.5030
  969MOL0     O30716   4.646   3.108   0.798 -0.2028 -0.1145 -0.1430
  969MOL0     C30717   4.705   2.978   0.824  0.0879  0.7524 -0.0832
  969MOL0     C30718   4.767   2.913   0.701 -0.6218 -0.1248  0.5191
  969MOL0     C30719   4.886   2.999   0.646  0.6359 -1.1071  0.1360
  969MOL0     C30720   5.004   3.002   0.735 -0.0849  0.0528  0.3671
  969MOL0     C30721   5.122   3.091   0.671 -0.7692  0.6541 -0.2335
  969MOL0     C30722   5.098   3.248   0.673 -1.1769  0.4978 -0.1785
  969MOL0     C30723   5.201   3.321   0.571 -0.0050  1.2996  0.9576
  969MOL0     C30724   5.197   3.475   0.591 -0.5936 -0.0803  0.2232
  969MOL0    Cl30725   5.323   3.555   0.486  0.0630 -0.0861 -0.2239
  969MOL0     C30726   4.645   3.249   1.000  1.1260  0.8383  0.0314
  969MOL0     C30727   4.578   3.284   1.121 -0.3462 -0.4787 -0.3814
  969MOL0     O30728   4.432   3.477   1.296  0.2368  0.2183 -0.3348
  969MOL0     C30729   4.227   3.306   1.518  0.5327 -0.4151  0.2035
  969MOL0     C30730   4.192   3.294   1.654  0.6729  0.6820  1.2483
  969MOL0     N30731   3.696   3.630   2.218 -0.1496 -0.4909 -0.4671
  969MOL0     N30732   3.582   3.605   2.174 -0.2842 -0.3138 -0.4714
  969MOL0     C30733   3.257   3.834   1.111  0.4000 -0.7501 -0.6375
  969MOL0     C30734   3.237   3.907   0.994 -0.5656  0.7769 -0.2805
  969MOL0     C30735   3.020   4.080   0.620 -0.6579 -0.2842 -0.8859
  969MOL0     C30736   2.934   4.044   0.513 -0.0940 -0.9210  0.7604
  969MOL0     C30737   2.941   4.095   0.379  0.8421 -0.4882  0.0797
  969MOL0     C30738   3.038   4.189   0.368 -0.5397  0.4235 -0.1191
  969MOL0     O30739   3.059   4.243   0.243 -0.0489  0.2352  0.4544
  969MOL0     C30740   3.187   4.219   0.190  0.3290 -0.2107  0.2224
  969MOL0     C30741   3.205   4.347   0.099  1.5593  0.4163  0.1649
  969MOL0     C30742   3.207   4.472   0.178 -0.0247 -0.6435  0.2451
  969MOL0     C30743   3.181   4.607   0.108  0.9133 -0.5739  0.2886
  969MOL0     C30744   3.294   4.629   0.009  0.6890  0.6237 -0.6245
  969MOL0     C30745   3.397   4.636  -0.061  0.1019 -0.0274  0.0845
  969MOL0     C30746   3.126   4.226   0.465  0.8578 -0.1550  0.9007
  969MOL0     C30747   3.111   4.181   0.590 -0.1793 -0.0608 -0.6971
  969MOL0     H30748   2.930   4.031   1.022  0.7781 -1.4627 -0.5661
  969MOL0     H30749   2.985   3.948   1.261  2.1135  3.6907  1.0166
  969MOL0     H30750   3.085   3.920   1.473 -2.3622 -1.3258 -0.1253
  969MOL0     H30751   2.999   3.776   1.407 -2.1600  2.7550  0.9908
  969MOL0     H30752   3.047   3.731   1.612 -1.5206  1.2960 -1.1699
  969MOL0     H30753   3.165   3.646   1.518 -1.3557 -0.3579  1.5081
  969MOL0     H30754   3.331   3.823   1.600  0.6405 -1.8276  1.3090
  969MOL0     H30755   3.194   3.902   1.687  1.9455  2.1222 -1.8072
  969MOL0     H30756   3.141   3.685   1.807 -0.5267  1.3093  0.8972
  969MOL0     H30757   3.294   3.623   1.732 -1.3068 -1.7235 -0.2474
  969MOL0     H30758   3.436   3.789   1.836  1.5834 -3.3022 -1.1011
  969MOL0     H30759   3.281   3.854   1.903 -0.3493 -1.4490 -0.2519
  969MOL0     H30760   3.387   3.723   2.084 -2.5489  1.2836  2.2144
  969MOL0     H30761   3.230   3.672   2.046  2.0604 -3.3679  1.8238
  969MOL0     H30762   3.344   3.484   2.099  0.0070 -2.0208 -1.4445
  969MOL0     H30763   3.278   3.472   1.934 -0.3433  0.7046  0.0915
  969MOL0     H30764   3.514   3.534   1.878 -0.7538 -0.8104  1.1577
  969MOL0     H30765   3.505   3.376   1.942  2.6978  0.2451 -1.5772
  969MOL0     H30766   3.772   3.418   1.986 -1.4273  1.0143  0.0027
  969MOL0     H30767   3.975   3.628   2.236 -0.9386  0.7859  0.1408
  969MOL0     H30768   3.929   3.466   2.295  2.3477 -1.0769 -1.0272
  969MOL0     H30769   4.006   3.577   2.017 -0.6954 -1.2194 -3.6395
  969MOL0     H30770   3.986   3.402   2.055 -3.2950  1.5920 -0.2825
  969MOL0     H30771   4.215   3.407   2.165 -1.3597 -1.2166 -0.2430
  969MOL0     H30772   4.198   3.592   2.143  2.8372 -0.6780 -0.1517
  969MOL0     H30773   4.359   3.447   1.998 -0.7467 -1.2839 -0.9609
  969MOL0     H30774   4.255   3.566   1.927  1.7128  1.4164  2.8333
  969MOL0     H30775   4.439   3.494   1.788 -0.0302 -0.2602  1.1694
  969MOL0     H30776   4.615   3.517   1.650 -0.4515  2.8729  0.8007
  969MOL0     H30777   4.598   3.496   1.473  1.7743  1.1129  0.2713
  969MOL0     H30778   4.506   3.621   1.566  0.1458  0.7051  2.1206
  969MOL0     H30779   4.290   3.106   1.061  0.4633 -0.3227 -0.3201
  969MOL0     H30780   4.409   3.037   0.871 -0.7160  0.2272  0.2623
  969MOL0     H30781   4.786   2.992   0.896  2.0308  0.0275 -2.0121
  969MOL0     H30782   4.633   2.908   0.868  2.0983 -1.7250 -0.4743
  969MOL0     H30783   4.810   2.819   0.737  0.2770 -0.3356 -0.9839
  969MOL0     H30784   4.692   2.903   0.622 -1.7201  0.5961  1.4519
  969MOL0     H30785   4.857   3.104   0.642 -0.2866 -1.3582  0.1145
  969MOL0     H30786   4.907   2.962   0.545 -0.7088  0.3079 -0.7071
  969MOL0     H30787   4.978   3.042   0.833  0.3619  1.7198 -0.1662
  969MOL0     H30788   5.036   2.897   0.745 -1.1980 -0.5443 -1.6957
  969MOL0     H30789   5.138   3.058   0.568  1.3296 -0.1286  0.2753
  969MOL0     H30790   5.214   3.069   0.726 -0.1906  2.1746 -0.5482
  969MOL0     H30791   4.992   3.275   0.662 -1.9187 -1.4838  1.4145
  969MOL0     H30792   5.115   3.281   0.776  1.3937 -3.8034  1.0456
  969MOL0     H30793   5.170   3.297   0.469  1.5815  3.8585 -0.2396
  969MOL0     H30794   5.298   3.272   0.580  0.4469  1.8700 -0.4843
  969MOL0     H30795   5.220   3.501   0.694  2.1815 -1.5128  0.0641
  969MOL0     H30796   5.109   3.524   0.549  1.0359  1.1990 -1.9465
  969MOL0     H30797   4.740   3.299   0.987 -0.0532  4.2499  2.9995
  969MOL0     H30798   4.627   3.344   1.197  0.0769  1.3103 -2.0118
  969MOL0     H30799   4.167   3.261   1.439 -0.2673 -0.0067  0.5786
  969MOL0     H30800   4.104   3.237   1.679 -1.8504  3.9686  0.5198
  969MOL0     H30801   3.345   3.773   1.127  0.9095 -0.1236 -1.0173
  969MOL0     H30802   3.310   3.891   0.915 -3.1486  1.3837 -2.9732
  969MOL0     H30803   2.859   3.968   0.529 -2.2871  0.6933 -1.1047
  969MOL0     H30804   2.874   4.077   0.296  1.6068 -0.5312 -0.5344
  969MOL0     H30805   3.275   4.206   0.255  0.4991  0.9299  0.2487
  969MOL0     H30806   3.186   4.136   0.120  0.4607 -0.4797  0.5369
  969MOL0     H30807   3.128   4.349   0.022  1.7212 -1.0169 -0.0673
  969MOL0     H30808   3.294   4.350   0.035 -1.0147  2.3767 -3.7714
  969MOL0     H30809   3.304   4.476   0.227 -0.1814  5.6165  0.8341
  969MOL0     H30810   3.132   4.464   0.258  3.0812  0.2032  3.4902
  969MOL0     H30811   3.161   4.690   0.177  0.7741  0.2568 -0.7335
  969MOL0     H30812   3.080   4.607   0.065  1.8847 -0.0794 -2.1180
  969MOL0     H30813   3.486   4.633  -0.120  0.5190  2.1154  0.4999
  969MOL0     H30814   3.200   4.304   0.449 -0.6066  1.6577  2.4527
  969MOL0     H30815   3.189   4.218   0.657  0.8583 -0.3934 -1.6902
  970MOL0     O30816   5.654   8.205   6.925  0.1850 -0.8527  0.8704
  970MOL0     C30817   5.539   8.224   6.881 -0.5274 -0.2366 -0.6366
  970MOL0     O30818   5.513   8.283   6.770 -1.3552  0.7004  0.2143
  970MOL0     C30819   5.594   8.281   6.659 -1.3687 -0.4371 -0.0282
  970MOL0     C30820   5.612   8.404   6.598  0.9327 -0.0855 -0.5172
  970MOL0     C30821   5.685   8.407   6.480  0.1570  0.5144  0.6174
  970MOL0     C30822   5.738   8.293   6.425  0.1418  0.1527 -0.2209
  970MOL0     O30823   5.817   8.299   6.312  0.0036 -0.0948  0.9851
  970MOL0     C30824   5.932   8.387   6.324  1.2921  0.1824  0.0874
  970MOL0     C30825   6.024   8.367   6.205 -0.7874  0.0488  0.6189
  970MOL0     C30826   6.152   8.456   6.206 -0.2921  0.7527  0.4330
  970MOL0     C30827   6.104   8.598   6.172  0.5779 -0.4631 -0.2508
  970MOL0     C30828   6.214   8.714   6.182  1.0524 -0.2999 -0.1265
  970MOL0     C30829   6.344   8.698   6.105 -0.0165  0.5042 -0.1610
  970MOL0     C30830   6.322   8.686   5.954  0.1418  0.6678  0.0355
  970MOL0     C30831   6.457   8.656   5.874 -0.4099  0.4124 -0.0604
  970MOL0     N30832   6.546   8.559   5.935  0.3245  0.6130  0.0032
  970MOL0     C30833   6.521   8.427   5.969  0.0562 -0.6876 -0.3111
  970MOL0     C30834   6.626   8.400   6.045  0.0004  0.7951 -0.3223
  970MOL0     C30835   6.656   8.261   6.092 -0.4607  0.5786  0.6916
  970MOL0     C30836   6.597   8.258   6.233 -0.1804 -0.2463  0.8397
  970MOL0     C30837   6.622   8.131   6.314 -0.1554  0.0717 -0.4172
  970MOL0     C30838   6.565   8.004   6.248  0.3746  0.4572  0.1447
  970MOL0     O30839   6.424   8.022   6.205  1.1094  1.1356  0.1731
  970MOL0     C30840   6.331   7.979   6.298  0.1990 -0.4273  0.8282
  970MOL0     C30841   6.260   8.072   6.367  1.4215 -0.1205 -0.5760
  970MOL0     C30842   6.195   8.039   6.487 -0.5420 -0.0810 -0.8583
  970MOL0     C30843   6.142   8.161   6.539  0.2760 -0.6562 -0.8006
  970MOL0     C30844   6.188   7.904   6.524  0.8017  0.5604 -0.3427
  970MOL0     C30845   6.116   7.860   6.637 -0.1712  0.0166 -0.4594
  970MOL0     O30846   6.153   7.743   6.692  0.0034  0.3213 -0.4798
  970MOL0     C30847   6.095   7.700   6.806 -0.1762 -0.5290  0.1742
  970MOL0     C30848   6.147   7.740   6.927 -0.1521 -0.4360 -0.8359
  970MOL0     C30849   6.099   7.688   7.049  0.1925 -1.0041  0.0201
  970MOL0     C30850   5.995   7.588   7.033 -0.2791 -0.7193  0.7612
  970MOL0     O30851   5.956   7.536   7.157  0.4336  0.9997 -1.1215
  970MOL0     C30852   5.837   7.462   7.180 -0.1824  0.6850  0.6416
  970MOL0     C30853   5.811   7.435   7.331  0.4096  0.3718 -0.3325
  970MOL0     C30854   5.799   7.567   7.412  0.1930  0.1682 -0.0687
  970MOL0     C30855   5.732   7.559   7.549 -0.2283 -0.3339  0.2310
  970MOL0     C30856   5.754   7.696   7.619  0.0489 -0.0607 -0.0521
  970MOL0     C30857   5.660   7.705   7.742 -1.0109 -0.0028  0.6201
  970MOL0     C30858   5.645   7.844   7.803 -0.5946  0.7048 -1.1114
  970MOL0     C30859   5.534   7.832   7.925  0.4077  0.8604 -0.4280
  970MOL0    Cl30860   5.502   7.988   7.983 -0.0056  0.3960 -0.0107
  970MOL0     C30861   5.961   7.536   6.911  1.4333 -0.0012 -0.0897
  970MOL0     C30862   5.998   7.596   6.794 -1.1297 -0.0337  0.9856
  970MOL0     O30863   6.008   7.910   6.652 -0.3415  0.1710 -0.5406
  970MOL0     C30864   6.252   7.807   6.446  0.7221 -0.0551 -0.7413
  970MOL0     C30865   6.321   7.849   6.335  0.6705  0.6562  0.3985
  970MOL0     N30866   6.706   8.502   6.042 -0.2177 -0.9198 -0.0782
  970MOL0     N30867   6.666   8.606   5.979  0.1304  0.2701  0.3694
  970MOL0     C30868   5.716   8.173   6.488  0.0173  0.0579  0.8935
  970MOL0     C30869   5.645   8.165   6.604  0.1041 -0.7821 -0.5385
  970MOL0     C30870   5.433   8.182   6.962  0.6744  0.2806  0.6729
  970MOL0     C30871   5.450   8.183   7.102  0.8026  1.1351  0.3570
  970MOL0     C30872   5.349   8.127   7.182  0.3136  0.6608  0.0057
  970MOL0     C30873   5.236   8.055   7.124  0.3439  0.0833 -0.1300
  970MOL0     O30874   5.128   7.998   7.194  0.1667  0.4885  0.4538
  970MOL0     C30875   5.114   8.007   7.334  0.1198 -0.0887  0.2381
  970MOL0     C30876   5.019   8.125   7.375 -0.0983 -0.4367  0.1479
  970MOL0     C30877   5.045   8.268   7.328 -0.7010  0.6092 -0.4001
  970MOL0     C30878   4.930   8.361   7.365 -0.5408  0.1836 -0.9559
  970MOL0     C30879   4.795   8.342   7.304 -0.4751  0.5697 -0.2831
  970MOL0     C30880   4.683   8.318   7.257  0.2757  0.1008 -0.1446
  970MOL0     C30881   5.227   8.049   6.983 -0.2266  0.4866  0.4962
  970MOL0     C30882   5.327   8.107   6.910 -0.1196 -0.5671 -0.8067
  970MOL0     H30883   5.567   8.494   6.640 -1.0877 -0.9868 -0.6283
  970MOL0     H30884   5.681   8.500   6.425 -2.8005  0.3329  0.3340
  970MOL0     H30885   5.881   8.483   6.326 -1.3493 -1.0602 -1.7715
  970MOL0     H30886   5.976   8.364   6.421  3.4983 -0.1374 -0.9302
  970MOL0     H30887   6.059   8.264   6.220 -0.5349  0.0039 -0.2564
  970MOL0     H30888   5.963   8.377   6.115  0.5352  0.5509 -0.2475
  970MOL0     H30889   6.192   8.450   6.308 -0.1876 -0.1227  0.3534
  970MOL0     H30890   6.227   8.414   6.139 -0.9898 -0.5662  0.4335
  970MOL0     H30891   6.074   8.613   6.068 -1.3225 -2.2825 -0.0199
  970MOL0     H30892   6.017   8.625   6.233  0.9765 -1.0474  0.5959
  970MOL0     H30893   6.184   8.817   6.160  2.6651  0.7019  1.9732
  970MOL0     H30894   6.239   8.722   6.289  2.0435  3.1428 -0.5053
  970MOL0     H30895   6.406   8.788   6.111 -0.4187  0.6850  1.7887
  970MOL0     H30896   6.405   8.614   6.138 -2.8204 -0.5446  2.9278
  970MOL0     H30897   6.256   8.600   5.940 -0.1764  0.2000  3.6323
  970MOL0     H30898   6.266   8.776   5.925  0.2333  1.8297  3.1174
  970MOL0     H30899   6.509   8.751   5.869 -0.4712  0.5480  1.3523
  970MOL0     H30900   6.431   8.625   5.772  4.1212 -2.3402 -0.6235
  970MOL0     H30901   6.436   8.364   5.945 -2.5630  1.5001  2.4296
  970MOL0     H30902   6.620   8.182   6.025 -1.1073  1.3099  0.1586
  970MOL0     H30903   6.759   8.237   6.118 -0.1377  2.7001  1.5489
  970MOL0     H30904   6.489   8.277   6.232 -0.1356  0.0355  0.0875
  970MOL0     H30905   6.642   8.338   6.293 -0.1765  2.3183 -2.2604
  970MOL0     H30906   6.563   8.145   6.405 -5.6348  0.7275 -3.6087
  970MOL0     H30907   6.729   8.116   6.333 -0.0375 -2.0497 -2.2146
  970MOL0     H30908   6.579   7.908   6.299  0.5642 -1.7275 -3.6463
  970MOL0     H30909   6.620   7.978   6.157 -0.4147 -1.2135  0.1061
  970MOL0     H30910   6.250   8.171   6.322  1.0391  3.1264  5.5400
  970MOL0     H30911   6.076   8.209   6.465  1.2334  0.2938 -1.0570
  970MOL0     H30912   6.092   8.150   6.636  1.6613  2.7562  0.4365
  970MOL0     H30913   6.224   8.229   6.564 -1.0248  1.5582 -2.2023
  970MOL0     H30914   6.236   7.802   6.920  1.6092 -2.8756 -1.8718
  970MOL0     H30915   6.142   7.708   7.146  1.4367  0.7095 -0.8249
  970MOL0     H30916   5.755   7.521   7.138  0.5528  0.9963 -0.3958
  970MOL0     H30917   5.838   7.365   7.129  2.1330  0.6470  0.6572
  970MOL0     H30918   5.722   7.374   7.347  0.4386  0.1398 -0.9887
  970MOL0     H30919   5.893   7.372   7.368  0.7701  2.0194  1.8335
  970MOL0     H30920   5.760   7.643   7.343  4.0733  0.0939 -2.6485
  970MOL0     H30921   5.897   7.607   7.438  0.3851 -1.2310  1.5308
  970MOL0     H30922   5.628   7.530   7.533  0.1738 -0.7486 -1.9559
  970MOL0     H30923   5.786   7.480   7.602 -1.2514 -0.7426  0.6942
  970MOL0     H30924   5.740   7.783   7.555  0.7492 -1.4047 -2.1389
  970MOL0     H30925   5.858   7.706   7.653 -0.4427  1.4913  1.1221
  970MOL0     H30926   5.567   7.661   7.704 -0.0340  0.6598 -2.9633
  970MOL0     H30927   5.694   7.636   7.820 -0.4144 -1.1629 -0.6199
  970MOL0     H30928   5.615   7.929   7.740 -0.3875  2.6456  1.2471
  970MOL0     H30929   5.743   7.874   7.842  0.2962 -3.3738  0.3040
  970MOL0     H30930   5.570   7.780   8.014  0.5604  2.7807  0.6807
  970MOL0     H30931   5.440   7.788   7.890 -0.9294  2.0204  1.5354
  970MOL0     H30932   5.875   7.470   6.913  0.5229  1.1327 -0.8061
  970MOL0     H30933   5.976   7.558   6.695  0.7914 -0.2082  0.5924
  970MOL0     H30934   6.252   7.700   6.468  1.1779  0.2692  0.9817
  970MOL0     H30935   6.366   7.777   6.268 -1.0567 -1.9782  1.8962
  970MOL0     H30936   5.746   8.084   6.433 -0.0298 -0.1896  1.2622
  970MOL0     H30937   5.627   8.070   6.654 -0.0230 -1.6367 -2.1347
  970MOL0     H30938   5.546   8.220   7.135  1.2628 -1.0852  1.7612
  970MOL0     H30939   5.360   8.128   7.290  2.4338 -4.2106  0.1501
  970MOL0     H30940   5.067   7.913   7.365 -0.9649 -0.2460 -1.7107
  970MOL0     H30941   5.215   8.017   7.376  0.0073 -2.0067  1.0449
  970MOL0     H30942   4.994   8.122   7.482 -3.5616  2.4153 -0.3945
  970MOL0     H30943   4.919   8.113   7.332  0.0344  0.6410 -0.4805
  970MOL0     H30944   5.050   8.274   7.219  2.6617  0.1840 -0.3838
  970MOL0     H30945   5.136   8.315   7.368  0.0447  1.2367 -2.6952
  970MOL0     H30946   4.967   8.459   7.334 -1.6602  0.6699 -0.8115
  970MOL0     H30947   4.918   8.358   7.474 -2.2894  0.2843 -1.1186
  970MOL0     H30948   4.583   8.292   7.226 -0.4393  2.3330  0.0782
  970MOL0     H30949   5.145   7.997   6.936 -1.2090 -0.9643  3.5258
  970MOL0     H30950   5.323   8.079   6.805 -1.4781  0.5622 -1.0922
  971MOL0     O30951   6.570   3.821   5.784 -0.2951 -0.0519 -0.2871
  971MOL0     C30952   6.623   3.783   5.887  0.5550 -0.1935 -1.2387
  971MOL0     O30953   6.603   3.824   6.015 -0.2448 -0.1269  0.2177
  971MOL0     C30954   6.507   3.927   6.030  0.5190  0.5540  0.2943
  971MOL0     C30955   6.377   3.933   5.960 -0.0009  0.7154 -0.2948
  971MOL0     C30956   6.293   4.042   5.981  0.5570  0.6780 -0.1618
  971MOL0     C30957   6.337   4.156   6.050 -0.0278 -0.9108 -0.6608
  971MOL0     O30958   6.249   4.258   6.057 -1.2231 -0.7621 -0.1018
  971MOL0     C30959   6.296   4.371   5.985  0.0669 -0.1622  0.0367
  971MOL0     C30960   6.243   4.367   5.842 -0.3549  0.1420 -0.0720
  971MOL0     C30961   6.213   4.509   5.786 -0.5277  0.0151  0.1409
  971MOL0     C30962   6.238   4.506   5.643  0.1945  0.2931 -0.0208
  971MOL0     C30963   6.291   4.640   5.589 -0.2740  1.0337 -0.2692
  971MOL0     C30964   6.199   4.765   5.634  0.2653  0.4859  0.0517
  971MOL0     C30965   6.241   4.900   5.576 -0.4173  0.0580  1.1371
  971MOL0     C30966   6.153   5.015   5.636  0.6760  0.8949  0.5977
  971MOL0     N30967   6.129   5.029   5.779  0.1432  0.5496 -0.2473
  971MOL0     C30968   6.028   4.965   5.850 -0.2831 -0.0967 -0.3344
  971MOL0     C30969   6.041   5.018   5.975  0.5113  0.4769 -0.1798
  971MOL0     C30970   5.962   4.977   6.099 -0.3541  0.7111 -0.4689
  971MOL0     C30971   5.943   5.078   6.209  0.5564  0.6199  0.8094
  971MOL0     C30972   5.836   5.182   6.179 -0.0837  0.5979  1.2427
  971MOL0     C30973   5.791   5.245   6.314  0.1642  1.4652 -0.5813
  971MOL0     O30974   5.686   5.334   6.284  0.3717 -0.5778 -0.0907
  971MOL0     C30975   5.719   5.458   6.234 -1.3749 -0.5316 -0.6829
  971MOL0     C30976   5.837   5.540   6.258  0.6904  1.1176  0.4316
  971MOL0     C30977   5.857   5.662   6.197  0.1770 -0.2482  2.0391
  971MOL0     C30978   5.992   5.723   6.216 -1.2485 -0.0774  0.3044
  971MOL0     C30979   5.772   5.705   6.091  0.4765  0.8329  0.6639
  971MOL0     C30980   5.784   5.832   6.012  0.2543 -0.7761  0.7477
  971MOL0     O30981   5.909   5.893   5.999  0.5028 -0.7517  0.3765
  971MOL0     C30982   5.927   6.018   5.939  0.2681 -0.1552 -1.2568
  971MOL0     C30983   5.970   6.124   6.019 -0.0762 -0.3641 -0.8857
  971MOL0     C30984   5.976   6.245   5.961 -0.4244 -0.6739 -0.0665
  971MOL0     C30985   5.969   6.263   5.819  1.1200 -0.6625 -0.7751
  971MOL0     O30986   5.978   6.381   5.756  1.1242 -0.9630  0.5121
  971MOL0     C30987   6.114   6.438   5.763  0.8895  0.3536  0.6649
  971MOL0     C30988   6.131   6.522   5.637 -0.4204  0.5261 -0.0181
  971MOL0     C30989   6.197   6.440   5.525 -0.3690  0.2492  0.9873
  971MOL0     C30990   6.189   6.531   5.403 -0.5084  0.4899 -0.3474
  971MOL0     C30991   6.283   6.469   5.297 -0.8527 -0.1344 -0.5578
  971MOL0     C30992   6.293   6.551   5.172 -0.1084 -0.5036 -0.6467
  971MOL0     C30993   6.367   6.473   5.064  0.1840 -0.4336 -0.4740
  971MOL0     C30994   6.321   6.505   4.924  0.0498  1.3082 -0.4170
  971MOL0    Cl30995   6.395   6.379   4.815  0.3362 -0.0155 -0.5850
  971MOL0     C30996   5.920   6.155   5.742 -0.2043 -0.0823 -0.4937
  971MOL0     C30997   5.906   6.034   5.804  0.7059  0.1855 -0.1033
  971MOL0     O30998   5.688   5.863   5.944 -0.0754  0.1804  0.4876
  971MOL0     C30999   5.649   5.630   6.074  0.3151 -0.1072  0.8465
  971MOL0     C31000   5.622   5.514   6.151 -0.2162 -0.7084  0.5906
  971MOL0     N31001   6.154   5.103   5.980 -0.1580  0.3762  0.9513
  971MOL0     N31002   6.199   5.105   5.861  0.1316 -0.0984 -0.2110
  971MOL0     C31003   6.466   4.156   6.097 -0.0925 -0.2562 -0.2872
  971MOL0     C31004   6.547   4.040   6.096 -0.3642  0.2071  0.0165
  971MOL0     C31005   6.707   3.661   5.869  0.6477  0.0019  0.1407
  971MOL0     C31006   6.733   3.590   5.986 -0.0015 -1.5683 -0.3805
  971MOL0     C31007   6.823   3.493   5.993  0.3930  0.9399  0.1857
  971MOL0     C31008   6.905   3.464   5.874 -0.9773 -0.1752 -0.8011
  971MOL0     O31009   7.003   3.371   5.899  0.1682  0.1111  0.2961
  971MOL0     C31010   6.975   3.236   5.836  0.3415 -0.4204 -1.2162
  971MOL0     C31011   7.101   3.157   5.807  0.1455 -0.2745 -0.0489
  971MOL0     C31012   7.196   3.204   5.699 -0.7743 -0.1365  0.4295
  971MOL0     C31013   7.142   3.184   5.546  0.5272 -0.1364  0.5106
  971MOL0     C31014   7.060   3.296   5.496  0.7943  0.0120 -0.6024
  971MOL0     C31015   6.996   3.397   5.448 -0.2715  1.3245  1.0742
  971MOL0     C31016   6.876   3.536   5.754  0.6152  0.2761  0.9880
  971MOL0     C31017   6.786   3.640   5.753  0.3590 -0.0628 -0.1083
  971MOL0     H31018   6.367   3.855   5.885  3.0688  0.2804 -0.4056
  971MOL0     H31019   6.206   4.033   5.916 -0.3285 -1.4816  1.2322
  971MOL0     H31020   6.247   4.460   6.027 -0.0812  1.2680 -2.9228
  971MOL0     H31021   6.404   4.385   5.996 -0.4282  2.8475  2.8489
  971MOL0     H31022   6.308   4.308   5.777 -2.4844 -1.6847 -0.6542
  971MOL0     H31023   6.150   4.310   5.849  1.1567 -2.8479 -2.2185
  971MOL0     H31024   6.109   4.534   5.809 -1.0181 -1.8747  0.0768
  971MOL0     H31025   6.273   4.587   5.833 -3.0558  1.9304  0.4348
  971MOL0     H31026   6.302   4.421   5.616 -0.2391 -0.5792  1.5799
  971MOL0     H31027   6.151   4.497   5.578  1.1159  1.6718 -1.5399
  971MOL0     H31028   6.398   4.652   5.608 -0.1373  1.6462 -1.3358
  971MOL0     H31029   6.306   4.641   5.481  1.2222 -1.2473 -0.1452
  971MOL0     H31030   6.101   4.749   5.588 -1.7166 -0.6145  4.1791
  971MOL0     H31031   6.174   4.770   5.741  2.4325  0.4438  0.6088
  971MOL0     H31032   6.344   4.920   5.606  1.2155 -3.1580 -1.7012
  971MOL0     H31033   6.234   4.900   5.467 -4.4560 -5.6448  0.9293
  971MOL0     H31034   6.054   4.993   5.595  1.7640 -2.9815 -0.4825
  971MOL0     H31035   6.197   5.110   5.603 -2.3573  3.1828  2.6741
  971MOL0     H31036   5.949   4.898   5.817 -2.7678  0.1450  4.2593
  971MOL0     H31037   5.867   4.930   6.072  0.1716 -0.2034 -0.7716
  971MOL0     H31038   6.030   4.900   6.137 -1.6122 -0.3203 -0.2281
  971MOL0     H31039   6.031   5.142   6.222  0.9660 -0.0012  1.1162
  971MOL0     H31040   5.926   5.030   6.306 -0.1632 -0.5792  0.1010
  971MOL0     H31041   5.745   5.142   6.132  0.7687 -1.8814  1.5535
  971MOL0     H31042   5.878   5.258   6.112  0.0471  1.4649  2.2807
  971MOL0     H31043   5.882   5.283   6.361 -0.6480  1.3933  1.0969
  971MOL0     H31044   5.743   5.170   6.378 -1.0739 -0.7723 -3.8588
  971MOL0     H31045   5.908   5.508   6.335  0.9530  1.9569  0.5532
  971MOL0     H31046   6.033   5.693   6.313 -6.3098 -1.3038  2.3688
  971MOL0     H31047   6.059   5.701   6.132 -1.8431  1.2488 -0.5480
  971MOL0     H31048   5.980   5.831   6.216 -0.8295  0.0196  2.5279
  971MOL0     H31049   5.983   6.100   6.124  5.1448 -0.7383 -1.3160
  971MOL0     H31050   6.008   6.334   6.013  0.7359 -0.7216 -0.6555
  971MOL0     H31051   6.117   6.510   5.846 -1.3122  1.2891  0.0139
  971MOL0     H31052   6.204   6.376   5.771  3.3726  3.6477  0.4579
  971MOL0     H31053   6.034   6.569   5.621  0.0417  2.4431  2.2297
  971MOL0     H31054   6.208   6.596   5.664  2.2243 -1.4381 -1.6297
  971MOL0     H31055   6.149   6.342   5.517  2.1408 -1.2095  2.6134
  971MOL0     H31056   6.302   6.422   5.551  0.0157 -0.3037 -0.8297
  971MOL0     H31057   6.087   6.529   5.362 -0.1423 -1.0620 -1.2577
  971MOL0     H31058   6.221   6.631   5.432  1.9129  0.1116 -1.5182
  971MOL0     H31059   6.245   6.371   5.269  1.8994 -1.3590 -0.3124
  971MOL0     H31060   6.383   6.459   5.340 -0.3295  0.6429 -1.5320
  971MOL0     H31061   6.192   6.576   5.138 -0.0176  0.3001 -0.3468
  971MOL0     H31062   6.338   6.647   5.197 -0.4149 -1.0511  2.4600
  971MOL0     H31063   6.360   6.365   5.074  2.7232 -0.5429  0.8351
  971MOL0     H31064   6.473   6.499   5.070  0.2905 -1.0347  0.4479
  971MOL0     H31065   6.341   6.609   4.896 -0.7257  2.0082  1.4577
  971MOL0     H31066   6.212   6.496   4.919  0.1955 -1.5513 -0.2802
  971MOL0     H31067   5.891   6.163   5.637 -0.7699  0.8757 -0.2803
  971MOL0     H31068   5.868   5.957   5.739  1.2249 -1.7281  1.7392
  971MOL0     H31069   5.573   5.657   6.001  0.4619 -0.8512  0.4164
  971MOL0     H31070   5.522   5.473   6.148 -1.6705  2.4777  1.4499
  971MOL0     H31071   6.512   4.232   6.160 -0.4588 -0.4139  0.1810
  971MOL0     H31072   6.639   4.039   6.154 -1.9439  3.8633  3.0380
  971MOL0     H31073   6.679   3.617   6.077  2.3555  0.7695  0.4507
  971MOL0     H31074   6.849   3.434   6.080  0.1732  0.2222 -0.2276
  971MOL0     H31075   6.923   3.183   5.916 -1.6843  3.6398  0.4428
  971MOL0     H31076   6.911   3.252   5.749  2.7711  3.3646 -2.6032
  971MOL0     H31077   7.074   3.054   5.782  0.7967 -0.6613  0.7975
  971MOL0     H31078   7.150   3.146   5.904  2.4533 -0.4777 -1.1560
  971MOL0     H31079   7.282   3.138   5.717  1.0907  2.3049  0.8894
  971MOL0     H31080   7.233   3.305   5.714  0.9925 -0.8051  0.8213
  971MOL0     H31081   7.084   3.091   5.547 -0.4785  0.4413 -0.7708
  971MOL0     H31082   7.221   3.179   5.471 -2.0437 -0.2769 -2.3804
  971MOL0     H31083   6.941   3.478   5.405 -1.5822 -0.5732 -1.0324
  971MOL0     H31084   6.939   3.522   5.667 -0.5810 -0.8554  0.2708
  971MOL0     H31085   6.761   3.708   5.672  2.6007  0.4078 -0.4823
  972MOL0     O31086   5.318   1.458   3.259  0.4573  0.0874  0.4747
  972MOL0     C31087   5.338   1.416   3.147 -0.2791 -0.0571  0.6074
  972MOL0     O31088   5.305   1.485   3.027 -0.7779 -0.9616 -0.5792
  972MOL0     C31089   5.284   1.623   3.053 -0.0506 -0.6545 -0.5351
  972MOL0     C31090   5.388   1.722   3.061 -0.7515 -0.1513  0.4132
  972MOL0     C31091   5.359   1.855   3.038 -0.0338 -0.7552 -0.2368
  972MOL0     C31092   5.231   1.915   3.025  0.2492  0.6016 -0.2428
  972MOL0     O31093   5.221   2.046   3.006  0.3844  0.7602 -0.1751
  972MOL0     C31094   5.089   2.095   2.997 -0.5855 -0.0721 -0.1097
  972MOL0     C31095   5.104   2.238   3.052  0.0481 -1.0450  0.5156
  972MOL0     C31096   5.198   2.320   2.962 -0.0484 -0.4555 -0.1541
  972MOL0     C31097   5.198   2.464   2.998 -0.0801 -0.5360 -0.9981
  972MOL0     C31098   5.241   2.491   3.137 -0.1277  0.6163 -0.1483
  972MOL0     C31099   5.222   2.635   3.181 -0.8070 -0.1093  0.5270
  972MOL0     C31100   5.286   2.739   3.073  0.3876 -0.4804 -0.5916
  972MOL0     C31101   5.434   2.722   3.057 -1.1497 -0.7690 -1.1751
  972MOL0     N31102   5.519   2.789   3.165 -0.1061 -0.5206 -0.2689
  972MOL0     C31103   5.560   2.737   3.281  0.5451  0.4614 -0.0680
  972MOL0     C31104   5.624   2.835   3.350  0.6460 -0.1906 -1.7094
  972MOL0     C31105   5.704   2.816   3.476  0.3603  0.3683 -0.4382
  972MOL0     C31106   5.688   2.924   3.589 -0.2911  0.6654 -0.9638
  972MOL0     C31107   5.539   2.915   3.643 -0.0020  0.5000  0.4988
  972MOL0     C31108   5.511   3.027   3.741 -0.7404 -0.1707 -0.7181
  972MOL0     O31109   5.373   3.063   3.771 -0.2162  0.1987  0.3279
  972MOL0     C31110   5.284   3.109   3.671  0.0744  0.1152 -0.3022
  972MOL0     C31111   5.325   3.156   3.545  0.5197 -0.1967  0.8368
  972MOL0     C31112   5.244   3.188   3.437 -0.9498 -0.5534 -0.1702
  972MOL0     C31113   5.288   3.247   3.312 -0.1688  1.2721 -0.4423
  972MOL0     C31114   5.101   3.174   3.458  0.1086  0.6531  0.1273
  972MOL0     C31115   4.993   3.207   3.363  0.2189  0.3319 -0.7968
  972MOL0     O31116   4.885   3.271   3.413 -0.0552 -0.0028  1.1240
  972MOL0     C31117   4.807   3.355   3.340  0.4008  0.3803  0.2331
  972MOL0     C31118   4.682   3.382   3.396  0.9266  0.3567  0.3843
  972MOL0     C31119   4.587   3.449   3.332 -1.1993  0.0055 -0.0166
  972MOL0     C31120   4.609   3.507   3.214  0.4165  0.6646  0.0596
  972MOL0     O31121   4.511   3.589   3.163 -0.2381  0.7965 -0.0422
  972MOL0     C31122   4.460   3.551   3.034  0.3385 -0.0676 -0.8416
  972MOL0     C31123   4.407   3.676   2.959 -1.0674 -0.8157 -0.0863
  972MOL0     C31124   4.382   3.652   2.815 -0.4967 -0.5276 -0.4665
  972MOL0     C31125   4.244   3.595   2.783 -0.5959  0.0776  0.6043
  972MOL0     C31126   4.231   3.577   2.633  0.4626 -0.7145 -1.0067
  972MOL0     C31127   4.298   3.447   2.595  0.1461  0.4417 -0.7395
  972MOL0     C31128   4.283   3.409   2.449 -0.0401 -0.0578 -0.3394
  972MOL0     C31129   4.335   3.270   2.435  0.3665 -0.1760  0.3299
  972MOL0    Cl31130   4.352   3.224   2.269  0.0878 -0.5399  0.2787
  972MOL0     C31131   4.732   3.482   3.154 -0.4942  0.6001 -0.6641
  972MOL0     C31132   4.837   3.412   3.216 -0.2077  0.8665  1.0574
  972MOL0     O31133   5.005   3.159   3.251  0.2970  0.0215  0.3778
  972MOL0     C31134   5.057   3.140   3.585  0.4613  0.0160  0.6944
  972MOL0     C31135   5.144   3.106   3.691  0.2444 -0.4959 -0.4204
  972MOL0     N31136   5.617   2.948   3.269 -0.9052  0.8750 -0.1748
  972MOL0     N31137   5.572   2.912   3.151 -0.1276  0.6449  0.1751
  972MOL0     C31138   5.138   1.809   3.009 -0.8055 -0.8866 -0.1486
  972MOL0     C31139   5.164   1.676   3.016  0.2932 -0.2884 -0.3539
  972MOL0     C31140   5.378   1.276   3.129 -0.2013 -0.6050 -0.5031
  972MOL0     C31141   5.379   1.216   3.005 -0.1745 -0.1425  1.2195
  972MOL0     C31142   5.435   1.090   2.983  0.7674 -0.4531 -0.0172
  972MOL0     C31143   5.492   1.023   3.086  0.1308  0.1124 -1.0036
  972MOL0     O31144   5.571   0.907   3.078 -0.7364  0.4222  0.2940
  972MOL0     C31145   5.491   0.792   3.037 -0.6262 -0.1768  0.0275
  972MOL0     C31146   5.468   0.694   3.160  0.5956 -0.3168 -0.0962
  972MOL0     C31147   5.352   0.740   3.249 -0.1745  0.7323 -0.1767
  972MOL0     C31148   5.349   0.679   3.388 -0.6706  0.0987 -0.2908
  972MOL0     C31149   5.233   0.734   3.467  0.1001  0.7097  0.0712
  972MOL0     C31150   5.142   0.784   3.536  0.4770  0.3161  0.3484
  972MOL0     C31151   5.484   1.076   3.212 -0.4642  0.4209  0.9550
  972MOL0     C31152   5.440   1.209   3.236 -0.1185 -0.0893 -0.3123
  972MOL0     H31153   5.492   1.692   3.066 -0.4358  0.5988 -1.0179
  972MOL0     H31154   5.449   1.915   3.044 -2.4888  3.2456 -0.1962
  972MOL0     H31155   5.047   2.080   2.897  0.5151 -0.1339 -0.5694
  972MOL0     H31156   5.029   2.035   3.066  0.1469  1.1009  1.6371
  972MOL0     H31157   5.006   2.285   3.041  0.1782 -1.0821 -0.9787
  972MOL0     H31158   5.141   2.249   3.155  0.9276 -3.0372  0.4508
  972MOL0     H31159   5.300   2.279   2.960  1.0139  2.0395 -1.0793
  972MOL0     H31160   5.168   2.312   2.857 -0.1460  1.8267 -0.3514
  972MOL0     H31161   5.257   2.526   2.929 -3.3993  1.5630 -2.2228
  972MOL0     H31162   5.097   2.506   2.990  0.2560  0.4565 -0.1807
  972MOL0     H31163   5.172   2.433   3.199  0.9861  0.9342  1.4345
  972MOL0     H31164   5.342   2.458   3.164 -1.7240 -1.2626  4.4238
  972MOL0     H31165   5.115   2.653   3.176 -0.7947 -0.0267  0.5726
  972MOL0     H31166   5.253   2.659   3.283 -1.7310  3.7592  0.0712
  972MOL0     H31167   5.244   2.745   2.972  0.2055 -2.1117 -0.6248
  972MOL0     H31168   5.272   2.836   3.122 -1.7728  0.0572 -2.1174
  972MOL0     H31169   5.459   2.773   2.964  0.6063  0.5390 -0.0484
  972MOL0     H31170   5.470   2.618   3.049 -1.4125 -1.0761  1.0009
  972MOL0     H31171   5.547   2.633   3.310 -1.6280  0.6948 -0.0984
  972MOL0     H31172   5.661   2.729   3.526 -0.7085  1.0661 -0.1079
  972MOL0     H31173   5.807   2.782   3.463  0.1705 -0.2164 -0.4318
  972MOL0     H31174   5.706   3.027   3.558 -2.9020  1.7175  0.6753
  972MOL0     H31175   5.752   2.897   3.674 -1.4862 -0.0330 -0.2697
  972MOL0     H31176   5.515   2.816   3.682  1.8483  0.0344  0.5417
  972MOL0     H31177   5.472   2.940   3.560 -1.0938  0.5153  1.3687
  972MOL0     H31178   5.561   3.118   3.703 -1.0837  0.5851  0.5873
  972MOL0     H31179   5.554   2.993   3.835 -0.4396 -0.6011 -1.0085
  972MOL0     H31180   5.431   3.163   3.522  0.1674  0.5425 -0.6910
  972MOL0     H31181   5.274   3.167   3.239 -2.1165  1.1407  0.0130
  972MOL0     H31182   5.230   3.334   3.283 -1.9750  1.8159  4.0047
  972MOL0     H31183   5.394   3.274   3.318 -0.1050  0.9033  0.2849
  972MOL0     H31184   4.649   3.329   3.485 -1.6805  0.6477 -0.3295
  972MOL0     H31185   4.492   3.467   3.380 -1.6577 -1.8969 -0.1512
  972MOL0     H31186   4.537   3.512   2.966 -0.3866 -0.4659 -1.4444
  972MOL0     H31187   4.382   3.475   3.037  1.3272 -1.1051 -0.8782
  972MOL0     H31188   4.332   3.735   3.013 -0.3855  0.1516 -0.1741
  972MOL0     H31189   4.493   3.740   2.973 -1.0440 -1.1933  1.7421
  972MOL0     H31190   4.467   3.597   2.773  0.2547  0.4135 -0.2366
  972MOL0     H31191   4.389   3.749   2.764  0.9564 -0.5267 -0.3245
  972MOL0     H31192   4.220   3.499   2.830  1.2758  0.3426  2.2287
  972MOL0     H31193   4.165   3.663   2.816  1.5280  2.4546  1.1204
  972MOL0     H31194   4.271   3.656   2.570  0.0624 -0.6135 -1.1369
  972MOL0     H31195   4.124   3.578   2.612 -0.3828 -0.0323  2.6534
  972MOL0     H31196   4.406   3.454   2.607  0.2032  1.4333 -1.7254
  972MOL0     H31197   4.260   3.355   2.642 -0.8756 -0.8421 -3.7879
  972MOL0     H31198   4.345   3.478   2.392  0.0617  0.6116  0.5669
  972MOL0     H31199   4.181   3.421   2.411  0.6582  1.2059 -1.8934
  972MOL0     H31200   4.258   3.204   2.475 -0.3633  0.1526 -0.5152
  972MOL0     H31201   4.437   3.259   2.474  1.5013  0.0957 -2.3152
  972MOL0     H31202   4.743   3.507   3.048 -0.6129 -0.1032 -0.8491
  972MOL0     H31203   4.929   3.399   3.160 -1.6769 -0.4313 -1.2448
  972MOL0     H31204   4.951   3.136   3.606 -0.6420 -0.5498 -3.8475
  972MOL0     H31205   5.100   3.071   3.784  1.5758 -0.1981  0.3466
  972MOL0     H31206   5.040   1.841   2.977 -0.5731 -0.4967 -0.4738
  972MOL0     H31207   5.080   1.608   3.008 -1.3563  1.5133  0.7636
  972MOL0     H31208   5.331   1.265   2.921 -0.4545 -1.2136  0.7395
  972MOL0     H31209   5.430   1.051   2.882  1.6129  0.6576 -0.5061
  972MOL0     H31210   5.390   0.817   3.001 -1.4429 -2.9032  0.1733
  972MOL0     H31211   5.538   0.753   2.947 -1.1525  0.8175 -0.7068
  972MOL0     H31212   5.561   0.691   3.218 -0.0376  1.4666  1.1092
  972MOL0     H31213   5.440   0.598   3.117  2.0853 -1.2921  1.0006
  972MOL0     H31214   5.254   0.725   3.202  0.1580  2.2111 -1.4292
  972MOL0     H31215   5.363   0.847   3.271  0.3980  0.9946 -1.6273
  972MOL0     H31216   5.444   0.708   3.434  0.5216 -0.7590 -2.0545
  972MOL0     H31217   5.345   0.570   3.386 -1.1053  0.1222 -1.1718
  972MOL0     H31218   5.062   0.826   3.594 -1.9010 -1.4032 -1.4729
  972MOL0     H31219   5.503   1.010   3.296 -1.9641 -0.1599  0.8703
  972MOL0     H31220   5.443   1.251   3.335 -1.2401 -0.3484 -0.1592
  973MOL0     O31221   1.513   7.147   1.602  0.1719 -0.2137  0.1674
  973MOL0     C31222   1.544   7.128   1.724 -0.9491 -0.0905  0.0566
  973MOL0     O31223   1.672   7.121   1.764 -0.9094  0.6496 -0.6511
  973MOL0     C31224   1.778   7.154   1.684 -0.1241 -0.4563  0.6997
  973MOL0     C31225   1.886   7.221   1.748  0.0875 -0.0324  0.7875
  973MOL0     C31226   1.996   7.272   1.679  0.6836 -1.3109 -1.3651
  973MOL0     C31227   2.008   7.248   1.547  0.5273 -0.6161 -0.4814
  973MOL0     O31228   2.110   7.310   1.477 -0.8316  0.4755  0.6744
  973MOL0     C31229   2.073   7.449   1.445  0.0566  0.8967  0.2558
  973MOL0     C31230   2.164   7.551   1.518 -0.7662  0.5671 -0.8388
  973MOL0     C31231   2.094   7.674   1.578  0.2057  0.8308  0.1427
  973MOL0     C31232   2.078   7.644   1.729  1.2507 -0.8110 -0.3021
  973MOL0     C31233   2.029   7.778   1.796  0.8539  0.7930  0.4207
  973MOL0     C31234   2.004   7.752   1.944  0.1937  0.0002 -0.1625
  973MOL0     C31235   1.981   7.887   2.018 -0.8225  0.0888 -0.1776
  973MOL0     C31236   1.933   7.861   2.159 -0.3643 -0.2126 -0.1602
  973MOL0     N31237   1.947   7.987   2.235 -0.8190  0.0822 -0.6150
  973MOL0     C31238   2.073   8.024   2.299  0.6814  0.0981 -1.2670
  973MOL0     C31239   2.059   8.157   2.313 -0.6984  0.4841  0.1997
  973MOL0     C31240   2.175   8.253   2.334 -1.2479  1.1596 -1.4313
  973MOL0     C31241   2.238   8.304   2.205  0.1774 -0.3129  0.2287
  973MOL0     C31242   2.323   8.421   2.256  0.6659  0.8067 -0.0783
  973MOL0     C31243   2.378   8.530   2.158 -0.2310 -0.3158  0.3543
  973MOL0     O31244   2.426   8.639   2.231  0.6425  0.3288 -0.3238
  973MOL0     C31245   2.366   8.762   2.225  0.0848 -0.2177  0.6146
  973MOL0     C31246   2.367   8.844   2.338 -0.9510  1.0442  0.7024
  973MOL0     C31247   2.327   8.977   2.338  0.0792 -0.5139  0.2793
  973MOL0     C31248   2.356   9.048   2.461  0.5811  0.7717 -0.0549
  973MOL0     C31249   2.274   9.033   2.214  0.1470 -0.0652 -0.1684
  973MOL0     C31250   2.240   9.184   2.196  0.3298  0.2398  0.0528
  973MOL0     O31251   2.287   9.270   2.293 -0.2515  0.1408 -0.5749
  973MOL0     C31252   2.251   9.399   2.311 -0.0580  0.0623 -0.3838
  973MOL0     C31253   2.178   9.452   2.416  0.4190 -0.3012  0.3322
  973MOL0     C31254   2.151   9.589   2.431 -0.1097  0.2349 -0.8214
  973MOL0     C31255   2.213   9.671   2.340 -0.2030  0.5980  0.0362
  973MOL0     O31256   2.196   9.806   2.338 -0.2970 -0.2692 -0.2487
  973MOL0     C31257   2.154   9.874   2.456 -0.0971  0.4498 -0.0135
  973MOL0     C31258   2.200  10.022   2.472 -0.0497  0.0232  0.0933
  973MOL0     C31259   2.347  10.042   2.470 -0.2742 -0.1156  0.2002
  973MOL0     C31260   2.383  10.182   2.521 -0.3104 -0.0747  0.1374
  973MOL0     C31261   2.539  10.187   2.545  0.4406  0.1570  0.0976
  973MOL0     C31262   2.575  10.322   2.589 -0.2343  0.8176 -0.1884
  973MOL0     C31263   2.597  10.328   2.740  0.8590 -0.2372 -0.3958
  973MOL0     C31264   2.474  10.324   2.828 -0.3664 -0.0811  0.2858
  973MOL0    Cl31265   2.466  10.420   2.988 -0.0063  0.2771  0.5104
  973MOL0     C31266   2.291   9.622   2.240  0.4241 -0.1557  0.7453
  973MOL0     C31267   2.303   9.489   2.219 -0.4688 -0.1891 -0.0358
  973MOL0     O31268   2.173   9.217   2.096 -0.2227  0.6914  0.5752
  973MOL0     C31269   2.253   8.951   2.108 -0.1043 -0.8016 -0.0075
  973MOL0     C31270   2.303   8.820   2.111  0.6423  0.3128  0.5693
  973MOL0     N31271   1.931   8.199   2.270  0.2291  0.7398  0.2157
  973MOL0     N31272   1.872   8.095   2.226 -0.0900 -1.1627 -0.0881
  973MOL0     C31273   1.907   7.191   1.476 -0.4911  0.4387 -0.1688
  973MOL0     C31274   1.796   7.140   1.549 -0.0743  0.2984  0.7967
  973MOL0     C31275   1.432   7.111   1.812  0.2345  0.0524 -1.0091
  973MOL0     C31276   1.446   7.117   1.949  0.3021 -0.6192  0.6356
  973MOL0     C31277   1.331   7.108   2.022 -0.1991  0.5934 -1.3660
  973MOL0     C31278   1.209   7.068   1.959 -0.5732 -0.1862  0.2294
  973MOL0     O31279   1.094   7.066   2.025 -0.1190  0.4649 -0.4617
  973MOL0     C31280   1.080   6.986   2.146 -0.6945 -0.1730 -0.3299
  973MOL0     C31281   1.083   6.840   2.118 -0.6271  0.5114 -0.5846
  973MOL0     C31282   1.103   6.763   2.253  0.0566 -0.1573  0.3566
  973MOL0     C31283   1.226   6.668   2.254  0.5263 -0.0095  0.9160
  973MOL0     C31284   1.346   6.750   2.267  0.3811 -0.2222  0.4830
  973MOL0     C31285   1.444   6.819   2.275 -0.0607 -0.3445  0.7614
  973MOL0     C31286   1.199   7.064   1.825 -0.6568 -0.3676  0.6095
  973MOL0     C31287   1.305   7.086   1.744  0.1058  0.1256  0.0560
  973MOL0     H31288   1.869   7.237   1.854 -3.2814 -0.1691  0.3874
  973MOL0     H31289   2.075   7.323   1.734  0.1157 -0.3229 -1.4413
  973MOL0     H31290   2.074   7.455   1.335  0.4315 -1.4422  0.0721
  973MOL0     H31291   1.969   7.462   1.477  0.0091 -1.4839  1.2642
  973MOL0     H31292   2.225   7.500   1.593 -0.9715  0.7270 -0.5616
  973MOL0     H31293   2.224   7.580   1.432 -2.0726  0.8703 -1.6805
  973MOL0     H31294   2.162   7.759   1.564  0.4825  0.5488 -0.2440
  973MOL0     H31295   1.999   7.697   1.529 -0.9337 -2.2384  0.7486
  973MOL0     H31296   2.006   7.562   1.735 -0.9531  0.6831 -3.5094
  973MOL0     H31297   2.174   7.617   1.774  2.1481  3.4669  0.8062
  973MOL0     H31298   2.111   7.848   1.778  3.2601 -2.6221 -4.0533
  973MOL0     H31299   1.936   7.814   1.751  0.9106  0.6112  0.1575
  973MOL0     H31300   1.920   7.683   1.952  2.2980 -3.3559 -3.3651
  973MOL0     H31301   2.091   7.700   1.985  0.8691  2.2368  1.4213
  973MOL0     H31302   2.077   7.938   2.035 -1.1188  0.2168  1.2807
  973MOL0     H31303   1.914   7.962   1.974  0.0908  1.6767  0.9896
  973MOL0     H31304   1.986   7.779   2.207  0.5469  1.8655  2.6364
  973MOL0     H31305   1.826   7.838   2.161 -0.0145 -2.0444 -0.6583
  973MOL0     H31306   2.161   7.963   2.315  1.2464  0.8679 -1.3961
  973MOL0     H31307   2.135   8.331   2.399 -0.4652  0.3902  0.0208
  973MOL0     H31308   2.246   8.196   2.395 -2.9924  0.9208  0.4577
  973MOL0     H31309   2.155   8.349   2.150 -1.0577  1.7089  3.4595
  973MOL0     H31310   2.301   8.240   2.142  1.7908  3.7402 -2.7063
  973MOL0     H31311   2.412   8.385   2.309 -0.0030  2.3511  2.2852
  973MOL0     H31312   2.264   8.482   2.326  1.0805  2.8484 -1.4255
  973MOL0     H31313   2.295   8.559   2.093  0.0327 -1.2952 -0.4436
  973MOL0     H31314   2.456   8.481   2.098  1.5251 -0.2946  2.4804
  973MOL0     H31315   2.408   8.796   2.426  1.1838 -0.6690 -1.0966
  973MOL0     H31316   2.427   9.127   2.438 -1.2980  2.2713 -0.9980
  973MOL0     H31317   2.263   9.088   2.504  0.7706 -0.9377  2.1785
  973MOL0     H31318   2.408   8.991   2.539  1.8153  3.5797  1.3245
  973MOL0     H31319   2.131   9.377   2.478  2.6881 -1.8932  0.2656
  973MOL0     H31320   2.077   9.606   2.509 -0.5463 -2.8434 -0.4262
  973MOL0     H31321   2.045   9.879   2.462 -0.2834 -0.3165 -1.8716
  973MOL0     H31322   2.193   9.825   2.546  1.2606 -0.0694 -0.8478
  973MOL0     H31323   2.151  10.082   2.395  2.8850  1.2436 -0.9864
  973MOL0     H31324   2.162  10.060   2.567  0.4333  0.2138  0.2129
  973MOL0     H31325   2.380  10.046   2.366  1.0155 -0.8650  0.5529
  973MOL0     H31326   2.403   9.961   2.519 -1.6669 -1.8234 -0.8862
  973MOL0     H31327   2.364  10.253   2.440 -1.0221  1.4811  1.6015
  973MOL0     H31328   2.322  10.212   2.607 -1.6932  2.5457 -1.6042
  973MOL0     H31329   2.579  10.162   2.446 -1.7682  1.0617 -1.0764
  973MOL0     H31330   2.558  10.098   2.607  0.0920 -1.7719 -2.4004
  973MOL0     H31331   2.670  10.356   2.547 -0.0938  0.3103 -0.2768
  973MOL0     H31332   2.506  10.397   2.549  1.0837  1.6006 -1.0747
  973MOL0     H31333   2.647  10.423   2.758 -3.0776  1.7511  1.3782
  973MOL0     H31334   2.672  10.254   2.770  0.7251 -1.0722 -2.0341
  973MOL0     H31335   2.455  10.222   2.862 -0.2690  0.7984  3.3021
  973MOL0     H31336   2.389  10.355   2.767 -0.0134  0.4986  0.0781
  973MOL0     H31337   2.341   9.680   2.164  2.6723 -3.7912 -0.8033
  973MOL0     H31338   2.355   9.446   2.134 -1.6649  0.5521 -1.1881
  973MOL0     H31339   2.200   8.984   2.019  0.0092  0.6640  0.4414
  973MOL0     H31340   2.284   8.752   2.029  1.1655  1.7908 -0.8248
  973MOL0     H31341   1.906   7.181   1.368  1.2751  0.3215 -0.2120
  973MOL0     H31342   1.722   7.083   1.493 -1.0141  2.0122  0.2476
  973MOL0     H31343   1.540   7.138   1.998 -0.6117  0.7197  1.8728
  973MOL0     H31344   1.336   7.103   2.131 -0.6865  0.6783 -1.3350
  973MOL0     H31345   1.162   7.020   2.210 -2.1729 -2.4666  3.1201
  973MOL0     H31346   0.983   7.018   2.186 -1.6886 -3.0316 -0.2129
  973MOL0     H31347   1.175   6.820   2.062  1.1181  3.4551  0.9460
  973MOL0     H31348   0.990   6.808   2.072 -2.1196  1.5202  1.5342
  973MOL0     H31349   1.017   6.696   2.260  0.4982 -0.6824  0.9305
  973MOL0     H31350   1.116   6.815   2.349  0.1849  0.4007  0.0408
  973MOL0     H31351   1.237   6.622   2.156  1.8729  4.7208 -1.4469
  973MOL0     H31352   1.222   6.590   2.331  0.8664 -0.2074  0.7334
  973MOL0     H31353   1.531   6.879   2.297  0.2196  0.2924 -1.8120
  973MOL0     H31354   1.101   7.058   1.778  0.7927 -1.3080 -2.5910
  973MOL0     H31355   1.296   7.081   1.636  3.4819 -3.1400 -0.2656
  974MOL0     O31356   4.300   1.833   9.061  0.4855  0.5874 -0.2393
  974MOL0     C31357   4.256   1.719   9.060 -0.0301  0.7576  0.0545
  974MOL0     O31358   4.316   1.612   9.119  0.0480  0.0945 -0.4016
  974MOL0     C31359   4.425   1.632   9.193 -0.2685  0.3833  0.9981
  974MOL0     C31360   4.541   1.565   9.153  0.5093 -0.5757 -0.2139
  974MOL0     C31361   4.653   1.588   9.228 -0.4384 -0.7843 -0.2166
  974MOL0     C31362   4.657   1.660   9.347  0.6497  0.0569  0.3250
  974MOL0     O31363   4.776   1.658   9.415 -0.5615  0.0257 -1.1199
  974MOL0     C31364   4.760   1.631   9.555 -0.1887 -0.3815  0.3916
  974MOL0     C31365   4.820   1.739   9.649 -0.3485 -0.4836 -0.3013
  974MOL0     C31366   4.825   1.697   9.797  0.1786 -0.1388  0.3523
  974MOL0     C31367   4.921   1.793   9.872 -0.3298 -0.2727  1.2528
  974MOL0     C31368   4.964   1.761  10.009 -0.3962  0.0201 -0.0208
  974MOL0     C31369   5.060   1.861  10.081  0.7689  0.2211  0.1262
  974MOL0     C31370   5.111   1.825  10.222  0.4978 -0.1333  0.1197
  974MOL0     C31371   5.157   1.682  10.238  0.5388  0.3993  0.3452
  974MOL0     N31372   5.220   1.643  10.361 -0.4838  0.0968 -0.0202
  974MOL0     C31373   5.171   1.551  10.451 -0.4126 -0.5048  1.1727
  974MOL0     C31374   5.284   1.505  10.518  0.5550 -0.9915  0.9595
  974MOL0     C31375   5.296   1.410  10.631 -0.0851  0.3634 -0.6257
  974MOL0     C31376   5.246   1.467  10.762  0.9081 -0.2304  0.7019
  974MOL0     C31377   5.258   1.360  10.873 -0.3462  0.5628 -1.8237
  974MOL0     C31378   5.147   1.381  10.976  0.5892  0.7700  0.2522
  974MOL0     O31379   5.018   1.344  10.919  0.9532  1.1853 -0.5420
  974MOL0     C31380   4.911   1.422  10.969  0.4404 -0.5261  0.3576
  974MOL0     C31381   4.854   1.504  10.874  0.1257  0.3111 -0.6672
  974MOL0     C31382   4.755   1.591  10.904 -0.4746  0.0968  0.0513
  974MOL0     C31383   4.705   1.685  10.795  0.3025 -0.5449  0.8710
  974MOL0     C31384   4.701   1.596  11.040 -0.1009  0.2169  0.0591
  974MOL0     C31385   4.608   1.696  11.102  0.7351 -0.9364  0.5989
  974MOL0     O31386   4.600   1.814  11.026  0.3349  0.7546 -0.2803
  974MOL0     C31387   4.520   1.916  11.081 -1.3391  0.1370  0.5067
  974MOL0     C31388   4.384   1.913  11.104  1.2685 -0.2798  0.3161
  974MOL0     C31389   4.321   2.025  11.161  0.0152 -0.4556 -0.1630
  974MOL0     C31390   4.385   2.133  11.205  0.7577 -0.8797  0.9051
  974MOL0     O31391   4.312   2.234  11.259 -0.5589 -0.0260 -0.3080
  974MOL0     C31392   4.378   2.336  11.328 -0.3711  1.4727  0.1231
  974MOL0     C31393   4.266   2.425  11.378 -0.1051 -1.3748  0.5684
  974MOL0     C31394   4.133   2.357  11.396 -0.3012 -0.0340 -0.0981
  974MOL0     C31395   4.044   2.455  11.475  0.6349 -0.3575 -0.0226
  974MOL0     C31396   3.896   2.401  11.469  0.7653 -0.5502 -0.2255
  974MOL0     C31397   3.813   2.509  11.549 -0.2144 -0.5765  0.0669
  974MOL0     C31398   3.857   2.546  11.694  0.2919  0.3725 -0.0900
  974MOL0     C31399   3.750   2.593  11.792 -1.1963 -0.3010  0.4149
  974MOL0    Cl31400   3.694   2.748  11.736  0.2831 -0.2196 -0.0580
  974MOL0     C31401   4.532   2.129  11.190 -0.7031 -1.3279 -0.1771
  974MOL0     C31402   4.590   2.029  11.131  0.2658  0.5607 -0.1333
  974MOL0     O31403   4.581   1.684  11.218 -0.8883 -0.0626  0.7025
  974MOL0     C31404   4.753   1.490  11.123  1.2746  0.2516  1.2870
  974MOL0     C31405   4.855   1.409  11.093 -0.1744  0.3121 -0.0003
  974MOL0     N31406   5.393   1.558  10.459 -0.2467  0.7140  0.0260
  974MOL0     N31407   5.362   1.640  10.371  0.7110  0.1916 -0.3680
  974MOL0     C31408   4.541   1.738   9.379 -0.2522 -0.7296 -0.9666
  974MOL0     C31409   4.427   1.719   9.303 -0.4887 -0.7021 -0.0238
  974MOL0     C31410   4.133   1.701   8.983  0.1463 -0.7461 -0.1730
  974MOL0     C31411   4.085   1.804   8.901 -0.0868 -0.1376  0.6582
  974MOL0     C31412   3.956   1.791   8.839  0.1762 -0.1866  1.3135
  974MOL0     C31413   3.888   1.665   8.841 -0.3668  0.6549  0.7148
  974MOL0     O31414   3.764   1.635   8.785 -0.0514 -0.4330 -0.1640
  974MOL0     C31415   3.689   1.734   8.715 -0.6735  0.3814  0.3437
  974MOL0     C31416   3.550   1.744   8.772  0.1581 -0.3403 -0.2277
  974MOL0     C31417   3.467   1.626   8.752  0.4337 -0.2032  0.8147
  974MOL0     C31418   3.321   1.647   8.802  0.1797 -0.1207  0.4745
  974MOL0     C31419   3.241   1.526   8.779 -0.4885  0.3999 -0.0144
  974MOL0     C31420   3.177   1.423   8.765  0.1436  0.8507 -0.3648
  974MOL0     C31421   3.943   1.561   8.914  0.8626  0.1862  0.1357
  974MOL0     C31422   4.069   1.578   8.979  0.1821  0.1491 -0.1857
  974MOL0     H31423   4.534   1.490   9.074 -0.9220 -1.6360  0.8578
  974MOL0     H31424   4.737   1.536   9.185 -2.2685 -2.7356 -1.6607
  974MOL0     H31425   4.653   1.623   9.578 -0.5263 -0.6105 -1.1688
  974MOL0     H31426   4.802   1.534   9.583  0.8996 -0.7493 -2.1875
  974MOL0     H31427   4.922   1.758   9.613 -0.3252  3.8356  1.4859
  974MOL0     H31428   4.756   1.828   9.653 -1.0204 -0.9568 -0.3579
  974MOL0     H31429   4.723   1.702   9.838  0.2133 -0.7346  0.5174
  974MOL0     H31430   4.854   1.592   9.807 -2.1802 -0.6817  3.0106
  974MOL0     H31431   5.003   1.813   9.803 -0.1741 -0.6018  1.3407
  974MOL0     H31432   4.876   1.892   9.886 -2.1319 -0.3628 -2.7565
  974MOL0     H31433   4.881   1.744  10.078  1.3725 -2.4655  1.6564
  974MOL0     H31434   5.016   1.664  10.010 -0.6587 -0.1201  0.0287
  974MOL0     H31435   5.154   1.875  10.027  1.1518  0.2726  0.7908
  974MOL0     H31436   4.991   1.946  10.079 -2.6911 -2.3747 -0.1329
  974MOL0     H31437   5.190   1.899  10.233  0.7199 -0.1979 -0.8887
  974MOL0     H31438   5.030   1.835  10.296 -0.7098  0.3199 -1.2057
  974MOL0     H31439   5.223   1.670  10.151  0.6190 -1.0942  0.5731
  974MOL0     H31440   5.066   1.621  10.236  0.4573  0.4787  1.4558
  974MOL0     H31441   5.066   1.528  10.469 -0.9989  2.8033  2.7743
  974MOL0     H31442   5.239   1.320  10.608  1.6430 -0.9498  0.0312
  974MOL0     H31443   5.399   1.396  10.664  0.1088  0.7508 -1.0436
  974MOL0     H31444   5.142   1.492  10.743  0.7614 -1.3724 -0.1000
  974MOL0     H31445   5.282   1.563  10.799 -1.2449  0.2129  1.8023
  974MOL0     H31446   5.357   1.381  10.913  0.1040 -1.0644 -2.0137
  974MOL0     H31447   5.241   1.255  10.849  0.6367 -0.1793  0.4621
  974MOL0     H31448   5.154   1.480  11.024  0.5768 -0.2746  2.5146
  974MOL0     H31449   5.162   1.306  11.054 -4.5104  1.1620  1.9502
  974MOL0     H31450   4.891   1.503  10.772 -0.2824 -2.5526 -0.8683
  974MOL0     H31451   4.599   1.710  10.807  0.5443  0.6545  0.6189
  974MOL0     H31452   4.763   1.777  10.804 -0.5168  0.1445 -0.6101
  974MOL0     H31453   4.714   1.637  10.697  0.4707 -3.6758  2.2866
  974MOL0     H31454   4.317   1.837  11.065 -2.4316  3.3527 -1.1570
  974MOL0     H31455   4.212   2.033  11.163  0.0539  2.0941  3.8908
  974MOL0     H31456   4.443   2.295  11.406  3.6923  4.8684 -1.1070
  974MOL0     H31457   4.444   2.397  11.265 -1.6494  3.1427  0.3509
  974MOL0     H31458   4.296   2.485  11.464  0.6214 -1.0484  0.1024
  974MOL0     H31459   4.257   2.499  11.298  0.9664  2.5027  3.7506
  974MOL0     H31460   4.143   2.266  11.456  2.7042  0.2599  0.0077
  974MOL0     H31461   4.078   2.336  11.305  0.2518 -1.1010 -0.2034
  974MOL0     H31462   4.065   2.462  11.582 -0.0328 -0.6907  0.1357
  974MOL0     H31463   4.037   2.555  11.431 -0.9958 -1.2198 -1.9031
  974MOL0     H31464   3.879   2.296  11.497 -1.9983 -0.5530 -1.6280
  974MOL0     H31465   3.878   2.403  11.362 -0.0752  0.4487 -0.0725
  974MOL0     H31466   3.800   2.596  11.484 -0.2388 -0.1718  0.6019
  974MOL0     H31467   3.705   2.494  11.550 -0.8370  2.9760 -0.4472
  974MOL0     H31468   3.932   2.624  11.682  1.1784 -0.3966  0.3601
  974MOL0     H31469   3.915   2.461  11.733  1.8937  0.1291 -2.7443
  974MOL0     H31470   3.781   2.591  11.897 -0.7839  1.7901  0.3777
  974MOL0     H31471   3.662   2.529  11.779 -0.0016 -1.5322 -2.3917
  974MOL0     H31472   4.601   2.204  11.229 -0.2090 -2.9318  2.2831
  974MOL0     H31473   4.697   2.042  11.116  0.2793  1.1882  0.4887
  974MOL0     H31474   4.707   1.472  11.219  0.9144 -1.6989  0.7972
  974MOL0     H31475   4.889   1.337  11.167 -1.1202  1.6764  1.8537
  974MOL0     H31476   4.554   1.812   9.457 -0.7281 -0.8008 -0.8155
  974MOL0     H31477   4.340   1.780   9.329  1.5432  1.6758  1.6658
  974MOL0     H31478   4.133   1.901   8.894  0.8273 -0.4553  2.1773
  974MOL0     H31479   3.922   1.884   8.796  1.4458  0.5813  1.8942
  974MOL0     H31480   3.728   1.836   8.720 -0.0494  0.1913 -0.4791
  974MOL0     H31481   3.688   1.708   8.609  0.7144 -0.0919  0.4317
  974MOL0     H31482   3.492   1.824   8.725 -1.5259 -1.1060  0.4309
  974MOL0     H31483   3.550   1.773   8.877 -5.9341 -0.8158  0.2800
  974MOL0     H31484   3.511   1.541   8.805  1.4313 -0.6920 -0.7440
  974MOL0     H31485   3.465   1.609   8.644 -0.0044  0.6725  0.6743
  974MOL0     H31486   3.289   1.716   8.723 -1.7493 -1.6171 -0.1232
  974MOL0     H31487   3.297   1.693   8.898 -2.7953  3.5141 -1.7165
  974MOL0     H31488   3.137   1.327   8.794  2.1087 -0.0880 -0.5485
  974MOL0     H31489   3.891   1.467   8.927 -0.3979  0.8833  0.3178
  974MOL0     H31490   4.111   1.491   9.029 -0.1653  0.3842  0.5307
  975MOL0     O31491   2.128   3.185   4.161  0.6307 -0.6365 -0.0184
  975MOL0     C31492   2.228   3.256   4.164 -0.1797 -0.8489  0.6589
  975MOL0     O31493   2.317   3.272   4.055 -0.3712  0.1493 -0.7587
  975MOL0     C31494   2.286   3.240   3.930  0.1305 -0.3438  0.3885
  975MOL0     C31495   2.296   3.111   3.894 -0.0266  0.2870  0.0430
  975MOL0     C31496   2.262   3.063   3.769  1.1473 -0.6227 -0.6784
  975MOL0     C31497   2.227   3.153   3.674  0.3529  0.0303  0.7539
  975MOL0     O31498   2.192   3.114   3.544 -0.1250  0.3721  1.1382
  975MOL0     C31499   2.156   3.200   3.432 -0.2738 -0.7545  1.0851
  975MOL0     C31500   2.268   3.274   3.354 -0.4239  0.4361  0.5219
  975MOL0     C31501   2.199   3.382   3.264 -1.1972  0.8260  0.4544
  975MOL0     C31502   2.309   3.454   3.185  0.2732 -0.2877 -0.0540
  975MOL0     C31503   2.253   3.585   3.114  0.8436  1.3871 -0.1095
  975MOL0     C31504   2.188   3.550   2.972  0.1962 -0.2101 -0.4625
  975MOL0     C31505   2.082   3.650   2.934  0.3177 -0.2793 -0.1267
  975MOL0     C31506   2.025   3.597   2.795  0.0548 -0.7771 -0.5015
  975MOL0     N31507   1.934   3.708   2.752 -0.7803 -0.5194  0.5042
  975MOL0     C31508   1.963   3.839   2.734  0.7191  0.0408  0.4205
  975MOL0     C31509   1.866   3.903   2.669 -0.0502  0.4127 -0.5461
  975MOL0     C31510   1.864   4.041   2.609 -0.6865 -0.2367 -0.6646
  975MOL0     C31511   1.873   4.025   2.449 -0.0565  0.3766  0.3830
  975MOL0     C31512   1.744   3.983   2.376  0.4324  0.8234  0.8430
  975MOL0     C31513   1.780   3.940   2.229 -0.6315  0.5776 -0.1892
  975MOL0     O31514   1.858   4.040   2.168  0.7503  0.2943  0.4251
  975MOL0     C31515   1.797   4.157   2.124 -0.2459 -0.1956 -0.1937
  975MOL0     C31516   1.667   4.186   2.118  0.7202  0.9853 -0.1054
  975MOL0     C31517   1.617   4.304   2.062  0.9201  0.3567  0.7819
  975MOL0     C31518   1.464   4.324   2.078 -0.4550  0.5375  0.3672
  975MOL0     C31519   1.700   4.405   2.006 -0.5656 -0.2090  0.1624
  975MOL0     C31520   1.659   4.528   1.930 -0.3021 -0.8206 -0.8051
  975MOL0     O31521   1.764   4.609   1.883  0.1716  0.0930 -0.2651
  975MOL0     C31522   1.755   4.749   1.889 -0.4200  0.3903  0.6443
  975MOL0     C31523   1.770   4.817   1.768  0.4536 -0.2896 -1.2405
  975MOL0     C31524   1.779   4.964   1.777  0.0848  0.1689  0.5217
  975MOL0     C31525   1.785   5.034   1.894 -0.5027 -0.4803 -1.4481
  975MOL0     O31526   1.769   5.171   1.908 -0.1932 -0.0088  0.4031
  975MOL0     C31527   1.748   5.256   1.799 -0.5387 -0.0433  0.3721
  975MOL0     C31528   1.610   5.254   1.747 -0.0043 -1.0644 -0.0192
  975MOL0     C31529   1.513   5.306   1.850 -0.1372 -0.5769 -0.9973
  975MOL0     C31530   1.383   5.216   1.836 -0.0623 -0.2686 -0.0174
  975MOL0     C31531   1.323   5.237   1.696 -0.0478 -1.1957  0.5977
  975MOL0     C31532   1.177   5.207   1.683  0.0538  0.7806 -0.1464
  975MOL0     C31533   1.153   5.061   1.648 -0.8750 -0.1601 -0.8788
  975MOL0     C31534   1.007   5.023   1.665  0.6083  0.1894  0.0701
  975MOL0    Cl31535   0.904   5.096   1.538 -0.4959 -0.1506 -0.4413
  975MOL0     C31536   1.771   4.961   2.014 -0.2860  0.2783  1.1605
  975MOL0     C31537   1.763   4.819   2.012 -0.1836 -1.0357  0.0716
  975MOL0     O31538   1.547   4.570   1.931  0.2128 -0.6353  0.5241
  975MOL0     C31539   1.838   4.383   2.011  0.0036  0.9854 -1.4933
  975MOL0     C31540   1.879   4.258   2.069 -0.3271 -0.4825  0.0654
  975MOL0     N31541   1.765   3.809   2.676  0.1933  0.2583 -0.3677
  975MOL0     N31542   1.802   3.693   2.724 -0.2434  0.2777  0.3151
  975MOL0     C31543   2.224   3.289   3.707  0.3374 -0.8159  0.4479
  975MOL0     C31544   2.259   3.337   3.832 -0.4052 -0.5826 -0.3640
  975MOL0     C31545   2.269   3.308   4.299  0.8520  0.2679  0.1291
  975MOL0     C31546   2.172   3.355   4.390  0.1155  0.6557 -0.3015
  975MOL0     C31547   2.214   3.390   4.512 -0.2320  0.1094 -0.5281
  975MOL0     C31548   2.349   3.388   4.550 -0.3779  0.7591 -0.3304
  975MOL0     O31549   2.394   3.421   4.680 -0.4111  0.5673 -0.2185
  975MOL0     C31550   2.310   3.513   4.764 -0.1509 -0.7421  0.1064
  975MOL0     C31551   2.293   3.446   4.898  0.2972  0.1474 -0.4679
  975MOL0     C31552   2.200   3.326   4.898  0.6258 -0.1463  0.0116
  975MOL0     C31553   2.051   3.374   4.890 -0.6467 -0.2250  0.2410
  975MOL0     C31554   2.000   3.388   5.021  0.3618 -0.3123 -1.0670
  975MOL0     C31555   1.955   3.415   5.130 -0.1808  0.3071 -0.0241
  975MOL0     C31556   2.441   3.336   4.463 -0.6181  0.6004 -0.8985
  975MOL0     C31557   2.406   3.294   4.342  0.0564  1.7079  0.2034
  975MOL0     H31558   2.338   3.054   3.977  3.0717  3.8252  1.1616
  975MOL0     H31559   2.282   2.958   3.749 -0.8214 -1.0700 -0.5524
  975MOL0     H31560   2.109   3.138   3.356  0.5538 -1.3925  1.0800
  975MOL0     H31561   2.084   3.274   3.469  0.4520  0.6218 -0.1112
  975MOL0     H31562   2.347   3.306   3.422 -1.5921  2.0657  1.1672
  975MOL0     H31563   2.312   3.199   3.287 -4.2002 -2.2771  0.7472
  975MOL0     H31564   2.139   3.324   3.193 -0.1480 -1.2640  1.2014
  975MOL0     H31565   2.141   3.451   3.327 -1.5666 -2.3750  3.9717
  975MOL0     H31566   2.388   3.501   3.244  0.0103  0.3854 -0.2300
  975MOL0     H31567   2.353   3.391   3.107  1.4766 -0.6400  0.8873
  975MOL0     H31568   2.184   3.640   3.178 -1.8725 -1.4280 -0.3428
  975MOL0     H31569   2.338   3.652   3.098  0.3311  2.2526  0.6914
  975MOL0     H31570   2.267   3.560   2.896 -0.4993  2.0446 -0.9501
  975MOL0     H31571   2.153   3.446   2.964  3.9845 -2.0826  3.4089
  975MOL0     H31572   1.998   3.646   3.005  0.7697  0.2344  0.4455
  975MOL0     H31573   2.112   3.755   2.939  0.8296 -0.4337  0.1312
  975MOL0     H31574   1.970   3.503   2.808  0.1638 -1.0673 -1.9944
  975MOL0     H31575   2.107   3.573   2.727 -0.3232  2.3331 -2.2293
  975MOL0     H31576   2.063   3.881   2.741  0.9687 -0.1997 -1.2245
  975MOL0     H31577   1.770   4.093   2.629 -1.8858 -2.2938 -0.6737
  975MOL0     H31578   1.947   4.097   2.654 -0.1325 -1.0359 -0.6575
  975MOL0     H31579   1.965   3.975   2.418 -0.4638  0.2115 -0.6165
  975MOL0     H31580   1.896   4.125   2.409 -1.3296 -0.2054 -2.0349
  975MOL0     H31581   1.676   4.068   2.371 -1.6886 -0.7882  0.9560
  975MOL0     H31582   1.703   3.905   2.442  1.1242 -1.2592 -1.0520
  975MOL0     H31583   1.687   3.919   2.177  0.9149 -2.0700 -2.1509
  975MOL0     H31584   1.839   3.848   2.235 -0.6984  0.6230  1.7949
  975MOL0     H31585   1.589   4.119   2.155 -0.1667  2.7442  1.4172
  975MOL0     H31586   1.437   4.339   1.973  4.2720  2.8108 -0.7606
  975MOL0     H31587   1.409   4.237   2.115 -0.2257  1.2880  2.6054
  975MOL0     H31588   1.425   4.402   2.144 -1.4559  2.7409 -2.6095
  975MOL0     H31589   1.775   4.761   1.675 -0.7952 -1.1125 -0.8319
  975MOL0     H31590   1.802   5.017   1.685  2.5230 -0.4769  0.6655
  975MOL0     H31591   1.771   5.352   1.845 -0.8779  0.0438  0.3604
  975MOL0     H31592   1.811   5.227   1.714 -0.7902 -1.4525  0.6440
  975MOL0     H31593   1.605   5.323   1.663  0.8340  0.6219  1.2504
  975MOL0     H31594   1.587   5.148   1.730 -0.4301 -1.6498  3.4012
  975MOL0     H31595   1.474   5.408   1.848 -0.8312 -0.8393 -1.0716
  975MOL0     H31596   1.564   5.305   1.947 -1.8362 -2.5178 -0.0132
  975MOL0     H31597   1.398   5.110   1.858 -3.1069 -1.2639 -1.9980
  975MOL0     H31598   1.307   5.255   1.904 -1.7231 -2.1202 -0.6891
  975MOL0     H31599   1.367   5.173   1.619 -3.7014 -1.8838 -1.1848
  975MOL0     H31600   1.340   5.339   1.662  1.7941 -1.9628 -0.9390
  975MOL0     H31601   1.129   5.240   1.775 -0.0908  0.5993 -0.1555
  975MOL0     H31602   1.134   5.274   1.607 -5.1791  1.3910  2.8662
  975MOL0     H31603   1.210   4.994   1.713 -1.8998  0.5602  0.8230
  975MOL0     H31604   1.182   5.046   1.544  1.2039  2.9533 -0.8703
  975MOL0     H31605   0.963   5.058   1.759 -2.4870  0.7877 -1.5065
  975MOL0     H31606   0.994   4.915   1.675  0.7742 -0.0344 -1.8654
  975MOL0     H31607   1.778   5.007   2.112 -0.0075 -0.3255  1.4253
  975MOL0     H31608   1.756   4.761   2.104 -0.5471 -1.4538 -0.2190
  975MOL0     H31609   1.914   4.454   1.982  1.8448 -0.2379  0.0925
  975MOL0     H31610   1.982   4.225   2.073 -0.4409 -0.7901  0.5676
  975MOL0     H31611   2.211   3.360   3.626  2.5753 -0.9547 -0.0911
  975MOL0     H31612   2.276   3.441   3.857 -0.9608 -0.6892  0.5062
  975MOL0     H31613   2.066   3.355   4.367 -0.1465 -0.2606  0.8012
  975MOL0     H31614   2.130   3.428   4.569  0.8519  0.3996  0.9392
  975MOL0     H31615   2.367   3.601   4.793 -2.6400  0.7417  0.8022
  975MOL0     H31616   2.217   3.543   4.715  0.9059 -0.0806 -1.6028
  975MOL0     H31617   2.249   3.516   4.970  1.0994 -0.9964  1.1917
  975MOL0     H31618   2.396   3.425   4.928  0.7073  1.3503 -0.9518
  975MOL0     H31619   2.209   3.278   4.996  2.7496  1.2996  0.5838
  975MOL0     H31620   2.234   3.254   4.823 -2.5024  0.6920 -2.4468
  975MOL0     H31621   1.992   3.306   4.828 -2.1064 -1.2560  2.6002
  975MOL0     H31622   2.052   3.467   4.833  0.0032  1.1677  2.3808
  975MOL0     H31623   1.928   3.438   5.231  0.3455  2.0196 -0.2349
  975MOL0     H31624   2.547   3.328   4.484 -0.9800 -1.1386  0.5591
  975MOL0     H31625   2.489   3.250   4.287 -0.3298  1.6067 -0.3033
  976MOL0     O31626   8.597   4.318   1.822  0.0916  0.0115 -0.0635
  976MOL0     C31627   8.713   4.350   1.825  0.1013 -0.4316 -0.3756
  976MOL0     O31628   8.790   4.346   1.937 -0.1309 -0.0866  0.5109
  976MOL0     C31629   8.928   4.362   1.917  0.3601 -0.7129  1.2329
  976MOL0     C31630   8.996   4.290   1.818  0.2895  0.4659  0.2203
  976MOL0     C31631   9.131   4.308   1.788  1.2193 -0.4148 -0.4023
  976MOL0     C31632   9.203   4.401   1.853  0.2028 -0.3136  0.9062
  976MOL0     O31633   9.335   4.413   1.815  0.1215 -0.0969  0.7174
  976MOL0     C31634   9.380   4.551   1.787 -0.4989 -0.2944 -0.1541
  976MOL0     C31635   9.285   4.638   1.696  0.0922  0.5449 -0.2131
  976MOL0     C31636   9.270   4.570   1.561  0.1855 -0.1089  0.1630
  976MOL0     C31637   9.169   4.639   1.468 -0.2624 -0.2509  0.1634
  976MOL0     C31638   9.162   4.802   1.453 -0.8098  0.9488 -0.7746
  976MOL0     C31639   9.289   4.878   1.414  0.0915  0.1628  0.0988
  976MOL0     C31640   9.272   5.046   1.423  0.4341  1.0266  0.7699
  976MOL0     C31641   9.249   5.078   1.565 -0.3976  0.5939  0.3768
  976MOL0     N31642   9.302   5.214   1.583  0.0422  0.5877  0.3148
  976MOL0     C31643   9.430   5.256   1.554  0.0442 -0.2670  0.5170
  976MOL0     C31644   9.423   5.395   1.568  0.2487  0.4640 -0.1772
  976MOL0     C31645   9.529   5.492   1.525 -0.1398  0.0383  0.0512
  976MOL0     C31646   9.527   5.621   1.610 -1.5427 -0.9412  0.0052
  976MOL0     C31647   9.672   5.660   1.648 -0.1420 -1.1332  0.1137
  976MOL0     C31648   9.777   5.694   1.535  0.7454  0.5603 -0.0616
  976MOL0     O31649   9.883   5.779   1.577 -0.2972 -0.0122 -0.6173
  976MOL0     C31650  10.017   5.737   1.569 -0.0776  0.4868 -0.5715
  976MOL0     C31651  10.065   5.632   1.643 -0.4404  0.6040  0.5199
  976MOL0     C31652  10.198   5.579   1.622  0.6851 -0.3205  0.1409
  976MOL0     C31653  10.248   5.466   1.704  0.4820  1.0494 -0.2595
  976MOL0     C31654  10.275   5.638   1.517 -0.1463 -0.1384 -0.9847
  976MOL0     C31655  10.413   5.593   1.493 -0.2112  0.2967  1.0627
  976MOL0     O31656  10.512   5.682   1.528  0.6090  0.3454  0.5249
  976MOL0     C31657  10.648   5.646   1.507 -0.5296  0.3634 -0.7370
  976MOL0     C31658  10.731   5.659   1.622  0.2080  0.1451 -0.4796
  976MOL0     C31659  10.866   5.632   1.609  0.4252  0.1467 -0.5224
  976MOL0     C31660  10.919   5.578   1.491 -0.1702 -0.3232 -0.0227
  976MOL0     O31661  11.044   5.514   1.482 -0.6490 -0.4412 -0.4347
  976MOL0     C31662  11.115   5.481   1.598 -0.9945  0.5052 -0.8470
  976MOL0     C31663  11.215   5.365   1.567 -0.3294  0.1620  0.2655
  976MOL0     C31664  11.332   5.415   1.472 -0.3499  0.1527 -0.3423
  976MOL0     C31665  11.314   5.408   1.316  0.2460  0.8104 -0.8106
  976MOL0     C31666  11.437   5.481   1.249  0.8459 -0.0343  0.0745
  976MOL0     C31667  11.458   5.627   1.281 -1.2797  0.1695  0.8754
  976MOL0     C31668  11.571   5.668   1.199  0.5398 -0.1539 -0.4904
  976MOL0     C31669  11.642   5.795   1.233 -0.6929  0.1540  0.1377
  976MOL0    Cl31670  11.706   5.791   1.393  0.3823  0.1263  0.0435
  976MOL0     C31671  10.839   5.572   1.378  1.2902  0.4800  0.2892
  976MOL0     C31672  10.702   5.601   1.386 -0.3456 -0.9776  0.3312
  976MOL0     O31673  10.430   5.491   1.420 -0.0686 -0.1413 -1.0625
  976MOL0     C31674  10.217   5.749   1.442 -0.6375  0.8212 -0.3050
  976MOL0     C31675  10.094   5.798   1.472 -0.2779 -0.0997 -0.1607
  976MOL0     N31676   9.289   5.434   1.594 -0.4209 -0.0377  0.0427
  976MOL0     N31677   9.220   5.323   1.600  0.1976  0.1723 -0.7415
  976MOL0     C31678   9.140   4.481   1.956 -0.0545 -0.4484 -0.6468
  976MOL0     C31679   9.006   4.451   1.992 -0.0215 -0.9728  0.3935
  976MOL0     C31680   8.748   4.418   1.698 -0.3340 -0.0872  0.5440
  976MOL0     C31681   8.732   4.361   1.572 -0.8211 -0.2999 -0.0027
  976MOL0     C31682   8.754   4.440   1.457 -0.1057 -0.8242 -0.2648
  976MOL0     C31683   8.779   4.575   1.460 -0.4245  0.1111 -0.4039
  976MOL0     O31684   8.791   4.666   1.356  0.4787 -0.2539  0.2728
  976MOL0     C31685   8.718   4.633   1.230 -0.1178 -0.6514  0.5038
  976MOL0     C31686   8.807   4.564   1.124 -0.5683  0.3511  0.5481
  976MOL0     C31687   8.746   4.554   0.985  0.0682 -0.4632 -0.6876
  976MOL0     C31688   8.601   4.493   0.979 -0.2214  0.5107  0.8196
  976MOL0     C31689   8.598   4.428   0.847 -0.1336 -1.1674 -0.2684
  976MOL0     C31690   8.574   4.390   0.735 -1.0889  0.8217 -0.3365
  976MOL0     C31691   8.806   4.632   1.585  0.3330  0.0711 -0.2640
  976MOL0     C31692   8.786   4.554   1.706 -0.4764  0.6559  0.4654
  976MOL0     H31693   8.941   4.203   1.785  1.9168 -0.2823 -0.6647
  976MOL0     H31694   9.191   4.254   1.716  3.0672  0.8079  0.1266
  976MOL0     H31695   9.394   4.605   1.881 -4.0527 -2.3627  1.7515
  976MOL0     H31696   9.477   4.548   1.735 -1.1205 -3.6245 -1.3608
  976MOL0     H31697   9.186   4.647   1.743 -0.5239  0.5834 -1.4771
  976MOL0     H31698   9.324   4.740   1.688 -0.8432  0.8070 -1.9606
  976MOL0     H31699   9.366   4.588   1.512 -0.1391  2.4068  0.3090
  976MOL0     H31700   9.257   4.462   1.572 -0.3880  0.1140  2.0475
  976MOL0     H31701   9.171   4.601   1.365  1.0831  1.7581 -0.6170
  976MOL0     H31702   9.077   4.613   1.520 -0.1304  0.1425  0.5966
  976MOL0     H31703   9.082   4.826   1.383 -2.6155  3.1056  1.8084
  976MOL0     H31704   9.117   4.836   1.547  1.6706 -0.0995  0.8961
  976MOL0     H31705   9.374   4.847   1.475  0.0178  3.0046  1.7841
  976MOL0     H31706   9.321   4.846   1.314  4.8109 -0.0242  1.4382
  976MOL0     H31707   9.362   5.093   1.383  1.4877 -0.6980  1.0216
  976MOL0     H31708   9.191   5.083   1.358  0.8658  0.4470 -0.1192
  976MOL0     H31709   9.299   4.999   1.622 -2.0231 -1.5868 -1.0753
  976MOL0     H31710   9.143   5.062   1.587 -2.1150  2.9801 -4.6590
  976MOL0     H31711   9.518   5.214   1.506  1.9707  4.0197 -0.2201
  976MOL0     H31712   9.623   5.438   1.531 -0.3463 -0.4485 -0.8774
  976MOL0     H31713   9.504   5.516   1.421  1.1829  2.9110  0.3037
  976MOL0     H31714   9.465   5.606   1.699  2.8458  1.7269  3.9869
  976MOL0     H31715   9.482   5.702   1.552 -0.5052 -0.9778 -0.8880
  976MOL0     H31716   9.712   5.577   1.707  1.3102 -0.6552 -0.1812
  976MOL0     H31717   9.677   5.753   1.704  1.5647  1.2680 -3.6310
  976MOL0     H31718   9.731   5.752   1.454  0.2301 -1.5575 -1.3526
  976MOL0     H31719   9.797   5.598   1.487 -2.5233 -1.4592  2.1806
  976MOL0     H31720  10.002   5.593   1.722 -0.8109  0.4947  0.1737
  976MOL0     H31721  10.293   5.381   1.653  2.1610  1.3097  0.6953
  976MOL0     H31722  10.332   5.504   1.763 -1.3884  0.8982  2.7233
  976MOL0     H31723  10.171   5.435   1.776 -0.1436  1.7553 -0.6162
  976MOL0     H31724  10.709   5.706   1.717  1.3680  0.8877 -0.5706
  976MOL0     H31725  10.921   5.655   1.700 -0.9262  2.8251 -0.2845
  976MOL0     H31726  11.180   5.560   1.637  2.4484 -1.5860 -1.8015
  976MOL0     H31727  11.056   5.441   1.680 -1.0199  2.5276  0.1793
  976MOL0     H31728  11.258   5.334   1.662  0.1737  0.4642  0.1379
  976MOL0     H31729  11.172   5.272   1.528 -1.5934  0.3027  1.2310
  976MOL0     H31730  11.416   5.354   1.506 -0.8053  0.4112  1.3389
  976MOL0     H31731  11.360   5.518   1.499  0.8272 -0.9139  3.0204
  976MOL0     H31732  11.310   5.308   1.272  0.4772 -0.6792  2.2629
  976MOL0     H31733  11.218   5.455   1.293 -0.0153  1.6155  1.5988
  976MOL0     H31734  11.424   5.464   1.141  2.3571 -2.7258  0.2366
  976MOL0     H31735  11.532   5.429   1.258  0.5184 -0.8828 -1.1645
  976MOL0     H31736  11.374   5.689   1.250  0.2478  0.0694 -4.3868
  976MOL0     H31737  11.480   5.649   1.386 -2.9742 -3.5618  2.1707
  976MOL0     H31738  11.535   5.667   1.096  2.6208 -0.4331 -1.2655
  976MOL0     H31739  11.653   5.596   1.196 -0.2174 -0.9991 -2.5698
  976MOL0     H31740  11.566   5.872   1.215 -1.4932 -1.5054 -5.2790
  976MOL0     H31741  11.727   5.805   1.165  1.7923  1.8861  3.2071
  976MOL0     H31742  10.878   5.530   1.286  0.3127 -1.8241  0.8542
  976MOL0     H31743  10.629   5.573   1.310 -0.5846 -2.5218  1.0955
  976MOL0     H31744  10.274   5.803   1.366  0.5974 -0.7818 -0.5653
  976MOL0     H31745  10.063   5.890   1.423  2.6425  0.3497 -1.3924
  976MOL0     H31746   9.197   4.556   2.009 -4.8365  1.8017  1.9622
  976MOL0     H31747   8.967   4.489   2.086  0.1394 -3.8902  1.7807
  976MOL0     H31748   8.716   4.255   1.555 -0.7421 -0.2467 -0.4446
  976MOL0     H31749   8.746   4.391   1.360 -2.6751  0.0261 -0.5728
  976MOL0     H31750   8.626   4.577   1.250  0.5025 -2.2579 -0.9880
  976MOL0     H31751   8.685   4.729   1.189  2.3527  1.1464  2.4254
  976MOL0     H31752   8.834   4.464   1.159  0.7710  0.5493  0.1381
  976MOL0     H31753   8.902   4.617   1.115 -0.0886 -0.8386 -3.7363
  976MOL0     H31754   8.814   4.494   0.923 -0.7748 -2.5259  0.2869
  976MOL0     H31755   8.735   4.656   0.947  0.0095 -0.1977  0.0386
  976MOL0     H31756   8.523   4.570   0.977 -1.9925 -1.2093 -0.9912
  976MOL0     H31757   8.582   4.417   1.055  0.1638 -1.3753 -0.8987
  976MOL0     H31758   8.527   4.359   0.644  1.0303  0.9251 -1.5315
  976MOL0     H31759   8.840   4.735   1.583 -1.2671  0.7203  1.8836
  976MOL0     H31760   8.785   4.607   1.801 -1.0214  2.2475 -0.3962
  977MOL0     O31761  11.510   2.830   9.312 -0.6422 -1.0611 -0.2750
  977MOL0     C31762  11.467   2.876   9.415  1.2518  0.7775 -0.7782
  977MOL0     O31763  11.340   2.844   9.465 -0.2994 -0.9459  0.3986
  977MOL0     C31764  11.281   2.728   9.414 -0.1283  0.3414  0.2235
  977MOL0     C31765  11.246   2.717   9.279 -0.0411 -0.1659  0.1127
  977MOL0     C31766  11.154   2.617   9.231 -0.9391  0.1702 -0.2630
  977MOL0     C31767  11.097   2.530   9.319  0.2654  0.0474 -0.6344
  977MOL0     O31768  11.012   2.429   9.289 -0.9605  0.7878 -0.1280
  977MOL0     C31769  10.905   2.460   9.207  0.3787  0.5151 -0.2075
  977MOL0     C31770  10.804   2.556   9.284 -0.4176 -0.6224  0.4049
  977MOL0     C31771  10.685   2.476   9.338 -0.9146 -0.9386 -0.1355
  977MOL0     C31772  10.550   2.487   9.270  0.7202 -0.6867 -0.0621
  977MOL0     C31773  10.481   2.620   9.304 -1.0410  0.3432 -0.8337
  977MOL0     C31774  10.362   2.650   9.217  0.6846  0.1384  0.6784
  977MOL0     C31775  10.264   2.739   9.303  1.4078 -0.5621  0.2502
  977MOL0     C31776  10.176   2.810   9.192  0.8548 -0.2133 -0.3389
  977MOL0     N31777  10.078   2.717   9.124 -0.4321  0.1980 -0.1836
  977MOL0     C31778   9.942   2.682   9.149 -0.7249 -1.2477  0.2346
  977MOL0     C31779   9.917   2.590   9.060 -0.0816  0.0399  0.4049
  977MOL0     C31780   9.791   2.513   9.033 -0.2665 -0.1571 -0.3497
  977MOL0     C31781   9.731   2.455   9.166 -0.4194  0.3080 -0.7074
  977MOL0     C31782   9.630   2.355   9.114  0.3655 -0.1527 -0.5194
  977MOL0     C31783   9.536   2.315   9.235 -0.2546  1.6402  0.0883
  977MOL0     O31784   9.433   2.226   9.179  0.2517 -0.1177 -0.1521
  977MOL0     C31785   9.335   2.175   9.261  0.1327  0.6257  0.1922
  977MOL0     C31786   9.276   2.063   9.213  0.3136 -1.1906 -0.0769
  977MOL0     C31787   9.177   1.992   9.286  0.4252  0.1626  1.1555
  977MOL0     C31788   9.112   1.874   9.218  0.2049 -0.2943  0.0387
  977MOL0     C31789   9.143   2.043   9.421 -0.2101 -0.0523  0.0364
  977MOL0     C31790   9.033   1.992   9.511  0.7880  0.1218  0.4017
  977MOL0     O31791   9.026   2.048   9.635 -0.2524  0.0251 -0.8626
  977MOL0     C31792   8.932   2.002   9.725  0.2224 -0.5162 -0.5946
  977MOL0     C31793   8.974   1.947   9.850 -0.1232 -0.2911  0.3099
  977MOL0     C31794   8.892   1.882   9.939 -0.6250 -0.2724  0.5295
  977MOL0     C31795   8.749   1.866   9.908 -1.7137  0.4505  0.1292
  977MOL0     O31796   8.655   1.830   9.994 -0.0820  0.4052 -1.6408
  977MOL0     C31797   8.686   1.774  10.128 -0.8242 -0.1937  0.3499
  977MOL0     C31798   8.558   1.720  10.190 -0.1700  0.5966  0.3832
  977MOL0     C31799   8.427   1.784  10.150 -0.4191 -0.5056 -0.2723
  977MOL0     C31800   8.320   1.757  10.257  0.1139  0.2256 -0.4360
  977MOL0     C31801   8.190   1.818  10.189  0.0718 -0.2536  0.1391
  977MOL0     C31802   8.075   1.821  10.282  0.1653  0.4859  0.3618
  977MOL0     C31803   7.943   1.846  10.191 -0.6281 -0.2463 -0.9974
  977MOL0     C31804   7.823   1.820  10.274 -0.5975  0.8397  0.8130
  977MOL0    Cl31805   7.818   1.907  10.429  0.0477 -0.7520 -0.3819
  977MOL0     C31806   8.705   1.923   9.784  0.3165  0.0647  0.5290
  977MOL0     C31807   8.796   1.982   9.689 -0.8601  0.8460  0.3990
  977MOL0     O31808   8.947   1.916   9.471 -0.1566  0.7320  0.0061
  977MOL0     C31809   9.206   2.163   9.459 -1.1685  0.4425  0.3559
  977MOL0     C31810   9.305   2.225   9.385  0.5713 -0.7906  0.9676
  977MOL0     N31811  10.023   2.579   8.968  1.3306 -0.1371 -0.5609
  977MOL0     N31812  10.117   2.656   9.006 -0.6597  0.6051  0.2526
  977MOL0     C31813  11.130   2.532   9.450 -0.5355  0.3152 -0.6835
  977MOL0     C31814  11.214   2.635   9.506 -0.1106  1.0775  0.2333
  977MOL0     C31815  11.543   2.977   9.475 -0.1562 -0.6154  0.1209
  977MOL0     C31816  11.653   3.023   9.418 -0.8835 -1.3488 -1.0284
  977MOL0     C31817  11.715   3.140   9.466  0.2329  0.8681 -0.5625
  977MOL0     C31818  11.666   3.210   9.581 -0.0483 -0.1573 -0.0023
  977MOL0     O31819  11.722   3.329   9.604  1.3623 -0.4835  0.3007
  977MOL0     C31820  11.693   3.411   9.714  0.3286  0.1097 -0.3827
  977MOL0     C31821  11.770   3.349   9.826  0.6558  0.9571 -0.0383
  977MOL0     C31822  11.706   3.394   9.955  0.5865 -0.0250  1.3169
  977MOL0     C31823  11.790   3.357  10.089  0.0212  0.4476  0.1962
  977MOL0     C31824  11.925   3.393  10.088 -0.5889 -0.8447  0.3113
  977MOL0     C31825  12.044   3.428  10.080  0.4631  0.1572  0.2714
  977MOL0     C31826  11.545   3.164   9.640  0.3540 -0.2105 -0.0198
  977MOL0     C31827  11.488   3.046   9.587 -0.4908 -0.7305 -0.9283
  977MOL0     H31828  11.298   2.777   9.206  0.9993 -1.7927 -0.5470
  977MOL0     H31829  11.144   2.602   9.124  2.4009 -1.6887 -0.4617
  977MOL0     H31830  10.939   2.499   9.111 -0.0299 -3.1145 -2.0238
  977MOL0     H31831  10.858   2.366   9.174 -2.8311  0.5565  3.5272
  977MOL0     H31832  10.851   2.600   9.372  1.2813 -0.0908 -0.7120
  977MOL0     H31833  10.769   2.639   9.222 -2.5401 -0.2076  2.0240
  977MOL0     H31834  10.711   2.370   9.336  3.9178  0.0522 -1.2446
  977MOL0     H31835  10.663   2.507   9.441 -2.6228 -1.2276 -0.3816
  977MOL0     H31836  10.576   2.478   9.164 -0.5998 -1.7101 -0.3297
  977MOL0     H31837  10.490   2.400   9.298  0.6176 -0.7780 -0.5535
  977MOL0     H31838  10.454   2.611   9.410  2.7119 -0.4510  0.2288
  977MOL0     H31839  10.552   2.702   9.290 -0.1737 -0.3694 -0.7680
  977MOL0     H31840  10.392   2.690   9.120  2.7661 -1.1881  0.7159
  977MOL0     H31841  10.316   2.552   9.198  0.7824  0.0171  1.0744
  977MOL0     H31842  10.196   2.687   9.371  0.6069  2.2506  1.7558
  977MOL0     H31843  10.322   2.819   9.349  0.0329  0.7038 -0.1324
  977MOL0     H31844  10.240   2.856   9.116 -1.4503 -0.4854 -2.5740
  977MOL0     H31845  10.118   2.892   9.235  2.1018  2.4779 -3.3588
  977MOL0     H31846   9.882   2.722   9.231 -2.6878 -0.8204 -1.3263
  977MOL0     H31847   9.717   2.592   9.018  0.1491  0.8952  2.5228
  977MOL0     H31848   9.798   2.451   8.944  0.6709 -1.1979  0.4334
  977MOL0     H31849   9.682   2.524   9.235  0.0494  0.0662 -0.1126
  977MOL0     H31850   9.803   2.400   9.228 -2.2133 -1.3437  0.0025
  977MOL0     H31851   9.693   2.266   9.100  3.1935  1.5108  0.7163
  977MOL0     H31852   9.565   2.387   9.033  0.6633  0.9195 -0.3541
  977MOL0     H31853   9.491   2.407   9.275 -0.1177  1.6054  0.3201
  977MOL0     H31854   9.591   2.258   9.310 -4.1522 -1.3358  1.0164
  977MOL0     H31855   9.314   2.025   9.118  0.6763  1.6078 -1.1589
  977MOL0     H31856   9.095   1.796   9.293 -0.3734  2.5237  3.0499
  977MOL0     H31857   9.019   1.900   9.166  1.9371  0.5922 -2.8347
  977MOL0     H31858   9.172   1.821   9.143  0.1072 -0.4651  0.0789
  977MOL0     H31859   9.081   1.968   9.860 -1.0145  4.8158  2.3815
  977MOL0     H31860   8.924   1.843  10.035 -2.2594  0.3293  1.3606
  977MOL0     H31861   8.761   1.694  10.127  0.4951  0.8637  3.3333
  977MOL0     H31862   8.732   1.845  10.198 -4.1830 -0.6146  3.2351
  977MOL0     H31863   8.558   1.616  10.155 -1.6865  0.2502  1.3214
  977MOL0     H31864   8.563   1.722  10.299  4.5267  1.4424  0.3512
  977MOL0     H31865   8.378   1.751  10.057 -1.6285 -2.6771  1.0344
  977MOL0     H31866   8.453   1.889  10.136  0.0090 -0.4599  0.7693
  977MOL0     H31867   8.314   1.648  10.253  0.5465  0.2275 -2.9832
  977MOL0     H31868   8.340   1.811  10.350 -0.9678  0.2550 -0.2021
  977MOL0     H31869   8.162   1.756  10.103 -2.6324 -1.7913  1.9796
  977MOL0     H31870   8.212   1.919  10.155  2.2170 -0.0163  2.0222
  977MOL0     H31871   8.058   1.727  10.334 -2.9967  0.5233 -0.3632
  977MOL0     H31872   8.091   1.904  10.352 -2.8490  2.9523 -1.5702
  977MOL0     H31873   7.946   1.786  10.099  2.3874 -1.8881  0.0264
  977MOL0     H31874   7.932   1.943  10.141  0.1498  0.0043 -0.6904
  977MOL0     H31875   7.819   1.713  10.295 -1.5073  0.4719 -1.0015
  977MOL0     H31876   7.735   1.848  10.215 -1.1040  0.7961  1.5358
  977MOL0     H31877   8.598   1.924   9.763  0.6041 -2.3553 -1.6000
  977MOL0     H31878   8.765   2.021   9.593  1.1334  1.4095 -0.0601
  977MOL0     H31879   9.181   2.211   9.553  3.7787  1.8296  1.2816
  977MOL0     H31880   9.337   2.323   9.419  0.7750 -1.9520  4.4366
  977MOL0     H31881  11.092   2.453   9.514  0.2245  1.4596  1.2780
  977MOL0     H31882  11.223   2.649   9.613  1.0726 -1.0860  0.4772
  977MOL0     H31883  11.703   2.981   9.332  0.3481 -1.0876 -0.4620
  977MOL0     H31884  11.812   3.158   9.422  2.8015  1.7976  4.7182
  977MOL0     H31885  11.726   3.514   9.695  0.2720  0.0206 -0.9718
  977MOL0     H31886  11.585   3.414   9.728  0.5626  0.7883  1.5333
  977MOL0     H31887  11.877   3.371   9.827  0.2761  2.9774  0.3302
  977MOL0     H31888  11.757   3.241   9.811  1.8795  1.0741 -2.3079
  977MOL0     H31889  11.608   3.348   9.972  0.8348 -0.9526  0.3473
  977MOL0     H31890  11.685   3.501   9.958 -1.8809 -0.4508  4.2649
  977MOL0     H31891  11.784   3.250  10.114  1.0780 -0.0030 -1.3227
  977MOL0     H31892  11.742   3.409  10.172 -0.8484 -0.7899  0.5062
  977MOL0     H31893  12.146   3.463  10.075  1.0862 -1.6232 -0.1121
  977MOL0     H31894  11.499   3.210   9.727 -0.3210  2.9767 -1.9047
  977MOL0     H31895  11.398   3.014   9.638  0.3463  1.4080  2.2375
  978MOL0     O31896   9.326  10.023   1.765 -0.0882 -0.1449  0.5637
  978MOL0     C31897   9.342   9.904   1.740  0.3337  0.4029  0.0617
  978MOL0     O31898   9.463   9.834   1.742  0.4181 -0.5438 -0.0565
  978MOL0     C31899   9.571   9.917   1.723 -0.3589  0.4133 -0.8879
  978MOL0     C31900   9.595   9.988   1.605 -0.0353  0.4055 -0.8602
  978MOL0     C31901   9.692  10.086   1.597  0.3637 -0.2882 -0.3156
  978MOL0     C31902   9.771  10.118   1.712  0.4215 -0.7449  0.4727
  978MOL0     O31903   9.878  10.212   1.709 -0.3597  0.2388  0.2882
  978MOL0     C31904   9.975  10.179   1.600  0.5241  0.6233 -0.1296
  978MOL0     C31905  10.063  10.307   1.573 -1.1655  0.4514  0.0722
  978MOL0     C31906   9.987  10.436   1.563 -0.1427  0.4152 -0.6127
  978MOL0     C31907  10.051  10.541   1.466 -0.1813  0.6105 -0.0489
  978MOL0     C31908   9.953  10.656   1.446  0.4483  0.2643  0.6274
  978MOL0     C31909   9.829  10.616   1.379  1.2467 -1.2903 -0.2289
  978MOL0     C31910   9.856  10.587   1.226  0.0313 -0.3099 -0.2223
  978MOL0     C31911   9.814  10.451   1.193 -0.0061  0.1208 -0.4160
  978MOL0     N31912   9.670  10.432   1.200 -0.4000  0.8727  0.2108
  978MOL0     C31913   9.586  10.415   1.310 -0.3759  0.5019  1.0004
  978MOL0     C31914   9.463  10.375   1.265  0.4988  0.0036  0.0500
  978MOL0     C31915   9.342  10.320   1.342  0.1737 -0.3283  0.9889
  978MOL0     C31916   9.352  10.375   1.487  0.3153 -0.5677  0.2812
  978MOL0     C31917   9.234  10.333   1.564  0.4674 -0.0755  0.4674
  978MOL0     C31918   9.243  10.367   1.720  0.3459  0.2493 -0.5765
  978MOL0     O31919   9.120  10.395   1.776  0.1849  0.2794  0.0695
  978MOL0     C31920   9.092  10.365   1.910 -0.3124  0.1945  0.8274
  978MOL0     C31921   9.189  10.381   2.010  1.2729 -0.5467  0.4867
  978MOL0     C31922   9.143  10.344   2.140  0.1056 -0.7909  0.5947
  978MOL0     C31923   9.254  10.351   2.248  0.6117  0.5035  0.0716
  978MOL0     C31924   9.006  10.300   2.162  0.0765 -0.1697  0.0003
  978MOL0     C31925   8.956  10.287   2.298  0.0146  0.5825  0.6917
  978MOL0     O31926   8.894  10.161   2.328  0.2230 -0.3460  0.5160
  978MOL0     C31927   8.825  10.155   2.444  0.2584 -0.7654  0.0588
  978MOL0     C31928   8.690  10.201   2.442 -0.7911 -0.0159 -0.0913
  978MOL0     C31929   8.618  10.192   2.560  0.2159  0.5554 -0.8719
  978MOL0     C31930   8.674  10.146   2.676  0.1574 -0.3568 -0.5446
  978MOL0     O31931   8.585  10.148   2.780  0.1503  0.3033  0.1957
  978MOL0     C31932   8.566  10.032   2.867  0.4891 -0.0185 -0.3208
  978MOL0     C31933   8.505  10.057   3.007 -0.3389 -0.4372 -0.1995
  978MOL0     C31934   8.591  10.152   3.086 -0.3341 -0.4137 -0.0764
  978MOL0     C31935   8.576  10.127   3.239 -0.6225  0.1912 -0.5607
  978MOL0     C31936   8.435  10.165   3.274  0.1592 -0.4867  0.0517
  978MOL0     C31937   8.424  10.187   3.428  0.1644  0.3247 -0.3140
  978MOL0     C31938   8.299  10.262   3.483 -0.4015  0.0825 -0.5993
  978MOL0     C31939   8.161  10.197   3.466 -0.2543 -0.0492 -0.3252
  978MOL0    Cl31940   8.032  10.324   3.452  0.0542 -0.1489 -0.4132
  978MOL0     C31941   8.808  10.088   2.680  0.5781 -0.1096 -0.3436
  978MOL0     C31942   8.881  10.095   2.557  0.7821  0.0330 -0.4666
  978MOL0     O31943   8.969  10.380   2.374 -0.3310 -0.1997 -0.6903
  978MOL0     C31944   8.926  10.273   2.053  0.3139  0.4575  0.9747
  978MOL0     C31945   8.970  10.300   1.922  0.1763 -0.0046  0.4048
  978MOL0     N31946   9.475  10.365   1.136 -0.2717 -0.1441  0.4633
  978MOL0     N31947   9.599  10.387   1.096 -0.0445  0.2979  0.1338
  978MOL0     C31948   9.751  10.042   1.833 -0.5785  0.4186  0.2332
  978MOL0     C31949   9.648   9.950   1.839  0.1687 -0.2273  0.8755
  978MOL0     C31950   9.224   9.831   1.687  0.2351 -0.9454 -0.0180
  978MOL0     C31951   9.093   9.873   1.726  0.3602 -0.0415 -0.1011
  978MOL0     C31952   8.990   9.800   1.689 -0.1427  0.1717 -0.1800
  978MOL0     C31953   9.002   9.675   1.624  0.5750  0.1142 -0.9445
  978MOL0     O31954   8.887   9.604   1.601  0.3895  0.8732 -0.1130
  978MOL0     C31955   8.874   9.485   1.687  0.1839  0.0676 -0.4380
  978MOL0     C31956   8.920   9.358   1.613 -0.2633 -0.1367  0.1293
  978MOL0     C31957   8.863   9.351   1.469 -0.7039  0.1400 -0.9287
  978MOL0     C31958   8.891   9.218   1.402 -0.2720  0.2011 -0.4063
  978MOL0     C31959   9.035   9.226   1.355 -0.2000  0.6033 -0.6592
  978MOL0     C31960   9.154   9.223   1.337 -1.7127 -0.8340 -0.3397
  978MOL0     C31961   9.132   9.637   1.585  0.6159 -0.0386  0.5843
  978MOL0     C31962   9.238   9.712   1.615 -0.4062  0.1028  0.4367
  978MOL0     H31963   9.531   9.975   1.519 -2.7536  0.3777  1.0513
  978MOL0     H31964   9.715  10.133   1.502 -3.3831  0.1714 -1.1262
  978MOL0     H31965  10.044  10.104   1.638 -1.3966 -1.5245 -0.6287
  978MOL0     H31966   9.919  10.144   1.513 -2.4135  1.8042  1.1188
  978MOL0     H31967  10.147  10.319   1.642  0.5659  2.2832 -2.1947
  978MOL0     H31968  10.103  10.283   1.474 -1.7926 -0.4890  0.0249
  978MOL0     H31969   9.892  10.407   1.516  1.9835 -1.5925 -4.1831
  978MOL0     H31970   9.963  10.467   1.665  1.1751  1.3234 -0.5467
  978MOL0     H31971  10.141  10.569   1.521 -0.7384  1.3132  0.5228
  978MOL0     H31972  10.081  10.490   1.373  3.4907 -1.5314  2.0446
  978MOL0     H31973   9.921  10.688   1.545  0.1090 -1.0653  0.9726
  978MOL0     H31974   9.994  10.739   1.388  0.1119 -0.9178 -1.4234
  978MOL0     H31975   9.761  10.549   1.432  0.9565  0.5396  1.8483
  978MOL0     H31976   9.780  10.713   1.366 -1.3828 -2.4727  0.3767
  978MOL0     H31977   9.786  10.649   1.169 -1.8499 -0.6503  1.6129
  978MOL0     H31978   9.956  10.607   1.187  0.4432  1.5550  1.5930
  978MOL0     H31979   9.872  10.390   1.263  0.3123  0.9501  0.0481
  978MOL0     H31980   9.848  10.422   1.093  2.6648 -1.2904  0.7824
  978MOL0     H31981   9.602  10.430   1.416 -0.2612 -1.7115  1.3471
  978MOL0     H31982   9.250  10.350   1.290  1.2986 -1.8810 -2.1997
  978MOL0     H31983   9.334  10.211   1.342 -2.5018 -0.2567 -0.9272
  978MOL0     H31984   9.365  10.483   1.495  0.3857 -0.2041 -3.0361
  978MOL0     H31985   9.445  10.337   1.532 -0.0503 -0.8972  0.7637
  978MOL0     H31986   9.220  10.225   1.550 -1.7770  0.4211 -2.0239
  978MOL0     H31987   9.150  10.385   1.517  2.3390  1.1482 -1.7000
  978MOL0     H31988   9.306  10.454   1.738  0.8289 -0.6475  2.9067
  978MOL0     H31989   9.303  10.291   1.771  2.6825  0.4147 -2.8487
  978MOL0     H31990   9.286  10.426   1.992 -0.3794  2.7323 -1.1329
  978MOL0     H31991   9.353  10.362   2.202  1.9530 -3.2508  1.6764
  978MOL0     H31992   9.252  10.438   2.315  3.2703 -0.1634  1.1600
  978MOL0     H31993   9.257  10.258   2.305  0.2734  0.4328 -0.0212
  978MOL0     H31994   8.633  10.226   2.353  1.4320  3.4163 -0.7047
  978MOL0     H31995   8.513  10.218   2.552 -0.2142 -0.0917  1.8212
  978MOL0     H31996   8.495   9.960   2.825 -0.5217  0.3765  0.6724
  978MOL0     H31997   8.658   9.973   2.874  1.3867  1.4741  1.1639
  978MOL0     H31998   8.407  10.104   2.993 -0.6034 -0.1128  2.2596
  978MOL0     H31999   8.481   9.960   3.052 -1.3168  0.0604  0.4028
  978MOL0     H32000   8.567  10.254   3.056  3.1348 -0.3434 -3.3737
  978MOL0     H32001   8.695  10.145   3.053  0.1315  1.1176  0.9898
  978MOL0     H32002   8.586  10.022   3.270  0.1243 -0.4679 -2.8428
  978MOL0     H32003   8.653  10.186   3.290  0.4513 -1.3118 -0.3657
  978MOL0     H32004   8.364  10.090   3.239 -2.0675  2.0500 -1.1905
  978MOL0     H32005   8.400  10.252   3.217 -0.6662 -1.5918 -1.1706
  978MOL0     H32006   8.435  10.088   3.472  2.5399  0.0767 -1.2881
  978MOL0     H32007   8.510  10.245   3.463  0.8878 -1.2410  0.5640
  978MOL0     H32008   8.290  10.359   3.433  1.2915  0.7465  0.2897
  978MOL0     H32009   8.309  10.287   3.589 -1.7637 -2.6483  0.2683
  978MOL0     H32010   8.141  10.130   3.551 -1.6093  3.5552  2.4553
  978MOL0     H32011   8.152  10.134   3.377 -3.8948 -0.1368 -0.0555
  978MOL0     H32012   8.857  10.053   2.770  0.2663 -0.4792 -0.3136
  978MOL0     H32013   8.984  10.062   2.552  0.5430 -0.6243 -1.3354
  978MOL0     H32014   8.826  10.233   2.068  1.5691 -2.3130  2.4854
  978MOL0     H32015   8.916  10.285   1.829  1.2374 -2.8706  0.1527
  978MOL0     H32016   9.810  10.030   1.923 -2.0396 -2.4215  0.9458
  978MOL0     H32017   9.617   9.899   1.930 -2.7559 -0.0263  0.0808
  978MOL0     H32018   9.073   9.965   1.780  1.3067  0.2998 -0.3082
  978MOL0     H32019   8.894   9.843   1.714  0.7467  1.6430  0.8758
  978MOL0     H32020   8.940   9.494   1.774  3.2832 -0.6665 -2.5276
  978MOL0     H32021   8.773   9.465   1.724  1.2900 -0.5052  2.5092
  978MOL0     H32022   8.888   9.270   1.670 -1.1521 -1.3232 -2.0987
  978MOL0     H32023   9.027   9.368   1.594 -0.4512  0.9559 -0.4643
  978MOL0     H32024   8.911   9.432   1.413 -0.1987 -0.3229 -1.1810
  978MOL0     H32025   8.756   9.368   1.458 -0.6015  3.1664  1.3831
  978MOL0     H32026   8.824   9.204   1.317 -1.3873  1.8940  0.1617
  978MOL0     H32027   8.881   9.142   1.481 -1.8814  0.9745  0.1751
  978MOL0     H32028   9.258   9.222   1.311 -1.9601  3.4053 -2.2656
  978MOL0     H32029   9.138   9.557   1.513 -0.2949  2.4391 -2.5081
  978MOL0     H32030   9.338   9.679   1.587 -1.0782 -1.0473 -0.6477
  979MOL0     O32031   5.598   9.163   8.793  0.9380  0.5143  0.0546
  979MOL0     C32032   5.569   9.145   8.910  0.0060 -0.3064  0.3233
  979MOL0     O32033   5.653   9.088   9.004  0.6009 -0.4986  0.0768
  979MOL0     C32034   5.764   9.030   8.960 -0.4787 -0.0435  0.1758
  979MOL0     C32035   5.767   8.896   8.907  0.3645 -0.6147 -0.2904
  979MOL0     C32036   5.896   8.835   8.878  0.1625 -0.1307  1.0263
  979MOL0     C32037   6.016   8.906   8.891  0.3355 -0.5001 -0.4953
  979MOL0     O32038   6.140   8.864   8.842  0.3497 -0.7016  0.1175
  979MOL0     C32039   6.253   8.886   8.939  1.0024  0.6721  0.0123
  979MOL0     C32040   6.284   8.761   9.008  0.2286 -0.7111  0.0690
  979MOL0     C32041   6.416   8.776   9.090  0.5798 -0.1913 -0.5724
  979MOL0     C32042   6.436   8.653   9.183 -0.3446  0.9229  0.9799
  979MOL0     C32043   6.566   8.663   9.258  0.3308 -0.2010  0.4322
  979MOL0     C32044   6.580   8.793   9.337 -0.1842  0.3133  0.0320
  979MOL0     C32045   6.698   8.797   9.433 -0.1816  1.0428  0.9368
  979MOL0     C32046   6.689   8.705   9.557 -0.6942  0.0258 -0.0656
  979MOL0     N32047   6.812   8.709   9.638 -0.0725 -0.2350  0.4338
  979MOL0     C32048   6.853   8.808   9.716  0.4324 -1.1871  0.2698
  979MOL0     C32049   6.964   8.769   9.775 -0.6847  1.0722 -0.4915
  979MOL0     C32050   7.046   8.838   9.883  0.7618 -0.2447  0.4073
  979MOL0     C32051   6.985   8.953   9.961  1.2051  0.0878  0.8750
  979MOL0     C32052   6.876   8.906  10.067  0.4601 -0.8464 -0.0325
  979MOL0     C32053   6.773   9.015  10.083 -0.4415 -0.7739 -0.5866
  979MOL0     O32054   6.709   9.061   9.955 -0.6904 -0.1189 -0.3211
  979MOL0     C32055   6.598   9.004   9.914  0.4846  0.6272 -0.3668
  979MOL0     C32056   6.531   9.059   9.809  1.0908 -0.2916  0.5224
  979MOL0     C32057   6.425   8.999   9.735  0.3426 -0.5800  0.4186
  979MOL0     C32058   6.382   9.047   9.606  0.3228 -0.1810  0.8829
  979MOL0     C32059   6.374   8.876   9.784 -0.0387  0.1895 -0.1835
  979MOL0     C32060   6.271   8.791   9.721 -0.2493  0.2958  0.4856
  979MOL0     O32061   6.175   8.746   9.816 -0.0416 -0.5524  0.0644
  979MOL0     C32062   6.071   8.679   9.763 -0.0858  0.5622  1.2439
  979MOL0     C32063   6.078   8.534   9.743 -0.6679  0.2970  0.3548
  979MOL0     C32064   5.972   8.462   9.693  0.0473 -0.8539 -1.3690
  979MOL0     C32065   5.849   8.534   9.656  0.1728  0.7966 -0.3229
  979MOL0     O32066   5.742   8.468   9.599  0.3925  0.4748  1.0943
  979MOL0     C32067   5.754   8.350   9.521  0.3347  0.0206 -0.4217
  979MOL0     C32068   5.633   8.332   9.429 -0.1628 -0.5844 -0.0582
  979MOL0     C32069   5.661   8.253   9.307  0.0149  0.3994 -0.0579
  979MOL0     C32070   5.654   8.101   9.333  1.1600 -0.6332  0.4532
  979MOL0     C32071   5.665   8.020   9.212  0.1283 -0.2597 -1.2336
  979MOL0     C32072   5.634   7.874   9.231 -0.0688  0.3137 -1.3216
  979MOL0     C32073   5.632   7.798   9.098 -0.1464 -0.2022  0.7223
  979MOL0     C32074   5.559   7.665   9.117 -0.5157  0.0537  0.6416
  979MOL0    Cl32075   5.632   7.553   9.006 -0.2621 -0.4415 -0.0389
  979MOL0     C32076   5.835   8.666   9.689  0.0491 -0.5397 -0.3045
  979MOL0     C32077   5.944   8.740   9.743  0.1338  0.2995 -0.9785
  979MOL0     O32078   6.278   8.751   9.604  0.2551  0.5747  0.0218
  979MOL0     C32079   6.430   8.828   9.905  0.3053 -0.2691 -0.4220
  979MOL0     C32080   6.539   8.886   9.974 -0.2679  1.0302  0.7013
  979MOL0     N32081   6.993   8.641   9.732  0.7381 -0.3976  0.2637
  979MOL0     N32082   6.889   8.599   9.658  0.0678 -0.1522  0.0026
  979MOL0     C32083   6.004   9.041   8.912 -0.5023  0.0117 -0.8022
  979MOL0     C32084   5.880   9.095   8.956 -0.5315 -0.0528  0.8159
  979MOL0     C32085   5.429   9.179   8.951 -1.2361 -0.3790  0.0418
  979MOL0     C32086   5.376   9.128   9.068  1.2131 -0.8147  0.1010
  979MOL0     C32087   5.236   9.139   9.095 -0.3513 -0.2843 -0.2250
  979MOL0     C32088   5.152   9.216   9.016  0.5152  0.1691 -0.1429
  979MOL0     O32089   5.014   9.239   9.022 -0.1522  0.4362 -0.0287
  979MOL0     C32090   4.933   9.155   9.096 -0.6019  0.3715  0.6181
  979MOL0     C32091   4.865   9.238   9.213 -0.1590  0.0733  0.1943
  979MOL0     C32092   4.790   9.128   9.290 -0.6021  0.2339 -0.5887
  979MOL0     C32093   4.788   9.168   9.439 -0.6166 -0.3267 -1.2492
  979MOL0     C32094   4.687   9.085   9.502  0.1476 -0.5927 -0.0907
  979MOL0     C32095   4.588   9.019   9.534 -0.0188 -0.2196 -0.9126
  979MOL0     C32096   5.223   9.292   8.906  0.7295  0.6535 -0.2574
  979MOL0     C32097   5.352   9.256   8.866 -1.0505  0.9720  0.8371
  979MOL0     H32098   5.680   8.833   8.892  0.9512 -0.8159 -3.4863
  979MOL0     H32099   5.897   8.735   8.836 -1.0556 -0.3034  1.3945
  979MOL0     H32100   6.346   8.909   8.887  1.4504  4.0285  2.0112
  979MOL0     H32101   6.233   8.970   9.005  0.4925  1.1182 -0.6859
  979MOL0     H32102   6.195   8.751   9.071  0.4451 -2.2768  0.1549
  979MOL0     H32103   6.313   8.674   8.948  0.9334 -0.6329  0.2821
  979MOL0     H32104   6.500   8.777   9.020 -0.1561 -0.0730 -1.4778
  979MOL0     H32105   6.415   8.874   9.140 -1.3575  1.0729 -2.8356
  979MOL0     H32106   6.359   8.648   9.260 -2.2706  0.2058 -0.8959
  979MOL0     H32107   6.422   8.561   9.126  1.0421  2.3812 -1.9313
  979MOL0     H32108   6.565   8.585   9.334  2.6511  1.2207  2.0294
  979MOL0     H32109   6.651   8.631   9.198 -0.1305  0.9274 -0.9022
  979MOL0     H32110   6.605   8.868   9.261  1.8172  0.3541  0.6711
  979MOL0     H32111   6.484   8.825   9.378  0.1335  0.2424  0.8463
  979MOL0     H32112   6.782   8.786   9.364 -1.3620  2.7584 -0.8760
  979MOL0     H32113   6.718   8.900   9.462  1.6176  0.7247  0.9420
  979MOL0     H32114   6.699   8.607   9.509  2.5046  1.0663 -1.8349
  979MOL0     H32115   6.597   8.715   9.615 -3.2100  3.1957 -4.0162
  979MOL0     H32116   6.791   8.895   9.734 -0.1010 -1.3865 -0.5478
  979MOL0     H32117   7.091   8.766   9.952  2.5116 -0.8453 -1.2960
  979MOL0     H32118   7.127   8.891   9.834  1.2934 -0.7710  0.7060
  979MOL0     H32119   6.954   9.025   9.884  2.4868  0.8333  1.0244
  979MOL0     H32120   7.069   8.999  10.014  1.0549  1.3598  0.0660
  979MOL0     H32121   6.920   8.880  10.163  0.7277  1.4043  0.5025
  979MOL0     H32122   6.835   8.810  10.032 -0.4807 -0.1344 -0.9366
  979MOL0     H32123   6.817   9.092  10.146 -1.6740 -3.0680  3.4378
  979MOL0     H32124   6.697   8.976  10.151 -0.8168 -1.5953 -1.4474
  979MOL0     H32125   6.564   9.153   9.766 -2.3910  0.6769 -0.3141
  979MOL0     H32126   6.401   8.983   9.519  0.9320  0.8149  0.2630
  979MOL0     H32127   6.273   9.056   9.608  0.2505 -0.4753 -0.4179
  979MOL0     H32128   6.410   9.150   9.586 -2.3285  0.1371 -2.0629
  979MOL0     H32129   6.172   8.482   9.763 -0.6234  0.9900  2.1930
  979MOL0     H32130   5.984   8.354   9.695 -2.0333 -1.1274  0.4264
  979MOL0     H32131   5.854   8.360   9.477 -0.5753  2.5463 -2.0691
  979MOL0     H32132   5.763   8.268   9.593 -2.3523 -1.8580 -2.0746
  979MOL0     H32133   5.533   8.324   9.473 -0.1830  5.5826  1.9679
  979MOL0     H32134   5.633   8.428   9.376  0.5684 -0.4026  0.2641
  979MOL0     H32135   5.764   8.275   9.275 -0.4330  3.0073  0.0803
  979MOL0     H32136   5.599   8.287   9.224 -1.4417  1.9238  1.5694
  979MOL0     H32137   5.727   8.072   9.409  0.6364 -1.2869  0.7207
  979MOL0     H32138   5.559   8.079   9.382 -0.2310  2.8348 -0.3726
  979MOL0     H32139   5.769   8.031   9.181  0.9152 -4.9769 -1.0239
  979MOL0     H32140   5.597   8.062   9.137  1.9464  3.7898 -0.8863
  979MOL0     H32141   5.716   7.846   9.298 -1.4726  0.4752  0.5483
  979MOL0     H32142   5.540   7.854   9.283  2.1456 -0.4256  2.8243
  979MOL0     H32143   5.729   7.780   9.052 -0.7266  1.3451 -1.2048
  979MOL0     H32144   5.586   7.854   9.016  2.5708 -0.4274 -1.0764
  979MOL0     H32145   5.454   7.689   9.100 -0.4927 -0.0669  0.3183
  979MOL0     H32146   5.564   7.644   9.224  2.4110  0.2494  0.6230
  979MOL0     H32147   5.743   8.719   9.666  1.0625  0.8827 -1.2711
  979MOL0     H32148   5.930   8.840   9.782  1.9239 -0.0056  0.6259
  979MOL0     H32149   6.396   8.734   9.946 -1.5052  0.0531 -1.1147
  979MOL0     H32150   6.589   8.834  10.054  1.2264  1.0206 -0.2107
  979MOL0     H32151   6.088   9.109   8.912 -0.1983 -0.1929  2.9031
  979MOL0     H32152   5.871   9.199   8.984 -1.0856  0.4205 -1.0182
  979MOL0     H32153   5.432   9.068   9.140 -0.1380 -0.7423  1.2688
  979MOL0     H32154   5.196   9.094   9.185 -0.5695 -0.8714 -0.6075
  979MOL0     H32155   4.859   9.118   9.025  2.4322 -4.1444 -0.6356
  979MOL0     H32156   4.986   9.068   9.136 -0.5093  0.0433 -0.2109
  979MOL0     H32157   4.793   9.312   9.177 -0.4326  0.2836  1.1395
  979MOL0     H32158   4.927   9.289   9.288 -2.9784  1.8122  1.4949
  979MOL0     H32159   4.851   9.038   9.296  1.7737  1.6937 -1.5514
  979MOL0     H32160   4.687   9.125   9.252 -0.1954 -0.1851 -1.6998
  979MOL0     H32161   4.771   9.274   9.460 -0.8563 -0.9141  2.1997
  979MOL0     H32162   4.879   9.129   9.486 -1.0510  1.0173  0.8752
  979MOL0     H32163   4.500   8.963   9.559  0.0383  0.1501  0.1307
  979MOL0     H32164   5.155   9.360   8.856 -0.0119 -1.0850 -1.7342
  979MOL0     H32165   5.382   9.297   8.770  0.3041 -2.1810 -0.2143
  980MOL0     O32166   0.074   1.475   9.113 -0.5404  0.3713  0.4987
  980MOL0     C32167   0.169   1.471   9.198  0.8833  0.4872 -0.7557
  980MOL0     O32168   0.219   1.356   9.251 -0.1848 -0.2237 -0.3090
  980MOL0     C32169   0.164   1.243   9.212  0.6085 -1.0159  0.4214
  980MOL0     C32170   0.036   1.202   9.266  0.3377  0.2310 -0.6277
  980MOL0     C32171  -0.027   1.083   9.228  0.0303 -1.3973  0.3574
  980MOL0     C32172   0.028   1.004   9.128 -0.2040 -0.0815  1.0797
  980MOL0     O32173  -0.020   0.884   9.078  0.6268  0.8159 -0.3425
  980MOL0     C32174  -0.139   0.903   9.003 -0.2064 -0.1048  0.4182
  980MOL0     C32175  -0.243   0.797   9.017  1.6853 -0.2435  0.4343
  980MOL0     C32176  -0.279   0.768   9.169 -0.7955  0.1421  0.1985
  980MOL0     C32177  -0.369   0.869   9.228 -0.2464 -0.3382 -0.5111
  980MOL0     C32178  -0.419   0.828   9.373 -0.5811  0.0946 -0.8696
  980MOL0     C32179  -0.505   0.701   9.380  0.3203  0.1939 -0.0888
  980MOL0     C32180  -0.586   0.710   9.510  0.8474  0.5172 -0.2616
  980MOL0     C32181  -0.532   0.606   9.617  0.7188 -0.3258  0.2158
  980MOL0     N32182  -0.615   0.624   9.746  0.1819  0.2752  0.8188
  980MOL0     C32183  -0.744   0.589   9.766  0.5520 -0.6034  0.6325
  980MOL0     C32184  -0.776   0.669   9.872 -0.5704 -0.2838  0.5260
  980MOL0     C32185  -0.921   0.673   9.923 -0.9371 -0.0051  0.2676
  980MOL0     C32186  -0.963   0.545   9.986 -0.3281  0.1949  0.0810
  980MOL0     C32187  -1.078   0.565  10.090  0.6220 -0.6946 -0.1432
  980MOL0     C32188  -1.027   0.642  10.213 -0.4393  0.9935 -0.7921
  980MOL0     O32189  -1.144   0.630  10.294  0.5671 -0.5329 -0.8988
  980MOL0     C32190  -1.156   0.703  10.413 -0.1930 -0.1559 -0.8334
  980MOL0     C32191  -1.049   0.763  10.483 -0.2133  0.2577  0.2714
  980MOL0     C32192  -1.073   0.842  10.598  0.5767 -0.0318  0.8394
  980MOL0     C32193  -0.958   0.902  10.672  0.1933  0.0312  0.1538
  980MOL0     C32194  -1.205   0.861  10.643  0.4024 -0.2003 -0.2673
  980MOL0     C32195  -1.244   0.944  10.752  0.5131 -0.5375  0.0926
  980MOL0     O32196  -1.177   1.075  10.767  0.1078  0.2423  0.2638
  980MOL0     C32197  -1.218   1.146  10.874  1.1389  0.5353 -0.2590
  980MOL0     C32198  -1.140   1.173  10.987 -0.3380  0.4875  1.1065
  980MOL0     C32199  -1.183   1.259  11.088  0.1284  0.0940  0.1453
  980MOL0     C32200  -1.306   1.322  11.076  0.0329 -0.0531  0.2568
  980MOL0     O32201  -1.340   1.397  11.184  0.7035  0.3190 -0.8881
  980MOL0     C32202  -1.448   1.489  11.169  0.4836  1.3051  0.1009
  980MOL0     C32203  -1.433   1.622  11.253 -0.4792 -0.2453 -0.2083
  980MOL0     C32204  -1.337   1.714  11.177 -0.0414 -1.4461  0.3380
  980MOL0     C32205  -1.290   1.851  11.260  0.2329  0.4244 -0.2697
  980MOL0     C32206  -1.366   1.976  11.214 -0.8053  0.9190  0.9441
  980MOL0     C32207  -1.330   2.104  11.289  0.3653 -1.2650  0.3224
  980MOL0     C32208  -1.390   2.226  11.218 -0.4303 -0.6502 -0.5184
  980MOL0     C32209  -1.274   2.326  11.203 -0.1637  0.1896  0.4221
  980MOL0    Cl32210  -1.159   2.249  11.095  0.3676 -0.1123  0.5027
  980MOL0     C32211  -1.393   1.286  10.964 -0.7580  0.4244 -0.8190
  980MOL0     C32212  -1.349   1.200  10.868 -0.3499 -0.2335 -0.2545
  980MOL0     O32213  -1.342   0.903  10.825  0.0937 -0.1796 -0.2565
  980MOL0     C32214  -1.309   0.785  10.575  0.2803 -1.0309 -0.2831
  980MOL0     C32215  -1.279   0.707  10.463  0.2510  0.4343 -0.0152
  980MOL0     N32216  -0.662   0.738   9.916 -0.0753  0.0435 -0.5772
  980MOL0     N32217  -0.564   0.713   9.840 -0.6550  0.6067 -0.3553
  980MOL0     C32218   0.149   1.042   9.065 -0.3092  0.1533  0.1956
  980MOL0     C32219   0.221   1.159   9.111 -0.3564  0.0884 -0.0052
  980MOL0     C32220   0.229   1.605   9.235 -0.4445 -0.0617  0.2655
  980MOL0     C32221   0.345   1.615   9.323 -0.0066  0.2636 -0.5357
  980MOL0     C32222   0.370   1.741   9.382 -0.9863 -0.7561  0.0432
  980MOL0     C32223   0.304   1.854   9.342 -0.6087  0.1788 -0.5881
  980MOL0     O32224   0.354   1.979   9.375 -0.5288  0.4070  0.4487
  980MOL0     C32225   0.301   2.103   9.332  0.0820  0.4858  0.1586
  980MOL0     C32226   0.383   2.223   9.374  0.2599 -1.0791  0.1904
  980MOL0     C32227   0.357   2.355   9.291  0.4697 -0.1538  0.5727
  980MOL0     C32228   0.225   2.434   9.309 -0.7036 -0.2975  0.1441
  980MOL0     C32229   0.111   2.374   9.244 -0.3464  0.2257  0.2868
  980MOL0     C32230   0.020   2.311   9.189  1.1309 -0.0667  1.1719
  980MOL0     C32231   0.197   1.843   9.255  1.3142 -0.4444 -0.1116
  980MOL0     C32232   0.160   1.718   9.207  1.0427 -0.2348  0.2715
  980MOL0     H32233   0.000   1.260   9.350 -0.2322 -0.2688 -0.5164
  980MOL0     H32234  -0.121   1.068   9.280  0.0065 -0.2815  0.6580
  980MOL0     H32235  -0.187   1.000   9.023 -1.0731 -0.0580 -1.6493
  980MOL0     H32236  -0.114   0.901   8.897 -1.1703 -0.7822  0.1923
  980MOL0     H32237  -0.338   0.808   8.964  0.3745  1.0573  2.8776
  980MOL0     H32238  -0.206   0.703   8.974  1.9976 -0.8331  1.9368
  980MOL0     H32239  -0.332   0.672   9.168  0.0165 -0.3155  0.7668
  980MOL0     H32240  -0.188   0.763   9.229  0.3202 -2.6854 -1.5681
  980MOL0     H32241  -0.310   0.962   9.234  0.7494 -0.9114 -1.1243
  980MOL0     H32242  -0.458   0.898   9.172  1.4649  2.6591 -1.9788
  980MOL0     H32243  -0.342   0.805   9.447 -1.4379 -0.5918 -0.1665
  980MOL0     H32244  -0.482   0.912   9.405 -1.4520 -0.9130  0.1346
  980MOL0     H32245  -0.571   0.691   9.294 -0.1711 -1.4265  0.4425
  980MOL0     H32246  -0.441   0.613   9.394  1.0807  1.0980  2.8461
  980MOL0     H32247  -0.568   0.802   9.565 -0.4892 -0.2418  1.5325
  980MOL0     H32248  -0.691   0.688   9.488  1.1836  0.5869 -2.1347
  980MOL0     H32249  -0.424   0.611   9.635  0.7331 -2.0801  0.7810
  980MOL0     H32250  -0.546   0.500   9.595 -0.4117 -0.2421  0.4514
  980MOL0     H32251  -0.802   0.523   9.703  0.5964 -0.0570  0.0146
  980MOL0     H32252  -0.930   0.754   9.996  0.2392  0.7794 -0.4180
  980MOL0     H32253  -0.992   0.701   9.844 -0.3580 -0.4868 -0.4444
  980MOL0     H32254  -0.881   0.503  10.045  1.0903 -1.8956 -3.1075
  980MOL0     H32255  -0.982   0.469   9.909 -0.1446 -0.6380  0.8505
  980MOL0     H32256  -1.105   0.464  10.120  2.5655 -1.1312  0.2644
  980MOL0     H32257  -1.166   0.622  10.060 -0.6351 -1.3940  2.0582
  980MOL0     H32258  -0.997   0.745  10.188  1.2696  0.3853 -1.3637
  980MOL0     H32259  -0.944   0.589  10.259 -0.7876 -0.2763 -1.5758
  980MOL0     H32260  -0.954   0.744  10.434  0.6412  3.9205  0.2091
  980MOL0     H32261  -0.881   0.825  10.678 -0.6930 -0.8108  1.2419
  980MOL0     H32262  -0.915   0.997  10.640  0.6186  0.2182  1.2197
  980MOL0     H32263  -0.985   0.917  10.777 -3.4197  0.2599 -0.6848
  980MOL0     H32264  -1.040   1.131  10.997  0.2004  0.6607 -2.3183
  980MOL0     H32265  -1.127   1.297  11.172  1.2788  2.6574 -1.6343
  980MOL0     H32266  -1.445   1.520  11.065  2.4536 -1.1141 -0.6462
  980MOL0     H32267  -1.534   1.435  11.208  1.3540  0.9422  1.6077
  980MOL0     H32268  -1.533   1.668  11.257 -2.2388 -3.5130 -2.1454
  980MOL0     H32269  -1.396   1.608  11.355 -1.4633  1.3340  0.4047
  980MOL0     H32270  -1.383   1.756  11.087 -1.4254  3.3580  2.9234
  980MOL0     H32271  -1.246   1.665  11.141 -0.6001 -0.6679 -2.3228
  980MOL0     H32272  -1.312   1.834  11.366 -0.1672 -0.0750 -0.4289
  980MOL0     H32273  -1.182   1.862  11.250  0.1742  0.4146 -0.9656
  980MOL0     H32274  -1.471   1.946  11.224 -0.4502  0.0183  2.1517
  980MOL0     H32275  -1.337   1.972  11.108  2.7766 -1.2649  1.8326
  980MOL0     H32276  -1.364   2.089  11.392  1.6299  0.3927  1.0243
  980MOL0     H32277  -1.221   2.107  11.300  0.3043 -0.8486  0.8488
  980MOL0     H32278  -1.464   2.275  11.283 -2.3904 -0.4530 -2.7869
  980MOL0     H32279  -1.433   2.207  11.119  0.5540  0.4713 -1.1870
  980MOL0     H32280  -1.226   2.359  11.295  0.8902  1.5200 -0.5637
  980MOL0     H32281  -1.317   2.409  11.146  0.1894  0.1267  0.0641
  980MOL0     H32282  -1.495   1.320  10.978 -0.6602  0.5372 -0.3651
  980MOL0     H32283  -1.418   1.178  10.787 -1.0677 -2.8304  0.9540
  980MOL0     H32284  -1.413   0.797  10.604  0.6674 -1.1794  1.2689
  980MOL0     H32285  -1.363   0.666  10.407 -1.4695  4.0363 -0.3083
  980MOL0     H32286   0.194   0.979   8.988  0.1735  2.9478 -1.9988
  980MOL0     H32287   0.322   1.191   9.085 -0.2563  0.1388  0.4387
  980MOL0     H32288   0.392   1.526   9.365 -3.8003 -0.9244  1.6648
  980MOL0     H32289   0.452   1.768   9.448  0.0846 -0.3552 -1.4021
  980MOL0     H32290   0.307   2.102   9.223 -0.1224  1.9916  0.1111
  980MOL0     H32291   0.197   2.118   9.361  0.1597  0.6982  0.3339
  980MOL0     H32292   0.487   2.195   9.359 -0.2381 -2.6625 -0.5735
  980MOL0     H32293   0.370   2.244   9.481  1.5621  1.2242 -0.0545
  980MOL0     H32294   0.366   2.329   9.185 -0.7129  0.4279  0.3154
  980MOL0     H32295   0.435   2.428   9.311 -1.4309  2.6044 -1.3504
  980MOL0     H32296   0.230   2.532   9.261 -0.1489  0.3215  1.4103
  980MOL0     H32297   0.207   2.451   9.416 -0.3022 -2.2384  0.5566
  980MOL0     H32298  -0.051   2.274   9.118  0.7050  0.3349  1.3840
  980MOL0     H32299   0.147   1.934   9.221 -0.8744 -2.6434 -3.3642
  980MOL0     H32300   0.070   1.701   9.150  1.3795 -6.4726  0.9043
  981MOL0     O32301   7.791   0.204   5.067 -0.4912  0.1459  0.3965
  981MOL0     C32302   7.885   0.256   4.998  0.4322  1.4745 -0.6155
  981MOL0     O32303   7.937   0.199   4.890 -0.0673  0.7728  0.2508
  981MOL0     C32304   7.863   0.121   4.811  0.1900 -1.0190 -0.9303
  981MOL0     C32305   7.719   0.121   4.805  0.3494  1.2399 -0.2132
  981MOL0     C32306   7.659   0.031   4.711 -0.6266  0.1074  0.3674
  981MOL0     C32307   7.737  -0.039   4.609 -0.9769 -0.4044 -0.5133
  981MOL0     O32308   7.665  -0.109   4.517  0.0702  0.5706  0.6056
  981MOL0     C32309   7.739  -0.151   4.397 -0.5363 -0.4539 -0.4749
  981MOL0     C32310   7.649  -0.203   4.277  0.2452 -0.6692  0.7362
  981MOL0     C32311   7.579  -0.085   4.207 -0.1058  0.2145 -0.1198
  981MOL0     C32312   7.554  -0.112   4.052 -0.7525 -0.0272 -0.7422
  981MOL0     C32313   7.501   0.013   3.964 -0.1351  0.2368  0.5237
  981MOL0     C32314   7.591   0.135   3.968 -0.2029  0.0155 -0.0776
  981MOL0     C32315   7.724   0.105   3.904 -0.0976 -0.5223 -0.5172
  981MOL0     C32316   7.787   0.229   3.843 -0.2294  0.1204 -0.0162
  981MOL0     N32317   7.899   0.197   3.763 -0.7612  0.5196  0.6083
  981MOL0     C32318   8.015   0.272   3.777 -0.3132  0.0683  1.0242
  981MOL0     C32319   8.094   0.227   3.670  0.8115 -0.1578  0.1837
  981MOL0     C32320   8.238   0.257   3.623 -0.1044  0.6730 -0.0460
  981MOL0     C32321   8.331   0.130   3.635  0.2019 -0.1102  0.2735
  981MOL0     C32322   8.423   0.119   3.755  0.2392  0.0886  0.3577
  981MOL0     C32323   8.355   0.074   3.882  0.2038  0.4194  0.0225
  981MOL0     O32324   8.442   0.029   3.988 -0.1694  0.7664 -0.5166
  981MOL0     C32325   8.487  -0.095   3.980 -0.3834 -0.4773 -0.4701
  981MOL0     C32326   8.576  -0.131   4.089  0.2145  0.8988  0.4618
  981MOL0     C32327   8.638  -0.255   4.100  0.1174 -0.3131 -0.2613
  981MOL0     C32328   8.723  -0.286   4.221  0.7969  0.5166 -0.2452
  981MOL0     C32329   8.626  -0.345   3.988 -0.3549 -0.6618  0.4414
  981MOL0     C32330   8.710  -0.472   3.959  0.2784  0.0176 -0.0955
  981MOL0     O32331   8.793  -0.512   4.061 -0.4161 -0.7543 -0.7024
  981MOL0     C32332   8.878  -0.617   4.030 -1.0790 -0.6092 -0.8434
  981MOL0     C32333   9.007  -0.585   3.964  1.1638 -0.4449  0.2952
  981MOL0     C32334   9.078  -0.695   3.917 -0.2470 -0.3028 -0.5002
  981MOL0     C32335   9.047  -0.825   3.943 -0.1892 -0.2665  0.3800
  981MOL0     O32336   9.141  -0.925   3.909  0.6015 -0.0724  0.0122
  981MOL0     C32337   9.094  -0.994   3.793 -0.4969  0.1638 -0.0895
  981MOL0     C32338   9.192  -1.107   3.768 -0.0871 -0.3863 -0.6945
  981MOL0     C32339   9.333  -1.061   3.736  0.6689  0.0249 -0.4536
  981MOL0     C32340   9.351  -1.046   3.591  0.4848  0.9405  0.4297
  981MOL0     C32341   9.496  -1.008   3.543 -0.1956 -0.5507  0.2396
  981MOL0     C32342   9.528  -0.867   3.591 -0.3559 -0.6446 -0.1615
  981MOL0     C32343   9.658  -0.807   3.535  0.0429  0.8029 -0.1192
  981MOL0     C32344   9.682  -0.658   3.562 -0.6570  0.9669  0.8723
  981MOL0    Cl32345   9.685  -0.640   3.738  0.5543 -0.1063  0.4467
  981MOL0     C32346   8.926  -0.847   4.011 -0.2920  0.2267  0.0804
  981MOL0     C32347   8.840  -0.739   4.053  0.2338  0.3495  0.2691
  981MOL0     O32348   8.690  -0.530   3.853  0.0473 -0.4684  0.2002
  981MOL0     C32349   8.537  -0.306   3.882  0.1266 -0.1698  0.5258
  981MOL0     C32350   8.461  -0.192   3.883 -0.2855  0.0354  0.3781
  981MOL0     N32351   8.021   0.141   3.600  0.4262 -0.2285  1.1783
  981MOL0     N32352   7.908   0.123   3.654 -0.1900  0.4386  1.1316
  981MOL0     C32353   7.878  -0.035   4.633 -0.8532  0.4826  0.7248
  981MOL0     C32354   7.940   0.048   4.724  0.0299 -0.7104  0.3875
  981MOL0     C32355   7.941   0.386   5.047 -0.0786 -0.3723 -0.1821
  981MOL0     C32356   8.025   0.459   4.962 -1.1348 -0.2119  0.0889
  981MOL0     C32357   8.095   0.575   5.000  0.3706  1.0070 -0.2728
  981MOL0     C32358   8.073   0.623   5.130 -0.3804 -0.1085 -0.7911
  981MOL0     O32359   8.131   0.740   5.184  1.1580  0.9114  0.2185
  981MOL0     C32360   8.227   0.808   5.093  0.1776  0.0693  0.1451
  981MOL0     C32361   8.310   0.920   5.156 -0.4460 -0.0070 -0.0793
  981MOL0     C32362   8.350   1.030   5.052 -0.3531 -0.4602  0.7601
  981MOL0     C32363   8.410   0.987   4.921 -0.2901 -0.4975  0.4106
  981MOL0     C32364   8.490   1.097   4.846  0.3127  0.6661 -0.0107
  981MOL0     C32365   8.553   1.180   4.791 -0.0564  0.6136  0.1385
  981MOL0     C32366   7.995   0.549   5.222 -0.1967  1.2132 -0.5539
  981MOL0     C32367   7.930   0.433   5.175 -0.2141 -0.6979 -0.6415
  981MOL0     H32368   7.641   0.177   4.857 -1.3668 -0.4297 -0.8753
  981MOL0     H32369   7.550   0.030   4.703 -0.4902 -0.5134 -2.7953
  981MOL0     H32370   7.795  -0.066   4.357 -2.3551  2.1698  2.1643
  981MOL0     H32371   7.807  -0.233   4.420  0.4159  0.9682  2.1995
  981MOL0     H32372   7.723  -0.247   4.209  0.9766 -1.1519  1.8071
  981MOL0     H32373   7.573  -0.275   4.307  0.8461 -0.9087  1.7584
  981MOL0     H32374   7.476  -0.074   4.241 -1.2916 -0.2036 -3.1919
  981MOL0     H32375   7.641   0.004   4.219 -3.2003  2.3250  1.4625
  981MOL0     H32376   7.650  -0.146   4.013 -1.4999 -4.8639  0.9158
  981MOL0     H32377   7.485  -0.197   4.048 -1.8693  0.8835 -1.7208
  981MOL0     H32378   7.486  -0.009   3.858  1.5423 -1.6394  0.6307
  981MOL0     H32379   7.410   0.027   4.023 -0.1741 -2.2876  1.1716
  981MOL0     H32380   7.554   0.219   3.909  0.0348  0.2039  0.0403
  981MOL0     H32381   7.609   0.177   4.067  1.4557  0.6794 -0.6194
  981MOL0     H32382   7.787   0.065   3.984  0.0546  0.5533 -0.0812
  981MOL0     H32383   7.710   0.035   3.821  4.0913 -1.4483 -0.6716
  981MOL0     H32384   7.815   0.305   3.918  1.8537  1.2409 -1.8140
  981MOL0     H32385   7.718   0.267   3.768  0.2938  0.2440 -0.4400
  981MOL0     H32386   8.036   0.343   3.856  0.4493 -0.5499  1.3916
  981MOL0     H32387   8.241   0.302   3.523  0.4662  0.6711 -0.0358
  981MOL0     H32388   8.287   0.330   3.688  4.5951 -1.2664 -0.9480
  981MOL0     H32389   8.384   0.129   3.539  0.4319  2.7546  0.2740
  981MOL0     H32390   8.271   0.039   3.637  1.0226 -0.6996 -0.6865
  981MOL0     H32391   8.471   0.217   3.763 -0.0176  0.2895 -0.5179
  981MOL0     H32392   8.496   0.040   3.732 -0.1444  0.1364 -1.1146
  981MOL0     H32393   8.276   0.003   3.861 -0.3569  1.0740 -0.1229
  981MOL0     H32394   8.299   0.160   3.922  1.3999  2.7023 -2.8667
  981MOL0     H32395   8.580  -0.065   4.175 -2.4776  3.4329 -1.1801
  981MOL0     H32396   8.730  -0.203   4.291  0.4182 -1.1225  1.8602
  981MOL0     H32397   8.683  -0.371   4.278 -1.6614  0.6258 -1.6457
  981MOL0     H32398   8.827  -0.305   4.193  0.2620  1.1537 -2.9266
  981MOL0     H32399   9.058  -0.489   3.972 -2.1664  1.6522 -1.6118
  981MOL0     H32400   9.175  -0.680   3.871 -0.2265  1.2257 -0.0443
  981MOL0     H32401   8.995  -1.036   3.814 -0.3415 -0.3975 -0.4604
  981MOL0     H32402   9.095  -0.934   3.702 -1.1728  0.3237 -0.0004
  981MOL0     H32403   9.197  -1.178   3.852 -1.5967  0.0942 -0.1675
  981MOL0     H32404   9.145  -1.166   3.689  2.0202 -2.7771 -0.3103
  981MOL0     H32405   9.401  -1.143   3.763 -1.4675 -2.2360 -1.5045
  981MOL0     H32406   9.365  -0.970   3.786  1.4696  0.8992 -2.4426
  981MOL0     H32407   9.326  -1.144   3.550 -2.0528  2.9643 -3.5522
  981MOL0     H32408   9.283  -0.971   3.549 -2.4496 -0.2709  2.6657
  981MOL0     H32409   9.490  -0.987   3.435 -3.7907  5.2388  1.0846
  981MOL0     H32410   9.567  -1.083   3.577  0.2050 -1.5206 -2.4715
  981MOL0     H32411   9.453  -0.796   3.555 -0.0761 -0.2059  0.0980
  981MOL0     H32412   9.521  -0.859   3.700 -1.7707  1.0052 -0.3297
  981MOL0     H32413   9.660  -0.804   3.426  0.9511  1.1839 -0.1027
  981MOL0     H32414   9.745  -0.868   3.561  1.2503  1.5144 -2.2206
  981MOL0     H32415   9.609  -0.590   3.517  0.3428  0.3074 -2.0202
  981MOL0     H32416   9.768  -0.632   3.499 -0.3687 -0.0538  0.8183
  981MOL0     H32417   8.909  -0.949   4.042 -3.5571  1.8893  4.8693
  981MOL0     H32418   8.747  -0.748   4.109  1.5640  2.1006  2.9655
  981MOL0     H32419   8.522  -0.374   3.799  1.0210 -0.1222  0.3058
  981MOL0     H32420   8.384  -0.187   3.806 -1.3238 -2.9495  1.0832
  981MOL0     H32421   7.947  -0.091   4.571 -0.8238 -1.4632  2.4200
  981MOL0     H32422   8.046   0.066   4.712 -0.8416  3.7789 -4.8279
  981MOL0     H32423   8.027   0.419   4.861 -0.6145 -1.0445  0.4130
  981MOL0     H32424   8.161   0.619   4.926  2.2251 -2.5710 -0.9501
  981MOL0     H32425   8.303   0.736   5.062  0.2102 -0.2354  0.9034
  981MOL0     H32426   8.180   0.852   5.004 -0.5401  0.6925  0.8199
  981MOL0     H32427   8.398   0.884   5.211  0.0833  0.2077 -0.7769
  981MOL0     H32428   8.243   0.974   5.224 -1.6715  0.6293 -1.7347
  981MOL0     H32429   8.433   1.088   5.093  1.2692 -1.3003 -1.1406
  981MOL0     H32430   8.268   1.094   5.018 -0.3003 -1.4283 -1.3765
  981MOL0     H32431   8.336   0.966   4.843 -0.2213  1.7636 -0.3338
  981MOL0     H32432   8.463   0.892   4.933 -2.7224 -1.8814  0.7796
  981MOL0     H32433   8.592   1.264   4.736  0.9707 -0.4006 -0.7317
  981MOL0     H32434   7.992   0.568   5.328  4.9600 -3.0174  0.7584
  981MOL0     H32435   7.878   0.377   5.252 -0.9108 -1.8444 -1.9196
  982MOL0     O32436   3.352  10.780   9.833  0.2091  0.0095  0.7749
  982MOL0     C32437   3.276  10.863   9.787 -1.4195  0.0103  0.8149
  982MOL0     O32438   3.329  10.988   9.733  0.4282  0.0107  0.1766
  982MOL0     C32439   3.470  10.999   9.745  0.6804 -0.8294  0.3391
  982MOL0     C32440   3.529  11.020   9.869 -0.6225  0.7085  0.0974
  982MOL0     C32441   3.663  11.020   9.875 -0.2662 -0.2375  0.8285
  982MOL0     C32442   3.744  10.988   9.772  0.0941  0.9788  0.7012
  982MOL0     O32443   3.878  10.989   9.798 -0.3679  0.2133 -0.5357
  982MOL0     C32444   3.968  10.922   9.707  0.8121 -0.1627  0.1895
  982MOL0     C32445   4.093  10.908   9.783 -0.5593  0.1779 -0.8937
  982MOL0     C32446   4.188  10.797   9.735  0.2389  0.6825  0.4059
  982MOL0     C32447   4.306  10.792   9.827  0.0824  0.9846 -1.1953
  982MOL0     C32448   4.423  10.696   9.792 -0.3440  0.6719 -0.6727
  982MOL0     C32449   4.381  10.598   9.677  0.6133  0.1415  0.4942
  982MOL0     C32450   4.497  10.502   9.649  0.2839  0.1925 -0.1277
  982MOL0     C32451   4.501  10.389   9.547 -0.3678 -0.4090  1.3359
  982MOL0     N32452   4.378  10.323   9.512 -0.3538  0.2210 -0.9812
  982MOL0     C32453   4.256  10.384   9.477 -0.4421 -0.0045  0.2764
  982MOL0     C32454   4.170  10.274   9.470  0.3405 -0.1697  0.7067
  982MOL0     C32455   4.029  10.284   9.417 -0.0702  0.6164  0.4279
  982MOL0     C32456   3.929  10.248   9.530 -0.0249  0.3346 -1.2171
  982MOL0     C32457   3.934  10.347   9.658  0.1068 -0.5722  0.3236
  982MOL0     C32458   3.791  10.416   9.673  0.2098  0.0038  1.2612
  982MOL0     O32459   3.767  10.498   9.552 -0.1372 -1.1869  0.2969
  982MOL0     C32460   3.643  10.530   9.498 -0.2925  0.1361 -0.8389
  982MOL0     C32461   3.637  10.482   9.370  0.0156  0.2982  0.7791
  982MOL0     C32462   3.518  10.501   9.292  0.1557  0.1165 -0.9002
  982MOL0     C32463   3.519  10.426   9.163 -0.1998  0.1650 -0.5061
  982MOL0     C32464   3.419  10.578   9.358  0.6214  1.4124  0.6440
  982MOL0     C32465   3.295  10.617   9.286 -0.6935  0.3370  0.3489
  982MOL0     O32466   3.178  10.605   9.352  0.0091  0.0347  0.4214
  982MOL0     C32467   3.065  10.642   9.283  0.8407  0.2947  0.9239
  982MOL0     C32468   3.008  10.763   9.308 -0.7616 -0.3095  0.1232
  982MOL0     C32469   2.892  10.806   9.253 -0.3666 -1.1156 -0.0129
  982MOL0     C32470   2.827  10.722   9.174 -0.3183  0.8426  1.2387
  982MOL0     O32471   2.712  10.750   9.111 -0.3031  0.2851  0.2073
  982MOL0     C32472   2.656  10.882   9.127  0.1139  0.2170  0.3550
  982MOL0     C32473   2.521  10.879   9.048 -0.5255  0.2178 -0.2043
  982MOL0     C32474   2.549  10.957   8.914  0.3944 -0.0802  0.1571
  982MOL0     C32475   2.419  10.997   8.840  0.2515  0.2282 -0.2494
  982MOL0     C32476   2.320  10.888   8.811  0.0330 -0.2180 -0.2988
  982MOL0     C32477   2.386  10.790   8.714  0.1141  0.7558  0.1516
  982MOL0     C32478   2.293  10.690   8.647 -0.9859  0.3438 -0.1641
  982MOL0     C32479   2.237  10.587   8.739  0.4150 -0.7834  0.4851
  982MOL0    Cl32480   2.232  10.433   8.664 -0.2771  0.2911 -0.3842
  982MOL0     C32481   2.880  10.592   9.151  0.1640 -0.3043  0.0579
  982MOL0     C32482   3.003  10.553   9.197  0.5100 -0.7938  0.2705
  982MOL0     O32483   3.303  10.652   9.170  0.3300 -0.0545 -0.7364
  982MOL0     C32484   3.421  10.611   9.493  0.1559  0.0416  0.0194
  982MOL0     C32485   3.538  10.588   9.566  0.7230  0.9046 -0.0108
  982MOL0     N32486   4.238  10.161   9.508  0.7033 -0.3104 -0.1076
  982MOL0     N32487   4.356  10.197   9.532 -0.1695 -0.4810  0.4760
  982MOL0     C32488   3.683  10.956   9.647 -1.0326 -0.3637  0.1964
  982MOL0     C32489   3.546  10.959   9.636 -0.5304  0.5353  0.8701
  982MOL0     C32490   3.135  10.843   9.763  0.7421 -1.0247 -0.0190
  982MOL0     C32491   3.048  10.945   9.697 -0.3785  0.1593  0.3746
  982MOL0     C32492   2.910  10.916   9.677 -0.1119  0.5403  0.3577
  982MOL0     C32493   2.845  10.801   9.711 -0.5512 -0.3832 -0.4953
  982MOL0     O32494   2.709  10.796   9.690  0.0674  0.1557 -0.1861
  982MOL0     C32495   2.625  10.712   9.777  0.5477 -0.3713 -0.2748
  982MOL0     C32496   2.642  10.779   9.920  0.4557 -0.3812  0.0894
  982MOL0     C32497   2.622  10.927   9.922 -0.2166 -0.5012 -0.0301
  982MOL0     C32498   2.602  10.988  10.061  0.8836 -0.5584  0.1437
  982MOL0     C32499   2.478  10.942  10.118  0.2847  0.5112 -0.6404
  982MOL0     C32500   2.372  10.893  10.152  0.4051 -0.2769  0.2406
  982MOL0     C32501   2.925  10.697   9.756 -0.4934  0.0252  0.0056
  982MOL0     C32502   3.067  10.719   9.777  1.2039  0.2706 -1.0696
  982MOL0     H32503   3.481  11.055   9.960  1.9104 -0.5281  2.0459
  982MOL0     H32504   3.704  11.039   9.974  3.0411 -1.1316 -0.2449
  982MOL0     H32505   3.932  10.826   9.668  0.7185 -0.0969  0.1144
  982MOL0     H32506   3.993  10.993   9.627  0.5027 -0.8568 -0.5363
  982MOL0     H32507   4.146  11.003   9.790  0.7253 -0.5919  0.4059
  982MOL0     H32508   4.063  10.878   9.884  2.3724  2.5112  0.8377
  982MOL0     H32509   4.119  10.717   9.711  0.2231  1.0592 -0.8801
  982MOL0     H32510   4.214  10.830   9.634  0.0049 -2.3991 -0.7491
  982MOL0     H32511   4.342  10.894   9.847 -0.2844  0.5431  2.4476
  982MOL0     H32512   4.263  10.748   9.918 -0.4583  1.7562 -1.0620
  982MOL0     H32513   4.497  10.766   9.755 -0.4617  2.0375  1.4915
  982MOL0     H32514   4.453  10.628   9.873 -3.7617  0.7680  0.8603
  982MOL0     H32515   4.287  10.555   9.713 -0.2798  1.9897  0.5010
  982MOL0     H32516   4.370  10.654   9.583  0.0367  0.8158  0.9498
  982MOL0     H32517   4.591  10.557   9.639  0.0013  0.4579 -1.4751
  982MOL0     H32518   4.499  10.436   9.736  1.0938 -1.2207 -1.1747
  982MOL0     H32519   4.573  10.320   9.592  0.5845  1.2931  2.5559
  982MOL0     H32520   4.552  10.439   9.464 -1.6253  4.8755  3.3504
  982MOL0     H32521   4.237  10.489   9.457  1.4658  0.7013  1.8382
  982MOL0     H32522   4.023  10.393   9.401 -0.1908  0.9347  2.4551
  982MOL0     H32523   4.006  10.231   9.324  1.0396 -1.3164  1.1948
  982MOL0     H32524   3.949  10.144   9.559 -1.6538 -0.8254 -3.7681
  982MOL0     H32525   3.830  10.252   9.484 -1.2472 -0.7853  1.1337
  982MOL0     H32526   4.016  10.418   9.643  0.5705 -1.5133 -2.0125
  982MOL0     H32527   3.974  10.316   9.755  2.0431  0.3746 -0.1049
  982MOL0     H32528   3.796  10.475   9.765  0.8242  2.8876 -0.5076
  982MOL0     H32529   3.716  10.338   9.684  1.6578 -1.4787  1.1398
  982MOL0     H32530   3.723  10.426   9.332 -1.3308 -1.9009  0.8098
  982MOL0     H32531   3.422  10.377   9.155 -0.2321 -0.8259  3.6639
  982MOL0     H32532   3.540  10.481   9.071 -0.0132  0.3665 -0.3474
  982MOL0     H32533   3.587  10.342   9.177  0.7166  0.9663  0.0592
  982MOL0     H32534   3.058  10.827   9.380  1.1952 -0.8646 -0.6954
  982MOL0     H32535   2.857  10.907   9.271  0.2330 -0.3209 -2.7944
  982MOL0     H32536   2.632  10.902   9.231 -0.2153  0.7453  0.1808
  982MOL0     H32537   2.720  10.966   9.100 -2.2444  1.3353 -2.3530
  982MOL0     H32538   2.494  10.775   9.030  1.5556 -0.6049  1.0275
  982MOL0     H32539   2.451  10.931   9.114  0.7331 -1.9172  3.0809
  982MOL0     H32540   2.614  10.892   8.854  0.4239 -1.5545  1.6891
  982MOL0     H32541   2.606  11.050   8.919 -1.8948  1.5613 -2.1363
  982MOL0     H32542   2.362  11.044   8.920  0.8131 -0.5634  0.6343
  982MOL0     H32543   2.445  11.062   8.755  0.3056  0.6646  0.0995
  982MOL0     H32544   2.217  10.918   8.786 -0.3707 -2.6248 -1.8291
  982MOL0     H32545   2.308  10.819   8.895 -0.7941 -1.8437 -1.6892
  982MOL0     H32546   2.432  10.844   8.631  0.1277 -0.5039 -0.6911
  982MOL0     H32547   2.467  10.741   8.769  0.4329 -0.1049 -1.0335
  982MOL0     H32548   2.354  10.638   8.572 -0.7619 -0.3344  0.4759
  982MOL0     H32549   2.213  10.738   8.591 -0.2769  2.3559  0.4784
  982MOL0     H32550   2.141  10.631   8.768  0.7021  0.5108 -0.4033
  982MOL0     H32551   2.295  10.584   8.832  1.5144 -0.5885 -0.1769
  982MOL0     H32552   2.814  10.539   9.084 -4.3577  3.1948  1.1897
  982MOL0     H32553   3.030  10.458   9.152 -0.1084 -0.1518 -1.5633
  982MOL0     H32554   3.335  10.654   9.543 -0.6307 -1.5075  0.0517
  982MOL0     H32555   3.559  10.623   9.667  3.6277  0.2986 -0.3083
  982MOL0     H32556   3.741  10.934   9.557 -0.3991  1.3411  0.1467
  982MOL0     H32557   3.481  10.943   9.550 -1.9338  0.6322  1.8683
  982MOL0     H32558   3.081  11.045   9.672 -2.1578  0.4684 -0.9188
  982MOL0     H32559   2.845  10.998   9.647  0.0149  0.0917 -1.1856
  982MOL0     H32560   2.526  10.730   9.734 -0.2511 -1.8220  0.8287
  982MOL0     H32561   2.645  10.604   9.775 -0.8751 -0.6871  0.9343
  982MOL0     H32562   2.745  10.761   9.952  0.0771 -1.1865  0.8786
  982MOL0     H32563   2.577  10.722   9.986 -0.5338  1.2352  0.5740
  982MOL0     H32564   2.545  10.962   9.853 -0.4059  0.8912  0.8573
  982MOL0     H32565   2.705  10.984   9.880 -1.2606  0.8500 -0.3039
  982MOL0     H32566   2.589  11.096  10.049 -0.6085 -0.7565 -0.3154
  982MOL0     H32567   2.681  10.951  10.127  1.1774 -1.8533 -0.8921
  982MOL0     H32568   2.288  10.839  10.190  1.0082 -3.1140 -2.1144
  982MOL0     H32569   2.884  10.601   9.787 -1.9036  0.1852 -1.2434
  982MOL0     H32570   3.124  10.641   9.825 -0.2212  0.4437  1.0078
  983MOL0     O32571  11.356   3.451   2.058 -0.3808 -0.2266 -0.8997
  983MOL0     C32572  11.401   3.439   1.945  0.5380 -0.2654  0.1835
  983MOL0     O32573  11.481   3.342   1.903  0.1343  0.4483 -0.4049
  983MOL0     C32574  11.489   3.230   1.986  0.3027 -0.2306  0.0474
  983MOL0     C32575  11.616   3.168   2.014 -0.2768 -0.4847  0.2002
  983MOL0     C32576  11.613   3.061   2.096 -0.7165 -0.0192  0.2850
  983MOL0     C32577  11.501   2.996   2.145  0.1455 -0.9278 -0.2744
  983MOL0     O32578  11.497   2.882   2.212 -0.6425 -0.2137  0.1510
  983MOL0     C32579  11.608   2.787   2.207  0.4407  0.4863 -0.1316
  983MOL0     C32580  11.622   2.743   2.055 -0.0554  0.0193  0.0835
  983MOL0     C32581  11.507   2.649   2.008  0.9964  0.3727 -0.2264
  983MOL0     C32582  11.519   2.599   1.869  0.4477  1.0081 -0.4704
  983MOL0     C32583  11.586   2.460   1.843 -0.7622  0.0149  0.7907
  983MOL0     C32584  11.523   2.344   1.914  0.2222 -0.8125 -0.5995
  983MOL0     C32585  11.556   2.210   1.850 -0.7240 -0.3162 -0.1050
  983MOL0     C32586  11.702   2.179   1.847  0.1142 -0.6400 -0.7270
  983MOL0     N32587  11.759   2.132   1.971 -0.6979  0.1842  0.2820
  983MOL0     C32588  11.808   2.214   2.071  1.0814 -0.9106  0.6653
  983MOL0     C32589  11.831   2.129   2.170 -0.2534 -0.0708  0.1507
  983MOL0     C32590  11.868   2.173   2.313  0.3794  0.5184 -0.7128
  983MOL0     C32591  11.743   2.214   2.395 -0.5007  0.9860  0.3989
  983MOL0     C32592  11.668   2.344   2.352 -0.5555 -0.8953 -0.0884
  983MOL0     C32593  11.529   2.344   2.420  0.4741 -0.5672 -1.0282
  983MOL0     O32594  11.454   2.469   2.383  0.0709 -0.3848 -0.3516
  983MOL0     C32595  11.336   2.501   2.445  1.5902  0.2206 -0.8454
  983MOL0     C32596  11.319   2.624   2.510  0.7922 -1.2034 -0.4064
  983MOL0     C32597  11.206   2.654   2.578  0.2339  0.5130 -0.5617
  983MOL0     C32598  11.217   2.781   2.666 -0.1769 -0.8106  0.5615
  983MOL0     C32599  11.108   2.557   2.576 -0.0025 -0.2754 -0.2352
  983MOL0     C32600  10.983   2.588   2.658 -0.2809  0.2874 -0.4147
  983MOL0     O32601  10.925   2.694   2.634  0.4503  0.3800 -0.0901
  983MOL0     C32602  10.813   2.733   2.718 -0.5604  0.1922  0.0671
  983MOL0     C32603  10.704   2.790   2.664  1.0133  0.5283 -0.3937
  983MOL0     C32604  10.604   2.858   2.739 -0.3611 -0.8484  0.1926
  983MOL0     C32605  10.608   2.864   2.882  0.1942  0.1776 -0.1022
  983MOL0     O32606  10.511   2.933   2.942 -1.2672 -0.4069 -1.1275
  983MOL0     C32607  10.554   3.007   3.063 -0.5166 -0.5199 -0.8295
  983MOL0     C32608  10.680   3.105   3.044  0.5858  0.6091  0.1161
  983MOL0     C32609  10.696   3.175   3.170  0.7723  1.1554  0.2918
  983MOL0     C32610  10.602   3.300   3.203  0.2337 -0.1832 -0.2459
  983MOL0     C32611  10.619   3.424   3.123  0.0281  0.7354 -1.1548
  983MOL0     C32612  10.492   3.507   3.132  0.2991  0.7176 -1.1102
  983MOL0     C32613  10.488   3.639   3.063  0.0859 -0.1329  0.2931
  983MOL0     C32614  10.591   3.733   3.117  0.4961  0.0178  0.2000
  983MOL0    Cl32615  10.607   3.883   3.010 -0.2627 -0.3004  0.1649
  983MOL0     C32616  10.713   2.794   2.939  0.4717 -0.0763  0.5167
  983MOL0     C32617  10.822   2.742   2.865  0.1308  0.5102  0.1708
  983MOL0     O32618  10.954   2.506   2.745  0.2828  0.2047  0.1782
  983MOL0     C32619  11.115   2.438   2.510 -0.3477 -0.5456 -1.1007
  983MOL0     C32620  11.231   2.415   2.432 -0.2677  0.1859 -0.6608
  983MOL0     N32621  11.805   1.996   2.126  0.4760 -0.6435  0.6953
  983MOL0     N32622  11.766   2.003   2.004  0.3079 -0.6024  0.6093
  983MOL0     C32623  11.379   3.046   2.102  0.4062  0.2697 -1.4667
  983MOL0     C32624  11.366   3.165   2.020  0.1638  0.2002 -1.3293
  983MOL0     C32625  11.369   3.550   1.849 -0.2870 -0.0931 -0.0293
  983MOL0     C32626  11.452   3.586   1.739 -0.0398  0.1341  0.8557
  983MOL0     C32627  11.419   3.696   1.654  0.1233  0.7824  0.8500
  983MOL0     C32628  11.301   3.768   1.676  0.3296  0.7186  0.5187
  983MOL0     O32629  11.253   3.868   1.594 -0.2291  0.4561  0.7672
  983MOL0     C32630  11.340   3.943   1.511 -0.0024 -0.1306  0.1026
  983MOL0     C32631  11.378   4.067   1.579  0.5593 -0.1989 -0.2275
  983MOL0     C32632  11.270   4.179   1.584 -0.9106  0.4416  0.0121
  983MOL0     C32633  11.294   4.301   1.666  0.4044 -1.0451  0.5506
  983MOL0     C32634  11.419   4.368   1.623 -0.8539 -0.4806 -0.3448
  983MOL0     C32635  11.530   4.418   1.599 -0.3600  0.5410 -0.3615
  983MOL0     C32636  11.221   3.742   1.788 -0.5074 -0.2226 -0.3310
  983MOL0     C32637  11.253   3.634   1.868  0.0231  0.4104  0.1372
  983MOL0     H32638  11.705   3.220   1.981 -1.4393  0.5014 -1.5477
  983MOL0     H32639  11.710   3.028   2.134  1.5609  1.8200 -3.4555
  983MOL0     H32640  11.702   2.835   2.236  0.4877  2.0057 -2.5474
  983MOL0     H32641  11.573   2.702   2.266 -2.7748  2.3207  0.8361
  983MOL0     H32642  11.627   2.829   1.987 -3.3065 -1.2466 -1.9984
  983MOL0     H32643  11.714   2.687   2.033 -1.2398 -0.9913 -2.8276
  983MOL0     H32644  11.489   2.570   2.081  1.9465  0.5830  0.2644
  983MOL0     H32645  11.409   2.696   2.017  0.4991  0.0332 -2.9985
  983MOL0     H32646  11.422   2.582   1.823 -1.0636 -0.4868  2.9265
  983MOL0     H32647  11.568   2.672   1.803  0.9323  1.3237  0.2278
  983MOL0     H32648  11.603   2.433   1.739  0.0457  1.8104  0.4166
  983MOL0     H32649  11.687   2.458   1.883 -0.9114  0.3802  1.1987
  983MOL0     H32650  11.563   2.347   2.015  1.3852 -1.1139 -1.0353
  983MOL0     H32651  11.416   2.368   1.916  0.9551  3.7459 -2.9526
  983MOL0     H32652  11.490   2.133   1.890 -2.2980  0.4975 -1.0205
  983MOL0     H32653  11.519   2.208   1.746 -0.7615  1.0114 -0.1308
  983MOL0     H32654  11.764   2.266   1.826  2.5804 -1.8390  1.0580
  983MOL0     H32655  11.719   2.107   1.767 -4.6475 -1.1279 -1.5796
  983MOL0     H32656  11.828   2.320   2.064  2.8578 -1.3554 -2.5701
  983MOL0     H32657  11.914   2.087   2.363 -0.0917 -0.0717 -1.2801
  983MOL0     H32658  11.947   2.248   2.302  1.2330 -0.3259 -0.4970
  983MOL0     H32659  11.779   2.221   2.498 -0.7995  2.4136  0.4347
  983MOL0     H32660  11.674   2.129   2.385  0.1655  0.0591  2.9061
  983MOL0     H32661  11.653   2.345   2.244 -3.5208 -0.0739  0.2692
  983MOL0     H32662  11.725   2.428   2.391 -1.7204 -1.3844  2.9706
  983MOL0     H32663  11.542   2.338   2.528  0.4285  2.3051 -0.7740
  983MOL0     H32664  11.461   2.266   2.384 -1.7706  1.5350 -1.6068
  983MOL0     H32665  11.396   2.698   2.492 -0.3416  0.0201 -0.3071
  983MOL0     H32666  11.130   2.809   2.726 -0.0318 -0.4442  0.6014
  983MOL0     H32667  11.291   2.767   2.746  1.2030  1.7039 -0.1598
  983MOL0     H32668  11.239   2.876   2.616 -3.5602  0.8508  1.9292
  983MOL0     H32669  10.686   2.770   2.559 -0.1116 -1.2223  0.0973
  983MOL0     H32670  10.525   2.906   2.684 -0.8256 -0.6480  1.0164
  983MOL0     H32671  10.465   3.059   3.100  2.4489  3.6839  1.1938
  983MOL0     H32672  10.581   2.930   3.136 -1.0223  0.7803  0.7852
  983MOL0     H32673  10.774   3.050   3.038  0.8224  0.9070  0.8623
  983MOL0     H32674  10.673   3.168   2.955  0.7852 -0.6168 -0.7883
  983MOL0     H32675  10.799   3.209   3.185  0.5525  1.0263  2.4220
  983MOL0     H32676  10.680   3.093   3.240  1.6874 -0.6876 -1.5860
  983MOL0     H32677  10.501   3.264   3.182 -0.2327 -0.3156  1.9856
  983MOL0     H32678  10.612   3.332   3.307  1.1430  0.4371 -0.5083
  983MOL0     H32679  10.642   3.395   3.020  1.9378  0.3284 -0.6643
  983MOL0     H32680  10.711   3.476   3.153  0.4350 -1.8801  3.0655
  983MOL0     H32681  10.414   3.456   3.074 -1.4549  1.8706  0.1153
  983MOL0     H32682  10.471   3.518   3.239  0.9291  0.3742 -0.9488
  983MOL0     H32683  10.386   3.677   3.067  0.0174 -0.3956  1.0758
  983MOL0     H32684  10.517   3.622   2.958 -2.2262 -3.5114  0.0285
  983MOL0     H32685  10.691   3.689   3.122  1.8435  2.4382 -2.3429
  983MOL0     H32686  10.569   3.764   3.220  2.4166 -0.5997  0.8440
  983MOL0     H32687  10.719   2.795   3.047  0.9706  1.5804  0.4944
  983MOL0     H32688  10.910   2.695   2.909  1.8813 -0.2062 -3.6743
  983MOL0     H32689  11.034   2.367   2.516 -3.0134  2.4044  2.5809
  983MOL0     H32690  11.226   2.322   2.375 -1.7715  1.0659 -2.0230
  983MOL0     H32691  11.291   2.989   2.130  0.6541  0.4960 -0.1521
  983MOL0     H32692  11.267   3.207   2.004  0.0186  0.7929  0.8766
  983MOL0     H32693  11.542   3.526   1.731  0.8176  1.3458  1.1137
  983MOL0     H32694  11.500   3.710   1.584 -0.1238  0.2286  0.4442
  983MOL0     H32695  11.437   3.895   1.494  0.8467  2.3168 -2.6970
  983MOL0     H32696  11.293   3.976   1.417 -0.5633  1.5354  0.9354
  983MOL0     H32697  11.468   4.105   1.529  1.3144  0.4818  1.5436
  983MOL0     H32698  11.422   4.038   1.675 -2.0725 -1.1228  0.7903
  983MOL0     H32699  11.170   4.144   1.611 -1.7023  1.4295 -1.4387
  983MOL0     H32700  11.274   4.214   1.480 -0.6054 -0.3397 -0.2461
  983MOL0     H32701  11.291   4.284   1.774  1.8403 -2.4863  0.4118
  983MOL0     H32702  11.217   4.370   1.631  1.3623 -0.8858 -1.4277
  983MOL0     H32703  11.632   4.443   1.576  0.3388  0.9687  2.6626
  983MOL0     H32704  11.139   3.804   1.824  0.0050  0.6210 -0.5838
  983MOL0     H32705  11.188   3.622   1.954  1.3021  2.2511  1.4282
  984MOL0     O32706   4.135   9.679   7.869 -0.0160 -0.3078 -0.2838
  984MOL0     C32707   4.179   9.720   7.761  1.4831  0.4503  0.9008
  984MOL0     O32708   4.114   9.703   7.645  0.9352 -0.0799  0.4892
  984MOL0     C32709   4.010   9.619   7.634  0.0357 -0.6705  0.7808
  984MOL0     C32710   3.881   9.680   7.622 -0.3337  0.1001  0.2236
  984MOL0     C32711   3.769   9.604   7.632 -0.6701  0.3651  0.6057
  984MOL0     C32712   3.766   9.466   7.650 -0.0879  0.2152 -0.1974
  984MOL0     O32713   3.647   9.402   7.649 -0.4895  0.7096 -0.6670
  984MOL0     C32714   3.633   9.277   7.583  0.4680 -0.3671 -0.5416
  984MOL0     C32715   3.561   9.183   7.681 -0.3714 -0.8558  0.6845
  984MOL0     C32716   3.474   9.076   7.611 -1.0439 -0.1308  0.1412
  984MOL0     C32717   3.531   8.931   7.607 -0.2087  1.1456 -1.1878
  984MOL0     C32718   3.431   8.819   7.556 -0.7757  0.9963  0.3090
  984MOL0     C32719   3.501   8.685   7.526 -0.1600  0.4726 -0.4393
  984MOL0     C32720   3.425   8.594   7.408 -0.2122 -0.2557  0.0040
  984MOL0     C32721   3.463   8.443   7.393 -0.6421  0.9180 -1.4028
  984MOL0     N32722   3.594   8.429   7.334  0.5284 -0.0115  0.5110
  984MOL0     C32723   3.712   8.394   7.405  0.1706  0.0224 -0.6744
  984MOL0     C32724   3.805   8.373   7.317 -0.1576  0.8342  0.3750
  984MOL0     C32725   3.945   8.330   7.331 -0.3103 -0.1578 -0.0550
  984MOL0     C32726   4.008   8.376   7.465 -0.6625 -0.4454 -0.7837
  984MOL0     C32727   4.027   8.529   7.471 -0.6011 -0.6774  1.0187
  984MOL0     C32728   4.139   8.571   7.567  0.2918 -0.4708 -0.0837
  984MOL0     O32729   4.266   8.563   7.501  0.7883  0.0930 -0.9223
  984MOL0     C32730   4.372   8.567   7.595  0.8548  0.4141 -0.5872
  984MOL0     C32731   4.461   8.464   7.606  0.0027  0.1692  0.2244
  984MOL0     C32732   4.572   8.451   7.695  0.7512  0.1927 -0.0397
  984MOL0     C32733   4.671   8.333   7.672 -0.0674 -0.7332  0.1323
  984MOL0     C32734   4.579   8.554   7.801  0.7246 -0.3760  0.6439
  984MOL0     C32735   4.686   8.552   7.890  0.2576  0.3077  0.4925
  984MOL0     O32736   4.738   8.673   7.935 -0.1088  0.2924  0.6821
  984MOL0     C32737   4.845   8.676   8.018 -0.1221  0.0374 -0.0843
  984MOL0     C32738   4.832   8.744   8.146  0.1538  1.0368  0.8290
  984MOL0     C32739   4.941   8.762   8.222  0.7832 -0.4056 -0.7722
  984MOL0     C32740   5.065   8.717   8.183 -1.1574 -0.3665 -0.5126
  984MOL0     O32741   5.165   8.744   8.284  0.8064 -0.0948  0.0682
  984MOL0     C32742   5.275   8.652   8.285  1.0943  0.3962 -0.1154
  984MOL0     C32743   5.342   8.654   8.414  0.2914 -0.0602  0.2886
  984MOL0     C32744   5.396   8.804   8.462  0.4156  0.6243  0.0802
  984MOL0     C32745   5.375   8.829   8.615 -0.6127 -0.2951  0.6882
  984MOL0     C32746   5.448   8.741   8.719  0.5399  0.6436 -0.2831
  984MOL0     C32747   5.376   8.786   8.849  1.2089 -0.9542 -0.1953
  984MOL0     C32748   5.417   8.686   8.958  0.4167  0.5047 -0.1852
  984MOL0     C32749   5.380   8.740   9.092 -0.1141 -0.0993 -0.1450
  984MOL0    Cl32750   5.210   8.790   9.079  0.7457  0.3584 -0.0487
  984MOL0     C32751   5.082   8.649   8.059  0.1170 -0.0516 -0.2688
  984MOL0     C32752   4.972   8.630   7.981  0.4012 -0.7338  0.9592
  984MOL0     O32753   4.717   8.444   7.938  0.7465  0.0687 -0.0667
  984MOL0     C32754   4.492   8.665   7.787 -0.1357  0.2679 -1.1827
  984MOL0     C32755   4.392   8.671   7.685  1.1066  0.1651 -0.2606
  984MOL0     N32756   3.756   8.404   7.188 -0.3846  0.4862  0.0290
  984MOL0     N32757   3.628   8.422   7.201  0.0577 -0.3117  0.0257
  984MOL0     C32758   3.894   9.409   7.666  0.2602 -0.5044  0.2501
  984MOL0     C32759   4.017   9.478   7.658  0.3541 -0.8833 -0.0296
  984MOL0     C32760   4.307   9.790   7.772 -0.4456 -0.4353  0.2564
  984MOL0     C32761   4.380   9.811   7.657  0.2070  0.6437  1.0847
  984MOL0     C32762   4.501   9.872   7.651 -0.2195  0.1957 -0.8694
  984MOL0     C32763   4.558   9.908   7.768  0.3367 -0.3872 -0.5706
  984MOL0     O32764   4.686   9.953   7.760 -0.1040 -0.0539  0.4095
  984MOL0     C32765   4.717  10.082   7.812 -0.6773 -0.0723 -0.0876
  984MOL0     C32766   4.724  10.185   7.703  0.4632  0.1783  0.0585
  984MOL0     C32767   4.743  10.330   7.753  0.5040  0.0166  0.6878
  984MOL0     C32768   4.843  10.341   7.872 -0.5071 -0.4270 -1.1546
  984MOL0     C32769   4.918  10.468   7.888  0.4889  0.1302 -0.7288
  984MOL0     C32770   4.969  10.576   7.891  0.2878 -1.2797  0.6408
  984MOL0     C32771   4.504   9.868   7.897  0.1830 -0.2906  0.8437
  984MOL0     C32772   4.373   9.818   7.891  0.2653 -0.3479 -1.2875
  984MOL0     H32773   3.883   9.789   7.625 -1.3391  0.1212  2.2112
  984MOL0     H32774   3.669   9.646   7.629 -1.4498 -0.9207  4.1066
  984MOL0     H32775   3.567   9.294   7.497 -2.2418 -0.1416  1.4452
  984MOL0     H32776   3.724   9.222   7.559 -1.0028 -3.6045  0.6288
  984MOL0     H32777   3.623   9.129   7.753  3.3921  1.1518 -0.7603
  984MOL0     H32778   3.506   9.258   7.738  1.3056  1.8384 -1.0163
  984MOL0     H32779   3.377   9.069   7.661  0.3924 -3.8662  2.8752
  984MOL0     H32780   3.449   9.115   7.512  0.7780  2.2632  0.5212
  984MOL0     H32781   3.625   8.916   7.552  2.1017  0.3845  2.6246
  984MOL0     H32782   3.562   8.907   7.709 -0.8763 -0.6902 -1.3887
  984MOL0     H32783   3.338   8.806   7.611 -0.6310  2.8862  1.0673
  984MOL0     H32784   3.412   8.848   7.453  1.8282 -1.8762 -1.1332
  984MOL0     H32785   3.602   8.700   7.486  1.2895 -3.7411  1.0319
  984MOL0     H32786   3.519   8.636   7.622 -0.1558  0.0903 -0.6330
  984MOL0     H32787   3.321   8.600   7.439 -0.2353  1.3898 -0.2924
  984MOL0     H32788   3.443   8.650   7.316  1.1820  2.3075  1.7242
  984MOL0     H32789   3.394   8.394   7.323  0.7827 -0.3767 -1.9466
  984MOL0     H32790   3.458   8.384   7.485 -0.1415 -2.2622 -3.2825
  984MOL0     H32791   3.728   8.393   7.513 -1.5645 -1.3235 -0.3874
  984MOL0     H32792   3.947   8.220   7.335 -2.7381 -0.2782 -0.3942
  984MOL0     H32793   4.003   8.356   7.242  2.7124 -3.0747  0.8325
  984MOL0     H32794   4.104   8.324   7.474 -0.1317 -0.3350 -4.5250
  984MOL0     H32795   3.940   8.348   7.547 -0.5523  0.6744 -0.2919
  984MOL0     H32796   3.933   8.578   7.498 -0.6213 -1.1367  1.8341
  984MOL0     H32797   4.052   8.560   7.369  1.2314 -2.5543  0.8310
  984MOL0     H32798   4.142   8.510   7.658  2.0919  1.0331  0.9658
  984MOL0     H32799   4.119   8.676   7.591 -2.0506 -0.9595  0.2836
  984MOL0     H32800   4.446   8.396   7.523  3.0407  0.5396 -0.7542
  984MOL0     H32801   4.686   8.313   7.566  2.3555  2.1883 -0.2088
  984MOL0     H32802   4.767   8.377   7.701 -0.1020  0.7003 -1.7556
  984MOL0     H32803   4.632   8.247   7.727  0.2681 -1.4488 -0.7263
  984MOL0     H32804   4.733   8.775   8.179 -0.7725  0.3753 -1.1608
  984MOL0     H32805   4.920   8.799   8.322 -0.9275  2.0554 -1.9285
  984MOL0     H32806   5.257   8.545   8.268  0.8367 -0.0933  2.8044
  984MOL0     H32807   5.348   8.677   8.208 -1.2865  1.1005 -2.2996
  984MOL0     H32808   5.274   8.617   8.492 -2.1610  1.4179 -1.0333
  984MOL0     H32809   5.430   8.594   8.389  2.7937  4.6227 -3.9627
  984MOL0     H32810   5.343   8.883   8.409  1.6177 -0.2176 -2.5408
  984MOL0     H32811   5.501   8.799   8.431  0.5645 -0.2780  0.6773
  984MOL0     H32812   5.405   8.934   8.627  0.1131 -0.4562  0.3874
  984MOL0     H32813   5.266   8.826   8.620 -0.6702  0.0312 -0.1143
  984MOL0     H32814   5.555   8.765   8.719  0.2316  2.2524  1.2090
  984MOL0     H32815   5.432   8.635   8.700  2.5857 -0.0114  1.2678
  984MOL0     H32816   5.410   8.888   8.867 -2.5297  0.9762 -2.7767
  984MOL0     H32817   5.268   8.793   8.835  1.1719  0.8086  0.6888
  984MOL0     H32818   5.526   8.681   8.953  0.5918 -0.2298  2.7398
  984MOL0     H32819   5.379   8.583   8.953 -1.2832  0.9628  1.9899
  984MOL0     H32820   5.435   8.830   9.120 -2.8866  0.9658  2.3490
  984MOL0     H32821   5.389   8.660   9.166  0.9827  2.6280  2.8982
  984MOL0     H32822   5.176   8.601   8.036 -1.3271 -2.5258 -1.3553
  984MOL0     H32823   4.974   8.585   7.882 -3.1940  2.9040 -1.0572
  984MOL0     H32824   4.511   8.755   7.845  0.3770  0.3912 -1.5297
  984MOL0     H32825   4.315   8.747   7.689  1.3694  0.7643 -3.5952
  984MOL0     H32826   3.900   9.307   7.704  0.9065 -0.7747 -0.5478
  984MOL0     H32827   4.113   9.427   7.655 -0.2071 -2.1333 -4.3563
  984MOL0     H32828   4.338   9.795   7.558  0.4847  1.3316  0.8460
  984MOL0     H32829   4.548   9.885   7.554 -0.9526 -0.2845 -1.3060
  984MOL0     H32830   4.658  10.113   7.899 -0.4557 -1.1547  0.4627
  984MOL0     H32831   4.820  10.077   7.848 -0.9578 -0.6718  0.6694
  984MOL0     H32832   4.629  10.185   7.648  0.4458 -1.6393  0.0195
  984MOL0     H32833   4.808  10.148   7.644  2.5121  1.9574  1.7026
  984MOL0     H32834   4.650  10.386   7.765  0.9209  0.9161 -0.0891
  984MOL0     H32835   4.787  10.374   7.663 -0.4398 -0.1759  0.1194
  984MOL0     H32836   4.919  10.262   7.874 -1.5939 -1.5397  1.0691
  984MOL0     H32837   4.792  10.335   7.969  1.5298  0.1017  0.0115
  984MOL0     H32838   5.013  10.673   7.907 -0.1682 -1.3673  2.6493
  984MOL0     H32839   4.565   9.895   7.982 -1.0637 -1.9225  2.3283
  984MOL0     H32840   4.331   9.787   7.986 -1.2083  2.2109 -1.0316
  985MOL0     O32841   0.059   3.767   4.840 -0.0258 -0.3967  0.4379
  985MOL0     C32842   0.125   3.805   4.936  0.8558 -0.2015 -0.7863
  985MOL0     O32843   0.264   3.828   4.936 -0.2791 -0.8315 -0.4031
  985MOL0     C32844   0.334   3.830   4.818 -0.8632 -0.4000 -0.7841
  985MOL0     C32845   0.332   3.720   4.727 -0.4978 -0.2453 -0.7412
  985MOL0     C32846   0.426   3.739   4.628  0.1196 -0.1770  0.4406
  985MOL0     C32847   0.495   3.853   4.584 -1.3215  0.1106  0.1773
  985MOL0     O32848   0.568   3.868   4.468  0.1456 -0.6594 -0.2759
  985MOL0     C32849   0.572   3.779   4.355 -0.0188 -0.1597  0.5866
  985MOL0     C32850   0.445   3.791   4.274 -0.0653 -0.1565 -0.8142
  985MOL0     C32851   0.473   3.739   4.137 -0.6869 -0.2679  0.0870
  985MOL0     C32852   0.492   3.582   4.148  0.1059 -0.5414 -0.0106
  985MOL0     C32853   0.544   3.525   4.018 -0.2235 -0.4708 -0.1098
  985MOL0     C32854   0.695   3.499   4.020 -0.2987 -0.0077 -0.4007
  985MOL0     C32855   0.729   3.446   3.876 -0.1080 -0.1351  0.4339
  985MOL0     C32856   0.884   3.412   3.868  0.0747  0.1656 -0.3857
  985MOL0     N32857   0.960   3.522   3.812 -0.0983 -0.6979  0.1321
  985MOL0     C32858   0.941   3.659   3.812  0.2262  0.4011 -0.1855
  985MOL0     C32859   1.049   3.716   3.753  0.7901  0.6536  0.0416
  985MOL0     C32860   1.066   3.865   3.751  0.4083 -0.3081  0.0697
  985MOL0     C32861   1.167   3.919   3.646 -0.5898  0.6921  0.1319
  985MOL0     C32862   1.092   3.892   3.516  0.9823 -0.3468 -0.2270
  985MOL0     C32863   1.161   3.963   3.403  0.2551 -1.0442 -0.2237
  985MOL0     O32864   1.108   3.952   3.269 -0.1611  0.5125 -0.0666
  985MOL0     C32865   1.099   3.824   3.217  0.7801 -0.0506 -0.2391
  985MOL0     C32866   1.185   3.728   3.241  1.1848  0.2703  0.5946
  985MOL0     C32867   1.168   3.593   3.189  0.2668  0.2716 -0.0889
  985MOL0     C32868   1.281   3.497   3.207  0.5909  0.5599 -0.5022
  985MOL0     C32869   1.049   3.572   3.112  0.7902  0.2494 -0.2493
  985MOL0     C32870   1.012   3.436   3.054  0.1837  0.4645  0.2996
  985MOL0     O32871   1.063   3.321   3.104  0.0725  0.8589 -1.4798
  985MOL0     C32872   1.006   3.208   3.041 -0.9451 -0.5107 -0.2487
  985MOL0     C32873   0.898   3.133   3.093  0.3631  0.8781  0.7169
  985MOL0     C32874   0.846   3.028   3.012 -0.4037  0.4637  0.0997
  985MOL0     C32875   0.892   2.999   2.883  0.6281  0.2398  0.1869
  985MOL0     O32876   0.855   2.885   2.813  0.1926  0.1178 -0.1330
  985MOL0     C32877   0.961   2.792   2.775  0.1665  0.4428 -0.2066
  985MOL0     C32878   0.937   2.725   2.638 -0.2857  0.9359  0.1978
  985MOL0     C32879   0.807   2.647   2.647 -0.4000 -0.0230  0.2500
  985MOL0     C32880   0.802   2.539   2.543 -0.4014 -0.0755 -0.4923
  985MOL0     C32881   0.661   2.484   2.504  0.4790 -0.2043 -0.4555
  985MOL0     C32882   0.595   2.385   2.612 -0.0263  0.3776  0.2321
  985MOL0     C32883   0.687   2.277   2.665  0.1817 -0.6021 -0.8294
  985MOL0     C32884   0.621   2.179   2.770  0.0037 -0.7565  0.2528
  985MOL0    Cl32885   0.459   2.121   2.697 -0.0239  0.4222 -0.5061
  985MOL0     C32886   0.991   3.071   2.833  0.6918  0.1675 -0.4818
  985MOL0     C32887   1.045   3.177   2.908 -0.4366 -0.8529 -0.2069
  985MOL0     O32888   0.940   3.442   2.950  0.2034 -0.6557  0.2429
  985MOL0     C32889   0.955   3.678   3.094  0.0511 -0.0892 -0.8530
  985MOL0     C32890   0.980   3.803   3.142 -0.0694  0.0507  0.1513
  985MOL0     N32891   1.146   3.620   3.730  0.2120 -0.7302 -0.0556
  985MOL0     N32892   1.086   3.502   3.764 -0.0606 -0.3488  0.0737
  985MOL0     C32893   0.483   3.961   4.671  0.0541  0.0776  0.8946
  985MOL0     C32894   0.413   3.942   4.798  0.2935  0.1555 -0.0101
  985MOL0     C32895   0.049   3.834   5.062 -0.2772 -0.7377  0.2434
  985MOL0     C32896   0.116   3.919   5.164 -0.3569 -0.6632  0.0396
  985MOL0     C32897   0.047   3.945   5.283  0.2762 -0.4210 -0.0602
  985MOL0     C32898  -0.077   3.886   5.309 -0.1477 -0.8306 -0.4734
  985MOL0     O32899  -0.129   3.911   5.432 -0.1431 -0.3430  0.6086
  985MOL0     C32900  -0.275   3.934   5.425 -0.0007  0.7225  0.0860
  985MOL0     C32901  -0.297   4.006   5.552  0.6413  0.6038  0.1932
  985MOL0     C32902  -0.266   3.932   5.685  0.0574  0.1266  0.3693
  985MOL0     C32903  -0.387   3.887   5.766 -0.2875 -0.8811 -0.6784
  985MOL0     C32904  -0.454   3.995   5.843  1.1019 -0.3717  0.4938
  985MOL0     C32905  -0.513   4.081   5.898  0.3985  0.3252 -0.8511
  985MOL0     C32906  -0.146   3.815   5.213 -0.4835 -0.4342  0.9505
  985MOL0     C32907  -0.081   3.793   5.085  0.4709 -0.3502  1.0301
  985MOL0     H32908   0.300   3.621   4.758 -0.7372  0.7308  2.4874
  985MOL0     H32909   0.438   3.653   4.563  1.6841  1.3068 -1.3543
  985MOL0     H32910   0.652   3.810   4.287 -2.8453 -0.3623 -3.0671
  985MOL0     H32911   0.595   3.678   4.391 -0.8175  0.6265  3.6406
  985MOL0     H32912   0.363   3.740   4.324 -1.8647  0.8400 -2.6180
  985MOL0     H32913   0.432   3.900   4.273  1.5912  0.1543  1.5243
  985MOL0     H32914   0.385   3.759   4.076 -2.0467  1.0746  2.3566
  985MOL0     H32915   0.568   3.778   4.097 -0.8353 -3.2766 -3.9125
  985MOL0     H32916   0.573   3.564   4.220  0.8040 -0.3307 -0.7334
  985MOL0     H32917   0.394   3.547   4.181  0.3977 -1.5429 -0.1677
  985MOL0     H32918   0.499   3.426   4.009  0.4045 -1.1172  2.7548
  985MOL0     H32919   0.532   3.581   3.925  3.3504 -2.8244 -2.2162
  985MOL0     H32920   0.753   3.589   4.041 -1.3242  0.1047  2.3706
  985MOL0     H32921   0.731   3.424   4.090  1.4311  1.1003 -0.0361
  985MOL0     H32922   0.681   3.349   3.858  2.5431 -1.2437 -1.4598
  985MOL0     H32923   0.699   3.521   3.803 -0.2242  0.0322  0.6526
  985MOL0     H32924   0.902   3.314   3.823 -2.1255 -1.6898  2.4517
  985MOL0     H32925   0.932   3.387   3.964  1.3254  0.6661 -0.8579
  985MOL0     H32926   0.854   3.707   3.855 -1.8764 -2.6101 -0.7084
  985MOL0     H32927   0.967   3.911   3.739  0.2273 -1.2190 -2.6580
  985MOL0     H32928   1.108   3.898   3.846  1.9985  2.7005 -1.5326
  985MOL0     H32929   1.265   3.874   3.665 -0.3394  0.7773 -0.9288
  985MOL0     H32930   1.184   4.026   3.659  1.0469  0.2845  1.8680
  985MOL0     H32931   0.988   3.923   3.530 -0.1952 -4.3765  1.5702
  985MOL0     H32932   1.077   3.786   3.491  1.5308 -0.4843  0.0284
  985MOL0     H32933   1.259   3.914   3.402  0.8199 -0.5392  5.0135
  985MOL0     H32934   1.177   4.069   3.424  1.9633 -1.7942  2.8756
  985MOL0     H32935   1.274   3.752   3.297  2.6555  0.3404 -1.6347
  985MOL0     H32936   1.266   3.443   3.300 -0.2521 -1.3819 -1.7136
  985MOL0     H32937   1.281   3.421   3.128 -1.2156 -0.0601  0.0494
  985MOL0     H32938   1.374   3.554   3.205  0.4613  0.9386  1.6727
  985MOL0     H32939   0.847   3.149   3.188 -3.3482 -0.8148 -0.7934
  985MOL0     H32940   0.762   2.967   3.045  0.4314 -1.4318 -1.0500
  985MOL0     H32941   1.059   2.842   2.780 -0.4628  1.6306  3.2494
  985MOL0     H32942   0.970   2.710   2.848  0.3472  1.7660  1.3005
  985MOL0     H32943   0.924   2.795   2.555 -0.3077  0.1440 -0.4756
  985MOL0     H32944   1.015   2.657   2.604 -0.2537 -1.7708  4.8361
  985MOL0     H32945   0.717   2.709   2.647 -1.3644 -1.3621 -0.1299
  985MOL0     H32946   0.800   2.595   2.743  1.0412  3.7853  2.6605
  985MOL0     H32947   0.836   2.588   2.451  0.9117 -0.4925 -0.2534
  985MOL0     H32948   0.879   2.462   2.548 -1.9468 -1.6004  1.3516
  985MOL0     H32949   0.674   2.430   2.410  0.7338 -1.9046  0.5195
  985MOL0     H32950   0.601   2.575   2.487  2.5564  1.2175 -0.5529
  985MOL0     H32951   0.552   2.439   2.697 -0.8633  0.3472 -0.1594
  985MOL0     H32952   0.517   2.336   2.553 -0.4629  3.1420 -1.7100
  985MOL0     H32953   0.776   2.331   2.699 -0.8330 -0.6369  2.2213
  985MOL0     H32954   0.728   2.223   2.580  4.6763  1.8170 -0.4838
  985MOL0     H32955   0.609   2.235   2.864  0.7813 -1.5997  0.8788
  985MOL0     H32956   0.688   2.097   2.798 -0.4647 -0.3767  2.7828
  985MOL0     H32957   1.019   3.043   2.732 -0.2581 -2.1850 -0.1578
  985MOL0     H32958   1.126   3.229   2.857 -1.9460  2.6106  0.6564
  985MOL0     H32959   0.877   3.655   3.022  1.5469  0.3002 -2.6842
  985MOL0     H32960   0.903   3.877   3.124 -1.0039 -0.4650  1.8041
  985MOL0     H32961   0.554   4.043   4.678 -0.1281  0.3828 -0.5151
  985MOL0     H32962   0.426   4.013   4.879 -2.8293  0.9705 -0.1028
  985MOL0     H32963   0.214   3.962   5.150 -0.8462  0.8025  0.8514
  985MOL0     H32964   0.087   3.999   5.368  0.6329 -1.0725  0.2015
  985MOL0     H32965  -0.300   3.993   5.337  0.0559  4.1110  2.1763
  985MOL0     H32966  -0.325   3.836   5.429  0.1373  0.6621  3.7221
  985MOL0     H32967  -0.404   4.023   5.539  0.5025 -0.9077 -0.8672
  985MOL0     H32968  -0.238   4.099   5.548 -1.7952  2.2142 -1.9350
  985MOL0     H32969  -0.199   3.992   5.747  1.3945  0.5757 -1.4069
  985MOL0     H32970  -0.197   3.851   5.660 -0.2516  0.4261 -1.6704
  985MOL0     H32971  -0.363   3.806   5.835 -0.0871  0.0970  0.4465
  985MOL0     H32972  -0.468   3.859   5.698 -2.3431  0.8241  0.9110
  985MOL0     H32973  -0.544   4.171   5.948 -0.7310 -0.2762 -0.4301
  985MOL0     H32974  -0.243   3.768   5.229 -0.3657 -1.2852 -0.5916
  985MOL0     H32975  -0.147   3.755   5.008  2.1068 -2.5951  0.6380
  986MOL0     O32976   2.924   6.828   3.326  0.1263 -0.5593 -1.0257
  986MOL0     C32977   2.963   6.876   3.442  0.4029  0.5739  0.6731
  986MOL0     O32978   2.956   6.807   3.559 -0.0979 -0.2219 -0.2800
  986MOL0     C32979   2.916   6.674   3.568  0.4296 -0.5795  0.3974
  986MOL0     C32980   2.906   6.637   3.710 -0.0842 -0.2879  0.4699
  986MOL0     C32981   2.859   6.514   3.737  0.1711  0.7854  0.2021
  986MOL0     C32982   2.800   6.436   3.640  1.2944  0.6815  0.2907
  986MOL0     O32983   2.742   6.325   3.687  0.9761  0.0630 -0.2988
  986MOL0     C32984   2.660   6.239   3.609 -0.1226  0.5810 -0.5449
  986MOL0     C32985   2.544   6.195   3.691 -0.9963  0.1995 -0.0426
  986MOL0     C32986   2.445   6.114   3.605  0.3329 -0.2801 -0.1017
  986MOL0     C32987   2.486   5.970   3.574 -0.2467 -0.1380  1.3010
  986MOL0     C32988   2.384   5.889   3.492 -0.2811 -1.3662 -0.1219
  986MOL0     C32989   2.428   5.751   3.437  1.3424 -0.7848 -0.6215
  986MOL0     C32990   2.418   5.641   3.536  0.3694  0.7746 -0.8628
  986MOL0     C32991   2.450   5.499   3.492 -0.6060  0.3178 -0.3467
  986MOL0     N32992   2.406   5.397   3.597 -0.3219 -0.7111 -0.3021
  986MOL0     C32993   2.275   5.383   3.638 -0.5679  0.6335  0.2015
  986MOL0     C32994   2.275   5.270   3.708 -0.1966  0.2316  0.5041
  986MOL0     C32995   2.171   5.198   3.792 -0.0677  0.4281 -0.0040
  986MOL0     C32996   2.165   5.053   3.746 -0.7254 -0.3167 -0.4331
  986MOL0     C32997   2.148   5.016   3.596  0.2860  0.0486 -0.2101
  986MOL0     C32998   2.023   5.082   3.535  0.7035  0.4303 -0.7341
  986MOL0     O32999   1.904   5.086   3.631 -0.3576 -0.1066  0.3426
  986MOL0     C33000   1.778   5.108   3.565  0.0865  0.0144 -0.0332
  986MOL0     C33001   1.738   5.211   3.491 -0.3947  0.5483  1.3097
  986MOL0     C33002   1.610   5.236   3.445 -0.7614  0.9041 -0.2510
  986MOL0     C33003   1.579   5.343   3.354  0.2683 -0.1448 -0.2289
  986MOL0     C33004   1.518   5.129   3.478 -0.0566 -0.2414 -1.0400
  986MOL0     C33005   1.376   5.124   3.452  0.0373 -0.1810  0.7828
  986MOL0     O33006   1.357   5.156   3.325 -0.3468  0.4821 -0.0060
  986MOL0     C33007   1.284   5.079   3.242  0.3074  0.8114 -0.7803
  986MOL0     C33008   1.146   5.077   3.273  0.2647 -0.1378 -0.0828
  986MOL0     C33009   1.053   5.008   3.186  0.4356 -0.0336  0.3367
  986MOL0     C33010   1.099   4.954   3.065 -0.5152 -0.3586 -0.7774
  986MOL0     O33011   0.996   4.933   2.976  0.2104  0.4952 -0.3156
  986MOL0     C33012   1.004   4.818   2.889 -0.9770  0.5064 -0.2878
  986MOL0     C33013   0.872   4.786   2.828  0.1160  0.9184 -0.5350
  986MOL0     C33014   0.829   4.894   2.731 -0.0076 -0.2422 -0.1169
  986MOL0     C33015   0.722   4.865   2.628  0.2844  0.1887 -0.1479
  986MOL0     C33016   0.590   4.814   2.684 -0.5692  0.2354  0.0745
  986MOL0     C33017   0.510   4.719   2.596 -0.1399 -0.3116 -0.9659
  986MOL0     C33018   0.444   4.616   2.688  0.3361 -0.0342 -0.6314
  986MOL0     C33019   0.348   4.528   2.625  0.3663  1.1858  0.7712
  986MOL0    Cl33020   0.405   4.421   2.502 -0.3825  0.2327  0.0259
  986MOL0     C33021   1.238   4.951   3.037 -0.0777  0.0302  0.2124
  986MOL0     C33022   1.328   5.006   3.125  0.8227  0.3233 -1.1485
  986MOL0     O33023   1.294   5.063   3.522  0.2810  0.5907 -0.2077
  986MOL0     C33024   1.561   5.020   3.557 -0.3216  0.7966 -0.8500
  986MOL0     C33025   1.687   5.016   3.609 -0.2822  0.7788 -1.0596
  986MOL0     N33026   2.399   5.213   3.704  0.3686 -0.6145  0.0138
  986MOL0     N33027   2.480   5.284   3.643  0.6292 -1.2756  0.5698
  986MOL0     C33028   2.801   6.472   3.504  0.1671 -0.1756 -0.9275
  986MOL0     C33029   2.856   6.597   3.471  0.9429  0.6365  0.7308
  986MOL0     C33030   3.030   7.006   3.442  0.0805 -0.2910  0.1617
  986MOL0     C33031   3.012   7.096   3.330  1.0811 -0.4099 -0.8285
  986MOL0     C33032   3.073   7.224   3.337 -0.9925  0.0969  0.6490
  986MOL0     C33033   3.144   7.270   3.448 -0.5829  1.1658 -0.8067
  986MOL0     O33034   3.197   7.395   3.451  0.3017 -0.0088 -0.3600
  986MOL0     C33035   3.292   7.405   3.350  0.7596  0.3996 -1.7525
  986MOL0     C33036   3.414   7.313   3.393  0.3293 -0.9306  0.4752
  986MOL0     C33037   3.523   7.331   3.290 -0.5831 -0.1338  0.2576
  986MOL0     C33038   3.648   7.243   3.313 -1.0033 -0.2122 -0.1093
  986MOL0     C33039   3.718   7.212   3.191 -0.7320  0.7117  0.3540
  986MOL0     C33040   3.800   7.177   3.111 -1.1077  0.4660  0.1973
  986MOL0     C33041   3.148   7.182   3.555 -0.7222  0.6079 -0.4395
  986MOL0     C33042   3.102   7.047   3.552  0.0845 -0.6171  0.0431
  986MOL0     H33043   2.947   6.711   3.778 -1.2391  4.3999 -3.3122
  986MOL0     H33044   2.860   6.465   3.834 -3.3882  0.1476  0.0809
  986MOL0     H33045   2.633   6.284   3.513  5.6224  0.0975 -2.8248
  986MOL0     H33046   2.715   6.147   3.586 -0.3046 -0.1155  1.6180
  986MOL0     H33047   2.571   6.137   3.780  2.5319  0.4890 -0.7749
  986MOL0     H33048   2.497   6.289   3.721 -1.5336 -0.7965  2.5709
  986MOL0     H33049   2.353   6.097   3.661 -0.1537  0.6786 -0.6020
  986MOL0     H33050   2.431   6.167   3.510  3.8326 -1.0120 -1.1969
  986MOL0     H33051   2.569   5.979   3.503 -1.9363  0.7719 -0.6614
  986MOL0     H33052   2.505   5.911   3.664  2.7174 -2.1744 -0.4880
  986MOL0     H33053   2.292   5.887   3.552 -0.1528 -1.7575  0.0645
  986MOL0     H33054   2.348   5.943   3.404  0.5594 -0.6329 -0.0253
  986MOL0     H33055   2.365   5.725   3.352  0.6705  0.1735 -0.4291
  986MOL0     H33056   2.525   5.773   3.391  1.0914 -1.5532 -1.5586
  986MOL0     H33057   2.494   5.661   3.612 -0.0047  2.4767 -0.8982
  986MOL0     H33058   2.317   5.645   3.578 -0.2398  0.8200 -2.2765
  986MOL0     H33059   2.556   5.488   3.468 -0.6836 -0.8697 -0.2315
  986MOL0     H33060   2.389   5.476   3.404 -1.1268 -1.1030  0.3508
  986MOL0     H33061   2.187   5.447   3.635 -0.2048  1.2460  1.5855
  986MOL0     H33062   2.192   5.212   3.898  1.7672  0.2224 -0.3162
  986MOL0     H33063   2.074   5.245   3.775  1.0948  3.3571  0.9263
  986MOL0     H33064   2.089   4.997   3.802 -1.6609  0.4926 -0.8775
  986MOL0     H33065   2.255   5.001   3.780  2.2758  3.6146 -1.6990
  986MOL0     H33066   2.152   4.909   3.574  0.7225 -0.5096  2.2971
  986MOL0     H33067   2.237   5.049   3.541  0.1757  0.5737 -0.0774
  986MOL0     H33068   1.992   5.014   3.454 -0.5502  0.0082  0.0723
  986MOL0     H33069   2.041   5.181   3.492 -2.6930  0.7253 -1.7234
  986MOL0     H33070   1.823   5.275   3.471  1.1631 -2.0456 -1.1532
  986MOL0     H33071   1.545   5.312   3.254 -3.4993  2.3115  0.0951
  986MOL0     H33072   1.497   5.405   3.391 -0.1732 -1.1274  0.4715
  986MOL0     H33073   1.666   5.409   3.343 -0.8022  1.6342  1.3268
  986MOL0     H33074   1.115   5.130   3.362 -0.0561  1.8932 -1.3463
  986MOL0     H33075   0.949   5.002   3.217  0.1593 -1.9409 -0.8623
  986MOL0     H33076   1.082   4.834   2.814 -2.3583 -2.8484 -2.7074
  986MOL0     H33077   1.038   4.740   2.958 -2.3056  1.2129  1.2620
  986MOL0     H33078   0.865   4.695   2.767  2.7196  0.8029 -0.7831
  986MOL0     H33079   0.798   4.770   2.907 -0.1294  0.3398 -0.8681
  986MOL0     H33080   0.918   4.939   2.687 -0.4025  0.6427 -0.0312
  986MOL0     H33081   0.791   4.972   2.798  3.5344  2.5657 -1.0712
  986MOL0     H33082   0.705   4.952   2.565 -0.8789 -0.5288 -0.8813
  986MOL0     H33083   0.755   4.784   2.562  0.5594  1.5404 -1.7160
  986MOL0     H33084   0.522   4.891   2.720 -1.6619 -0.8058  0.3165
  986MOL0     H33085   0.622   4.762   2.775  0.7833  1.7808  0.5265
  986MOL0     H33086   0.436   4.777   2.541 -0.7069  2.0458  1.9932
  986MOL0     H33087   0.584   4.674   2.529  0.0568 -2.6205  0.6693
  986MOL0     H33088   0.386   4.672   2.762  0.1984  0.5998 -1.2161
  986MOL0     H33089   0.520   4.569   2.752  0.4372  1.9027  0.7540
  986MOL0     H33090   0.262   4.583   2.584  1.3657  0.7076 -2.2761
  986MOL0     H33091   0.310   4.458   2.700  0.4802  0.2837  0.0150
  986MOL0     H33092   1.282   4.905   2.949  2.6094 -0.0232  1.4884
  986MOL0     H33093   1.433   5.010   3.099  2.1130 -2.1813  2.7611
  986MOL0     H33094   1.500   4.932   3.578 -0.1399  0.4178 -1.8116
  986MOL0     H33095   1.720   4.939   3.678  0.3447 -0.7170 -2.9388
  986MOL0     H33096   2.772   6.394   3.434  1.4797 -4.5272  2.8875
  986MOL0     H33097   2.856   6.619   3.365 -2.0300  2.3065  0.9659
  986MOL0     H33098   2.949   7.052   3.254 -1.4635  0.3839  0.7137
  986MOL0     H33099   3.055   7.290   3.253  0.0768 -0.5339 -0.0950
  986MOL0     H33100   3.263   7.371   3.250 -0.7486  0.6196 -1.4201
  986MOL0     H33101   3.329   7.508   3.347  2.0650  0.1949  2.0551
  986MOL0     H33102   3.386   7.208   3.387  2.0144 -1.3183 -1.6288
  986MOL0     H33103   3.450   7.346   3.491  2.4079 -1.0887 -0.1888
  986MOL0     H33104   3.548   7.437   3.288  1.5645 -0.3563  4.4017
  986MOL0     H33105   3.471   7.302   3.199 -1.8598  0.5199  0.7518
  986MOL0     H33106   3.614   7.153   3.366 -0.2529 -0.2900  0.2469
  986MOL0     H33107   3.716   7.307   3.370 -0.7206  1.5650 -2.2859
  986MOL0     H33108   3.874   7.168   3.034 -1.1373 -0.4512  0.2644
  986MOL0     H33109   3.200   7.208   3.647 -2.6467 -1.6316  1.4140
  986MOL0     H33110   3.117   6.980   3.636  3.7749  2.5444  2.2301
  987MOL0     O33111   2.505   7.782   1.766 -0.1150 -0.5052 -0.0359
  987MOL0     C33112   2.612   7.810   1.818  0.1697 -0.1703 -0.6896
  987MOL0     O33113   2.616   7.901   1.917  0.2132 -0.0377 -0.7037
  987MOL0     C33114   2.546   7.898   2.031 -0.1702  0.0438 -0.8435
  987MOL0     C33115   2.597   7.984   2.134  0.3289  0.6783 -0.0704
  987MOL0     C33116   2.542   7.985   2.263 -0.1558 -0.3621 -0.2667
  987MOL0     C33117   2.424   7.911   2.292  0.8877 -0.3489  0.6839
  987MOL0     O33118   2.359   7.902   2.414  0.3128  0.1480 -0.1585
  987MOL0     C33119   2.413   7.970   2.528  0.0701  0.6333  0.4652
  987MOL0     C33120   2.307   8.008   2.632  0.7022  0.3956  1.8582
  987MOL0     C33121   2.368   8.069   2.755  0.9583 -0.7063  0.8653
  987MOL0     C33122   2.396   8.219   2.750  0.8735  0.1083  0.6524
  987MOL0     C33123   2.470   8.282   2.864  0.0200 -0.4270 -0.4584
  987MOL0     C33124   2.475   8.441   2.873 -0.9347 -0.3593  0.5090
  987MOL0     C33125   2.614   8.483   2.922 -0.4044  0.4372 -0.8576
  987MOL0     C33126   2.633   8.633   2.952  0.3339 -0.3057 -0.2692
  987MOL0     N33127   2.630   8.707   2.822  0.3553 -0.5276  0.4938
  987MOL0     C33128   2.739   8.721   2.736  0.1260  0.5144  0.6465
  987MOL0     C33129   2.709   8.817   2.643 -0.1594  0.2659 -0.0034
  987MOL0     C33130   2.803   8.875   2.542 -0.5786 -0.5553  0.4909
  987MOL0     C33131   2.937   8.909   2.607  0.4779 -0.2585 -0.0792
  987MOL0     C33132   3.001   9.027   2.537 -0.1712 -0.2277 -0.7280
  987MOL0     C33133   3.128   9.081   2.612  1.0637 -0.2515  0.2035
  987MOL0     O33134   3.241   8.999   2.580 -0.5332 -0.9454  0.3810
  987MOL0     C33135   3.300   8.910   2.671 -0.3599  0.6717 -0.1097
  987MOL0     C33136   3.434   8.886   2.643  1.7964  0.4732  0.0435
  987MOL0     C33137   3.515   8.801   2.708 -0.0751  0.6847 -0.2764
  987MOL0     C33138   3.652   8.793   2.658 -0.0804 -0.4904  0.2299
  987MOL0     C33139   3.462   8.737   2.823 -1.3503 -0.2286 -0.7034
  987MOL0     C33140   3.547   8.633   2.899  0.2038 -1.0485 -0.1398
  987MOL0     O33141   3.480   8.563   2.993 -0.4819  0.5024  0.8392
  987MOL0     C33142   3.542   8.472   3.070 -0.0057 -0.4478 -0.1778
  987MOL0     C33143   3.471   8.449   3.187 -0.2222  0.2874  0.3864
  987MOL0     C33144   3.517   8.350   3.277  0.4074 -0.7789  0.3675
  987MOL0     C33145   3.643   8.294   3.271 -0.7224 -0.0609 -1.0811
  987MOL0     O33146   3.689   8.206   3.366 -0.5748 -0.9382 -0.6433
  987MOL0     C33147   3.687   8.255   3.498 -0.0847 -0.0283  0.6897
  987MOL0     C33148   3.703   8.142   3.602  0.0877 -0.2416 -0.3540
  987MOL0     C33149   3.670   8.195   3.743 -0.5571  0.2760 -0.8237
  987MOL0     C33150   3.697   8.105   3.865 -0.3113 -0.4658  0.5997
  987MOL0     C33151   3.851   8.080   3.871  0.8700  0.4662 -0.6784
  987MOL0     C33152   3.878   8.015   4.013 -1.1407 -0.2104 -0.3950
  987MOL0     C33153   4.037   8.033   4.038 -0.3591  0.2769  0.0883
  987MOL0     C33154   4.067   8.003   4.186 -0.6017  0.0586 -0.7905
  987MOL0    Cl33155   4.019   7.831   4.237 -0.3456 -0.0317  0.1919
  987MOL0     C33156   3.720   8.325   3.158 -0.0269  0.7901  0.7016
  987MOL0     C33157   3.668   8.413   3.057  0.6910 -0.3829 -0.8390
  987MOL0     O33158   3.667   8.629   2.884 -0.1251  0.1311 -0.3503
  987MOL0     C33159   3.324   8.748   2.856  0.4701 -0.2859  0.4742
  987MOL0     C33160   3.246   8.839   2.778  0.0899  0.0264 -1.6366
  987MOL0     N33161   2.578   8.861   2.670  0.9473  0.5522 -0.8144
  987MOL0     N33162   2.534   8.792   2.779  0.5828 -0.6056  0.7489
  987MOL0     C33163   2.368   7.835   2.188  0.6995  0.0556  0.5194
  987MOL0     C33164   2.435   7.821   2.058  0.7439 -0.1088 -0.1526
  987MOL0     C33165   2.732   7.804   1.739  0.5628  0.1721 -0.2537
  987MOL0     C33166   2.853   7.861   1.785 -0.4546  0.2052  0.7921
  987MOL0     C33167   2.965   7.865   1.695 -0.4247  0.1990  0.0348
  987MOL0     C33168   2.952   7.811   1.562 -0.2929  0.1037  0.5958
  987MOL0     O33169   3.055   7.824   1.466  0.1529 -0.3605  0.4919
  987MOL0     C33170   3.173   7.906   1.481 -0.5803 -0.7503  0.0411
  987MOL0     C33171   3.274   7.863   1.383  0.0137 -0.3316  0.9577
  987MOL0     C33172   3.204   7.855   1.245  0.3123  0.1336 -0.3867
  987MOL0     C33173   3.293   7.825   1.126  0.7812  0.7988 -0.5200
  987MOL0     C33174   3.433   7.851   1.158  0.3684 -0.5484  0.1980
  987MOL0     C33175   3.546   7.887   1.185  0.0642  1.0221  0.1902
  987MOL0     C33176   2.838   7.751   1.527  0.7748 -0.2578 -0.1783
  987MOL0     C33177   2.724   7.742   1.612 -0.7003  0.7864  0.2547
  987MOL0     H33178   2.692   8.036   2.122  0.7067  0.7505  2.6338
  987MOL0     H33179   2.590   8.057   2.329  0.4040  1.1861 -2.2567
  987MOL0     H33180   2.481   7.893   2.566 -1.0327 -0.5304  0.1949
  987MOL0     H33181   2.464   8.064   2.511  0.5681  0.6880  2.0459
  987MOL0     H33182   2.236   8.081   2.594  5.5580  4.8079 -0.0152
  987MOL0     H33183   2.259   7.916   2.666 -0.0382  0.6837  1.6069
  987MOL0     H33184   2.292   8.037   2.826 -1.2168  3.2973  0.5845
  987MOL0     H33185   2.467   8.026   2.776  1.0126 -1.2147 -0.3392
  987MOL0     H33186   2.436   8.244   2.652  2.4739 -2.6433  0.4885
  987MOL0     H33187   2.297   8.265   2.754 -0.3263 -2.1542 -0.7480
  987MOL0     H33188   2.434   8.244   2.961 -1.6585  1.1514 -0.3936
  987MOL0     H33189   2.574   8.249   2.859  1.4389  3.0044  2.2770
  987MOL0     H33190   2.441   8.484   2.779 -3.6952 -0.9626  1.1493
  987MOL0     H33191   2.396   8.454   2.948 -2.6513 -0.7033 -1.1614
  987MOL0     H33192   2.632   8.430   3.017 -0.5729  0.0427 -1.0459
  987MOL0     H33193   2.683   8.460   2.840  0.1739  1.8044 -0.7941
  987MOL0     H33194   2.722   8.648   3.013 -0.3329 -1.7186  1.0971
  987MOL0     H33195   2.550   8.676   3.009  0.7298  0.1371 -0.0227
  987MOL0     H33196   2.832   8.666   2.744 -1.3721 -2.2263  0.5201
  987MOL0     H33197   2.828   8.804   2.462 -1.2384 -0.1029 -0.1213
  987MOL0     H33198   2.753   8.963   2.502  0.7527  0.2758  0.5835
  987MOL0     H33199   3.000   8.820   2.619 -1.1079 -1.1329  2.9509
  987MOL0     H33200   2.928   8.947   2.709 -2.3653 -0.7296 -0.0676
  987MOL0     H33201   2.925   9.104   2.533  0.3822  0.2888 -2.3597
  987MOL0     H33202   3.022   9.002   2.432 -0.0909  0.1081 -0.7930
  987MOL0     H33203   3.107   9.077   2.719 -2.1230 -0.3234 -0.3358
  987MOL0     H33204   3.149   9.182   2.578 -1.2020 -0.7375 -3.1812
  987MOL0     H33205   3.470   8.938   2.556  1.4552 -0.9055 -0.9613
  987MOL0     H33206   3.664   8.686   2.640  1.6607 -0.6278  1.9307
  987MOL0     H33207   3.672   8.837   2.560 -0.3324  0.9080  0.7909
  987MOL0     H33208   3.727   8.825   2.731  0.9058  0.3897 -1.1180
  987MOL0     H33209   3.369   8.485   3.200  0.7479  2.1454  4.6172
  987MOL0     H33210   3.442   8.336   3.354 -2.0314 -2.2437 -2.1345
  987MOL0     H33211   3.755   8.340   3.507 -0.5670  0.4392 -0.0356
  987MOL0     H33212   3.591   8.299   3.524  0.6938  0.8286  2.2292
  987MOL0     H33213   3.639   8.060   3.567 -1.9290  1.2128 -0.2812
  987MOL0     H33214   3.809   8.116   3.596 -0.4886 -3.0066  0.1748
  987MOL0     H33215   3.568   8.236   3.750 -1.2936 -1.3432 -1.5427
  987MOL0     H33216   3.742   8.275   3.761  1.4788 -1.4064 -1.1643
  987MOL0     H33217   3.662   8.146   3.961 -0.0009 -1.6053  1.2155
  987MOL0     H33218   3.642   8.015   3.837  0.9691 -0.9661 -0.3977
  987MOL0     H33219   3.896   8.178   3.853  3.7597 -0.9929 -2.2675
  987MOL0     H33220   3.887   8.022   3.785  0.6952  2.4958 -2.1897
  987MOL0     H33221   3.821   8.062   4.093  0.6169 -0.3077  0.9818
  987MOL0     H33222   3.850   7.911   4.032  0.0753 -0.1236  2.3500
  987MOL0     H33223   4.064   8.134   4.007  3.0067 -0.8208 -0.9885
  987MOL0     H33224   4.082   7.966   3.964  2.6551  0.2519  1.8145
  987MOL0     H33225   4.016   8.075   4.251  0.7626 -1.5651  2.3619
  987MOL0     H33226   4.174   8.017   4.209 -0.4876 -0.8364 -0.7361
  987MOL0     H33227   3.814   8.279   3.129  0.0557  1.4667 -0.1516
  987MOL0     H33228   3.733   8.418   2.971 -0.0415  1.7650 -1.3324
  987MOL0     H33229   3.279   8.694   2.939 -0.7959 -2.0899 -1.3080
  987MOL0     H33230   3.138   8.829   2.791 -0.0779  0.0914 -2.8648
  987MOL0     H33231   2.277   7.778   2.202 -0.3220  1.6399  0.5513
  987MOL0     H33232   2.397   7.757   1.979  2.0306 -3.2908  1.6348
  987MOL0     H33233   2.863   7.922   1.874  1.0119  2.9852 -1.1478
  987MOL0     H33234   3.061   7.907   1.719  1.0422 -2.7536 -0.1667
  987MOL0     H33235   3.146   8.010   1.461  1.2143 -0.0866  0.9097
  987MOL0     H33236   3.208   7.900   1.584 -1.6983  1.1431  0.5948
  987MOL0     H33237   3.304   7.764   1.419 -1.8530 -0.8315  1.2655
  987MOL0     H33238   3.361   7.928   1.379  0.7039 -1.2486 -2.8129
  987MOL0     H33239   3.168   7.957   1.232 -0.4289  0.1450  1.5399
  987MOL0     H33240   3.124   7.781   1.236  0.8087 -0.3379 -1.1155
  987MOL0     H33241   3.263   7.878   1.036  1.1329 -1.5460 -2.1155
  987MOL0     H33242   3.270   7.722   1.095 -1.3908  0.8468  0.7139
  987MOL0     H33243   3.648   7.908   1.213 -0.3707 -0.8461  3.8871
  987MOL0     H33244   2.840   7.707   1.428  1.5637 -1.5510  0.3911
  987MOL0     H33245   2.638   7.681   1.586 -0.7354  1.3485 -1.0553
  988MOL0     O33246   3.461   3.880   5.201  0.2867 -0.4751 -0.9949
  988MOL0     C33247   3.536   3.925   5.289 -0.7219  0.4369 -1.1526
  988MOL0     O33248   3.622   3.852   5.377 -0.8830  0.5286 -0.2730
  988MOL0     C33249   3.612   3.719   5.361 -0.3466  0.1233  0.0110
  988MOL0     C33250   3.648   3.650   5.243 -0.4562  0.2061  1.3291
  988MOL0     C33251   3.642   3.512   5.249  0.2686  0.9493  0.1527
  988MOL0     C33252   3.585   3.435   5.360 -0.5778 -0.4371 -0.5991
  988MOL0     O33253   3.574   3.300   5.374  1.1088  0.2279  0.6929
  988MOL0     C33254   3.679   3.220   5.310  0.5514 -0.3842 -0.2743
  988MOL0     C33255   3.660   3.066   5.330 -0.2943 -0.5012 -0.1180
  988MOL0     C33256   3.613   3.039   5.470  0.5477 -0.1415 -0.3363
  988MOL0     C33257   3.647   2.899   5.531 -0.0364 -0.0084 -0.7658
  988MOL0     C33258   3.562   2.849   5.648  0.0207  0.1127 -0.0820
  988MOL0     C33259   3.560   2.950   5.764 -0.0615 -0.3257 -0.8610
  988MOL0     C33260   3.701   2.973   5.828  0.1389 -0.7845  0.3583
  988MOL0     C33261   3.682   3.072   5.946  1.4101 -0.0430  0.1623
  988MOL0     N33262   3.792   3.090   6.038 -0.0382  0.4037  0.4976
  988MOL0     C33263   3.921   3.100   5.991 -0.1223  0.3978 -0.0027
  988MOL0     C33264   3.996   3.110   6.108 -0.2333 -1.1884  0.1319
  988MOL0     C33265   4.141   3.119   6.135 -0.4816  0.3507 -0.0388
  988MOL0     C33266   4.237   3.044   6.037 -0.3345  0.7419  0.0536
  988MOL0     C33267   4.388   3.080   6.052 -0.5176 -0.4322  0.2601
  988MOL0     C33268   4.474   3.017   5.942 -0.4520 -0.0950  0.5763
  988MOL0     O33269   4.450   3.072   5.807  0.1165  0.6084  0.4011
  988MOL0     C33270   4.505   3.013   5.697 -0.4456  0.0929  0.7550
  988MOL0     C33271   4.491   3.081   5.579  0.2577  0.2289  0.3623
  988MOL0     C33272   4.528   3.030   5.454  0.1450  0.2552  0.4402
  988MOL0     C33273   4.474   3.114   5.338 -0.2948 -0.5771  0.0137
  988MOL0     C33274   4.591   2.907   5.452  0.5491 -0.5661  0.0269
  988MOL0     C33275   4.628   2.842   5.322 -0.1030  1.0193 -0.1365
  988MOL0     O33276   4.653   2.911   5.208 -0.1821 -0.3554 -0.3213
  988MOL0     C33277   4.720   2.847   5.108  0.3381  0.6548  0.0153
  988MOL0     C33278   4.657   2.744   5.043  0.0462  0.5175  0.6381
  988MOL0     C33279   4.729   2.678   4.940 -0.9579 -0.8840  0.2963
  988MOL0     C33280   4.856   2.716   4.896  0.5651  0.2739 -0.5086
  988MOL0     O33281   4.907   2.653   4.790  0.3832 -0.8315  0.0105
  988MOL0     C33282   5.034   2.703   4.743 -0.6064 -0.6399 -0.2688
  988MOL0     C33283   5.082   2.633   4.606  0.5715 -0.0255 -0.7221
  988MOL0     C33284   5.005   2.682   4.485 -0.6272  0.0539 -0.2786
  988MOL0     C33285   4.922   2.580   4.410 -0.6261  0.7341  0.8344
  988MOL0     C33286   4.914   2.612   4.258  0.4715  0.7189  0.1062
  988MOL0     C33287   4.822   2.511   4.194 -0.3315  0.2562  0.6726
  988MOL0     C33288   4.860   2.362   4.224 -0.4927 -0.0870 -1.3477
  988MOL0     C33289   4.794   2.281   4.119  0.0972 -0.4399 -0.3235
  988MOL0    Cl33290   4.864   2.284   3.954  0.6630 -0.2520  0.2504
  988MOL0     C33291   4.919   2.820   4.962 -0.8375  0.2078 -0.0078
  988MOL0     C33292   4.852   2.881   5.070  0.2720 -0.4912  0.2227
  988MOL0     O33293   4.644   2.718   5.344 -0.1650  0.4137 -0.0025
  988MOL0     C33294   4.617   2.841   5.573  0.5023  0.4906  0.2368
  988MOL0     C33295   4.567   2.893   5.693 -0.1599 -0.2160  0.0102
  988MOL0     N33296   3.902   3.104   6.214 -0.3461 -0.0055  0.3955
  988MOL0     N33297   3.786   3.087   6.171  0.8592  0.6083 -1.2941
  988MOL0     C33298   3.528   3.509   5.470 -0.5849  0.1733 -0.2272
  988MOL0     C33299   3.548   3.651   5.472 -0.0924 -0.7085 -0.4754
  988MOL0     C33300   3.547   4.071   5.287  0.1697  1.1305  0.2458
  988MOL0     C33301   3.476   4.148   5.184  0.5056 -0.1535 -0.3877
  988MOL0     C33302   3.511   4.282   5.172  0.5567  0.2544  0.0604
  988MOL0     C33303   3.609   4.340   5.246  0.7092 -0.6427  0.0065
  988MOL0     O33304   3.634   4.478   5.236  0.6837  0.5023 -0.1833
  988MOL0     C33305   3.773   4.523   5.249  0.8793 -0.9187 -0.2058
  988MOL0     C33306   3.871   4.442   5.154  0.3596 -0.8668  0.0822
  988MOL0     C33307   3.944   4.547   5.069  0.5710  0.7018 -0.6554
  988MOL0     C33308   3.850   4.596   4.959  0.3058  0.1323 -0.8794
  988MOL0     C33309   3.798   4.728   5.001 -0.6510  0.4778  0.7270
  988MOL0     C33310   3.744   4.830   5.052  0.6910  0.4249  0.2583
  988MOL0     C33311   3.664   4.270   5.343 -0.0601 -0.5004  0.0075
  988MOL0     C33312   3.640   4.135   5.367 -0.0920  0.2754  0.4581
  988MOL0     H33313   3.684   3.705   5.157  0.0112 -0.0714  1.3436
  988MOL0     H33314   3.696   3.459   5.170 -0.6684 -3.5074  2.2128
  988MOL0     H33315   3.673   3.242   5.204  2.4443  1.2217 -0.0890
  988MOL0     H33316   3.774   3.255   5.350  0.6839  0.5066 -1.3385
  988MOL0     H33317   3.583   3.023   5.266  0.5792 -1.9895 -0.2160
  988MOL0     H33318   3.754   3.017   5.300 -1.5796 -0.1866 -5.7399
  988MOL0     H33319   3.655   3.117   5.535  4.8034 -0.0489 -2.8252
  988MOL0     H33320   3.504   3.039   5.467  0.4992 -2.5402 -0.2230
  988MOL0     H33321   3.631   2.816   5.461 -0.6731 -0.3567 -0.2299
  988MOL0     H33322   3.754   2.894   5.549 -0.1144 -1.7080 -0.5339
  988MOL0     H33323   3.464   2.832   5.601  2.1370  0.2993 -5.3121
  988MOL0     H33324   3.588   2.747   5.678  0.8925  0.3120 -0.1252
  988MOL0     H33325   3.515   3.045   5.734 -2.6411 -1.3287 -0.3893
  988MOL0     H33326   3.493   2.901   5.835 -0.9299 -0.9727 -2.0894
  988MOL0     H33327   3.751   2.881   5.858  0.9598  0.5713  3.4802
  988MOL0     H33328   3.755   3.028   5.750  0.9940  0.4854  1.8001
  988MOL0     H33329   3.603   3.022   6.003 -0.2916  3.5806  1.2334
  988MOL0     H33330   3.643   3.164   5.902 -0.7987 -0.8273  0.3329
  988MOL0     H33331   3.960   3.097   5.889  1.7647 -2.7334  0.6805
  988MOL0     H33332   4.169   3.225   6.125  1.6339  0.1559  2.5300
  988MOL0     H33333   4.163   3.082   6.236 -2.2036  0.8909  0.5602
  988MOL0     H33334   4.207   3.087   5.941  5.1508  0.3014 -2.2378
  988MOL0     H33335   4.206   2.939   6.040 -0.1891  0.7026  0.2315
  988MOL0     H33336   4.419   3.021   6.138 -0.6967 -1.0668 -0.1055
  988MOL0     H33337   4.402   3.188   6.067 -3.9453  0.3729 -1.3113
  988MOL0     H33338   4.455   2.909   5.935 -1.2283  0.1318 -1.7113
  988MOL0     H33339   4.581   3.014   5.965 -0.8710 -4.3331  3.0453
  988MOL0     H33340   4.449   3.181   5.574 -0.1811  0.0381  0.1801
  988MOL0     H33341   4.423   3.208   5.360  0.9051 -0.1146  0.9602
  988MOL0     H33342   4.557   3.155   5.280  0.7856 -1.0880  1.1411
  988MOL0     H33343   4.418   3.058   5.263  2.1010 -2.0499 -0.7671
  988MOL0     H33344   4.558   2.711   5.074  0.3444 -0.7828  0.2727
  988MOL0     H33345   4.669   2.602   4.892 -2.0697  0.4768 -0.5278
  988MOL0     H33346   5.030   2.813   4.746 -1.7908 -0.6801  0.3945
  988MOL0     H33347   5.111   2.688   4.819  0.3803  2.0232 -0.6379
  988MOL0     H33348   5.189   2.657   4.612 -0.0263  2.6764  1.7360
  988MOL0     H33349   5.076   2.524   4.618  2.3635 -0.2275 -1.2554
  988MOL0     H33350   5.084   2.727   4.425  0.8320 -1.0938  0.6977
  988MOL0     H33351   4.948   2.773   4.508 -1.7539 -0.6508 -0.1946
  988MOL0     H33352   4.977   2.486   4.420  0.2513  0.6952 -2.6985
  988MOL0     H33353   4.833   2.550   4.465  0.1578 -0.4067  1.5066
  988MOL0     H33354   5.017   2.603   4.221  0.9988  1.1702  1.4234
  988MOL0     H33355   4.881   2.715   4.245  0.4343  0.4250 -3.2399
  988MOL0     H33356   4.721   2.536   4.228 -0.5174 -1.8605  1.8002
  988MOL0     H33357   4.824   2.522   4.085 -2.2714 -2.2599  0.3030
  988MOL0     H33358   4.824   2.331   4.322  1.5285 -2.4294 -1.2198
  988MOL0     H33359   4.968   2.341   4.221 -0.3335  0.3071  0.5163
  988MOL0     H33360   4.695   2.325   4.102  1.1914  1.3512 -2.6588
  988MOL0     H33361   4.784   2.176   4.146  0.6831  0.0512  2.1021
  988MOL0     H33362   5.019   2.850   4.931 -0.7526  0.3907  0.4254
  988MOL0     H33363   4.899   2.963   5.124  1.6952  0.2773 -2.0500
  988MOL0     H33364   4.669   2.746   5.572 -0.0119  0.1561 -2.1530
  988MOL0     H33365   4.584   2.824   5.775 -2.9200 -4.0035 -2.2371
  988MOL0     H33366   3.506   3.455   5.561  0.5715  0.6467  0.3564
  988MOL0     H33367   3.506   3.708   5.555 -0.5754 -1.8664  0.0949
  988MOL0     H33368   3.384   4.102   5.149 -2.0618  1.2267  3.8224
  988MOL0     H33369   3.444   4.341   5.111  0.6478 -0.9645 -1.2737
  988MOL0     H33370   3.771   4.631   5.233 -3.4182 -0.5551  1.5217
  988MOL0     H33371   3.799   4.509   5.354  1.2735 -0.0967 -0.1836
  988MOL0     H33372   3.810   4.377   5.090 -4.8819  2.7492  0.8171
  988MOL0     H33373   3.951   4.391   5.209  0.8594 -0.4861 -0.2830
  988MOL0     H33374   4.026   4.497   5.015  0.4239  0.6315 -0.8142
  988MOL0     H33375   3.988   4.627   5.129  4.6512 -0.5564 -1.6418
  988MOL0     H33376   3.766   4.526   4.952  0.1722  0.2106 -0.1929
  988MOL0     H33377   3.903   4.610   4.865  0.0548  1.1072 -0.8865
  988MOL0     H33378   3.708   4.923   5.090 -2.8795 -1.1283  1.0656
  988MOL0     H33379   3.726   4.321   5.416  0.5009  1.1047 -1.5192
  988MOL0     H33380   3.702   4.087   5.442  1.8343  2.7188  0.5352
  989MOL0     O33381   6.314   6.101   2.270 -0.4396  0.4870  0.4645
  989MOL0     C33382   6.400   6.118   2.182  0.1826 -0.5604 -0.0886
  989MOL0     O33383   6.425   6.226   2.103  0.0233 -0.2866  0.2310
  989MOL0     C33384   6.369   6.349   2.148  0.9733  0.1026 -0.2955
  989MOL0     C33385   6.396   6.398   2.275  0.9865 -0.0746 -0.2503
  989MOL0     C33386   6.364   6.532   2.313  1.2184  0.3140  0.1987
  989MOL0     C33387   6.320   6.626   2.212  0.4373 -0.6916  0.4895
  989MOL0     O33388   6.304   6.754   2.260  0.2696 -0.5840 -0.8991
  989MOL0     C33389   6.270   6.862   2.174 -0.0010  0.4067  0.3994
  989MOL0     C33390   6.394   6.871   2.081 -0.6395 -0.4760  0.4692
  989MOL0     C33391   6.402   7.024   2.057  0.2881 -0.5709 -0.3810
  989MOL0     C33392   6.493   7.073   1.952  0.2959 -0.8085  0.1651
  989MOL0     C33393   6.637   7.017   1.952 -0.4310  0.8393 -0.0235
  989MOL0     C33394   6.713   7.080   1.827  0.3549  0.6853 -0.5819
  989MOL0     C33395   6.854   7.024   1.828 -0.5547  0.0805 -0.3785
  989MOL0     C33396   6.962   7.083   1.732 -0.4028 -0.2142 -0.7916
  989MOL0     N33397   7.029   7.184   1.811  0.3420  0.5986 -0.5490
  989MOL0     C33398   7.004   7.312   1.789  0.5869 -0.5673 -0.8710
  989MOL0     C33399   7.074   7.382   1.876 -0.4765 -0.2987 -0.5762
  989MOL0     C33400   7.084   7.530   1.889 -0.5197  1.2448  0.4957
  989MOL0     C33401   7.226   7.583   1.949  0.7374 -0.2218  0.7883
  989MOL0     C33402   7.355   7.533   1.879 -0.5602  0.6010  0.1923
  989MOL0     C33403   7.477   7.589   1.947  0.3840  0.4916 -0.0143
  989MOL0     O33404   7.482   7.728   1.915 -0.3477  0.3015  0.7348
  989MOL0     C33405   7.590   7.803   1.954 -0.3508  0.1641  0.0405
  989MOL0     C33406   7.577   7.906   2.047  0.3985  0.3570  0.0243
  989MOL0     C33407   7.686   7.970   2.104 -0.6864  0.1775 -0.3929
  989MOL0     C33408   7.667   8.060   2.219  0.1502 -0.4115 -0.2527
  989MOL0     C33409   7.820   7.926   2.069  0.4616  0.1290  0.2392
  989MOL0     C33410   7.939   8.003   2.092 -0.9602 -0.1054  0.3943
  989MOL0     O33411   8.050   7.936   2.067  0.3647 -0.4761  0.5657
  989MOL0     C33412   8.172   7.973   2.111  0.0357 -0.1506 -0.6825
  989MOL0     C33413   8.208   8.097   2.182  0.1364 -0.1237 -1.2051
  989MOL0     C33414   8.338   8.127   2.200 -0.6100  0.8714 -0.7642
  989MOL0     C33415   8.441   8.037   2.172  0.4956  0.3778 -0.1362
  989MOL0     O33416   8.570   8.074   2.189 -0.8993  0.1115 -0.5530
  989MOL0     C33417   8.638   8.101   2.060  0.1150  0.3468  0.0009
  989MOL0     C33418   8.622   8.240   2.003 -0.4158 -0.0643 -0.2338
  989MOL0     C33419   8.717   8.260   1.882 -0.1552 -0.0093  0.3175
  989MOL0     C33420   8.686   8.386   1.797  0.8982 -0.1335  1.2583
  989MOL0     C33421   8.781   8.420   1.680  0.4613 -1.3061 -0.1059
  989MOL0     C33422   8.860   8.304   1.612  0.1104 -0.1822  0.2309
  989MOL0     C33423   8.918   8.339   1.474 -1.1380  0.2001 -0.2771
  989MOL0     C33424   9.011   8.457   1.459 -0.6532  0.3295 -0.0296
  989MOL0    Cl33425   9.060   8.493   1.295  0.5875  0.3232 -0.2119
  989MOL0     C33426   8.413   7.914   2.100 -0.1289 -0.4602 -0.3929
  989MOL0     C33427   8.277   7.888   2.073  0.1194  0.5970 -1.4045
  989MOL0     O33428   7.928   8.119   2.136 -0.0296 -0.0108  0.5967
  989MOL0     C33429   7.829   7.817   1.973 -0.4487  0.0826  0.5265
  989MOL0     C33430   7.714   7.760   1.912  1.5233  0.1099 -0.2227
  989MOL0     N33431   7.146   7.297   1.961  0.3334  0.5555 -0.9718
  989MOL0     N33432   7.102   7.178   1.925  0.4737 -0.1140  0.2743
  989MOL0     C33433   6.286   6.584   2.090 -0.8606 -0.0654 -0.6476
  989MOL0     C33434   6.318   6.449   2.052 -1.3272 -0.1064 -0.3922
  989MOL0     C33435   6.486   5.995   2.161  0.9533  0.8549  0.0129
  989MOL0     C33436   6.588   5.995   2.070 -0.0620 -0.8351  0.0974
  989MOL0     C33437   6.655   5.880   2.037  0.8232 -0.0289  0.4564
  989MOL0     C33438   6.629   5.758   2.093 -0.6108 -0.8542  0.4695
  989MOL0     O33439   6.718   5.655   2.065  0.6380 -0.8111  0.3995
  989MOL0     C33440   6.671   5.523   2.085  0.3997  0.0067 -0.1735
  989MOL0     C33441   6.609   5.470   1.952  0.2815  1.3093  0.6302
  989MOL0     C33442   6.712   5.396   1.874  0.7107 -1.4130 -0.8682
  989MOL0     C33443   6.677   5.391   1.723 -0.4733 -0.1940  1.0506
  989MOL0     C33444   6.785   5.338   1.625 -0.0984 -0.4416  0.2782
  989MOL0     C33445   6.880   5.314   1.539  0.3345 -0.2458 -0.0467
  989MOL0     C33446   6.520   5.751   2.184 -0.1811  0.1614 -0.0352
  989MOL0     C33447   6.452   5.868   2.215 -0.6888 -0.5380 -0.5062
  989MOL0     H33448   6.440   6.324   2.341 -2.9943 -4.2017 -1.7330
  989MOL0     H33449   6.379   6.572   2.413 -2.0206  0.6880  0.6237
  989MOL0     H33450   6.181   6.853   2.111  2.6669  0.2791 -3.7410
  989MOL0     H33451   6.266   6.949   2.240 -0.1842  0.0288  0.8894
  989MOL0     H33452   6.489   6.847   2.129  1.8420  4.7514 -1.0571
  989MOL0     H33453   6.380   6.810   1.992 -0.3165 -0.7857  0.6265
  989MOL0     H33454   6.308   7.073   2.028 -0.3375 -0.0123  2.2439
  989MOL0     H33455   6.436   7.061   2.155  0.3911 -1.1014 -0.2158
  989MOL0     H33456   6.457   7.041   1.854  1.6825 -2.1124  0.0536
  989MOL0     H33457   6.484   7.182   1.948 -1.1946 -0.9339 -3.2429
  989MOL0     H33458   6.686   7.058   2.041 -1.0711 -0.6947  1.0788
  989MOL0     H33459   6.633   6.908   1.953  0.5354  0.7803 -0.7130
  989MOL0     H33460   6.659   7.042   1.740  0.4571 -1.4253  0.2024
  989MOL0     H33461   6.702   7.188   1.833 -4.0307  0.4768 -1.5341
  989MOL0     H33462   6.889   7.014   1.931 -0.6940 -1.6329 -0.4736
  989MOL0     H33463   6.843   6.928   1.778 -2.3532 -0.9589  1.8069
  989MOL0     H33464   6.925   7.123   1.636  0.3782  1.2255 -0.5239
  989MOL0     H33465   7.033   7.004   1.709 -2.0896 -1.3630 -2.3046
  989MOL0     H33466   6.957   7.355   1.701  2.5111  1.2032 -1.1087
  989MOL0     H33467   7.065   7.577   1.792 -0.7122 -2.9301 -1.7550
  989MOL0     H33468   7.012   7.559   1.966  0.7366 -1.0976  2.7439
  989MOL0     H33469   7.222   7.547   2.052 -0.8784 -3.2054 -0.1982
  989MOL0     H33470   7.224   7.692   1.944  1.6790 -0.2590 -1.9769
  989MOL0     H33471   7.356   7.559   1.773  0.7257 -4.4257 -1.3125
  989MOL0     H33472   7.352   7.424   1.878 -1.5473  0.6127 -1.2943
  989MOL0     H33473   7.568   7.534   1.923  0.6010  0.4626  0.8346
  989MOL0     H33474   7.471   7.572   2.055  2.2297 -1.8396 -0.2164
  989MOL0     H33475   7.476   7.933   2.080  0.2323  0.8308 -0.8321
  989MOL0     H33476   7.732   8.047   2.306  0.0003 -1.8709 -0.3332
  989MOL0     H33477   7.675   8.165   2.188 -0.5842 -0.0140  0.8384
  989MOL0     H33478   7.565   8.049   2.255  0.0277  0.1914 -0.3977
  989MOL0     H33479   8.142   8.178   2.211 -1.8301 -2.2203  0.5791
  989MOL0     H33480   8.372   8.223   2.239  1.1399  0.1066 -0.2996
  989MOL0     H33481   8.745   8.081   2.072  0.4899 -1.2968 -4.2487
  989MOL0     H33482   8.602   8.030   1.985 -1.1020 -0.8303  1.6412
  989MOL0     H33483   8.519   8.254   1.969 -1.2181  0.9749  2.3869
  989MOL0     H33484   8.642   8.314   2.081  1.0069 -0.6275 -0.0164
  989MOL0     H33485   8.714   8.174   1.815  1.4461  0.9099 -1.0395
  989MOL0     H33486   8.822   8.269   1.912  0.0967 -1.2671 -0.1313
  989MOL0     H33487   8.581   8.393   1.768  0.5056  0.2226  2.6985
  989MOL0     H33488   8.698   8.475   1.860  3.1673  1.2460 -0.9038
  989MOL0     H33489   8.845   8.505   1.707  0.2336 -0.8132 -1.0406
  989MOL0     H33490   8.711   8.465   1.609 -0.2400 -1.4373  0.5001
  989MOL0     H33491   8.942   8.277   1.680  0.2164 -2.6806 -0.7618
  989MOL0     H33492   8.788   8.222   1.615 -1.0541  0.7561 -1.0058
  989MOL0     H33493   8.845   8.363   1.396 -2.1383  3.9691  1.5599
  989MOL0     H33494   8.976   8.251   1.445  0.5984  1.0781  0.3798
  989MOL0     H33495   9.100   8.454   1.522 -1.3676  2.4579  1.2217
  989MOL0     H33496   8.953   8.537   1.506 -0.4516 -0.5709  1.8218
  989MOL0     H33497   8.497   7.856   2.063  0.3828  0.7820 -1.2179
  989MOL0     H33498   8.261   7.798   2.013  2.2587  0.4734 -1.8655
  989MOL0     H33499   7.922   7.766   1.951 -0.7346  0.5700 -2.2130
  989MOL0     H33500   7.719   7.674   1.846  0.1945 -0.0377 -0.1543
  989MOL0     H33501   6.239   6.647   2.015  0.2564  1.7168  0.0823
  989MOL0     H33502   6.298   6.417   1.950  0.4290 -0.8159 -0.5470
  989MOL0     H33503   6.615   6.079   2.006  1.7523 -0.1422  1.6671
  989MOL0     H33504   6.739   5.900   1.972  0.4602  1.7465  0.4833
  989MOL0     H33505   6.754   5.456   2.108  2.6398  2.0392 -1.8588
  989MOL0     H33506   6.601   5.505   2.167 -1.5210 -2.5461 -2.2001
  989MOL0     H33507   6.559   5.549   1.896  3.3723  2.9964  0.0368
  989MOL0     H33508   6.528   5.403   1.983 -0.5938  2.1310  0.2073
  989MOL0     H33509   6.736   5.294   1.906 -2.2047 -2.0764 -0.5633
  989MOL0     H33510   6.799   5.462   1.882  0.5836 -1.0185 -2.3556
  989MOL0     H33511   6.654   5.495   1.699 -1.6248 -0.9117 -1.3534
  989MOL0     H33512   6.591   5.325   1.712 -0.2671 -0.4613  1.0251
  989MOL0     H33513   6.953   5.301   1.461  0.4853 -1.7530  0.3053
  989MOL0     H33514   6.483   5.659   2.227 -1.6671  0.9525  0.4273
  989MOL0     H33515   6.364   5.865   2.278  0.1606  0.4730  0.7869
  990MOL0     O33516  10.073   2.689   4.664 -0.3516  0.7638 -0.4466
  990MOL0     C33517  10.070   2.804   4.627 -0.6156  0.0895  0.3207
  990MOL0     O33518  10.122   2.855   4.504  0.3814  1.7307 -0.9865
  990MOL0     C33519  10.213   2.776   4.435  0.4467  0.0460  0.9359
  990MOL0     C33520  10.160   2.686   4.341 -0.3990 -0.0930 -0.1459
  990MOL0     C33521  10.251   2.605   4.272 -0.3547 -0.0268  0.5661
  990MOL0     C33522  10.385   2.619   4.274 -0.7199 -0.2806 -0.5393
  990MOL0     O33523  10.463   2.547   4.188  0.0046  0.0499 -0.1042
  990MOL0     C33524  10.596   2.502   4.246  0.3322  0.1931 -0.3112
  990MOL0     C33525  10.669   2.426   4.129 -0.3492 -0.5096  0.3983
  990MOL0     C33526  10.656   2.278   4.151 -0.3209 -0.0573 -0.4837
  990MOL0     C33527  10.729   2.186   4.057  0.2046  0.0340  0.6066
  990MOL0     C33528  10.659   2.048   4.051 -0.1935  0.0908  0.2855
  990MOL0     C33529  10.705   1.964   3.934 -0.6714  0.0306  1.0712
  990MOL0     C33530  10.595   1.858   3.897  0.1857  0.2196 -0.4342
  990MOL0     C33531  10.618   1.764   3.781  0.7310 -0.3410 -0.5833
  990MOL0     N33532  10.681   1.830   3.656  0.7105 -0.7509  0.0828
  990MOL0     C33533  10.618   1.933   3.587 -0.3111  0.1802 -0.2485
  990MOL0     C33534  10.707   1.966   3.491  0.6761 -0.8549  0.2716
  990MOL0     C33535  10.703   2.077   3.391 -0.0771  0.0884  0.7905
  990MOL0     C33536  10.688   2.215   3.464  0.6448 -0.0721 -0.0726
  990MOL0     C33537  10.795   2.229   3.575  0.2258  0.1850 -0.2163
  990MOL0     C33538  10.754   2.348   3.672 -0.4931 -0.4345  0.4029
  990MOL0     O33539  10.860   2.357   3.775  0.0394  0.6447  0.1184
  990MOL0     C33540  10.919   2.472   3.810 -0.0797  0.1992 -0.1486
  990MOL0     C33541  10.854   2.594   3.823  0.2584  0.0233 -0.2678
  990MOL0     C33542  10.919   2.708   3.893 -0.9229 -0.6604 -0.2279
  990MOL0     C33543  10.854   2.845   3.883 -0.2101 -0.3137  1.7955
  990MOL0     C33544  11.046   2.690   3.950 -0.1274 -0.3561 -0.5487
  990MOL0     C33545  11.124   2.790   4.029 -0.0279 -0.5840 -0.0774
  990MOL0     O33546  11.258   2.791   3.994 -0.0016 -0.2981  0.3501
  990MOL0     C33547  11.345   2.875   4.057 -0.1296  0.3999  1.3454
  990MOL0     C33548  11.444   2.817   4.130 -0.5944 -0.0053 -0.2681
  990MOL0     C33549  11.535   2.892   4.213  0.8666  0.5513  0.2852
  990MOL0     C33550  11.520   3.030   4.211  1.1473 -0.1984  1.4180
  990MOL0     O33551  11.601   3.087   4.294 -0.3791 -0.0029 -0.3904
  990MOL0     C33552  11.561   3.149   4.418  0.4629 -0.5609  0.6809
  990MOL0     C33553  11.694   3.227   4.463  0.1072  0.5248  0.4157
  990MOL0     C33554  11.667   3.296   4.590 -0.0754 -0.7529  1.1510
  990MOL0     C33555  11.774   3.246   4.690 -0.3307 -0.0275 -0.2702
  990MOL0     C33556  11.754   3.332   4.815 -1.3921 -0.3125  0.9350
  990MOL0     C33557  11.645   3.287   4.914 -0.3363  0.6515 -0.6776
  990MOL0     C33558  11.636   3.384   5.034  1.1576  0.8098 -0.6927
  990MOL0     C33559  11.513   3.472   5.028 -0.0872  0.3337 -0.3283
  990MOL0    Cl33560  11.358   3.366   5.046  0.5050 -0.2012  0.6897
  990MOL0     C33561  11.425   3.093   4.126  0.5143  0.2730  0.1433
  990MOL0     C33562  11.328   3.019   4.054 -0.0861  0.3853  0.1083
  990MOL0     O33563  11.063   2.866   4.107 -0.7366  1.1490 -0.3352
  990MOL0     C33564  11.117   2.566   3.923 -0.4418  0.2009  0.8394
  990MOL0     C33565  11.054   2.468   3.851  0.4890  0.8281 -0.2949
  990MOL0     N33566  10.816   1.878   3.501  0.3644  0.1825  0.6964
  990MOL0     N33567  10.797   1.806   3.606  0.5740 -1.0931  0.7206
  990MOL0     C33568  10.428   2.723   4.363 -0.4839 -0.6912  0.4702
  990MOL0     C33569  10.351   2.796   4.452 -0.9307  0.2931  0.4204
  990MOL0     C33570  10.004   2.905   4.714  0.0558 -0.5613  0.3581
  990MOL0     C33571   9.932   2.869   4.828  0.2637  0.6678  1.4929
  990MOL0     C33572   9.870   2.967   4.904  0.1787 -0.8815 -0.3571
  990MOL0     C33573   9.895   3.108   4.875  1.2049  0.8255  0.5511
  990MOL0     O33574   9.852   3.193   4.976  0.7413 -0.7212 -0.9583
  990MOL0     C33575   9.790   3.314   4.940 -0.2446 -0.4655 -0.0509
  990MOL0     C33576   9.642   3.290   4.921 -0.6280 -0.0049  0.7995
  990MOL0     C33577   9.555   3.254   5.040  0.3213  0.9955  0.5043
  990MOL0     C33578   9.580   3.113   5.090  0.4176 -0.6468 -0.2774
  990MOL0     C33579   9.493   3.070   5.197  0.4823 -0.5826 -0.6756
  990MOL0     C33580   9.425   3.031   5.286 -0.7808 -0.0592 -0.4764
  990MOL0     C33581   9.969   3.136   4.762 -0.0406 -0.4862 -1.3211
  990MOL0     C33582  10.021   3.042   4.681 -0.2873  0.6289  0.3882
  990MOL0     H33583  10.056   2.658   4.354 -0.4574 -0.4607 -1.2641
  990MOL0     H33584  10.225   2.518   4.212 -0.0625  1.0852 -1.2730
  990MOL0     H33585  10.655   2.590   4.270 -0.8198  0.9948 -0.3292
  990MOL0     H33586  10.582   2.430   4.327 -2.1167 -0.0751 -0.8859
  990MOL0     H33587  10.644   2.462   4.028  0.6407  0.9749  0.6568
  990MOL0     H33588  10.777   2.434   4.135  0.2486 -5.9817  2.0726
  990MOL0     H33589  10.681   2.247   4.253 -1.1126  0.3223 -0.1655
  990MOL0     H33590  10.549   2.263   4.135 -0.5317  1.1861 -0.3275
  990MOL0     H33591  10.728   2.220   3.953 -4.6672  0.1048  0.4461
  990MOL0     H33592  10.832   2.174   4.091 -0.1403 -3.7164  0.6869
  990MOL0     H33593  10.684   1.991   4.141  2.8060 -1.6475 -1.4423
  990MOL0     H33594  10.552   2.068   4.041 -0.1301  1.6042  2.2279
  990MOL0     H33595  10.722   2.015   3.839 -0.0235 -0.2378  1.0394
  990MOL0     H33596  10.804   1.921   3.950  1.0668  2.5201 -1.8812
  990MOL0     H33597  10.560   1.803   3.985 -3.9576 -0.3973 -2.2144
  990MOL0     H33598  10.502   1.914   3.882 -2.0309 -2.5499  1.7162
  990MOL0     H33599  10.528   1.706   3.758 -0.0416 -0.0178  1.3932
  990MOL0     H33600  10.681   1.685   3.823  1.9000  1.0062  0.2863
  990MOL0     H33601  10.523   1.983   3.603  0.0576  0.6704  0.4579
  990MOL0     H33602  10.791   2.082   3.326 -1.9658  0.0102 -1.9393
  990MOL0     H33603  10.618   2.056   3.324  0.4071  0.3044  0.0935
  990MOL0     H33604  10.590   2.209   3.513  1.0485  0.2322  0.7955
  990MOL0     H33605  10.708   2.294   3.391  3.0066  0.8708  1.4680
  990MOL0     H33606  10.890   2.247   3.523  3.0862 -1.3813  3.9182
  990MOL0     H33607  10.815   2.141   3.636  0.3124  1.5581  1.8330
  990MOL0     H33608  10.654   2.338   3.715 -1.8226  0.6000 -2.2539
  990MOL0     H33609  10.752   2.446   3.623 -1.1153 -1.5195 -1.8639
  990MOL0     H33610  10.754   2.601   3.781  0.2485 -1.1559 -0.4871
  990MOL0     H33611  10.828   2.872   3.986  0.8419 -1.5453  2.4238
  990MOL0     H33612  10.921   2.919   3.839 -2.9936  0.8236 -0.8612
  990MOL0     H33613  10.766   2.844   3.818 -1.1304  0.5134  2.9904
  990MOL0     H33614  11.433   2.710   4.132 -1.7662  0.0956 -0.5890
  990MOL0     H33615  11.607   2.841   4.275 -0.0412 -0.0255  0.8960
  990MOL0     H33616  11.478   3.219   4.406  1.1129  0.1829  0.3967
  990MOL0     H33617  11.530   3.070   4.486 -0.8054 -2.5491 -2.0023
  990MOL0     H33618  11.777   3.156   4.468  0.0374  0.4003 -0.0793
  990MOL0     H33619  11.728   3.283   4.375 -4.3981 -2.4073 -3.7627
  990MOL0     H33620  11.572   3.269   4.635  0.4976 -0.3497  2.6893
  990MOL0     H33621  11.680   3.405   4.583  1.1485 -0.9916 -1.8659
  990MOL0     H33622  11.761   3.138   4.700  1.7823 -0.3175 -0.1865
  990MOL0     H33623  11.869   3.272   4.644 -0.0505  0.7652  0.7151
  990MOL0     H33624  11.730   3.435   4.786  2.4037  1.1563  2.2751
  990MOL0     H33625  11.853   3.346   4.862 -0.5685  1.8201 -1.2169
  990MOL0     H33626  11.545   3.277   4.870 -0.6038  3.0767 -0.7383
  990MOL0     H33627  11.672   3.186   4.947 -1.1542  0.7242  0.2379
  990MOL0     H33628  11.727   3.444   5.047  5.5498 -5.3850  2.5846
  990MOL0     H33629  11.632   3.323   5.125 -2.8590  0.1832 -1.1225
  990MOL0     H33630  11.521   3.535   4.939 -1.9402  2.0443  0.6430
  990MOL0     H33631  11.514   3.546   5.108  2.3450 -0.5033  0.5145
  990MOL0     H33632  11.415   3.201   4.136 -2.6339  0.0933 -0.0336
  990MOL0     H33633  11.249   3.066   3.996 -0.2761  0.4144  0.3924
  990MOL0     H33634  11.219   2.552   3.957  0.6669  2.9451 -1.0346
  990MOL0     H33635  11.081   2.363   3.852  0.6497  0.8166  2.3491
  990MOL0     H33636  10.534   2.748   4.364 -0.3945 -1.0058 -0.4192
  990MOL0     H33637  10.392   2.864   4.526  2.9403  0.2025 -1.3742
  990MOL0     H33638   9.922   2.762   4.845  0.8312 -0.4705 -3.5546
  990MOL0     H33639   9.796   2.943   4.980 -1.8586  1.3452 -1.5186
  990MOL0     H33640   9.788   3.368   5.036 -1.5826 -1.3858  0.4601
  990MOL0     H33641   9.843   3.377   4.867 -1.1865  0.8260  0.3386
  990MOL0     H33642   9.644   3.212   4.844  1.8887  0.4966  0.2589
  990MOL0     H33643   9.598   3.379   4.876  0.3787 -1.3888 -3.3625
  990MOL0     H33644   9.459   3.273   4.990 -0.1327 -1.1899  0.4800
  990MOL0     H33645   9.567   3.316   5.130  0.7721 -0.2020  1.2843
  990MOL0     H33646   9.684   3.108   5.122 -0.0413  1.2085  1.7207
  990MOL0     H33647   9.561   3.041   5.009  1.5325  0.6516 -1.7656
  990MOL0     H33648   9.363   2.999   5.368 -0.9897  0.8522 -0.2579
  990MOL0     H33649   9.978   3.241   4.737  3.3440 -0.5601 -0.9392
  990MOL0     H33650  10.073   3.076   4.592  0.6100 -2.6148 -0.4693
  991MOL0     O33651   9.144   4.059   3.370 -0.0349  0.2130 -0.2211
  991MOL0     C33652   9.099   4.093   3.260  0.5017  0.7875 -0.6660
  991MOL0     O33653   9.022   4.199   3.236  0.3731 -0.1211 -0.6552
  991MOL0     C33654   8.977   4.278   3.341  0.8390  0.5142  0.3972
  991MOL0     C33655   9.004   4.414   3.341 -0.7630 -0.2521  1.0255
  991MOL0     C33656   8.965   4.492   3.450  0.0741 -0.2708  0.2297
  991MOL0     C33657   8.894   4.441   3.560  0.3244  0.0915  0.9656
  991MOL0     O33658   8.857   4.516   3.675 -0.7066 -0.7536  0.7217
  991MOL0     C33659   8.738   4.470   3.748  0.5658  0.2937  0.7293
  991MOL0     C33660   8.686   4.592   3.824  1.0934  0.4736 -0.4020
  991MOL0     C33661   8.605   4.684   3.732 -0.4117  0.5412 -0.9782
  991MOL0     C33662   8.513   4.793   3.795  0.0271 -0.1998 -0.5120
  991MOL0     C33663   8.464   4.900   3.689 -0.4334 -0.8411 -0.7292
  991MOL0     C33664   8.399   5.013   3.759 -0.0734  0.1702  0.6706
  991MOL0     C33665   8.485   5.128   3.794 -1.1371  0.0074  0.9215
  991MOL0     C33666   8.400   5.234   3.868  0.6926  1.1000  0.0008
  991MOL0     N33667   8.478   5.357   3.897  0.2323 -0.3347 -0.6419
  991MOL0     C33668   8.582   5.399   3.825 -0.6810  0.3054 -1.1409
  991MOL0     C33669   8.625   5.516   3.875 -0.2521 -0.2106 -0.3836
  991MOL0     C33670   8.719   5.619   3.809  0.0701  0.0831  0.8634
  991MOL0     C33671   8.793   5.698   3.919 -0.8477  0.4144 -0.1160
  991MOL0     C33672   8.882   5.615   4.006  0.0433 -0.7790  0.3976
  991MOL0     C33673   9.024   5.596   3.931  0.2456  1.2499  0.5058
  991MOL0     O33674   9.045   5.475   3.863 -0.5334  0.3271  0.5878
  991MOL0     C33675   9.167   5.439   3.802 -0.5541 -0.4161 -0.3447
  991MOL0     C33676   9.187   5.304   3.775  0.4780  0.2568 -0.5228
  991MOL0     C33677   9.300   5.253   3.710 -0.1708  0.2205  0.1477
  991MOL0     C33678   9.336   5.108   3.705 -0.4304  0.2713 -0.0276
  991MOL0     C33679   9.406   5.346   3.678  0.3042  0.4882  0.4103
  991MOL0     C33680   9.528   5.307   3.604 -0.9672  0.0298  0.2134
  991MOL0     O33681   9.549   5.377   3.497  0.4376  0.4960 -0.5234
  991MOL0     C33682   9.672   5.375   3.446  0.3951 -0.2929  0.9631
  991MOL0     C33683   9.734   5.264   3.389  1.0668 -0.1497 -0.5502
  991MOL0     C33684   9.856   5.277   3.317  0.7047 -0.2592  0.9654
  991MOL0     C33685   9.925   5.401   3.304  0.4814 -0.4422 -0.2474
  991MOL0     O33686  10.041   5.413   3.232  0.6261 -0.3352  0.3715
  991MOL0     C33687  10.119   5.297   3.192 -0.6254  1.0912  0.2337
  991MOL0     C33688  10.249   5.356   3.138 -0.9104  0.3123 -0.2511
  991MOL0     C33689  10.327   5.254   3.058  0.2492 -0.2926 -0.3721
  991MOL0     C33690  10.455   5.331   3.020  0.5211  0.6561  0.3339
  991MOL0     C33691  10.540   5.239   2.941  0.1473 -0.0871 -0.0085
  991MOL0     C33692  10.465   5.164   2.824  0.2919  0.0109 -0.1989
  991MOL0     C33693  10.549   5.092   2.722 -0.8536 -0.9950  0.1123
  991MOL0     C33694  10.657   5.178   2.650 -1.0853  0.1908  0.4343
  991MOL0    Cl33695  10.591   5.261   2.495  0.2772 -0.1192  0.0550
  991MOL0     C33696   9.858   5.516   3.360  0.1042  0.4848  0.2196
  991MOL0     C33697   9.736   5.498   3.425  0.6371 -0.1301  0.0979
  991MOL0     O33698   9.612   5.221   3.652 -0.2585 -0.3707  0.0308
  991MOL0     C33699   9.389   5.475   3.704 -0.5253 -0.3755 -0.4088
  991MOL0     C33700   9.278   5.525   3.772 -0.1070 -0.9655 -0.8378
  991MOL0     N33701   8.558   5.527   3.995  0.7084 -0.2440 -0.0746
  991MOL0     N33702   8.469   5.439   4.009  0.0992  0.4544 -0.6432
  991MOL0     C33703   8.866   4.304   3.563 -0.8875  0.4225  0.1469
  991MOL0     C33704   8.901   4.223   3.453 -1.4400  0.1294  0.4825
  991MOL0     C33705   9.132   4.018   3.141 -0.4669 -0.6187  0.9456
  991MOL0     C33706   9.228   3.907   3.142  0.3388 -0.5003 -0.0383
  991MOL0     C33707   9.265   3.838   3.027 -0.2577 -0.6122  0.4980
  991MOL0     C33708   9.241   3.897   2.905  0.3177 -0.4616 -0.1201
  991MOL0     O33709   9.283   3.832   2.795  0.4636 -0.4866 -0.1749
  991MOL0     C33710   9.382   3.911   2.721  0.3303 -0.3386  0.3781
  991MOL0     C33711   9.354   3.884   2.570 -1.2517 -0.4672 -0.7102
  991MOL0     C33712   9.441   3.986   2.487 -0.0767 -1.0321 -0.4958
  991MOL0     C33713   9.593   3.980   2.503 -0.0678  0.0048 -0.3181
  991MOL0     C33714   9.653   3.863   2.448 -0.4015 -0.1293  0.2804
  991MOL0     C33715   9.721   3.772   2.388  1.3226 -0.1294  0.2224
  991MOL0     C33716   9.147   3.995   2.895 -0.8318  0.5607 -0.1510
  991MOL0     C33717   9.088   4.056   3.013  0.2490  0.0044 -0.2070
  991MOL0     H33718   9.049   4.458   3.252 -1.2182 -1.1157  0.3507
  991MOL0     H33719   8.978   4.599   3.464 -0.3096 -0.0363 -1.0956
  991MOL0     H33720   8.657   4.436   3.682  0.8426  0.9994 -0.0000
  991MOL0     H33721   8.769   4.385   3.809  4.0348 -0.6451 -2.0218
  991MOL0     H33722   8.611   4.555   3.894  0.3754  0.5238 -1.1280
  991MOL0     H33723   8.773   4.632   3.877  0.0211  1.2156  0.8615
  991MOL0     H33724   8.673   4.729   3.659 -0.6443  1.4682 -0.6400
  991MOL0     H33725   8.530   4.619   3.685 -0.5993 -1.4217  1.7627
  991MOL0     H33726   8.421   4.753   3.838  0.5087 -1.8094 -0.8776
  991MOL0     H33727   8.578   4.841   3.868  0.6139  0.0458 -1.1805
  991MOL0     H33728   8.540   4.946   3.624 -0.1530 -0.6216 -0.2476
  991MOL0     H33729   8.387   4.855   3.626  0.0403 -1.9648 -0.5117
  991MOL0     H33730   8.326   5.052   3.687  0.0622 -1.8273 -0.5971
  991MOL0     H33731   8.338   4.993   3.847 -3.4509  2.6209 -0.8645
  991MOL0     H33732   8.571   5.099   3.856  0.3977  1.4712 -0.4034
  991MOL0     H33733   8.526   5.175   3.704 -1.3926  1.4339  1.5203
  991MOL0     H33734   8.357   5.180   3.954  2.3017 -1.4140 -0.6592
  991MOL0     H33735   8.319   5.275   3.808  0.3715  5.2142  2.8336
  991MOL0     H33736   8.616   5.347   3.736 -3.3532  0.7109 -2.4971
  991MOL0     H33737   8.779   5.563   3.737  0.1127  0.6613  0.4435
  991MOL0     H33738   8.664   5.692   3.748  1.7803  1.3940  0.8323
  991MOL0     H33739   8.715   5.744   3.980 -1.1871  0.9284 -0.9150
  991MOL0     H33740   8.849   5.780   3.873 -1.8420  1.6813  0.8576
  991MOL0     H33741   8.839   5.520   4.040  1.6934 -1.9915 -0.7293
  991MOL0     H33742   8.901   5.662   4.103  2.1874 -0.7744  0.0284
  991MOL0     H33743   9.094   5.593   4.015 -0.0012  2.6573  0.7895
  991MOL0     H33744   9.049   5.687   3.875 -0.4859  0.7471 -0.6701
  991MOL0     H33745   9.109   5.232   3.793  0.9056  0.1398  1.0768
  991MOL0     H33746   9.383   5.090   3.608  1.9453  0.7247  0.9734
  991MOL0     H33747   9.410   5.085   3.782  1.5880  0.3004 -1.8620
  991MOL0     H33748   9.248   5.045   3.720 -0.0208 -0.0265  1.3022
  991MOL0     H33749   9.680   5.170   3.396 -0.0593  0.4668 -0.7542
  991MOL0     H33750   9.889   5.188   3.265  1.1215 -0.6397  1.8510
  991MOL0     H33751  10.141   5.239   3.282  2.6694  1.2640 -0.3347
  991MOL0     H33752  10.078   5.236   3.111  2.6288 -0.3396 -0.4858
  991MOL0     H33753  10.222   5.440   3.073  0.7898  0.6967 -0.5208
  991MOL0     H33754  10.302   5.377   3.231 -1.6098 -0.9606  0.4579
  991MOL0     H33755  10.259   5.224   2.978 -1.5634 -2.1992  1.7378
  991MOL0     H33756  10.349   5.159   3.107 -0.3460  0.6316  1.7926
  991MOL0     H33757  10.426   5.408   2.948  0.8948  0.4244 -0.0690
  991MOL0     H33758  10.517   5.369   3.101  1.8143 -1.0078  0.1859
  991MOL0     H33759  10.594   5.166   3.001  2.6492  2.6805  1.3771
  991MOL0     H33760  10.610   5.306   2.890 -1.2281  1.6373  0.2461
  991MOL0     H33761  10.406   5.087   2.875  0.4924 -0.0687 -0.0852
  991MOL0     H33762  10.394   5.228   2.771  0.1120 -0.2358 -0.2583
  991MOL0     H33763  10.492   5.040   2.645  1.4241 -0.9445 -1.7253
  991MOL0     H33764  10.602   5.014   2.778 -1.6020 -0.5412  1.5198
  991MOL0     H33765  10.738   5.110   2.621  0.2510 -0.1021  4.2416
  991MOL0     H33766  10.718   5.244   2.713  1.7149 -0.9070 -0.9409
  991MOL0     H33767   9.900   5.615   3.346 -0.2445  0.8238  1.4553
  991MOL0     H33768   9.677   5.580   3.465 -0.8172 -1.3331  0.5031
  991MOL0     H33769   9.467   5.542   3.668  1.0006 -2.9559 -2.2763
  991MOL0     H33770   9.268   5.631   3.793  3.6783 -0.7426  0.6933
  991MOL0     H33771   8.833   4.248   3.650  4.5968 -1.7811  1.2613
  991MOL0     H33772   8.876   4.118   3.454  1.3504 -0.6113  2.1398
  991MOL0     H33773   9.264   3.867   3.236  1.0401 -1.0741 -0.5401
  991MOL0     H33774   9.321   3.746   3.018  0.1357 -0.2782 -0.6609
  991MOL0     H33775   9.375   4.018   2.746 -0.0413 -0.1077 -0.6616
  991MOL0     H33776   9.478   3.868   2.751  1.8465  1.0564 -2.1271
  991MOL0     H33777   9.247   3.894   2.550 -1.6155  0.7288  1.5004
  991MOL0     H33778   9.389   3.783   2.544 -1.1436 -0.9391  1.1102
  991MOL0     H33779   9.411   4.085   2.522  1.0765 -0.5580 -0.7908
  991MOL0     H33780   9.419   3.967   2.381 -1.6947  1.1651 -0.6302
  991MOL0     H33781   9.610   3.991   2.610 -3.2446 -1.0354  0.4097
  991MOL0     H33782   9.622   4.073   2.453 -1.3546  0.6526  0.0947
  991MOL0     H33783   9.768   3.688   2.341  1.0098 -0.0230 -0.2840
  991MOL0     H33784   9.123   4.033   2.796  3.3726  2.2830 -0.7586
  991MOL0     H33785   9.014   4.136   3.005  0.2202 -0.1121 -1.2617
  992MOL0     O33786   7.342   4.710   8.332 -0.0968 -0.5668  0.0911
  992MOL0     C33787   7.303   4.729   8.217  0.3379 -0.1693 -0.0005
  992MOL0     O33788   7.319   4.636   8.109 -0.2679  0.0657  0.0660
  992MOL0     C33789   7.346   4.506   8.132  0.6931  0.1985 -0.2732
  992MOL0     C33790   7.279   4.427   8.229 -0.1085  0.9208  0.9122
  992MOL0     C33791   7.307   4.290   8.244 -0.2786  0.1767 -1.2802
  992MOL0     C33792   7.411   4.241   8.169 -0.0836  0.3204  0.7996
  992MOL0     O33793   7.441   4.104   8.172 -1.2700 -0.4124 -0.1789
  992MOL0     C33794   7.539   4.064   8.268  0.0729 -0.8287  0.4032
  992MOL0     C33795   7.482   4.021   8.410 -0.0530  0.1225  0.1701
  992MOL0     C33796   7.397   3.885   8.393  0.5805 -0.5431  0.5937
  992MOL0     C33797   7.301   3.862   8.518 -0.9499 -0.1520 -0.1056
  992MOL0     C33798   7.214   3.728   8.513 -0.2592 -0.3904  0.1531
  992MOL0     C33799   7.288   3.599   8.487  0.8606 -0.0060  0.0740
  992MOL0     C33800   7.418   3.575   8.564 -0.0024 -0.1750 -1.4202
  992MOL0     C33801   7.465   3.434   8.537 -0.4553  0.6785  0.0341
  992MOL0     N33802   7.582   3.384   8.611 -0.4489  0.0739 -0.4450
  992MOL0     C33803   7.708   3.441   8.614 -0.6625 -0.4116 -0.3628
  992MOL0     C33804   7.771   3.388   8.722 -0.2727 -0.0659  0.4523
  992MOL0     C33805   7.919   3.417   8.760  0.3313  0.5547 -0.6087
  992MOL0     C33806   8.030   3.339   8.685  1.0985 -0.9052  0.8508
  992MOL0     C33807   8.156   3.408   8.707 -0.3687 -0.1300  0.6307
  992MOL0     C33808   8.222   3.390   8.847  0.2064  0.8338  0.5175
  992MOL0     O33809   8.366   3.394   8.848 -0.6984  0.2145 -0.0447
  992MOL0     C33810   8.442   3.488   8.778 -0.2005 -0.1872 -0.7799
  992MOL0     C33811   8.565   3.446   8.732 -0.1688 -0.3161  0.5973
  992MOL0     C33812   8.644   3.533   8.658 -0.3408  0.9294 -0.4563
  992MOL0     C33813   8.775   3.470   8.633  0.4772  0.7819 -0.0292
  992MOL0     C33814   8.604   3.670   8.626 -0.5072 -0.1720  0.5590
  992MOL0     C33815   8.677   3.752   8.523  0.6921 -0.2266 -0.4381
  992MOL0     O33816   8.763   3.698   8.432 -0.2670 -0.2412  0.3276
  992MOL0     C33817   8.872   3.763   8.374  0.0970 -0.6267  0.1686
  992MOL0     C33818   8.930   3.879   8.417 -1.6396 -0.3089  0.2333
  992MOL0     C33819   9.052   3.921   8.352  0.5219 -0.1600  0.1663
  992MOL0     C33820   9.108   3.857   8.239  0.3061  0.1496  0.3026
  992MOL0     O33821   9.211   3.925   8.181 -0.3903  0.0637 -0.8914
  992MOL0     C33822   9.308   3.863   8.097  0.3818 -0.5012  0.3278
  992MOL0     C33823   9.300   3.912   7.946 -1.0565 -0.0381  0.6642
  992MOL0     C33824   9.324   4.062   7.931  0.7671 -0.2460  0.4553
  992MOL0     C33825   9.195   4.153   7.939  0.3032  0.7091 -0.1737
  992MOL0     C33826   9.231   4.307   7.922 -0.9874  0.3522  0.1943
  992MOL0     C33827   9.124   4.401   7.888  0.0138  0.0372 -0.6938
  992MOL0     C33828   9.037   4.354   7.763 -0.6285  0.5818 -0.4794
  992MOL0     C33829   9.114   4.319   7.635  0.2010  0.5990 -0.1368
  992MOL0    Cl33830   9.215   4.456   7.572  0.1822 -0.7138  0.2534
  992MOL0     C33831   9.038   3.737   8.205 -0.8700 -0.8073 -0.6160
  992MOL0     C33832   8.927   3.699   8.264  0.1666  0.4954 -0.4421
  992MOL0     O33833   8.639   3.871   8.522 -0.2528 -0.3370 -0.4209
  992MOL0     C33834   8.478   3.708   8.680 -0.1362 -0.3582 -0.0565
  992MOL0     C33835   8.402   3.618   8.754  0.7506  0.4497 -0.3418
  992MOL0     N33836   7.683   3.285   8.769 -0.1431 -0.1628 -0.7311
  992MOL0     N33837   7.570   3.283   8.700 -1.1131 -0.1325  0.4067
  992MOL0     C33838   7.480   4.313   8.072 -0.3276  0.4331 -0.8076
  992MOL0     C33839   7.433   4.444   8.045  0.5686  0.5592  0.7048
  992MOL0     C33840   7.237   4.861   8.199  0.4936  0.8179 -0.8851
  992MOL0     C33841   7.175   4.880   8.079  0.4261 -1.0239  0.4841
  992MOL0     C33842   7.117   5.006   8.044 -0.1734  0.5385  0.2617
  992MOL0     C33843   7.121   5.114   8.132  0.0527 -0.1911 -1.0662
  992MOL0     O33844   7.059   5.230   8.111 -0.2120  0.1607  0.2423
  992MOL0     C33845   7.014   5.269   7.978  0.7162 -0.2310  0.4423
  992MOL0     C33846   6.989   5.411   7.988  0.8384 -0.5254  0.2038
  992MOL0     C33847   7.122   5.489   8.004 -0.0415 -0.0361 -0.9703
  992MOL0     C33848   7.103   5.628   8.067  1.1700 -0.0821 -0.6551
  992MOL0     C33849   7.046   5.725   7.977  0.7024 -0.2766  0.5757
  992MOL0     C33850   6.997   5.812   7.905 -0.0214 -0.2363 -0.7287
  992MOL0     C33851   7.183   5.091   8.262  0.2548 -0.6432  0.9083
  992MOL0     C33852   7.236   4.963   8.291  0.1631 -0.2957  0.2233
  992MOL0     H33853   7.205   4.479   8.288  1.5955  1.4954  2.6548
  992MOL0     H33854   7.240   4.222   8.295  2.4839  0.3287  3.0817
  992MOL0     H33855   7.594   3.982   8.220  0.2201 -2.5638  3.2761
  992MOL0     H33856   7.613   4.144   8.279 -0.4532 -0.0195 -1.4938
  992MOL0     H33857   7.567   4.011   8.479 -0.2838  2.9318  0.9746
  992MOL0     H33858   7.431   4.106   8.455  0.4909  0.5702 -0.0518
  992MOL0     H33859   7.335   3.888   8.303  2.3283 -3.6689 -0.9082
  992MOL0     H33860   7.464   3.799   8.379 -1.5159 -2.1993  0.0563
  992MOL0     H33861   7.353   3.879   8.613 -0.5939  0.1492 -0.3496
  992MOL0     H33862   7.231   3.945   8.511 -1.9772 -1.0540 -0.7961
  992MOL0     H33863   7.151   3.709   8.600 -0.0763 -2.5474 -0.1260
  992MOL0     H33864   7.150   3.739   8.424  3.9504  0.5352 -3.1096
  992MOL0     H33865   7.217   3.517   8.496 -1.5316  1.3244 -3.7532
  992MOL0     H33866   7.332   3.604   8.387  3.9367  2.1939  1.3800
  992MOL0     H33867   7.489   3.653   8.539  1.2332 -0.4773  0.9298
  992MOL0     H33868   7.401   3.581   8.672  1.5142  0.0306 -1.1742
  992MOL0     H33869   7.486   3.419   8.431  1.1056 -3.4212  0.7526
  992MOL0     H33870   7.385   3.360   8.553  2.4972 -3.5750 -2.8386
  992MOL0     H33871   7.736   3.534   8.566 -1.3431 -0.5680 -1.0939
  992MOL0     H33872   7.930   3.526   8.759 -2.9854  0.9934  0.0463
  992MOL0     H33873   7.928   3.390   8.866 -0.7346  1.2753 -0.3175
  992MOL0     H33874   7.992   3.344   8.583  1.0052 -0.8400  0.8892
  992MOL0     H33875   8.038   3.238   8.726  0.1794 -0.7388  1.4570
  992MOL0     H33876   8.168   3.512   8.677  3.8603 -1.3364 -2.8682
  992MOL0     H33877   8.232   3.363   8.643 -1.0634  0.2895 -0.5235
  992MOL0     H33878   8.198   3.288   8.878 -2.5728  1.4223  0.5396
  992MOL0     H33879   8.189   3.464   8.921 -0.0888  1.3348 -0.1049
  992MOL0     H33880   8.608   3.350   8.761  1.4998  0.9005  2.3219
  992MOL0     H33881   8.774   3.411   8.541  0.9762  2.8110 -1.3845
  992MOL0     H33882   8.857   3.542   8.621  0.9545  0.2997  0.2630
  992MOL0     H33883   8.812   3.407   8.715  0.8685  1.6416  0.4691
  992MOL0     H33884   8.897   3.914   8.514  2.6794  1.4120  1.3448
  992MOL0     H33885   9.095   4.010   8.396  0.4907  0.0462 -0.2117
  992MOL0     H33886   9.412   3.887   8.123  1.8188 -1.8413 -3.4863
  992MOL0     H33887   9.310   3.754   8.100  1.6316 -0.4826  0.9120
  992MOL0     H33888   9.380   3.864   7.888  0.4142  2.3378  0.5947
  992MOL0     H33889   9.207   3.894   7.893 -2.2774  2.1844  1.8925
  992MOL0     H33890   9.373   4.087   7.836  0.1814  2.6891  0.8243
  992MOL0     H33891   9.391   4.093   8.012 -0.4611  0.0760  1.3734
  992MOL0     H33892   9.126   4.115   7.863  3.1008 -1.3926 -1.8939
  992MOL0     H33893   9.148   4.132   8.036 -0.0428 -1.5656 -0.7610
  992MOL0     H33894   9.296   4.312   7.834  0.5098 -2.2616  1.0261
  992MOL0     H33895   9.286   4.339   8.012  0.7770 -2.7048  0.3626
  992MOL0     H33896   9.051   4.400   7.970 -1.0076 -0.8939 -1.5944
  992MOL0     H33897   9.156   4.504   7.871 -0.1409  0.3065  0.4900
  992MOL0     H33898   8.980   4.441   7.728  1.3874  1.1452 -2.6471
  992MOL0     H33899   8.970   4.270   7.787  0.2343  0.3689  1.3111
  992MOL0     H33900   9.043   4.298   7.555 -1.8279  0.3898  1.6530
  992MOL0     H33901   9.172   4.228   7.648 -1.7143 -0.6726 -0.1422
  992MOL0     H33902   9.084   3.681   8.124  1.4453  2.4543 -1.8010
  992MOL0     H33903   8.871   3.613   8.230  1.5867 -0.1875 -1.1294
  992MOL0     H33904   8.448   3.811   8.666  0.3539 -0.4678 -2.2361
  992MOL0     H33905   8.316   3.660   8.805  0.6053  0.2672 -0.4355
  992MOL0     H33906   7.538   4.247   8.008 -2.6941 -4.7333  1.7083
  992MOL0     H33907   7.483   4.498   7.964 -0.5261  0.3810 -0.1168
  992MOL0     H33908   7.172   4.800   8.005 -4.8847 -2.9406  2.2458
  992MOL0     H33909   7.061   5.014   7.951  0.4576  2.1949 -0.0119
  992MOL0     H33910   7.091   5.249   7.903  2.1933 -1.9894  2.2951
  992MOL0     H33911   6.934   5.208   7.934  1.0327  0.4773 -1.1982
  992MOL0     H33912   6.924   5.437   8.072  1.3180  4.7234 -0.7183
  992MOL0     H33913   6.932   5.448   7.902  1.0736  0.3287  0.4099
  992MOL0     H33914   7.171   5.510   7.908 -0.6592  1.9197 -0.8948
  992MOL0     H33915   7.197   5.433   8.061 -2.7669  0.9035  4.1103
  992MOL0     H33916   7.202   5.668   8.091  1.3329 -1.9812  2.3317
  992MOL0     H33917   7.047   5.625   8.160  1.7999  2.2832 -0.1147
  992MOL0     H33918   6.954   5.887   7.843 -1.1344  0.8081  1.2270
  992MOL0     H33919   7.187   5.157   8.348  4.4174 -1.7750  1.7959
  992MOL0     H33920   7.285   4.951   8.387 -0.8928  3.5073  1.4149
  993MOL0     O33921  11.510   5.275   7.753  0.1672 -0.2103  0.2434
  993MOL0     C33922  11.567   5.178   7.806  0.9073  0.9667  0.4595
  993MOL0     O33923  11.700   5.157   7.788 -0.2025  1.0703 -0.6110
  993MOL0     C33924  11.776   5.247   7.711 -0.5794  0.5270 -0.6749
  993MOL0     C33925  11.764   5.261   7.569  0.8130 -0.5789  0.5455
  993MOL0     C33926  11.854   5.351   7.505  0.1332  0.2694 -0.0529
  993MOL0     C33927  11.938   5.430   7.580  0.3705 -0.0052  0.2291
  993MOL0     O33928  12.020   5.516   7.506  0.2841 -0.2108 -0.3178
  993MOL0     C33929  12.142   5.565   7.565  0.1727  1.0223  0.1840
  993MOL0     C33930  12.227   5.630   7.462  0.8434 -0.7088  0.4502
  993MOL0     C33931  12.366   5.669   7.526 -0.1877  0.2354 -0.0264
  993MOL0     C33932  12.446   5.754   7.433  0.6578 -0.9461 -0.2622
  993MOL0     C33933  12.580   5.769   7.495 -0.6987  0.4019 -0.1093
  993MOL0     C33934  12.660   5.860   7.407  0.0633  1.4180  0.7748
  993MOL0     C33935  12.776   5.913   7.477  0.8260  0.5002 -0.0094
  993MOL0     C33936  12.892   5.915   7.382 -0.5649 -0.3268 -0.4769
  993MOL0     N33937  13.012   5.966   7.463 -0.3019  0.0786 -0.0362
  993MOL0     C33938  13.088   6.078   7.434 -0.0722  0.7679  1.9937
  993MOL0     C33939  13.199   6.048   7.498  0.9000 -0.0226  0.5214
  993MOL0     C33940  13.320   6.127   7.507  0.6778  0.0371 -0.0800
  993MOL0     C33941  13.339   6.197   7.645  0.3098 -0.7949 -0.1012
  993MOL0     C33942  13.418   6.323   7.651 -0.0320 -0.6330 -0.5385
  993MOL0     C33943  13.561   6.322   7.587 -0.5165  0.1917  0.4366
  993MOL0     O33944  13.612   6.449   7.597 -0.6562 -0.3907 -0.1014
  993MOL0     C33945  13.721   6.483   7.525 -0.4447 -0.6256 -0.9847
  993MOL0     C33946  13.838   6.506   7.593  0.1874  0.9276 -0.8170
  993MOL0     C33947  13.964   6.536   7.528  0.0470  0.2230  0.4849
  993MOL0     C33948  14.083   6.553   7.615  0.5566 -0.4445  0.2835
  993MOL0     C33949  13.957   6.562   7.389  0.0227 -0.2043  0.6060
  993MOL0     C33950  14.069   6.608   7.306  0.1302  0.4051 -0.3001
  993MOL0     O33951  14.073   6.590   7.170  0.0438 -0.1892 -0.5930
  993MOL0     C33952  14.182   6.625   7.090  0.2767 -0.2373 -0.4679
  993MOL0     C33953  14.280   6.724   7.124 -0.3883  0.5699  0.3779
  993MOL0     C33954  14.401   6.728   7.045 -0.8525 -0.0807  0.0811
  993MOL0     C33955  14.420   6.649   6.933 -0.6681 -0.1690  0.6470
  993MOL0     O33956  14.532   6.672   6.851 -0.4000  0.2161 -0.0085
  993MOL0     C33957  14.606   6.560   6.789 -0.5534 -1.1102  0.2352
  993MOL0     C33958  14.734   6.622   6.727  0.5127 -0.1337  1.0603
  993MOL0     C33959  14.850   6.649   6.826 -0.0660 -0.4068  0.6580
  993MOL0     C33960  14.963   6.728   6.783  0.3401 -0.6677  0.9660
  993MOL0     C33961  15.017   6.808   6.905  0.3298  0.2963  0.0328
  993MOL0     C33962  15.077   6.728   7.017  0.0363 -0.4460  0.0481
  993MOL0     C33963  15.234   6.690   6.997  0.4658  0.8795  1.5586
  993MOL0     C33964  15.283   6.594   7.097 -0.8150 -0.1485 -0.0921
  993MOL0    Cl33965  15.455   6.611   7.134  0.4652 -0.5598 -0.3319
  993MOL0     C33966  14.332   6.546   6.916  0.6194  1.3907  0.7993
  993MOL0     C33967  14.209   6.535   6.986  0.6768 -0.3849  0.0842
  993MOL0     O33968  14.146   6.677   7.368 -0.5305  0.6863  1.3382
  993MOL0     C33969  13.838   6.530   7.324 -0.7055 -0.5957 -0.1349
  993MOL0     C33970  13.724   6.485   7.393 -1.0057  0.4641 -0.2484
  993MOL0     N33971  13.191   5.936   7.572 -0.3714  0.6275 -0.6502
  993MOL0     N33972  13.076   5.886   7.556  0.0987 -0.4052 -0.1498
  993MOL0     C33973  11.942   5.416   7.716  0.3568  0.2167 -1.2860
  993MOL0     C33974  11.861   5.328   7.786  0.4032 -0.7925  0.8449
  993MOL0     C33975  11.493   5.085   7.894  0.2007  0.6436  1.5342
  993MOL0     C33976  11.354   5.080   7.887  1.1360 -0.6244  0.4519
  993MOL0     C33977  11.278   4.994   7.966 -0.2471  0.5722  0.4495
  993MOL0     C33978  11.345   4.926   8.067 -0.4715  0.6383 -1.4061
  993MOL0     O33979  11.273   4.867   8.177 -0.8127 -0.3877 -0.4129
  993MOL0     C33980  11.147   4.801   8.160  0.9177 -0.0505 -0.0004
  993MOL0     C33981  11.033   4.892   8.218 -0.4997  0.0990  0.6093
  993MOL0     C33982  10.911   4.809   8.227 -0.8468  0.2580  0.4323
  993MOL0     C33983  10.809   4.883   8.311 -0.2198 -0.0054  0.1710
  993MOL0     C33984  10.781   5.020   8.273  0.0313  1.6131 -0.8419
  993MOL0     C33985  10.787   5.132   8.245 -0.0318 -1.2123  0.0703
  993MOL0     C33986  11.485   4.946   8.085  0.2924  1.4071 -0.2148
  993MOL0     C33987  11.560   5.021   8.000 -0.9066  0.0839  0.5216
  993MOL0     H33988  11.689   5.208   7.512  0.6480  0.7653 -0.5514
  993MOL0     H33989  11.843   5.361   7.398 -1.2165 -0.5808 -0.0184
  993MOL0     H33990  12.120   5.645   7.637 -5.5329 -0.6533  0.7377
  993MOL0     H33991  12.191   5.479   7.612  1.5905  1.5238 -0.3277
  993MOL0     H33992  12.260   5.550   7.394  2.4892 -0.1376  0.5394
  993MOL0     H33993  12.176   5.710   7.407 -0.4958 -2.3280 -0.7814
  993MOL0     H33994  12.345   5.718   7.622  0.0447 -0.5166  0.4182
  993MOL0     H33995  12.416   5.573   7.541  1.8862  0.7791 -2.7967
  993MOL0     H33996  12.443   5.720   7.329 -3.1334  1.1009 -1.0223
  993MOL0     H33997  12.405   5.855   7.429  1.1550 -0.7020  0.6264
  993MOL0     H33998  12.564   5.812   7.594 -1.8905  0.3205 -0.2540
  993MOL0     H33999  12.634   5.674   7.498  0.4218  0.9216 -2.1571
  993MOL0     H34000  12.679   5.798   7.319 -1.0645  0.0505  1.4686
  993MOL0     H34001  12.596   5.943   7.376 -1.3744  0.3624  0.8421
  993MOL0     H34002  12.754   6.011   7.521  5.0245  2.6352 -2.0973
  993MOL0     H34003  12.801   5.848   7.561  0.7543 -0.8342 -0.9978
  993MOL0     H34004  12.881   5.979   7.294 -0.3274 -0.9603 -0.9709
  993MOL0     H34005  12.904   5.813   7.344  0.1172 -0.0047 -1.1507
  993MOL0     H34006  13.057   6.167   7.380 -0.8230 -0.2261  0.7315
  993MOL0     H34007  13.405   6.063   7.482 -0.9925 -2.4080  0.1286
  993MOL0     H34008  13.313   6.200   7.426  1.4870 -0.7229 -0.8571
  993MOL0     H34009  13.388   6.130   7.715 -1.3895 -1.7623  0.2052
  993MOL0     H34010  13.239   6.223   7.680  0.9995 -0.0045  1.4133
  993MOL0     H34011  13.429   6.364   7.752  3.7431  1.7645 -1.6832
  993MOL0     H34012  13.367   6.405   7.599  0.6728 -0.6328 -1.2589
  993MOL0     H34013  13.546   6.295   7.482  1.9122  3.5181 -0.9746
  993MOL0     H34014  13.627   6.252   7.639 -1.1966  1.8559  3.8116
  993MOL0     H34015  13.837   6.481   7.699  1.9862  2.6508 -0.3352
  993MOL0     H34016  14.163   6.515   7.551 -1.7249 -1.4848 -2.1216
  993MOL0     H34017  14.093   6.659   7.643  0.5082 -0.2046 -0.5882
  993MOL0     H34018  14.084   6.499   7.710  1.3841  0.5460  0.8616
  993MOL0     H34019  14.271   6.788   7.212 -0.6537  0.5536  0.3633
  993MOL0     H34020  14.477   6.804   7.064 -1.9445  0.8370  0.9202
  993MOL0     H34021  14.637   6.482   6.859 -0.6336 -2.3409 -1.0571
  993MOL0     H34022  14.543   6.505   6.718 -2.8618  0.4184  0.9823
  993MOL0     H34023  14.763   6.562   6.640 -0.9364  0.0605  0.4117
  993MOL0     H34024  14.706   6.714   6.676  2.0307 -1.0706 -1.6738
  993MOL0     H34025  14.899   6.554   6.849  1.3368  0.0680 -0.2403
  993MOL0     H34026  14.812   6.682   6.923 -3.2417 -0.8913 -0.2750
  993MOL0     H34027  15.044   6.668   6.741  0.7784  1.8271 -2.1021
  993MOL0     H34028  14.933   6.796   6.703  1.3924 -3.2201 -1.7962
  993MOL0     H34029  14.942   6.880   6.938  2.4734  2.2740  0.9238
  993MOL0     H34030  15.099   6.872   6.870  0.3196  0.5083  0.3957
  993MOL0     H34031  15.082   6.792   7.106  2.0599 -1.9083  1.0960
  993MOL0     H34032  15.022   6.640   7.053  2.4999 -1.6966  1.0212
  993MOL0     H34033  15.292   6.781   7.012 -0.8377  1.5221  3.0094
  993MOL0     H34034  15.264   6.652   6.899  0.8629  0.5638  1.7976
  993MOL0     H34035  15.266   6.490   7.068 -1.1597 -1.5887  4.5117
  993MOL0     H34036  15.231   6.594   7.193 -1.7882 -3.6227 -0.4893
  993MOL0     H34037  14.346   6.478   6.832  1.7563 -0.7472  2.5943
  993MOL0     H34038  14.144   6.453   6.959  1.0590 -0.0378 -2.0790
  993MOL0     H34039  13.820   6.527   7.217 -2.2087 -5.0985  0.0205
  993MOL0     H34040  13.630   6.463   7.343  0.0343  0.2052 -2.1923
  993MOL0     H34041  12.009   5.464   7.786 -1.5968 -2.3009  2.6862
  993MOL0     H34042  11.857   5.298   7.891 -0.3486  0.0555  1.0745
  993MOL0     H34043  11.303   5.110   7.796  1.9749 -2.1617 -0.5862
  993MOL0     H34044  11.177   4.967   7.938  0.3076 -2.4711  1.0372
  993MOL0     H34045  11.136   4.764   8.058 -0.1181 -2.8661  1.0353
  993MOL0     H34046  11.145   4.713   8.224 -2.2182 -0.9253 -1.1168
  993MOL0     H34047  11.021   4.983   8.159  2.8368 -1.0287 -2.1511
  993MOL0     H34048  11.067   4.922   8.317  0.6058  0.1681  0.2274
  993MOL0     H34049  10.928   4.710   8.271 -2.2656 -0.3406 -0.3054
  993MOL0     H34050  10.878   4.787   8.126  2.0817  2.8600 -1.2661
  993MOL0     H34051  10.850   4.888   8.413  3.4995 -0.8788 -1.1297
  993MOL0     H34052  10.720   4.820   8.311 -0.9163  0.9464  0.0571
  993MOL0     H34053  10.794   5.230   8.201 -1.0853 -1.3170 -0.3553
  993MOL0     H34054  11.527   4.896   8.172 -1.9253 -1.5598 -0.6781
  993MOL0     H34055  11.668   5.022   8.016 -1.3408 -0.6225  4.5723
  994MOL0     O34056   0.425  10.825   4.057 -0.5088  0.4222 -0.3642
  994MOL0     C34057   0.429  10.915   3.975  0.1243 -0.0543  0.6524
  994MOL0     O34058   0.495  10.902   3.848  0.4582 -1.5654  0.1838
  994MOL0     C34059   0.582  10.797   3.834 -1.5466 -0.0244  0.1401
  994MOL0     C34060   0.573  10.722   3.714  0.1159 -1.0473  1.4922
  994MOL0     C34061   0.649  10.605   3.696 -0.2294  0.3405  0.5506
  994MOL0     C34062   0.753  10.575   3.788  0.4584 -1.2217  0.4607
  994MOL0     O34063   0.825  10.460   3.756 -0.5690  0.0885 -1.1573
  994MOL0     C34064   0.902  10.391   3.855 -0.0198  0.7691  0.5086
  994MOL0     C34065   0.927  10.248   3.806 -0.1836 -0.3090 -0.3852
  994MOL0     C34066   1.028  10.181   3.891  0.1631 -0.1363  0.4194
  994MOL0     C34067   0.978  10.162   4.044 -0.9390 -0.7071  0.8064
  994MOL0     C34068   1.059  10.047   4.106 -0.2988  1.2939  0.1977
  994MOL0     C34069   0.994  10.023   4.253  0.0710  0.4590  1.0526
  994MOL0     C34070   1.092   9.928   4.326 -0.5137  1.2586  0.6338
  994MOL0     C34071   1.176  10.002   4.435 -0.8491 -0.0222 -0.3098
  994MOL0     N34072   1.280  10.090   4.383 -0.7632 -0.3567 -0.5635
  994MOL0     C34073   1.401  10.050   4.358  0.2337 -0.2837  0.2970
  994MOL0     C34074   1.467  10.167   4.335 -0.7758  0.1453 -0.5396
  994MOL0     C34075   1.597  10.202   4.276  0.1593 -0.1006 -0.9440
  994MOL0     C34076   1.596  10.285   4.154  0.4514 -0.1168  0.3195
  994MOL0     C34077   1.745  10.339   4.125 -0.1823  0.3214  0.2364
  994MOL0     C34078   1.746  10.453   4.028 -0.0665 -0.1552 -0.6216
  994MOL0     O34079   1.878  10.503   4.009 -0.4970  0.0336 -0.0105
  994MOL0     C34080   1.884  10.646   3.984 -0.2186  0.9956 -0.1181
  994MOL0     C34081   2.012  10.693   3.938  0.8856 -1.1413  0.7185
  994MOL0     C34082   2.038  10.820   3.894  0.5689 -0.2019  0.0012
  994MOL0     C34083   2.162  10.854   3.819  0.1377  0.4594 -0.8759
  994MOL0     C34084   1.923  10.908   3.909 -0.0776 -0.4242  0.5143
  994MOL0     C34085   1.920  11.045   3.847 -0.3199  0.5383  0.2936
  994MOL0     O34086   2.031  11.122   3.853  0.3578 -0.3870  0.7680
  994MOL0     C34087   2.046  11.216   3.763 -0.2788  0.3079  0.0711
  994MOL0     C34088   1.960  11.331   3.780  0.3944 -1.3582 -0.0135
  994MOL0     C34089   1.974  11.436   3.688  0.5621  0.3510  0.3536
  994MOL0     C34090   2.071  11.450   3.599 -0.1289 -0.5537  0.5051
  994MOL0     O34091   2.087  11.580   3.544 -0.5430 -0.1695 -0.0470
  994MOL0     C34092   2.203  11.621   3.465 -0.0919 -1.0133  1.1669
  994MOL0     C34093   2.159  11.649   3.319 -1.1878  0.5023 -0.2372
  994MOL0     C34094   2.264  11.627   3.212 -1.3878  0.7617 -0.8448
  994MOL0     C34095   2.214  11.696   3.082  0.2363  0.9024  0.7345
  994MOL0     C34096   2.322  11.682   2.976  0.2857  0.8597  0.4442
  994MOL0     C34097   2.391  11.814   2.978 -0.4397 -0.1547  0.6733
  994MOL0     C34098   2.526  11.803   2.904 -0.1901  0.0250  0.4057
  994MOL0     C34099   2.570  11.915   2.818 -0.0577 -0.3678  0.4018
  994MOL0    Cl34100   2.596  12.052   2.925 -0.1454 -0.2453 -0.2721
  994MOL0     C34101   2.163  11.343   3.588  0.5593 -0.0582  0.2548
  994MOL0     C34102   2.162  11.234   3.678  0.1418  0.6517  1.0058
  994MOL0     O34103   1.818  11.065   3.776 -0.6191  1.0589  0.0714
  994MOL0     C34104   1.804  10.867   3.972  0.4428 -0.3065  0.1877
  994MOL0     C34105   1.784  10.736   4.002 -0.5001 -0.0588  1.4067
  994MOL0     N34106   1.379  10.272   4.345  0.3685 -0.3254 -0.5924
  994MOL0     N34107   1.265  10.222   4.374 -0.6843  0.0890  0.7727
  994MOL0     C34108   0.764  10.645   3.903 -1.0381 -0.3794 -0.1932
  994MOL0     C34109   0.683  10.760   3.926  0.0676 -0.5586  0.6716
  994MOL0     C34110   0.320  11.012   3.987  0.7995 -0.0980  1.1273
  994MOL0     C34111   0.288  11.109   3.882 -0.9654  0.4595 -0.3072
  994MOL0     C34112   0.181  11.202   3.908 -0.0263  0.4411  0.0377
  994MOL0     C34113   0.108  11.208   4.026  0.6924 -0.8527  0.0846
  994MOL0     O34114   0.019  11.311   4.054 -0.2585  0.2691  0.8120
  994MOL0     C34115  -0.038  11.389   3.953 -0.6700 -0.3317 -0.1136
  994MOL0     C34116  -0.161  11.479   3.990  0.1205  0.6457 -0.1371
  994MOL0     C34117  -0.245  11.403   4.091 -0.5205 -0.6528 -0.0778
  994MOL0     C34118  -0.308  11.507   4.192  0.3944  0.5605 -0.2724
  994MOL0     C34119  -0.436  11.457   4.246 -0.8147  0.4189 -0.3030
  994MOL0     C34120  -0.532  11.417   4.309 -0.6210 -0.2444 -0.3842
  994MOL0     C34121   0.142  11.114   4.124 -0.1038 -0.1318 -0.0843
  994MOL0     C34122   0.239  11.022   4.104 -0.5238 -0.2398 -0.8260
  994MOL0     H34123   0.508  10.763   3.639  2.2902  4.4880  2.1602
  994MOL0     H34124   0.649  10.548   3.603  0.4508  0.9441  0.1671
  994MOL0     H34125   0.991  10.454   3.868 -1.5518  2.4025  5.3371
  994MOL0     H34126   0.852  10.392   3.952  0.4118 -2.5534  0.8878
  994MOL0     H34127   0.835  10.190   3.805  0.4249 -1.3101 -1.0610
  994MOL0     H34128   0.958  10.239   3.701 -2.3659 -2.4903 -0.9365
  994MOL0     H34129   1.050  10.078   3.860 -1.9446 -1.1420  2.0227
  994MOL0     H34130   1.117  10.244   3.887  1.8316 -2.4018 -0.8982
  994MOL0     H34131   0.984  10.262   4.088 -0.2905  0.5299 -1.8491
  994MOL0     H34132   0.871  10.143   4.038 -1.7757  3.1185  0.8724
  994MOL0     H34133   1.039   9.958   4.045 -1.0380  1.4035  0.2650
  994MOL0     H34134   1.166  10.070   4.114  0.1249 -0.9220  2.0250
  994MOL0     H34135   0.992  10.119   4.306  1.5433  1.9929 -1.4678
  994MOL0     H34136   0.893   9.983   4.240  0.8336 -0.6049 -3.2394
  994MOL0     H34137   1.047   9.837   4.365 -1.5905  0.9967 -1.1063
  994MOL0     H34138   1.164   9.881   4.257 -3.3438  2.0559 -3.1926
  994MOL0     H34139   1.223   9.937   4.508  1.5763  2.4278  0.4873
  994MOL0     H34140   1.110  10.065   4.495  0.1388  1.5764 -0.8422
  994MOL0     H34141   1.422   9.949   4.326 -4.4471 -0.4361 -3.5170
  994MOL0     H34142   1.658  10.262   4.344 -0.7641  2.0115 -1.9016
  994MOL0     H34143   1.653  10.110   4.257  1.0552  0.6385 -1.9522
  994MOL0     H34144   1.531  10.374   4.154  1.9884  1.3398 -4.8625
  994MOL0     H34145   1.557  10.219   4.076 -0.5286 -0.1164  0.7933
  994MOL0     H34146   1.799  10.250   4.093 -0.5112  1.7737 -5.3593
  994MOL0     H34147   1.783  10.372   4.222  0.9513 -2.7834  0.9721
  994MOL0     H34148   1.677  10.526   4.071 -0.8786 -0.5799 -1.1627
  994MOL0     H34149   1.702  10.432   3.930 -1.0721 -2.3579  0.2513
  994MOL0     H34150   2.083  10.614   3.914  0.2566 -1.8781  1.2095
  994MOL0     H34151   2.242  10.882   3.888  0.6786 -1.2146 -0.7771
  994MOL0     H34152   2.201  10.774   3.755  0.2577  0.0324 -0.2777
  994MOL0     H34153   2.145  10.936   3.748 -0.6549  0.5267 -0.6204
  994MOL0     H34154   1.892  11.323   3.864  0.3944  0.5528  0.2173
  994MOL0     H34155   1.911  11.524   3.694  1.4351  1.1205 -1.3397
  994MOL0     H34156   2.237  11.720   3.497 -3.4390  0.6270  0.0632
  994MOL0     H34157   2.290  11.555   3.473 -0.4104 -1.7001 -0.7059
  994MOL0     H34158   2.063  11.597   3.307 -2.5244  2.9325 -0.7931
  994MOL0     H34159   2.135  11.755   3.311  2.5689  1.5420  0.4124
  994MOL0     H34160   2.295  11.523   3.193 -1.7052 -0.1903  3.0926
  994MOL0     H34161   2.350  11.687   3.242  1.7740 -3.8843  0.5765
  994MOL0     H34162   2.125  11.642   3.050  0.7728  0.7177 -0.4847
  994MOL0     H34163   2.176  11.797   3.101  0.0040  0.8750  0.4170
  994MOL0     H34164   2.283  11.657   2.877 -3.7637  0.8099  1.8645
  994MOL0     H34165   2.397  11.608   3.005  0.2389  1.8656  3.4678
  994MOL0     H34166   2.328  11.896   2.943  0.8928  0.2012 -1.0852
  994MOL0     H34167   2.419  11.857   3.074 -0.5188  1.0188  0.1838
  994MOL0     H34168   2.523  11.718   2.836  0.5669  2.3454 -2.7673
  994MOL0     H34169   2.611  11.779   2.969  0.1137 -1.9601 -0.6570
  994MOL0     H34170   2.492  11.932   2.744 -0.6492 -3.2184  0.2781
  994MOL0     H34171   2.656  11.880   2.759 -0.6440  0.2080 -0.8309
  994MOL0     H34172   2.250  11.360   3.526  0.5157 -1.8779 -0.3691
  994MOL0     H34173   2.245  11.163   3.669  0.3332  0.9590  0.2293
  994MOL0     H34174   1.725  10.933   4.008  0.5666 -0.6201  1.0829
  994MOL0     H34175   1.682  10.712   4.031 -0.5282  1.4001  2.6745
  994MOL0     H34176   0.836  10.613   3.978 -0.8271  0.1105 -0.1862
  994MOL0     H34177   0.701  10.821   4.013 -2.6779  2.3643 -0.6345
  994MOL0     H34178   0.336  11.107   3.784  1.5055  0.1284  0.8346
  994MOL0     H34179   0.163  11.286   3.841 -2.6646  1.3262  1.6978
  994MOL0     H34180   0.033  11.465   3.921 -0.8612  0.2674  0.8506
  994MOL0     H34181  -0.074  11.324   3.872 -2.2042  0.0914  0.1862
  994MOL0     H34182  -0.218  11.490   3.898 -0.7006 -2.3723 -0.1036
  994MOL0     H34183  -0.117  11.569   4.034 -0.0367  0.5786  0.1591
  994MOL0     H34184  -0.189  11.326   4.144 -1.6232 -2.7631 -1.8209
  994MOL0     H34185  -0.332  11.359   4.040 -1.5509 -0.8184  1.7415
  994MOL0     H34186  -0.324  11.601   4.139  1.2333 -0.1544 -1.8845
  994MOL0     H34187  -0.252  11.527   4.284  1.7224 -0.0912 -0.9098
  994MOL0     H34188  -0.605  11.384   4.380  1.0321 -0.9511  1.0638
  994MOL0     H34189   0.107  11.139   4.223  0.5265  2.8707 -0.5212
  994MOL0     H34190   0.264  10.954   4.184  0.8208  0.7806 -0.3435
  995MOL0     O34191   9.556   0.960   5.715 -0.5276  0.8810  0.7493
  995MOL0     C34192   9.586   1.062   5.653 -0.3396 -0.0792  0.1226
  995MOL0     O34193   9.577   1.189   5.705  0.0248  0.3420 -0.2315
  995MOL0     C34194   9.568   1.201   5.840  0.2866 -0.7895  0.9774
  995MOL0     C34195   9.441   1.163   5.899 -0.0855 -1.3285  0.2260
  995MOL0     C34196   9.428   1.172   6.038 -1.1882 -1.2300 -0.0385
  995MOL0     C34197   9.534   1.237   6.111  0.1114  0.4176  0.0534
  995MOL0     O34198   9.503   1.283   6.246 -0.2762  0.3463  0.7119
  995MOL0     C34199   9.377   1.352   6.270  0.8316 -0.4488 -1.3681
  995MOL0     C34200   9.354   1.401   6.414 -0.0852 -1.4307  0.4182
  995MOL0     C34201   9.229   1.494   6.420 -1.2387  0.0797 -0.3338
  995MOL0     C34202   9.104   1.420   6.371 -0.3537 -0.6137 -1.0437
  995MOL0     C34203   8.973   1.508   6.355  1.1504 -0.2363  0.7683
  995MOL0     C34204   8.928   1.539   6.503 -0.0672 -0.0919  0.1644
  995MOL0     C34205   8.796   1.610   6.509  0.0227 -0.0132  0.3721
  995MOL0     C34206   8.794   1.730   6.425  0.4125 -0.2726 -1.1400
  995MOL0     N34207   8.680   1.819   6.459  0.0845 -0.1378 -0.5548
  995MOL0     C34208   8.675   1.951   6.457 -0.2682  0.3360  0.9767
  995MOL0     C34209   8.550   1.992   6.480 -0.2036  0.7493 -0.4204
  995MOL0     C34210   8.479   2.126   6.486  0.5449  0.1158 -0.3433
  995MOL0     C34211   8.519   2.217   6.606 -0.5112  0.4921  0.3738
  995MOL0     C34212   8.489   2.151   6.743 -0.2932 -0.5493 -0.8771
  995MOL0     C34213   8.442   2.250   6.855 -0.0403  0.5016  0.6255
  995MOL0     O34214   8.545   2.331   6.901  0.3262  0.3104  0.6150
  995MOL0     C34215   8.632   2.281   6.999 -0.1172  0.4421  0.1960
  995MOL0     C34216   8.625   2.157   7.070 -0.6258 -0.3018  0.0175
  995MOL0     C34217   8.736   2.119   7.157  1.4523  0.3485  0.6153
  995MOL0     C34218   8.731   1.992   7.223 -0.0659 -0.0838 -0.6237
  995MOL0     C34219   8.852   2.195   7.170  0.4935 -0.5824  0.6999
  995MOL0     C34220   8.975   2.175   7.241 -0.3708 -0.5907 -0.5000
  995MOL0     O34221   9.083   2.261   7.218  0.2157 -0.2976  0.1560
  995MOL0     C34222   9.165   2.308   7.323  0.0922 -0.3276 -0.1932
  995MOL0     C34223   9.152   2.282   7.457 -0.2762 -0.7609  0.0039
  995MOL0     C34224   9.256   2.327   7.540  0.1775  0.1540 -1.2148
  995MOL0     C34225   9.378   2.377   7.480  0.5994  0.0776  0.3368
  995MOL0     O34226   9.488   2.415   7.564 -0.0406  0.4147 -0.4141
  995MOL0     C34227   9.445   2.516   7.652  0.5229  0.0781  0.3533
  995MOL0     C34228   9.587   2.588   7.685 -0.1384 -0.4681  0.3349
  995MOL0     C34229   9.690   2.604   7.568  0.9372  1.1726  0.1269
  995MOL0     C34230   9.827   2.633   7.630  0.3937 -0.0877  0.9850
  995MOL0     C34231   9.937   2.700   7.548  0.6910 -1.0138  0.7788
  995MOL0     C34232   9.886   2.841   7.490  0.1217  0.9085 -0.2210
  995MOL0     C34233  10.004   2.925   7.431 -0.3004  0.6287 -0.2740
  995MOL0     C34234   9.941   3.020   7.326 -0.0479 -0.1282 -2.0792
  995MOL0    Cl34235  10.081   3.111   7.246  0.1496 -0.2089 -0.0675
  995MOL0     C34236   9.378   2.411   7.346 -0.6077  1.6771 -0.7205
  995MOL0     C34237   9.276   2.369   7.267 -0.0029 -0.3494  0.5995
  995MOL0     O34238   8.985   2.074   7.310 -0.3571 -0.2353  0.1580
  995MOL0     C34239   8.846   2.324   7.103 -0.1563  0.8594 -0.2273
  995MOL0     C34240   8.746   2.362   7.012 -0.2598  0.1686  0.5554
  995MOL0     N34241   8.470   1.879   6.487 -0.9068  0.5018 -0.3963
  995MOL0     N34242   8.554   1.782   6.462 -0.1627  0.4662 -0.7193
  995MOL0     C34243   9.659   1.268   6.048  0.3061 -0.3826  0.4371
  995MOL0     C34244   9.683   1.236   5.913  0.4461 -0.1135  0.7262
  995MOL0     C34245   9.646   1.042   5.517 -0.7765 -0.1422 -0.4082
  995MOL0     C34246   9.653   0.918   5.460  0.3519 -0.5848 -0.2546
  995MOL0     C34247   9.697   0.894   5.334 -0.4210  0.1841  0.3930
  995MOL0     C34248   9.751   1.002   5.265 -0.7996  0.6922  0.4900
  995MOL0     O34249   9.816   0.961   5.152 -0.5358 -0.7595  0.3192
  995MOL0     C34250   9.749   0.963   5.023 -0.3241 -0.6483  0.4647
  995MOL0     C34251   9.760   1.101   4.961 -0.1606 -0.8356  0.1046
  995MOL0     C34252   9.898   1.156   4.941 -0.8664 -0.7527 -0.5400
  995MOL0     C34253   9.902   1.259   4.822 -0.8150 -0.3930  0.0968
  995MOL0     C34254  10.029   1.304   4.785 -0.2512  0.4170  0.2129
  995MOL0     C34255  10.133   1.333   4.753 -0.4188  0.5367  0.2772
  995MOL0     C34256   9.752   1.123   5.321  0.2483 -0.3021 -0.0308
  995MOL0     C34257   9.700   1.149   5.452 -0.1444 -0.2794  1.1055
  995MOL0     H34258   9.354   1.142   5.839 -0.1495  3.3645 -1.7903
  995MOL0     H34259   9.341   1.130   6.087 -1.0405 -0.2879  1.0647
  995MOL0     H34260   9.376   1.442   6.208  0.8642 -0.2887 -1.1376
  995MOL0     H34261   9.295   1.284   6.246 -2.3387  1.9324  1.7351
  995MOL0     H34262   9.349   1.313   6.478  2.3512 -0.3714  2.2078
  995MOL0     H34263   9.444   1.454   6.444  1.2670 -1.5571 -2.9814
  995MOL0     H34264   9.204   1.516   6.524 -0.6002 -0.7558  0.0131
  995MOL0     H34265   9.259   1.581   6.361 -0.4414  0.8445  1.1574
  995MOL0     H34266   9.122   1.384   6.269  0.7877  3.0702 -2.2791
  995MOL0     H34267   9.084   1.326   6.424 -2.8944 -2.1766 -4.3814
  995MOL0     H34268   8.977   1.597   6.291 -2.4263 -0.0322  0.6078
  995MOL0     H34269   8.891   1.459   6.301  0.0265  0.5827  1.6649
  995MOL0     H34270   8.920   1.443   6.554  1.4257 -0.5526 -0.4085
  995MOL0     H34271   9.004   1.601   6.553 -1.5222  1.2894  0.7535
  995MOL0     H34272   8.716   1.546   6.470  0.5280  1.0578 -2.7423
  995MOL0     H34273   8.782   1.632   6.615  1.9820 -0.9118  0.8716
  995MOL0     H34274   8.768   1.694   6.325  1.3506  0.1111 -1.5372
  995MOL0     H34275   8.885   1.791   6.432  0.0196  0.3742 -1.5372
  995MOL0     H34276   8.757   2.022   6.444  0.1064 -0.2416  0.1119
  995MOL0     H34277   8.502   2.166   6.387 -1.9391  1.6354 -0.3893
  995MOL0     H34278   8.371   2.112   6.495  0.4153  1.7046  1.1134
  995MOL0     H34279   8.482   2.320   6.600  1.7632  1.4943  2.0245
  995MOL0     H34280   8.628   2.219   6.596 -0.6951  0.8008 -2.1478
  995MOL0     H34281   8.579   2.111   6.789 -0.7465  0.0400  0.5731
  995MOL0     H34282   8.401   2.085   6.738  0.6645 -1.8293 -1.3382
  995MOL0     H34283   8.399   2.195   6.940 -0.9386  0.3517  0.0886
  995MOL0     H34284   8.370   2.318   6.809  2.6811  1.7303 -2.1641
  995MOL0     H34285   8.549   2.081   7.056  2.5401 -3.2611 -2.7593
  995MOL0     H34286   8.624   1.968   7.230 -0.0671 -0.0071 -0.3571
  995MOL0     H34287   8.790   1.919   7.168  0.9861 -0.1454  0.5529
  995MOL0     H34288   8.768   1.997   7.326  2.2678 -1.4137 -1.3390
  995MOL0     H34289   9.059   2.235   7.489  0.3156 -3.2184 -1.5871
  995MOL0     H34290   9.263   2.319   7.648 -1.6353  0.6152 -1.0273
  995MOL0     H34291   9.392   2.583   7.584  2.6586  0.4263 -1.1131
  995MOL0     H34292   9.378   2.487   7.732  0.8989  0.6744  0.8938
  995MOL0     H34293   9.568   2.688   7.725 -0.9343  0.5719 -2.4105
  995MOL0     H34294   9.637   2.524   7.759 -1.7365  0.1031  1.9814
  995MOL0     H34295   9.645   2.672   7.495 -1.6872 -2.0117 -1.5438
  995MOL0     H34296   9.699   2.515   7.505  0.2077  2.9634 -2.6803
  995MOL0     H34297   9.794   2.693   7.715 -0.6100 -1.7789  1.8431
  995MOL0     H34298   9.874   2.544   7.674  2.4532  1.4653  2.1260
  995MOL0     H34299   9.966   2.633   7.467  1.7562  2.3692 -1.8507
  995MOL0     H34300  10.005   2.720   7.632 -1.8280  2.3248  2.3079
  995MOL0     H34301   9.816   2.837   7.406  2.4762 -0.3933 -2.2944
  995MOL0     H34302   9.846   2.909   7.565  0.7562  0.8810  0.1452
  995MOL0     H34303  10.081   2.865   7.382 -0.4558  1.1710 -1.1961
  995MOL0     H34304  10.053   2.972   7.517 -3.6469  2.4452  0.8090
  995MOL0     H34305   9.869   3.091   7.367  2.6407  1.7992 -0.4009
  995MOL0     H34306   9.885   2.964   7.250 -2.2376 -0.9503 -0.0113
  995MOL0     H34307   9.471   2.451   7.308  0.4587 -1.8014 -2.2204
  995MOL0     H34308   9.279   2.387   7.160 -1.8463  1.6410  0.7938
  995MOL0     H34309   8.927   2.396   7.113  0.5656 -0.2346  3.5507
  995MOL0     H34310   8.777   2.457   6.968 -0.1872 -0.4452 -0.7519
  995MOL0     H34311   9.737   1.324   6.099  0.5098 -2.1957  2.2155
  995MOL0     H34312   9.775   1.253   5.858 -1.5002  0.0488 -2.7632
  995MOL0     H34313   9.633   0.828   5.518 -2.5323  0.1703  0.0415
  995MOL0     H34314   9.711   0.797   5.286 -0.4100  0.1944  0.3754
  995MOL0     H34315   9.780   0.889   4.949  3.5098 -0.0876  1.3212
  995MOL0     H34316   9.641   0.946   5.032 -0.8975  1.8986 -0.5843
  995MOL0     H34317   9.700   1.171   5.020  0.9854 -2.2070  3.1063
  995MOL0     H34318   9.700   1.104   4.870 -3.8398 -0.9265  2.3624
  995MOL0     H34319   9.972   1.079   4.919  0.4888  1.0637 -2.8063
  995MOL0     H34320   9.934   1.211   5.029  2.1845 -3.6269  0.2130
  995MOL0     H34321   9.843   1.346   4.852 -0.3601 -0.8509  2.5222
  995MOL0     H34322   9.864   1.213   4.731 -0.5485  1.5949 -1.0825
  995MOL0     H34323  10.236   1.336   4.722 -0.1732  0.1802  1.0346
  995MOL0     H34324   9.799   1.214   5.285  2.6322 -0.0412  3.3181
  995MOL0     H34325   9.711   1.241   5.508 -0.2110 -0.4791  1.4507
  996MOL0     O34326  10.251  10.801   1.873  0.6815  0.1928  0.1565
  996MOL0     C34327  10.233  10.852   1.759 -0.3458 -0.1375 -0.4408
  996MOL0     O34328  10.118  10.925   1.721  0.2732  0.7971 -0.2816
  996MOL0     C34329  10.000  10.879   1.783 -0.5269  0.0299  0.4184
  996MOL0     C34330   9.979  10.742   1.805  0.4503 -0.0515 -0.3429
  996MOL0     C34331   9.868  10.691   1.868  0.5249  0.9933 -1.6009
  996MOL0     C34332   9.770  10.774   1.911  0.3521 -0.1293  0.0708
  996MOL0     O34333   9.661  10.742   1.981 -0.3087  0.1157 -0.5043
  996MOL0     C34334   9.565  10.670   1.890  0.3362 -0.0427 -0.1302
  996MOL0     C34335   9.444  10.762   1.890  1.0778 -1.1169 -0.3308
  996MOL0     C34336   9.357  10.756   2.015 -0.4317  0.2801 -0.0193
  996MOL0     C34337   9.240  10.858   2.031 -0.2764 -0.6830  0.2329
  996MOL0     C34338   9.127  10.803   2.116 -0.9198 -0.3338  0.1467
  996MOL0     C34339   9.169  10.777   2.258  0.3127 -0.5139  0.0067
  996MOL0     C34340   9.063  10.706   2.334  0.2935 -0.1025  0.2410
  996MOL0     C34341   9.108  10.696   2.484 -0.7487 -0.1697 -0.2596
  996MOL0     N34342   8.994  10.706   2.574 -0.4762  0.7500  0.6214
  996MOL0     C34343   8.878  10.623   2.582 -0.1713 -0.1887  0.1275
  996MOL0     C34344   8.794  10.667   2.673  0.5599  0.0402 -0.9399
  996MOL0     C34345   8.663  10.600   2.724 -0.4304  0.1743 -0.7922
  996MOL0     C34346   8.690  10.499   2.837 -0.0210 -0.6432  0.6052
  996MOL0     C34347   8.743  10.561   2.967 -0.3774  0.2187  0.4736
  996MOL0     C34348   8.632  10.640   3.047 -0.1967  0.1802  0.3084
  996MOL0     O34349   8.512  10.560   3.061  0.1255 -0.2242  0.2947
  996MOL0     C34350   8.387  10.631   3.094 -0.9517 -0.3169 -0.0722
  996MOL0     C34351   8.271  10.546   3.096 -1.6273 -0.4830  1.0955
  996MOL0     C34352   8.143  10.589   3.111 -0.3419  0.0697 -0.2375
  996MOL0     C34353   8.037  10.489   3.123  0.6675  0.2684 -0.4054
  996MOL0     C34354   8.113  10.728   3.123 -1.8955 -0.9326  0.0846
  996MOL0     C34355   7.974  10.793   3.133  0.3493  0.0410  0.0665
  996MOL0     O34356   7.960  10.910   3.205  0.4831 -0.3669 -0.5002
  996MOL0     C34357   7.847  10.983   3.175 -0.0364 -0.6223  0.3871
  996MOL0     C34358   7.863  11.082   3.078  0.0976 -0.2979  0.6403
  996MOL0     C34359   7.750  11.155   3.048  0.3580 -0.1282  0.4829
  996MOL0     C34360   7.624  11.131   3.099  0.2306 -0.9713  1.0500
  996MOL0     O34361   7.524  11.204   3.038  1.0324  0.3524 -0.6934
  996MOL0     C34362   7.392  11.181   3.099 -0.1244  1.1698  0.3429
  996MOL0     C34363   7.282  11.271   3.044 -0.2026  0.5653  0.2416
  996MOL0     C34364   7.142  11.273   3.107  1.1987 -0.4161  0.1354
  996MOL0     C34365   7.144  11.377   3.220  0.4861 -0.0491  0.9048
  996MOL0     C34366   7.003  11.384   3.288 -0.9550 -0.4452  0.0414
  996MOL0     C34367   7.014  11.428   3.434  0.7944 -0.1516 -0.4558
  996MOL0     C34368   6.870  11.439   3.496  0.0376 -0.6885  0.4418
  996MOL0     C34369   6.878  11.498   3.641 -0.0158 -0.4215  0.4072
  996MOL0    Cl34370   6.713  11.541   3.700  0.1017 -0.3060  0.2529
  996MOL0     C34371   7.605  11.043   3.207 -0.6014 -0.0263 -0.8803
  996MOL0     C34372   7.716  10.966   3.247 -0.4903 -0.0047  0.1141
  996MOL0     O34373   7.892  10.748   3.056  0.1477 -0.0258 -0.6454
  996MOL0     C34374   8.225  10.819   3.107 -0.3232 -0.2575 -0.5427
  996MOL0     C34375   8.360  10.772   3.094 -1.0186 -0.2751  0.0298
  996MOL0     N34376   8.853  10.783   2.730 -0.4871  0.7074 -0.6150
  996MOL0     N34377   8.958  10.815   2.652  1.0603  0.9819 -0.3488
  996MOL0     C34378   9.791  10.917   1.896 -0.5578  0.0809  0.5984
  996MOL0     C34379   9.902  10.970   1.831 -1.0671  0.4845  0.0617
  996MOL0     C34380  10.351  10.873   1.662  0.0781  0.0015  0.5981
  996MOL0     C34381  10.479  10.817   1.692 -0.6726 -0.6728  0.9982
  996MOL0     C34382  10.594  10.843   1.616 -0.6410 -0.2628  0.3687
  996MOL0     C34383  10.586  10.931   1.517  0.8508 -0.8198  0.9174
  996MOL0     O34384  10.705  10.942   1.440  0.0497 -0.3110 -0.1503
  996MOL0     C34385  10.713  11.031   1.329 -0.2375  0.1385  0.6179
  996MOL0     C34386  10.858  11.032   1.278  0.8249  0.2951 -0.4096
  996MOL0     C34387  10.864  11.009   1.131 -0.0245 -0.2033 -0.6589
  996MOL0     C34388  11.002  10.999   1.066  0.2979  0.3297 -0.8065
  996MOL0     C34389  11.088  11.120   1.043 -0.2229  0.0628  0.3211
  996MOL0     C34390  11.161  11.216   1.040  0.5038  0.3089 -0.6806
  996MOL0     C34391  10.465  11.002   1.488  0.7550 -0.2159 -0.2585
  996MOL0     C34392  10.345  10.974   1.556 -0.8876  0.3521  0.5110
  996MOL0     H34393  10.054  10.668   1.780  2.7217  1.6185  1.1978
  996MOL0     H34394   9.867  10.583   1.874  0.3925  1.0334 -0.9048
  996MOL0     H34395   9.594  10.675   1.785 -1.0388  1.2186 -0.4824
  996MOL0     H34396   9.536  10.570   1.924  1.7276 -0.0436  1.1602
  996MOL0     H34397   9.469  10.862   1.853  0.8236 -1.1516 -0.6043
  996MOL0     H34398   9.370  10.728   1.816  1.5141 -1.4829 -0.6025
  996MOL0     H34399   9.309  10.657   2.015 -1.8107  0.9257 -0.2387
  996MOL0     H34400   9.412  10.762   2.109 -1.3868  0.7073  0.5272
  996MOL0     H34401   9.287  10.946   2.077 -0.7211 -0.5971  0.5228
  996MOL0     H34402   9.184  10.883   1.941 -3.2889  0.1626  2.1912
  996MOL0     H34403   9.051  10.882   2.112  1.0773  1.7223 -4.4924
  996MOL0     H34404   9.101  10.711   2.064  0.5016 -0.1277 -0.9767
  996MOL0     H34405   9.267  10.730   2.271  2.6132  3.4333 -1.5146
  996MOL0     H34406   9.196  10.873   2.301  3.1257 -1.1877 -0.0794
  996MOL0     H34407   8.964  10.752   2.333 -0.1445 -0.9623  1.3537
  996MOL0     H34408   9.039  10.605   2.299 -0.9168 -0.7672  2.7114
  996MOL0     H34409   9.187  10.769   2.504  0.2490 -0.7119 -2.0527
  996MOL0     H34410   9.157  10.599   2.499  3.5974  1.8876  0.6430
  996MOL0     H34411   8.869  10.532   2.523  1.7775  0.2017 -0.8411
  996MOL0     H34412   8.588  10.671   2.758 -0.1881 -0.0249  0.1977
  996MOL0     H34413   8.623  10.538   2.644 -2.7607 -2.6065  2.2463
  996MOL0     H34414   8.741  10.411   2.797 -3.9700 -2.4843 -0.8859
  996MOL0     H34415   8.588  10.460   2.849 -2.0506  2.5339 -3.7050
  996MOL0     H34416   8.827  10.630   2.955 -2.1367  2.9857  2.6588
  996MOL0     H34417   8.786  10.477   3.024 -2.0310 -0.4746  0.7480
  996MOL0     H34418   8.608  10.729   2.989  1.4282  0.9611  0.7757
  996MOL0     H34419   8.660  10.675   3.147  1.2135 -1.5424  0.5817
  996MOL0     H34420   8.284  10.439   3.103 -1.4199 -0.4684  0.9289
  996MOL0     H34421   7.980  10.488   3.030  0.3137 -1.8642 -0.2222
  996MOL0     H34422   8.071  10.386   3.138  0.7348  0.2302 -0.7977
  996MOL0     H34423   7.967  10.504   3.206  2.2398  1.2814  0.7997
  996MOL0     H34424   7.959  11.102   3.030  0.4124 -1.2310  0.8681
  996MOL0     H34425   7.766  11.224   2.967  2.4349 -2.0070 -0.8263
  996MOL0     H34426   7.373  11.078   3.067  0.6632  1.2833 -0.5383
  996MOL0     H34427   7.391  11.185   3.208  1.7001  3.0022  0.3676
  996MOL0     H34428   7.332  11.368   3.046 -2.0847  1.6509 -1.5296
  996MOL0     H34429   7.266  11.253   2.937  0.8502  3.6748 -0.5584
  996MOL0     H34430   7.108  11.173   3.135 -1.8253 -0.6437 -3.5344
  996MOL0     H34431   7.064  11.306   3.037 -0.3519 -2.9778  0.5221
  996MOL0     H34432   7.228  11.351   3.286  1.6427 -4.7551 -1.9351
  996MOL0     H34433   7.163  11.473   3.171  0.0271 -1.1824 -1.6562
  996MOL0     H34434   6.966  11.281   3.280  5.1892 -3.3422  2.4052
  996MOL0     H34435   6.939  11.456   3.236 -0.6903  0.8420  1.4369
  996MOL0     H34436   7.060  11.349   3.494  0.1674  0.5788  1.0460
  996MOL0     H34437   7.064  11.525   3.441  1.9221 -0.5801 -1.9585
  996MOL0     H34438   6.826  11.338   3.495 -1.6970  0.0119 -1.9156
  996MOL0     H34439   6.803  11.500   3.435 -0.0680 -0.4488  0.7988
  996MOL0     H34440   6.940  11.587   3.650 -1.0912  0.3332  0.5344
  996MOL0     H34441   6.927  11.418   3.697  2.2842 -0.8021 -1.9467
  996MOL0     H34442   7.508  11.018   3.248 -0.0672 -0.6250  0.0280
  996MOL0     H34443   7.699  10.906   3.335  1.4981 -0.1779  0.4196
  996MOL0     H34444   8.202  10.925   3.104  1.0293  0.0985  0.5693
  996MOL0     H34445   8.438  10.845   3.071  2.7713 -3.9097  0.2388
  996MOL0     H34446   9.713  10.984   1.931 -1.8398 -1.1907  0.2659
  996MOL0     H34447   9.907  11.076   1.811 -0.5750  0.2738 -1.0354
  996MOL0     H34448  10.481  10.756   1.781 -2.9661  1.2243  2.4823
  996MOL0     H34449  10.693  10.806   1.642 -0.0863  0.5611 -0.5406
  996MOL0     H34450  10.644  10.978   1.262 -0.9123  1.3938  0.2735
  996MOL0     H34451  10.676  11.134   1.337 -2.3336 -0.0603 -3.5186
  996MOL0     H34452  10.909  10.949   1.329 -0.3591  1.0552  2.1870
  996MOL0     H34453  10.912  11.127   1.289  1.2143  0.0991 -0.5808
  996MOL0     H34454  10.808  11.087   1.078 -5.1564 -1.4362  2.3010
  996MOL0     H34455  10.807  10.918   1.116 -1.0776  0.3074  0.1540
  996MOL0     H34456  10.983  10.949   0.971  2.6891 -3.0277  0.2795
  996MOL0     H34457  11.058  10.942   1.140 -0.0981  2.6187  1.3833
  996MOL0     H34458  11.231  11.297   1.038  2.3338 -1.1529  0.2594
  996MOL0     H34459  10.463  11.066   1.400 -0.7306 -1.1135 -0.9217
  996MOL0     H34460  10.250  11.022   1.535  0.4729  1.8403 -3.0927
  997MOL0     O34461   3.296   9.971   6.847  0.2504  0.2141 -0.7836
  997MOL0     C34462   3.234   9.975   6.948 -0.2333 -0.6494  0.1613
  997MOL0     O34463   3.281  10.019   7.064 -0.6744 -0.0405 -0.7960
  997MOL0     C34464   3.383  10.120   7.073  0.1548 -0.0826 -0.5806
  997MOL0     C34465   3.422  10.204   6.967 -0.0238 -0.3687 -0.4668
  997MOL0     C34466   3.536  10.281   6.966  0.3235  0.0687 -0.6524
  997MOL0     C34467   3.613  10.281   7.085  0.3028  0.3568  0.8246
  997MOL0     O34468   3.729  10.352   7.103  0.7445 -0.0190  0.9507
  997MOL0     C34469   3.810  10.406   6.991 -0.6994  1.1986  0.6508
  997MOL0     C34470   3.952  10.356   7.007 -0.4710  0.5692 -0.4778
  997MOL0     C34471   4.032  10.389   6.884 -0.6903  0.2711  0.9730
  997MOL0     C34472   4.186  10.383   6.908  1.0514  0.6812  0.1952
  997MOL0     C34473   4.266  10.443   6.791 -0.4477  0.1722  1.1997
  997MOL0     C34474   4.419  10.433   6.827  1.0294  0.0946  0.1523
  997MOL0     C34475   4.485  10.287   6.817  0.2261  0.4670  0.7012
  997MOL0     C34476   4.637  10.295   6.840 -0.4873  0.7196 -0.0098
  997MOL0     N34477   4.713  10.175   6.805  0.2711 -0.6230  0.3314
  997MOL0     C34478   4.840  10.163   6.853 -0.4901 -0.4636 -0.2823
  997MOL0     C34479   4.888  10.049   6.810 -0.9720  0.6513 -0.6035
  997MOL0     C34480   5.012   9.976   6.859 -0.3118 -0.6750 -0.1468
  997MOL0     C34481   5.117  10.061   6.928 -1.1009 -0.9490 -0.7728
  997MOL0     C34482   5.250   9.983   6.918 -0.4456  1.1573  0.3177
  997MOL0     C34483   5.372  10.066   6.949 -0.0365  0.5471 -0.6295
  997MOL0     O34484   5.385  10.174   6.851  0.4967  0.1617 -0.3725
  997MOL0     C34485   5.505  10.226   6.842  0.0546 -0.6876  0.6654
  997MOL0     C34486   5.620  10.203   6.929  0.8767 -0.3835  0.7167
  997MOL0     C34487   5.742  10.248   6.895 -0.3136  0.7115  0.3517
  997MOL0     C34488   5.853  10.216   6.990 -0.3076 -0.9169  0.6385
  997MOL0     C34489   5.753  10.338   6.782 -0.9926 -0.7345 -1.1807
  997MOL0     C34490   5.881  10.377   6.720  0.1178 -0.3426  0.8223
  997MOL0     O34491   5.864  10.482   6.632 -0.1538  0.0281  0.3589
  997MOL0     C34492   5.982  10.516   6.572 -0.3540 -0.8230  0.2611
  997MOL0     C34493   6.017  10.482   6.439  1.2069  0.2202 -0.6506
  997MOL0     C34494   6.135  10.524   6.381  0.1785  0.0807 -0.7620
  997MOL0     C34495   6.230  10.598   6.458 -0.0828 -0.4909 -0.1768
  997MOL0     O34496   6.351  10.643   6.402 -0.7802  0.1655 -0.1889
  997MOL0     C34497   6.363  10.666   6.260  0.7118  1.2227  0.2518
  997MOL0     C34498   6.283  10.800   6.225  0.6784  0.1261  0.2715
  997MOL0     C34499   6.268  10.800   6.074  0.5814 -0.5039 -0.2553
  997MOL0     C34500   6.200  10.923   6.018  0.0988 -0.7934 -0.1236
  997MOL0     C34501   6.187  10.928   5.862 -0.6650  0.5846 -0.3253
  997MOL0     C34502   6.324  10.940   5.780  0.2062 -0.1254 -0.6772
  997MOL0     C34503   6.323  10.969   5.628 -0.1095  0.1944  0.6462
  997MOL0     C34504   6.292  11.122   5.608 -0.5210  0.8274 -0.4774
  997MOL0    Cl34505   6.127  11.128   5.559 -0.3861 -0.4947  0.2038
  997MOL0     C34506   6.202  10.620   6.598 -0.1432  0.0254 -0.1562
  997MOL0     C34507   6.085  10.572   6.649  0.2210 -0.1668 -0.4865
  997MOL0     O34508   5.984  10.309   6.732  0.1267 -0.1603 -0.1815
  997MOL0     C34509   5.635  10.384   6.719  0.1934  0.0428  0.5862
  997MOL0     C34510   5.513  10.329   6.750  1.0365 -0.2364  0.1476
  997MOL0     N34511   4.788   9.993   6.728  0.3718 -0.3794 -0.3733
  997MOL0     N34512   4.687  10.077   6.722  0.0859  0.3045  0.5911
  997MOL0     C34513   3.574  10.200   7.193 -0.2933  0.1628  0.0525
  997MOL0     C34514   3.464  10.120   7.184  1.1715  0.6816  0.0740
  997MOL0     C34515   3.101   9.918   6.947  0.7848 -0.1851  0.2330
  997MOL0     C34516   3.025   9.934   7.067 -0.6537  0.7267 -0.3964
  997MOL0     C34517   2.896   9.873   7.075 -1.3551 -0.4580 -0.0262
  997MOL0     C34518   2.839   9.788   6.982 -1.0282 -0.1082  0.6924
  997MOL0     O34519   2.710   9.727   6.977 -0.3378  0.0700  0.0812
  997MOL0     C34520   2.622   9.748   7.088 -0.3184 -0.1234 -0.2523
  997MOL0     C34521   2.500   9.649   7.085 -0.6536  0.5716 -0.3488
  997MOL0     C34522   2.375   9.721   7.027  0.2819 -0.2249  0.2452
  997MOL0     C34523   2.272   9.613   6.976 -0.3984  0.1776 -0.3163
  997MOL0     C34524   2.246   9.511   7.075 -0.7977  0.0000 -0.2174
  997MOL0     C34525   2.229   9.425   7.160  0.8596 -0.7524 -0.2308
  997MOL0     C34526   2.909   9.793   6.851  0.2158  0.0454  0.8174
  997MOL0     C34527   3.038   9.851   6.837 -0.9046  0.5965 -0.3484
  997MOL0     H34528   3.364  10.213   6.876  1.3541  2.4621 -1.1863
  997MOL0     H34529   3.558  10.355   6.891 -0.1110  2.5345  1.4973
  997MOL0     H34530   3.766  10.376   6.896  0.8158 -1.0714  0.5818
  997MOL0     H34531   3.818  10.515   6.994  0.4025  1.1120  1.4998
  997MOL0     H34532   4.003  10.399   7.094  3.4112 -1.4306 -1.5232
  997MOL0     H34533   3.948  10.248   7.025  0.3999  0.4691 -0.8168
  997MOL0     H34534   4.015  10.317   6.803  1.0057  0.1319  0.7072
  997MOL0     H34535   4.012  10.490   6.847  2.4228  1.1262  1.4121
  997MOL0     H34536   4.222  10.439   6.994  1.0134  1.5137 -0.3207
  997MOL0     H34537   4.216  10.279   6.925  3.4666  0.8736 -2.2372
  997MOL0     H34538   4.255  10.379   6.703 -3.1304 -0.8855  2.1838
  997MOL0     H34539   4.234  10.547   6.786  1.3132  0.7832  2.0285
  997MOL0     H34540   4.476  10.493   6.756 -0.8602  2.3017  0.3791
  997MOL0     H34541   4.438  10.481   6.923 -0.3452  0.7981  0.1056
  997MOL0     H34542   4.435  10.219   6.887  0.1438  1.3867  1.5609
  997MOL0     H34543   4.463  10.244   6.718 -0.5978  1.2741  0.5157
  997MOL0     H34544   4.652  10.318   6.946  2.3385 -3.1691  0.6295
  997MOL0     H34545   4.672  10.375   6.773 -0.3091 -0.4326 -1.3496
  997MOL0     H34546   4.890  10.230   6.922 -0.5037  1.0588 -1.6784
  997MOL0     H34547   4.987   9.887   6.918  0.1562  0.3225  1.6415
  997MOL0     H34548   5.057   9.918   6.778  3.4498  0.4610  0.9631
  997MOL0     H34549   5.087  10.098   7.027  0.0405 -3.4004  0.5761
  997MOL0     H34550   5.115  10.154   6.870 -3.3091  0.1761  0.9295
  997MOL0     H34551   5.267   9.936   6.821  0.1547  1.9903  0.0105
  997MOL0     H34552   5.230   9.902   6.990 -0.1634  0.4445 -0.3905
  997MOL0     H34553   5.463  10.005   6.945  0.3655  0.9526  1.3077
  997MOL0     H34554   5.376  10.103   7.051  0.8982 -3.2215  0.8854
  997MOL0     H34555   5.619  10.145   7.021 -2.1870 -2.2981 -0.3417
  997MOL0     H34556   5.933  10.290   6.999 -3.0679  2.3629  0.1753
  997MOL0     H34557   5.819  10.194   7.091  1.0679 -6.6093  0.1848
  997MOL0     H34558   5.904  10.136   6.936 -1.5212 -0.1927 -1.7134
  997MOL0     H34559   5.942  10.427   6.383  0.6322  0.1957  0.1313
  997MOL0     H34560   6.150  10.498   6.277 -1.4802  2.1516 -1.6104
  997MOL0     H34561   6.468  10.679   6.232  1.7892 -0.1661  3.2492
  997MOL0     H34562   6.322  10.580   6.206 -1.9423  1.7382  1.3233
  997MOL0     H34563   6.179  10.811   6.256 -0.1621  2.0789 -2.8148
  997MOL0     H34564   6.346  10.881   6.266  0.0920  0.1061  1.2441
  997MOL0     H34565   6.213  10.711   6.040 -0.9433 -0.3088  1.5320
  997MOL0     H34566   6.366  10.795   6.026  0.9954 -0.1462  0.5237
  997MOL0     H34567   6.098  10.933   6.057  0.2106  0.6334 -0.1367
  997MOL0     H34568   6.257  11.012   6.047 -0.2482 -0.6244  0.0603
  997MOL0     H34569   6.130  11.014   5.826 -0.3709  1.7246  1.7875
  997MOL0     H34570   6.119  10.849   5.829 -2.5326  2.8939 -2.4830
  997MOL0     H34571   6.394  11.011   5.826  0.6748 -0.2797 -1.1513
  997MOL0     H34572   6.364  10.839   5.795 -0.6422 -0.1036  2.7168
  997MOL0     H34573   6.245  10.920   5.569  0.4131  2.2538 -1.9607
  997MOL0     H34574   6.420  10.958   5.579 -0.1787  2.1743 -0.0104
  997MOL0     H34575   6.365  11.155   5.533  2.0850 -4.2318 -0.5423
  997MOL0     H34576   6.310  11.183   5.697  0.7559 -0.2704  0.0544
  997MOL0     H34577   6.268  10.676   6.663 -0.8309  0.0611  0.5371
  997MOL0     H34578   6.067  10.586   6.755  0.0896  1.6157 -0.7033
  997MOL0     H34579   5.632  10.459   6.641  1.5272 -1.1164 -0.6542
  997MOL0     H34580   5.426  10.353   6.690  2.0198  2.2915 -0.3760
  997MOL0     H34581   3.637  10.175   7.278  0.0447  2.5881  0.5810
  997MOL0     H34582   3.443  10.059   7.271 -3.3005  1.9070  0.0638
  997MOL0     H34583   3.058  10.008   7.140  0.7775 -0.4876  0.2464
  997MOL0     H34584   2.848   9.884   7.172 -0.8833  2.3913 -0.0232
  997MOL0     H34585   2.653   9.737   7.192  1.6606 -1.8315 -0.9249
  997MOL0     H34586   2.579   9.847   7.076  1.5845  0.4811 -3.0423
  997MOL0     H34587   2.472   9.604   7.181  0.3101  1.7538  0.5198
  997MOL0     H34588   2.522   9.564   7.020 -2.0803 -0.1577  0.0773
  997MOL0     H34589   2.406   9.769   6.933 -1.9130 -1.2095 -1.0593
  997MOL0     H34590   2.330   9.799   7.089 -2.4445 -0.0178 -1.8239
  997MOL0     H34591   2.310   9.563   6.886 -1.9223  1.1094 -1.5299
  997MOL0     H34592   2.180   9.656   6.934  1.3644  0.8653 -3.8507
  997MOL0     H34593   2.198   9.374   7.249  0.3442  1.1923  0.7521
  997MOL0     H34594   2.860   9.749   6.764 -2.7123  1.4960  1.6102
  997MOL0     H34595   3.086   9.837   6.741  1.7739 -1.4544  1.1767
  998MOL0     O34596   2.426   7.991  10.646  0.5384  0.1214  0.7701
  998MOL0     C34597   2.304   8.002  10.627 -0.2399  0.0088  0.2079
  998MOL0     O34598   2.243   8.128  10.610 -0.3769  0.1251  0.3145
  998MOL0     C34599   2.319   8.239  10.606  0.6649 -0.8109  0.2914
  998MOL0     C34600   2.374   8.294  10.724 -0.7248 -0.1447 -0.2598
  998MOL0     C34601   2.441   8.413  10.719 -0.2234 -0.3011  0.4784
  998MOL0     C34602   2.448   8.490  10.602  0.1991  0.5659  0.3662
  998MOL0     O34603   2.515   8.609  10.594 -1.4137 -0.5459  0.5005
  998MOL0     C34604   2.477   8.696  10.492 -0.4135 -0.8077 -0.0175
  998MOL0     C34605   2.533   8.836  10.512  0.1240 -0.2822  0.6149
  998MOL0     C34606   2.473   8.942  10.415  0.2349  0.3120  0.4745
  998MOL0     C34607   2.317   8.974  10.455 -0.5127 -0.2013  0.0084
  998MOL0     C34608   2.320   9.082  10.566 -0.4017  0.2455  0.2592
  998MOL0     C34609   2.176   9.127  10.616 -1.0378  0.3392  0.1106
  998MOL0     C34610   2.082   9.176  10.507  0.6863  0.2370  0.0063
  998MOL0     C34611   1.977   9.252  10.569  1.1876 -0.4005 -1.2627
  998MOL0     N34612   1.873   9.164  10.626 -0.4598  0.1354 -0.4117
  998MOL0     C34613   1.750   9.148  10.560 -1.1285 -0.5067 -0.8013
  998MOL0     C34614   1.687   9.080  10.660 -0.3668  0.2803  0.5480
  998MOL0     C34615   1.552   9.032  10.639  0.6000  0.2002 -0.5386
  998MOL0     C34616   1.440   9.138  10.667 -0.6584  0.0766  0.9082
  998MOL0     C34617   1.305   9.075  10.662 -0.0450 -0.3771  0.0548
  998MOL0     C34618   1.196   9.181  10.633 -0.3826  0.1418  0.9280
  998MOL0     O34619   1.062   9.135  10.600  0.1325 -0.4488 -0.1057
  998MOL0     C34620   0.962   9.122  10.696  0.0641  0.2825  0.3594
  998MOL0     C34621   0.833   9.099  10.649 -0.1745 -0.8850 -0.1342
  998MOL0     C34622   0.715   9.091  10.737  0.4343  0.6661 -0.8165
  998MOL0     C34623   0.572   9.067  10.674 -0.2350  0.2719  0.9509
  998MOL0     C34624   0.740   9.103  10.878 -0.0788  0.3135  0.5213
  998MOL0     C34625   0.637   9.107  10.989  0.0725  0.4126 -0.4932
  998MOL0     O34626   0.675   9.140  11.109  0.4482  0.4012  0.1036
  998MOL0     C34627   0.581   9.176  11.204  0.6505 -0.0990  0.1025
  998MOL0     C34628   0.518   9.300  11.205 -0.4372  0.2884 -0.8201
  998MOL0     C34629   0.425   9.328  11.305  0.1984 -0.2872 -0.9795
  998MOL0     C34630   0.403   9.240  11.413  1.0209  0.7996  0.3550
  998MOL0     O34631   0.333   9.261  11.528 -0.5674 -0.1788  0.6762
  998MOL0     C34632   0.225   9.347  11.517 -0.0825 -0.7521 -0.5289
  998MOL0     C34633   0.103   9.289  11.589  0.0618  0.1716 -0.9537
  998MOL0     C34634   0.065   9.173  11.499 -0.1100  0.1289 -0.1079
  998MOL0     C34635  -0.036   9.093  11.581 -0.4421  0.5548  0.6593
  998MOL0     C34636  -0.032   8.953  11.524  0.2199 -0.3191 -0.8146
  998MOL0     C34637  -0.076   8.952  11.375 -0.0653 -0.0845 -0.7612
  998MOL0     C34638  -0.229   8.931  11.363 -0.2548  0.1668  0.0579
  998MOL0     C34639  -0.263   8.814  11.257 -0.6720  0.8025  0.1038
  998MOL0    Cl34640  -0.177   8.858  11.107  0.1757  0.0624 -0.0813
  998MOL0     C34641   0.464   9.114  11.417  0.5319  0.3503 -0.3739
  998MOL0     C34642   0.559   9.089  11.313 -0.1792  1.1313 -0.4078
  998MOL0     O34643   0.519   9.077  10.954 -0.5542  0.3071  0.2643
  998MOL0     C34644   0.870   9.112  10.923 -0.6829 -0.0497 -0.1546
  998MOL0     C34645   0.976   9.133  10.838 -0.1223  0.2207 -0.1826
  998MOL0     N34646   1.760   9.061  10.770  0.5932 -0.3534 -0.8625
  998MOL0     N34647   1.866   9.130  10.753 -0.0063  0.6088 -0.5177
  998MOL0     C34648   2.413   8.423  10.474 -0.3020  0.1305  0.1219
  998MOL0     C34649   2.348   8.304  10.483 -0.1989  0.4619 -0.7713
  998MOL0     C34650   2.215   7.884  10.600  1.0504 -0.7129 -0.2175
  998MOL0     C34651   2.238   7.761  10.661  0.5472 -0.4049  0.1446
  998MOL0     C34652   2.160   7.651  10.626  1.1232 -0.2979 -0.3598
  998MOL0     C34653   2.049   7.659  10.540 -0.7997 -0.8695 -0.5938
  998MOL0     O34654   1.988   7.549  10.490  0.6205 -0.0542 -1.1220
  998MOL0     C34655   2.031   7.409  10.507 -0.3272 -1.1505 -0.3931
  998MOL0     C34656   1.939   7.307  10.432 -0.3579 -0.5031  0.2807
  998MOL0     C34657   1.917   7.318  10.281  0.6347  0.5067 -0.1015
  998MOL0     C34658   1.826   7.200  10.225  0.0419 -0.3191 -0.0318
  998MOL0     C34659   1.918   7.116  10.132  0.6793 -0.2619  0.2319
  998MOL0     C34660   1.962   7.039  10.059  0.3302 -0.2131 -0.2943
  998MOL0     C34661   2.018   7.783  10.485  0.5688 -0.0627  0.8277
  998MOL0     C34662   2.103   7.893  10.509 -0.4546 -0.0325 -0.2732
  998MOL0     H34663   2.367   8.228  10.811 -2.2556 -2.1276 -1.7913
  998MOL0     H34664   2.481   8.465  10.805 -0.9344 -0.3075  0.8209
  998MOL0     H34665   2.513   8.670  10.393 -1.3874  0.4769 -0.7429
  998MOL0     H34666   2.367   8.698  10.495 -0.6070 -0.6027 -3.4991
  998MOL0     H34667   2.496   8.860  10.612 -2.7548 -0.0030 -0.4176
  998MOL0     H34668   2.642   8.846  10.508  0.3149 -1.9685 -2.8780
  998MOL0     H34669   2.538   9.030  10.412  0.3294  0.2600  0.9196
  998MOL0     H34670   2.479   8.897  10.315 -1.4972 -0.5878  0.7534
  998MOL0     H34671   2.263   9.007  10.366 -0.2189  2.6167  0.7827
  998MOL0     H34672   2.260   8.899  10.511 -0.5140  0.2375  0.6194
  998MOL0     H34673   2.372   9.039  10.652  1.9682  1.5856 -0.4095
  998MOL0     H34674   2.371   9.169  10.524 -2.1769 -0.2477 -3.2017
  998MOL0     H34675   2.127   9.046  10.671  0.9250 -0.9392  0.0675
  998MOL0     H34676   2.189   9.204  10.693 -0.3106  0.3862 -0.0467
  998MOL0     H34677   2.127   9.240  10.430  1.8049 -2.7050 -1.9714
  998MOL0     H34678   2.050   9.092  10.444 -0.8083  0.2657  0.6863
  998MOL0     H34679   1.929   9.326  10.504  0.0798  1.2082  1.2208
  998MOL0     H34680   2.007   9.318  10.651 -1.6134  1.5349 -1.6377
  998MOL0     H34681   1.729   9.155  10.453 -1.5217 -2.1224 -0.8594
  998MOL0     H34682   1.545   8.990  10.538  0.8018  2.7977 -1.7185
  998MOL0     H34683   1.532   8.947  10.704 -1.2635 -1.3330 -2.9278
  998MOL0     H34684   1.443   9.217  10.591  1.1954  0.7309  1.6018
  998MOL0     H34685   1.458   9.187  10.763 -3.4937  0.6494  1.2394
  998MOL0     H34686   1.279   9.032  10.759  2.5656  1.5854  1.7871
  998MOL0     H34687   1.297   9.001  10.582 -1.3310  0.2678 -0.4326
  998MOL0     H34688   1.215   9.247  10.548  1.3234 -0.6686  0.6393
  998MOL0     H34689   1.189   9.252  10.717 -1.1706  0.5562  0.5190
  998MOL0     H34690   0.814   9.081  10.543 -0.7933 -1.5332  0.0741
  998MOL0     H34691   0.509   9.002  10.736 -2.0170  4.0947  3.5636
  998MOL0     H34692   0.538   9.170  10.661 -0.1509  0.2768  0.7631
  998MOL0     H34693   0.587   9.024  10.575  0.2187 -4.0154  2.6586
  998MOL0     H34694   0.548   9.377  11.136  2.1147  0.1560  0.0505
  998MOL0     H34695   0.369   9.420  11.292 -2.4764 -1.6151  0.4050
  998MOL0     H34696   0.246   9.445  11.562  1.4095 -1.1827 -0.2355
  998MOL0     H34697   0.186   9.360  11.415 -3.6264  2.0763  0.9592
  998MOL0     H34698   0.141   9.260  11.687  0.8397  0.0985 -1.2630
  998MOL0     H34699   0.029   9.368  11.603 -1.6499 -1.5981  0.4961
  998MOL0     H34700   0.149   9.105  11.486  1.6508  1.0174  4.5650
  998MOL0     H34701   0.018   9.210  11.408 -0.4715  0.2933  0.1409
  998MOL0     H34702  -0.004   9.090  11.685  2.0258  1.3316 -0.0225
  998MOL0     H34703  -0.133   9.142  11.566 -0.5414 -0.5448 -3.6531
  998MOL0     H34704  -0.101   8.890  11.581  0.0955 -1.0437 -1.7427
  998MOL0     H34705   0.067   8.907  11.526 -0.9100 -3.0702 -2.2564
  998MOL0     H34706  -0.041   9.042  11.323  0.4210 -0.4461 -1.0676
  998MOL0     H34707  -0.033   8.856  11.344 -0.1783 -1.0415  1.8228
  998MOL0     H34708  -0.260   9.030  11.329  2.1015  1.1410  0.5342
  998MOL0     H34709  -0.269   8.904  11.461  3.6876 -1.0313  1.5456
  998MOL0     H34710  -0.371   8.808  11.238 -0.9312 -1.4753  1.9791
  998MOL0     H34711  -0.246   8.714  11.296 -1.9804  1.5420  2.8016
  998MOL0     H34712   0.458   9.057  11.509  2.4631 -2.1411 -1.6742
  998MOL0     H34713   0.617   8.998  11.318 -4.0319 -1.6558 -1.5371
  998MOL0     H34714   0.902   9.092  11.025  0.9002 -1.5404 -0.8779
  998MOL0     H34715   1.076   9.123  10.879 -1.4841 -2.6911  2.8981
  998MOL0     H34716   2.437   8.470  10.379  2.0429 -0.8382  0.1579
  998MOL0     H34717   2.308   8.255  10.395 -4.9375  2.4416 -0.0220
  998MOL0     H34718   2.320   7.745  10.730  0.3849 -3.2267 -0.2096
  998MOL0     H34719   2.184   7.552  10.664 -1.4182 -0.4608  0.9981
  998MOL0     H34720   2.128   7.394  10.458 -0.2742 -4.2438  0.3972
  998MOL0     H34721   2.039   7.384  10.614  1.6781  0.1400 -0.1852
  998MOL0     H34722   1.843   7.308  10.484 -0.5691 -0.1496 -0.1112
  998MOL0     H34723   1.993   7.214  10.453  1.6543  0.1867 -1.4188
  998MOL0     H34724   2.013   7.326  10.228  0.7858  1.4928  0.2964
  998MOL0     H34725   1.855   7.407  10.267 -0.3355 -0.0393  0.6131
  998MOL0     H34726   1.728   7.231  10.188 -0.4369  0.3690  1.6965
  998MOL0     H34727   1.805   7.133  10.308  2.2146  0.0532  0.8980
  998MOL0     H34728   2.011   6.958  10.008 -1.7576 -0.8686 -1.3813
  998MOL0     H34729   1.936   7.785  10.413  0.2084  0.3224  1.2422
  998MOL0     H34730   2.073   7.988  10.467 -2.3092 -1.8350 -3.4694
  999MOL0     O34731   1.501   2.919   1.165  0.1512  0.0987  0.0930
  999MOL0     C34732   1.473   2.914   1.281  0.0498  0.9661  0.1628
  999MOL0     O34733   1.440   3.026   1.364  0.1909  1.2732  0.7249
  999MOL0     C34734   1.477   3.150   1.313  0.4673  0.3451 -0.3296
  999MOL0     C34735   1.369   3.222   1.268  0.0587  0.1316 -0.3510
  999MOL0     C34736   1.383   3.356   1.232 -0.6494  0.6369 -0.2188
  999MOL0     C34737   1.508   3.416   1.239  1.2455 -0.3487  0.1452
  999MOL0     O34738   1.514   3.552   1.224 -0.1543  0.7981  0.2293
  999MOL0     C34739   1.625   3.617   1.158 -0.5063 -0.6779 -0.0663
  999MOL0     C34740   1.640   3.585   1.008 -0.3184  0.4816  0.0326
  999MOL0     C34741   1.512   3.626   0.920 -0.2754  0.1268 -1.5973
  999MOL0     C34742   1.488   3.525   0.815 -0.7543 -1.1768 -0.0024
  999MOL0     C34743   1.391   3.570   0.711  0.4393  0.1089 -0.2445
  999MOL0     C34744   1.347   3.458   0.609  0.7735 -0.0122 -0.0564
  999MOL0     C34745   1.275   3.347   0.680  0.6030 -0.2386 -0.0822
  999MOL0     C34746   1.125   3.386   0.721 -0.0969 -0.0463  0.0576
  999MOL0     N34747   1.070   3.282   0.817  0.1705  0.1484 -0.0468
  999MOL0     C34748   0.993   3.167   0.790  0.0117 -0.7480 -0.2104
  999MOL0     C34749   0.971   3.109   0.906 -0.2148 -0.1657  1.0462
  999MOL0     C34750   0.888   2.985   0.913  0.3837  0.7838 -0.4832
  999MOL0     C34751   0.736   3.009   0.890 -1.4476  0.1560 -0.2751
  999MOL0     C34752   0.672   2.892   0.821  0.3168 -1.4922  0.1311
  999MOL0     C34753   0.522   2.926   0.815  0.0252  0.0718 -0.3245
  999MOL0     O34754   0.499   3.059   0.770 -0.4690  0.0859 -0.1976
  999MOL0     C34755   0.397   3.083   0.687 -0.0012 -0.1912 -0.7443
  999MOL0     C34756   0.384   3.216   0.645 -0.3489  1.1133  0.7005
  999MOL0     C34757   0.289   3.262   0.551 -0.0249  1.1350  0.2147
  999MOL0     C34758   0.308   3.405   0.512 -0.3441  0.5458  0.1052
  999MOL0     C34759   0.193   3.169   0.506  0.7754 -0.0148 -0.5070
  999MOL0     C34760   0.102   3.194   0.389 -0.4194  0.5540 -0.8024
  999MOL0     O34761   0.023   3.078   0.363  0.5037  0.1863 -0.4608
  999MOL0     C34762  -0.072   3.072   0.264  0.4219  0.1566  0.8141
  999MOL0     C34763  -0.113   2.946   0.219 -0.8755 -0.2897  0.2558
  999MOL0     C34764  -0.197   2.921   0.115 -0.2250  0.0496  0.5924
  999MOL0     C34765  -0.249   3.032   0.041  0.2857 -0.5918 -0.5503
  999MOL0     O34766  -0.323   3.001  -0.078 -0.7449 -0.0596 -0.3540
  999MOL0     C34767  -0.313   3.088  -0.192  0.1247  0.4746 -0.0246
  999MOL0     C34768  -0.384   3.027  -0.317  0.2409 -0.3478 -0.0751
  999MOL0     C34769  -0.460   3.133  -0.398  1.1860  0.0251  0.1781
  999MOL0     C34770  -0.598   3.158  -0.344 -0.1986  1.1828 -0.2479
  999MOL0     C34771  -0.657   3.283  -0.400 -0.9417 -0.4614 -0.7090
  999MOL0     C34772  -0.791   3.322  -0.349 -0.0403 -0.8138 -0.4986
  999MOL0     C34773  -0.897   3.222  -0.394  0.4650 -0.0646 -0.1852
  999MOL0     C34774  -1.039   3.276  -0.400 -0.1055 -0.9603  0.1127
  999MOL0    Cl34775  -1.076   3.392  -0.274 -0.0332 -0.7228  0.0696
  999MOL0     C34776  -0.218   3.164   0.088  0.3592  0.4166 -0.1404
  999MOL0     C34777  -0.132   3.186   0.195  0.0711  0.3594 -0.8164
  999MOL0     O34778   0.107   3.298   0.323 -0.5981  0.6234 -0.1138
  999MOL0     C34779   0.192   3.043   0.565  0.1381 -0.2786  0.3956
  999MOL0     C34780   0.291   3.001   0.655  0.4675  0.6503  0.5359
  999MOL0     N34781   1.039   3.182   1.009 -0.0414  0.0124  0.5912
  999MOL0     N34782   1.090   3.287   0.948  0.2243  0.1191  0.5585
  999MOL0     C34783   1.619   3.341   1.282  0.2527 -0.3786 -0.4627
  999MOL0     C34784   1.606   3.204   1.320 -0.3406 -0.2434  0.2167
  999MOL0     C34785   1.531   2.800   1.351  0.3826  0.8522 -1.3712
  999MOL0     C34786   1.564   2.797   1.493 -0.4223  0.1475  0.6150
  999MOL0     C34787   1.610   2.675   1.558  0.1573 -0.0211  0.6379
  999MOL0     C34788   1.647   2.559   1.480  0.5879 -0.1596 -0.4034
  999MOL0     O34789   1.693   2.442   1.534 -0.2218  0.2140 -0.1900
  999MOL0     C34790   1.704   2.418   1.671  0.0801  0.4820  0.2419
  999MOL0     C34791   1.777   2.278   1.689  0.3492  0.4227  0.7052
  999MOL0     C34792   1.923   2.288   1.636  1.1747 -0.6710 -0.0182
  999MOL0     C34793   2.003   2.167   1.654  0.1385  0.6548  0.6412
  999MOL0     C34794   2.140   2.203   1.690 -0.0687  0.3614  0.8860
  999MOL0     C34795   2.254   2.219   1.727 -0.2429 -0.2333 -0.4832
  999MOL0     C34796   1.607   2.571   1.351  0.3574  1.2481 -0.5394
  999MOL0     C34797   1.552   2.675   1.289 -0.8608 -0.1915 -0.0745
  999MOL0     H34798   1.271   3.175   1.261 -0.2937  0.6959  0.5589
  999MOL0     H34799   1.294   3.405   1.194 -2.3551 -2.6016 -0.7463
  999MOL0     H34800   1.615   3.725   1.170  1.8523 -0.6122  2.2353
  999MOL0     H34801   1.716   3.593   1.214  0.1264  2.3720  0.3980
  999MOL0     H34802   1.729   3.630   0.963  0.5617  2.2768  3.1745
  999MOL0     H34803   1.660   3.478   1.019 -0.8893  0.2250 -1.3253
  999MOL0     H34804   1.423   3.631   0.984  1.5497 -0.3662  1.1698
  999MOL0     H34805   1.536   3.728   0.889  0.9486  0.3174 -0.1825
  999MOL0     H34806   1.578   3.488   0.765 -0.1335  1.4086 -0.9508
  999MOL0     H34807   1.458   3.434   0.869 -4.8761 -0.8240 -1.3289
  999MOL0     H34808   1.302   3.611   0.759 -1.1243 -4.2521  1.0065
  999MOL0     H34809   1.427   3.641   0.635 -2.5548  2.6250  0.4986
  999MOL0     H34810   1.290   3.502   0.527  1.7478  1.5402  0.0519
  999MOL0     H34811   1.446   3.419   0.582  2.2652 -0.6058  5.2347
  999MOL0     H34812   1.271   3.262   0.611 -1.3865 -0.3778  0.1562
  999MOL0     H34813   1.330   3.304   0.764 -0.7210 -2.0638 -0.0829
  999MOL0     H34814   1.048   3.395   0.644 -2.5199 -2.5088  2.0218
  999MOL0     H34815   1.125   3.477   0.782 -1.4856 -0.2980  0.4588
  999MOL0     H34816   0.949   3.139   0.694 -1.4266  0.0917  0.1756
  999MOL0     H34817   0.918   2.910   0.839 -1.5172  0.1782 -0.7058
  999MOL0     H34818   0.889   2.944   1.014 -2.5313  1.3615 -0.1080
  999MOL0     H34819   0.727   3.097   0.825 -2.7477 -1.4681 -2.4087
  999MOL0     H34820   0.700   3.028   0.992  1.6478 -0.2976  1.0230
  999MOL0     H34821   0.690   2.821   0.902  2.7913  2.1260  3.0849
  999MOL0     H34822   0.703   2.862   0.721 -2.8077  0.2591 -1.5463
  999MOL0     H34823   0.468   2.909   0.909 -0.0196 -0.9049 -0.5132
  999MOL0     H34824   0.478   2.851   0.749 -1.8192  0.1582  0.7209
  999MOL0     H34825   0.461   3.286   0.675 -0.6551  0.9733  1.8557
  999MOL0     H34826   0.306   3.431   0.406 -0.5599  0.9896  0.2191
  999MOL0     H34827   0.233   3.470   0.556  1.9064  1.4106  2.9715
  999MOL0     H34828   0.401   3.454   0.541 -0.6334  0.2425  1.6464
  999MOL0     H34829  -0.063   2.866   0.273 -1.7580 -0.1348  1.3405
  999MOL0     H34830  -0.229   2.821   0.090  1.1765 -1.0025  2.7336
  999MOL0     H34831  -0.353   3.188  -0.172 -0.4800 -0.1443  2.1592
  999MOL0     H34832  -0.206   3.103  -0.210  0.6537 -0.4426  2.0947
  999MOL0     H34833  -0.308   2.991  -0.387  0.0547 -0.1669 -0.3676
  999MOL0     H34834  -0.442   2.938  -0.289  0.8217 -1.2899 -1.7314
  999MOL0     H34835  -0.482   3.087  -0.494 -3.6216  0.6138  0.7258
  999MOL0     H34836  -0.400   3.222  -0.421  4.1722 -1.8409  0.2562
  999MOL0     H34837  -0.657   3.081  -0.395  3.0979  0.9633 -4.2583
  999MOL0     H34838  -0.595   3.147  -0.235  4.4817  1.1281 -0.1834
  999MOL0     H34839  -0.674   3.287  -0.507 -4.2277  1.2899 -0.2267
  999MOL0     H34840  -0.585   3.362  -0.375 -0.7152 -1.0610  0.6648
  999MOL0     H34841  -0.782   3.324  -0.240  1.5308 -1.2238 -0.5955
  999MOL0     H34842  -0.828   3.414  -0.397  0.8249  0.5925  1.3911
  999MOL0     H34843  -0.892   3.143  -0.319  1.9363  0.1989  0.0303
  999MOL0     H34844  -0.882   3.179  -0.494 -0.7456  1.4709 -1.0744
  999MOL0     H34845  -1.107   3.190  -0.398  0.0195 -1.0439  1.2243
  999MOL0     H34846  -1.047   3.332  -0.494 -0.4882 -2.0837 -0.5462
  999MOL0     H34847  -0.256   3.247   0.030  0.0079 -0.7137 -1.5793
  999MOL0     H34848  -0.106   3.289   0.214  0.1392  0.2491 -0.3066
  999MOL0     H34849   0.119   2.965   0.544  0.3037 -0.3324  0.0142
  999MOL0     H34850   0.279   2.902   0.697 -2.5617 -0.3708 -2.2493
  999MOL0     H34851   1.712   3.396   1.291  0.1387  0.2499 -2.6762
  999MOL0     H34852   1.695   3.149   1.347 -0.1068 -0.0701 -0.1806
  999MOL0     H34853   1.549   2.892   1.542  1.3136  0.2959  0.9422
  999MOL0     H34854   1.640   2.686   1.662 -0.5366  5.1773  0.5779
  999MOL0     H34855   1.777   2.488   1.715  0.9632 -0.9690  1.1821
  999MOL0     H34856   1.611   2.422   1.727 -0.5066 -1.6402 -0.5151
  999MOL0     H34857   1.722   2.205   1.630 -3.5899  3.3912  0.3069
  999MOL0     H34858   1.784   2.231   1.788 -1.0310  0.0318  0.6306
  999MOL0     H34859   1.967   2.376   1.685  2.3601  0.1345 -2.4024
  999MOL0     H34860   1.920   2.314   1.530  2.3044  3.6433  0.8292
  999MOL0     H34861   1.999   2.106   1.563 -0.7327  0.1037  1.0319
  999MOL0     H34862   1.957   2.108   1.734 -0.5681 -1.3737 -1.1590
  999MOL0     H34863   2.355   2.223   1.762 -1.0963  0.7583  2.0321
  999MOL0     H34864   1.604   2.480   1.290 -1.6198  2.0009 -1.6631
  999MOL0     H34865   1.518   2.655   1.188 -1.1046 -2.7339  0.4367
 1000MOL0     O34866   2.263   4.518   9.369  0.9239  0.1889  0.5354
 1000MOL0     C34867   2.203   4.472   9.271  1.0079  0.6385 -0.0494
 1000MOL0     O34868   2.089   4.388   9.279  0.0024 -0.8261  0.1061
 1000MOL0     C34869   2.042   4.382   9.409 -1.1251  0.4766 -0.3412
 1000MOL0     C34870   2.078   4.266   9.483  0.4570 -0.3015  0.2272
 1000MOL0     C34871   2.036   4.251   9.613  0.1289 -0.8489 -0.0948
 1000MOL0     C34872   1.968   4.361   9.680 -0.2180  0.5572  0.7144
 1000MOL0     O34873   1.901   4.352   9.803 -0.3346  0.1209 -0.5567
 1000MOL0     C34874   1.958   4.246   9.881 -0.3092 -0.9344  0.7185
 1000MOL0     C34875   1.904   4.267  10.027  0.4500  0.0077 -0.3916
 1000MOL0     C34876   1.749   4.228  10.049  0.1713  0.4514 -1.1055
 1000MOL0     C34877   1.716   4.252  10.195  0.6687 -0.7401  0.5207
 1000MOL0     C34878   1.585   4.171  10.232 -0.7671  0.0271  0.0616
 1000MOL0     C34879   1.524   4.199  10.371 -0.1912  0.3143  0.1333
 1000MOL0     C34880   1.599   4.115  10.479  0.1512  0.7272  0.8859
 1000MOL0     C34881   1.538   4.124  10.627 -0.0529 -0.3391  0.8420
 1000MOL0     N34882   1.596   4.241  10.695  0.4909  0.1772  1.0754
 1000MOL0     C34883   1.715   4.227  10.759  0.2683  0.0857 -0.9625
 1000MOL0     C34884   1.748   4.352  10.800  0.0872  0.3001  1.0923
 1000MOL0     C34885   1.873   4.403  10.866 -0.9718 -0.3109 -0.2183
 1000MOL0     C34886   2.003   4.388  10.775 -0.5200  0.2473 -0.4122
 1000MOL0     C34887   2.006   4.456  10.638 -0.2318 -0.7752 -0.2028
 1000MOL0     C34888   2.138   4.474  10.574 -0.4341 -0.0577 -0.5621
 1000MOL0     O34889   2.183   4.353  10.507 -0.9224 -0.2083 -0.1416
 1000MOL0     C34890   2.305   4.357  10.439  0.2417 -0.9132 -0.3200
 1000MOL0     C34891   2.379   4.470  10.411 -0.2826 -0.3669  0.3958
 1000MOL0     C34892   2.498   4.478  10.340 -0.4802  0.2467 -0.1616
 1000MOL0     C34893   2.576   4.603  10.340  0.8673 -0.5664  0.3982
 1000MOL0     C34894   2.547   4.356  10.284  0.9756 -0.6534  1.7082
 1000MOL0     C34895   2.678   4.343  10.208  1.5244  0.2261 -0.7103
 1000MOL0     O34896   2.691   4.217  10.154  0.5686  0.7946  0.9901
 1000MOL0     C34897   2.792   4.193  10.064 -0.1210 -0.1020  0.5678
 1000MOL0     C34898   2.837   4.063  10.039 -0.0101  0.2760 -0.1692
 1000MOL0     C34899   2.953   4.031   9.954  1.3895 -0.3410  0.7172
 1000MOL0     C34900   3.011   4.131   9.888 -0.5194 -0.3468  1.1601
 1000MOL0     O34901   3.133   4.113   9.815  0.7655 -0.5569  0.1062
 1000MOL0     C34902   3.195   3.987   9.793  0.2488 -0.2170 -0.1977
 1000MOL0     C34903   3.335   4.003   9.740 -0.4647 -0.0957 -0.0331
 1000MOL0     C34904   3.394   3.870   9.680  0.1775 -0.7811 -0.3741
 1000MOL0     C34905   3.434   3.775   9.797  0.3618 -0.5599  0.1237
 1000MOL0     C34906   3.583   3.789   9.825  0.0826 -0.0710 -0.9617
 1000MOL0     C34907   3.655   3.677   9.903  0.1181  0.2854  0.0304
 1000MOL0     C34908   3.804   3.713   9.923 -1.8992  0.0034 -0.5557
 1000MOL0     C34909   3.873   3.611  10.023  0.2034  0.3353  0.0245
 1000MOL0    Cl34910   4.032   3.659  10.060  0.5036  0.3287 -0.3784
 1000MOL0     C34911   2.960   4.262   9.897  0.5090 -0.0240  0.3602
 1000MOL0     C34912   2.845   4.292   9.976 -0.1525  0.1033  0.6650
 1000MOL0     O34913   2.762   4.434  10.211  0.3518  0.0301 -0.0268
 1000MOL0     C34914   2.466   4.241  10.296 -0.3065  0.4432 -0.2347
 1000MOL0     C34915   2.346   4.248  10.376 -0.5022  0.3071  0.5792
 1000MOL0     N34916   1.647   4.434  10.769 -0.2880 -0.1927  0.3625
 1000MOL0     N34917   1.561   4.373  10.689 -0.5706  0.1611  0.3185
 1000MOL0     C34918   1.929   4.475   9.601  0.1044 -0.7016 -0.6394
 1000MOL0     C34919   1.960   4.475   9.468  0.4614  0.7489 -0.3521
 1000MOL0     C34920   2.264   4.489   9.133  0.0071 -0.1734  0.6578
 1000MOL0     C34921   2.389   4.548   9.121 -0.1152 -0.5321 -0.1225
 1000MOL0     C34922   2.473   4.532   9.010  0.3261 -0.4321 -0.0394
 1000MOL0     C34923   2.427   4.473   8.891  0.7234 -0.0854 -0.5046
 1000MOL0     O34924   2.478   4.447   8.765 -0.0943  0.4018  0.7729
 1000MOL0     C34925   2.609   4.503   8.728 -0.7009 -0.5570 -0.8823
 1000MOL0     C34926   2.655   4.487   8.585 -0.6455  0.1915 -0.2012
 1000MOL0     C34927   2.554   4.538   8.473 -0.0148  0.6871  0.9214
 1000MOL0     C34928   2.606   4.532   8.324  0.3695  0.7085 -0.7820
 1000MOL0     C34929   2.695   4.639   8.282 -0.6178 -0.5309  0.1589
 1000MOL0     C34930   2.774   4.729   8.254 -0.2279  0.7206  0.5190
 1000MOL0     C34931   2.295   4.427   8.901 -0.3536 -0.4038 -0.3605
 1000MOL0     C34932   2.218   4.430   9.023  0.2820  0.4091  0.5415
 1000MOL0     H34933   2.136   4.188   9.435  0.6678 -0.5632  0.8903
 1000MOL0     H34934   2.041   4.157   9.667  1.2084  0.5529  2.4207
 1000MOL0     H34935   1.928   4.149   9.841 -1.0255 -0.4326 -0.0120
 1000MOL0     H34936   2.065   4.268   9.876 -0.6459  1.1703  1.4558
 1000MOL0     H34937   1.971   4.205  10.087 -1.0267 -0.3889  0.8963
 1000MOL0     H34938   1.918   4.373  10.052 -6.3157  1.1538  0.3472
 1000MOL0     H34939   1.682   4.288   9.987 -0.8767 -1.2620 -1.7082
 1000MOL0     H34940   1.745   4.121  10.026 -0.3357 -0.4016  2.3769
 1000MOL0     H34941   1.799   4.215  10.256  1.7393 -0.7496 -0.8914
 1000MOL0     H34942   1.704   4.360  10.206  1.2789 -0.0850 -3.6411
 1000MOL0     H34943   1.515   4.219  10.163 -1.0371  1.7838  1.4649
 1000MOL0     H34944   1.590   4.065  10.207 -1.2309 -0.3638  1.5376
 1000MOL0     H34945   1.530   4.304  10.401  4.9527 -0.8487  4.8502
 1000MOL0     H34946   1.417   4.178  10.380 -1.3121  4.5661 -0.6579
 1000MOL0     H34947   1.580   4.007  10.468 -1.8166  0.8912  2.1285
 1000MOL0     H34948   1.706   4.137  10.487 -0.4254  4.1282  0.7111
 1000MOL0     H34949   1.557   4.028  10.676 -0.7613 -2.2995 -2.3738
 1000MOL0     H34950   1.432   4.141  10.609  0.8291  1.7451 -4.2979
 1000MOL0     H34951   1.770   4.135  10.772 -2.8691 -2.0577 -1.5731
 1000MOL0     H34952   1.852   4.510  10.873 -0.8186 -0.1491 -1.7536
 1000MOL0     H34953   1.894   4.359  10.963 -1.1824 -0.2453 -0.1423
 1000MOL0     H34954   2.004   4.279  10.782 -2.4079  0.1277 -1.5230
 1000MOL0     H34955   2.077   4.436  10.840  0.7730 -0.5573 -1.2372
 1000MOL0     H34956   1.967   4.557  10.656 -1.4493 -1.7409  3.4130
 1000MOL0     H34957   1.938   4.398  10.576  0.5616  0.2129 -2.0746
 1000MOL0     H34958   2.216   4.507  10.642 -0.3006 -1.7077  0.1331
 1000MOL0     H34959   2.126   4.550  10.496  4.4376  0.2429 -1.3068
 1000MOL0     H34960   2.339   4.555  10.467  0.9756 -1.0069  2.3717
 1000MOL0     H34961   2.516   4.690  10.369 -1.1216 -1.4597 -0.8501
 1000MOL0     H34962   2.661   4.589  10.408  0.3054 -2.6525  0.7387
 1000MOL0     H34963   2.614   4.623  10.239 -1.8097  1.9454 -0.2659
 1000MOL0     H34964   2.791   3.994  10.109 -0.5096  0.5450 -0.2324
 1000MOL0     H34965   2.981   3.927   9.957 -0.6233 -1.1515 -3.0033
 1000MOL0     H34966   3.196   3.936   9.890 -0.6656 -1.6352 -0.8985
 1000MOL0     H34967   3.144   3.918   9.724  1.6528 -2.9627  1.3321
 1000MOL0     H34968   3.328   4.081   9.663 -1.2869  2.4147  2.4470
 1000MOL0     H34969   3.398   4.043   9.820 -0.0608 -1.3879  0.3139
 1000MOL0     H34970   3.481   3.900   9.620 -0.4297  1.8850 -0.0237
 1000MOL0     H34971   3.324   3.816   9.616  0.9075 -0.2196 -1.6962
 1000MOL0     H34972   3.366   3.800   9.878  1.1057 -0.9316  0.8781
 1000MOL0     H34973   3.421   3.672   9.763 -0.5385 -0.0440 -1.1874
 1000MOL0     H34974   3.601   3.883   9.878 -0.1216  0.5394 -1.9456
 1000MOL0     H34975   3.637   3.813   9.733 -0.0032  0.6932 -0.8179
 1000MOL0     H34976   3.603   3.657   9.996 -0.3653  0.1183 -0.2715
 1000MOL0     H34977   3.650   3.594   9.832 -0.7873  0.1312  0.2621
 1000MOL0     H34978   3.823   3.811   9.969  0.3654 -0.4203 -0.4537
 1000MOL0     H34979   3.856   3.724   9.828 -2.6610  1.9058 -0.8069
 1000MOL0     H34980   3.871   3.511   9.978 -0.3418 -0.4920  1.7683
 1000MOL0     H34981   3.811   3.599  10.112 -0.3551  0.7422 -0.3098
 1000MOL0     H34982   3.011   4.348   9.855  0.6876 -0.2093  0.1970
 1000MOL0     H34983   2.823   4.398   9.976  1.3496  0.5789 -3.1883
 1000MOL0     H34984   2.474   4.145  10.246 -1.8856  1.3069 -2.2615
 1000MOL0     H34985   2.301   4.156  10.411 -0.5434  1.1739  2.9449
 1000MOL0     H34986   1.870   4.558   9.640  3.8296  2.2345 -0.6859
 1000MOL0     H34987   1.923   4.569   9.430 -0.4617  0.8698  0.8041
 1000MOL0     H34988   2.447   4.573   9.209 -0.4106 -2.6673  0.7274
 1000MOL0     H34989   2.569   4.579   9.030  0.4999 -0.2755 -1.1775
 1000MOL0     H34990   2.613   4.612   8.733 -2.6480 -0.4398 -1.2049
 1000MOL0     H34991   2.688   4.475   8.798 -0.2605  1.7269 -0.3719
 1000MOL0     H34992   2.665   4.382   8.560 -1.0817 -0.0671  0.6674
 1000MOL0     H34993   2.751   4.539   8.573 -0.4703 -0.5438 -2.6550
 1000MOL0     H34994   2.545   4.642   8.505  1.0975  0.8220  0.8263
 1000MOL0     H34995   2.460   4.482   8.486 -0.2213  1.1035  1.2565
 1000MOL0     H34996   2.521   4.557   8.259  1.9959  6.9675 -1.1831
 1000MOL0     H34997   2.639   4.432   8.295  1.4462  0.6466  0.6043
 1000MOL0     H34998   2.843   4.801   8.217  0.1901  0.4820  0.8299
 1000MOL0     H34999   2.260   4.368   8.817  1.2723 -2.2127  0.1475
 1000MOL0     H35000   2.114   4.401   9.033 -0.4237  2.8750  1.2329
 1001MOL0     O35001  11.016   0.290   6.463 -1.2871  0.2610  0.4460
 1001MOL0     C35002  11.044   0.411   6.464  0.7528  0.3838  1.4158
 1001MOL0     O35003  10.973   0.502   6.391  0.2665  0.4098  0.3922
 1001MOL0     C35004  10.880   0.457   6.295  0.1286 -0.4791 -0.7394
 1001MOL0     C35005  10.745   0.483   6.307  0.0146  0.3970 -0.5783
 1001MOL0     C35006  10.663   0.417   6.219 -0.2867  0.6487  0.5791
 1001MOL0     C35007  10.716   0.338   6.121  0.3175  0.0490 -0.9778
 1001MOL0     O35008  10.656   0.292   6.014  0.4139  0.9757  0.0596
 1001MOL0     C35009  10.509   0.276   6.019 -0.3925  0.0122 -0.1397
 1001MOL0     C35010  10.463   0.150   6.107  0.1844 -0.2675  0.1481
 1001MOL0     C35011  10.331   0.099   6.042 -0.2942 -0.5324  1.2103
 1001MOL0     C35012  10.270  -0.009   6.118 -0.2404 -0.3525 -1.1542
 1001MOL0     C35013  10.161  -0.060   6.048 -0.7412  0.3723  0.2680
 1001MOL0     C35014  10.107  -0.191   6.108  1.2586  0.7418 -0.1548
 1001MOL0     C35015  10.017  -0.259   6.002  0.0254  0.1103  0.2607
 1001MOL0     C35016   9.926  -0.377   6.040  0.1105 -0.1797 -0.1235
 1001MOL0     N35017   9.835  -0.426   5.934 -0.4745 -0.4414  0.9812
 1001MOL0     C35018   9.828  -0.554   5.888 -0.4894  0.2633  1.0131
 1001MOL0     C35019   9.766  -0.547   5.768  0.4605  0.0539  0.3001
 1001MOL0     C35020   9.744  -0.651   5.664  0.3226 -0.2946  0.6820
 1001MOL0     C35021   9.628  -0.743   5.712 -0.4252 -0.1068  0.7769
 1001MOL0     C35022   9.497  -0.675   5.747 -0.5616  0.1307  0.1970
 1001MOL0     C35023   9.390  -0.781   5.773  0.2523  0.6974  0.3679
 1001MOL0     O35024   9.432  -0.873   5.871  0.7770  1.7171  0.2078
 1001MOL0     C35025   9.361  -0.993   5.877  0.7662 -0.0619  0.0163
 1001MOL0     C35026   9.408  -1.102   5.800 -0.4615 -0.2639  0.5720
 1001MOL0     C35027   9.341  -1.221   5.809  0.5656  0.8063  0.8404
 1001MOL0     C35028   9.411  -1.329   5.726  0.3728 -1.7564 -0.3317
 1001MOL0     C35029   9.217  -1.237   5.883 -0.1499 -0.9702  0.6683
 1001MOL0     C35030   9.139  -1.362   5.882  0.5372 -0.5057  1.6075
 1001MOL0     O35031   9.056  -1.365   5.990 -0.5184 -0.0501  1.1376
 1001MOL0     C35032   8.959  -1.461   6.007 -0.0340  0.4696 -0.6713
 1001MOL0     C35033   8.959  -1.602   5.986 -0.3096  0.1456  0.7197
 1001MOL0     C35034   8.835  -1.669   6.003  0.7965  0.0755  0.0203
 1001MOL0     C35035   8.712  -1.604   6.026 -0.0895  0.0594 -1.5541
 1001MOL0     O35036   8.595  -1.676   6.053 -0.5538  0.1979 -0.1086
 1001MOL0     C35037   8.618  -1.824   6.068 -0.3286 -0.2284  0.2135
 1001MOL0     C35038   8.695  -1.877   6.190 -0.0003 -0.4630 -0.3166
 1001MOL0     C35039   8.671  -2.023   6.222 -0.7784  0.2367  0.8387
 1001MOL0     C35040   8.781  -2.093   6.300  0.6461  0.2841  0.1150
 1001MOL0     C35041   8.737  -2.239   6.343  0.0455 -0.4191  0.6436
 1001MOL0     C35042   8.728  -2.337   6.220  0.6333 -0.0988 -0.5670
 1001MOL0     C35043   8.652  -2.470   6.243 -0.1971  0.3345  0.5160
 1001MOL0     C35044   8.721  -2.584   6.171  0.1733  0.3713  0.6470
 1001MOL0    Cl35045   8.712  -2.557   5.993 -0.2180  0.4033 -0.2770
 1001MOL0     C35046   8.714  -1.460   6.039  0.0554  0.1765  0.9512
 1001MOL0     C35047   8.835  -1.394   6.025 -0.0649 -0.3372 -0.2862
 1001MOL0     O35048   9.143  -1.437   5.787 -0.2745  0.5972  0.5917
 1001MOL0     C35049   9.167  -1.124   5.950  0.3666 -0.4123  0.7377
 1001MOL0     C35050   9.235  -1.001   5.941  0.5800  0.4121  0.4330
 1001MOL0     N35051   9.703  -0.422   5.764  0.5771  0.2796 -0.1075
 1001MOL0     N35052   9.740  -0.355   5.867  0.0723  0.4631  0.3441
 1001MOL0     C35053  10.852   0.312   6.113  0.5510 -0.6448  0.1522
 1001MOL0     C35054  10.933   0.375   6.201 -0.9967 -0.3788 -0.6230
 1001MOL0     C35055  11.163   0.455   6.533  0.8798 -0.4209 -0.4284
 1001MOL0     C35056  11.239   0.363   6.612  0.0985 -0.1224 -1.0805
 1001MOL0     C35057  11.353   0.408   6.690  0.5798 -0.1384  1.0530
 1001MOL0     C35058  11.401   0.539   6.683 -0.3137  0.1386 -0.1643
 1001MOL0     O35059  11.514   0.578   6.751  0.6095  0.0424  0.2934
 1001MOL0     C35060  11.575   0.704   6.723 -0.5333  0.1665 -0.1332
 1001MOL0     C35061  11.698   0.737   6.816 -0.2701 -0.1973 -0.3347
 1001MOL0     C35062  11.804   0.625   6.798  0.4312 -0.1237 -0.0342
 1001MOL0     C35063  11.926   0.637   6.892 -0.3543 -0.5110  0.2410
 1001MOL0     C35064  11.932   0.537   7.004 -0.2235 -0.5157  0.9779
 1001MOL0     C35065  11.945   0.452   7.085  0.0385 -0.4409  0.5721
 1001MOL0     C35066  11.340   0.622   6.582 -0.0482  0.1409 -0.3307
 1001MOL0     C35067  11.217   0.585   6.518  0.4556  0.2170 -0.0089
 1001MOL0     H35068  10.713   0.538   6.394 -1.2989  1.8572 -1.9152
 1001MOL0     H35069  10.555   0.423   6.228 -0.1063  2.5016  2.1758
 1001MOL0     H35070  10.462   0.366   6.062 -1.4715 -2.3357  4.2195
 1001MOL0     H35071  10.486   0.258   5.914 -1.6912  1.6462 -0.1762
 1001MOL0     H35072  10.542   0.075   6.105  1.7287  1.2613  0.8208
 1001MOL0     H35073  10.449   0.175   6.213 -0.0565  1.6310 -0.2888
 1001MOL0     H35074  10.270   0.189   6.033  0.5734  0.0880  1.3240
 1001MOL0     H35075  10.349   0.078   5.936  1.2788  0.4256  1.2451
 1001MOL0     H35076  10.349  -0.083   6.133 -0.6571 -0.7154 -0.7422
 1001MOL0     H35077  10.242   0.030   6.216 -1.3709 -0.6761 -1.3410
 1001MOL0     H35078  10.079   0.011   6.058 -3.2210 -2.4192  1.5419
 1001MOL0     H35079  10.185  -0.089   5.946 -3.4888  2.9166 -1.2439
 1001MOL0     H35080  10.192  -0.258   6.127 -1.9265 -3.4299  0.8309
 1001MOL0     H35081  10.054  -0.185   6.203 -0.1868 -0.1141 -0.8866
 1001MOL0     H35082   9.944  -0.181   5.976 -0.2673  0.0076  0.7675
 1001MOL0     H35083  10.081  -0.293   5.920  0.2316 -0.3528  0.6131
 1001MOL0     H35084   9.859  -0.351   6.123 -0.8463 -1.8356 -0.3103
 1001MOL0     H35085   9.996  -0.454   6.074 -0.6270 -0.9074 -0.1960
 1001MOL0     H35086   9.886  -0.644   5.905  0.7918  0.5740 -1.3181
 1001MOL0     H35087   9.717  -0.624   5.562  0.8775 -1.9760  0.0533
 1001MOL0     H35088   9.836  -0.709   5.655  0.9928  0.7267  0.7852
 1001MOL0     H35089   9.663  -0.776   5.810  0.8278 -0.0243  0.3713
 1001MOL0     H35090   9.606  -0.831   5.652 -1.8672 -1.5037  3.2116
 1001MOL0     H35091   9.475  -0.607   5.664  0.4059  0.3488  0.1067
 1001MOL0     H35092   9.496  -0.609   5.834 -3.7832 -0.3413  0.6513
 1001MOL0     H35093   9.376  -0.831   5.676  0.4147  2.4790 -0.6168
 1001MOL0     H35094   9.293  -0.736   5.793  0.6407  1.3847  0.7414
 1001MOL0     H35095   9.491  -1.088   5.731 -0.8938 -1.7104 -0.2803
 1001MOL0     H35096   9.418  -1.300   5.621  0.8950 -0.6282 -0.0011
 1001MOL0     H35097   9.508  -1.360   5.766  1.6462  0.6228 -1.3714
 1001MOL0     H35098   9.351  -1.420   5.717 -2.4704  0.0083 -0.5234
 1001MOL0     H35099   9.051  -1.658   5.975 -0.3912  0.4074 -2.0480
 1001MOL0     H35100   8.853  -1.775   5.989 -0.8620 -0.1663 -0.5843
 1001MOL0     H35101   8.523  -1.878   6.061 -1.9451  2.4139  0.4356
 1001MOL0     H35102   8.666  -1.869   5.981  2.0148  1.2196  0.6663
 1001MOL0     H35103   8.803  -1.859   6.185 -0.0131  0.7672  2.4669
 1001MOL0     H35104   8.658  -1.808   6.265 -3.2280 -0.8287 -1.4165
 1001MOL0     H35105   8.666  -2.083   6.131  2.2652 -1.4040  1.6001
 1001MOL0     H35106   8.575  -2.028   6.273 -0.6788  1.0797  1.1192
 1001MOL0     H35107   8.872  -2.111   6.242  0.2812  2.4761 -1.2281
 1001MOL0     H35108   8.807  -2.039   6.392 -0.9795  2.9193 -0.8824
 1001MOL0     H35109   8.638  -2.239   6.389 -0.2006  2.1913  0.2655
 1001MOL0     H35110   8.807  -2.291   6.409 -0.9248 -0.7498  1.4381
 1001MOL0     H35111   8.672  -2.284   6.143 -2.6957 -0.3109  1.5231
 1001MOL0     H35112   8.833  -2.354   6.194  0.3737  0.6865 -2.2241
 1001MOL0     H35113   8.553  -2.460   6.198 -1.2961 -2.5751  2.0494
 1001MOL0     H35114   8.650  -2.491   6.351 -0.2439 -2.3635  0.0590
 1001MOL0     H35115   8.667  -2.678   6.180  3.8549 -2.2263 -1.6226
 1001MOL0     H35116   8.824  -2.606   6.202  0.3599 -1.1522 -0.8894
 1001MOL0     H35117   8.622  -1.404   6.055 -1.1835 -1.9203  1.7263
 1001MOL0     H35118   8.830  -1.286   6.011  1.1949 -0.0743  1.0940
 1001MOL0     H35119   9.074  -1.127   6.005 -0.3897  0.9328 -0.4009
 1001MOL0     H35120   9.192  -0.918   5.997  2.1301  0.1060  2.1854
 1001MOL0     H35121  10.881   0.245   6.033 -0.8752 -0.4664 -0.5608
 1001MOL0     H35122  11.038   0.348   6.207 -0.6131  1.1441  0.2026
 1001MOL0     H35123  11.192   0.267   6.626  1.5887 -0.6287  0.9661
 1001MOL0     H35124  11.408   0.339   6.753 -3.5492 -2.6208  2.3681
 1001MOL0     H35125  11.620   0.702   6.623  1.3635 -0.2185  0.6739
 1001MOL0     H35126  11.502   0.785   6.730  0.8241  1.4288 -0.0936
 1001MOL0     H35127  11.665   0.741   6.920 -1.8038  4.9459 -0.7504
 1001MOL0     H35128  11.738   0.838   6.801 -2.0577  0.4998 -0.6701
 1001MOL0     H35129  11.824   0.627   6.691 -3.5746 -0.5611 -0.9624
 1001MOL0     H35130  11.749   0.533   6.822  1.4265  0.1957  4.1940
 1001MOL0     H35131  11.934   0.734   6.942  0.5608 -0.7733  0.6254
 1001MOL0     H35132  12.021   0.638   6.839 -0.0064  2.3427  0.7696
 1001MOL0     H35133  11.940   0.381   7.165  1.6429  0.6737  1.7312
 1001MOL0     H35134  11.385   0.718   6.560  2.9560 -1.6332 -2.7786
 1001MOL0     H35135  11.156   0.659   6.466 -2.1343 -0.6138  1.6800
 1002MOL0     O35136   7.645   8.657   3.668  0.0986 -0.1526 -0.0962
 1002MOL0     C35137   7.592   8.607   3.567  0.0608 -1.0344  0.4959
 1002MOL0     O35138   7.584   8.474   3.539  0.1396 -0.8613  0.0942
 1002MOL0     C35139   7.648   8.378   3.615  0.2872 -0.9606  0.0837
 1002MOL0     C35140   7.762   8.311   3.567 -0.8155 -0.0933 -0.8833
 1002MOL0     C35141   7.830   8.225   3.650  0.5121 -0.1940  0.3512
 1002MOL0     C35142   7.774   8.193   3.776 -0.4527 -0.2604  0.0991
 1002MOL0     O35143   7.835   8.104   3.858  0.1982 -0.3515  0.0630
 1002MOL0     C35144   7.950   8.035   3.819 -0.5316 -0.7057  0.0420
 1002MOL0     C35145   7.906   7.938   3.703  0.1310 -0.0772 -0.4591
 1002MOL0     C35146   7.851   7.807   3.745  0.1283  0.3438  0.3488
 1002MOL0     C35147   7.882   7.701   3.632  0.3075  0.5337 -0.1884
 1002MOL0     C35148   7.843   7.563   3.681  0.7628 -0.6127 -0.4349
 1002MOL0     C35149   7.826   7.446   3.580 -0.4610 -0.3122  0.5590
 1002MOL0     C35150   7.962   7.417   3.514 -0.6936  0.2732  0.1073
 1002MOL0     C35151   7.937   7.341   3.381 -0.0087  0.3691  0.3253
 1002MOL0     N35152   8.064   7.312   3.300  0.1991 -0.3474 -0.0176
 1002MOL0     C35153   8.123   7.410   3.226  0.0954  0.4628  0.3997
 1002MOL0     C35154   8.242   7.372   3.191 -0.5576  1.2888  0.5165
 1002MOL0     C35155   8.364   7.442   3.128 -0.2146 -0.1478  0.6614
 1002MOL0     C35156   8.365   7.432   2.980  0.2745  0.0368 -0.0217
 1002MOL0     C35157   8.243   7.511   2.923  0.4464  0.5400 -0.6011
 1002MOL0     C35158   8.229   7.492   2.768  0.4582  0.7455  0.8667
 1002MOL0     O35159   8.156   7.372   2.728 -1.0224 -0.1863  0.0018
 1002MOL0     C35160   8.017   7.353   2.759 -0.8475  0.0684  0.3055
 1002MOL0     C35161   7.978   7.303   2.883  0.3030  0.2282  0.1799
 1002MOL0     C35162   7.842   7.291   2.903 -0.2474  0.2971 -0.5605
 1002MOL0     C35163   7.805   7.252   3.042 -0.0049 -0.1923  0.5549
 1002MOL0     C35164   7.743   7.312   2.797  0.1511 -0.2588 -0.5726
 1002MOL0     C35165   7.598   7.290   2.794  0.6351  0.0325 -0.2893
 1002MOL0     O35166   7.526   7.400   2.749 -0.3976  0.1196 -0.7251
 1002MOL0     C35167   7.392   7.413   2.743  0.2882  1.2282  0.3004
 1002MOL0     C35168   7.350   7.541   2.739  0.4338 -0.4122  0.0757
 1002MOL0     C35169   7.225   7.587   2.724  0.7681  0.4316 -0.2880
 1002MOL0     C35170   7.126   7.485   2.713  1.2114  0.0086  0.5179
 1002MOL0     O35171   6.988   7.499   2.698  0.0146  0.2680 -0.5223
 1002MOL0     C35172   6.928   7.632   2.709  0.5878 -0.4010 -0.1806
 1002MOL0     C35173   6.791   7.612   2.766 -0.6386  0.1497 -0.3204
 1002MOL0     C35174   6.783   7.543   2.902  0.4364  0.3783  0.3432
 1002MOL0     C35175   6.641   7.472   2.921  0.2156  0.2393  0.7276
 1002MOL0     C35176   6.627   7.421   3.067 -0.0177  0.5111 -0.4884
 1002MOL0     C35177   6.490   7.337   3.088 -0.7291 -0.6206 -0.2935
 1002MOL0     C35178   6.393   7.416   3.168 -0.2161 -0.6720  0.0570
 1002MOL0     C35179   6.251   7.358   3.152 -1.2446  0.4436  0.1773
 1002MOL0    Cl35180   6.259   7.185   3.185 -0.5401 -0.5439 -0.3138
 1002MOL0     C35181   7.161   7.355   2.718 -0.2147  0.2398 -0.4764
 1002MOL0     C35182   7.297   7.314   2.733 -0.3890  0.0613  0.6635
 1002MOL0     O35183   7.554   7.179   2.828  0.7509  0.6989 -0.3514
 1002MOL0     C35184   7.800   7.356   2.673  0.7568 -0.3623  1.0440
 1002MOL0     C35185   7.934   7.391   2.660  0.4699 -0.0608  0.4493
 1002MOL0     N35186   8.250   7.240   3.242 -0.1790  0.3090 -0.4443
 1002MOL0     N35187   8.146   7.207   3.312 -0.4631 -0.2902 -0.1415
 1002MOL0     C35188   7.655   8.256   3.817 -0.3436  0.2840 -0.4938
 1002MOL0     C35189   7.590   8.346   3.735 -0.6946  0.1484  0.0351
 1002MOL0     C35190   7.515   8.710   3.484 -0.5164 -0.4603  0.2998
 1002MOL0     C35191   7.485   8.679   3.344 -0.2084 -0.3445  0.7822
 1002MOL0     C35192   7.428   8.779   3.263 -0.8429  0.5195 -0.2666
 1002MOL0     C35193   7.379   8.894   3.314  0.2749  0.3459 -0.0345
 1002MOL0     O35194   7.291   8.980   3.249  0.2120  0.2546 -0.0976
 1002MOL0     C35195   7.232   8.943   3.123  0.9621 -0.3475 -0.1808
 1002MOL0     C35196   7.089   8.887   3.161 -0.7581  0.3416 -0.1416
 1002MOL0     C35197   6.995   9.011   3.190  0.3791  0.5753  1.1038
 1002MOL0     C35198   6.856   8.972   3.227  1.1901 -0.5321 -0.4796
 1002MOL0     C35199   6.771   9.077   3.279  1.1644 -0.7198  0.2890
 1002MOL0     C35200   6.700   9.170   3.322  0.0596  0.5436  0.3047
 1002MOL0     C35201   7.380   8.919   3.446 -0.3896 -0.2516 -0.8320
 1002MOL0     C35202   7.449   8.829   3.530 -0.4471 -0.5792 -1.0587
 1002MOL0     H35203   7.798   8.331   3.467  0.3683 -2.2664 -0.9345
 1002MOL0     H35204   7.921   8.180   3.612  0.3145 -0.1507 -0.1716
 1002MOL0     H35205   8.033   8.105   3.806 -1.3087  1.1952  3.9388
 1002MOL0     H35206   7.983   7.968   3.899  4.2975 -0.2709 -1.2422
 1002MOL0     H35207   7.848   7.985   3.623 -0.0971  1.1397  0.3900
 1002MOL0     H35208   8.001   7.918   3.653 -0.2671  1.8469 -2.1239
 1002MOL0     H35209   7.888   7.759   3.836  2.1457  2.5042  0.7539
 1002MOL0     H35210   7.743   7.804   3.760  0.2229  1.3311  1.3649
 1002MOL0     H35211   7.830   7.708   3.536  3.1444 -1.2318 -1.9952
 1002MOL0     H35212   7.987   7.700   3.603  0.1965 -1.4866 -0.6655
 1002MOL0     H35213   7.911   7.524   3.757  0.2607 -0.7975 -0.0694
 1002MOL0     H35214   7.747   7.580   3.732 -0.1249 -0.9565 -1.9047
 1002MOL0     H35215   7.791   7.361   3.639  2.7775 -0.1066  3.0682
 1002MOL0     H35216   7.754   7.484   3.506 -0.0015  4.8249  2.3029
 1002MOL0     H35217   8.017   7.511   3.503  0.9831 -0.4469  1.6951
 1002MOL0     H35218   8.028   7.364   3.583 -0.6901  0.6100  0.3626
 1002MOL0     H35219   7.857   7.390   3.325  0.1801 -0.6326 -0.8456
 1002MOL0     H35220   7.893   7.243   3.402  0.2544 -0.6961 -3.3924
 1002MOL0     H35221   8.087   7.512   3.219 -0.6891  0.1577 -0.0504
 1002MOL0     H35222   8.360   7.541   3.173 -0.1777  1.2907 -2.2755
 1002MOL0     H35223   8.461   7.396   3.150 -0.2046 -0.9793 -0.9687
 1002MOL0     H35224   8.358   7.327   2.950  1.5776 -0.1638  0.3387
 1002MOL0     H35225   8.458   7.473   2.941 -0.2324  0.7949 -0.4515
 1002MOL0     H35226   8.267   7.617   2.933  0.9540  0.3093  0.9544
 1002MOL0     H35227   8.146   7.507   2.973 -0.8184  1.0265 -2.8950
 1002MOL0     H35228   8.325   7.498   2.716  1.9887 -0.4677  3.3623
 1002MOL0     H35229   8.167   7.572   2.726  0.8230  2.8247  3.9470
 1002MOL0     H35230   8.059   7.286   2.953 -1.2649 -1.8504  1.6080
 1002MOL0     H35231   7.793   7.143   3.046  1.5674 -0.5474 -2.0220
 1002MOL0     H35232   7.889   7.287   3.102  0.6598 -0.5295 -0.1540
 1002MOL0     H35233   7.716   7.307   3.073  0.8875  4.1834 -3.5493
 1002MOL0     H35234   7.423   7.620   2.759  0.9283 -0.6829 -0.6357
 1002MOL0     H35235   7.220   7.695   2.718  2.0293  0.5490  0.5513
 1002MOL0     H35236   6.986   7.693   2.778 -1.0232  0.8308  0.1243
 1002MOL0     H35237   6.929   7.679   2.610 -0.2961  0.4745  0.2185
 1002MOL0     H35238   6.737   7.707   2.764 -0.6607  0.1453  0.0172
 1002MOL0     H35239   6.741   7.551   2.690  1.7415 -1.1024 -1.0024
 1002MOL0     H35240   6.808   7.609   2.986  0.7220  1.3418 -0.4653
 1002MOL0     H35241   6.860   7.465   2.904  0.1615  0.1166  1.8805
 1002MOL0     H35242   6.553   7.537   2.916  0.3491  0.4363  0.8989
 1002MOL0     H35243   6.629   7.389   2.852  1.6958  0.4666  0.1526
 1002MOL0     H35244   6.651   7.493   3.145 -2.6082 -0.4920  1.3568
 1002MOL0     H35245   6.706   7.346   3.078 -0.8988 -0.3926 -0.1887
 1002MOL0     H35246   6.440   7.298   2.999 -0.1316 -2.4084  0.1026
 1002MOL0     H35247   6.522   7.256   3.155 -1.9576 -1.5899 -0.8244
 1002MOL0     H35248   6.382   7.516   3.126  0.9757 -0.5625 -0.0255
 1002MOL0     H35249   6.427   7.424   3.272  0.3836  0.3716 -0.2112
 1002MOL0     H35250   6.227   7.380   3.048  2.0000 -1.6057 -1.1459
 1002MOL0     H35251   6.172   7.406   3.212 -2.8809  0.3302 -1.7743
 1002MOL0     H35252   7.077   7.287   2.713 -1.0678  1.2156  0.0877
 1002MOL0     H35253   7.320   7.209   2.716 -2.3900  0.1416 -4.4079
 1002MOL0     H35254   7.737   7.366   2.584  0.3500 -1.9736  1.1262
 1002MOL0     H35255   7.977   7.431   2.568  4.0106 -1.9520  1.0954
 1002MOL0     H35256   7.613   8.227   3.912 -2.6382 -3.3310 -2.3981
 1002MOL0     H35257   7.497   8.392   3.767 -1.8793  0.0315 -2.9040
 1002MOL0     H35258   7.512   8.580   3.309  3.6760  1.0312 -0.6479
 1002MOL0     H35259   7.408   8.743   3.162 -1.7583  1.8034 -0.5589
 1002MOL0     H35260   7.221   9.029   3.057 -1.8434 -2.3799 -2.6780
 1002MOL0     H35261   7.287   8.867   3.067  1.9140  0.3351 -0.1919
 1002MOL0     H35262   7.088   8.809   3.237  0.3694  1.3438  0.9496
 1002MOL0     H35263   7.049   8.837   3.073 -3.1852 -1.6771  1.9210
 1002MOL0     H35264   6.984   9.080   3.105 -0.1899  2.2146  2.4551
 1002MOL0     H35265   7.043   9.077   3.262 -0.3907  0.6635  1.5418
 1002MOL0     H35266   6.851   8.895   3.304 -0.0913 -1.7602 -1.7313
 1002MOL0     H35267   6.804   8.927   3.142 -0.4146 -1.4707  0.9286
 1002MOL0     H35268   6.644   9.253   3.359 -0.3313  0.2100  0.4744
 1002MOL0     H35269   7.326   9.002   3.489 -1.3067 -0.2886 -1.8607
 1002MOL0     H35270   7.436   8.851   3.636  0.1425 -0.1395 -1.0760
 1003MOL0     O35271   7.276   7.207   4.421 -0.4473  0.2099  0.1149
 1003MOL0     C35272   7.277   7.099   4.374  0.3450  0.3129  0.7440
 1003MOL0     O35273   7.189   7.046   4.277  0.7059 -0.5808 -0.0952
 1003MOL0     C35274   7.097   7.133   4.205 -0.2422 -0.0911 -0.5465
 1003MOL0     C35275   6.994   7.197   4.276 -0.0430 -1.2102 -0.0179
 1003MOL0     C35276   6.907   7.290   4.214 -0.2878  0.5364  0.5558
 1003MOL0     C35277   6.923   7.313   4.076 -0.1730 -0.0136  1.2652
 1003MOL0     O35278   6.852   7.408   4.010  0.5840  0.0502  0.5768
 1003MOL0     C35279   6.735   7.461   4.071 -0.3487 -1.6174 -0.1442
 1003MOL0     C35280   6.627   7.373   4.053 -0.2456  0.1320  0.2855
 1003MOL0     C35281   6.491   7.445   4.059  0.4460 -1.8062  0.8774
 1003MOL0     C35282   6.467   7.535   3.941 -1.2388 -0.2569 -0.1658
 1003MOL0     C35283   6.320   7.580   3.929  1.1153 -0.3174 -0.0929
 1003MOL0     C35284   6.309   7.711   3.843  0.7326 -0.5424 -1.2722
 1003MOL0     C35285   6.164   7.717   3.780  0.9211 -0.6093 -0.0055
 1003MOL0     C35286   6.134   7.855   3.725 -0.2811 -0.1223  0.7795
 1003MOL0     N35287   5.988   7.882   3.713  0.0860 -0.7037 -0.3885
 1003MOL0     C35288   5.908   7.802   3.630  0.1603 -0.0100 -0.3556
 1003MOL0     C35289   5.778   7.828   3.669 -0.8261 -0.0202 -0.5031
 1003MOL0     C35290   5.668   7.762   3.603  0.3879 -0.1709 -0.5852
 1003MOL0     C35291   5.645   7.809   3.455 -1.0406  0.0793 -0.1500
 1003MOL0     C35292   5.657   7.964   3.431  0.8630  0.5558 -0.0153
 1003MOL0     C35293   5.535   8.049   3.485 -0.3587  0.5106  0.9811
 1003MOL0     O35294   5.411   8.000   3.435 -1.1495  0.2183 -0.5717
 1003MOL0     C35295   5.297   8.058   3.482 -0.0096 -0.0467  0.1513
 1003MOL0     C35296   5.278   8.141   3.590  0.1321  0.0504  0.0130
 1003MOL0     C35297   5.148   8.189   3.635  0.0230  1.3272  0.2493
 1003MOL0     C35298   5.145   8.277   3.751 -0.2954  1.5106  0.2774
 1003MOL0     C35299   5.038   8.140   3.559  0.8633 -0.0136  0.2177
 1003MOL0     C35300   4.908   8.159   3.604  0.3554  0.2742  0.2476
 1003MOL0     O35301   4.826   8.050   3.593 -0.7491 -0.4373 -0.0024
 1003MOL0     C35302   4.690   8.052   3.611 -0.9373 -1.0143  0.0427
 1003MOL0     C35303   4.626   7.931   3.636  0.7738 -0.8076 -0.9621
 1003MOL0     C35304   4.489   7.929   3.663 -0.4394 -1.0760  0.5017
 1003MOL0     C35305   4.410   8.039   3.661  0.1187  0.3852  0.6492
 1003MOL0     O35306   4.271   8.040   3.684 -0.8304  0.0277  0.9218
 1003MOL0     C35307   4.216   7.915   3.719  0.1624  1.6947  0.0618
 1003MOL0     C35308   4.199   7.833   3.589  0.0839  0.1018  0.4024
 1003MOL0     C35309   4.101   7.720   3.619 -0.3138  0.1919  0.0327
 1003MOL0     C35310   4.114   7.630   3.496 -0.0796 -0.1805  0.1356
 1003MOL0     C35311   4.038   7.498   3.504  0.0381  0.3893 -0.0388
 1003MOL0     C35312   4.095   7.393   3.605 -0.0577 -0.2634 -0.4915
 1003MOL0     C35313   3.991   7.284   3.638  0.5145 -0.7249  0.2401
 1003MOL0     C35314   4.002   7.172   3.530  0.7325  1.0376  0.1210
 1003MOL0    Cl35315   3.885   7.052   3.579 -0.1543  0.5039 -0.1392
 1003MOL0     C35316   4.473   8.158   3.614  0.1403 -0.3924 -0.2504
 1003MOL0     C35317   4.609   8.172   3.589  0.6087  0.2612 -0.2387
 1003MOL0     O35318   4.873   8.263   3.655 -0.3880 -0.7268  0.4289
 1003MOL0     C35319   5.061   8.070   3.442  0.1574 -0.4192  0.0537
 1003MOL0     C35320   5.184   8.029   3.409  1.3527 -1.0565 -0.9122
 1003MOL0     N35321   5.780   7.911   3.786  0.5238 -0.2954  0.1896
 1003MOL0     N35322   5.907   7.944   3.810  0.4325  0.1412 -0.5724
 1003MOL0     C35323   7.023   7.248   4.008  0.4768  0.0065  0.2027
 1003MOL0     C35324   7.108   7.161   4.076  0.7707 -0.0192  0.4865
 1003MOL0     C35325   7.381   7.007   4.420 -1.1024  0.1937  0.3146
 1003MOL0     C35326   7.484   7.049   4.514 -0.6691 -0.0311 -0.2793
 1003MOL0     C35327   7.575   6.954   4.577  1.0753  0.6372 -1.2313
 1003MOL0     C35328   7.562   6.817   4.542 -0.1593 -0.4015 -0.0027
 1003MOL0     O35329   7.655   6.720   4.581  0.7509  0.1299 -0.2378
 1003MOL0     C35330   7.772   6.746   4.665  0.3370  0.3431  0.0126
 1003MOL0     C35331   7.825   6.608   4.721  0.6473  0.0713  0.0704
 1003MOL0     C35332   7.962   6.610   4.809 -0.2569 -0.3446  0.0480
 1003MOL0     C35333   8.037   6.479   4.799 -1.0371 -0.4804 -0.5461
 1003MOL0     C35334   8.179   6.484   4.833 -0.1558 -0.2549  0.2838
 1003MOL0     C35335   8.298   6.500   4.841  0.1261 -0.3002  0.1110
 1003MOL0     C35336   7.463   6.777   4.456  0.3358  0.5609 -0.1507
 1003MOL0     C35337   7.385   6.869   4.387  0.0402  0.1546  1.1390
 1003MOL0     H35338   6.987   7.179   4.382 -0.0906  0.1297  0.2306
 1003MOL0     H35339   6.823   7.329   4.271 -2.8069 -2.6664 -0.6519
 1003MOL0     H35340   6.743   7.509   4.170 -0.1333 -5.2149  1.7390
 1003MOL0     H35341   6.716   7.538   3.996  1.5880 -1.8850 -0.9596
 1003MOL0     H35342   6.630   7.316   3.960 -0.1163  1.7456 -0.7248
 1003MOL0     H35343   6.647   7.301   4.134  2.6056  3.6455  3.0579
 1003MOL0     H35344   6.431   7.354   4.060 -0.4925 -1.1909  1.8412
 1003MOL0     H35345   6.482   7.498   4.154  1.8870  2.2669 -1.0069
 1003MOL0     H35346   6.527   7.625   3.959 -0.0167 -0.5600 -2.3723
 1003MOL0     H35347   6.514   7.483   3.856  5.2582  4.4416 -0.2018
 1003MOL0     H35348   6.254   7.508   3.880  1.1921  2.1104 -4.2409
 1003MOL0     H35349   6.280   7.599   4.029  2.4017  2.1326  0.0249
 1003MOL0     H35350   6.334   7.806   3.891 -3.8253  1.6175 -2.5189
 1003MOL0     H35351   6.375   7.701   3.757  0.9315 -0.4510 -1.1299
 1003MOL0     H35352   6.155   7.643   3.700  0.3890  0.7417 -1.2438
 1003MOL0     H35353   6.089   7.694   3.856  1.7314 -3.6468 -0.0165
 1003MOL0     H35354   6.182   7.855   3.627 -0.3503 -0.1153  0.7456
 1003MOL0     H35355   6.180   7.929   3.791  3.1260 -0.2170 -1.3040
 1003MOL0     H35356   5.936   7.729   3.556 -1.8162  1.1755 -2.4156
 1003MOL0     H35357   5.690   7.656   3.615  1.5465  0.2530  1.6588
 1003MOL0     H35358   5.575   7.775   3.661  1.0546  1.2696  0.2252
 1003MOL0     H35359   5.554   7.769   3.408  0.3665 -2.6492 -0.7374
 1003MOL0     H35360   5.716   7.773   3.380 -0.8107  2.6071 -1.2551
 1003MOL0     H35361   5.661   7.980   3.323 -0.6875 -1.2632 -0.3826
 1003MOL0     H35362   5.755   7.991   3.472  1.0031 -1.5870  1.1755
 1003MOL0     H35363   5.547   8.155   3.461 -2.4590  0.8634  1.2726
 1003MOL0     H35364   5.538   8.023   3.591  1.8868  0.3355  0.9154
 1003MOL0     H35365   5.367   8.178   3.640  0.8927  0.4432 -1.5805
 1003MOL0     H35366   5.237   8.258   3.808 -1.3014  0.9242  1.7635
 1003MOL0     H35367   5.146   8.383   3.725 -1.0513  1.3218 -0.5702
 1003MOL0     H35368   5.058   8.257   3.814 -1.7000  1.9909 -1.4380
 1003MOL0     H35369   4.683   7.839   3.652  0.4980 -1.0115 -1.1428
 1003MOL0     H35370   4.454   7.828   3.683 -0.1241 -1.3516 -0.3365
 1003MOL0     H35371   4.267   7.868   3.804 -0.0268  1.4846  0.0620
 1003MOL0     H35372   4.111   7.936   3.741 -0.0027  1.0465 -0.0886
 1003MOL0     H35373   4.162   7.896   3.508  1.4986  0.0053 -0.3343
 1003MOL0     H35374   4.294   7.794   3.552 -0.4508 -1.3538  0.4782
 1003MOL0     H35375   3.997   7.753   3.627  0.5304  2.5949  3.1973
 1003MOL0     H35376   4.137   7.674   3.712 -0.8646  3.2675  1.8882
 1003MOL0     H35377   4.076   7.687   3.411  1.8677 -0.5771 -1.0599
 1003MOL0     H35378   4.217   7.598   3.478 -0.4090  0.4116 -3.4139
 1003MOL0     H35379   4.044   7.450   3.406  1.3211 -0.6624  0.5251
 1003MOL0     H35380   3.932   7.515   3.526  0.7714  1.0461  3.6429
 1003MOL0     H35381   4.183   7.345   3.560  0.2655 -1.4238  1.3135
 1003MOL0     H35382   4.128   7.450   3.692  3.0052  1.1340 -2.3552
 1003MOL0     H35383   3.887   7.319   3.640 -0.2673 -2.8761 -0.1571
 1003MOL0     H35384   4.016   7.251   3.739 -0.1371  3.3482  1.9306
 1003MOL0     H35385   4.097   7.130   3.495  0.7611  0.0696  1.2858
 1003MOL0     H35386   3.952   7.218   3.444 -0.2442  0.6570  0.4726
 1003MOL0     H35387   4.419   8.251   3.601  0.3009  0.4033  3.5787
 1003MOL0     H35388   4.660   8.263   3.560  4.4778 -0.7728  2.4613
 1003MOL0     H35389   4.979   8.055   3.371  0.7769  1.4721 -1.1390
 1003MOL0     H35390   5.210   7.976   3.318 -1.7630 -0.6730 -2.1699
 1003MOL0     H35391   7.041   7.265   3.902 -2.9753  0.2430 -0.4369
 1003MOL0     H35392   7.186   7.106   4.024  0.7954 -0.1670  0.6788
 1003MOL0     H35393   7.496   7.153   4.542  1.7822  0.3107 -2.2572
 1003MOL0     H35394   7.641   6.993   4.654  1.0251  0.0184 -0.8699
 1003MOL0     H35395   7.852   6.800   4.613  0.0672  0.2321 -0.5273
 1003MOL0     H35396   7.735   6.796   4.755 -0.2816 -1.7822  1.0038
 1003MOL0     H35397   7.842   6.546   4.633  2.0350 -0.2511  0.5391
 1003MOL0     H35398   7.741   6.569   4.778 -1.5653  0.3424 -2.8050
 1003MOL0     H35399   7.937   6.629   4.914 -4.6042  2.9029 -1.2611
 1003MOL0     H35400   8.028   6.693   4.782 -0.2965  0.6168  2.6881
 1003MOL0     H35401   8.040   6.443   4.696  0.9340  2.3589 -1.6085
 1003MOL0     H35402   7.982   6.402   4.853 -1.5790  0.4240  0.2326
 1003MOL0     H35403   8.405   6.513   4.840 -0.1994  3.2442  0.0014
 1003MOL0     H35404   7.466   6.673   4.424 -0.9999  0.2783  0.5717
 1003MOL0     H35405   7.322   6.823   4.312 -0.0928  1.5773  0.3471
 1004MOL0     O35406   4.982   1.912   3.889 -0.2049  0.0810  0.4169
 1004MOL0     C35407   5.075   1.874   3.821  1.1295 -0.2285 -1.2392
 1004MOL0     O35408   5.201   1.938   3.821 -0.2899 -0.5362  0.0350
 1004MOL0     C35409   5.241   2.052   3.895  1.1795 -0.3305 -0.2909
 1004MOL0     C35410   5.370   2.094   3.880 -0.4396 -0.3129  0.5024
 1004MOL0     C35411   5.432   2.194   3.958  0.8839 -0.9496 -1.0879
 1004MOL0     C35412   5.353   2.265   4.054  0.4362  0.1737 -0.3136
 1004MOL0     O35413   5.400   2.365   4.137  0.1400 -0.2826 -0.0158
 1004MOL0     C35414   5.548   2.395   4.164 -0.4777  0.8440  0.0541
 1004MOL0     C35415   5.608   2.476   4.048  0.1887  0.4176 -0.1209
 1004MOL0     C35416   5.729   2.565   4.092  0.3876  1.5377 -0.3323
 1004MOL0     C35417   5.787   2.645   3.980 -0.0910 -0.3099  0.2995
 1004MOL0     C35418   5.911   2.738   4.013 -0.2607 -0.6440 -0.1677
 1004MOL0     C35419   5.867   2.844   4.113  0.0099 -1.1369  0.7410
 1004MOL0     C35420   5.923   2.984   4.104  0.3484 -0.1186 -0.3188
 1004MOL0     C35421   5.847   3.074   4.208 -0.7814 -0.3578  0.5312
 1004MOL0     N35422   5.900   3.214   4.212  0.3870  0.1512  0.0229
 1004MOL0     C35423   5.820   3.321   4.221 -0.0373 -0.3044  0.0599
 1004MOL0     C35424   5.911   3.422   4.241  0.0835 -0.3871 -0.0071
 1004MOL0     C35425   5.862   3.565   4.255 -1.0738 -0.0420 -0.7716
 1004MOL0     C35426   5.826   3.621   4.117 -0.0503 -0.2883  0.3462
 1004MOL0     C35427   5.764   3.764   4.126 -0.5574 -0.5346 -0.3390
 1004MOL0     C35428   5.737   3.818   3.993  0.5214 -0.6979  0.6243
 1004MOL0     O35429   5.677   3.711   3.906  0.0472 -0.7756  0.0924
 1004MOL0     C35430   5.613   3.755   3.791  0.0617 -0.5295 -0.2496
 1004MOL0     C35431   5.501   3.832   3.798  0.3624 -0.6970 -0.1317
 1004MOL0     C35432   5.453   3.902   3.681 -0.0505 -0.3389 -0.7141
 1004MOL0     C35433   5.335   4.001   3.723  0.8668  0.4768  0.8519
 1004MOL0     C35434   5.494   3.879   3.553  0.8564  0.3096 -1.2747
 1004MOL0     C35435   5.450   3.944   3.431 -0.0610 -0.2972  0.3283
 1004MOL0     O35436   5.549   3.959   3.332  0.6287 -0.1512 -0.2940
 1004MOL0     C35437   5.576   4.092   3.301 -0.0452 -0.2619  0.7696
 1004MOL0     C35438   5.577   4.207   3.390  0.8800  0.2802 -0.1472
 1004MOL0     C35439   5.621   4.329   3.349 -1.0650  0.0355  0.0664
 1004MOL0     C35440   5.662   4.352   3.219 -0.2111 -0.2789 -2.0020
 1004MOL0     O35441   5.726   4.474   3.195  0.8057 -0.4221 -0.2088
 1004MOL0     C35442   5.689   4.525   3.060 -0.3978 -0.8860  0.1782
 1004MOL0     C35443   5.697   4.679   3.069  0.3248 -0.0675  0.1411
 1004MOL0     C35444   5.699   4.739   2.933 -0.3914  0.2442 -0.3184
 1004MOL0     C35445   5.748   4.886   2.933  0.4987  0.2752 -0.2165
 1004MOL0     C35446   5.716   4.947   2.794 -0.3898 -0.4868  0.3996
 1004MOL0     C35447   5.770   5.089   2.784 -0.8111 -0.2069  1.0713
 1004MOL0     C35448   5.912   5.081   2.747 -0.1565  0.3185  0.1913
 1004MOL0     C35449   5.947   5.048   2.600 -0.2167  0.0724 -0.0742
 1004MOL0    Cl35450   5.932   5.223   2.539 -0.1332  0.6968  0.4599
 1004MOL0     C35451   5.640   4.250   3.126  0.0061 -0.3943  0.0338
 1004MOL0     C35452   5.593   4.114   3.159 -0.9758 -0.9044 -1.3595
 1004MOL0     O35453   5.336   3.992   3.417 -0.1647  0.0243  0.3354
 1004MOL0     C35454   5.591   3.768   3.544  0.0791 -1.2575 -1.0302
 1004MOL0     C35455   5.660   3.721   3.663 -0.5874  0.6077 -0.6162
 1004MOL0     N35456   6.043   3.378   4.235  0.4119 -0.0447 -0.5832
 1004MOL0     N35457   6.030   3.247   4.210 -0.1488  0.0740 -0.2144
 1004MOL0     C35458   5.214   2.230   4.061 -1.4464 -0.5919  0.2284
 1004MOL0     C35459   5.155   2.129   3.980  0.2907  0.6539  0.4232
 1004MOL0     C35460   5.050   1.753   3.734  0.5074  0.6490  0.3904
 1004MOL0     C35461   5.125   1.731   3.609 -0.7888  0.7177 -0.6151
 1004MOL0     C35462   5.067   1.645   3.512 -0.2544 -0.1687  1.0932
 1004MOL0     C35463   4.941   1.577   3.534 -0.1887 -0.2560  0.6065
 1004MOL0     O35464   4.865   1.496   3.445 -0.0095  0.2919 -0.9043
 1004MOL0     C35465   4.944   1.408   3.360 -0.1266  0.8636  0.5447
 1004MOL0     C35466   4.964   1.268   3.418  0.1395 -0.2998  0.5241
 1004MOL0     C35467   5.074   1.185   3.353 -0.3893 -0.3551 -0.3986
 1004MOL0     C35468   5.045   1.141   3.216  0.3677 -0.1964 -0.0225
 1004MOL0     C35469   5.010   1.003   3.206  0.2271  0.7024 -0.3668
 1004MOL0     C35470   4.966   0.892   3.209 -0.3464 -0.6060 -0.4232
 1004MOL0     C35471   4.887   1.586   3.656  0.0849  0.4299 -0.0842
 1004MOL0     C35472   4.930   1.667   3.748  0.0208  0.6180 -0.1913
 1004MOL0     H35473   5.431   2.034   3.813 -0.5269 -1.8321  1.7438
 1004MOL0     H35474   5.538   2.211   3.937  1.5560  0.9236  2.7319
 1004MOL0     H35475   5.553   2.457   4.254  0.2313 -2.7903  2.7375
 1004MOL0     H35476   5.605   2.306   4.192 -1.8122  0.3678  1.4439
 1004MOL0     H35477   5.642   2.407   3.970  0.1991  2.0835 -1.6394
 1004MOL0     H35478   5.531   2.545   4.014 -0.0472 -0.3494 -1.1639
 1004MOL0     H35479   5.694   2.632   4.171 -0.0055  2.9787 -1.6717
 1004MOL0     H35480   5.811   2.505   4.132 -1.7660 -1.3431  0.0818
 1004MOL0     H35481   5.826   2.567   3.914  0.9322 -0.4296  1.0220
 1004MOL0     H35482   5.703   2.699   3.937 -0.8088 -2.8314 -1.7331
 1004MOL0     H35483   5.997   2.677   4.041 -0.6677 -0.7207  0.9567
 1004MOL0     H35484   5.938   2.793   3.922 -0.7537 -1.5788 -0.8972
 1004MOL0     H35485   5.761   2.858   4.088  0.5750 -0.0587 -1.2067
 1004MOL0     H35486   5.867   2.812   4.218 -7.8371  2.2861  2.4956
 1004MOL0     H35487   6.027   2.981   4.137 -0.4510  0.8308  2.6070
 1004MOL0     H35488   5.904   3.019   4.002 -5.0550 -2.7892 -0.5771
 1004MOL0     H35489   5.865   3.034   4.307  2.1794 -1.5186 -0.3875
 1004MOL0     H35490   5.741   3.081   4.182 -1.1455 -0.0337  2.0435
 1004MOL0     H35491   5.713   3.339   4.229  0.1892  1.5089 -0.6098
 1004MOL0     H35492   5.776   3.567   4.323 -0.5654  1.5016 -0.1176
 1004MOL0     H35493   5.945   3.624   4.294 -0.7920 -0.7971 -0.2095
 1004MOL0     H35494   5.755   3.552   4.071  1.9801 -1.3034 -1.4748
 1004MOL0     H35495   5.911   3.624   4.049 -1.1683 -0.5571 -1.1109
 1004MOL0     H35496   5.844   3.816   4.179 -2.5202  0.8933  1.3423
 1004MOL0     H35497   5.668   3.762   4.177 -0.2160 -1.8627  0.3152
 1004MOL0     H35498   5.832   3.846   3.946 -0.5527 -0.2914 -1.4502
 1004MOL0     H35499   5.677   3.910   3.994  0.7258 -0.5159 -0.8100
 1004MOL0     H35500   5.462   3.849   3.898  0.7956  4.3772 -0.5501
 1004MOL0     H35501   5.242   3.960   3.683 -0.4210  3.5546  0.3514
 1004MOL0     H35502   5.324   4.012   3.831 -0.3343  3.9433  0.5113
 1004MOL0     H35503   5.347   4.097   3.671  0.2975 -0.2380 -0.6574
 1004MOL0     H35504   5.538   4.213   3.491 -0.4007 -2.8243 -0.3274
 1004MOL0     H35505   5.628   4.415   3.414 -0.1021  0.7438 -0.9413
 1004MOL0     H35506   5.757   4.481   2.987 -0.0484 -0.8118  0.4517
 1004MOL0     H35507   5.587   4.506   3.027 -1.1217 -0.0892  1.8365
 1004MOL0     H35508   5.622   4.725   3.134  2.4200  0.7284  2.1245
 1004MOL0     H35509   5.792   4.707   3.114  1.7397 -4.2489  0.2404
 1004MOL0     H35510   5.595   4.733   2.897 -0.7419 -2.9743  0.9278
 1004MOL0     H35511   5.770   4.683   2.871  0.4244  2.0266 -1.0796
 1004MOL0     H35512   5.689   4.944   3.004 -0.8718  1.4422 -2.2225
 1004MOL0     H35513   5.853   4.875   2.963 -0.0450 -3.8699  0.7167
 1004MOL0     H35514   5.607   4.953   2.785 -0.9658 -2.2355  4.1942
 1004MOL0     H35515   5.757   4.879   2.718 -0.9919  0.4056 -0.7475
 1004MOL0     H35516   5.715   5.155   2.716  0.1828 -0.2062  0.2444
 1004MOL0     H35517   5.751   5.128   2.884 -1.3166  1.2254  0.4485
 1004MOL0     H35518   5.960   5.002   2.806 -0.0913 -1.6077 -2.2761
 1004MOL0     H35519   5.961   5.169   2.791  1.3204 -1.0259  1.3546
 1004MOL0     H35520   5.889   4.981   2.536  5.1332 -3.4408 -1.9177
 1004MOL0     H35521   6.046   5.008   2.577 -0.2484  1.3451 -2.8034
 1004MOL0     H35522   5.666   4.273   3.024  2.3747 -2.1511  0.1615
 1004MOL0     H35523   5.589   4.030   3.090 -0.5212 -1.5748 -0.5846
 1004MOL0     H35524   5.614   3.728   3.445  2.0363  0.8263 -1.4932
 1004MOL0     H35525   5.747   3.655   3.660  0.5095  1.9853 -4.2071
 1004MOL0     H35526   5.155   2.270   4.143  1.6239  2.7423  1.0729
 1004MOL0     H35527   5.052   2.102   4.000  0.6932 -1.7793 -0.4253
 1004MOL0     H35528   5.219   1.778   3.582 -0.0801 -0.8906 -1.0285
 1004MOL0     H35529   5.136   1.630   3.429 -0.1424  1.7601  0.8102
 1004MOL0     H35530   4.881   1.408   3.270 -1.5799  2.1840  1.5094
 1004MOL0     H35531   5.043   1.449   3.336  0.1156  0.1422  0.2830
 1004MOL0     H35532   4.869   1.216   3.428 -1.3988  2.0081 -1.1684
 1004MOL0     H35533   5.010   1.288   3.516  0.2527 -2.0913  0.8757
 1004MOL0     H35534   5.100   1.101   3.419  0.4151 -1.0046 -1.5038
 1004MOL0     H35535   5.166   1.246   3.350  0.3473 -1.4395 -0.4780
 1004MOL0     H35536   5.138   1.158   3.161  0.3738 -2.1077 -0.6980
 1004MOL0     H35537   4.966   1.194   3.163  0.5257 -0.2737 -0.3404
 1004MOL0     H35538   4.912   0.801   3.228 -1.3637  0.0455 -0.1140
 1004MOL0     H35539   4.798   1.526   3.673  0.5826 -0.7268 -1.3388
 1004MOL0     H35540   4.877   1.691   3.840  0.7049  1.5665 -0.0305
 1005MOL0     O35541   1.718   2.538   5.995  1.2673 -0.3452 -0.3151
 1005MOL0     C35542   1.601   2.584   5.989  0.6063 -0.1770  0.4598
 1005MOL0     O35543   1.507   2.571   6.087 -0.1828  0.4109  0.4638
 1005MOL0     C35544   1.508   2.457   6.166  0.4682  0.7337 -0.4825
 1005MOL0     C35545   1.494   2.467   6.308  0.0928  0.8301 -0.1444
 1005MOL0     C35546   1.473   2.355   6.386 -0.5642  1.9948  0.5358
 1005MOL0     C35547   1.452   2.225   6.327 -1.4930 -0.9631  0.7170
 1005MOL0     O35548   1.420   2.116   6.398  0.3499 -0.1114  0.4997
 1005MOL0     C35549   1.319   2.133   6.507  0.6839  0.9574 -0.9659
 1005MOL0     C35550   1.272   1.982   6.526  0.4728 -0.6097 -0.8229
 1005MOL0     C35551   1.215   1.925   6.402  0.5336 -0.2241 -0.4286
 1005MOL0     C35552   1.139   1.787   6.443 -0.1143 -0.8606  0.3242
 1005MOL0     C35553   1.077   1.738   6.316  0.5580 -0.9964 -0.4625
 1005MOL0     C35554   1.181   1.677   6.217  0.6735 -0.6767 -0.6172
 1005MOL0     C35555   1.282   1.589   6.298 -0.0156  0.2902  0.3627
 1005MOL0     C35556   1.237   1.452   6.355 -0.5781  0.7254 -0.6838
 1005MOL0     N35557   1.337   1.342   6.353 -0.5141  0.2739  0.7664
 1005MOL0     C35558   1.428   1.297   6.247  0.2435 -0.5230 -0.3211
 1005MOL0     C35559   1.469   1.174   6.288  0.6540 -1.0650  0.1680
 1005MOL0     C35560   1.577   1.090   6.229 -0.6231 -0.3432 -1.1586
 1005MOL0     C35561   1.696   1.065   6.327  0.5950  0.6721 -0.6283
 1005MOL0     C35562   1.756   1.188   6.391  0.8088  0.1060 -0.6817
 1005MOL0     C35563   1.878   1.243   6.326 -0.0185 -0.1156 -0.0157
 1005MOL0     O35564   1.991   1.162   6.354  0.0835 -1.2644  0.2910
 1005MOL0     C35565   2.092   1.158   6.260 -0.3174 -0.7807  1.0463
 1005MOL0     C35566   2.167   1.270   6.226  0.1615  0.4910  0.7200
 1005MOL0     C35567   2.285   1.263   6.147 -0.0227  0.1485  0.2414
 1005MOL0     C35568   2.365   1.387   6.134 -0.9867 -0.9294 -0.3924
 1005MOL0     C35569   2.332   1.132   6.109  0.4793 -0.0162 -0.0128
 1005MOL0     C35570   2.459   1.105   6.046  0.4938 -0.2522  0.1032
 1005MOL0     O35571   2.562   1.186   6.079 -0.0802 -0.9190 -0.3301
 1005MOL0     C35572   2.679   1.154   6.019  0.7037 -0.5460  0.2597
 1005MOL0     C35573   2.712   1.221   5.904 -0.2018 -0.5967 -0.2702
 1005MOL0     C35574   2.822   1.188   5.828 -0.1511 -0.0401 -0.4927
 1005MOL0     C35575   2.909   1.089   5.882  1.1401 -0.1218  0.3018
 1005MOL0     O35576   3.040   1.039   5.835 -0.2502  0.2440  0.4165
 1005MOL0     C35577   3.087   1.095   5.716 -0.4820  0.0475 -0.0541
 1005MOL0     C35578   3.236   1.071   5.662 -0.4892 -0.7802  0.0870
 1005MOL0     C35579   3.247   1.160   5.531  0.3247 -0.4557  0.9077
 1005MOL0     C35580   3.188   1.081   5.417 -0.4565  0.6437 -0.3405
 1005MOL0     C35581   3.130   1.139   5.287  0.9997  0.1723  0.2144
 1005MOL0     C35582   3.113   1.040   5.169 -0.4910 -0.0915  0.0945
 1005MOL0     C35583   3.089   1.136   5.054  0.3610  0.4383 -0.3063
 1005MOL0     C35584   3.023   1.066   4.936 -0.5759  0.2249 -1.2631
 1005MOL0    Cl35585   2.938   1.190   4.828  0.0427 -0.1538 -0.1329
 1005MOL0     C35586   2.867   1.017   5.998 -0.5040  0.0054  0.1649
 1005MOL0     C35587   2.751   1.046   6.067  0.7385 -0.1786 -0.0305
 1005MOL0     O35588   2.465   1.006   5.967 -0.1632  0.8297 -0.0820
 1005MOL0     C35589   2.254   1.018   6.145  0.5577  0.5348  0.4038
 1005MOL0     C35590   2.139   1.027   6.219  0.0556  0.8712  0.8170
 1005MOL0     N35591   1.411   1.153   6.405 -0.2775 -0.3925  0.3026
 1005MOL0     N35592   1.331   1.251   6.445  0.8812  0.4014 -0.0636
 1005MOL0     C35593   1.467   2.218   6.189 -0.6698 -0.3369  0.5199
 1005MOL0     C35594   1.497   2.333   6.110  0.4858  0.7198 -1.0693
 1005MOL0     C35595   1.573   2.687   5.871  0.3933  0.0616  1.1567
 1005MOL0     C35596   1.441   2.740   5.845 -0.6771  0.2048  0.0838
 1005MOL0     C35597   1.422   2.850   5.764 -0.5500  0.3605  0.4454
 1005MOL0     C35598   1.529   2.916   5.698  0.1271  0.7999 -0.0863
 1005MOL0     O35599   1.526   3.027   5.627 -0.1236  0.0453  1.4978
 1005MOL0     C35600   1.418   3.112   5.654  0.8832 -0.4304 -1.0190
 1005MOL0     C35601   1.421   3.252   5.581  0.1214 -0.4043  0.4634
 1005MOL0     C35602   1.554   3.325   5.608 -0.3674  0.7868  0.3016
 1005MOL0     C35603   1.563   3.385   5.740 -0.5627 -0.2023  0.9370
 1005MOL0     C35604   1.493   3.512   5.744  0.1969  0.1128  0.1004
 1005MOL0     C35605   1.421   3.612   5.755 -0.0383 -0.2500 -0.2629
 1005MOL0     C35606   1.655   2.857   5.713  0.7427 -0.2501 -0.1228
 1005MOL0     C35607   1.675   2.750   5.805 -0.3366 -0.4025 -0.2697
 1005MOL0     H35608   1.501   2.562   6.360  2.2295  0.4082  0.4326
 1005MOL0     H35609   1.450   2.365   6.491 -2.9510  0.0867  0.2920
 1005MOL0     H35610   1.360   2.169   6.602 -3.6141  0.5241  1.2659
 1005MOL0     H35611   1.234   2.188   6.467 -0.2837 -0.1794 -0.5430
 1005MOL0     H35612   1.365   1.930   6.554 -0.9454 -2.2561  1.1565
 1005MOL0     H35613   1.205   1.960   6.610  3.7418 -2.5503  1.5345
 1005MOL0     H35614   1.150   1.999   6.356 -0.1616  0.4274  1.5337
 1005MOL0     H35615   1.294   1.903   6.329 -0.8294  0.3512 -2.1509
 1005MOL0     H35616   1.206   1.718   6.495 -0.5729  0.6477  3.1491
 1005MOL0     H35617   1.058   1.814   6.511  0.7972  2.4698  0.2800
 1005MOL0     H35618   1.006   1.666   6.358 -2.0191  3.3206  3.6382
 1005MOL0     H35619   1.014   1.808   6.262 -3.0202 -1.3756  2.7821
 1005MOL0     H35620   1.138   1.633   6.126 -0.7929  0.4742 -0.5361
 1005MOL0     H35621   1.229   1.760   6.164  4.2447 -1.9946  0.3154
 1005MOL0     H35622   1.355   1.576   6.218 -1.6367  1.7247 -1.4419
 1005MOL0     H35623   1.349   1.640   6.368  2.3884 -0.3792 -1.3108
 1005MOL0     H35624   1.148   1.419   6.302 -1.6792  2.6278 -0.1260
 1005MOL0     H35625   1.194   1.463   6.455  1.0171  0.3421  0.0874
 1005MOL0     H35626   1.470   1.350   6.162  1.4333 -0.3432  0.3562
 1005MOL0     H35627   1.526   1.000   6.193 -3.3611  1.6916 -2.6956
 1005MOL0     H35628   1.615   1.141   6.140 -0.4794 -0.1227 -0.9709
 1005MOL0     H35629   1.764   0.998   6.273  2.5083  2.5434 -0.6775
 1005MOL0     H35630   1.651   1.011   6.411  0.2918 -0.4904 -1.5138
 1005MOL0     H35631   1.793   1.156   6.489  2.9567  3.8438 -0.0709
 1005MOL0     H35632   1.688   1.273   6.400 -0.1033 -0.6601 -0.2666
 1005MOL0     H35633   1.895   1.335   6.384 -0.5362  0.6132 -0.9784
 1005MOL0     H35634   1.862   1.262   6.220  2.2932  1.5507 -0.1543
 1005MOL0     H35635   2.130   1.368   6.256 -3.1109  0.1337 -1.6750
 1005MOL0     H35636   2.452   1.378   6.201 -0.5725 -2.0938 -1.0581
 1005MOL0     H35637   2.395   1.397   6.029  2.2716 -2.5816  0.2546
 1005MOL0     H35638   2.304   1.464   6.182  0.7233 -1.3104  2.6910
 1005MOL0     H35639   2.646   1.304   5.883  0.8814  0.2309 -0.5181
 1005MOL0     H35640   2.845   1.245   5.739 -0.1657  3.2955  1.4493
 1005MOL0     H35641   3.014   1.061   5.641 -2.3345  0.5608  1.4330
 1005MOL0     H35642   3.092   1.203   5.729  0.7344 -0.1266  1.1623
 1005MOL0     H35643   3.315   1.094   5.735 -1.0410  1.9194 -0.0728
 1005MOL0     H35644   3.259   0.966   5.641  0.8520 -0.7168  1.0595
 1005MOL0     H35645   3.346   1.199   5.506 -0.8554  1.9855 -0.3255
 1005MOL0     H35646   3.190   1.254   5.529 -1.5731 -1.5751 -0.9359
 1005MOL0     H35647   3.277   1.026   5.386 -0.4842  0.2728  0.2292
 1005MOL0     H35648   3.109   1.014   5.451 -0.3035 -0.8452 -2.6547
 1005MOL0     H35649   3.199   1.214   5.246  0.1916  0.8688  0.1125
 1005MOL0     H35650   3.032   1.179   5.314  0.3848 -0.6474 -0.7571
 1005MOL0     H35651   3.208   0.988   5.152 -0.5703 -0.3564  0.4698
 1005MOL0     H35652   3.026   0.974   5.173 -1.9254  1.7688  1.1667
 1005MOL0     H35653   3.178   1.197   5.032  1.4428 -0.3217  1.7294
 1005MOL0     H35654   3.000   1.193   5.083  0.3045  0.6678 -0.9162
 1005MOL0     H35655   2.950   0.989   4.964 -2.8661  1.9048 -2.2501
 1005MOL0     H35656   3.099   1.029   4.867  1.4926  2.4190 -0.3105
 1005MOL0     H35657   2.927   0.932   6.029  0.8917  1.4916  1.7601
 1005MOL0     H35658   2.704   0.984   6.142 -2.5963 -1.5115 -2.9285
 1005MOL0     H35659   2.267   0.910   6.136 -3.0297 -0.1485  1.6809
 1005MOL0     H35660   2.076   0.944   6.250  1.7243 -0.0886  1.7647
 1005MOL0     H35661   1.455   2.123   6.138  0.0080 -0.4360  0.5353
 1005MOL0     H35662   1.499   2.316   6.003  3.7341 -0.4981 -0.9297
 1005MOL0     H35663   1.356   2.678   5.872 -0.8655 -1.9332 -4.4204
 1005MOL0     H35664   1.321   2.884   5.742  0.7224  3.1626 -1.7334
 1005MOL0     H35665   1.320   3.070   5.628  0.0980 -1.7138  3.1917
 1005MOL0     H35666   1.406   3.130   5.762  0.2971  0.8702 -1.2889
 1005MOL0     H35667   1.330   3.300   5.616  1.2274  0.2500  2.6479
 1005MOL0     H35668   1.413   3.234   5.474  3.4056 -1.6476  0.3179
 1005MOL0     H35669   1.574   3.400   5.532  0.8826  0.0958 -0.0739
 1005MOL0     H35670   1.633   3.252   5.590 -1.1058 -0.9611  3.4256
 1005MOL0     H35671   1.667   3.405   5.767  0.0278 -1.8823  0.0357
 1005MOL0     H35672   1.526   3.310   5.811 -0.8929 -1.2273 -0.3005
 1005MOL0     H35673   1.356   3.694   5.775 -0.7750 -0.7329 -0.6281
 1005MOL0     H35674   1.747   2.886   5.664 -0.3417  0.9221 -1.5411
 1005MOL0     H35675   1.779   2.724   5.820  0.5134  0.3989 -3.8302
 1006MOL0     O35676   9.713   5.164   3.038  0.1233  0.6981 -0.8018
 1006MOL0     C35677   9.731   5.157   2.918  0.0104  0.4379 -0.5611
 1006MOL0     O35678   9.695   5.252   2.828  0.1988 -0.0889  0.5859
 1006MOL0     C35679   9.680   5.391   2.852 -0.1466  0.0730 -0.1307
 1006MOL0     C35680   9.694   5.450   2.977 -0.1788 -0.1053  0.4862
 1006MOL0     C35681   9.648   5.577   3.007  0.4137 -0.6216 -0.7596
 1006MOL0     C35682   9.613   5.675   2.906 -0.2746  0.2727  0.3793
 1006MOL0     O35683   9.553   5.790   2.940  0.6296  0.2364 -0.0394
 1006MOL0     C35684   9.547   5.897   2.841 -1.1285  0.5837 -0.3009
 1006MOL0     C35685   9.521   6.027   2.909  0.2630  1.1051 -0.3035
 1006MOL0     C35686   9.426   6.019   3.032 -0.0665 -0.6067  0.3321
 1006MOL0     C35687   9.283   6.007   2.979 -0.2076 -0.1453  0.1337
 1006MOL0     C35688   9.192   5.938   3.081 -0.2969  0.2013 -0.0190
 1006MOL0     C35689   9.043   5.962   3.053  0.1558 -0.5831  0.3137
 1006MOL0     C35690   8.958   5.961   3.189 -0.1025 -0.4537  0.3079
 1006MOL0     C35691   8.806   5.932   3.183 -0.4551 -1.4754  0.3155
 1006MOL0     N35692   8.723   6.005   3.082 -0.0127 -0.2547  0.1910
 1006MOL0     C35693   8.696   6.135   3.077  0.2701 -0.9446  0.0518
 1006MOL0     C35694   8.600   6.154   2.979 -0.2107  1.0051  0.4201
 1006MOL0     C35695   8.540   6.282   2.953  0.3905  0.0603  0.3476
 1006MOL0     C35696   8.411   6.291   3.042  0.0872  0.0754 -0.2798
 1006MOL0     C35697   8.385   6.447   3.071 -0.4738  0.3796  0.0655
 1006MOL0     C35698   8.270   6.463   3.179 -0.7596 -0.2676 -0.0536
 1006MOL0     O35699   8.303   6.403   3.308  0.1136  0.9032  0.5918
 1006MOL0     C35700   8.202   6.385   3.400 -0.7688  0.3408 -0.3986
 1006MOL0     C35701   8.227   6.309   3.516 -0.0415  0.2288  0.0635
 1006MOL0     C35702   8.128   6.267   3.604 -0.4593  0.0841 -0.9084
 1006MOL0     C35703   8.171   6.193   3.731 -0.3540  0.3394 -0.0041
 1006MOL0     C35704   7.995   6.302   3.578 -0.4650 -0.0865 -0.0982
 1006MOL0     C35705   7.887   6.260   3.670 -0.2546 -0.5300  0.1208
 1006MOL0     O35706   7.890   6.133   3.725  0.1922 -0.4311 -0.1363
 1006MOL0     C35707   7.774   6.084   3.784 -0.5259 -0.4490  0.1770
 1006MOL0     C35708   7.653   6.073   3.704 -0.1561 -1.0181  0.8208
 1006MOL0     C35709   7.534   6.013   3.751 -0.5858 -0.4329  0.4808
 1006MOL0     C35710   7.531   5.976   3.882 -0.2012 -0.2018 -0.4769
 1006MOL0     O35711   7.410   5.933   3.926  1.6793 -0.1839 -0.2276
 1006MOL0     C35712   7.405   5.831   4.024  0.6434  0.1569  0.2003
 1006MOL0     C35713   7.252   5.794   4.052 -0.6947 -0.2118  0.0439
 1006MOL0     C35714   7.180   5.768   3.920  0.0647  0.2256 -0.1114
 1006MOL0     C35715   7.101   5.884   3.854 -0.6535  0.6738  0.1415
 1006MOL0     C35716   7.047   5.854   3.707  0.5684 -0.1568 -0.5651
 1006MOL0     C35717   6.956   5.983   3.692 -0.4041 -0.1696  0.8155
 1006MOL0     C35718   6.895   5.999   3.558  0.1510 -0.9044 -0.6754
 1006MOL0     C35719   6.991   5.985   3.442  1.0531 -0.7467 -0.1724
 1006MOL0    Cl35720   7.103   6.133   3.458 -0.0550  0.0565 -0.3111
 1006MOL0     C35721   7.643   5.979   3.964  0.0923  0.2440 -0.2630
 1006MOL0     C35722   7.767   6.033   3.915 -0.1684  0.1481  0.3478
 1006MOL0     O35723   7.802   6.348   3.678  0.0902 -0.1800 -0.2367
 1006MOL0     C35724   7.964   6.377   3.462 -0.1565  0.5198 -0.4429
 1006MOL0     C35725   8.067   6.423   3.380  0.6561  0.7010  0.6672
 1006MOL0     N35726   8.582   6.029   2.915  0.5373 -0.0104 -0.1468
 1006MOL0     N35727   8.651   5.943   2.978  0.4982 -0.9482 -0.3202
 1006MOL0     C35728   9.624   5.621   2.775  0.5478 -0.3353  0.2574
 1006MOL0     C35729   9.652   5.484   2.742 -0.4165  0.4814 -0.5211
 1006MOL0     C35730   9.742   5.015   2.872 -0.4515  0.8836  0.5479
 1006MOL0     C35731   9.729   4.899   2.959  0.3955  0.3254 -0.6877
 1006MOL0     C35732   9.738   4.761   2.918 -0.3338  0.3265 -0.2994
 1006MOL0     C35733   9.738   4.737   2.779  0.4005  0.0109  0.7057
 1006MOL0     O35734   9.723   4.608   2.725  0.1115  0.8333 -0.4165
 1006MOL0     C35735   9.692   4.495   2.809  0.7922 -1.0869  0.0292
 1006MOL0     C35736   9.628   4.374   2.733 -0.8630  1.0261  0.0331
 1006MOL0     C35737   9.696   4.354   2.596  0.5548  0.1317  1.1042
 1006MOL0     C35738   9.844   4.323   2.611  0.3478  0.1995 -0.2611
 1006MOL0     C35739   9.902   4.285   2.477  0.0973 -0.8370  1.2479
 1006MOL0     C35740   9.933   4.245   2.366  0.1328 -0.0955  0.5056
 1006MOL0     C35741   9.735   4.848   2.696  1.4080 -0.0604  1.3150
 1006MOL0     C35742   9.747   4.979   2.741  0.7998  0.5000  0.9668
 1006MOL0     H35743   9.733   5.391   3.059 -1.8561  1.3842  2.4300
 1006MOL0     H35744   9.650   5.609   3.110 -0.5395  1.6790 -1.3812
 1006MOL0     H35745   9.643   5.897   2.789 -0.1211  0.5014  1.4789
 1006MOL0     H35746   9.462   5.881   2.774 -2.5249  2.5288  0.9103
 1006MOL0     H35747   9.619   6.062   2.945  1.3271  0.6133 -2.5355
 1006MOL0     H35748   9.483   6.096   2.833 -0.7869  0.0764 -0.7478
 1006MOL0     H35749   9.446   5.940   3.105  0.8388  0.6589  1.5157
 1006MOL0     H35750   9.439   6.115   3.083  1.1586  0.6326 -2.1578
 1006MOL0     H35751   9.242   6.105   2.951 -0.2256 -0.6867 -1.8726
 1006MOL0     H35752   9.289   5.953   2.885 -3.9706 -0.2024 -0.2303
 1006MOL0     H35753   9.215   5.831   3.084 -0.8391 -0.0023 -1.9232
 1006MOL0     H35754   9.211   5.987   3.177  3.0488 -1.1914  0.1609
 1006MOL0     H35755   9.037   6.064   3.014  1.3574 -1.4594 -2.3914
 1006MOL0     H35756   9.008   5.892   2.978  0.4919 -0.4955  0.0746
 1006MOL0     H35757   9.006   5.899   3.265  1.0542  1.7100  1.4468
 1006MOL0     H35758   8.980   6.054   3.243  1.0394  0.5852 -1.7959
 1006MOL0     H35759   8.770   5.956   3.283  0.3341 -2.0836  0.7544
 1006MOL0     H35760   8.795   5.827   3.157 -1.9640 -0.9204 -1.6011
 1006MOL0     H35761   8.745   6.203   3.145  3.4673  0.4430 -3.3446
 1006MOL0     H35762   8.614   6.361   2.966  1.0088 -0.8374  2.7031
 1006MOL0     H35763   8.506   6.290   2.849 -3.4425  2.3265  1.5869
 1006MOL0     H35764   8.412   6.230   3.134 -0.4912 -0.2557 -0.4886
 1006MOL0     H35765   8.327   6.243   2.990  0.3893 -1.4582  0.5540
 1006MOL0     H35766   8.371   6.497   2.974  2.1874 -0.5886 -0.9069
 1006MOL0     H35767   8.479   6.491   3.105 -0.8662  2.0207 -0.8376
 1006MOL0     H35768   8.173   6.435   3.138  0.0319 -1.5044 -1.2160
 1006MOL0     H35769   8.260   6.571   3.191 -0.9864 -0.3788  0.7601
 1006MOL0     H35770   8.331   6.284   3.537  0.4346  0.6982 -1.5740
 1006MOL0     H35771   8.280   6.190   3.738 -0.4390  0.9420  2.1442
 1006MOL0     H35772   8.124   6.234   3.821 -3.5412 -0.9481 -0.9507
 1006MOL0     H35773   8.132   6.092   3.723  1.0812 -0.2895  0.6144
 1006MOL0     H35774   7.660   6.083   3.596 -2.9391 -2.2078  0.4396
 1006MOL0     H35775   7.451   6.000   3.682  1.5518 -0.8623 -2.1983
 1006MOL0     H35776   7.457   5.741   3.990 -0.4520  0.1925 -1.6924
 1006MOL0     H35777   7.456   5.867   4.115 -1.3930  1.6528  0.8116
 1006MOL0     H35778   7.249   5.705   4.115 -1.4231 -0.7071 -0.6649
 1006MOL0     H35779   7.210   5.881   4.103 -0.1510 -0.0967  0.3081
 1006MOL0     H35780   7.106   5.688   3.924 -2.7252  2.5845 -1.1071
 1006MOL0     H35781   7.253   5.744   3.843 -0.4160  2.4575 -1.3503
 1006MOL0     H35782   7.017   5.899   3.922 -0.3113  2.9184  0.1743
 1006MOL0     H35783   7.167   5.971   3.864 -0.2079  0.2955  0.5196
 1006MOL0     H35784   6.996   5.757   3.705  0.0029  0.1025  0.4384
 1006MOL0     H35785   7.135   5.847   3.643  1.5337 -0.0808  0.7175
 1006MOL0     H35786   6.866   5.982   3.755 -1.1618 -2.4712 -0.1869
 1006MOL0     H35787   7.017   6.070   3.716  1.4635 -1.4325  0.8765
 1006MOL0     H35788   6.853   6.100   3.558  1.2663 -0.4258  0.2381
 1006MOL0     H35789   6.802   5.943   3.547 -0.5036 -0.0151  0.1820
 1006MOL0     H35790   6.938   5.989   3.346  0.2319 -2.0896  0.1998
 1006MOL0     H35791   7.053   5.895   3.440  2.5761  0.2845 -1.1315
 1006MOL0     H35792   7.634   5.949   4.068  0.6592  2.0911  0.3610
 1006MOL0     H35793   7.861   6.023   3.969 -0.4333  3.0919  1.5320
 1006MOL0     H35794   7.864   6.411   3.439  0.0280  0.0169 -2.1636
 1006MOL0     H35795   8.034   6.477   3.292 -0.8925 -0.0986  0.7153
 1006MOL0     H35796   9.579   5.679   2.695  1.4220 -0.1843 -0.1425
 1006MOL0     H35797   9.638   5.450   2.640 -3.1760 -1.1154  0.3119
 1006MOL0     H35798   9.706   4.916   3.064  0.6861  0.4872 -0.6494
 1006MOL0     H35799   9.747   4.684   2.995 -1.1871 -0.0467 -0.5522
 1006MOL0     H35800   9.786   4.473   2.861  2.8153  2.3832 -1.8060
 1006MOL0     H35801   9.614   4.528   2.879  0.4934 -2.0857  0.1862
 1006MOL0     H35802   9.520   4.393   2.726 -1.0639  0.1567  0.6044
 1006MOL0     H35803   9.643   4.285   2.795  0.0610  2.2521  1.6512
 1006MOL0     H35804   9.682   4.445   2.537 -0.9034 -0.4443  0.5002
 1006MOL0     H35805   9.651   4.272   2.540  1.5690  0.7676 -0.7072
 1006MOL0     H35806   9.855   4.232   2.670 -0.5362 -0.2884 -0.8145
 1006MOL0     H35807   9.896   4.406   2.658 -0.7095  0.3873  0.6108
 1006MOL0     H35808   9.951   4.191   2.275 -2.1293  0.8554 -0.5949
 1006MOL0     H35809   9.741   4.824   2.591  6.1152 -4.9855  2.2311
 1006MOL0     H35810   9.731   5.050   2.661  0.2083 -1.5038 -0.8018
 1007MOL0     O35811   4.636  11.487   0.266 -0.4582 -0.4667 -0.1029
 1007MOL0     C35812   4.618  11.548   0.166 -0.4833 -0.5870 -0.1136
 1007MOL0     O35813   4.634  11.505   0.040  0.2190 -0.0843 -0.0179
 1007MOL0     C35814   4.657  11.373   0.034 -0.6056 -0.1689  0.4875
 1007MOL0     C35815   4.547  11.288   0.038 -0.5899  1.3037 -0.4830
 1007MOL0     C35816   4.578  11.153   0.059 -1.8915  0.5278  0.6932
 1007MOL0     C35817   4.708  11.100   0.060 -0.6041 -0.2046  0.6085
 1007MOL0     O35818   4.742  10.965   0.068  0.1969 -0.8789 -0.3860
 1007MOL0     C35819   4.647  10.855   0.088  0.5394  0.4876 -0.1023
 1007MOL0     C35820   4.700  10.739  -0.004  0.1342 -0.4783  0.5816
 1007MOL0     C35821   4.663  10.780  -0.149  0.9152 -0.8463  1.0047
 1007MOL0     C35822   4.712  10.676  -0.250  1.2073  0.5316 -0.0357
 1007MOL0     C35823   4.861  10.639  -0.229  0.3673  0.1094  0.4597
 1007MOL0     C35824   4.932  10.555  -0.337  0.2099 -0.8237 -0.2056
 1007MOL0     C35825   5.080  10.549  -0.306  0.5396 -0.7855  0.7612
 1007MOL0     C35826   5.167  10.527  -0.424 -0.1888  0.6314 -0.8769
 1007MOL0     N35827   5.144  10.396  -0.496 -0.4668  0.8089  0.0631
 1007MOL0     C35828   5.027  10.346  -0.554 -0.6324 -0.2308  1.1659
 1007MOL0     C35829   5.069  10.236  -0.619 -0.5373 -0.2689  0.9423
 1007MOL0     C35830   4.976  10.139  -0.696  1.4182  0.1307  0.3499
 1007MOL0     C35831   4.950  10.184  -0.841 -0.2698  0.2242 -0.9090
 1007MOL0     C35832   4.876  10.073  -0.934 -1.8705 -0.8255  0.5950
 1007MOL0     C35833   4.737  10.028  -0.883 -0.8955 -0.1565 -0.8007
 1007MOL0     O35834   4.744   9.956  -0.751 -0.7302 -0.2721  0.2281
 1007MOL0     C35835   4.759   9.821  -0.765  0.2147 -0.5652 -0.0054
 1007MOL0     C35836   4.645   9.742  -0.761 -0.9177 -0.0669 -0.7500
 1007MOL0     C35837   4.660   9.604  -0.762  0.4905 -0.1899  0.8020
 1007MOL0     C35838   4.529   9.526  -0.742 -0.3800 -0.5787  0.2042
 1007MOL0     C35839   4.791   9.543  -0.781  0.5024 -0.6394  0.1558
 1007MOL0     C35840   4.816   9.397  -0.799  0.4950  0.8215 -0.3919
 1007MOL0     O35841   4.943   9.358  -0.770  0.0598  0.3543 -0.6192
 1007MOL0     C35842   4.986   9.228  -0.754  0.0136 -0.1214  0.2790
 1007MOL0     C35843   5.114   9.193  -0.796 -0.0768 -0.2690 -0.3696
 1007MOL0     C35844   5.165   9.064  -0.780  0.5002 -0.0686 -0.3580
 1007MOL0     C35845   5.090   8.964  -0.720 -0.7041  0.9339 -0.3645
 1007MOL0     O35846   5.159   8.846  -0.701  0.3858  0.6604 -0.1606
 1007MOL0     C35847   5.088   8.720  -0.696 -0.2305  0.3465  0.3611
 1007MOL0     C35848   5.141   8.634  -0.583  0.3399  0.2783  0.4700
 1007MOL0     C35849   5.030   8.523  -0.541 -0.0300  0.0114  0.0815
 1007MOL0     C35850   5.052   8.488  -0.394  0.5800  0.1007  0.8099
 1007MOL0     C35851   4.942   8.394  -0.341 -0.2147 -0.5675 -0.4425
 1007MOL0     C35852   4.990   8.310  -0.218  0.0389 -0.3412  0.7927
 1007MOL0     C35853   4.864   8.238  -0.154  0.4309 -0.2022  0.2868
 1007MOL0     C35854   4.883   8.237  -0.002 -0.4855  0.2048  0.2330
 1007MOL0    Cl35855   4.991   8.096   0.023 -0.2427  0.6955  0.5331
 1007MOL0     C35856   4.960   9.001  -0.675 -1.1933  0.1759 -1.5308
 1007MOL0     C35857   4.908   9.125  -0.693 -0.1544  0.0691 -0.1683
 1007MOL0     O35858   4.727   9.321  -0.834  0.1752 -0.3326  0.2455
 1007MOL0     C35859   4.893   9.632  -0.794 -0.0582  0.4803  0.2338
 1007MOL0     C35860   4.883   9.772  -0.774  1.2486 -0.1618 -0.7112
 1007MOL0     N35861   5.201  10.203  -0.577  0.2888 -0.1489 -0.0905
 1007MOL0     N35862   5.243  10.310  -0.510  0.1092  0.1891 -0.1760
 1007MOL0     C35863   4.818  11.191   0.042  0.2639 -0.5141  0.5260
 1007MOL0     C35864   4.785  11.322   0.023 -0.5386  0.1956  0.1726
 1007MOL0     C35865   4.571  11.688   0.182 -0.2962  0.2872  0.0871
 1007MOL0     C35866   4.568  11.747   0.310  0.4148  0.2673 -0.3353
 1007MOL0     C35867   4.513  11.875   0.325  0.7204 -0.8730  0.0074
 1007MOL0     C35868   4.463  11.945   0.210 -0.6397 -0.0176 -0.7355
 1007MOL0     O35869   4.407  12.072   0.202  0.7781  0.4199  0.0659
 1007MOL0     C35870   4.264  12.085   0.167  0.6792  0.9613 -0.2578
 1007MOL0     C35871   4.245  12.237   0.143 -0.5687 -0.1199 -0.2606
 1007MOL0     C35872   4.290  12.275  -0.008 -0.7004 -0.3184 -0.3957
 1007MOL0     C35873   4.243  12.417  -0.051  0.6542 -0.0866 -0.3619
 1007MOL0     C35874   4.294  12.520   0.027 -0.2148  0.0552 -0.0975
 1007MOL0     C35875   4.340  12.603   0.105  0.1420  0.4899  0.3393
 1007MOL0     C35876   4.478  11.884   0.080  0.2119  0.3176 -0.6053
 1007MOL0     C35877   4.531  11.755   0.070  0.4315  0.2090  0.3824
 1007MOL0     H35878   4.447  11.328   0.023 -1.0820 -0.0762 -1.0174
 1007MOL0     H35879   4.490  11.089   0.066 -2.8560  1.6728 -0.4029
 1007MOL0     H35880   4.630  10.818   0.189 -1.0892 -1.1291 -0.9091
 1007MOL0     H35881   4.544  10.874   0.057  0.0447 -2.5010 -0.5980
 1007MOL0     H35882   4.805  10.711   0.009 -0.4598 -2.8580  0.5802
 1007MOL0     H35883   4.646  10.646   0.015  0.3448 -0.3598  1.8500
 1007MOL0     H35884   4.554  10.774  -0.156  0.9626 -0.3536 -0.4105
 1007MOL0     H35885   4.708  10.877  -0.171  0.2760 -0.5405  1.0301
 1007MOL0     H35886   4.647  10.589  -0.239  1.1128  0.6981  0.8171
 1007MOL0     H35887   4.708  10.702  -0.356  4.3520  2.0613  0.0923
 1007MOL0     H35888   4.919  10.731  -0.240 -1.1852  0.8890 -2.6481
 1007MOL0     H35889   4.880  10.585  -0.136  0.4592  2.1412  1.6774
 1007MOL0     H35890   4.894  10.454  -0.353  0.5820 -0.9603 -0.2558
 1007MOL0     H35891   4.915  10.601  -0.435 -2.1771  0.2667  0.6497
 1007MOL0     H35892   5.109  10.644  -0.262 -2.2370  0.9769 -0.9231
 1007MOL0     H35893   5.098  10.467  -0.235 -1.5068 -1.5543  0.4846
 1007MOL0     H35894   5.267  10.523  -0.379 -0.9373 -1.7938  0.7805
 1007MOL0     H35895   5.164  10.612  -0.493  0.0472  1.2887 -0.0916
 1007MOL0     H35896   4.929  10.393  -0.549 -0.7558 -0.5208  1.4765
 1007MOL0     H35897   5.014  10.040  -0.722 -2.4092 -0.7346 -3.0764
 1007MOL0     H35898   4.883  10.125  -0.639  3.1181 -3.7390  2.5277
 1007MOL0     H35899   5.047  10.215  -0.882 -0.7010  2.0145 -0.6960
 1007MOL0     H35900   4.905  10.284  -0.837  2.8010  1.6908  1.4976
 1007MOL0     H35901   4.937   9.983  -0.942 -0.4601  0.0269  1.3719
 1007MOL0     H35902   4.856  10.115  -1.033  0.3227  0.6048  0.6862
 1007MOL0     H35903   4.689   9.959  -0.954  1.7044 -4.0590  0.8703
 1007MOL0     H35904   4.675  10.117  -0.867 -0.2991  0.5771 -2.4334
 1007MOL0     H35905   4.544   9.784  -0.764 -1.1530 -0.6568 -1.2997
 1007MOL0     H35906   4.541   9.450  -0.664  4.0735  0.8058  1.1611
 1007MOL0     H35907   4.448   9.587  -0.702  0.3163  0.3248  0.2635
 1007MOL0     H35908   4.507   9.476  -0.836 -3.6498  3.2029 -1.3161
 1007MOL0     H35909   5.172   9.270  -0.845  0.6256  0.1834  1.1261
 1007MOL0     H35910   5.263   9.044  -0.823  0.6961  0.5891 -0.2199
 1007MOL0     H35911   4.979   8.734  -0.689 -0.2301 -0.1356  1.5617
 1007MOL0     H35912   5.101   8.669  -0.792 -3.2977 -1.3112  0.6916
 1007MOL0     H35913   5.237   8.585  -0.601  1.5668  1.3996  3.3617
 1007MOL0     H35914   5.169   8.707  -0.506  1.1784  2.2850 -1.6163
 1007MOL0     H35915   5.038   8.434  -0.604 -0.6972  0.1522 -0.2042
 1007MOL0     H35916   4.928   8.561  -0.554 -0.7574 -1.1849  1.8502
 1007MOL0     H35917   5.146   8.432  -0.384 -0.4218 -1.9465 -0.4354
 1007MOL0     H35918   5.049   8.581  -0.337  0.3520 -1.3579  3.3106
 1007MOL0     H35919   4.902   8.321  -0.413  0.5874 -1.3485 -0.1180
 1007MOL0     H35920   4.856   8.460  -0.325 -0.9007 -0.2999 -4.1430
 1007MOL0     H35921   5.055   8.235  -0.264 -3.0842 -0.7875 -3.4448
 1007MOL0     H35922   5.037   8.387  -0.156  1.3823  0.4465 -1.1027
 1007MOL0     H35923   4.851   8.135  -0.189 -3.9259  0.5930 -1.1296
 1007MOL0     H35924   4.764   8.279  -0.176 -0.3162 -1.4833  1.1955
 1007MOL0     H35925   4.792   8.220   0.057 -1.8303 -0.3111 -1.9119
 1007MOL0     H35926   4.922   8.335   0.026  0.4013 -0.3447  0.9908
 1007MOL0     H35927   4.892   8.941  -0.617  0.9661 -0.0833  0.9056
 1007MOL0     H35928   4.807   9.131  -0.655  0.2521  0.4141  0.8996
 1007MOL0     H35929   4.982   9.600  -0.847  0.1124  4.0118 -1.9203
 1007MOL0     H35930   4.971   9.833  -0.790  1.5471  0.6670  3.1721
 1007MOL0     H35931   4.916  11.145   0.032 -0.4196 -1.9543  0.2486
 1007MOL0     H35932   4.853  11.405   0.002  0.7362 -0.2010  2.3899
 1007MOL0     H35933   4.606  11.691   0.395 -2.6184 -0.7534  0.4583
 1007MOL0     H35934   4.505  11.926   0.420 -0.6167  3.0520 -2.0170
 1007MOL0     H35935   4.236  12.027   0.078  0.7214  4.3537 -2.6806
 1007MOL0     H35936   4.197  12.054   0.248  2.2047  1.0038  1.0648
 1007MOL0     H35937   4.299  12.294   0.219 -0.2805 -2.0140  1.0217
 1007MOL0     H35938   4.140  12.260   0.164 -0.4153  0.1005  0.2772
 1007MOL0     H35939   4.260  12.205  -0.086  2.1005  0.3837 -2.2452
 1007MOL0     H35940   4.398  12.260  -0.013 -0.7882 -1.0985 -0.0858
 1007MOL0     H35941   4.133  12.420  -0.055  0.6206  2.0865  0.8391
 1007MOL0     H35942   4.282  12.441  -0.151 -0.3983 -1.4389 -1.1405
 1007MOL0     H35943   4.383  12.658   0.186 -1.9456  1.8207  0.6412
 1007MOL0     H35944   4.459  11.956   0.002  1.0007  1.7672  0.4777
 1007MOL0     H35945   4.549  11.707  -0.026  0.5281  0.7314  0.1350
 1008MOL0     O35946   1.037   5.835   0.268  0.9042 -0.6708 -0.2242
 1008MOL0     C35947   0.986   5.817   0.376  0.4520 -0.0846 -0.2025
 1008MOL0     O35948   1.053   5.827   0.499 -0.3193 -1.2192 -0.3358
 1008MOL0     C35949   1.191   5.828   0.518 -0.0980  0.3287  0.2195
 1008MOL0     C35950   1.265   5.718   0.476 -0.4134 -0.1440 -1.4470
 1008MOL0     C35951   1.404   5.720   0.490  0.3181  0.3188 -0.6805
 1008MOL0     C35952   1.473   5.830   0.537  1.0268  0.6161  0.3880
 1008MOL0     O35953   1.602   5.804   0.554  0.1077 -0.1904 -0.4184
 1008MOL0     C35954   1.693   5.893   0.629  0.5303  0.2293 -0.9716
 1008MOL0     C35955   1.829   5.831   0.648  0.9110 -1.4157 -0.1979
 1008MOL0     C35956   1.817   5.707   0.742  0.0316  0.7803 -0.2240
 1008MOL0     C35957   1.937   5.668   0.832  1.2961 -0.0590 -0.0904
 1008MOL0     C35958   1.905   5.562   0.944  0.1401 -0.3576  0.6694
 1008MOL0     C35959   1.859   5.415   0.887 -0.0549  0.7295  1.3509
 1008MOL0     C35960   1.970   5.357   0.783  0.1666 -0.2705 -0.6587
 1008MOL0     C35961   2.099   5.330   0.855  0.3300  1.0122  0.5641
 1008MOL0     N35962   2.181   5.234   0.770 -0.3933  0.2040  0.3108
 1008MOL0     C35963   2.275   5.269   0.681  0.3142 -0.3095 -0.1665
 1008MOL0     C35964   2.320   5.149   0.625  0.2609 -0.1873 -0.5425
 1008MOL0     C35965   2.427   5.125   0.529 -0.0708 -0.6547  0.3042
 1008MOL0     C35966   2.497   4.993   0.562  0.0494  0.2012 -0.6166
 1008MOL0     C35967   2.586   4.988   0.686  0.7494 -0.6257  0.4574
 1008MOL0     C35968   2.522   5.006   0.820 -0.1970 -0.0835 -0.9374
 1008MOL0     O35969   2.615   4.999   0.927 -0.4059 -0.3442 -1.0189
 1008MOL0     C35970   2.579   5.016   1.059  1.1288  0.1842 -0.0913
 1008MOL0     C35971   2.453   5.045   1.103  0.5487  0.3864 -0.0311
 1008MOL0     C35972   2.419   5.035   1.241 -0.1209  0.0346 -1.3416
 1008MOL0     C35973   2.279   5.055   1.274  0.4386 -0.1439 -0.2662
 1008MOL0     C35974   2.528   5.013   1.334 -0.8071  0.7131  0.0254
 1008MOL0     C35975   2.512   5.008   1.481  0.0333 -0.6408  0.3335
 1008MOL0     O35976   2.624   5.026   1.559 -0.9119  0.6723  0.1278
 1008MOL0     C35977   2.623   5.002   1.694 -0.1432  0.3987  0.4097
 1008MOL0     C35978   2.579   4.876   1.739 -0.6734 -0.7412  0.3880
 1008MOL0     C35979   2.595   4.842   1.873 -0.7323 -0.5699  0.8134
 1008MOL0     C35980   2.649   4.935   1.968 -0.2003 -0.2035  1.3253
 1008MOL0     O35981   2.648   4.891   2.096 -1.4384  0.1868 -0.7322
 1008MOL0     C35982   2.520   4.868   2.148  0.0396  0.7437 -0.0821
 1008MOL0     C35983   2.517   4.717   2.193 -0.2436  0.6615  0.3210
 1008MOL0     C35984   2.365   4.667   2.224 -1.0963  0.6131 -0.0453
 1008MOL0     C35985   2.369   4.514   2.232 -0.2110  0.0328 -0.2241
 1008MOL0     C35986   2.227   4.456   2.262  0.1380 -0.3978 -0.8760
 1008MOL0     C35987   2.245   4.316   2.318  0.2102 -0.6625 -0.7523
 1008MOL0     C35988   2.254   4.203   2.217  0.5418  0.1125  0.9158
 1008MOL0     C35989   2.268   4.057   2.271 -0.2973 -0.3125  0.1049
 1008MOL0    Cl35990   2.440   4.054   2.331  0.1564 -0.2696  0.3166
 1008MOL0     C35991   2.698   5.062   1.915 -1.0751 -0.6429  0.7366
 1008MOL0     C35992   2.683   5.092   1.777 -0.0857 -0.3630  0.5413
 1008MOL0     O35993   2.399   5.007   1.529  0.1705  0.3238  0.1848
 1008MOL0     C35994   2.658   5.007   1.284  0.0566 -0.3449  0.0328
 1008MOL0     C35995   2.677   4.987   1.149 -1.4217  0.2820 -0.4886
 1008MOL0     N35996   2.243   5.049   0.679  0.2610 -0.2288  0.2209
 1008MOL0     N35997   2.163   5.092   0.772  0.9429  1.2733  0.5990
 1008MOL0     C35998   1.402   5.950   0.570 -0.2957 -0.4897  0.1335
 1008MOL0     C35999   1.262   5.939   0.554 -0.9694 -0.0521 -0.4646
 1008MOL0     C36000   0.841   5.792   0.391 -0.4571 -0.5074 -0.2028
 1008MOL0     C36001   0.786   5.746   0.514  1.0758  0.0125 -0.8429
 1008MOL0     C36002   0.656   5.686   0.523 -0.2628 -0.4725 -0.6445
 1008MOL0     C36003   0.572   5.702   0.409  0.4459  0.1379 -0.2325
 1008MOL0     O36004   0.439   5.677   0.417  0.0789 -0.2586  0.2656
 1008MOL0     C36005   0.375   5.620   0.527  0.7261 -0.4147  0.5037
 1008MOL0     C36006   0.223   5.635   0.491 -0.2296  0.1325  0.4573
 1008MOL0     C36007   0.168   5.777   0.458  0.5639  0.4179  0.6378
 1008MOL0     C36008   0.189   5.885   0.562 -1.0038  0.7696 -0.6388
 1008MOL0     C36009   0.133   5.849   0.696  0.5097 -0.8337  0.3366
 1008MOL0     C36010   0.077   5.832   0.803  0.2354 -0.6289  0.7495
 1008MOL0     C36011   0.617   5.771   0.296  0.2186  0.2360 -0.2116
 1008MOL0     C36012   0.752   5.811   0.281 -0.3795  0.1326  0.6223
 1008MOL0     H36013   1.213   5.628   0.447  0.0233 -1.5018  1.5570
 1008MOL0     H36014   1.468   5.642   0.449 -0.8767 -0.5211 -1.0008
 1008MOL0     H36015   1.706   5.990   0.581 -0.2067  0.1769 -1.2872
 1008MOL0     H36016   1.634   5.908   0.719 -0.2582  3.4035 -1.9045
 1008MOL0     H36017   1.873   5.806   0.552  1.7944 -0.2583 -0.1174
 1008MOL0     H36018   1.896   5.909   0.685 -2.0915  1.2218  0.1388
 1008MOL0     H36019   1.747   5.727   0.824  1.5000  0.8018  1.0857
 1008MOL0     H36020   1.788   5.621   0.681  1.0335 -0.7540  1.3639
 1008MOL0     H36021   2.016   5.634   0.764  1.8056 -0.9369  0.9053
 1008MOL0     H36022   1.973   5.754   0.889 -1.3007 -0.0904  1.7441
 1008MOL0     H36023   1.995   5.546   1.005  1.0396 -0.3554 -0.6190
 1008MOL0     H36024   1.837   5.582   1.026  1.9690 -0.4955  2.3021
 1008MOL0     H36025   1.849   5.341   0.968 -0.0375 -1.0260 -0.1842
 1008MOL0     H36026   1.760   5.419   0.841  0.0333 -0.4487  1.0268
 1008MOL0     H36027   1.932   5.263   0.742  2.5232 -0.2870 -3.0730
 1008MOL0     H36028   1.983   5.433   0.705  2.9204 -2.4361 -2.4753
 1008MOL0     H36029   2.080   5.270   0.944  2.4476 -0.3190  0.1770
 1008MOL0     H36030   2.151   5.424   0.879  1.3675 -0.1211  3.0672
 1008MOL0     H36031   2.319   5.365   0.656 -1.1493  1.0258  2.0697
 1008MOL0     H36032   2.389   5.113   0.427  3.7753  2.4080 -1.7697
 1008MOL0     H36033   2.503   5.204   0.531 -1.0166  0.3314  3.3600
 1008MOL0     H36034   2.565   4.970   0.479  0.8294  0.1849  0.0239
 1008MOL0     H36035   2.428   4.908   0.568  1.8959 -1.2471  1.4267
 1008MOL0     H36036   2.663   5.064   0.669  0.2789 -0.6856 -2.3700
 1008MOL0     H36037   2.650   4.899   0.688  1.7866  0.0378 -1.0806
 1008MOL0     H36038   2.453   4.923   0.838  2.2103 -1.7095  1.5665
 1008MOL0     H36039   2.468   5.101   0.820 -2.1961 -1.1345  0.9974
 1008MOL0     H36040   2.373   5.077   1.037  0.5371 -0.2624 -0.3430
 1008MOL0     H36041   2.225   5.055   1.178 -0.1767 -1.6039  0.0511
 1008MOL0     H36042   2.228   4.974   1.327  2.1377 -2.3172 -1.7593
 1008MOL0     H36043   2.261   5.146   1.332 -2.4415  0.2159 -1.5202
 1008MOL0     H36044   2.534   4.807   1.668 -1.4129 -0.6359  0.7494
 1008MOL0     H36045   2.551   4.746   1.895  0.1114 -1.1786 -0.0607
 1008MOL0     H36046   2.520   4.924   2.242  2.0982  0.1279  0.3484
 1008MOL0     H36047   2.439   4.880   2.076 -0.4194 -0.7805  0.1518
 1008MOL0     H36048   2.565   4.651   2.120  0.7910 -1.0907  2.4810
 1008MOL0     H36049   2.581   4.711   2.281  1.3153 -1.3417 -0.8575
 1008MOL0     H36050   2.307   4.698   2.137 -0.6585 -2.2132 -1.4727
 1008MOL0     H36051   2.335   4.708   2.321  2.4864  0.0088  1.4513
 1008MOL0     H36052   2.413   4.483   2.137  1.3620  0.1886  0.4251
 1008MOL0     H36053   2.446   4.493   2.307  0.7754  1.9355 -0.6319
 1008MOL0     H36054   2.156   4.474   2.180 -2.2551  3.7536  1.7245
 1008MOL0     H36055   2.193   4.519   2.344  3.1333  2.5024 -1.6315
 1008MOL0     H36056   2.327   4.305   2.390  0.2146 -0.8948 -0.7904
 1008MOL0     H36057   2.155   4.294   2.376  2.9281 -1.2366  3.7603
 1008MOL0     H36058   2.346   4.214   2.159 -1.5029  2.1935 -2.2740
 1008MOL0     H36059   2.168   4.213   2.149  0.4555  2.5468  1.2771
 1008MOL0     H36060   2.245   3.983   2.194 -0.8887  0.6772 -0.6964
 1008MOL0     H36061   2.198   4.047   2.355 -2.0770  2.0105 -0.9487
 1008MOL0     H36062   2.743   5.129   1.988 -2.0844 -1.3236  2.0369
 1008MOL0     H36063   2.730   5.184   1.746  2.7667 -1.0407  2.4764
 1008MOL0     H36064   2.744   5.003   1.350  1.7311  1.2970 -1.9002
 1008MOL0     H36065   2.772   4.955   1.107 -1.6981 -1.9546  0.4041
 1008MOL0     H36066   1.456   6.032   0.616  1.1743 -1.7752  0.7842
 1008MOL0     H36067   1.213   6.032   0.579  1.5021  0.6297  2.5287
 1008MOL0     H36068   0.858   5.746   0.595  0.4295 -0.0986 -0.2545
 1008MOL0     H36069   0.642   5.639   0.620 -0.4168 -0.1572 -0.5124
 1008MOL0     H36070   0.401   5.514   0.541  1.0393 -0.1058  2.5311
 1008MOL0     H36071   0.393   5.676   0.619 -0.4777 -0.1393  0.5889
 1008MOL0     H36072   0.178   5.604   0.586 -1.3958  2.6937  0.8200
 1008MOL0     H36073   0.195   5.565   0.412  0.4923  1.6937 -1.2374
 1008MOL0     H36074   0.061   5.766   0.439  0.2856  2.4173  0.8082
 1008MOL0     H36075   0.213   5.813   0.365 -0.6093  0.2394 -0.0113
 1008MOL0     H36076   0.154   5.985   0.537 -2.2490  0.4344 -0.3390
 1008MOL0     H36077   0.297   5.899   0.564 -1.3033  3.4403 -0.3056
 1008MOL0     H36078   0.027   5.839   0.897 -1.9127  1.5035 -0.4502
 1008MOL0     H36079   0.545   5.795   0.219 -1.1458  0.0851  0.9815
 1008MOL0     H36080   0.781   5.855   0.186  2.9208 -0.4912  1.2260
 1009MOL0     O36081   0.791  10.411  11.424  0.7840  0.1292 -0.0948
 1009MOL0     C36082   0.893  10.368  11.383  0.2371  0.3170 -0.3557
 1009MOL0     O36083   0.908  10.318  11.251 -0.4463  0.0094 -0.0713
 1009MOL0     C36084   0.811  10.365  11.159  0.1992  0.9841  0.8853
 1009MOL0     C36085   0.794  10.496  11.135  0.5243 -0.1387 -0.3396
 1009MOL0     C36086   0.688  10.538  11.051  0.8429  0.0823 -0.2219
 1009MOL0     C36087   0.590  10.447  10.990  0.3112 -1.0513 -0.1020
 1009MOL0     O36088   0.487  10.495  10.901 -0.8446 -0.6796  0.3366
 1009MOL0     C36089   0.519  10.578  10.790 -0.6239 -0.4412 -0.2125
 1009MOL0     C36090   0.399  10.637  10.725 -0.3290 -0.5973  0.3421
 1009MOL0     C36091   0.411  10.783  10.692 -0.0483  0.7581 -0.0435
 1009MOL0     C36092   0.530  10.815  10.591 -0.2016  0.5107  0.3308
 1009MOL0     C36093   0.560  10.964  10.578  0.0796  0.2809 -0.3397
 1009MOL0     C36094   0.660  10.997  10.462  1.0424  0.4451 -0.3958
 1009MOL0     C36095   0.810  11.018  10.503 -1.1464 -0.3852 -0.0063
 1009MOL0     C36096   0.882  11.127  10.425 -0.2307 -0.0775  0.4545
 1009MOL0     N36097   0.918  11.086  10.295 -0.0068  0.7136 -0.5245
 1009MOL0     C36098   0.882  11.162  10.189 -0.2684  0.1364  0.7924
 1009MOL0     C36099   0.895  11.080  10.083  0.0033 -0.5921 -0.5843
 1009MOL0     C36100   0.878  11.112   9.935  0.1102  0.0034  0.6199
 1009MOL0     C36101   0.729  11.136   9.882 -0.0729 -0.5286 -0.2576
 1009MOL0     C36102   0.647  11.209   9.989  0.5594 -0.4324 -0.6310
 1009MOL0     C36103   0.505  11.234   9.945  0.8775  0.0922  0.2295
 1009MOL0     O36104   0.514  11.321   9.828 -0.4328 -0.6910 -0.9117
 1009MOL0     C36105   0.410  11.340   9.747 -0.8848  0.1303 -0.6124
 1009MOL0     C36106   0.432  11.432   9.641  0.1199 -0.1523  0.0410
 1009MOL0     C36107   0.331  11.473   9.557 -0.3710  0.4580  0.8307
 1009MOL0     C36108   0.375  11.564   9.440  1.6073  0.4460  0.2679
 1009MOL0     C36109   0.201  11.428   9.566 -0.5175 -0.0654  0.9010
 1009MOL0     C36110   0.096  11.464   9.466  1.0882  0.1115  0.7044
 1009MOL0     O36111   0.018  11.358   9.419  0.3053  0.0225  0.8722
 1009MOL0     C36112  -0.104  11.375   9.366  0.9418  0.7029  0.6656
 1009MOL0     C36113  -0.118  11.420   9.237 -0.9174 -0.7268 -1.0748
 1009MOL0     C36114  -0.249  11.419   9.183 -0.6165 -0.1549  1.0193
 1009MOL0     C36115  -0.359  11.374   9.249  0.0606 -0.7093  0.2588
 1009MOL0     O36116  -0.475  11.357   9.170  1.1002 -0.4703  0.0934
 1009MOL0     C36117  -0.599  11.337   9.240  0.0590  0.4027 -0.2623
 1009MOL0     C36118  -0.719  11.347   9.142 -0.2698 -0.4785 -0.5561
 1009MOL0     C36119  -0.723  11.223   9.050 -0.6045  1.0838  0.0980
 1009MOL0     C36120  -0.855  11.213   8.982 -0.2263 -1.0041  0.2817
 1009MOL0     C36121  -0.862  11.101   8.874  0.3351 -0.1420  0.3037
 1009MOL0     C36122  -0.997  11.094   8.805 -1.0324  0.2654  0.3805
 1009MOL0     C36123  -1.001  11.006   8.680 -0.8386  1.0336 -0.4111
 1009MOL0     C36124  -1.026  10.850   8.707  0.0905 -0.1773  0.5814
 1009MOL0    Cl36125  -1.189  10.804   8.731  0.0407  0.5330 -0.2486
 1009MOL0     C36126  -0.355  11.345   9.382  0.3667 -0.1256 -0.0430
 1009MOL0     C36127  -0.221  11.331   9.433 -0.1208  0.5922  0.3860
 1009MOL0     O36128   0.072  11.580   9.430 -1.4258  0.0198  0.3904
 1009MOL0     C36129   0.184  11.340   9.671  0.1244  0.2270 -0.0869
 1009MOL0     C36130   0.285  11.296   9.758  0.3049  0.1044  0.5479
 1009MOL0     N36131   0.925  10.950  10.129 -0.0850  0.6979  0.5804
 1009MOL0     N36132   0.945  10.953  10.259  1.0863 -0.4206  0.6406
 1009MOL0     C36133   0.611  10.313  11.017  0.0526 -0.5208 -0.3330
 1009MOL0     C36134   0.726  10.273  11.094  0.5630 -0.4053 -0.3286
 1009MOL0     C36135   0.994  10.335  11.483 -0.1133  0.7524  0.1825
 1009MOL0     C36136   1.131  10.322  11.444 -0.5570 -1.2055 -0.3107
 1009MOL0     C36137   1.231  10.268  11.530 -0.2461  0.6007  0.0735
 1009MOL0     C36138   1.203  10.248  11.660 -0.3314  0.0918 -0.5462
 1009MOL0     O36139   1.299  10.208  11.749 -1.4008  0.4192  0.6757
 1009MOL0     C36140   1.293  10.251  11.893  0.4021 -0.5430  0.5623
 1009MOL0     C36141   1.432  10.242  11.960 -0.3633 -0.1627  0.1010
 1009MOL0     C36142   1.488  10.113  11.999  1.3396  0.2464 -0.1382
 1009MOL0     C36143   1.615  10.121  12.084 -0.1442  1.1245  0.4800
 1009MOL0     C36144   1.660  10.000  12.158  1.1434  0.6498  0.2540
 1009MOL0     C36145   1.698   9.916  12.237  0.3299  0.3632 -0.4773
 1009MOL0     C36146   1.071  10.270  11.707  0.2265  0.3191  0.2614
 1009MOL0     C36147   0.966  10.310  11.621  0.0705 -0.5643  0.3847
 1009MOL0     H36148   0.862  10.570  11.176  1.3526  0.5489 -2.7518
 1009MOL0     H36149   0.680  10.645  11.034  0.5344  0.2452  0.9185
 1009MOL0     H36150   0.590  10.658  10.816  0.8995 -2.0671  0.8852
 1009MOL0     H36151   0.563  10.512  10.715  2.1514  1.3653 -0.3155
 1009MOL0     H36152   0.375  10.577  10.637 -1.1284  1.7326 -1.1072
 1009MOL0     H36153   0.305  10.613  10.777  1.4882 -2.8166  2.8940
 1009MOL0     H36154   0.308  10.810  10.665 -0.2739  1.7366  1.6889
 1009MOL0     H36155   0.424  10.851  10.776  1.6397 -2.7178  2.8148
 1009MOL0     H36156   0.623  10.772  10.628  0.4893  2.7726  1.4411
 1009MOL0     H36157   0.495  10.775  10.496 -1.7330  1.3646  0.5064
 1009MOL0     H36158   0.465  11.016  10.570 -1.8998 -3.2200 -1.8749
 1009MOL0     H36159   0.605  10.996  10.672  0.6483 -0.9025 -0.1841
 1009MOL0     H36160   0.649  10.920  10.385 -2.9595  0.7258 -0.3314
 1009MOL0     H36161   0.632  11.091  10.414  1.9130  1.0284  0.2202
 1009MOL0     H36162   0.811  11.056  10.606 -0.9569 -1.8957  0.5681
 1009MOL0     H36163   0.863  10.923  10.502 -2.6044 -1.2316  0.4628
 1009MOL0     H36164   0.977  11.152  10.474 -0.5784  0.6276  0.7791
 1009MOL0     H36165   0.825  11.220  10.431 -1.3958 -0.5062 -2.4811
 1009MOL0     H36166   0.853  11.265  10.170 -0.4933  0.8603  4.3677
 1009MOL0     H36167   0.932  11.201   9.899 -1.8661  0.4804 -1.4260
 1009MOL0     H36168   0.914  11.027   9.875 -0.2348  2.0691 -2.8204
 1009MOL0     H36169   0.695  11.035   9.859  2.6065 -1.5997  0.0503
 1009MOL0     H36170   0.725  11.186   9.785 -3.4391 -3.8699 -2.1154
 1009MOL0     H36171   0.696  11.303  10.017  2.2341 -0.2296 -3.7959
 1009MOL0     H36172   0.623  11.143  10.073  1.6657  2.1629  1.9028
 1009MOL0     H36173   0.457  11.301  10.017  0.6776  2.2254 -1.7537
 1009MOL0     H36174   0.456  11.140   9.918  1.9205 -0.8606  1.5746
 1009MOL0     H36175   0.530  11.479   9.646  0.4338 -0.8985  1.2640
 1009MOL0     H36176   0.315  11.543   9.351 -0.1647 -4.8466  2.3198
 1009MOL0     H36177   0.382  11.671   9.462  1.1121  0.8488 -1.3938
 1009MOL0     H36178   0.477  11.532   9.416  1.8304  1.2374  0.1041
 1009MOL0     H36179  -0.046  11.469   9.172 -2.4264  1.7017 -1.0534
 1009MOL0     H36180  -0.255  11.446   9.078  2.1552  0.5305  0.9463
 1009MOL0     H36181  -0.594  11.242   9.294 -1.7949  2.1310  3.3089
 1009MOL0     H36182  -0.607  11.419   9.312 -0.2745  2.5653 -2.6217
 1009MOL0     H36183  -0.810  11.350   9.203 -1.8591 -3.0105 -2.5723
 1009MOL0     H36184  -0.716  11.438   9.082 -0.6349 -1.2687 -1.8136
 1009MOL0     H36185  -0.712  11.127   9.101  0.6883  1.0938 -0.1294
 1009MOL0     H36186  -0.652  11.242   8.969 -2.2352 -1.9147 -2.2547
 1009MOL0     H36187  -0.930  11.204   9.062 -1.1875 -1.2539 -0.6273
 1009MOL0     H36188  -0.865  11.312   8.939 -0.4805  0.2946  3.1097
 1009MOL0     H36189  -0.851  11.012   8.938 -1.8021 -0.7263 -0.0627
 1009MOL0     H36190  -0.773  11.116   8.813 -0.0844  1.3523  0.0178
 1009MOL0     H36191  -1.072  11.066   8.879  1.3340 -1.8636  2.1459
 1009MOL0     H36192  -1.015  11.196   8.770 -0.4558  0.7111  1.3530
 1009MOL0     H36193  -0.903  11.016   8.632  2.2702  1.2410  5.1492
 1009MOL0     H36194  -1.081  11.041   8.614 -3.4106 -2.7628  0.3656
 1009MOL0     H36195  -0.954  10.822   8.784  1.1000 -1.1744 -0.6604
 1009MOL0     H36196  -0.996  10.791   8.619 -2.6111 -1.7264  0.5838
 1009MOL0     H36197  -0.435  11.304   9.442  0.0693  0.8799  0.2649
 1009MOL0     H36198  -0.199  11.307   9.537  0.4773  0.3745  0.2133
 1009MOL0     H36199   0.093  11.285   9.693  0.5832 -0.6370 -0.3084
 1009MOL0     H36200   0.257  11.216   9.825 -2.8025 -0.4791 -1.2613
 1009MOL0     H36201   0.524  10.262  10.976 -1.5191  2.2665 -0.6994
 1009MOL0     H36202   0.748  10.170  11.121 -1.9657 -0.2256  3.0015
 1009MOL0     H36203   1.156  10.358  11.344  0.0154  2.4743  1.0269
 1009MOL0     H36204   1.330  10.238  11.495  0.7932 -1.5247  4.2171
 1009MOL0     H36205   1.260  10.355  11.891 -2.7068 -1.3122  3.4017
 1009MOL0     H36206   1.224  10.188  11.950  0.7785 -1.6385 -0.1524
 1009MOL0     H36207   1.425  10.307  12.048 -0.5979  0.4844 -0.3845
 1009MOL0     H36208   1.504  10.296  11.897 -0.9069 -2.4462 -2.7042
 1009MOL0     H36209   1.504  10.051  11.911 -3.5547  1.0838 -1.9007
 1009MOL0     H36210   1.415  10.065  12.064  1.4120  2.1059  1.4259
 1009MOL0     H36211   1.610  10.198  12.163  0.7467  1.0411  0.6350
 1009MOL0     H36212   1.703  10.142  12.022  0.0108  2.4737  1.1033
 1009MOL0     H36213   1.726   9.846  12.313 -1.6755  2.7340  2.7461
 1009MOL0     H36214   1.050  10.246  11.810 -0.7044  1.1409  0.2799
 1009MOL0     H36215   0.862  10.296  11.649  0.1866 -0.2015  0.9960
 1010MOL0     O36216   4.932   9.325   9.703  0.0430 -0.3680 -0.6529
 1010MOL0     C36217   5.017   9.244   9.750  0.2832  0.1249  0.6831
 1010MOL0     O36218   5.149   9.258   9.721 -0.3711  0.5486  0.4109
 1010MOL0     C36219   5.198   9.321   9.610 -0.0019 -0.1100 -0.6100
 1010MOL0     C36220   5.131   9.319   9.488  0.3851 -1.3697 -0.0832
 1010MOL0     C36221   5.193   9.361   9.367 -1.4987  0.1357  0.1707
 1010MOL0     C36222   5.322   9.417   9.367  0.2318  0.1698 -0.0342
 1010MOL0     O36223   5.371   9.464   9.243 -0.6003 -0.5492 -0.9082
 1010MOL0     C36224   5.505   9.521   9.248  0.0011  0.9803  0.5347
 1010MOL0     C36225   5.522   9.593   9.118  0.0857 -0.0307 -0.2747
 1010MOL0     C36226   5.504   9.513   8.995  0.2701  0.1002  0.7062
 1010MOL0     C36227   5.567   9.578   8.874  0.2548  0.3166 -0.3048
 1010MOL0     C36228   5.520   9.717   8.837 -0.6579  0.5060 -0.1139
 1010MOL0     C36229   5.598   9.768   8.718  0.5544 -0.9464  0.1869
 1010MOL0     C36230   5.566   9.696   8.580 -0.4392  0.3120 -0.1351
 1010MOL0     C36231   5.668   9.717   8.468 -1.5866 -0.4547 -0.1526
 1010MOL0     N36232   5.617   9.773   8.342 -0.3287 -0.0166  0.5109
 1010MOL0     C36233   5.591   9.718   8.221 -0.0633 -0.6051  0.1258
 1010MOL0     C36234   5.571   9.827   8.136  0.8278  0.2834 -0.4102
 1010MOL0     C36235   5.552   9.827   7.986 -0.0174 -0.5236  0.8262
 1010MOL0     C36236   5.631   9.932   7.905  1.1658 -0.4378  0.4065
 1010MOL0     C36237   5.740   9.874   7.815 -0.0528 -0.0314  0.1156
 1010MOL0     C36238   5.854   9.809   7.887 -0.4666 -0.3772 -1.1166
 1010MOL0     O36239   5.914   9.899   7.977  0.2833 -0.1635  0.2681
 1010MOL0     C36240   6.047   9.890   7.976  0.4051  0.1981 -0.4163
 1010MOL0     C36241   6.123   9.933   7.867 -0.4686  0.3611 -0.7783
 1010MOL0     C36242   6.264   9.930   7.868 -0.2558 -0.8067  0.1170
 1010MOL0     C36243   6.333   9.979   7.732  0.3706 -0.7765 -0.1630
 1010MOL0     C36244   6.337   9.882   7.980 -0.1820  0.6762 -0.1501
 1010MOL0     C36245   6.484   9.852   7.992 -0.6306  0.1908 -0.2122
 1010MOL0     O36246   6.559   9.862   7.868  0.4077  0.7211  0.9605
 1010MOL0     C36247   6.690   9.837   7.874  0.3000 -0.1954 -0.3052
 1010MOL0     C36248   6.787   9.936   7.858  0.4104 -0.5151 -0.1076
 1010MOL0     C36249   6.916   9.903   7.892  0.2989 -0.4951 -0.4979
 1010MOL0     C36250   6.947   9.775   7.940 -0.3528 -0.1455  0.1488
 1010MOL0     O36251   7.079   9.766   7.978  0.1988  0.0931 -0.1792
 1010MOL0     C36252   7.094   9.709   8.107 -0.6818 -0.7665 -0.3640
 1010MOL0     C36253   7.241   9.743   8.145 -0.1484  0.4154 -1.3683
 1010MOL0     C36254   7.245   9.857   8.255  0.5711 -0.0242  0.6882
 1010MOL0     C36255   7.388   9.912   8.253 -0.0135 -0.2183  0.1708
 1010MOL0     C36256   7.419  10.020   8.358  0.6138 -0.0473  1.2876
 1010MOL0     C36257   7.315  10.133   8.365  0.5739  0.4729  0.3175
 1010MOL0     C36258   7.355  10.260   8.451 -0.7624 -0.0920  0.0562
 1010MOL0     C36259   7.283  10.393   8.405  0.3638 -0.0537  0.2895
 1010MOL0    Cl36260   7.112  10.381   8.437 -0.0808 -0.0349 -0.1447
 1010MOL0     C36261   6.857   9.668   7.955 -1.0647  0.4755  0.6180
 1010MOL0     C36262   6.725   9.705   7.918 -0.0278  0.8809 -0.4089
 1010MOL0     O36263   6.529   9.816   8.101 -0.0271 -0.6480  0.7007
 1010MOL0     C36264   6.258   9.861   8.095 -0.7392  0.3762  0.2988
 1010MOL0     C36265   6.116   9.859   8.095 -0.0446 -0.0130  0.6167
 1010MOL0     N36266   5.581   9.941   8.211 -1.0454  0.2087 -0.0252
 1010MOL0     N36267   5.614   9.908   8.334 -0.8124 -0.0604 -0.7405
 1010MOL0     C36268   5.380   9.420   9.492 -0.7077 -0.9419  0.4109
 1010MOL0     C36269   5.326   9.371   9.608 -0.2403  0.0730  0.4676
 1010MOL0     C36270   4.970   9.124   9.813  0.4023 -0.1651  0.5628
 1010MOL0     C36271   4.822   9.107   9.823  1.2580  0.5537 -0.4887
 1010MOL0     C36272   4.772   8.995   9.886 -0.0890 -0.2570 -0.5621
 1010MOL0     C36273   4.851   8.892   9.942 -0.3637 -0.4087 -1.3522
 1010MOL0     O36274   4.814   8.777  10.001  0.5911 -0.0392  0.2374
 1010MOL0     C36275   4.679   8.733  10.012 -0.9819  0.4138 -1.0876
 1010MOL0     C36276   4.685   8.581  10.046 -0.0631 -0.4454 -0.4576
 1010MOL0     C36277   4.548   8.538  10.114 -0.8457  0.4654  0.2486
 1010MOL0     C36278   4.543   8.385  10.138  0.4180  0.3027 -0.0871
 1010MOL0     C36279   4.622   8.341  10.253 -0.5249  0.0290  0.0488
 1010MOL0     C36280   4.698   8.295  10.335  0.1513 -0.4742  0.2793
 1010MOL0     C36281   4.991   8.911   9.942  0.3303  0.7085  0.5173
 1010MOL0     C36282   5.049   9.020   9.877 -0.2704 -0.3852 -0.1898
 1010MOL0     H36283   5.035   9.270   9.477  0.5479 -1.2492 -2.6849
 1010MOL0     H36284   5.155   9.362   9.266 -0.1886 -0.2518 -0.3461
 1010MOL0     H36285   5.510   9.598   9.325  1.8509 -0.8362  2.3324
 1010MOL0     H36286   5.574   9.437   9.250 -0.7724  0.3536  1.0706
 1010MOL0     H36287   5.440   9.665   9.110 -1.3421 -1.5771 -0.1463
 1010MOL0     H36288   5.625   9.630   9.113  0.8623 -1.8114  1.3987
 1010MOL0     H36289   5.553   9.416   9.008 -0.1392 -0.1341  0.5174
 1010MOL0     H36290   5.396   9.503   8.979  0.3740 -0.4990  0.3629
 1010MOL0     H36291   5.676   9.573   8.875  0.2071 -3.0270  0.9604
 1010MOL0     H36292   5.530   9.509   8.798  0.2428 -1.4315  1.2173
 1010MOL0     H36293   5.411   9.713   8.824 -0.7007 -1.0660  0.4756
 1010MOL0     H36294   5.528   9.786   8.921 -2.7348 -0.5063  1.0168
 1010MOL0     H36295   5.571   9.873   8.710 -1.2182 -1.3664  0.3891
 1010MOL0     H36296   5.706   9.759   8.738  0.7137 -1.9495 -0.9594
 1010MOL0     H36297   5.557   9.590   8.604 -1.7762  0.6281  0.8904
 1010MOL0     H36298   5.471   9.733   8.542  0.9085  2.8747 -1.2321
 1010MOL0     H36299   5.724   9.625   8.447 -1.0637  0.3811 -2.8414
 1010MOL0     H36300   5.741   9.793   8.496 -0.1751 -1.5932 -0.5937
 1010MOL0     H36301   5.618   9.620   8.183  3.3896  1.0818 -2.2694
 1010MOL0     H36302   5.584   9.730   7.948 -0.1148 -1.5288  3.1303
 1010MOL0     H36303   5.442   9.831   7.985 -0.0035  0.0244  1.1808
 1010MOL0     H36304   5.683  10.008   7.963  1.2416 -0.3582  0.2350
 1010MOL0     H36305   5.567   9.990   7.837 -2.4021 -1.5203  2.5760
 1010MOL0     H36306   5.777   9.955   7.752 -0.4761 -0.4248 -0.6598
 1010MOL0     H36307   5.711   9.787   7.754 -0.3802  1.2337 -1.6060
 1010MOL0     H36308   5.909   9.770   7.800 -3.6872  0.3260 -3.6526
 1010MOL0     H36309   5.822   9.725   7.950 -2.8593  1.2005 -0.1082
 1010MOL0     H36310   6.059   9.951   7.781 -1.6801  0.3106  0.0853
 1010MOL0     H36311   6.263  10.037   7.671  1.9244  1.0358 -0.3448
 1010MOL0     H36312   6.421  10.041   7.753  0.8542 -2.0833  1.9344
 1010MOL0     H36313   6.358   9.895   7.668 -1.0660  0.2683 -2.2064
 1010MOL0     H36314   6.771  10.034   7.814  2.2290 -1.0187 -2.0853
 1010MOL0     H36315   6.997   9.973   7.875 -0.9622  0.3516 -3.8631
 1010MOL0     H36316   7.021   9.748   8.178 -0.1487 -2.7012  1.3410
 1010MOL0     H36317   7.088   9.600   8.109 -0.0647 -0.8126  1.6284
 1010MOL0     H36318   7.290   9.653   8.183 -0.4347  1.2001  1.0637
 1010MOL0     H36319   7.307   9.782   8.067  0.4626  3.7122  0.6258
 1010MOL0     H36320   7.216   9.801   8.344  1.2648  1.5811  1.9640
 1010MOL0     H36321   7.175   9.938   8.236 -1.0778 -0.6584  3.5289
 1010MOL0     H36322   7.457   9.828   8.269  1.8526  1.5226  1.7012
 1010MOL0     H36323   7.406   9.949   8.151 -1.8138  0.7276  0.1632
 1010MOL0     H36324   7.521  10.061   8.363  1.0507 -1.1916  2.6352
 1010MOL0     H36325   7.398   9.966   8.451  0.1804  1.2488  1.9730
 1010MOL0     H36326   7.299  10.169   8.263  1.3136 -3.5247 -1.4116
 1010MOL0     H36327   7.226  10.092   8.414  0.5183  1.9225  1.4924
 1010MOL0     H36328   7.463  10.270   8.451 -0.4606 -1.6773  3.5625
 1010MOL0     H36329   7.341  10.224   8.554  3.0441 -3.8653 -0.4736
 1010MOL0     H36330   7.317  10.425   8.306 -0.1258 -0.8819 -0.1571
 1010MOL0     H36331   7.315  10.479   8.465 -0.7445 -0.3803  1.3847
 1010MOL0     H36332   6.870   9.569   7.998 -0.3221  1.4871  2.9043
 1010MOL0     H36333   6.643   9.634   7.923 -0.3511  1.2381 -0.6612
 1010MOL0     H36334   6.317   9.837   8.183 -0.3266  3.1977  0.8778
 1010MOL0     H36335   6.065   9.840   8.189 -3.0063  0.3600 -0.7840
 1010MOL0     H36336   5.479   9.464   9.490 -0.1630 -2.1091 -1.9037
 1010MOL0     H36337   5.381   9.351   9.700  3.6808 -0.4670 -1.7868
 1010MOL0     H36338   4.754   9.179   9.779  2.3815  0.7868 -1.9067
 1010MOL0     H36339   4.664   8.988   9.890 -0.1031  0.1231 -0.2284
 1010MOL0     H36340   4.614   8.785  10.083 -0.3301 -1.8183  1.2869
 1010MOL0     H36341   4.634   8.759   9.915  3.5170  1.3508 -3.1842
 1010MOL0     H36342   4.771   8.560  10.109  2.7740  0.6757 -3.6239
 1010MOL0     H36343   4.713   8.516   9.962 -1.0492 -2.1645  0.4947
 1010MOL0     H36344   4.458   8.562  10.057 -0.1094  1.8225 -0.3853
 1010MOL0     H36345   4.533   8.594  10.207 -1.9091 -1.7084  1.4797
 1010MOL0     H36346   4.571   8.322  10.054 -2.2912 -1.4113  0.1723
 1010MOL0     H36347   4.435   8.367  10.148  0.5339  0.1449  0.9661
 1010MOL0     H36348   4.772   8.255  10.402  0.2866  0.1174  0.4857
 1010MOL0     H36349   5.063   8.836   9.972  0.5154 -0.0721 -1.7673
 1010MOL0     H36350   5.154   9.049   9.871 -0.7129  1.0636 -1.9014
 1011MOL0     O36351  10.957  11.117   4.706 -0.2168 -0.7592 -0.3104
 1011MOL0     C36352  10.956  11.129   4.588  1.4750  0.0764  0.7484
 1011MOL0     O36353  10.856  11.196   4.514 -0.3181  0.0460  0.0226
 1011MOL0     C36354  10.760  11.258   4.593 -0.2695  0.0633  0.6700
 1011MOL0     C36355  10.629  11.214   4.598 -0.5377 -0.4886  0.4414
 1011MOL0     C36356  10.533  11.280   4.678 -0.5732 -0.4052  0.3297
 1011MOL0     C36357  10.561  11.401   4.743  0.6775 -0.8642 -0.4751
 1011MOL0     O36358  10.468  11.484   4.814 -0.4669  0.1932  0.9101
 1011MOL0     C36359  10.329  11.489   4.779 -0.1628  0.4689  0.4057
 1011MOL0     C36360  10.242  11.468   4.891  0.5984 -0.6173 -0.4797
 1011MOL0     C36361  10.095  11.460   4.848  0.1331 -0.3729 -0.1186
 1011MOL0     C36362  10.056  11.356   4.750  0.1581  0.9961  0.0958
 1011MOL0     C36363   9.911  11.299   4.768 -0.1332  0.3705 -0.0046
 1011MOL0     C36364   9.803  11.394   4.738 -0.0080 -0.0067 -1.0353
 1011MOL0     C36365   9.658  11.346   4.718 -0.0823 -0.0416 -0.8328
 1011MOL0     C36366   9.584  11.257   4.817  0.6958  0.5765  0.2196
 1011MOL0     N36367   9.563  11.321   4.945  0.4880  0.5747 -0.4642
 1011MOL0     C36368   9.591  11.264   5.066 -0.5378 -0.1961  1.1500
 1011MOL0     C36369   9.532  11.346   5.164 -0.1233 -0.2508 -0.0926
 1011MOL0     C36370   9.538  11.333   5.317  0.2806  0.2236  0.4081
 1011MOL0     C36371   9.411  11.294   5.389  0.9343  0.3741 -1.0045
 1011MOL0     C36372   9.421  11.160   5.461 -1.1887 -0.1276 -0.1593
 1011MOL0     C36373   9.288  11.093   5.468  0.1566 -1.1903  0.3089
 1011MOL0     O36374   9.181  11.173   5.520 -0.4050  0.0310  0.2378
 1011MOL0     C36375   9.129  11.112   5.637 -0.5803  0.5762 -0.0824
 1011MOL0     C36376   9.206  11.122   5.761  0.4885 -0.5062 -0.4995
 1011MOL0     C36377   9.139  11.071   5.877 -0.1918  0.1020 -0.5552
 1011MOL0     C36378   9.213  11.099   6.000 -0.2753 -0.8278  0.0331
 1011MOL0     C36379   9.017  11.001   5.872  0.9020 -0.1929 -0.8643
 1011MOL0     C36380   8.937  10.957   5.988  0.2822  0.1359 -0.1920
 1011MOL0     O36381   8.993  10.978   6.110  0.0579  0.5527  0.2485
 1011MOL0     C36382   8.948  10.907   6.224 -0.5061 -0.5844  0.3946
 1011MOL0     C36383   8.942  10.982   6.340 -0.1379  0.1848  0.0209
 1011MOL0     C36384   8.905  10.928   6.460 -0.1380 -0.5753  0.4152
 1011MOL0     C36385   8.873  10.790   6.469  0.0147  1.1475  0.3327
 1011MOL0     O36386   8.834  10.730   6.584 -0.1399 -0.1245  0.2126
 1011MOL0     C36387   8.697  10.761   6.613 -0.3680 -0.7488 -0.6605
 1011MOL0     C36388   8.651  10.688   6.739  0.5628  0.0952 -0.2451
 1011MOL0     C36389   8.508  10.718   6.780 -0.6253  0.1205  0.6736
 1011MOL0     C36390   8.515  10.822   6.888 -0.1570  0.0201 -1.0202
 1011MOL0     C36391   8.386  10.834   6.974  0.3121 -0.9474  0.5384
 1011MOL0     C36392   8.258  10.871   6.892 -0.2297  0.3502 -0.2328
 1011MOL0     C36393   8.121  10.861   6.978 -1.1437  0.3651  0.0802
 1011MOL0     C36394   8.005  10.943   6.928 -0.2000 -0.1252  0.1062
 1011MOL0    Cl36395   7.872  10.944   7.045 -0.1394 -0.0853 -0.2863
 1011MOL0     C36396   8.878  10.726   6.355  1.0909 -0.0441 -0.4188
 1011MOL0     C36397   8.918  10.777   6.231  0.1090  0.2597 -0.4642
 1011MOL0     O36398   8.823  10.921   5.959  0.6613  0.7304 -1.2206
 1011MOL0     C36399   8.962  10.977   5.743  0.0096  0.7078  0.2516
 1011MOL0     C36400   9.014  11.043   5.636  0.4687 -0.2174 -0.6673
 1011MOL0     N36401   9.470  11.450   5.094 -0.3746  0.8483 -0.3279
 1011MOL0     N36402   9.489  11.436   4.970  0.0725  0.0070  0.0452
 1011MOL0     C36403  10.692  11.435   4.751 -0.2433 -0.5918 -0.0907
 1011MOL0     C36404  10.794  11.372   4.667 -0.3408  0.3873  0.3085
 1011MOL0     C36405  11.062  11.059   4.524 -0.3814 -0.8496 -0.6095
 1011MOL0     C36406  11.066  11.057   4.373  0.1843  0.0848 -0.2957
 1011MOL0     C36407  11.142  10.968   4.304  0.6363 -0.4801 -0.6104
 1011MOL0     C36408  11.236  10.887   4.369  1.1111 -0.5311  0.3558
 1011MOL0     O36409  11.282  10.786   4.285  0.0022 -0.1936  0.2674
 1011MOL0     C36410  11.385  10.689   4.329  0.2031 -0.3663  0.7703
 1011MOL0     C36411  11.416  10.591   4.209  0.1983 -0.6235  0.0206
 1011MOL0     C36412  11.468  10.663   4.081 -0.1649 -0.2651  0.7538
 1011MOL0     C36413  11.619  10.699   4.088 -0.2259 -0.2355 -1.2799
 1011MOL0     C36414  11.646  10.725   3.953  0.0923  0.4075  0.6618
 1011MOL0     C36415  11.670  10.757   3.839 -0.2991  0.4587 -0.7086
 1011MOL0     C36416  11.244  10.893   4.508 -0.1939 -0.8392 -0.2586
 1011MOL0     C36417  11.152  10.965   4.582 -0.3609 -0.0813  0.0943
 1011MOL0     H36418  10.599  11.122   4.549  0.5119 -2.1714  2.7284
 1011MOL0     H36419  10.434  11.240   4.698  0.3806 -2.7508  0.6763
 1011MOL0     H36420  10.311  11.592   4.749  0.1330  0.9530  1.8377
 1011MOL0     H36421  10.309  11.440   4.683  0.8812  1.2677 -0.2434
 1011MOL0     H36422  10.268  11.378   4.948  0.2160 -0.5618 -0.2180
 1011MOL0     H36423  10.248  11.564   4.942  1.2998 -0.1919 -1.3291
 1011MOL0     H36424  10.042  11.451   4.943 -0.8032  4.8418  0.1170
 1011MOL0     H36425  10.050  11.554   4.814  1.5370  0.1977 -0.4901
 1011MOL0     H36426  10.080  11.400   4.653  1.1028  1.1811  0.4093
 1011MOL0     H36427  10.122  11.270   4.764 -1.2345 -0.6594 -2.6780
 1011MOL0     H36428   9.889  11.223   4.693 -0.2274 -0.3933  0.7818
 1011MOL0     H36429   9.894  11.250   4.864 -1.2133  1.3527  0.3396
 1011MOL0     H36430   9.802  11.468   4.818  2.0684  0.2356 -1.1747
 1011MOL0     H36431   9.820  11.447   4.643 -2.4697  1.0071 -0.9825
 1011MOL0     H36432   9.596  11.435   4.714 -1.9196 -1.0838  1.5511
 1011MOL0     H36433   9.652  11.283   4.629  4.7113 -1.2252 -0.6530
 1011MOL0     H36434   9.626  11.158   4.836  2.0850  0.8331 -1.3075
 1011MOL0     H36435   9.485  11.235   4.774 -0.1527  1.9405  1.4119
 1011MOL0     H36436   9.661  11.182   5.077  1.7486  1.5466  0.3663
 1011MOL0     H36437   9.616  11.262   5.346 -1.4881 -2.6673 -1.3736
 1011MOL0     H36438   9.561  11.429   5.364 -1.9447  1.0349 -0.0596
 1011MOL0     H36439   9.326  11.286   5.321  1.2714 -3.3179 -1.2061
 1011MOL0     H36440   9.380  11.375   5.456  3.8123 -0.5146  1.6216
 1011MOL0     H36441   9.475  11.177   5.554  0.1572 -1.3444 -0.6928
 1011MOL0     H36442   9.483  11.093   5.402  0.7164  0.9744  0.5157
 1011MOL0     H36443   9.301  10.994   5.511  3.8712 -0.9009  0.2000
 1011MOL0     H36444   9.256  11.062   5.368 -0.1851 -1.4134  0.4866
 1011MOL0     H36445   9.298  11.178   5.772 -0.7387  1.6431 -0.6792
 1011MOL0     H36446   9.152  11.140   6.082 -0.8657  0.8718 -1.1903
 1011MOL0     H36447   9.244  10.999   6.032  0.2912 -0.1336  1.8115
 1011MOL0     H36448   9.298  11.167   5.993 -0.8797  0.3112  2.4758
 1011MOL0     H36449   8.966  11.088   6.343  1.6390  0.0405 -3.7451
 1011MOL0     H36450   8.892  10.983   6.553 -0.8303  0.9567 -0.5440
 1011MOL0     H36451   8.711  10.867   6.636 -0.0585 -0.9056 -0.1004
 1011MOL0     H36452   8.624  10.756   6.532 -0.2958 -0.3435 -0.7570
 1011MOL0     H36453   8.658  10.580   6.720 -1.5358 -0.3253  1.1133
 1011MOL0     H36454   8.716  10.715   6.822 -0.6714 -0.0397  0.7860
 1011MOL0     H36455   8.477  10.622   6.823  1.9437 -1.9020 -1.5923
 1011MOL0     H36456   8.438  10.743   6.701 -0.0491  2.7519  0.9065
 1011MOL0     H36457   8.603  10.820   6.954  1.8806  1.2831 -3.5362
 1011MOL0     H36458   8.529  10.921   6.843  1.7461  1.4937  2.4103
 1011MOL0     H36459   8.402  10.909   7.052  2.4743  0.4859 -1.1575
 1011MOL0     H36460   8.377  10.737   7.023  2.6275 -0.2124  2.6364
 1011MOL0     H36461   8.268  10.976   6.862  1.6181  0.6263  1.2119
 1011MOL0     H36462   8.252  10.815   6.797  1.3436 -2.0802  1.0125
 1011MOL0     H36463   8.146  10.890   7.080 -0.9368 -1.3619  0.5539
 1011MOL0     H36464   8.095  10.755   6.969  1.0931 -0.0516 -2.9152
 1011MOL0     H36465   7.966  10.903   6.834  1.6279 -0.0770 -0.7152
 1011MOL0     H36466   8.037  11.047   6.920  0.5481 -0.3337  0.3428
 1011MOL0     H36467   8.856  10.620   6.350  0.8928 -0.0557  0.5486
 1011MOL0     H36468   8.912  10.720   6.139 -1.2680  1.0273 -0.8754
 1011MOL0     H36469   8.866  10.926   5.738  0.1135  0.4760  0.6013
 1011MOL0     H36470   8.964  11.042   5.539  2.0703  0.5509 -1.5497
 1011MOL0     H36471  10.730  11.513   4.816  2.0140  0.2953 -2.3000
 1011MOL0     H36472  10.895  11.411   4.659 -1.6640  3.9105 -1.1470
 1011MOL0     H36473  11.001  11.129   4.323 -0.8352 -1.6818 -1.6528
 1011MOL0     H36474  11.132  10.959   4.197  0.0069  0.4410 -0.6402
 1011MOL0     H36475  11.477  10.741   4.354 -0.8999  2.1136  0.0068
 1011MOL0     H36476  11.338  10.642   4.416  1.8521 -1.4110  1.1321
 1011MOL0     H36477  11.320  10.547   4.181  0.2416 -1.2835  0.8646
 1011MOL0     H36478  11.471  10.499   4.233 -0.8592 -1.5814 -1.0507
 1011MOL0     H36479  11.406  10.747   4.050 -0.0406 -1.2868 -2.6188
 1011MOL0     H36480  11.466  10.588   4.002  2.7050 -2.0969  2.2226
 1011MOL0     H36481  11.682  10.615   4.117  1.9697  1.0459 -2.0271
 1011MOL0     H36482  11.627  10.782   4.159  0.2036 -0.4722 -1.0481
 1011MOL0     H36483  11.705  10.792   3.744  2.2114 -1.2571 -0.5124
 1011MOL0     H36484  11.312  10.847   4.579 -0.5566  0.3937  0.9247
 1011MOL0     H36485  11.164  10.949   4.689  0.0660  0.2411  0.0913
 1012MOL0     O36486   6.546   5.694   8.852  0.1416 -0.0826  0.1218
 1012MOL0     C36487   6.533   5.815   8.898  0.0332  0.8581  1.0125
 1012MOL0     O36488   6.522   5.857   9.035  0.1557 -0.8852 -0.2902
 1012MOL0     C36489   6.478   5.756   9.115  0.0936 -0.7783 -0.4738
 1012MOL0     C36490   6.344   5.752   9.159 -0.0935 -0.5077  0.7198
 1012MOL0     C36491   6.309   5.651   9.243 -0.3598 -0.0496  0.4422
 1012MOL0     C36492   6.402   5.556   9.296  0.4576 -0.7204  0.7608
 1012MOL0     O36493   6.352   5.457   9.377  0.2201  0.0313  0.6576
 1012MOL0     C36494   6.438   5.343   9.385 -0.7348 -0.6372  0.1767
 1012MOL0     C36495   6.535   5.361   9.508  0.0277 -0.2329  0.7831
 1012MOL0     C36496   6.558   5.232   9.583 -0.4224 -0.5858 -0.7362
 1012MOL0     C36497   6.616   5.124   9.503  0.3409 -0.1567 -0.0479
 1012MOL0     C36498   6.676   5.025   9.595 -0.5184 -0.1221  0.0059
 1012MOL0     C36499   6.753   4.920   9.508 -0.1755  1.0642  0.3828
 1012MOL0     C36500   6.668   4.798   9.462 -0.0255  0.0260  0.3672
 1012MOL0     C36501   6.525   4.814   9.435 -0.2785 -0.4616  0.0742
 1012MOL0     N36502   6.462   4.689   9.396 -0.0243  0.1295  0.4546
 1012MOL0     C36503   6.430   4.579   9.477 -0.2950 -0.3522 -0.1362
 1012MOL0     C36504   6.359   4.493   9.389 -0.8537 -0.0596 -0.3016
 1012MOL0     C36505   6.304   4.361   9.427  0.4245  0.6840 -0.5272
 1012MOL0     C36506   6.215   4.375   9.551  0.9292 -0.1901  0.5757
 1012MOL0     C36507   6.062   4.414   9.522 -0.9404 -0.5110  0.0416
 1012MOL0     C36508   5.976   4.383   9.638  0.6753 -0.6493 -0.5475
 1012MOL0     O36509   6.006   4.452   9.757  0.5513 -0.4988 -0.0846
 1012MOL0     C36510   5.908   4.466   9.844  1.0507 -0.2924 -0.4768
 1012MOL0     C36511   5.816   4.575   9.850  0.2714  0.2442  0.0373
 1012MOL0     C36512   5.720   4.583   9.950 -0.3775 -0.3319  0.0608
 1012MOL0     C36513   5.644   4.713   9.959 -1.0407  0.1733 -0.2929
 1012MOL0     C36514   5.713   4.492  10.061 -0.5635 -0.8262 -0.5306
 1012MOL0     C36515   5.629   4.493  10.187 -0.6359  0.2102  0.1088
 1012MOL0     O36516   5.611   4.374  10.249 -0.2264  1.1538 -0.8211
 1012MOL0     C36517   5.575   4.357  10.379  0.3561 -0.1798 -0.4760
 1012MOL0     C36518   5.597   4.445  10.479 -0.7199 -0.7171 -0.9834
 1012MOL0     C36519   5.593   4.414  10.617 -0.2983  0.4007  0.2784
 1012MOL0     C36520   5.569   4.280  10.652  0.8686  0.0831  0.5489
 1012MOL0     O36521   5.570   4.245  10.782 -0.2274 -0.0085  0.7650
 1012MOL0     C36522   5.449   4.209  10.836  0.2850  0.0392 -0.0327
 1012MOL0     C36523   5.476   4.129  10.969 -0.0358  0.1778 -0.1839
 1012MOL0     C36524   5.526   3.980  10.941  0.4593  0.0144 -0.7615
 1012MOL0     C36525   5.501   3.901  11.073  0.2274  0.3768 -0.5477
 1012MOL0     C36526   5.587   3.777  11.065  0.2158 -0.4854 -0.7280
 1012MOL0     C36527   5.575   3.709  11.195  0.0091  0.0318 -0.8009
 1012MOL0     C36528   5.628   3.560  11.190  0.3188 -0.3203 -0.9372
 1012MOL0     C36529   5.531   3.470  11.111 -0.4500 -0.4589  0.5177
 1012MOL0    Cl36530   5.364   3.483  11.184  0.1896  0.1940  0.1746
 1012MOL0     C36531   5.542   4.188  10.554  0.2773  0.2502 -0.1170
 1012MOL0     C36532   5.540   4.226  10.415 -1.4482  0.2750 -0.3091
 1012MOL0     O36533   5.588   4.600  10.227 -0.5109 -0.2501 -0.1190
 1012MOL0     C36534   5.826   4.397  10.058 -0.3288  0.3747 -0.9239
 1012MOL0     C36535   5.912   4.388   9.952  0.2091  0.9223 -0.1577
 1012MOL0     N36536   6.361   4.544   9.260 -1.2723  0.4995 -0.5078
 1012MOL0     N36537   6.426   4.654   9.272 -0.2280 -0.6333  0.5878
 1012MOL0     C36538   6.533   5.569   9.248  0.3033 -0.3331  0.1560
 1012MOL0     C36539   6.567   5.659   9.158  0.3478 -0.2133  0.1746
 1012MOL0     C36540   6.521   5.917   8.806 -0.6565  0.0212 -0.1230
 1012MOL0     C36541   6.517   6.046   8.855 -0.7195 -0.3016  0.0955
 1012MOL0     C36542   6.503   6.154   8.760  0.7925 -0.2435  0.1802
 1012MOL0     C36543   6.511   6.129   8.623 -0.3997 -0.0545 -0.2840
 1012MOL0     O36544   6.497   6.230   8.533  0.6643 -0.7763  0.0639
 1012MOL0     C36545   6.513   6.369   8.576  0.0139  0.5797  0.3119
 1012MOL0     C36546   6.382   6.432   8.611  1.2480 -0.5330 -1.0265
 1012MOL0     C36547   6.262   6.393   8.530  0.7677  0.5225  0.0169
 1012MOL0     C36548   6.140   6.496   8.555  0.4245  0.1797 -0.1601
 1012MOL0     C36549   6.036   6.488   8.451 -0.0817 -0.8671 -0.3335
 1012MOL0     C36550   5.960   6.452   8.357  0.6906  0.4400  0.3928
 1012MOL0     C36551   6.516   5.990   8.580  0.6469  1.1477 -0.0145
 1012MOL0     C36552   6.519   5.883   8.672 -0.2265  0.8096  0.0466
 1012MOL0     H36553   6.275   5.822   9.113  2.4424  0.6353 -1.6194
 1012MOL0     H36554   6.205   5.634   9.266 -0.3183  1.0782  1.5476
 1012MOL0     H36555   6.367   5.262   9.406 -0.5446 -1.1158 -0.9359
 1012MOL0     H36556   6.486   5.316   9.291  0.3318 -2.6407  1.2172
 1012MOL0     H36557   6.627   5.416   9.483 -0.1891  1.0432  2.5370
 1012MOL0     H36558   6.472   5.431   9.564 -1.2847  0.1123 -1.0201
 1012MOL0     H36559   6.622   5.271   9.662 -2.3239  0.4790  0.3452
 1012MOL0     H36560   6.465   5.206   9.635  1.2893  0.2264  3.0582
 1012MOL0     H36561   6.532   5.085   9.444 -2.5533  1.1367  2.8593
 1012MOL0     H36562   6.695   5.157   9.435 -0.9923 -0.3082 -1.7461
 1012MOL0     H36563   6.747   5.068   9.666  0.2470 -0.1013 -0.7456
 1012MOL0     H36564   6.596   4.983   9.656 -1.2227  4.5432  2.7455
 1012MOL0     H36565   6.797   4.975   9.425 -1.0220  0.2777 -0.6108
 1012MOL0     H36566   6.840   4.889   9.566  1.1081  0.8687 -1.5793
 1012MOL0     H36567   6.720   4.769   9.370  0.0407 -2.9465  1.2109
 1012MOL0     H36568   6.675   4.711   9.529 -0.5179 -1.7539 -1.7627
 1012MOL0     H36569   6.506   4.886   9.355  2.4696 -1.3126 -1.4736
 1012MOL0     H36570   6.477   4.839   9.530 -0.0287 -2.4125  0.7568
 1012MOL0     H36571   6.432   4.575   9.585 -3.6733  2.9612  0.2405
 1012MOL0     H36572   6.261   4.307   9.342  0.2986 -1.2810  0.7122
 1012MOL0     H36573   6.392   4.302   9.453 -1.4130 -2.1863 -0.2483
 1012MOL0     H36574   6.251   4.446   9.626  2.3368 -2.0640  1.7763
 1012MOL0     H36575   6.214   4.278   9.602 -2.5620  0.6400  2.3615
 1012MOL0     H36576   6.030   4.359   9.433 -1.4994  1.4011 -0.9995
 1012MOL0     H36577   6.059   4.519   9.492  3.7195  0.4481  2.1000
 1012MOL0     H36578   5.975   4.278   9.669 -1.6938 -0.1587  1.2739
 1012MOL0     H36579   5.874   4.403   9.605  0.8855 -0.7544 -1.2772
 1012MOL0     H36580   5.820   4.646   9.768  0.1924 -2.4892 -2.4983
 1012MOL0     H36581   5.659   4.779   9.873  2.0820 -0.2996 -0.2120
 1012MOL0     H36582   5.536   4.714   9.976 -1.0985  1.2593 -0.6694
 1012MOL0     H36583   5.686   4.771  10.041 -0.5865 -3.7804  2.5724
 1012MOL0     H36584   5.632   4.545  10.458  0.2744  0.4324  4.5625
 1012MOL0     H36585   5.628   4.474  10.700  2.2416 -1.9474  1.0511
 1012MOL0     H36586   5.388   4.297  10.858 -0.6514 -0.6864  0.3719
 1012MOL0     H36587   5.379   4.162  10.766 -1.2231 -1.9556  2.6289
 1012MOL0     H36588   5.545   4.187  11.031 -4.0648  2.4470  2.6071
 1012MOL0     H36589   5.387   4.132  11.031  0.6814 -2.6928  1.1478
 1012MOL0     H36590   5.630   3.985  10.907 -0.1779  2.8519 -2.6997
 1012MOL0     H36591   5.472   3.945  10.853 -0.8935  0.0131  0.0437
 1012MOL0     H36592   5.526   3.967  11.156 -0.6806  1.2189 -0.9295
 1012MOL0     H36593   5.395   3.874  11.070  0.9951 -3.0485 -2.7979
 1012MOL0     H36594   5.693   3.803  11.069 -0.2993  1.9900 -1.4903
 1012MOL0     H36595   5.559   3.721  10.975  1.3309 -1.6492 -0.3851
 1012MOL0     H36596   5.624   3.776  11.267 -3.8112  1.4969  0.7117
 1012MOL0     H36597   5.472   3.720  11.229 -0.1639 -0.1462 -1.2529
 1012MOL0     H36598   5.642   3.525  11.293  1.4193 -2.7644 -1.8566
 1012MOL0     H36599   5.726   3.550  11.143 -0.3154 -3.7528 -1.7726
 1012MOL0     H36600   5.563   3.366  11.118  1.7676 -0.1183 -2.5690
 1012MOL0     H36601   5.529   3.507  11.008 -1.2113  0.3936  0.8220
 1012MOL0     H36602   5.518   4.083  10.565 -0.3853 -0.0426 -3.2276
 1012MOL0     H36603   5.527   4.137  10.353  1.2203 -3.2278  3.5663
 1012MOL0     H36604   5.834   4.331  10.144  0.3480 -0.3733 -1.5417
 1012MOL0     H36605   5.985   4.308   9.954 -1.3826 -0.5862  1.3390
 1012MOL0     H36606   6.601   5.487   9.269 -0.6306 -0.8982  1.0432
 1012MOL0     H36607   6.662   5.632   9.114  0.2099 -1.2891  0.5180
 1012MOL0     H36608   6.500   6.073   8.958 -2.8884  1.5010 -0.6534
 1012MOL0     H36609   6.495   6.252   8.806  1.0770 -0.2570  0.2644
 1012MOL0     H36610   6.582   6.361   8.660  1.1283 -2.2747 -0.7421
 1012MOL0     H36611   6.569   6.420   8.497  0.1819  0.1893  0.1756
 1012MOL0     H36612   6.392   6.540   8.627 -0.1933 -0.7220  1.5977
 1012MOL0     H36613   6.357   6.390   8.708  2.8082 -0.7778 -0.7064
 1012MOL0     H36614   6.225   6.295   8.561 -0.0907  0.3011 -1.5813
 1012MOL0     H36615   6.288   6.398   8.424  3.8427  1.0411  0.7011
 1012MOL0     H36616   6.175   6.598   8.532 -0.0423  0.1118 -1.2213
 1012MOL0     H36617   6.107   6.491   8.659  3.4772  0.0443  0.9006
 1012MOL0     H36618   5.896   6.425   8.275  2.5480  3.0235 -2.1402
 1012MOL0     H36619   6.524   5.970   8.473  0.3270  1.3619 -0.0816
 1012MOL0     H36620   6.515   5.780   8.640 -1.3205  1.1831 -1.1102
 1013MOL0     O36621   8.513   7.132   4.024 -0.0138 -0.1802 -0.1427
 1013MOL0     C36622   8.459   7.022   4.024  0.4162 -1.2351  0.5630
 1013MOL0     O36623   8.531   6.905   4.006 -0.0415 -0.4456 -0.6062
 1013MOL0     C36624   8.615   6.898   3.892  0.1984 -1.3583 -0.3845
 1013MOL0     C36625   8.620   6.993   3.789 -0.4445 -0.1367  0.4396
 1013MOL0     C36626   8.722   6.979   3.691 -0.8424 -0.1648 -0.1606
 1013MOL0     C36627   8.815   6.879   3.698  0.4188  0.4115  0.1703
 1013MOL0     O36628   8.928   6.859   3.617  0.3180  0.1781  0.1816
 1013MOL0     C36629   8.919   6.900   3.480  0.1523 -0.9282  0.2489
 1013MOL0     C36630   9.047   6.868   3.415  0.5672  0.3024  0.1581
 1013MOL0     C36631   9.041   6.917   3.275 -1.1416 -0.5583  0.1371
 1013MOL0     C36632   9.171   6.903   3.199 -0.1382  0.0858  0.1536
 1013MOL0     C36633   9.151   6.974   3.065 -0.5297 -0.6023  0.0535
 1013MOL0     C36634   9.278   6.975   2.978 -0.2303 -0.4703 -0.5781
 1013MOL0     C36635   9.297   7.097   2.889  0.8664 -0.3407 -0.5996
 1013MOL0     C36636   9.213   7.088   2.761 -0.7309  0.3720 -0.9924
 1013MOL0     N36637   9.255   6.975   2.673 -0.0688  0.1577  0.1597
 1013MOL0     C36638   9.373   6.964   2.597  0.5215  0.8024 -0.0508
 1013MOL0     C36639   9.360   6.844   2.535 -0.9327 -0.6734  0.1217
 1013MOL0     C36640   9.451   6.791   2.431 -1.0785  0.6201 -0.6568
 1013MOL0     C36641   9.564   6.723   2.514  0.2948 -0.2930 -0.1169
 1013MOL0     C36642   9.663   6.662   2.405  0.3512  0.4228  0.2049
 1013MOL0     C36643   9.792   6.586   2.475 -0.1819  0.7084 -0.4267
 1013MOL0     O36644   9.753   6.483   2.564  0.3891  0.5376 -0.5222
 1013MOL0     C36645   9.703   6.371   2.507 -0.4560  0.4656 -0.1456
 1013MOL0     C36646   9.759   6.308   2.392  0.1472 -0.2930 -0.6917
 1013MOL0     C36647   9.709   6.180   2.345 -0.2920  0.7376 -0.4541
 1013MOL0     C36648   9.784   6.100   2.238 -0.2906 -0.4829  0.4614
 1013MOL0     C36649   9.606   6.118   2.410 -1.0946 -0.2755 -0.2183
 1013MOL0     C36650   9.547   5.988   2.384 -0.3325 -0.0119 -0.7331
 1013MOL0     O36651   9.513   5.920   2.499 -0.3907  0.2210  0.3728
 1013MOL0     C36652   9.435   5.812   2.476 -0.0240  0.0391  0.4378
 1013MOL0     C36653   9.486   5.687   2.451 -0.6302 -0.0345 -0.2160
 1013MOL0     C36654   9.398   5.580   2.415  0.3620  0.0422 -0.5273
 1013MOL0     C36655   9.261   5.607   2.414  0.5321  0.5355 -0.1347
 1013MOL0     O36656   9.186   5.496   2.388 -0.4573 -0.0393 -0.4821
 1013MOL0     C36657   9.043   5.501   2.396 -0.0474  0.3746  0.0415
 1013MOL0     C36658   9.009   5.355   2.336  0.1060  0.0217  0.1474
 1013MOL0     C36659   8.889   5.293   2.399 -0.2887 -0.6774 -0.4577
 1013MOL0     C36660   8.760   5.369   2.357  1.4211 -0.7593 -0.2286
 1013MOL0     C36661   8.633   5.302   2.420  0.4700  0.1586 -0.1345
 1013MOL0     C36662   8.602   5.146   2.382 -0.9355 -0.7379 -0.3770
 1013MOL0     C36663   8.455   5.130   2.339  0.2063 -0.5090 -0.4113
 1013MOL0     C36664   8.442   5.174   2.187 -0.3637 -0.3833 -0.0763
 1013MOL0    Cl36665   8.267   5.157   2.131  0.2436  0.0842 -0.0582
 1013MOL0     C36666   9.213   5.731   2.429  0.1469  0.2971  0.1526
 1013MOL0     C36667   9.298   5.839   2.464 -0.5058 -0.0915  0.6942
 1013MOL0     O36668   9.509   5.969   2.268 -0.5499 -0.7207 -0.5665
 1013MOL0     C36669   9.545   6.185   2.519  0.6038 -0.6169 -0.4780
 1013MOL0     C36670   9.605   6.297   2.571  0.5205 -0.2932  1.0686
 1013MOL0     N36671   9.240   6.778   2.579  0.0739 -1.0652 -0.6222
 1013MOL0     N36672   9.184   6.858   2.666  0.1553  0.1743 -0.4780
 1013MOL0     C36673   8.793   6.781   3.790 -0.3492  0.0652  0.3581
 1013MOL0     C36674   8.704   6.781   3.885  0.1579 -0.1494 -0.9024
 1013MOL0     C36675   8.321   7.016   4.059  0.1374  0.0951  0.1903
 1013MOL0     C36676   8.247   7.135   4.088 -0.2868 -0.2918 -1.0496
 1013MOL0     C36677   8.119   7.130   4.142  0.2482  1.3729 -0.8927
 1013MOL0     C36678   8.055   7.004   4.143 -0.7278 -0.4269 -0.3719
 1013MOL0     O36679   7.923   7.000   4.194 -1.2342  0.3418  0.5819
 1013MOL0     C36680   7.834   6.891   4.186  0.7550  0.4638  0.7713
 1013MOL0     C36681   7.780   6.876   4.040 -0.2127 -0.0864  0.7435
 1013MOL0     C36682   7.698   7.003   4.008  0.5823  0.0104  0.1027
 1013MOL0     C36683   7.553   6.985   4.064  0.5270 -1.0942  0.1985
 1013MOL0     C36684   7.481   7.111   4.045  0.4489  0.2284  0.2468
 1013MOL0     C36685   7.419   7.215   4.015 -0.9318 -0.5025  1.0399
 1013MOL0     C36686   8.120   6.886   4.102 -0.4553  0.0052 -0.4316
 1013MOL0     C36687   8.253   6.891   4.062  0.1787 -0.3839  1.1078
 1013MOL0     H36688   8.550   7.075   3.776  0.3603  0.8262  1.9148
 1013MOL0     H36689   8.729   7.059   3.618  2.1451  0.0318  0.2211
 1013MOL0     H36690   8.835   6.849   3.433 -0.3382 -0.2542  0.3946
 1013MOL0     H36691   8.902   7.007   3.494  2.5972 -0.7941  3.4608
 1013MOL0     H36692   9.136   6.916   3.456 -0.5488  1.7156  1.0679
 1013MOL0     H36693   9.046   6.759   3.419 -2.4053  0.2359 -0.1483
 1013MOL0     H36694   8.967   6.852   3.227 -2.0238 -0.1499  0.8898
 1013MOL0     H36695   9.006   7.021   3.278 -3.6374 -1.3423  1.7790
 1013MOL0     H36696   9.238   6.958   3.264 -3.7989  2.9597  1.8785
 1013MOL0     H36697   9.198   6.797   3.190 -2.5945 -0.4900 -1.7993
 1013MOL0     H36698   9.066   6.931   3.012  1.3083 -1.6510 -2.2247
 1013MOL0     H36699   9.139   7.076   3.102  1.4445 -1.1184  2.3584
 1013MOL0     H36700   9.366   6.969   3.043 -0.4252 -0.3540 -0.3008
 1013MOL0     H36701   9.288   6.880   2.926 -1.1754 -1.1521  0.4352
 1013MOL0     H36702   9.252   7.183   2.939 -1.6271 -1.9312  0.0778
 1013MOL0     H36703   9.401   7.111   2.856  0.0708 -0.4868 -3.4052
 1013MOL0     H36704   9.221   7.176   2.696 -0.8689 -1.9749 -4.4627
 1013MOL0     H36705   9.110   7.065   2.789 -1.3745  2.6354 -1.2844
 1013MOL0     H36706   9.438   7.050   2.584  1.0343  0.0355 -3.4150
 1013MOL0     H36707   9.413   6.715   2.362 -2.8859  1.6333 -0.8367
 1013MOL0     H36708   9.480   6.877   2.371  0.1802  0.8976  0.3089
 1013MOL0     H36709   9.521   6.640   2.570  0.9865 -0.2912  0.4295
 1013MOL0     H36710   9.617   6.779   2.591 -1.8894 -1.9205  2.7670
 1013MOL0     H36711   9.688   6.742   2.334 -1.3110 -1.7233 -3.0418
 1013MOL0     H36712   9.623   6.583   2.340 -0.0285  0.8332 -0.0727
 1013MOL0     H36713   9.836   6.667   2.534  0.5992 -0.5984  0.8251
 1013MOL0     H36714   9.863   6.546   2.402 -1.1847  1.3945 -1.8413
 1013MOL0     H36715   9.840   6.346   2.331  0.3817 -2.2836 -1.6907
 1013MOL0     H36716   9.838   6.017   2.286  2.8213  1.9278  1.4844
 1013MOL0     H36717   9.718   6.065   2.159 -3.2591  1.8791  1.7009
 1013MOL0     H36718   9.859   6.156   2.182  0.1458 -2.7091 -1.3499
 1013MOL0     H36719   9.589   5.662   2.476 -1.5404 -0.7873  3.2734
 1013MOL0     H36720   9.441   5.483   2.392  3.8824  0.6126  2.6907
 1013MOL0     H36721   9.021   5.510   2.502  1.3344  3.7172  0.1420
 1013MOL0     H36722   9.006   5.581   2.331  1.7485 -1.6057 -3.8016
 1013MOL0     H36723   8.991   5.356   2.228  1.0924 -4.3407 -0.2253
 1013MOL0     H36724   9.092   5.286   2.353  0.0283 -1.2410 -3.6263
 1013MOL0     H36725   8.917   5.309   2.503  1.6238 -2.4615 -0.6380
 1013MOL0     H36726   8.885   5.185   2.381  2.6060 -0.4208 -3.6374
 1013MOL0     H36727   8.766   5.470   2.398  2.3343 -0.2495 -1.5711
 1013MOL0     H36728   8.750   5.390   2.250 -1.1436  3.8171  0.6323
 1013MOL0     H36729   8.555   5.377   2.408  1.6315  2.3245  4.0300
 1013MOL0     H36730   8.657   5.294   2.526  1.8419 -1.5289 -0.5328
 1013MOL0     H36731   8.661   5.108   2.299 -0.5793 -3.1895  0.8921
 1013MOL0     H36732   8.616   5.082   2.470 -0.7234  1.6859  1.4724
 1013MOL0     H36733   8.395   5.197   2.401  0.3357  0.3080 -1.1618
 1013MOL0     H36734   8.424   5.026   2.356 -3.4380 -0.1030 -3.2052
 1013MOL0     H36735   8.512   5.113   2.129 -2.4391 -2.5641 -0.4483
 1013MOL0     H36736   8.470   5.279   2.190  0.6578 -0.6587  1.6361
 1013MOL0     H36737   9.106   5.753   2.427 -0.6321 -2.9826 -0.2441
 1013MOL0     H36738   9.265   5.936   2.500  2.1773  0.5208  1.6982
 1013MOL0     H36739   9.467   6.145   2.582  0.7639 -0.4599 -0.1787
 1013MOL0     H36740   9.569   6.340   2.664  0.5737 -0.3272  1.1050
 1013MOL0     H36741   8.864   6.701   3.807 -1.0306 -0.2990  1.6511
 1013MOL0     H36742   8.693   6.707   3.963 -2.1610  2.5638  1.5493
 1013MOL0     H36743   8.299   7.228   4.070  0.0980 -0.0063  1.2438
 1013MOL0     H36744   8.065   7.215   4.181  0.4779  1.4372 -0.7136
 1013MOL0     H36745   7.874   6.791   4.205 -1.5009 -0.1037  3.0910
 1013MOL0     H36746   7.749   6.896   4.255 -0.0301  0.9394 -0.1992
 1013MOL0     H36747   7.722   6.786   4.018  1.3507 -0.3908 -2.7782
 1013MOL0     H36748   7.854   6.877   3.959 -1.9781  0.2096 -0.9517
 1013MOL0     H36749   7.680   7.024   3.902 -0.1216 -2.0493 -0.2182
 1013MOL0     H36750   7.737   7.091   4.061 -1.4477  1.6751 -0.9788
 1013MOL0     H36751   7.547   6.965   4.171 -2.2602 -0.2549  0.2612
 1013MOL0     H36752   7.493   6.909   4.013 -0.9835  1.5162 -2.1984
 1013MOL0     H36753   7.373   7.311   4.000  0.6925  0.0915 -0.6380
 1013MOL0     H36754   8.062   6.794   4.101 -1.3603  0.5686 -1.4271
 1013MOL0     H36755   8.302   6.805   4.017  0.5608 -1.4465  3.4108
 1014MOL0     O36756   9.121   4.387  10.952 -0.1805 -0.2302 -0.5980
 1014MOL0     C36757   9.069   4.406  11.065 -0.1754  0.5649 -0.2882
 1014MOL0     O36758   8.937   4.399  11.089 -0.2874 -0.0922  0.3243
 1014MOL0     C36759   8.855   4.416  10.980 -0.9009  0.7715 -0.4392
 1014MOL0     C36760   8.796   4.536  10.941 -0.1728 -0.1511 -0.2731
 1014MOL0     C36761   8.707   4.550  10.833 -0.6699 -0.4268 -0.0949
 1014MOL0     C36762   8.684   4.434  10.757  0.0261  0.2542  1.4007
 1014MOL0     O36763   8.611   4.459  10.639 -0.4967  0.0319 -0.3403
 1014MOL0     C36764   8.623   4.389  10.518  0.3618 -0.4688 -0.2337
 1014MOL0     C36765   8.538   4.454  10.414 -0.4801  0.4412 -0.1484
 1014MOL0     C36766   8.554   4.411  10.263  0.2596  0.1020 -0.8674
 1014MOL0     C36767   8.416   4.421  10.186  0.1617 -0.7274  0.7312
 1014MOL0     C36768   8.354   4.284  10.205  0.7802 -0.3630  0.5165
 1014MOL0     C36769   8.217   4.252  10.132 -0.9042  0.6980 -0.3347
 1014MOL0     C36770   8.218   4.246   9.975 -0.3118 -0.2661 -0.0663
 1014MOL0     C36771   8.305   4.135   9.914 -0.3749  0.1800 -0.5417
 1014MOL0     N36772   8.243   4.007   9.943 -0.0601 -0.1835  0.3447
 1014MOL0     C36773   8.109   3.962   9.941  0.0953 -0.8026  0.1350
 1014MOL0     C36774   8.104   3.830   9.948  0.1261 -0.3381 -0.4129
 1014MOL0     C36775   7.980   3.746   9.958  0.5267 -0.2497  0.8486
 1014MOL0     C36776   8.026   3.596   9.941  0.4705 -0.2574  0.3330
 1014MOL0     C36777   8.013   3.569   9.788  0.3781  0.5464  0.2655
 1014MOL0     C36778   8.071   3.428   9.754 -1.0227  0.2840  0.5347
 1014MOL0     O36779   8.138   3.419   9.627 -0.3413 -0.5782 -0.0745
 1014MOL0     C36780   8.267   3.466   9.609  0.2058  0.0448 -0.8069
 1014MOL0     C36781   8.334   3.538   9.714  0.0661  0.9602 -0.9096
 1014MOL0     C36782   8.472   3.576   9.687  0.4127 -0.1616  0.2159
 1014MOL0     C36783   8.543   3.632   9.806  0.3728  0.5677 -0.3082
 1014MOL0     C36784   8.522   3.559   9.548  0.5547 -0.1902 -0.8904
 1014MOL0     C36785   8.664   3.600   9.510 -0.2764  0.6176 -0.0766
 1014MOL0     O36786   8.683   3.677   9.393 -0.6690  0.2208  0.0605
 1014MOL0     C36787   8.813   3.702   9.370 -0.2490 -1.3243 -0.1481
 1014MOL0     C36788   8.844   3.830   9.334 -0.5731 -0.5208  0.2261
 1014MOL0     C36789   8.971   3.869   9.295 -1.0433 -0.4860 -0.5063
 1014MOL0     C36790   9.072   3.775   9.303 -0.3970 -0.4625 -0.5476
 1014MOL0     O36791   9.205   3.787   9.274  0.2019 -1.2804 -0.5700
 1014MOL0     C36792   9.276   3.919   9.264 -0.1445 -0.2554  0.3078
 1014MOL0     C36793   9.422   3.885   9.215 -0.0969  1.1034 -0.4158
 1014MOL0     C36794   9.498   3.781   9.294  0.4734 -0.1300  0.3447
 1014MOL0     C36795   9.623   3.722   9.222  0.0348  0.2303 -0.3396
 1014MOL0     C36796   9.601   3.674   9.081  0.5965  0.1146 -0.4591
 1014MOL0     C36797   9.714   3.590   9.015  0.6061  0.0792  0.1533
 1014MOL0     C36798   9.755   3.458   9.086  0.4989 -0.1449 -0.5066
 1014MOL0     C36799   9.630   3.381   9.142 -0.1234 -0.3998  0.0295
 1014MOL0    Cl36800   9.507   3.341   9.016  0.0644 -0.4350  0.6368
 1014MOL0     C36801   9.043   3.642   9.351  0.2393  0.0085 -0.1618
 1014MOL0     C36802   8.915   3.605   9.372 -0.7474  1.1426  0.7307
 1014MOL0     O36803   8.755   3.564   9.590  0.9864  0.4604  0.2652
 1014MOL0     C36804   8.442   3.505   9.447 -0.1640 -0.3198 -0.2731
 1014MOL0     C36805   8.322   3.458   9.484 -0.0712 -1.0991 -0.0018
 1014MOL0     N36806   8.234   3.796   9.979 -0.0320  0.1426  0.2560
 1014MOL0     N36807   8.316   3.895   9.969 -0.4853 -0.5026 -0.2644
 1014MOL0     C36808   8.738   4.305  10.790 -0.6904  0.4689  1.2858
 1014MOL0     C36809   8.811   4.295  10.907  0.0622 -0.0459 -0.1113
 1014MOL0     C36810   9.171   4.423  11.170  0.3190  0.4521 -0.0475
 1014MOL0     C36811   9.303   4.447  11.139  0.1475  0.3390 -1.1486
 1014MOL0     C36812   9.396   4.469  11.239 -0.2363 -0.7609  0.0593
 1014MOL0     C36813   9.370   4.457  11.369  0.7871 -0.2513 -0.0203
 1014MOL0     O36814   9.493   4.450  11.436  0.8487  0.5890  0.6566
 1014MOL0     C36815   9.489   4.410  11.579 -0.0417  0.5929 -1.3919
 1014MOL0     C36816   9.632   4.419  11.642 -0.3401 -0.8331  0.7226
 1014MOL0     C36817   9.716   4.547  11.601 -0.2499 -0.1998 -0.2696
 1014MOL0     C36818   9.845   4.541  11.689 -0.3384 -0.3631 -0.2477
 1014MOL0     C36819   9.933   4.654  11.647 -0.9473 -0.0758  0.3393
 1014MOL0     C36820  10.007   4.742  11.607 -0.2051  0.8859 -1.0249
 1014MOL0     C36821   9.234   4.424  11.408 -0.4050 -0.0332 -0.0019
 1014MOL0     C36822   9.134   4.413  11.305  0.5543  0.5730 -0.0337
 1014MOL0     H36823   8.829   4.619  11.002  2.1189 -0.8238 -0.5296
 1014MOL0     H36824   8.668   4.649  10.813  4.5174  1.8363 -0.7055
 1014MOL0     H36825   8.720   4.397  10.468  1.9523 -3.2555  2.1271
 1014MOL0     H36826   8.601   4.283  10.529 -0.0081 -0.3575  0.1231
 1014MOL0     H36827   8.438   4.416  10.438 -1.5873  1.9203 -2.1430
 1014MOL0     H36828   8.537   4.561  10.432  1.7188  0.5191 -0.3006
 1014MOL0     H36829   8.628   4.485  10.231  3.0048  0.0767  4.3416
 1014MOL0     H36830   8.589   4.307  10.268  2.1615  0.7358  0.1623
 1014MOL0     H36831   8.356   4.504  10.225  1.5701 -0.1618  1.7742
 1014MOL0     H36832   8.445   4.443  10.083 -0.0511  2.4651  1.2418
 1014MOL0     H36833   8.420   4.206  10.165  1.7773  1.6529 -1.9930
 1014MOL0     H36834   8.342   4.277  10.313 -1.6605  1.2647  0.4243
 1014MOL0     H36835   8.192   4.153  10.171  1.2174  0.7114  1.2918
 1014MOL0     H36836   8.148   4.333  10.158 -0.2637  0.8394  1.0332
 1014MOL0     H36837   8.116   4.236   9.937  0.7126  0.4563 -3.2834
 1014MOL0     H36838   8.259   4.340   9.936 -0.0330 -0.6465 -0.7090
 1014MOL0     H36839   8.404   4.152   9.955 -0.4614  0.5463 -0.4785
 1014MOL0     H36840   8.344   4.136   9.812  0.9225 -0.1604 -0.0658
 1014MOL0     H36841   8.026   4.028   9.917 -1.2801 -2.5572 -0.1449
 1014MOL0     H36842   7.931   3.769  10.053  2.8018  2.8821  1.4442
 1014MOL0     H36843   7.927   3.765   9.864  1.1014 -4.5866 -0.6304
 1014MOL0     H36844   7.955   3.531   9.993  0.4783  1.6953  3.0192
 1014MOL0     H36845   8.123   3.577   9.987  3.5264  3.8691 -3.6218
 1014MOL0     H36846   8.075   3.636   9.727 -1.0083 -0.0297 -1.8801
 1014MOL0     H36847   7.907   3.562   9.763  0.5025  0.0128 -0.1089
 1014MOL0     H36848   7.993   3.352   9.742  2.0630 -3.4719  1.9871
 1014MOL0     H36849   8.138   3.389   9.831  1.4665  1.9713 -0.6288
 1014MOL0     H36850   8.296   3.529   9.815  0.0044  0.8541 -0.9424
 1014MOL0     H36851   8.634   3.573   9.819  1.0402  1.4175 -0.9877
 1014MOL0     H36852   8.564   3.738   9.785  0.2658  0.6124 -0.1927
 1014MOL0     H36853   8.480   3.622   9.895 -2.9353 -1.5738 -2.6296
 1014MOL0     H36854   8.770   3.909   9.322 -1.3589 -1.2947 -0.0904
 1014MOL0     H36855   8.986   3.969   9.253  1.4660 -0.5535  0.0616
 1014MOL0     H36856   9.231   3.991   9.195 -2.1285 -1.0831  0.6985
 1014MOL0     H36857   9.284   3.956   9.366  0.0791  0.1035  0.1639
 1014MOL0     H36858   9.404   3.849   9.113 -1.8441  2.5792 -0.6638
 1014MOL0     H36859   9.470   3.981   9.196 -1.2317  1.5383 -1.1265
 1014MOL0     H36860   9.437   3.693   9.311  2.5951 -1.8864 -0.5740
 1014MOL0     H36861   9.530   3.814   9.393 -0.4641 -0.8585  0.9095
 1014MOL0     H36862   9.710   3.788   9.233  0.3124 -0.0923 -0.5977
 1014MOL0     H36863   9.663   3.639   9.281  3.3896  2.4968  0.8685
 1014MOL0     H36864   9.583   3.766   9.025 -0.1660  0.2931  0.0637
 1014MOL0     H36865   9.507   3.618   9.083  0.2391  0.7200 -0.2433
 1014MOL0     H36866   9.679   3.552   8.918 -1.6542 -2.7797  1.8840
 1014MOL0     H36867   9.799   3.656   8.997 -0.1782  1.3266  0.8764
 1014MOL0     H36868   9.832   3.485   9.159  1.9923 -0.4639 -1.9253
 1014MOL0     H36869   9.797   3.389   9.013 -1.1320 -2.0503  0.2686
 1014MOL0     H36870   9.588   3.438   9.226  0.1179 -1.5668  0.9729
 1014MOL0     H36871   9.663   3.289   9.190  1.0410 -0.2770 -0.5137
 1014MOL0     H36872   9.128   3.574   9.346 -0.3547 -0.7674  0.0765
 1014MOL0     H36873   8.897   3.501   9.395  1.8257  0.6005  0.5673
 1014MOL0     H36874   8.471   3.513   9.343  2.0714  1.1558  0.3935
 1014MOL0     H36875   8.261   3.421   9.402  1.1345 -1.5563 -0.7082
 1014MOL0     H36876   8.700   4.213  10.747 -3.2339  2.5613 -1.3238
 1014MOL0     H36877   8.851   4.203  10.948  2.1309 -0.3897 -2.6396
 1014MOL0     H36878   9.333   4.450  11.034  2.1532 -5.8911 -1.1672
 1014MOL0     H36879   9.496   4.484  11.199 -0.3753  0.4785  0.1441
 1014MOL0     H36880   9.421   4.473  11.635 -0.9560 -0.5334 -1.1908
 1014MOL0     H36881   9.431   4.318  11.595 -1.6672  1.6454 -1.0531
 1014MOL0     H36882   9.682   4.324  11.622  1.8557  0.1289  1.3891
 1014MOL0     H36883   9.612   4.426  11.750 -2.2117 -2.4997  0.5357
 1014MOL0     H36884   9.650   4.630  11.628 -1.2673 -1.5423  1.6866
 1014MOL0     H36885   9.743   4.543  11.496 -0.5810  1.7736 -0.4792
 1014MOL0     H36886   9.891   4.444  11.671  0.5682  0.3647 -2.2142
 1014MOL0     H36887   9.812   4.551  11.793 -2.2334 -0.3333 -0.8083
 1014MOL0     H36888  10.072   4.821  11.575 -0.0032  0.4898 -1.6302
 1014MOL0     H36889   9.211   4.395  11.510 -0.0759  1.5833  0.5649
 1014MOL0     H36890   9.034   4.395  11.345  0.3177  3.1075  0.6864
 1015MOL0     O36891   9.698  10.292   7.995 -0.4359 -0.3451 -0.9224
 1015MOL0     C36892   9.694  10.279   8.119  0.9680 -0.6295 -0.0110
 1015MOL0     O36893   9.769  10.360   8.215  1.1986 -0.0740  0.1542
 1015MOL0     C36894   9.830  10.483   8.172 -0.4933  0.5642 -0.4344
 1015MOL0     C36895   9.786  10.570   8.077  0.6798 -0.7181  0.4891
 1015MOL0     C36896   9.870  10.675   8.029  0.1126 -0.2347 -0.6568
 1015MOL0     C36897   9.995  10.705   8.090  0.4705 -0.3948  0.7635
 1015MOL0     O36898  10.083  10.811   8.071  1.0203 -0.5615 -0.8593
 1015MOL0     C36899  10.038  10.924   7.991 -0.0256  0.5431 -0.1241
 1015MOL0     C36900  10.142  11.042   7.993 -0.2434  1.0413 -0.6374
 1015MOL0     C36901  10.084  11.182   7.970 -0.2801  0.7263  0.3100
 1015MOL0     C36902  10.036  11.254   8.099 -0.2340  0.3269  0.8463
 1015MOL0     C36903   9.978  11.399   8.082 -0.6124  0.0442  0.0305
 1015MOL0     C36904   9.853  11.390   7.988  0.0200 -0.7744  0.1564
 1015MOL0     C36905   9.776  11.531   7.994 -0.1888  1.1461 -0.7945
 1015MOL0     C36906   9.643  11.538   7.917  1.0330  0.0558 -1.2348
 1015MOL0     N36907   9.586  11.675   7.914 -0.0777  0.1402 -1.0204
 1015MOL0     C36908   9.517  11.748   8.020 -0.5746  0.5427  0.5277
 1015MOL0     C36909   9.504  11.871   7.956 -0.7678  1.4875 -0.3628
 1015MOL0     C36910   9.441  11.983   8.034  0.9990  0.0548  0.9303
 1015MOL0     C36911   9.294  12.016   7.993 -0.6955 -0.8615  1.3736
 1015MOL0     C36912   9.195  11.902   8.020 -0.2161 -0.5051 -0.1243
 1015MOL0     C36913   9.169  11.820   7.898  0.0778  0.0363 -0.4030
 1015MOL0     O36914   9.064  11.724   7.926  0.7173  0.3287 -0.4566
 1015MOL0     C36915   9.100  11.603   7.970  0.5912  0.2935  0.5060
 1015MOL0     C36916   9.225  11.561   8.027  0.2730  0.1238 -0.2285
 1015MOL0     C36917   9.241  11.445   8.096  0.1933  0.5103 -0.5538
 1015MOL0     C36918   9.374  11.412   8.170  2.2547  0.6834  0.4000
 1015MOL0     C36919   9.133  11.354   8.100 -0.1656 -0.0602  0.3613
 1015MOL0     C36920   9.137  11.220   8.179 -0.0344 -0.5959  0.4092
 1015MOL0     O36921   9.011  11.164   8.203  0.0334  0.4719  0.6200
 1015MOL0     C36922   9.003  11.031   8.237  0.1112 -0.3116  0.7037
 1015MOL0     C36923   9.083  10.929   8.168  0.3720  0.1924  0.1118
 1015MOL0     C36924   9.066  10.792   8.205 -0.2723 -0.7550  0.1559
 1015MOL0     C36925   8.971  10.759   8.297  0.8064 -0.3048 -0.6400
 1015MOL0     O36926   8.948  10.628   8.339  0.4545 -0.6378  0.4656
 1015MOL0     C36927   9.060  10.554   8.384 -0.8357  0.0577 -0.4273
 1015MOL0     C36928   9.021  10.439   8.475  0.4375  0.7652  0.7128
 1015MOL0     C36929   8.934  10.475   8.600  0.0588  0.3173  0.2491
 1015MOL0     C36930   8.907  10.343   8.676  0.0424  0.6407 -0.6510
 1015MOL0     C36931   8.808  10.358   8.787  0.0292 -0.4700 -0.2674
 1015MOL0     C36932   8.793  10.224   8.861  0.7251  0.2628 -0.1564
 1015MOL0     C36933   8.657  10.217   8.939  0.6624  0.6829 -0.4797
 1015MOL0     C36934   8.647  10.086   9.023  1.0177 -0.3672  0.1473
 1015MOL0    Cl36935   8.572   9.948   8.930  0.2576 -0.0967 -0.1577
 1015MOL0     C36936   8.887  10.856   8.354 -1.3838  0.7496  0.1583
 1015MOL0     C36937   8.914  10.990   8.325  0.1181 -0.7072 -0.3366
 1015MOL0     O36938   9.245  11.178   8.213 -0.5173  0.5814  0.9146
 1015MOL0     C36939   9.004  11.397   8.051 -0.2473  0.9258  0.4712
 1015MOL0     C36940   8.988  11.516   7.984  0.3959  0.6938  0.1676
 1015MOL0     N36941   9.533  11.870   7.820  0.6488  0.0128 -0.0155
 1015MOL0     N36942   9.592  11.760   7.801 -0.5919 -0.6732  0.4561
 1015MOL0     C36943  10.035  10.617   8.187 -0.0683 -0.6753 -0.8400
 1015MOL0     C36944   9.959  10.505   8.226  0.3947 -0.5222  0.4842
 1015MOL0     C36945   9.637  10.157   8.172  0.0191 -0.1093 -0.4078
 1015MOL0     C36946   9.648  10.117   8.306 -0.3954 -0.6691  0.1229
 1015MOL0     C36947   9.608   9.988   8.331  0.0281  0.3375 -0.5236
 1015MOL0     C36948   9.559   9.903   8.245  0.3282 -0.1963  0.1619
 1015MOL0     O36949   9.543   9.778   8.291  0.1021  0.8680 -0.3750
 1015MOL0     C36950   9.607   9.672   8.208 -0.1327  0.0239 -0.3127
 1015MOL0     C36951   9.758   9.676   8.239  0.4538  1.4727  0.6771
 1015MOL0     C36952   9.791   9.685   8.391 -0.2315  0.5493  0.6337
 1015MOL0     C36953   9.946   9.665   8.398 -0.8358 -0.1142  0.6744
 1015MOL0     C36954   9.990   9.697   8.536 -0.4084 -1.4339  0.0656
 1015MOL0     C36955  10.016   9.749   8.641  0.2322  0.3472  0.5668
 1015MOL0     C36956   9.534   9.946   8.114  0.0772  0.0717 -0.5090
 1015MOL0     C36957   9.575  10.071   8.083 -0.0569 -0.1180 -0.3320
 1015MOL0     H36958   9.688  10.546   8.037 -0.0332 -3.0584  3.2130
 1015MOL0     H36959   9.832  10.740   7.952 -1.3953  1.3944  1.3296
 1015MOL0     H36960  10.016  10.903   7.886  1.1146 -0.9244 -0.1050
 1015MOL0     H36961   9.944  10.947   8.043  0.0861 -0.0364  0.3463
 1015MOL0     H36962  10.187  11.028   8.092  0.1329 -3.7411 -1.2095
 1015MOL0     H36963  10.234  11.015   7.941  1.2548 -2.3903  3.2048
 1015MOL0     H36964  10.159  11.247   7.923  1.5683 -0.3028  1.6903
 1015MOL0     H36965  10.000  11.166   7.902 -0.9332  0.9179  1.0714
 1015MOL0     H36966   9.958  11.192   8.144 -3.1101  1.0211 -2.6762
 1015MOL0     H36967  10.120  11.262   8.168 -0.5667 -1.4520  1.4808
 1015MOL0     H36968   9.955  11.429   8.185 -1.6063  0.4827 -0.3083
 1015MOL0     H36969  10.046  11.469   8.034 -0.4374 -0.5904 -0.6748
 1015MOL0     H36970   9.885  11.362   7.888  2.0297 -2.2758  1.1537
 1015MOL0     H36971   9.792  11.314   8.037 -2.1131  1.3441  0.9905
 1015MOL0     H36972   9.763  11.554   8.100 -2.3624 -1.3315 -0.4288
 1015MOL0     H36973   9.850  11.594   7.944  0.1436  0.3488 -1.3428
 1015MOL0     H36974   9.575  11.477   7.978  1.6754 -0.5251 -1.0951
 1015MOL0     H36975   9.666  11.487   7.823  1.9911 -1.9623  0.0345
 1015MOL0     H36976   9.482  11.724   8.120  2.0307  1.6515  1.8016
 1015MOL0     H36977   9.438  11.951   8.139  0.0904 -2.0043  0.3323
 1015MOL0     H36978   9.499  12.075   8.029 -3.0960  2.8689 -0.0760
 1015MOL0     H36979   9.306  12.034   7.886  0.6327  3.4105  2.0852
 1015MOL0     H36980   9.259  12.106   8.043 -1.2591  0.3293 -1.0232
 1015MOL0     H36981   9.101  11.948   8.050 -0.2174 -2.3474  3.1399
 1015MOL0     H36982   9.219  11.845   8.111 -0.3688  0.2176  0.3736
 1015MOL0     H36983   9.261  11.769   7.866 -2.1859 -1.1817 -6.0559
 1015MOL0     H36984   9.131  11.881   7.816 -3.8159 -2.6096 -0.8570
 1015MOL0     H36985   9.314  11.622   8.036 -0.5209  1.0233  2.6983
 1015MOL0     H36986   9.347  11.390   8.273 -1.4153 -2.9195 -1.0569
 1015MOL0     H36987   9.410  11.321   8.121 -1.6788 -1.1905  0.6431
 1015MOL0     H36988   9.443  11.495   8.152 -0.5164  2.4308 -4.2093
 1015MOL0     H36989   9.145  10.953   8.082  1.7870 -1.0223  0.7372
 1015MOL0     H36990   9.126  10.713   8.161  0.2612  0.0961 -0.6790
 1015MOL0     H36991   9.127  10.520   8.304 -2.7044 -0.2687 -1.9372
 1015MOL0     H36992   9.124  10.623   8.439  2.1363 -2.6425 -0.2401
 1015MOL0     H36993   8.960  10.373   8.411 -1.3588 -1.1728  4.1467
 1015MOL0     H36994   9.114  10.393   8.508  1.5158  2.1118 -0.3341
 1015MOL0     H36995   8.837  10.518   8.574 -1.3022 -2.7347 -0.0581
 1015MOL0     H36996   8.990  10.536   8.672  0.2403  1.8691 -1.1158
 1015MOL0     H36997   8.880  10.267   8.602  0.2457  0.8963 -0.9963
 1015MOL0     H36998   8.995  10.306   8.728  0.1784 -0.5123 -1.6493
 1015MOL0     H36999   8.723  10.398   8.733  0.0396  1.7268  1.2216
 1015MOL0     H37000   8.844  10.430   8.861  0.2210  1.6035 -2.2696
 1015MOL0     H37001   8.798  10.137   8.795  2.1462 -1.7230  2.3754
 1015MOL0     H37002   8.877  10.189   8.921 -0.4040 -1.7381  0.3617
 1015MOL0     H37003   8.566  10.225   8.880  1.0752 -0.0490 -1.2263
 1015MOL0     H37004   8.650  10.305   9.004 -2.0580  0.2215 -0.0634
 1015MOL0     H37005   8.582  10.107   9.108 -1.4708 -1.1183 -1.4638
 1015MOL0     H37006   8.745  10.064   9.067  0.4299  3.4261  3.9626
 1015MOL0     H37007   8.808  10.829   8.423 -0.2959  0.0859  1.1819
 1015MOL0     H37008   8.843  11.064   8.362  0.9367 -0.4477  0.7834
 1015MOL0     H37009   8.918  11.330   8.045 -0.1424  0.7966  0.4187
 1015MOL0     H37010   8.889  11.549   7.952 -0.5378 -0.2086  1.9456
 1015MOL0     H37011  10.123  10.638   8.247 -1.9665 -2.0359  2.7821
 1015MOL0     H37012   9.991  10.451   8.315 -0.6640  0.8264  1.7177
 1015MOL0     H37013   9.699  10.175   8.382  1.4740 -1.2479 -0.6381
 1015MOL0     H37014   9.616   9.940   8.428  1.1074 -3.1826 -2.1772
 1015MOL0     H37015   9.560   9.577   8.237  0.0713  0.2361  0.7484
 1015MOL0     H37016   9.616   9.682   8.100  2.2852 -2.0340 -0.3897
 1015MOL0     H37017   9.791   9.762   8.180 -2.3093  1.0828 -1.6226
 1015MOL0     H37018   9.801   9.587   8.193 -1.3674  0.2366  1.2650
 1015MOL0     H37019   9.742   9.608   8.452  0.9550  0.0782  1.0319
 1015MOL0     H37020   9.756   9.783   8.425 -0.8278  0.4264  0.3777
 1015MOL0     H37021   9.997   9.731   8.327  1.0385 -1.3526  0.8185
 1015MOL0     H37022   9.968   9.563   8.365  1.1826  0.6311 -0.4609
 1015MOL0     H37023  10.050   9.795   8.732 -0.2004  0.4622  0.6776
 1015MOL0     H37024   9.480   9.877   8.049 -0.7866 -0.5142  0.7903
 1015MOL0     H37025   9.556  10.109   7.983  0.4597 -2.6350 -1.4723
 1016MOL0     O37026   8.122   2.428   4.489  0.0344  0.1779  0.1841
 1016MOL0     C37027   8.237   2.389   4.480 -0.1690 -0.8151  0.0820
 1016MOL0     O37028   8.296   2.317   4.570 -0.7415  0.9972 -0.1661
 1016MOL0     C37029   8.252   2.298   4.696  0.7301 -0.0488 -0.9526
 1016MOL0     C37030   8.125   2.260   4.734 -0.5584  0.3486  0.3193
 1016MOL0     C37031   8.081   2.262   4.872 -0.2006 -0.0535  0.3996
 1016MOL0     C37032   8.165   2.289   4.978 -1.5476 -0.7426  0.6514
 1016MOL0     O37033   8.121   2.295   5.108 -0.4258  0.4231 -0.6233
 1016MOL0     C37034   8.220   2.317   5.210 -0.6854 -0.6892  0.0903
 1016MOL0     C37035   8.172   2.319   5.345  1.0021  0.1869 -0.0378
 1016MOL0     C37036   8.084   2.190   5.376  0.5289  0.0358 -0.0014
 1016MOL0     C37037   8.147   2.053   5.342 -0.6185  0.4264 -0.6206
 1016MOL0     C37038   8.054   1.942   5.388 -0.8948 -0.3459 -0.2962
 1016MOL0     C37039   7.951   1.917   5.271 -0.2572 -0.4952  0.2099
 1016MOL0     C37040   7.880   1.789   5.311  0.2768  0.8963 -0.9066
 1016MOL0     C37041   7.766   1.761   5.219  0.0612  1.2691 -0.0385
 1016MOL0     N37042   7.800   1.728   5.082 -0.5001 -0.2969 -0.0569
 1016MOL0     C37043   7.888   1.625   5.050  0.6976 -0.6507  0.6713
 1016MOL0     C37044   7.915   1.637   4.920 -0.5166  0.2772  0.7780
 1016MOL0     C37045   8.000   1.548   4.826  0.2562 -0.4954 -0.9310
 1016MOL0     C37046   7.993   1.393   4.855 -0.5305  0.2109 -0.2618
 1016MOL0     C37047   8.058   1.300   4.749 -0.2761 -0.3109  0.2531
 1016MOL0     C37048   8.206   1.308   4.720 -0.1006  1.2372 -1.0999
 1016MOL0     O37049   8.224   1.437   4.640 -0.0652  0.7251 -0.4075
 1016MOL0     C37050   8.259   1.424   4.505 -0.0208 -0.8587  0.0887
 1016MOL0     C37051   8.186   1.495   4.414  0.0060 -0.3875  0.9232
 1016MOL0     C37052   8.210   1.496   4.272 -0.1461 -0.1892  0.3292
 1016MOL0     C37053   8.135   1.591   4.187 -0.4568  0.3397 -0.1684
 1016MOL0     C37054   8.317   1.416   4.227  0.6594 -0.0817  0.5294
 1016MOL0     C37055   8.368   1.416   4.083 -0.1705  0.6762 -0.9100
 1016MOL0     O37056   8.502   1.421   4.064 -0.6558 -0.2555  0.1092
 1016MOL0     C37057   8.551   1.444   3.938  0.0220 -0.3603  1.2506
 1016MOL0     C37058   8.616   1.567   3.915 -0.4467  0.5303 -0.0225
 1016MOL0     C37059   8.661   1.590   3.784  0.1171  0.6303 -0.2076
 1016MOL0     C37060   8.632   1.496   3.677  0.5750  0.3289  0.0971
 1016MOL0     O37061   8.664   1.525   3.546 -0.3796  0.4434  0.0935
 1016MOL0     C37062   8.610   1.443   3.442 -0.0352  0.0251 -0.6396
 1016MOL0     C37063   8.624   1.516   3.301  0.1236  0.2353 -0.5565
 1016MOL0     C37064   8.513   1.627   3.290 -0.3650  0.5010 -0.2618
 1016MOL0     C37065   8.554   1.748   3.199  0.1670  0.4286  0.7098
 1016MOL0     C37066   8.494   1.871   3.241 -0.4622 -0.1717 -0.8220
 1016MOL0     C37067   8.543   1.999   3.179  0.1941 -0.7190  0.9568
 1016MOL0     C37068   8.675   2.065   3.218  0.3205 -1.2530  0.6249
 1016MOL0     C37069   8.695   2.214   3.202 -1.0743  0.9866  0.1948
 1016MOL0    Cl37070   8.833   2.273   3.297 -0.2434 -0.3811  0.2755
 1016MOL0     C37071   8.580   1.374   3.716  0.6269 -0.7814 -0.6336
 1016MOL0     C37072   8.548   1.340   3.848  0.6535 -0.3011 -0.0221
 1016MOL0     O37073   8.287   1.403   3.992  0.3209  0.1515  0.0229
 1016MOL0     C37074   8.385   1.334   4.318 -1.6201  0.4390 -0.1099
 1016MOL0     C37075   8.355   1.336   4.459 -0.0891 -0.1693 -0.0846
 1016MOL0     N37076   7.868   1.756   4.875  0.1469 -0.7872 -0.2343
 1016MOL0     N37077   7.803   1.808   4.974 -0.1262 -0.2826 -1.1504
 1016MOL0     C37078   8.301   2.323   4.939  0.5367  0.0128 -1.0104
 1016MOL0     C37079   8.340   2.320   4.808 -0.0235  0.0446  0.6100
 1016MOL0     C37080   8.319   2.443   4.372  0.1456 -0.0312  1.6790
 1016MOL0     C37081   8.450   2.390   4.339  0.2707  0.9006 -0.5650
 1016MOL0     C37082   8.522   2.443   4.234 -0.6130 -1.1982  0.3818
 1016MOL0     C37083   8.469   2.536   4.148  0.6354 -0.2986 -0.1216
 1016MOL0     O37084   8.547   2.563   4.034  1.3049 -0.1049 -0.2158
 1016MOL0     C37085   8.489   2.655   3.939  0.1010 -0.0354  0.0812
 1016MOL0     C37086   8.518   2.792   3.988 -0.7490 -0.3923 -0.5166
 1016MOL0     C37087   8.431   2.892   3.916  0.5369  0.0044  0.1075
 1016MOL0     C37088   8.431   3.033   3.971  0.1070  0.2873 -0.4738
 1016MOL0     C37089   8.315   3.118   3.924 -0.5617  1.0877  0.5752
 1016MOL0     C37090   8.229   3.200   3.886 -0.1416 -0.0247  0.5779
 1016MOL0     C37091   8.343   2.582   4.172  0.8410 -0.3887  0.0574
 1016MOL0     C37092   8.273   2.547   4.291 -0.6597  0.4221 -0.2614
 1016MOL0     H37093   8.047   2.239   4.661 -0.5088  1.4955 -0.0958
 1016MOL0     H37094   7.977   2.234   4.881 -0.9228  1.5154 -2.1415
 1016MOL0     H37095   8.295   2.238   5.208 -0.3757 -0.4995  1.9110
 1016MOL0     H37096   8.269   2.413   5.189 -4.1293  0.5039 -4.0237
 1016MOL0     H37097   8.251   2.340   5.417  0.7033 -1.2211  0.7358
 1016MOL0     H37098   8.111   2.408   5.363  0.6516  0.1395 -0.9443
 1016MOL0     H37099   8.052   2.201   5.480 -1.7906  2.7357 -0.8893
 1016MOL0     H37100   7.997   2.191   5.310  0.6218  1.8486 -0.1219
 1016MOL0     H37101   8.167   2.041   5.235 -3.6734 -2.5933 -1.0392
 1016MOL0     H37102   8.245   2.042   5.390  1.1759 -2.3402 -4.3575
 1016MOL0     H37103   8.116   1.853   5.406  2.4232  2.1230  1.5451
 1016MOL0     H37104   8.015   1.961   5.488  1.4041  0.4193  0.5137
 1016MOL0     H37105   7.885   2.004   5.277  0.1820 -0.2463  2.6414
 1016MOL0     H37106   8.007   1.916   5.177 -0.3996  6.2038 -0.4255
 1016MOL0     H37107   7.941   1.699   5.323 -1.9890 -0.9028 -1.8610
 1016MOL0     H37108   7.833   1.802   5.409  0.1283 -2.3796 -0.4113
 1016MOL0     H37109   7.690   1.840   5.214 -2.6982 -1.1398  1.2591
 1016MOL0     H37110   7.711   1.681   5.269 -0.1132  1.2756 -0.2215
 1016MOL0     H37111   7.918   1.545   5.117 -1.4575 -3.1305 -1.1166
 1016MOL0     H37112   7.979   1.564   4.720  3.2232  1.3167 -1.3870
 1016MOL0     H37113   8.105   1.579   4.834  0.9767 -1.7739 -4.0748
 1016MOL0     H37114   7.888   1.365   4.872 -0.5776 -1.2475 -2.6288
 1016MOL0     H37115   8.050   1.373   4.946 -1.4019  0.6742  0.4076
 1016MOL0     H37116   7.992   1.299   4.662 -0.0904  1.4556  0.0706
 1016MOL0     H37117   8.048   1.202   4.796 -2.2215  1.0763  2.9864
 1016MOL0     H37118   8.228   1.216   4.665  0.8484  1.8915 -1.8456
 1016MOL0     H37119   8.275   1.313   4.804 -0.9364  0.5575 -0.3546
 1016MOL0     H37120   8.114   1.565   4.454 -2.5829 -2.9219  0.9563
 1016MOL0     H37121   8.046   1.541   4.149  0.3521 -0.6806 -0.7914
 1016MOL0     H37122   8.098   1.678   4.241  0.5975  0.7065 -0.0064
 1016MOL0     H37123   8.191   1.623   4.098 -0.2326  1.3965  0.3392
 1016MOL0     H37124   8.622   1.634   4.000  0.2903 -0.2497  0.5674
 1016MOL0     H37125   8.718   1.679   3.761  2.4907 -1.0481 -1.2052
 1016MOL0     H37126   8.676   1.356   3.430  1.1388  0.9495 -1.1955
 1016MOL0     H37127   8.517   1.395   3.471  0.2988  0.8440  2.1144
 1016MOL0     H37128   8.727   1.550   3.292  0.4043 -0.6200 -0.6626
 1016MOL0     H37129   8.625   1.444   3.219  1.3785 -2.0262  1.2974
 1016MOL0     H37130   8.484   1.661   3.390 -0.4327  1.8481 -0.7156
 1016MOL0     H37131   8.426   1.572   3.252  1.8205 -2.0502 -1.8762
 1016MOL0     H37132   8.658   1.771   3.220  0.4581 -1.8829  2.1646
 1016MOL0     H37133   8.543   1.735   3.091  2.4351  0.8724  0.3930
 1016MOL0     H37134   8.515   1.876   3.349  0.4591  1.3736 -1.0446
 1016MOL0     H37135   8.387   1.858   3.226 -0.2530 -0.3799 -2.2042
 1016MOL0     H37136   8.548   1.975   3.072  0.6362  2.6970  0.0911
 1016MOL0     H37137   8.460   2.070   3.189 -1.0422 -2.2639  2.3507
 1016MOL0     H37138   8.753   2.006   3.169 -1.0488 -1.3003 -1.6242
 1016MOL0     H37139   8.669   2.051   3.327  0.9969 -2.1856  0.5566
 1016MOL0     H37140   8.599   2.256   3.231 -3.2097 -2.8763 -0.5357
 1016MOL0     H37141   8.703   2.223   3.093 -5.0139 -0.9841 -0.4548
 1016MOL0     H37142   8.562   1.287   3.654  0.7634 -0.8847 -0.5273
 1016MOL0     H37143   8.514   1.242   3.877  2.1010 -0.4259  1.3556
 1016MOL0     H37144   8.462   1.268   4.278 -2.0296 -1.3230  1.8062
 1016MOL0     H37145   8.408   1.278   4.533 -1.1838 -2.3291 -0.8876
 1016MOL0     H37146   8.376   2.344   5.015  0.4583 -0.0912 -0.9031
 1016MOL0     H37147   8.445   2.331   4.783  0.9733 -2.3761  3.2272
 1016MOL0     H37148   8.493   2.304   4.390 -2.0968  1.4201  2.5890
 1016MOL0     H37149   8.607   2.386   4.198 -0.7661 -2.1771  1.5069
 1016MOL0     H37150   8.538   2.641   3.842 -1.8987 -0.8037 -0.8728
 1016MOL0     H37151   8.382   2.643   3.920  0.0610 -0.6700  0.6591
 1016MOL0     H37152   8.624   2.806   3.967 -1.1440  0.3366 -2.1951
 1016MOL0     H37153   8.501   2.803   4.095  1.3989  1.0233 -0.2653
 1016MOL0     H37154   8.326   2.864   3.931  0.1761  0.5882 -1.1758
 1016MOL0     H37155   8.449   2.896   3.809 -0.6461  3.1151 -0.0996
 1016MOL0     H37156   8.526   3.080   3.944 -1.4646  3.2269 -1.3647
 1016MOL0     H37157   8.426   3.018   4.079 -1.6202 -1.1404 -0.7076
 1016MOL0     H37158   8.163   3.269   3.838  1.3475 -0.0318 -1.6273
 1016MOL0     H37159   8.283   2.641   4.104  1.0053 -0.6814 -0.3482
 1016MOL0     H37160   8.169   2.576   4.306 -1.4626 -0.7873 -2.7735
 1017MOL0     O37161   9.974   6.873   4.284 -0.5482 -0.2612 -0.0591
 1017MOL0     C37162  10.087   6.844   4.323 -0.7290 -0.1708  0.3413
 1017MOL0     O37163  10.203   6.884   4.262  0.3735  0.2728 -0.0486
 1017MOL0     C37164  10.190   6.969   4.153  0.5972  0.1727  0.1956
 1017MOL0     C37165  10.108   7.090   4.156  1.0292 -0.8318  0.7201
 1017MOL0     C37166  10.094   7.165   4.042  0.4733  0.3964 -0.4452
 1017MOL0     C37167  10.161   7.127   3.928 -0.5444  0.5986  0.3300
 1017MOL0     O37168  10.177   7.210   3.827  0.2894 -0.3370 -0.3937
 1017MOL0     C37169  10.161   7.349   3.843 -0.1649  0.7814 -1.1242
 1017MOL0     C37170  10.246   7.432   3.742 -0.6910 -0.4216 -0.0066
 1017MOL0     C37171  10.248   7.583   3.779 -0.7395  0.4266  0.0339
 1017MOL0     C37172  10.316   7.679   3.673  0.2652 -0.2786  0.2926
 1017MOL0     C37173  10.442   7.606   3.605 -0.7145 -1.4661 -1.4442
 1017MOL0     C37174  10.556   7.688   3.550 -0.0406  0.3664 -0.0690
 1017MOL0     C37175  10.647   7.734   3.664  0.3440 -0.4744 -0.4825
 1017MOL0     C37176  10.767   7.627   3.662 -0.1961  0.0188 -0.8090
 1017MOL0     N37177  10.854   7.669   3.775 -0.5123 -0.9827  0.5945
 1017MOL0     C37178  10.932   7.779   3.775 -0.0740  0.4857  0.1869
 1017MOL0     C37179  11.028   7.761   3.876 -0.7688 -0.5514  0.0946
 1017MOL0     C37180  11.141   7.856   3.896  0.4650 -0.3616  0.2283
 1017MOL0     C37181  11.230   7.839   4.021  0.2964 -0.5051  0.3747
 1017MOL0     C37182  11.307   7.967   4.066  0.0937 -0.1596 -0.3976
 1017MOL0     C37183  11.437   7.965   3.992  0.4595 -0.7238 -0.1699
 1017MOL0     O37184  11.514   8.082   3.986  0.4094  0.3546 -0.4024
 1017MOL0     C37185  11.516   8.184   4.072  0.6845 -0.8055 -0.7186
 1017MOL0     C37186  11.509   8.310   4.013 -0.2324  0.1716  0.3101
 1017MOL0     C37187  11.519   8.424   4.089 -0.9579 -0.9461  0.6182
 1017MOL0     C37188  11.492   8.549   4.013 -0.6102 -0.8632  0.2182
 1017MOL0     C37189  11.542   8.415   4.225 -0.4576  0.1334 -0.4858
 1017MOL0     C37190  11.556   8.544   4.312 -0.6678 -0.0376  0.1992
 1017MOL0     O37191  11.533   8.538   4.444 -0.7920 -0.2918  0.1703
 1017MOL0     C37192  11.536   8.648   4.535  0.2985 -0.2638  0.2134
 1017MOL0     C37193  11.471   8.643   4.656  0.4411 -0.2067 -0.8760
 1017MOL0     C37194  11.458   8.746   4.750 -0.0274 -0.2713 -0.7369
 1017MOL0     C37195  11.514   8.871   4.718  0.5695  0.3039 -0.1417
 1017MOL0     O37196  11.492   8.975   4.806 -0.1053  0.3059 -0.3262
 1017MOL0     C37197  11.583   9.076   4.809 -0.2930  0.9026  0.0400
 1017MOL0     C37198  11.566   9.145   4.940  0.6342  0.4742 -0.4306
 1017MOL0     C37199  11.419   9.167   4.989 -0.0000 -0.1718 -0.0906
 1017MOL0     C37200  11.424   9.224   5.132  0.8578  0.2077  0.3943
 1017MOL0     C37201  11.295   9.204   5.206 -0.0933 -0.1976  0.0307
 1017MOL0     C37202  11.238   9.054   5.229 -0.4101 -0.3490  0.4781
 1017MOL0     C37203  11.095   9.047   5.291 -0.6233  0.2511  0.5123
 1017MOL0     C37204  11.124   9.051   5.443 -0.0120 -0.5352 -0.6000
 1017MOL0    Cl37205  11.231   8.911   5.500 -0.2863  0.1578  0.1757
 1017MOL0     C37206  11.581   8.874   4.601 -0.0935 -0.0855 -0.1375
 1017MOL0     C37207  11.606   8.766   4.507 -0.0138  0.3307  0.0253
 1017MOL0     O37208  11.598   8.638   4.256 -0.5125  0.3769  0.2246
 1017MOL0     C37209  11.570   8.284   4.285  0.0220  0.2358 -0.1939
 1017MOL0     C37210  11.559   8.178   4.200 -0.8826  0.3570  0.4821
 1017MOL0     N37211  10.989   7.659   3.950  0.5139 -0.7744  0.0275
 1017MOL0     N37212  10.882   7.606   3.894 -0.6892 -0.3705 -0.8610
 1017MOL0     C37213  10.238   7.013   3.918 -1.3299  0.4253  0.1886
 1017MOL0     C37214  10.257   6.930   4.036  0.5594 -0.2722 -0.1651
 1017MOL0     C37215  10.103   6.771   4.448  0.4183  0.5734  0.5390
 1017MOL0     C37216  10.228   6.724   4.491 -0.8129 -0.6006  0.3657
 1017MOL0     C37217  10.242   6.654   4.609  0.1967 -0.0385 -0.2065
 1017MOL0     C37218  10.122   6.613   4.677  0.0734 -0.7698 -0.5199
 1017MOL0     O37219  10.124   6.529   4.782  0.3953  0.0934  0.3993
 1017MOL0     C37220  10.236   6.438   4.805  0.2957  0.6859  0.3581
 1017MOL0     C37221  10.227   6.332   4.694 -0.6436 -0.3739 -0.1721
 1017MOL0     C37222  10.347   6.244   4.713 -0.2537  0.2113 -0.8550
 1017MOL0     C37223  10.378   6.155   4.601  0.0068 -1.2000 -0.2265
 1017MOL0     C37224  10.503   6.085   4.626  0.7558  0.5262 -0.8820
 1017MOL0     C37225  10.596   6.011   4.639  1.2224  0.5676 -0.3899
 1017MOL0     C37226  10.004   6.650   4.631 -0.7334  0.0639  1.3111
 1017MOL0     C37227   9.995   6.728   4.523  0.4023  0.0589  0.2629
 1017MOL0     H37228  10.038   7.129   4.229 -0.7187  2.6527 -2.5049
 1017MOL0     H37229  10.039   7.258   4.057  0.7133  0.0339  3.8767
 1017MOL0     H37230  10.058   7.375   3.817 -0.3195 -0.2399 -1.5794
 1017MOL0     H37231  10.185   7.383   3.944  0.2958 -0.9300 -0.6183
 1017MOL0     H37232  10.343   7.380   3.739  0.2021  1.0916  1.3806
 1017MOL0     H37233  10.197   7.423   3.645 -0.1296  1.0702 -0.4457
 1017MOL0     H37234  10.145   7.611   3.801 -0.8835  1.7051 -2.0414
 1017MOL0     H37235  10.301   7.596   3.874  2.5875 -1.9436 -1.3012
 1017MOL0     H37236  10.241   7.718   3.602  0.0390  0.5996  0.9920
 1017MOL0     H37237  10.352   7.771   3.721  1.6101  0.1475 -1.4109
 1017MOL0     H37238  10.498   7.547   3.678  1.4421  0.0963 -1.7298
 1017MOL0     H37239  10.402   7.541   3.527 -0.0071 -2.4077 -1.0448
 1017MOL0     H37240  10.607   7.630   3.473 -0.9380 -2.4075  1.3123
 1017MOL0     H37241  10.508   7.765   3.489  0.3020 -1.3393 -2.6445
 1017MOL0     H37242  10.689   7.834   3.649  1.8933 -1.1849 -1.0808
 1017MOL0     H37243  10.593   7.736   3.759  3.0399  0.1042  1.1269
 1017MOL0     H37244  10.829   7.628   3.572  2.0322  0.3448  0.6655
 1017MOL0     H37245  10.727   7.527   3.680 -2.3391  0.8873 -0.3728
 1017MOL0     H37246  10.932   7.846   3.690  2.7237  0.4241  0.0531
 1017MOL0     H37247  11.198   7.849   3.803  0.5470 -3.3218  0.4122
 1017MOL0     H37248  11.106   7.960   3.898 -0.9329 -0.8129  2.3434
 1017MOL0     H37249  11.304   7.762   3.998  0.3707 -1.1376  2.5444
 1017MOL0     H37250  11.177   7.806   4.111 -1.3228  0.1785 -0.2809
 1017MOL0     H37251  11.312   7.981   4.174 -2.7974 -3.0726  0.2441
 1017MOL0     H37252  11.257   8.058   4.032  3.8238  1.4644 -2.1773
 1017MOL0     H37253  11.432   7.957   3.883  3.0692  2.9069 -0.7792
 1017MOL0     H37254  11.487   7.871   4.017 -2.7517 -2.0769  1.9075
 1017MOL0     H37255  11.485   8.306   3.907 -2.7318 -2.5506  0.8425
 1017MOL0     H37256  11.447   8.523   3.917 -0.2280  0.7081 -0.4207
 1017MOL0     H37257  11.415   8.606   4.065 -1.6690  0.8320 -2.9032
 1017MOL0     H37258  11.589   8.599   4.007 -0.7705 -0.6550 -0.9046
 1017MOL0     H37259  11.427   8.551   4.694 -2.1918  1.2183 -0.2198
 1017MOL0     H37260  11.424   8.721   4.850 -0.1164 -1.1282 -0.9733
 1017MOL0     H37261  11.685   9.038   4.800 -0.9727 -1.4954  1.5014
 1017MOL0     H37262  11.571   9.153   4.732 -0.0538  0.6716 -0.2313
 1017MOL0     H37263  11.618   9.083   5.014 -0.3811 -0.1653 -0.2325
 1017MOL0     H37264  11.618   9.241   4.932  0.8650  0.2717 -1.5891
 1017MOL0     H37265  11.356   9.077   4.991 -1.2348  0.6940  0.8530
 1017MOL0     H37266  11.375   9.242   4.923 -0.5609  0.3254  0.8380
 1017MOL0     H37267  11.506   9.187   5.194 -0.7993 -1.3151  1.7700
 1017MOL0     H37268  11.445   9.331   5.123  1.8944 -0.0690 -0.7728
 1017MOL0     H37269  11.211   9.255   5.157 -2.2955 -1.4725  2.2664
 1017MOL0     H37270  11.300   9.251   5.304 -1.1448  1.2158 -0.5551
 1017MOL0     H37271  11.222   9.019   5.127 -4.5432  2.7860 -0.2295
 1017MOL0     H37272  11.312   8.992   5.280 -0.9741 -1.5144 -0.1047
 1017MOL0     H37273  11.057   8.951   5.255 -4.2670  2.0236 -0.8785
 1017MOL0     H37274  11.037   9.133   5.255 -0.9971 -0.7283 -1.3695
 1017MOL0     H37275  11.031   9.049   5.500 -0.1862 -2.1414 -0.8750
 1017MOL0     H37276  11.167   9.145   5.479 -3.0662 -0.7349  4.6174
 1017MOL0     H37277  11.631   8.967   4.575 -1.4251  0.3940 -1.0807
 1017MOL0     H37278  11.683   8.785   4.433  1.8737  0.2048  1.8501
 1017MOL0     H37279  11.611   8.285   4.386 -2.5858 -1.7654  0.9977
 1017MOL0     H37280  11.593   8.077   4.219  0.1723  1.0129  2.2882
 1017MOL0     H37281  10.292   6.989   3.826 -2.5461  0.9876 -0.6991
 1017MOL0     H37282  10.327   6.848   4.023  1.3501 -0.0356  2.1489
 1017MOL0     H37283  10.310   6.751   4.426 -2.4258 -1.2873 -2.0823
 1017MOL0     H37284  10.333   6.609   4.646 -0.6208 -2.3441 -0.8122
 1017MOL0     H37285  10.339   6.475   4.809  0.8023 -0.7763  1.2219
 1017MOL0     H37286  10.229   6.386   4.900  6.4827 -0.1992  0.7347
 1017MOL0     H37287  10.216   6.387   4.600 -1.1233  2.2906  1.3261
 1017MOL0     H37288  10.134   6.275   4.699 -0.8665 -0.2470 -2.1591
 1017MOL0     H37289  10.320   6.184   4.800 -1.3438 -0.9360 -1.9441
 1017MOL0     H37290  10.440   6.298   4.733  0.7243 -1.4595 -0.7700
 1017MOL0     H37291  10.372   6.210   4.507 -1.0895 -1.2598 -0.2057
 1017MOL0     H37292  10.294   6.088   4.582  0.3505 -1.5273 -0.6098
 1017MOL0     H37293  10.681   5.947   4.649  0.4691 -0.2839  0.7950
 1017MOL0     H37294   9.913   6.623   4.684 -2.0172  1.5146 -0.0655
 1017MOL0     H37295   9.894   6.763   4.508  0.3426  1.3533  2.9493
 1018MOL0     O37296   1.820   2.258   5.033 -0.3605 -0.2055 -0.3171
 1018MOL0     C37297   1.912   2.310   5.093  0.3011 -0.2029 -0.5475
 1018MOL0     O37298   2.015   2.253   5.162 -0.6048 -0.0974  0.3199
 1018MOL0     C37299   2.039   2.121   5.177  0.1086  0.2324  1.0693
 1018MOL0     C37300   1.956   2.037   5.253 -0.0010 -0.1403  0.8063
 1018MOL0     C37301   1.988   1.902   5.271  0.0854  0.0071  0.8044
 1018MOL0     C37302   2.098   1.842   5.199  0.6505 -0.8125 -0.1265
 1018MOL0     O37303   2.113   1.708   5.212 -0.6595  0.3023 -0.0754
 1018MOL0     C37304   2.170   1.630   5.102 -0.1094  0.3992  0.2916
 1018MOL0     C37305   2.206   1.501   5.157  0.4855  0.6075 -0.4363
 1018MOL0     C37306   2.241   1.403   5.048  0.2400 -0.6445 -0.8761
 1018MOL0     C37307   2.257   1.268   5.096 -0.1667 -0.9905 -0.2130
 1018MOL0     C37308   2.305   1.170   4.992  0.5002  0.2233 -0.2656
 1018MOL0     C37309   2.453   1.176   4.970 -0.0693  0.2284  0.0046
 1018MOL0     C37310   2.533   1.161   5.101 -0.5325  0.6668  0.0277
 1018MOL0     C37311   2.674   1.111   5.070 -0.1569 -0.4638  0.3578
 1018MOL0     N37312   2.683   0.976   5.011 -0.6511  0.1608 -0.0211
 1018MOL0     C37313   2.697   0.870   5.091 -0.1611  1.4329 -0.5030
 1018MOL0     C37314   2.739   0.755   5.017 -0.7581  0.7135 -0.4195
 1018MOL0     C37315   2.768   0.615   5.055 -0.4842 -0.1661 -1.0279
 1018MOL0     C37316   2.664   0.515   5.006 -0.3729  0.1646  0.6631
 1018MOL0     C37317   2.526   0.563   5.057 -0.5449 -0.5025  0.5374
 1018MOL0     C37318   2.511   0.536   5.213 -0.5912  0.2917  1.5300
 1018MOL0     O37319   2.507   0.656   5.295  0.2199  0.3032  0.8995
 1018MOL0     C37320   2.391   0.733   5.305 -0.1041 -0.0121 -0.5691
 1018MOL0     C37321   2.399   0.851   5.368 -0.6838 -0.4841  0.4668
 1018MOL0     C37322   2.292   0.945   5.372  0.2519 -0.2258  0.0104
 1018MOL0     C37323   2.305   1.074   5.450 -0.8982  0.4112  0.7941
 1018MOL0     C37324   2.174   0.914   5.303 -0.4260 -0.4990 -0.1817
 1018MOL0     C37325   2.050   0.990   5.284  0.2095 -0.8456  0.2357
 1018MOL0     O37326   2.024   1.068   5.393  0.3872  0.4258  0.4941
 1018MOL0     C37327   1.909   1.151   5.392 -0.3412  0.5883 -0.3128
 1018MOL0     C37328   1.896   1.268   5.313 -0.0521 -0.8782 -0.4356
 1018MOL0     C37329   1.787   1.356   5.340 -0.0763 -0.1923 -0.2752
 1018MOL0     C37330   1.687   1.325   5.432 -0.6117 -0.3108 -0.2960
 1018MOL0     O37331   1.599   1.421   5.479  0.1726  1.0858  0.5447
 1018MOL0     C37332   1.550   1.516   5.376 -0.7445  0.7557 -0.2312
 1018MOL0     C37333   1.411   1.561   5.409 -0.6029  0.1361  0.3230
 1018MOL0     C37334   1.371   1.677   5.307  0.6415  0.0472  0.9587
 1018MOL0     C37335   1.214   1.698   5.309 -0.3635 -1.1693  0.2761
 1018MOL0     C37336   1.172   1.802   5.197  0.0474 -0.3611 -0.2379
 1018MOL0     C37337   1.032   1.853   5.192  0.2672 -0.1952  0.1171
 1018MOL0     C37338   1.014   1.985   5.108 -0.9841  0.7299 -0.1127
 1018MOL0     C37339   0.962   2.102   5.199 -0.9073  0.3086 -0.1896
 1018MOL0    Cl37340   1.077   2.139   5.333 -0.5735 -0.0414 -0.0120
 1018MOL0     C37341   1.693   1.204   5.498  0.5133 -0.5482  0.5280
 1018MOL0     C37342   1.808   1.125   5.488  0.3519  0.2240 -0.3639
 1018MOL0     O37343   1.983   0.989   5.179  0.8504 -0.5502  0.7234
 1018MOL0     C37344   2.166   0.782   5.246 -0.2119  0.1052  0.6550
 1018MOL0     C37345   2.267   0.690   5.241 -0.4993 -0.0827 -0.2305
 1018MOL0     N37346   2.740   0.809   4.884  0.5262  0.4116  0.9889
 1018MOL0     N37347   2.704   0.936   4.884 -0.5893  0.2354 -0.2509
 1018MOL0     C37348   2.174   1.924   5.119 -0.5048  0.6688 -0.7829
 1018MOL0     C37349   2.140   2.064   5.100  0.1476 -0.3016 -0.2534
 1018MOL0     C37350   1.908   2.463   5.088 -0.7105  0.4821 -1.6116
 1018MOL0     C37351   2.013   2.529   5.148  0.0654  0.0050  0.2301
 1018MOL0     C37352   2.014   2.671   5.134 -0.4647  0.3001  0.5007
 1018MOL0     C37353   1.901   2.739   5.083 -0.3395  0.1016  0.1073
 1018MOL0     O37354   1.895   2.876   5.069 -0.1690  0.1268  0.3136
 1018MOL0     C37355   2.013   2.958   5.078  0.5756  0.0582 -0.4427
 1018MOL0     C37356   2.025   3.037   5.207 -0.0923  0.3220  0.1900
 1018MOL0     C37357   1.892   3.102   5.247  0.5652  0.2177  0.1371
 1018MOL0     C37358   1.806   3.006   5.338 -0.3238 -0.5817  0.1010
 1018MOL0     C37359   1.662   3.018   5.317 -0.9866 -0.2564 -0.0111
 1018MOL0     C37360   1.545   3.029   5.301 -0.0111  0.3005  0.7527
 1018MOL0     C37361   1.789   2.668   5.035 -1.4888 -0.1435  0.2474
 1018MOL0     C37362   1.800   2.532   5.037  0.6638 -0.6667 -0.6845
 1018MOL0     H37363   1.864   2.081   5.292  0.0179  0.1498  0.5330
 1018MOL0     H37364   1.932   1.836   5.336  0.0919  1.3823  2.2558
 1018MOL0     H37365   2.094   1.623   5.024  0.2798  1.5437 -0.2011
 1018MOL0     H37366   2.261   1.680   5.070  0.6167 -1.3392 -0.4697
 1018MOL0     H37367   2.287   1.504   5.231 -0.1216 -2.4647  0.4686
 1018MOL0     H37368   2.115   1.475   5.211 -0.1655  0.7128 -1.4526
 1018MOL0     H37369   2.167   1.408   4.967  1.4427 -0.6719 -2.0073
 1018MOL0     H37370   2.334   1.438   5.002 -0.8658  1.8944 -1.3918
 1018MOL0     H37371   2.320   1.278   5.185 -1.7148 -2.6106  1.1338
 1018MOL0     H37372   2.159   1.237   5.132 -0.5773  0.6287  0.1767
 1018MOL0     H37373   2.292   1.067   5.028 -0.1007 -0.1908 -1.6050
 1018MOL0     H37374   2.240   1.178   4.905 -1.5385 -1.9311  0.9346
 1018MOL0     H37375   2.491   1.104   4.896 -3.1410 -2.8593  1.1906
 1018MOL0     H37376   2.466   1.272   4.920  0.8285  0.7024  1.1028
 1018MOL0     H37377   2.551   1.258   5.149 -0.4451  1.4380 -1.5289
 1018MOL0     H37378   2.479   1.092   5.167 -0.5770 -1.7123 -2.3272
 1018MOL0     H37379   2.737   1.121   5.159  0.7051 -0.6053 -0.2239
 1018MOL0     H37380   2.718   1.188   5.006  1.0598 -2.2534 -1.0846
 1018MOL0     H37381   2.676   0.876   5.198 -0.0101 -0.4992 -0.3349
 1018MOL0     H37382   2.868   0.591   5.017  0.4675 -1.7034  2.1744
 1018MOL0     H37383   2.779   0.615   5.163 -1.5585 -0.1341 -0.9076
 1018MOL0     H37384   2.688   0.410   5.028  1.1631  0.4798  0.6276
 1018MOL0     H37385   2.653   0.522   4.898 -1.8918 -0.0018  0.7892
 1018MOL0     H37386   2.449   0.506   5.004 -0.4056 -1.1887  1.0576
 1018MOL0     H37387   2.510   0.669   5.040 -0.5962 -0.2165  2.1632
 1018MOL0     H37388   2.595   0.473   5.242 -0.4574 -0.0121  0.4995
 1018MOL0     H37389   2.416   0.482   5.216 -0.1911 -0.7033 -1.4023
 1018MOL0     H37390   2.490   0.879   5.420 -1.7596  1.3376  1.4562
 1018MOL0     H37391   2.257   1.050   5.546  1.3295 -0.8124  1.6631
 1018MOL0     H37392   2.407   1.110   5.464 -0.9871  1.1748 -0.3845
 1018MOL0     H37393   2.253   1.159   5.403 -1.7318 -0.3785  0.2526
 1018MOL0     H37394   1.967   1.296   5.236 -0.1001  3.2564  0.7899
 1018MOL0     H37395   1.785   1.455   5.297  0.3011 -0.4443 -0.8841
 1018MOL0     H37396   1.616   1.601   5.358  1.1181 -1.0750 -3.0482
 1018MOL0     H37397   1.551   1.458   5.282 -0.8948  1.2826 -0.5600
 1018MOL0     H37398   1.328   1.491   5.401 -1.5510  1.3075 -0.5744
 1018MOL0     H37399   1.414   1.606   5.509  2.3334  2.4832 -0.6335
 1018MOL0     H37400   1.383   1.628   5.210 -3.0020  1.4153 -0.3752
 1018MOL0     H37401   1.427   1.771   5.311  0.1185  0.6154 -2.2558
 1018MOL0     H37402   1.166   1.600   5.299 -0.2102 -1.0628 -2.0825
 1018MOL0     H37403   1.187   1.744   5.405  0.4584  0.6232 -0.3109
 1018MOL0     H37404   1.202   1.769   5.097 -2.0741  0.7025 -1.3002
 1018MOL0     H37405   1.233   1.890   5.216 -1.5230  1.1661 -1.9070
 1018MOL0     H37406   0.967   1.780   5.143  1.7714 -0.9606 -0.8227
 1018MOL0     H37407   1.010   1.875   5.297  0.9340  0.9540  0.0368
 1018MOL0     H37408   0.949   1.974   5.021  2.1779 -1.9622 -2.4059
 1018MOL0     H37409   1.112   2.011   5.068 -1.0377  0.8193 -0.1851
 1018MOL0     H37410   0.865   2.082   5.245 -0.7417  0.9220  0.4516
 1018MOL0     H37411   0.954   2.189   5.134  0.2369  1.2583  0.8655
 1018MOL0     H37412   1.620   1.183   5.575 -0.2462  2.8156  0.8640
 1018MOL0     H37413   1.806   1.041   5.557 -2.9445  0.6375  0.1891
 1018MOL0     H37414   2.076   0.758   5.190  0.5725 -1.8172  0.1095
 1018MOL0     H37415   2.257   0.591   5.199 -0.0744 -0.8110  1.3260
 1018MOL0     H37416   2.252   1.882   5.057  0.6454  1.3990  0.1054
 1018MOL0     H37417   2.189   2.124   5.024 -0.0649 -2.7455 -2.4645
 1018MOL0     H37418   2.096   2.486   5.203  0.3470 -0.6265 -0.6736
 1018MOL0     H37419   2.103   2.724   5.166 -0.1046 -0.4925  0.8300
 1018MOL0     H37420   2.107   2.902   5.079 -1.1098 -2.9853  1.8155
 1018MOL0     H37421   2.004   3.025   4.992 -1.4659 -3.0737 -2.8443
 1018MOL0     H37422   2.103   3.111   5.184  4.3103 -3.5850  1.0300
 1018MOL0     H37423   2.055   2.979   5.294  1.4893  0.4290 -0.2385
 1018MOL0     H37424   1.840   3.145   5.160  0.1010  1.0000  0.7837
 1018MOL0     H37425   1.924   3.192   5.301 -3.4614  1.9774 -0.0446
 1018MOL0     H37426   1.840   3.036   5.438 -0.9665  3.7651 -0.7749
 1018MOL0     H37427   1.828   2.900   5.327 -2.3635 -1.2197  1.5227
 1018MOL0     H37428   1.438   3.039   5.299 -0.1827 -1.4424  0.0040
 1018MOL0     H37429   1.694   2.713   5.007 -2.1247 -1.5227  0.1444
 1018MOL0     H37430   1.711   2.476   5.007 -0.6334  1.3427 -0.8190
 1019MOL0     O37431   7.801   4.281  10.173  0.0349  0.7012 -0.6287
 1019MOL0     C37432   7.799   4.402  10.158 -0.1142 -0.6664  0.4289
 1019MOL0     O37433   7.827   4.498  10.249 -1.0184  0.0885 -0.0493
 1019MOL0     C37434   7.900   4.451  10.355 -0.4888 -1.2438 -0.6245
 1019MOL0     C37435   8.040   4.468  10.355  0.4308 -0.5733  0.3807
 1019MOL0     C37436   8.112   4.413  10.464 -0.3001 -0.0977 -0.1969
 1019MOL0     C37437   8.047   4.347  10.571  1.4958 -1.0676  0.0422
 1019MOL0     O37438   8.110   4.289  10.676  0.7736 -0.2035 -0.2186
 1019MOL0     C37439   8.253   4.305  10.693 -0.2411 -0.7192  0.1921
 1019MOL0     C37440   8.308   4.212  10.802  0.1129 -0.0810 -0.3175
 1019MOL0     C37441   8.272   4.070  10.776  0.2605  0.4410 -0.5005
 1019MOL0     C37442   8.122   4.048  10.827 -0.2768 -0.0102 -1.3057
 1019MOL0     C37443   8.043   3.937  10.761  0.7723 -0.6165 -0.6855
 1019MOL0     C37444   7.893   3.945  10.800  0.5147  0.6440  0.0607
 1019MOL0     C37445   7.830   3.808  10.815 -0.2191  0.0963 -0.6176
 1019MOL0     C37446   7.803   3.760  10.679  0.0990  0.6179 -0.0988
 1019MOL0     N37447   7.746   3.622  10.661  0.3986 -0.4590  0.6476
 1019MOL0     C37448   7.624   3.594  10.720  0.4994  0.7975 -0.3903
 1019MOL0     C37449   7.594   3.477  10.659  0.1238 -0.7405 -0.5129
 1019MOL0     C37450   7.470   3.405  10.658 -0.5746  0.0688  0.2639
 1019MOL0     C37451   7.391   3.498  10.567  1.2651  0.0838 -0.0848
 1019MOL0     C37452   7.244   3.450  10.564 -0.7212  0.0681  0.5772
 1019MOL0     C37453   7.152   3.543  10.483  0.0865 -0.2325  0.2286
 1019MOL0     O37454   7.042   3.480  10.415 -0.2026  0.3322 -0.1178
 1019MOL0     C37455   6.932   3.457  10.491 -0.7978 -0.2556  0.2871
 1019MOL0     C37456   6.831   3.393  10.418  0.4067  0.5353  0.6868
 1019MOL0     C37457   6.706   3.366  10.473  0.4527 -0.2637 -0.0425
 1019MOL0     C37458   6.617   3.295  10.380  0.4555 -0.4691 -1.5108
 1019MOL0     C37459   6.681   3.410  10.607 -0.7103  0.2862 -0.1668
 1019MOL0     C37460   6.559   3.390  10.675 -0.1833  0.3239  0.5722
 1019MOL0     O37461   6.548   3.463  10.794  0.4868  0.1204  0.5544
 1019MOL0     C37462   6.479   3.400  10.898  0.0014  0.4460  0.0273
 1019MOL0     C37463   6.525   3.278  10.949  0.0220 -0.0817 -0.5481
 1019MOL0     C37464   6.466   3.210  11.051 -0.5751 -0.1565  0.3805
 1019MOL0     C37465   6.360   3.261  11.123 -0.2551  0.1524  0.0194
 1019MOL0     O37466   6.298   3.210  11.232 -0.9246 -0.1143 -0.1761
 1019MOL0     C37467   6.378   3.121  11.314  0.4513 -0.8920  0.8973
 1019MOL0     C37468   6.302   3.073  11.429 -0.2265  0.3443 -1.3236
 1019MOL0     C37469   6.175   2.991  11.381 -0.2634  0.1724 -0.0208
 1019MOL0     C37470   6.204   2.857  11.309  1.0535  1.2136 -1.3909
 1019MOL0     C37471   6.078   2.772  11.273 -0.3030 -0.2370 -0.0038
 1019MOL0     C37472   5.975   2.773  11.390  0.1374 -1.1907  0.2142
 1019MOL0     C37473   5.873   2.662  11.372 -0.4752 -0.2211 -0.1730
 1019MOL0     C37474   5.799   2.633  11.494  0.2915  0.9915 -0.1592
 1019MOL0    Cl37475   5.682   2.508  11.457  0.0556  0.1327 -0.2744
 1019MOL0     C37476   6.307   3.383  11.075  0.6589 -0.2718 -0.5519
 1019MOL0     C37477   6.361   3.451  10.963  0.5009 -0.2114 -0.2467
 1019MOL0     O37478   6.474   3.320  10.626  0.4626 -0.2235 -0.9452
 1019MOL0     C37479   6.788   3.463  10.686  0.1165  0.5064  0.0518
 1019MOL0     C37480   6.913   3.483  10.629  1.1013  0.4871  0.5781
 1019MOL0     N37481   7.701   3.436  10.575  0.0638 -0.1915  0.0669
 1019MOL0     N37482   7.796   3.519  10.577 -0.3550 -0.3022 -0.8522
 1019MOL0     C37483   7.905   4.330  10.570 -0.0822  0.1771 -0.1014
 1019MOL0     C37484   7.835   4.381  10.464 -0.0481 -0.4801  0.7686
 1019MOL0     C37485   7.771   4.457  10.024 -0.2412  0.0780 -0.3858
 1019MOL0     C37486   7.718   4.588  10.002 -0.3667  0.8915 -0.2321
 1019MOL0     C37487   7.686   4.636   9.872  0.1284 -0.1220 -0.5408
 1019MOL0     C37488   7.697   4.551   9.764  0.3601  0.4395 -0.7885
 1019MOL0     O37489   7.682   4.584   9.630  0.2739 -0.0839 -0.7787
 1019MOL0     C37490   7.627   4.704   9.590 -1.0680  0.9284  0.5298
 1019MOL0     C37491   7.595   4.694   9.438 -0.4091  0.1071  0.2662
 1019MOL0     C37492   7.550   4.829   9.382  0.3892  0.8770  0.1529
 1019MOL0     C37493   7.587   4.836   9.238 -0.8005 -0.9312 -0.3247
 1019MOL0     C37494   7.529   4.744   9.140  0.6202 -1.0258  0.6650
 1019MOL0     C37495   7.473   4.665   9.069  0.9152 -0.0525  0.6677
 1019MOL0     C37496   7.737   4.418   9.792  0.4276 -0.2481  0.8247
 1019MOL0     C37497   7.778   4.376   9.917  0.0671 -0.3314  0.1622
 1019MOL0     H37498   8.089   4.514  10.269  0.3327  0.3060  0.7787
 1019MOL0     H37499   8.219   4.434  10.462 -0.3150 -0.0685 -1.6095
 1019MOL0     H37500   8.306   4.285  10.600  0.5134 -0.0384  0.4681
 1019MOL0     H37501   8.279   4.409  10.715  0.5050 -0.7241 -0.6298
 1019MOL0     H37502   8.416   4.225  10.810  0.4257 -2.2599 -0.6953
 1019MOL0     H37503   8.260   4.252  10.892  0.7396  1.9763 -0.8435
 1019MOL0     H37504   8.277   4.047  10.669  1.5794  1.9338 -0.7969
 1019MOL0     H37505   8.328   3.999  10.838  0.8112 -0.9080 -2.4298
 1019MOL0     H37506   8.129   4.020  10.933 -1.9542  0.5647 -1.0058
 1019MOL0     H37507   8.061   4.138  10.840  1.9745  1.1822  2.9098
 1019MOL0     H37508   8.053   3.951  10.653 -0.7782 -0.0009 -0.7753
 1019MOL0     H37509   8.087   3.839  10.782  1.6075  0.0531  0.8007
 1019MOL0     H37510   7.892   3.981  10.903 -4.5380  0.5050  0.3179
 1019MOL0     H37511   7.829   4.012  10.742 -0.4738  0.7834  1.2861
 1019MOL0     H37512   7.900   3.743  10.870  0.1270  2.4382  1.9159
 1019MOL0     H37513   7.740   3.811  10.877 -0.5795 -1.8391 -0.9808
 1019MOL0     H37514   7.897   3.761  10.624 -0.1311  2.1260 -0.4900
 1019MOL0     H37515   7.736   3.832  10.632 -0.6284 -0.8684 -1.4225
 1019MOL0     H37516   7.565   3.658  10.786 -1.5552 -0.8709 -0.5074
 1019MOL0     H37517   7.491   3.311  10.605  1.2889 -0.7890  2.3703
 1019MOL0     H37518   7.417   3.385  10.752 -2.8533 -0.7775 -1.1034
 1019MOL0     H37519   7.438   3.514  10.470  0.5345  0.7728 -0.3459
 1019MOL0     H37520   7.382   3.602  10.601 -3.4278 -1.0424  3.1279
 1019MOL0     H37521   7.206   3.441  10.666 -1.9734  2.4698  0.3870
 1019MOL0     H37522   7.250   3.355  10.510  1.8757 -0.7169  2.0824
 1019MOL0     H37523   7.216   3.574  10.400  0.2957 -1.3340 -0.0322
 1019MOL0     H37524   7.124   3.632  10.540 -4.7414 -0.0803 -1.9047
 1019MOL0     H37525   6.856   3.360  10.318  2.9720  2.4723  0.5703
 1019MOL0     H37526   6.582   3.194  10.406  0.2649 -1.4040 -4.9551
 1019MOL0     H37527   6.529   3.359  10.370  0.4937 -0.1893 -0.2095
 1019MOL0     H37528   6.666   3.278  10.284 -0.7402 -2.5429 -1.8198
 1019MOL0     H37529   6.620   3.235  10.918  1.2052  0.5675  1.9166
 1019MOL0     H37530   6.517   3.115  11.067 -2.1695 -1.0107  0.5879
 1019MOL0     H37531   6.417   3.046  11.246 -0.2505  1.9215 -2.9545
 1019MOL0     H37532   6.467   3.179  11.342 -0.1750 -0.0756  1.2530
 1019MOL0     H37533   6.359   2.997  11.482  0.0441  0.8841 -0.8343
 1019MOL0     H37534   6.279   3.149  11.504  0.4853 -0.2548 -0.4830
 1019MOL0     H37535   6.103   3.053  11.326  0.7710  1.6580  0.2404
 1019MOL0     H37536   6.127   2.975  11.478  2.5784  3.8688  2.2659
 1019MOL0     H37537   6.252   2.879  11.213  0.9085 -2.2661 -2.4121
 1019MOL0     H37538   6.271   2.799  11.373 -0.5384 -0.9482 -1.5678
 1019MOL0     H37539   6.106   2.667  11.257 -2.4314 -1.4850  3.3802
 1019MOL0     H37540   6.031   2.823  11.189  0.2489 -0.0533 -0.2011
 1019MOL0     H37541   6.016   2.751  11.489 -3.2815 -1.2546  1.7618
 1019MOL0     H37542   5.913   2.863  11.391 -0.5753 -1.6685  1.8909
 1019MOL0     H37543   5.919   2.575  11.325  1.6166  0.2857  0.8292
 1019MOL0     H37544   5.798   2.692  11.298 -2.0567 -1.8929  0.6666
 1019MOL0     H37545   5.736   2.719  11.518 -3.7904 -1.9824  0.8903
 1019MOL0     H37546   5.862   2.595  11.575  0.2428 -0.6222 -0.8480
 1019MOL0     H37547   6.211   3.412  11.116 -0.9014 -1.8835 -2.8470
 1019MOL0     H37548   6.306   3.538  10.929 -0.0036 -0.6951 -0.6881
 1019MOL0     H37549   6.771   3.492  10.789 -0.0288  1.0543 -0.1169
 1019MOL0     H37550   6.984   3.541  10.687  1.2498  0.9785 -0.0808
 1019MOL0     H37551   7.856   4.263  10.640  0.7388 -0.4279 -0.0841
 1019MOL0     H37552   7.727   4.370  10.453 -0.0417 -0.6628  0.8906
 1019MOL0     H37553   7.722   4.649  10.092 -0.8963  0.0820  0.3582
 1019MOL0     H37554   7.648   4.738   9.868 -4.2429 -1.5105  0.6072
 1019MOL0     H37555   7.540   4.723   9.654  0.2387 -3.0823  3.9758
 1019MOL0     H37556   7.699   4.783   9.612 -0.4394  0.9262 -1.3150
 1019MOL0     H37557   7.523   4.616   9.412 -2.2499  1.1669  1.8781
 1019MOL0     H37558   7.687   4.668   9.386 -1.1755 -0.0947 -1.0342
 1019MOL0     H37559   7.598   4.905   9.445 -0.9079  1.3611  0.5945
 1019MOL0     H37560   7.442   4.849   9.389 -0.2696 -0.8721 -3.0452
 1019MOL0     H37561   7.695   4.833   9.218 -0.6875  0.4958 -0.0534
 1019MOL0     H37562   7.572   4.937   9.200 -0.9602 -1.2373 -1.1028
 1019MOL0     H37563   7.420   4.610   8.995  0.5942  0.6933  0.3386
 1019MOL0     H37564   7.731   4.345   9.712  4.3480 -0.3409  0.4160
 1019MOL0     H37565   7.808   4.272   9.926  1.7592 -0.0114 -1.2193
 1020MOL0     O37566   7.008   8.702   9.041  0.1183  0.1556  0.4155
 1020MOL0     C37567   6.996   8.707   9.158  0.7009 -0.0867 -1.0240
 1020MOL0     O37568   6.952   8.603   9.240 -0.5577  0.7627 -0.1322
 1020MOL0     C37569   6.888   8.492   9.198  0.4402  0.1517  0.3871
 1020MOL0     C37570   6.858   8.451   9.067 -0.4138  0.8799  0.4560
 1020MOL0     C37571   6.783   8.342   9.040 -0.9160  0.2535 -0.0909
 1020MOL0     C37572   6.752   8.258   9.151  0.5904  0.0621 -0.4964
 1020MOL0     O37573   6.664   8.151   9.143 -0.4392  0.8896  0.4591
 1020MOL0     C37574   6.530   8.186   9.080 -0.2676  0.1179 -0.6849
 1020MOL0     C37575   6.502   8.082   8.972 -0.0777 -0.1810 -0.2472
 1020MOL0     C37576   6.361   8.097   8.925  0.3206 -0.3527  0.0788
 1020MOL0     C37577   6.247   8.051   9.015  0.4295 -0.0496 -0.1128
 1020MOL0     C37578   6.105   8.065   8.946 -0.6813  0.0987  0.5746
 1020MOL0     C37579   6.070   7.932   8.872 -0.2642 -0.3511 -0.0948
 1020MOL0     C37580   5.929   7.949   8.832  0.7558  1.0463  0.0285
 1020MOL0     C37581   5.886   7.858   8.714  0.5279 -0.7076 -0.0227
 1020MOL0     N37582   5.745   7.869   8.686  0.0042 -0.2009  0.1615
 1020MOL0     C37583   5.644   7.789   8.726 -0.9261  0.1196 -1.2795
 1020MOL0     C37584   5.534   7.861   8.682 -0.1778  0.1280 -0.1709
 1020MOL0     C37585   5.394   7.806   8.697  0.4388 -0.2519 -0.3387
 1020MOL0     C37586   5.334   7.671   8.644 -0.2602 -0.7241  0.5165
 1020MOL0     C37587   5.382   7.622   8.506 -0.1757  0.7935  0.9077
 1020MOL0     C37588   5.362   7.724   8.390  0.3384 -0.6048 -0.5637
 1020MOL0     O37589   5.402   7.668   8.259 -0.3213  0.1219 -0.1251
 1020MOL0     C37590   5.526   7.630   8.229 -0.1358  0.3896 -0.5524
 1020MOL0     C37591   5.533   7.531   8.129  0.8706  0.7656 -0.0682
 1020MOL0     C37592   5.658   7.496   8.071  0.0694 -0.5065 -0.4078
 1020MOL0     C37593   5.660   7.381   7.986  0.4472  1.0308 -0.0840
 1020MOL0     C37594   5.784   7.550   8.126 -0.2670 -0.2398  0.7160
 1020MOL0     C37595   5.914   7.531   8.072  0.6144 -0.1842  0.5263
 1020MOL0     O37596   6.020   7.608   8.112  0.3007  0.1416 -0.1973
 1020MOL0     C37597   6.148   7.567   8.071  0.4224 -0.7651  0.8849
 1020MOL0     C37598   6.241   7.652   8.014  0.2357 -0.3415  0.4362
 1020MOL0     C37599   6.368   7.606   7.981  0.0291 -0.1803 -0.0104
 1020MOL0     C37600   6.402   7.473   7.998  0.3194  0.3100 -0.1244
 1020MOL0     O37601   6.524   7.419   7.968 -0.9506  0.5131 -0.2694
 1020MOL0     C37602   6.636   7.497   7.991  0.5826  0.1765  0.1013
 1020MOL0     C37603   6.762   7.408   7.968 -0.2152  0.2351  0.6430
 1020MOL0     C37604   6.755   7.349   7.824  0.8419 -0.4741 -0.0806
 1020MOL0     C37605   6.904   7.363   7.771 -0.2362 -0.4158 -0.0828
 1020MOL0     C37606   6.939   7.289   7.630  0.0027 -0.1776 -0.0925
 1020MOL0     C37607   6.899   7.139   7.623 -0.6027 -0.9997  0.9126
 1020MOL0     C37608   6.915   7.104   7.475 -0.8836  0.1652  1.4446
 1020MOL0     C37609   6.933   6.959   7.444  0.8806  0.3044  0.9823
 1020MOL0    Cl37610   6.779   6.859   7.460 -0.2544  0.4939  0.0980
 1020MOL0     C37611   6.310   7.389   8.062 -0.3418  0.3280  0.3886
 1020MOL0     C37612   6.185   7.434   8.097 -0.2531 -0.0532  0.2370
 1020MOL0     O37613   5.930   7.440   7.988  0.1895 -0.6702 -0.3553
 1020MOL0     C37614   5.771   7.651   8.228  0.8602  0.1894 -0.2302
 1020MOL0     C37615   5.645   7.674   8.280  0.5635 -0.7541 -0.9589
 1020MOL0     N37616   5.575   7.959   8.588  0.4821  0.7801 -0.2741
 1020MOL0     N37617   5.698   7.976   8.621  0.0279 -1.0963 -0.1684
 1020MOL0     C37618   6.794   8.292   9.274 -0.7040 -0.8797 -0.4665
 1020MOL0     C37619   6.860   8.405   9.314 -1.1761 -1.2010  0.4687
 1020MOL0     C37620   7.033   8.829   9.232 -0.3551 -0.2084  0.8115
 1020MOL0     C37621   7.036   8.958   9.166 -0.8869  0.5194  1.0048
 1020MOL0     C37622   7.075   9.067   9.240 -0.6338 -0.0357  0.0286
 1020MOL0     C37623   7.097   9.060   9.380  0.0235 -0.4765  0.2528
 1020MOL0     O37624   7.124   9.174   9.453 -0.2251 -0.0849  0.0075
 1020MOL0     C37625   7.243   9.159   9.525  1.1761  0.7865  0.4705
 1020MOL0     C37626   7.288   9.264   9.622 -0.8471 -0.2249 -0.0450
 1020MOL0     C37627   7.187   9.290   9.734  0.2290  0.3292  0.0059
 1020MOL0     C37628   7.250   9.327   9.865  0.7277 -0.8262  0.3800
 1020MOL0     C37629   7.284   9.466   9.888  0.6615  0.8556  0.8327
 1020MOL0     C37630   7.308   9.581   9.904  1.0485 -0.4576 -0.3892
 1020MOL0     C37631   7.084   8.937   9.444 -1.2961  0.5689  0.3827
 1020MOL0     C37632   7.062   8.821   9.372  0.5417 -0.0661 -0.5205
 1020MOL0     H37633   6.876   8.514   8.981  0.1449  0.2567  0.1106
 1020MOL0     H37634   6.736   8.303   8.950 -0.3214 -1.2125  0.1888
 1020MOL0     H37635   6.450   8.165   9.152  0.0242 -2.1976 -0.9709
 1020MOL0     H37636   6.525   8.282   9.028 -2.0085 -0.7330 -2.2200
 1020MOL0     H37637   6.572   8.095   8.888 -1.4841  1.2143 -1.2471
 1020MOL0     H37638   6.513   7.984   9.021  1.9059  0.2204  0.2155
 1020MOL0     H37639   6.333   8.202   8.920  0.4575 -0.3411 -0.5302
 1020MOL0     H37640   6.353   8.061   8.822 -2.2011  2.9873 -1.0934
 1020MOL0     H37641   6.263   7.948   9.046  1.2333 -0.4268 -1.6787
 1020MOL0     H37642   6.240   8.116   9.102  1.0704  2.6424 -1.9232
 1020MOL0     H37643   6.033   8.078   9.027 -2.9768  3.1509 -1.7051
 1020MOL0     H37644   6.103   8.160   8.891 -1.8307  0.0405  0.4785
 1020MOL0     H37645   6.125   7.912   8.781  0.9859 -0.4021  0.6515
 1020MOL0     H37646   6.086   7.851   8.944 -1.3085 -1.1212 -0.6971
 1020MOL0     H37647   5.884   7.915   8.926  0.6078 -0.3778 -0.5420
 1020MOL0     H37648   5.895   8.052   8.816  0.6147  0.7444 -1.8632
 1020MOL0     H37649   5.908   7.752   8.724 -0.0440 -0.7508  0.9286
 1020MOL0     H37650   5.940   7.904   8.631  1.2955  0.8061  1.2523
 1020MOL0     H37651   5.654   7.699   8.786 -0.0480  0.2405 -1.2360
 1020MOL0     H37652   5.369   7.823   8.803 -0.6957 -1.1215 -0.4440
 1020MOL0     H37653   5.327   7.879   8.651  1.5847  0.6940 -0.5612
 1020MOL0     H37654   5.226   7.688   8.646  0.2648  4.1414 -0.4096
 1020MOL0     H37655   5.365   7.597   8.719 -0.9303  1.0792  2.7124
 1020MOL0     H37656   5.328   7.529   8.489  1.0369  0.3550 -0.7600
 1020MOL0     H37657   5.489   7.598   8.501 -0.1880  1.0039 -1.2572
 1020MOL0     H37658   5.435   7.804   8.404  0.8835 -1.0082 -1.0602
 1020MOL0     H37659   5.263   7.768   8.401 -0.1666 -2.1801  2.2456
 1020MOL0     H37660   5.451   7.469   8.093 -0.9966  2.2971  1.3767
 1020MOL0     H37661   5.562   7.335   7.969  0.6587  0.3890  0.4045
 1020MOL0     H37662   5.701   7.409   7.889  0.6733 -1.0995 -0.6495
 1020MOL0     H37663   5.731   7.309   8.028 -0.1277  0.7547  0.4355
 1020MOL0     H37664   6.202   7.754   8.007 -0.4089 -0.6540 -0.9841
 1020MOL0     H37665   6.437   7.674   7.933 -1.5527  1.6898  0.2532
 1020MOL0     H37666   6.639   7.585   7.926 -3.1579 -0.2568 -0.9074
 1020MOL0     H37667   6.629   7.520   8.098 -4.4523 -0.7410  0.2407
 1020MOL0     H37668   6.848   7.476   7.966  1.0843 -1.3706 -1.1140
 1020MOL0     H37669   6.759   7.336   8.050 -3.8192  1.2736  1.6021
 1020MOL0     H37670   6.679   7.393   7.759 -0.1459 -0.7753  0.8497
 1020MOL0     H37671   6.728   7.244   7.838 -1.1120  0.0131  0.0462
 1020MOL0     H37672   6.923   7.471   7.772 -1.4879 -0.0641  3.8162
 1020MOL0     H37673   6.969   7.321   7.849 -1.5234 -3.7073 -0.6072
 1020MOL0     H37674   7.043   7.311   7.602  0.2571  0.3849  1.1852
 1020MOL0     H37675   6.884   7.343   7.553  0.5064  1.7467  0.8243
 1020MOL0     H37676   6.975   7.083   7.677  1.3424 -0.9209 -1.5309
 1020MOL0     H37677   6.796   7.118   7.654 -0.6527  1.8024  3.0363
 1020MOL0     H37678   7.003   7.159   7.442 -2.6310  1.7739 -0.9162
 1020MOL0     H37679   6.828   7.148   7.426 -0.6166 -1.3287 -0.4928
 1020MOL0     H37680   7.013   6.915   7.506  1.2359  2.4919  2.1834
 1020MOL0     H37681   6.964   6.941   7.341 -3.5345 -0.9444 -0.3415
 1020MOL0     H37682   6.331   7.283   8.074 -0.8559  0.0585 -0.9464
 1020MOL0     H37683   6.117   7.373   8.157  1.8690 -1.2138  1.5912
 1020MOL0     H37684   5.856   7.696   8.278 -0.8368  0.5513  2.5513
 1020MOL0     H37685   5.642   7.747   8.359 -0.0443 -0.5029 -1.2060
 1020MOL0     H37686   6.779   8.225   9.358  1.1383  1.8545  2.2390
 1020MOL0     H37687   6.897   8.441   9.409 -2.2233 -2.3506  1.3449
 1020MOL0     H37688   7.025   8.974   9.059 -2.6632  3.7125  1.5254
 1020MOL0     H37689   7.077   9.168   9.199  0.4379  0.3398  0.9529
 1020MOL0     H37690   7.233   9.069   9.586  0.0638  0.2099 -0.5258
 1020MOL0     H37691   7.325   9.153   9.453 -1.7774  3.6827 -3.5575
 1020MOL0     H37692   7.279   9.353   9.558 -0.4865 -0.8472 -0.9938
 1020MOL0     H37693   7.391   9.248   9.654 -0.1225  0.0058 -2.0722
 1020MOL0     H37694   7.121   9.205   9.753 -2.8494  2.4401 -0.3705
 1020MOL0     H37695   7.117   9.369   9.703  2.2197  3.0328  1.9860
 1020MOL0     H37696   7.348   9.280   9.877  1.8749  1.5592  0.8882
 1020MOL0     H37697   7.180   9.292   9.942  0.7390 -3.7568 -0.8125
 1020MOL0     H37698   7.322   9.687   9.918 -0.2205 -0.4469  1.0985
 1020MOL0     H37699   7.102   8.927   9.550 -1.9199 -2.3557  0.3057
 1020MOL0     H37700   7.055   8.728   9.427  1.3658  0.6948  0.9534
 1021MOL0     O37701   4.301   2.510   9.851 -0.4069 -0.2439 -0.8638
 1021MOL0     C37702   4.361   2.407   9.813  1.0026 -0.2465 -0.8370
 1021MOL0     O37703   4.309   2.275   9.834 -0.4962  0.0413  0.8566
 1021MOL0     C37704   4.194   2.274   9.909 -0.3184  0.3818 -0.1181
 1021MOL0     C37705   4.184   2.325  10.037  0.3321  0.4304  0.6024
 1021MOL0     C37706   4.058   2.321  10.103 -1.1240 -0.6880  0.2818
 1021MOL0     C37707   3.940   2.271  10.047 -0.2901 -0.5193 -0.1376
 1021MOL0     O37708   3.821   2.253  10.114 -0.5548  0.5710 -0.4855
 1021MOL0     C37709   3.783   2.349  10.209 -0.2307  0.9012 -0.2073
 1021MOL0     C37710   3.676   2.290  10.301 -0.1090 -0.9346  0.7455
 1021MOL0     C37711   3.724   2.157  10.369 -0.0814 -0.8180  0.2680
 1021MOL0     C37712   3.603   2.064  10.401  0.2860  0.4307  0.0685
 1021MOL0     C37713   3.616   1.940  10.497  0.0494 -0.5894  0.1095
 1021MOL0     C37714   3.642   1.986  10.642 -0.2428 -0.3455  0.7441
 1021MOL0     C37715   3.634   1.873  10.745  0.3966  0.1925  0.1224
 1021MOL0     C37716   3.629   1.917  10.894  0.2828 -0.0949  0.0817
 1021MOL0     N37717   3.487   1.957  10.936  0.2756 -0.2334  0.5298
 1021MOL0     C37718   3.442   1.921  11.058  0.0359  0.3377  0.0360
 1021MOL0     C37719   3.309   1.948  11.050  0.6506  0.0603 -0.8535
 1021MOL0     C37720   3.218   1.935  11.180 -0.2455 -0.4516 -0.3097
 1021MOL0     C37721   3.107   2.037  11.168  0.6184 -0.5020 -0.6754
 1021MOL0     C37722   3.026   2.050  11.302  0.0818  1.6002 -0.6104
 1021MOL0     C37723   2.958   2.185  11.305 -1.1512 -0.6253  0.1112
 1021MOL0     O37724   2.889   2.213  11.183  0.5533 -0.2177  0.2610
 1021MOL0     C37725   2.845   2.346  11.158  0.0911 -0.8719 -0.3083
 1021MOL0     C37726   2.778   2.373  11.033 -0.7943  0.8581 -0.4102
 1021MOL0     C37727   2.717   2.498  11.005  1.1089  0.1580  0.7879
 1021MOL0     C37728   2.643   2.511  10.872  0.4699 -0.2075 -1.1279
 1021MOL0     C37729   2.730   2.607  11.093  0.6270  0.9494  0.4034
 1021MOL0     C37730   2.677   2.739  11.077  1.2253  0.1924  1.2041
 1021MOL0     O37731   2.623   2.794  11.197 -0.0299 -0.0402 -0.4103
 1021MOL0     C37732   2.563   2.915  11.218  0.6279 -0.1322 -0.4834
 1021MOL0     C37733   2.528   3.008  11.118  0.3295 -0.2299  0.2938
 1021MOL0     C37734   2.456   3.116  11.157 -0.4305  0.3259 -0.3466
 1021MOL0     C37735   2.420   3.143  11.285  0.1355 -0.4948 -0.0226
 1021MOL0     O37736   2.347   3.251  11.333 -0.0365  0.2510 -0.2275
 1021MOL0     C37737   2.296   3.347  11.242  0.9880  0.2621  0.0109
 1021MOL0     C37738   2.398   3.455  11.204  0.1529  0.0624  0.7159
 1021MOL0     C37739   2.457   3.529  11.316 -0.0455 -0.5257 -0.6205
 1021MOL0     C37740   2.568   3.616  11.263 -0.4414 -0.5377 -0.5075
 1021MOL0     C37741   2.634   3.695  11.366 -0.0935 -0.5932 -1.1045
 1021MOL0     C37742   2.553   3.814  11.425 -0.5745 -0.3370  0.3285
 1021MOL0     C37743   2.504   3.911  11.330 -0.4475 -0.1520  0.6467
 1021MOL0     C37744   2.378   3.970  11.384 -0.5580 -0.1734  0.8661
 1021MOL0    Cl37745   2.235   3.860  11.383 -0.2675  0.1558  0.0085
 1021MOL0     C37746   2.467   3.060  11.383 -0.3244  0.8452  0.2891
 1021MOL0     C37747   2.543   2.949  11.351 -0.5560 -1.2429  0.4356
 1021MOL0     O37748   2.673   2.793  10.968  0.4164  0.0641  0.4556
 1021MOL0     C37749   2.804   2.582  11.209  0.4200 -1.3164  0.1044
 1021MOL0     C37750   2.856   2.457  11.246  0.7623  0.1264  0.7579
 1021MOL0     N37751   3.279   2.011  10.933 -0.0224  0.3561  0.2241
 1021MOL0     N37752   3.391   2.017  10.863 -0.3679 -0.3076 -0.3456
 1021MOL0     C37753   3.951   2.206   9.926  0.5746  0.4290  1.1630
 1021MOL0     C37754   4.071   2.223   9.850  0.2972  0.1620  1.2407
 1021MOL0     C37755   4.494   2.427   9.754 -0.6669  0.7319  0.0497
 1021MOL0     C37756   4.565   2.308   9.713 -0.2652 -0.3853 -0.6251
 1021MOL0     C37757   4.698   2.319   9.663  0.5715  0.4183 -0.1016
 1021MOL0     C37758   4.754   2.450   9.653 -0.3211 -0.9121 -0.5032
 1021MOL0     O37759   4.883   2.460   9.605 -0.1473  0.4871 -0.0414
 1021MOL0     C37760   4.987   2.506   9.704  0.4670  0.0722 -0.1467
 1021MOL0     C37761   4.957   2.635   9.781 -0.4005 -0.3716 -0.4719
 1021MOL0     C37762   5.093   2.681   9.854 -0.1172  0.4071 -0.0248
 1021MOL0     C37763   5.166   2.572   9.931 -0.3842 -0.6126  0.6834
 1021MOL0     C37764   5.300   2.598   9.988 -0.7814  0.5666 -0.1495
 1021MOL0     C37765   5.413   2.621  10.038 -0.7348  0.4901  0.4479
 1021MOL0     C37766   4.676   2.569   9.677  0.4140 -0.5694  0.1413
 1021MOL0     C37767   4.551   2.555   9.740  0.4349  0.3481  0.3462
 1021MOL0     H37768   4.272   2.362  10.090 -1.7279  5.5808  1.0247
 1021MOL0     H37769   4.055   2.368  10.201 -0.6785 -1.4558  0.6771
 1021MOL0     H37770   3.872   2.373  10.267  2.3044 -3.4389 -1.8248
 1021MOL0     H37771   3.743   2.438  10.158  0.7454  0.9529 -0.9054
 1021MOL0     H37772   3.662   2.365  10.379  0.8859  0.9061 -0.7474
 1021MOL0     H37773   3.581   2.279  10.247 -1.3889  1.1304  2.4199
 1021MOL0     H37774   3.799   2.105  10.307 -0.2382  3.4670 -4.1962
 1021MOL0     H37775   3.764   2.182  10.467 -2.5913  0.3865  1.0574
 1021MOL0     H37776   3.531   2.133  10.446 -0.0938 -0.2771  0.5560
 1021MOL0     H37777   3.570   2.026  10.304 -0.4274  1.5451 -0.1394
 1021MOL0     H37778   3.516   1.896  10.499 -1.7708  3.2495  1.3289
 1021MOL0     H37779   3.699   1.881  10.457 -0.1946  0.9100 -2.8751
 1021MOL0     H37780   3.733   2.043  10.662 -0.7137  0.3519  0.9322
 1021MOL0     H37781   3.564   2.061  10.661 -1.3851 -2.0153  3.2009
 1021MOL0     H37782   3.542   1.815  10.731  1.3490 -1.7916  1.5603
 1021MOL0     H37783   3.716   1.802  10.732 -0.4251 -0.7153 -0.2861
 1021MOL0     H37784   3.706   1.991  10.918 -1.6696  1.6302  1.2751
 1021MOL0     H37785   3.657   1.826  10.948 -0.8615  0.1380  1.0929
 1021MOL0     H37786   3.506   1.883  11.137  0.5302  1.8872  0.4196
 1021MOL0     H37787   3.167   1.838  11.180 -0.1871 -0.4848  0.1450
 1021MOL0     H37788   3.282   1.952  11.266 -1.8048  1.9937  0.4737
 1021MOL0     H37789   3.025   1.984  11.118 -2.9589  0.8816  3.1466
 1021MOL0     H37790   3.132   2.132  11.120 -0.1494 -0.3055 -0.6925
 1021MOL0     H37791   3.099   2.024  11.379 -1.3614 -0.2605  0.2317
 1021MOL0     H37792   2.952   1.969  11.302 -1.1209  2.6808 -0.6028
 1021MOL0     H37793   3.041   2.254  11.326 -3.0810  2.2499 -1.0396
 1021MOL0     H37794   2.888   2.180  11.388  0.0046  0.0777  1.1621
 1021MOL0     H37795   2.760   2.281  10.978  1.7722 -0.1878  0.3668
 1021MOL0     H37796   2.648   2.422  10.810  0.4500 -2.5705  2.0417
 1021MOL0     H37797   2.541   2.540  10.896  1.0390 -0.4602  1.9338
 1021MOL0     H37798   2.692   2.592  10.816 -1.5399  2.2919  0.5031
 1021MOL0     H37799   2.547   3.000  11.012 -2.3153 -0.6337 -0.2120
 1021MOL0     H37800   2.444   3.193  11.081 -1.8769 -0.7944 -1.3074
 1021MOL0     H37801   2.248   3.303  11.153  0.0156  0.3169  0.4956
 1021MOL0     H37802   2.212   3.398  11.289  0.3234  1.1983 -2.0368
 1021MOL0     H37803   2.467   3.399  11.140  0.7771 -1.9368  2.9857
 1021MOL0     H37804   2.351   3.520  11.130  0.3288 -2.8468 -2.1922
 1021MOL0     H37805   2.501   3.465  11.392 -0.2480  0.3383  0.2399
 1021MOL0     H37806   2.381   3.593  11.361  1.5445  2.4580 -1.8300
 1021MOL0     H37807   2.639   3.557  11.202 -0.2282  0.3727 -1.1624
 1021MOL0     H37808   2.535   3.690  11.189  3.3611 -0.5659 -2.4958
 1021MOL0     H37809   2.723   3.743  11.323  1.2524  1.6005  3.4835
 1021MOL0     H37810   2.667   3.623  11.441 -1.1541 -1.9996 -1.9449
 1021MOL0     H37811   2.479   3.770  11.493  0.6986  0.2036  2.1522
 1021MOL0     H37812   2.626   3.868  11.486 -1.6881  1.5024  0.0974
 1021MOL0     H37813   2.486   3.878  11.228  0.2609  3.0079 -0.6363
 1021MOL0     H37814   2.567   4.000  11.325 -0.0401 -0.5084 -0.8040
 1021MOL0     H37815   2.358   4.055  11.318  1.3682  0.6393  1.2531
 1021MOL0     H37816   2.391   4.020  11.480 -1.3457  1.7177  0.0419
 1021MOL0     H37817   2.447   3.084  11.487  0.9744  0.3911  0.6617
 1021MOL0     H37818   2.589   2.879  11.420  0.7176 -0.6888  0.1847
 1021MOL0     H37819   2.812   2.667  11.276 -1.1505 -0.3886 -0.8384
 1021MOL0     H37820   2.911   2.435  11.337  1.4155 -0.7793  0.1543
 1021MOL0     H37821   3.866   2.156   9.881  0.8357  1.0559 -0.0770
 1021MOL0     H37822   4.074   2.174   9.753  0.1287 -0.0252  1.3296
 1021MOL0     H37823   4.519   2.212   9.734 -0.7404 -0.1818 -0.7112
 1021MOL0     H37824   4.766   2.236   9.649  1.7733  1.2627  0.5158
 1021MOL0     H37825   5.005   2.426   9.776 -0.9294  2.2292  2.8543
 1021MOL0     H37826   5.073   2.541   9.647 -0.5306  1.6144 -0.7811
 1021MOL0     H37827   4.880   2.612   9.855 -1.7815 -1.7198 -2.2297
 1021MOL0     H37828   4.929   2.719   9.718 -1.7088 -1.7533 -1.8274
 1021MOL0     H37829   5.075   2.774   9.909  0.3828  2.5833 -3.2590
 1021MOL0     H37830   5.155   2.712   9.770  1.5360  1.5055  1.5054
 1021MOL0     H37831   5.179   2.479   9.876 -1.7779 -2.5782  3.4346
 1021MOL0     H37832   5.102   2.530  10.009  0.0869 -0.8270  0.9618
 1021MOL0     H37833   5.509   2.633  10.084  1.3655  0.0605 -3.3604
 1021MOL0     H37834   4.714   2.668   9.658  2.0322 -1.2051 -0.0588
 1021MOL0     H37835   4.501   2.641   9.783 -2.6343 -1.4497  0.6390
 1022MOL0     O37836   5.750   1.616   3.153 -0.0987  0.7719  0.6732
 1022MOL0     C37837   5.761   1.559   3.263  0.0987 -0.2135 -0.4427
 1022MOL0     O37838   5.733   1.608   3.385 -0.5798  0.3159 -0.6553
 1022MOL0     C37839   5.677   1.732   3.390 -0.4485  0.2374  1.1938
 1022MOL0     C37840   5.733   1.839   3.452 -0.1536 -0.3917 -0.4306
 1022MOL0     C37841   5.676   1.966   3.467 -0.1163  0.4258  0.8314
 1022MOL0     C37842   5.545   1.982   3.427 -0.0338 -0.3998 -0.1271
 1022MOL0     O37843   5.500   2.113   3.436  0.0927  1.2259 -0.2297
 1022MOL0     C37844   5.399   2.156   3.351  0.8698 -0.2851 -0.5912
 1022MOL0     C37845   5.286   2.201   3.439 -0.0510  0.1481  0.3908
 1022MOL0     C37846   5.340   2.310   3.535 -0.3481 -0.1300  0.8610
 1022MOL0     C37847   5.225   2.412   3.543 -0.2905  0.0743 -0.8330
 1022MOL0     C37848   5.262   2.532   3.630 -0.8431  0.1654  0.3095
 1022MOL0     C37849   5.245   2.498   3.786 -1.2798  0.0200  0.2182
 1022MOL0     C37850   5.268   2.622   3.865 -1.0051 -0.4617 -1.6324
 1022MOL0     C37851   5.209   2.619   4.008 -0.6762 -1.0391 -0.0351
 1022MOL0     N37852   5.253   2.736   4.086 -0.3213  0.0415  0.7185
 1022MOL0     C37853   5.254   2.864   4.039 -0.0988 -0.3758 -0.7892
 1022MOL0     C37854   5.333   2.944   4.119  1.4179  0.7592  1.0151
 1022MOL0     C37855   5.365   3.088   4.113  0.3614  0.5187  1.3064
 1022MOL0     C37856   5.326   3.155   4.245 -0.3982  0.2099 -0.8166
 1022MOL0     C37857   5.173   3.158   4.290  0.1629 -0.1925  0.5117
 1022MOL0     C37858   5.135   3.031   4.364  0.4703  0.0047  0.4326
 1022MOL0     O37859   5.027   3.056   4.458  1.0179 -0.5105 -0.5509
 1022MOL0     C37860   5.044   3.089   4.590  1.2818  0.1493 -0.8343
 1022MOL0     C37861   5.164   3.133   4.645 -1.2602  0.0432 -0.6573
 1022MOL0     C37862   5.180   3.179   4.775  0.1670 -0.7862  0.5791
 1022MOL0     C37863   5.327   3.211   4.825 -0.4397 -1.2181  0.2645
 1022MOL0     C37864   5.063   3.177   4.855  0.7684  0.3035  0.0184
 1022MOL0     C37865   5.063   3.215   4.998 -0.1225  0.3629  0.3069
 1022MOL0     O37866   4.942   3.267   5.047 -0.5106 -1.0417  1.0412
 1022MOL0     C37867   4.930   3.281   5.184  0.3173 -0.9586 -0.4603
 1022MOL0     C37868   4.985   3.389   5.250  0.4557  0.9397  0.7292
 1022MOL0     C37869   4.970   3.402   5.390 -0.2329 -0.0187 -0.4757
 1022MOL0     C37870   4.907   3.303   5.464 -0.1747  0.2209  0.1095
 1022MOL0     O37871   4.899   3.331   5.602 -0.1844 -0.2443  0.0993
 1022MOL0     C37872   4.791   3.273   5.675 -0.2126 -0.4680 -0.6397
 1022MOL0     C37873   4.795   3.334   5.816  0.9552 -0.8873 -0.3928
 1022MOL0     C37874   4.933   3.329   5.896  0.3958  0.6849  0.9421
 1022MOL0     C37875   4.920   3.364   6.045 -0.6853 -0.4710 -0.5284
 1022MOL0     C37876   4.899   3.509   6.067  0.2158  0.8010  0.9923
 1022MOL0     C37877   4.900   3.539   6.223  0.5238  0.3447  0.3169
 1022MOL0     C37878   5.031   3.557   6.297  0.1626 -0.4702  0.7596
 1022MOL0     C37879   5.092   3.696   6.288 -0.4855  0.0644  0.4423
 1022MOL0    Cl37880   5.244   3.694   6.398 -0.1396  0.3652  0.2748
 1022MOL0     C37881   4.843   3.197   5.399  0.2507 -0.2308 -0.6502
 1022MOL0     C37882   4.851   3.190   5.260  0.3970 -0.1828 -0.1498
 1022MOL0     O37883   5.166   3.199   5.062 -0.9450  0.2489  0.0116
 1022MOL0     C37884   4.935   3.137   4.807 -0.2304 -0.0173  0.1066
 1022MOL0     C37885   4.933   3.082   4.675 -0.3395 -0.8723 -0.7534
 1022MOL0     N37886   5.393   2.850   4.199  0.0964 -0.3337 -0.7589
 1022MOL0     N37887   5.341   2.735   4.181 -0.0461 -0.7558 -0.4765
 1022MOL0     C37888   5.477   1.862   3.382  0.3011 -0.3464 -1.0861
 1022MOL0     C37889   5.547   1.747   3.363  0.9444 -0.6870  0.4282
 1022MOL0     C37890   5.804   1.421   3.259  0.8370  0.9345  0.2479
 1022MOL0     C37891   5.756   1.332   3.161 -0.4203  0.3884  0.5634
 1022MOL0     C37892   5.802   1.202   3.156 -0.6997  0.1926 -0.7719
 1022MOL0     C37893   5.903   1.157   3.249  0.1948 -0.2129  0.0392
 1022MOL0     O37894   5.943   1.021   3.246  0.1709  0.2296  0.4189
 1022MOL0     C37895   5.994   0.968   3.371  0.6937 -0.5596 -0.2778
 1022MOL0     C37896   5.984   0.820   3.378  0.7723 -0.5677  0.6216
 1022MOL0     C37897   5.844   0.764   3.416 -0.0039  0.6338  0.1336
 1022MOL0     C37898   5.839   0.771   3.571  0.8958 -1.2707  0.3761
 1022MOL0     C37899   5.702   0.754   3.617  1.4303 -0.2170 -0.0957
 1022MOL0     C37900   5.584   0.742   3.657 -0.5488  0.4631 -0.8459
 1022MOL0     C37901   5.954   1.249   3.344 -0.6176  0.4607 -0.1682
 1022MOL0     C37902   5.897   1.380   3.342 -0.1942  0.4135 -0.2060
 1022MOL0     H37903   5.835   1.827   3.488  1.0235  3.3431 -1.9268
 1022MOL0     H37904   5.748   2.039   3.505  1.1995  0.0423 -0.7896
 1022MOL0     H37905   5.435   2.249   3.305 -3.5732  2.8231  1.4203
 1022MOL0     H37906   5.386   2.079   3.275  0.8309 -0.4392 -0.4305
 1022MOL0     H37907   5.198   2.223   3.377 -0.4646 -3.9118 -0.7732
 1022MOL0     H37908   5.257   2.113   3.497  0.4052  0.9376  1.8635
 1022MOL0     H37909   5.370   2.261   3.628 -0.6234 -1.2787  0.3629
 1022MOL0     H37910   5.433   2.349   3.493 -0.6005 -2.0853 -1.7732
 1022MOL0     H37911   5.192   2.456   3.449  0.0559  0.5814 -0.7176
 1022MOL0     H37912   5.130   2.370   3.580  1.0045  0.5954  3.7425
 1022MOL0     H37913   5.351   2.582   3.593 -0.3931  0.0104  1.1729
 1022MOL0     H37914   5.194   2.611   3.598 -2.7171 -0.9205  1.4234
 1022MOL0     H37915   5.151   2.447   3.805 -0.5503 -0.7560  2.0459
 1022MOL0     H37916   5.321   2.429   3.824  0.4313  1.5148 -0.2855
 1022MOL0     H37917   5.376   2.639   3.878 -0.9757 -2.5616  2.9661
 1022MOL0     H37918   5.217   2.712   3.830  0.2959  2.0247  2.2016
 1022MOL0     H37919   5.237   2.522   4.051 -1.0242 -0.2385  2.1577
 1022MOL0     H37920   5.100   2.613   4.009 -0.7547 -0.0506 -0.7131
 1022MOL0     H37921   5.200   2.906   3.955 -0.2228 -0.1588 -0.6016
 1022MOL0     H37922   5.473   3.102   4.099  0.6979 -1.5796  1.5461
 1022MOL0     H37923   5.307   3.135   4.033  0.6570  0.9565  1.3446
 1022MOL0     H37924   5.363   3.257   4.230  0.2873 -0.1910 -1.9904
 1022MOL0     H37925   5.388   3.127   4.331  0.5874  2.2100 -0.8214
 1022MOL0     H37926   5.106   3.172   4.205  0.6228 -6.2109 -1.2873
 1022MOL0     H37927   5.162   3.244   4.356 -2.1767  1.7722 -2.2125
 1022MOL0     H37928   5.222   2.988   4.415  0.4700 -0.0305  0.4038
 1022MOL0     H37929   5.095   2.951   4.301  2.2050  1.2144 -2.4058
 1022MOL0     H37930   5.254   3.130   4.585 -0.0551 -1.6220  1.1262
 1022MOL0     H37931   5.390   3.216   4.735  0.4273 -2.5150  0.7666
 1022MOL0     H37932   5.329   3.308   4.875  0.1903 -0.4141 -1.2345
 1022MOL0     H37933   5.364   3.132   4.890 -2.7822 -0.9879  2.0205
 1022MOL0     H37934   5.023   3.469   5.186 -1.5519  1.8046  0.5355
 1022MOL0     H37935   5.008   3.497   5.424  0.0743  0.1898 -1.3616
 1022MOL0     H37936   4.693   3.283   5.627 -0.6651 -0.4189  0.2655
 1022MOL0     H37937   4.819   3.167   5.681  4.3506  0.5091 -0.9777
 1022MOL0     H37938   4.781   3.442   5.824  0.2831 -1.1015  3.2166
 1022MOL0     H37939   4.716   3.283   5.872 -0.0431 -0.6362 -1.5497
 1022MOL0     H37940   5.000   3.388   5.833  0.6928  1.2360  1.7643
 1022MOL0     H37941   4.971   3.226   5.905 -0.3975  0.4025  1.1654
 1022MOL0     H37942   4.845   3.304   6.097 -0.4880 -0.9692 -0.8173
 1022MOL0     H37943   5.014   3.322   6.081 -0.2158 -0.4286 -1.6784
 1022MOL0     H37944   4.796   3.525   6.036 -0.0623  1.3900  2.1623
 1022MOL0     H37945   4.979   3.567   6.019  2.6233  0.6789  4.5033
 1022MOL0     H37946   4.841   3.628   6.244 -0.0897  0.3319 -1.2453
 1022MOL0     H37947   4.853   3.450   6.265 -1.4932  0.7613 -0.9455
 1022MOL0     H37948   5.104   3.479   6.271  0.9617  0.2853  0.6881
 1022MOL0     H37949   5.006   3.542   6.403 -3.1018  0.1246  0.1540
 1022MOL0     H37950   5.016   3.768   6.322 -1.4722 -1.0097  0.5750
 1022MOL0     H37951   5.124   3.720   6.186 -1.0446  0.5094  0.3656
 1022MOL0     H37952   4.777   3.124   5.446  1.3771 -0.7039  0.2397
 1022MOL0     H37953   4.790   3.110   5.218  0.8338 -2.9397  3.8995
 1022MOL0     H37954   4.852   3.147   4.877  0.3151  3.3404  0.4373
 1022MOL0     H37955   4.837   3.049   4.637 -0.5617 -0.6929 -0.3634
 1022MOL0     H37956   5.372   1.885   3.369 -0.6840 -1.9048  2.7050
 1022MOL0     H37957   5.482   1.667   3.330 -1.1179  0.5652  1.2189
 1022MOL0     H37958   5.681   1.360   3.088  1.4425 -2.6353 -2.8478
 1022MOL0     H37959   5.757   1.120   3.101  0.5382 -2.8659  2.4094
 1022MOL0     H37960   6.102   0.986   3.379  0.6280 -0.3766  0.2567
 1022MOL0     H37961   5.948   1.018   3.457  0.6127 -0.3715 -0.4294
 1022MOL0     H37962   6.065   0.780   3.440  3.2093 -0.1207 -2.0593
 1022MOL0     H37963   5.994   0.786   3.274 -3.7879 -0.7942  0.0864
 1022MOL0     H37964   5.822   0.665   3.375 -1.7675  1.0287  0.0489
 1022MOL0     H37965   5.772   0.835   3.375  2.2905  3.3542  0.5154
 1022MOL0     H37966   5.881   0.862   3.614  0.2490  0.1442 -1.8384
 1022MOL0     H37967   5.881   0.673   3.595 -1.8538 -3.1117 -1.7155
 1022MOL0     H37968   5.490   0.719   3.701 -1.1271  3.8120 -0.0128
 1022MOL0     H37969   6.037   1.240   3.413 -0.7883  1.6491  0.2162
 1022MOL0     H37970   5.934   1.456   3.410 -1.0694  0.1895  0.5368
 1023MOL0     O37971   1.518   2.031   3.793  1.1669 -0.5201  0.7981
 1023MOL0     C37972   1.471   1.972   3.889 -0.2034 -0.1553  0.2023
 1023MOL0     O37973   1.433   2.030   4.007  0.0069 -0.0206 -0.0075
 1023MOL0     C37974   1.486   2.159   4.027 -0.9729  0.1668 -0.4794
 1023MOL0     C37975   1.412   2.279   4.012 -0.2546 -0.3271  0.0463
 1023MOL0     C37976   1.473   2.400   4.049 -0.3873  0.7809 -0.0487
 1023MOL0     C37977   1.607   2.402   4.087  0.3223  0.2798 -0.6415
 1023MOL0     O37978   1.648   2.531   4.116 -0.1588 -0.3300  0.2365
 1023MOL0     C37979   1.792   2.545   4.106 -0.4555 -0.3981 -0.1673
 1023MOL0     C37980   1.828   2.681   4.164  0.1557  0.3497 -0.3250
 1023MOL0     C37981   1.797   2.788   4.058  0.9964 -0.9354 -0.3671
 1023MOL0     C37982   1.761   2.918   4.130 -0.0540 -0.4691  0.1976
 1023MOL0     C37983   1.750   3.041   4.037  0.2480  0.4318 -0.6671
 1023MOL0     C37984   1.714   3.180   4.094  0.0411  0.5895 -0.7244
 1023MOL0     C37985   1.799   3.230   4.206 -0.0314  0.3513 -0.1045
 1023MOL0     C37986   1.739   3.368   4.239 -0.1093  0.2131  0.4469
 1023MOL0     N37987   1.776   3.433   4.357 -0.1452 -0.0600  0.8626
 1023MOL0     C37988   1.712   3.420   4.475 -0.9145 -0.5312  0.6038
 1023MOL0     C37989   1.774   3.505   4.557  0.5084 -0.6447  0.6669
 1023MOL0     C37990   1.725   3.514   4.702 -0.1036 -0.8748  0.3575
 1023MOL0     C37991   1.772   3.659   4.752 -0.9555  0.4699 -0.2832
 1023MOL0     C37992   1.741   3.673   4.899  0.5695 -0.4207 -0.0407
 1023MOL0     C37993   1.786   3.815   4.962 -0.1043  0.0188 -0.7662
 1023MOL0     O37994   1.927   3.826   4.971 -0.3288 -0.1189  0.0437
 1023MOL0     C37995   1.979   3.901   5.066 -1.1357  0.4311 -0.2910
 1023MOL0     C37996   2.113   3.878   5.114  0.4029 -0.3937  0.9976
 1023MOL0     C37997   2.183   3.968   5.194 -0.5638  0.7946 -0.3882
 1023MOL0     C37998   2.328   3.924   5.231  0.3551  0.5737 -0.1142
 1023MOL0     C37999   2.115   4.080   5.248  0.3414  0.9842  0.5382
 1023MOL0     C38000   2.173   4.183   5.353  0.3846  0.2775  0.3600
 1023MOL0     O38001   2.311   4.198   5.352 -0.3957  1.4093  0.2287
 1023MOL0     C38002   2.367   4.326   5.385 -0.0783 -0.9702  0.1241
 1023MOL0     C38003   2.312   4.456   5.372 -0.3341  0.2034  0.5908
 1023MOL0     C38004   2.375   4.569   5.415  0.0471 -0.7079 -0.2539
 1023MOL0     C38005   2.505   4.573   5.457  0.2983 -0.0746 -0.2746
 1023MOL0     O38006   2.578   4.685   5.469 -0.3035 -0.4150  0.7575
 1023MOL0     C38007   2.561   4.781   5.365 -0.1491  0.4901  0.0413
 1023MOL0     C38008   2.467   4.908   5.380 -0.8542 -0.3589 -0.6695
 1023MOL0     C38009   2.485   4.990   5.509 -0.3473 -0.0577 -0.8344
 1023MOL0     C38010   2.623   5.059   5.513 -0.0261  0.0827 -0.0601
 1023MOL0     C38011   2.653   5.148   5.634 -0.5395 -0.4220 -0.2388
 1023MOL0     C38012   2.617   5.087   5.774 -0.2683 -0.3291  0.1686
 1023MOL0     C38013   2.681   4.947   5.799 -0.2329 -0.2398  0.3262
 1023MOL0     C38014   2.610   4.886   5.922  0.0020 -1.1375 -1.0539
 1023MOL0    Cl38015   2.701   4.930   6.081  0.0669  0.1495 -0.2393
 1023MOL0     C38016   2.565   4.448   5.468 -0.1855  0.4887  0.3156
 1023MOL0     C38017   2.499   4.331   5.436 -0.5365  0.1537  0.1662
 1023MOL0     O38018   2.088   4.262   5.398  0.1862  0.6235 -0.4706
 1023MOL0     C38019   1.979   4.093   5.215 -0.7588  0.0263 -0.2723
 1023MOL0     C38020   1.921   4.017   5.116  0.7180 -0.1953 -0.2363
 1023MOL0     N38021   1.887   3.563   4.496  0.2158  0.0961  0.1565
 1023MOL0     N38022   1.883   3.515   4.377 -0.3361 -0.1957  0.7309
 1023MOL0     C38023   1.682   2.280   4.090 -0.1297 -0.1294 -0.6573
 1023MOL0     C38024   1.626   2.160   4.066 -0.4404 -0.0280 -0.6504
 1023MOL0     C38025   1.430   1.828   3.868 -0.0248  0.2165  0.0759
 1023MOL0     C38026   1.419   1.765   3.745 -1.0288 -0.0324 -1.0894
 1023MOL0     C38027   1.408   1.623   3.731  0.1438 -0.4745 -0.3929
 1023MOL0     C38028   1.405   1.545   3.852 -1.3708 -0.5027  0.9138
 1023MOL0     O38029   1.394   1.409   3.859  0.1038  0.1136  0.6927
 1023MOL0     C38030   1.506   1.334   3.807 -0.0639  0.2865  0.2732
 1023MOL0     C38031   1.524   1.206   3.888 -0.5768  0.6634 -0.3784
 1023MOL0     C38032   1.660   1.137   3.859 -0.5768  0.4436 -0.0271
 1023MOL0     C38033   1.661   0.988   3.859  0.1912  0.5368  0.1416
 1023MOL0     C38034   1.647   0.941   3.995 -1.2242  0.9779  0.6921
 1023MOL0     C38035   1.626   0.920   4.110 -0.5956 -0.0867 -0.5053
 1023MOL0     C38036   1.404   1.613   3.973 -0.4108  0.3496 -0.2881
 1023MOL0     C38037   1.412   1.751   3.983 -0.2351 -0.7545 -0.1567
 1023MOL0     H38038   1.310   2.278   3.974  0.0826  0.9263 -0.9427
 1023MOL0     H38039   1.418   2.492   4.069  1.9627  1.8306  2.2258
 1023MOL0     H38040   1.846   2.477   4.172  2.2050 -0.2112 -1.9833
 1023MOL0     H38041   1.833   2.530   4.005  0.2628 -0.7873  0.1726
 1023MOL0     H38042   1.767   2.700   4.253  0.2722  0.7771 -0.3368
 1023MOL0     H38043   1.936   2.689   4.176  0.0563  1.0609  0.1567
 1023MOL0     H38044   1.879   2.808   3.989  0.1486  1.1461 -0.8517
 1023MOL0     H38045   1.708   2.759   4.001  0.8189 -0.6123 -0.2617
 1023MOL0     H38046   1.663   2.904   4.177  0.0627  0.0574  0.6158
 1023MOL0     H38047   1.846   2.927   4.199  0.7672  0.1920 -0.8625
 1023MOL0     H38048   1.849   3.050   3.992  0.3000  1.1246 -0.4130
 1023MOL0     H38049   1.674   3.003   3.968  1.5328 -1.9558 -0.8738
 1023MOL0     H38050   1.694   3.249   4.011  3.5529  2.5752 -0.0892
 1023MOL0     H38051   1.612   3.172   4.133 -1.2604 -2.8112 -4.0686
 1023MOL0     H38052   1.789   3.161   4.291 -3.1745  0.8932  0.0874
 1023MOL0     H38053   1.901   3.260   4.180 -0.4279 -0.1795 -2.4481
 1023MOL0     H38054   1.629   3.366   4.233 -0.0105 -0.7555 -3.3281
 1023MOL0     H38055   1.772   3.431   4.155 -2.2070  0.1995 -0.4547
 1023MOL0     H38056   1.625   3.357   4.492 -0.7430 -1.9542 -2.9110
 1023MOL0     H38057   1.616   3.519   4.706 -0.1096  0.7144 -0.9836
 1023MOL0     H38058   1.762   3.430   4.761 -0.8389 -2.0431 -0.8018
 1023MOL0     H38059   1.731   3.747   4.703 -1.2266  0.1468 -0.6426
 1023MOL0     H38060   1.879   3.657   4.729 -1.6139  1.4705 -4.1611
 1023MOL0     H38061   1.789   3.602   4.967  0.2939  0.3645  1.0052
 1023MOL0     H38062   1.634   3.651   4.903  0.7453 -1.1974  1.7706
 1023MOL0     H38063   1.735   3.822   5.058  0.1924 -0.8991 -0.5311
 1023MOL0     H38064   1.743   3.903   4.912 -1.0666  0.1193  0.1933
 1023MOL0     H38065   2.155   3.805   5.045 -1.5331  0.1335 -0.8480
 1023MOL0     H38066   2.392   4.013   5.229 -0.8759  1.4980  0.2887
 1023MOL0     H38067   2.336   3.874   5.328  0.0305 -1.6780 -1.1909
 1023MOL0     H38068   2.362   3.860   5.149 -1.1099 -3.4215  2.1061
 1023MOL0     H38069   2.215   4.478   5.329 -1.1558 -1.0038  1.7648
 1023MOL0     H38070   2.314   4.658   5.418 -0.4406 -1.0526  0.4250
 1023MOL0     H38071   2.668   4.804   5.361  0.2674 -0.2455  3.6308
 1023MOL0     H38072   2.538   4.737   5.268 -1.3802 -2.2526  1.4845
 1023MOL0     H38073   2.470   4.966   5.287 -3.1857  2.1776  0.6840
 1023MOL0     H38074   2.375   4.849   5.388 -0.1094 -1.3224  1.6003
 1023MOL0     H38075   2.486   4.919   5.592 -0.2950 -0.9297 -1.5710
 1023MOL0     H38076   2.410   5.070   5.508  1.8500  2.1314 -1.4566
 1023MOL0     H38077   2.696   4.977   5.514  0.1379  0.2025  2.0086
 1023MOL0     H38078   2.646   5.116   5.422  0.0544 -0.7538 -0.5691
 1023MOL0     H38079   2.614   5.250   5.640  1.2420  0.2441  0.9400
 1023MOL0     H38080   2.760   5.169   5.631 -0.7036  1.3867  2.4433
 1023MOL0     H38081   2.658   5.162   5.843 -0.3953 -0.0159 -0.0921
 1023MOL0     H38082   2.508   5.082   5.784 -0.8324  0.3802 -3.8758
 1023MOL0     H38083   2.789   4.952   5.817  0.1461  1.1469 -1.9994
 1023MOL0     H38084   2.662   4.875   5.720 -2.0909  0.5864 -0.0299
 1023MOL0     H38085   2.600   4.778   5.910  2.1197 -1.5303  0.1641
 1023MOL0     H38086   2.505   4.916   5.926  0.1352 -0.1853 -3.3709
 1023MOL0     H38087   2.671   4.432   5.484 -0.8946 -3.8019  2.0559
 1023MOL0     H38088   2.538   4.229   5.439 -1.4407 -0.3830 -2.7647
 1023MOL0     H38089   1.910   4.164   5.261  1.1491  0.8365  1.4646
 1023MOL0     H38090   1.818   4.041   5.092  0.4401 -2.8841 -2.1626
 1023MOL0     H38091   1.788   2.269   4.108 -0.4792 -1.8251  0.6111
 1023MOL0     H38092   1.679   2.067   4.087 -1.0398  0.0727  1.5256
 1023MOL0     H38093   1.439   1.814   3.651  0.9840 -3.9153 -2.8852
 1023MOL0     H38094   1.388   1.574   3.636 -2.0862 -2.4814  0.9862
 1023MOL0     H38095   1.493   1.299   3.704  0.5988 -3.8160  1.3959
 1023MOL0     H38096   1.596   1.395   3.810 -0.5438  1.1800 -1.9017
 1023MOL0     H38097   1.459   1.128   3.850  3.8871 -2.9858 -1.4528
 1023MOL0     H38098   1.507   1.229   3.994 -0.1444 -0.4548 -0.0476
 1023MOL0     H38099   1.726   1.172   3.939 -1.8178 -0.4684  1.4500
 1023MOL0     H38100   1.697   1.180   3.766 -2.2306  0.2444 -0.8174
 1023MOL0     H38101   1.749   0.945   3.811 -2.1623 -1.1043 -3.1281
 1023MOL0     H38102   1.570   0.953   3.809  0.2919  1.5600 -0.7828
 1023MOL0     H38103   1.602   0.897   4.212  0.7012 -0.4835 -0.2694
 1023MOL0     H38104   1.386   1.544   4.056 -3.3186  3.9278  2.4316
 1023MOL0     H38105   1.419   1.794   4.082 -2.1477 -4.6110  1.8662
 1024MOL0     O38106   1.377   8.128   4.338  0.0714  0.3486 -0.0240
 1024MOL0     C38107   1.269   8.173   4.327  0.3650  0.2434  0.5401
 1024MOL0     O38108   1.222   8.281   4.393  0.2181  0.0641  0.7498
 1024MOL0     C38109   1.258   8.274   4.526 -0.4168  0.4579  0.6370
 1024MOL0     C38110   1.191   8.178   4.599 -0.1750  0.3685  0.0450
 1024MOL0     C38111   1.203   8.174   4.738 -0.0950  0.7819  1.2638
 1024MOL0     C38112   1.288   8.253   4.808  0.3848  0.3763  0.0426
 1024MOL0     O38113   1.269   8.244   4.940 -0.0726  0.3137 -0.6294
 1024MOL0     C38114   1.384   8.194   5.012  0.1018 -0.5328  1.0277
 1024MOL0     C38115   1.492   8.300   5.033  0.6691 -0.0082  0.6349
 1024MOL0     C38116   1.446   8.428   5.107 -0.0969  0.1193  0.7579
 1024MOL0     C38117   1.302   8.476   5.095  0.4900 -1.4028  0.8244
 1024MOL0     C38118   1.268   8.608   5.156 -0.8059 -0.0802 -0.3920
 1024MOL0     C38119   1.159   8.684   5.078 -0.0780 -0.0780  0.1945
 1024MOL0     C38120   1.017   8.612   5.077 -0.2682  0.2503  0.2223
 1024MOL0     C38121   0.916   8.730   5.038 -0.0414  0.5472 -1.0569
 1024MOL0     N38122   0.779   8.685   5.039  0.1619  0.8212 -0.4179
 1024MOL0     C38123   0.689   8.742   4.940 -0.1210  0.3694 -0.7770
 1024MOL0     C38124   0.570   8.688   4.978  0.3989 -0.0677  0.7905
 1024MOL0     C38125   0.432   8.694   4.913  1.0008 -0.4900  0.3223
 1024MOL0     C38126   0.418   8.599   4.792  0.4424  0.5669 -0.3906
 1024MOL0     C38127   0.444   8.453   4.829 -0.5540  0.0333 -0.2789
 1024MOL0     C38128   0.396   8.361   4.722 -0.4679 -0.5280  0.1312
 1024MOL0     O38129   0.255   8.353   4.731 -0.4844  0.4273 -0.0712
 1024MOL0     C38130   0.196   8.248   4.660  0.0719 -0.0669 -1.3378
 1024MOL0     C38131   0.062   8.219   4.681  0.1372  0.2417 -0.0775
 1024MOL0     C38132  -0.010   8.112   4.625  0.3800 -0.2976  0.3451
 1024MOL0     C38133  -0.157   8.095   4.642  0.7312 -0.6538  0.7968
 1024MOL0     C38134   0.062   8.025   4.541  0.3785 -0.6129 -0.0333
 1024MOL0     C38135   0.012   7.892   4.495  0.2149 -0.2874 -0.9518
 1024MOL0     O38136   0.054   7.851   4.362 -0.2738 -0.3394 -0.3965
 1024MOL0     C38137   0.005   7.724   4.319  0.0935  0.6657 -0.8799
 1024MOL0     C38138  -0.124   7.665   4.338 -0.8918  0.9523 -0.3096
 1024MOL0     C38139  -0.176   7.561   4.261  0.3185  0.3269  0.3191
 1024MOL0     C38140  -0.095   7.500   4.169  0.1336 -0.2095 -0.1475
 1024MOL0     O38141  -0.133   7.390   4.104  0.1361 -0.8991  0.0878
 1024MOL0     C38142  -0.254   7.412   4.029 -0.3053 -0.3558 -0.4108
 1024MOL0     C38143  -0.270   7.310   3.917 -0.3315  0.5032  0.5779
 1024MOL0     C38144  -0.410   7.326   3.862 -1.0044 -0.1245 -0.3986
 1024MOL0     C38145  -0.413   7.248   3.731 -0.8765  0.4278 -0.6432
 1024MOL0     C38146  -0.536   7.252   3.651  0.1996  0.0592 -0.3976
 1024MOL0     C38147  -0.644   7.146   3.713 -0.6036  0.2496  0.5977
 1024MOL0     C38148  -0.785   7.183   3.671 -0.1172 -0.0666  0.6424
 1024MOL0     C38149  -0.874   7.258   3.778 -0.3764  0.3999 -0.3110
 1024MOL0    Cl38150  -0.938   7.142   3.896  0.2375  0.2654  0.2695
 1024MOL0     C38151   0.025   7.555   4.136 -0.6452  0.3017  0.5081
 1024MOL0     C38152   0.063   7.673   4.203  0.3408 -0.1668  0.0108
 1024MOL0     O38153  -0.053   7.814   4.570  0.2668  0.4159 -0.1311
 1024MOL0     C38154   0.194   8.053   4.510 -0.4856 -0.5969  0.6245
 1024MOL0     C38155   0.259   8.162   4.569  0.9233 -0.4453 -0.5794
 1024MOL0     N38156   0.590   8.609   5.090 -0.7759  0.8821  0.3605
 1024MOL0     N38157   0.711   8.609   5.129 -0.3311 -0.1906 -0.2834
 1024MOL0     C38158   1.359   8.346   4.734 -1.0001 -0.2958 -0.2983
 1024MOL0     C38159   1.358   8.352   4.591 -0.4280 -0.2939 -0.4704
 1024MOL0     C38160   1.185   8.104   4.229  0.3633  0.0301  0.6373
 1024MOL0     C38161   1.051   8.142   4.232  0.2893 -0.1500 -0.0324
 1024MOL0     C38162   0.962   8.085   4.138  0.2496  0.7191  0.7641
 1024MOL0     C38163   0.998   7.981   4.056 -0.8500  0.2684  0.3282
 1024MOL0     O38164   0.902   7.919   3.986  0.0883  0.3528  0.4757
 1024MOL0     C38165   0.937   7.798   3.907 -0.3868 -0.3397  0.0507
 1024MOL0     C38166   0.810   7.736   3.861 -0.9358  1.6139  0.0370
 1024MOL0     C38167   0.837   7.612   3.777 -1.6984 -0.3866  0.9756
 1024MOL0     C38168   0.722   7.560   3.706 -0.7261  0.3515 -0.6288
 1024MOL0     C38169   0.696   7.633   3.591  0.3362 -0.7436 -0.0475
 1024MOL0     C38170   0.698   7.691   3.483  0.4995  0.0103  0.2863
 1024MOL0     C38171   1.137   7.932   4.067  0.0744 -0.7617 -0.4709
 1024MOL0     C38172   1.225   7.990   4.157  0.1783 -0.0378  0.4319
 1024MOL0     H38173   1.116   8.118   4.548 -1.5499  2.0490 -0.0239
 1024MOL0     H38174   1.131   8.113   4.791 -0.5128  0.3842  0.2676
 1024MOL0     H38175   1.366   8.139   5.105  0.6096 -2.3033  0.1252
 1024MOL0     H38176   1.429   8.123   4.942 -0.6861  0.2991 -0.3789
 1024MOL0     H38177   1.565   8.251   5.099  0.7643  1.8675  1.9914
 1024MOL0     H38178   1.525   8.322   4.931 -2.2271 -0.1899 -0.4174
 1024MOL0     H38179   1.478   8.432   5.212  4.1201  0.8195 -0.3730
 1024MOL0     H38180   1.516   8.500   5.063  1.0630 -0.7868  1.0724
 1024MOL0     H38181   1.274   8.481   4.989 -0.6998  0.0807  1.1757
 1024MOL0     H38182   1.235   8.406   5.146  0.3006 -3.4600 -1.9911
 1024MOL0     H38183   1.247   8.600   5.263  2.2084  1.1390  0.3995
 1024MOL0     H38184   1.356   8.673   5.164 -0.9667 -0.0382  1.6407
 1024MOL0     H38185   1.140   8.781   5.126 -0.1908  1.4832 -2.8048
 1024MOL0     H38186   1.190   8.694   4.974  0.9015 -0.9493  0.3843
 1024MOL0     H38187   1.004   8.519   5.021  0.0139 -1.6549  3.1057
 1024MOL0     H38188   0.995   8.572   5.176  0.5892 -1.9078 -0.4068
 1024MOL0     H38189   0.943   8.790   4.951 -0.2891  0.0230 -1.4969
 1024MOL0     H38190   0.922   8.804   5.118  2.6047  0.5976 -1.2359
 1024MOL0     H38191   0.714   8.810   4.859  1.5642  2.2837  1.2223
 1024MOL0     H38192   0.349   8.665   4.979 -1.3546  1.0366 -1.7584
 1024MOL0     H38193   0.401   8.793   4.877 -1.8070 -2.0765 -2.0683
 1024MOL0     H38194   0.477   8.636   4.708 -0.8211  1.7459 -0.7843
 1024MOL0     H38195   0.322   8.614   4.742  0.4760  2.9619  0.1357
 1024MOL0     H38196   0.395   8.430   4.923  0.6305 -1.0853  0.1023
 1024MOL0     H38197   0.551   8.445   4.850 -0.8013 -1.1414  0.6126
 1024MOL0     H38198   0.448   8.265   4.735  1.8608  0.8952  2.2805
 1024MOL0     H38199   0.434   8.413   4.634  4.0802 -0.0075  2.1262
 1024MOL0     H38200   0.013   8.287   4.750  1.1894  0.7110  0.2315
 1024MOL0     H38201  -0.203   8.185   4.683 -0.9441 -1.2752  0.3598
 1024MOL0     H38202  -0.205   8.069   4.547 -0.7301 -0.0299  1.3374
 1024MOL0     H38203  -0.175   8.015   4.714  0.0712  0.4141  1.8410
 1024MOL0     H38204  -0.188   7.698   4.418  1.5108 -2.6685  3.5129
 1024MOL0     H38205  -0.275   7.520   4.282  0.2101  0.0306 -0.7226
 1024MOL0     H38206  -0.346   7.407   4.089 -0.4446 -4.3598 -0.6680
 1024MOL0     H38207  -0.249   7.507   3.976  3.0607  0.1409  0.5906
 1024MOL0     H38208  -0.203   7.327   3.833  0.5085  1.7892  1.4666
 1024MOL0     H38209  -0.254   7.210   3.959 -0.0813  1.1120  1.9707
 1024MOL0     H38210  -0.429   7.433   3.847  1.8558  0.5844  0.3229
 1024MOL0     H38211  -0.482   7.288   3.934  0.5188  1.3394  2.0572
 1024MOL0     H38212  -0.346   7.294   3.658 -1.6907 -0.9872 -2.3731
 1024MOL0     H38213  -0.373   7.146   3.733 -0.9186  0.3490 -2.3280
 1024MOL0     H38214  -0.519   7.216   3.549  0.4779  2.9339 -1.4669
 1024MOL0     H38215  -0.562   7.357   3.638  1.5907  0.4671 -0.0614
 1024MOL0     H38216  -0.624   7.044   3.680 -0.0993  0.2764  0.8122
 1024MOL0     H38217  -0.626   7.144   3.821  3.0959 -3.1326  0.1542
 1024MOL0     H38218  -0.825   7.081   3.663  0.8295 -0.4319  0.4688
 1024MOL0     H38219  -0.781   7.242   3.579 -0.2258 -0.4376  0.3953
 1024MOL0     H38220  -0.956   7.306   3.726  2.8470  3.4245 -3.1319
 1024MOL0     H38221  -0.813   7.340   3.817 -2.3124  1.3374  0.8706
 1024MOL0     H38222   0.095   7.516   4.062  3.3408  1.1922  3.4899
 1024MOL0     H38223   0.139   7.742   4.170 -1.1229  1.3017 -0.4257
 1024MOL0     H38224   0.264   7.982   4.467  1.0914  1.7095 -0.8417
 1024MOL0     H38225   0.364   8.185   4.559  1.2774 -0.8703  1.6780
 1024MOL0     H38226   1.425   8.420   4.779 -0.2376 -0.7795 -0.6090
 1024MOL0     H38227   1.429   8.409   4.532 -1.3740 -1.3904 -2.8079
 1024MOL0     H38228   1.012   8.216   4.300  0.6937  0.7661 -0.7765
 1024MOL0     H38229   0.857   8.109   4.136  0.2364  0.7370 -1.7517
 1024MOL0     H38230   0.995   7.825   3.819  5.4706  1.7142  3.8959
 1024MOL0     H38231   0.998   7.718   3.951 -3.1746 -2.5738  0.2014
 1024MOL0     H38232   0.760   7.804   3.791 -0.5915 -0.4336 -2.3234
 1024MOL0     H38233   0.751   7.718   3.951  3.1116  1.0270  2.8504
 1024MOL0     H38234   0.869   7.541   3.854  0.8286 -1.1784 -0.6279
 1024MOL0     H38235   0.918   7.620   3.703 -0.2262 -2.9012  2.1536
 1024MOL0     H38236   0.637   7.568   3.774  0.3996 -0.2135  0.8722
 1024MOL0     H38237   0.734   7.452   3.693  0.5417  0.3274  0.5633
 1024MOL0     H38238   0.681   7.746   3.392  0.6935  0.2041  0.3680
 1024MOL0     H38239   1.170   7.846   4.010  1.5724 -0.7692  0.3651
 1024MOL0     H38240   1.326   7.950   4.163  0.0940 -0.2276  0.5809
  11.53712  11.53712  11.53712
